FOO
138240
    1MOL0     O    1  10.101   8.182   9.496 -0.0131  0.8956  0.0582
    1MOL0     C    2  10.160   8.075   9.458  1.4181 -0.2074  0.9608
    1MOL0     O    3  10.164   8.024   9.336  0.7104 -0.0014  1.0671
    1MOL0     C    4  10.102   8.086   9.229  0.2557  0.1368  0.4393
    1MOL0     C    5  10.073   8.013   9.113  0.3255  0.5098 -0.3549
    1MOL0     C    6  10.011   8.065   8.994 -0.2589  0.7968 -0.7093
    1MOL0     C    7   9.977   8.200   8.985 -0.3926  0.1309 -0.4433
    1MOL0     O    8   9.913   8.239   8.869  0.5352 -0.3908  0.2802
    1MOL0     C    9   9.867   8.375   8.874  0.9885  0.5019  0.1082
    1MOL0     C   10   9.778   8.389   8.743 -0.4645 -0.1619  0.0737
    1MOL0     C   11   9.650   8.307   8.739 -0.2437 -0.0499 -0.3562
    1MOL0     C   12   9.552   8.333   8.614 -0.1811  0.2980 -0.0116
    1MOL0     C   13   9.430   8.240   8.613 -0.9126 -0.5357  0.5621
    1MOL0     C   14   9.462   8.091   8.616 -0.8765 -0.4420 -0.0396
    1MOL0     C   15   9.356   8.000   8.545  0.3654  0.2869 -0.3382
    1MOL0     C   16   9.227   7.989   8.630 -0.2599  0.7650  0.2294
    1MOL0     N   17   9.113   8.057   8.563  0.1306 -0.1858 -0.6292
    1MOL0     C   18   9.032   8.021   8.459  0.6729  0.4493 -0.3722
    1MOL0     C   19   8.961   8.143   8.432 -0.5709 -0.4605  0.1254
    1MOL0     C   20   8.838   8.173   8.345 -1.2200 -0.6412 -0.3177
    1MOL0     C   21   8.860   8.283   8.243 -0.9578  0.4859 -0.6919
    1MOL0     C   22   8.719   8.325   8.189 -0.3383 -0.1500 -0.7011
    1MOL0     C   23   8.719   8.359   8.035  0.2513  0.1494 -0.4251
    1MOL0     O   24   8.735   8.239   7.956 -0.1482  0.2913  0.1809
    1MOL0     C   25   8.802   8.235   7.838 -1.5364 -0.9094 -0.2631
    1MOL0     C   26   8.792   8.333   7.734 -0.5754  0.1903 -0.4970
    1MOL0     C   27   8.851   8.314   7.613  0.6586 -0.2297  0.5946
    1MOL0     C   28   8.840   8.424   7.508 -0.1246  0.4151 -0.2079
    1MOL0     C   29   8.918   8.191   7.587  0.1392 -0.1755 -0.1936
    1MOL0     C   30   8.995   8.164   7.465 -0.2694 -0.1494  0.0665
    1MOL0     O   31   8.940   8.203   7.347  0.2763 -0.1650  0.8454
    1MOL0     C   32   9.015   8.174   7.235 -0.0677 -0.4928  0.2481
    1MOL0     C   33   9.051   8.042   7.205 -0.0394 -0.5064  1.1420
    1MOL0     C   34   9.136   8.031   7.094  0.0930 -0.9006 -0.2409
    1MOL0     C   35   9.161   8.130   7.002 -0.3572  0.1714 -0.8131
    1MOL0     O   36   9.253   8.125   6.896  1.1145  0.7107  0.4967
    1MOL0     C   37   9.258   8.017   6.812 -0.8673  0.7412  0.7500
    1MOL0     C   38   9.395   7.934   6.842 -0.2096 -0.1559 -0.9719
    1MOL0     C   39   9.423   7.829   6.737 -0.1388  0.2516  0.3715
    1MOL0     C   40   9.565   7.791   6.737 -1.1761  0.0852 -0.0919
    1MOL0     C   41   9.617   7.700   6.614  0.0490 -0.3194  0.7465
    1MOL0     C   42   9.749   7.635   6.644 -0.5279 -0.5410  0.8160
    1MOL0     C   43   9.865   7.736   6.660  0.6662 -0.0482  0.1340
    1MOL0     C   44   9.907   7.812   6.533 -0.2828 -0.3754 -0.0982
    1MOL0    Cl   45  10.038   7.911   6.598 -0.2471 -0.1972  0.2368
    1MOL0     C   46   9.120   8.260   7.036  0.3222  0.2455  0.5938
    1MOL0     C   47   9.042   8.283   7.157 -0.6655  0.8366  0.5769
    1MOL0     O   48   9.097   8.105   7.476 -0.2852 -0.5723  0.1808
    1MOL0     C   49   8.940   8.100   7.694  0.2230  0.4127  0.3236
    1MOL0     C   50   8.875   8.124   7.818  0.4634  1.2626 -0.6934
    1MOL0     N   51   9.001   8.245   8.515 -0.7603 -0.1891  1.8298
    1MOL0     N   52   9.088   8.189   8.592  0.1035 -0.2795  0.4705
    1MOL0     C   53  10.027   8.276   9.090 -0.2750  0.5976  0.1369
    1MOL0     C   54  10.083   8.225   9.212 -0.7953  0.5310 -0.2218
    1MOL0     C   55  10.224   8.000   9.571 -0.5533 -0.2297 -0.5988
    1MOL0     C   56  10.234   7.863   9.557  0.3772 -0.8667  0.8197
    1MOL0     C   57  10.283   7.773   9.654 -0.2786 -0.6417  0.5943
    1MOL0     C   58  10.323   7.826   9.775  0.2735 -0.7425  0.8658
    1MOL0     O   59  10.401   7.758   9.857 -0.0167  0.4055  0.6683
    1MOL0     C   60  10.542   7.791   9.874 -0.8812  0.8182  0.4055
    1MOL0     C   61  10.597   7.700   9.983 -0.2622  0.1760 -0.7368
    1MOL0     C   62  10.726   7.765  10.050  0.2070 -0.4995  0.3778
    1MOL0     C   63  10.684   7.881  10.140  0.2471  0.7194 -1.0650
    1MOL0     C   64  10.626   7.838  10.277  0.3601 -0.5507 -0.3691
    1MOL0     C   65  10.599   7.819  10.395 -1.0673 -0.6047  0.2993
    1MOL0     C   66  10.311   7.956   9.796  0.7658 -0.1694 -0.3192
    1MOL0     C   67  10.258   8.048   9.701  1.1139 -1.0172  1.0800
    1MOL0     H   68  10.090   7.906   9.122  1.8572  0.7454 -0.1364
    1MOL0     H   69   9.985   7.993   8.917  1.3816  1.2702 -1.7533
    1MOL0     H   70   9.801   8.389   8.961 -2.3729 -4.1991 -1.2725
    1MOL0     H   71   9.948   8.448   8.884  1.1867  0.1430  1.3679
    1MOL0     H   72   9.752   8.494   8.730  0.6937  0.1916  0.4713
    1MOL0     H   73   9.830   8.334   8.663  1.6089 -2.0761  2.5201
    1MOL0     H   74   9.690   8.206   8.728 -3.1169 -1.4630  1.1647
    1MOL0     H   75   9.597   8.320   8.834  0.5918 -1.8933  0.4149
    1MOL0     H   76   9.524   8.439   8.613 -1.6190 -0.0197 -2.3269
    1MOL0     H   77   9.616   8.300   8.532  2.0280 -2.4590  2.6061
    1MOL0     H   78   9.368   8.264   8.700 -2.8042  1.8913 -1.3309
    1MOL0     H   79   9.371   8.267   8.525  0.5054  3.5355  0.6351
    1MOL0     H   80   9.563   8.085   8.574 -0.0034 -0.1134  1.9113
    1MOL0     H   81   9.481   8.060   8.719 -0.8580 -1.7411 -0.4064
    1MOL0     H   82   9.333   8.043   8.447 -0.7544 -2.1051 -1.1843
    1MOL0     H   83   9.400   7.902   8.526 -0.4940  0.0558 -1.1683
    1MOL0     H   84   9.251   8.036   8.725 -0.7423 -2.1099  1.8873
    1MOL0     H   85   9.210   7.884   8.654 -1.8508  0.3548 -2.2640
    1MOL0     H   86   9.003   7.926   8.414 -1.5418  2.7454 -4.3220
    1MOL0     H   87   8.801   8.087   8.290 -4.0017 -0.2938  0.8113
    1MOL0     H   88   8.747   8.168   8.407  0.5261 -3.1066  2.3130
    1MOL0     H   89   8.914   8.234   8.162 -0.5714  0.6441 -0.5340
    1MOL0     H   90   8.921   8.367   8.278  1.5641 -0.8241 -1.7081
    1MOL0     H   91   8.679   8.414   8.240  0.0757  3.6645 -6.1162
    1MOL0     H   92   8.644   8.246   8.179 -0.5224  0.1794 -2.3685
    1MOL0     H   93   8.792   8.434   8.003  1.3016 -1.2820 -1.5227
    1MOL0     H   94   8.618   8.390   8.006 -0.9337 -1.8211  1.3377
    1MOL0     H   95   8.728   8.418   7.753  0.0226  0.7615 -0.9654
    1MOL0     H   96   8.754   8.409   7.442  0.4674 -0.6783 -0.7480
    1MOL0     H   97   8.836   8.522   7.556  2.0744  0.6962 -0.5175
    1MOL0     H   98   8.934   8.432   7.454 -1.6664 -1.6975 -3.4941
    1MOL0     H   99   9.029   7.951   7.261  0.4051 -0.9332  0.6289
    1MOL0     H  100   9.191   7.938   7.089  1.1898 -0.3642  1.1734
    1MOL0     H  101   9.172   7.951   6.828 -1.8744  2.6942  4.6307
    1MOL0     H  102   9.243   8.045   6.708 -0.4730 -0.0749  0.4671
    1MOL0     H  103   9.480   8.004   6.838 -0.0876 -0.3367 -3.4932
    1MOL0     H  104   9.387   7.891   6.942 -0.6134 -1.6704 -1.6231
    1MOL0     H  105   9.392   7.864   6.639  2.1232 -3.1073 -1.7334
    1MOL0     H  106   9.367   7.743   6.775  2.2118 -1.2798  0.6173
    1MOL0     H  107   9.627   7.881   6.736 -0.2562 -0.5077 -2.0024
    1MOL0     H  108   9.593   7.748   6.833 -2.4648  2.6152  1.5279
    1MOL0     H  109   9.628   7.769   6.530 -1.6012 -1.5025 -0.5167
    1MOL0     H  110   9.537   7.630   6.588 -1.0841  0.1919  2.6193
    1MOL0     H  111   9.738   7.579   6.738  0.5927 -3.7416 -0.8358
    1MOL0     H  112   9.785   7.564   6.569 -0.3861 -2.3240  2.4889
    1MOL0     H  113   9.941   7.665   6.693  0.1997 -0.4421  0.3857
    1MOL0     H  114   9.841   7.806   6.741  1.0092 -1.1916  1.2480
    1MOL0     H  115   9.825   7.878   6.504  0.2729  1.6312  2.4673
    1MOL0     H  116   9.937   7.747   6.451  0.6502 -2.6762  1.9248
    1MOL0     H  117   9.152   8.345   6.976  1.6159 -0.3645  0.3844
    1MOL0     H  118   9.000   8.379   7.184  0.4620  1.5718 -0.1884
    1MOL0     H  119   8.996   8.008   7.687 -2.5264 -1.4773  1.3475
    1MOL0     H  120   8.882   8.077   7.915 -0.0194  5.4250  1.5898
    1MOL0     H  121  10.010   8.383   9.093 -2.3662  0.3824 -1.4781
    1MOL0     H  122  10.096   8.304   9.284 -0.1055  0.1708  0.0550
    1MOL0     H  123  10.212   7.818   9.460  0.0260 -2.1621  1.4664
    1MOL0     H  124  10.304   7.668   9.640 -0.1838 -0.6775  1.0026
    1MOL0     H  125  10.599   7.775   9.782 -1.2464 -2.0234  0.5964
    1MOL0     H  126  10.552   7.899   9.884 -0.7790  0.9059 -0.5266
    1MOL0     H  127  10.624   7.609   9.928 -1.4471  0.9745 -2.7196
    1MOL0     H  128  10.517   7.679  10.055 -0.0487 -3.2745 -1.2959
    1MOL0     H  129  10.792   7.807   9.973  1.9224 -0.1526  1.9657
    1MOL0     H  130  10.795   7.699  10.103  0.8786  0.7228  1.0961
    1MOL0     H  131  10.609   7.944  10.091 -2.4895 -2.9920 -2.0571
    1MOL0     H  132  10.776   7.940  10.147  0.7111 -0.1543  1.3782
    1MOL0     H  133  10.577   7.795  10.497 -1.8891 -3.0874 -0.3907
    1MOL0     H  134  10.352   8.001   9.885 -1.7461  0.7639  0.4447
    1MOL0     H  135  10.238   8.154   9.713 -0.8527 -1.2925  0.5562
    2MOL0     O  136   8.728   9.579   9.555 -0.3653  0.1756  0.6416
    2MOL0     C  137   8.646   9.551   9.461 -1.0494 -0.2336  0.2551
    2MOL0     O  138   8.558   9.454   9.471 -0.2468 -0.1237  0.2499
    2MOL0     C  139   8.600   9.326   9.512 -0.4726  0.0969 -0.6190
    2MOL0     C  140   8.502   9.246   9.561 -0.7982 -0.6839  0.3604
    2MOL0     C  141   8.539   9.113   9.605  0.1734 -0.3554  0.9036
    2MOL0     C  142   8.665   9.055   9.588  0.1217 -0.0130  0.9147
    2MOL0     O  143   8.685   8.921   9.620 -0.2061  0.0892 -0.3552
    2MOL0     C  144   8.720   8.899   9.758 -0.2765 -0.8794 -0.4918
    2MOL0     C  145   8.786   8.766   9.802 -0.0326 -0.3765 -0.3646
    2MOL0     C  146   8.920   8.748   9.731 -0.0028 -0.3483  0.2951
    2MOL0     C  147   8.978   8.612   9.758 -0.6682 -0.0831 -0.5139
    2MOL0     C  148   9.120   8.589   9.700 -0.7916 -0.5458 -0.5851
    2MOL0     C  149   9.127   8.611   9.542 -0.4037  0.4154  0.5997
    2MOL0     C  150   9.215   8.504   9.479 -0.2850 -0.0744 -0.1014
    2MOL0     C  151   9.195   8.505   9.333 -0.2566 -0.1108  0.3643
    2MOL0     N  152   9.267   8.403   9.259 -0.0439 -0.3078 -0.2874
    2MOL0     C  153   9.227   8.276   9.242  0.4694  0.3149  0.0489
    2MOL0     C  154   9.312   8.218   9.149  0.5317 -0.2146  0.2752
    2MOL0     C  155   9.302   8.079   9.090 -0.0973  0.0117 -0.0523
    2MOL0     C  156   9.326   7.971   9.197 -0.3709 -0.4785 -0.2285
    2MOL0     C  157   9.463   7.994   9.256 -0.4306 -0.4395 -0.1690
    2MOL0     C  158   9.514   7.871   9.322  0.2628  1.3808 -0.7038
    2MOL0     O  159   9.648   7.890   9.377  0.1296 -0.4794 -0.4200
    2MOL0     C  160   9.694   7.763   9.399 -0.3870  0.6342 -0.0926
    2MOL0     C  161   9.809   7.721   9.336 -0.8108 -0.4812 -0.4464
    2MOL0     C  162   9.869   7.595   9.354 -0.0370 -0.9538  0.2727
    2MOL0     C  163   9.984   7.553   9.265  1.3418  0.5344  0.2027
    2MOL0     C  164   9.806   7.509   9.448 -0.0957 -0.6458  0.0929
    2MOL0     C  165   9.863   7.381   9.485 -0.3360 -0.3884  0.1796
    2MOL0     O  166   9.811   7.267   9.436  0.8234 -0.8274  0.0210
    2MOL0     C  167   9.846   7.146   9.486 -0.9680 -0.0356 -0.0492
    2MOL0     C  168   9.790   7.103   9.604  0.2794 -0.7992  0.2393
    2MOL0     C  169   9.850   6.988   9.665 -0.1414 -0.8241 -0.1257
    2MOL0     C  170   9.953   6.915   9.593 -0.1037  0.7215 -0.1274
    2MOL0     O  171  10.023   6.810   9.640  0.2031  0.4763 -0.2197
    2MOL0     C  172   9.955   6.714   9.726  0.2714  0.5188  0.6930
    2MOL0     C  173  10.032   6.577   9.728  0.3336  0.4958 -0.0596
    2MOL0     C  174  10.164   6.575   9.810  0.2189 -0.5957 -0.4848
    2MOL0     C  175  10.245   6.445   9.772  0.3744 -0.0225 -0.4339
    2MOL0     C  176  10.141   6.327   9.778 -0.9413 -0.0108 -0.5119
    2MOL0     C  177  10.204   6.195   9.819  0.1253 -0.2548  0.9617
    2MOL0     C  178  10.326   6.170   9.723 -0.0948  0.0402  0.0631
    2MOL0     C  179  10.362   6.017   9.720 -0.2324  0.5000 -0.2190
    2MOL0    Cl  180  10.450   5.979   9.879 -0.2193  0.1263  0.5399
    2MOL0     C  181  10.001   6.964   9.479 -0.0499 -0.5481  0.5863
    2MOL0     C  182   9.951   7.072   9.425  0.5651  0.1476  0.0114
    2MOL0     O  183   9.970   7.385   9.551 -0.1063 -0.2507 -0.1250
    2MOL0     C  184   9.694   7.560   9.523 -0.2863  0.4775 -0.6116
    2MOL0     C  185   9.635   7.678   9.497  0.5562  0.2616  0.4113
    2MOL0     N  186   9.404   8.317   9.113  0.4417 -0.0974  0.3389
    2MOL0     N  187   9.370   8.424   9.168  0.1649  0.0006 -0.9900
    2MOL0     C  188   8.762   9.132   9.524  0.3150 -0.5820 -0.0974
    2MOL0     C  189   8.728   9.261   9.484  0.0951 -0.8224  0.3250
    2MOL0     C  190   8.619   9.654   9.365  0.7883 -0.2015  0.3060
    2MOL0     C  191   8.504   9.659   9.280  0.4289  0.2486  0.1903
    2MOL0     C  192   8.477   9.771   9.190  0.0262 -0.1602  0.3368
    2MOL0     C  193   8.560   9.881   9.193  0.0566 -0.0508  0.6600
    2MOL0     O  194   8.532   9.985   9.113  0.5517  0.6570 -0.8225
    2MOL0     C  195   8.617  10.097   9.093 -0.0969 -0.5648  0.2302
    2MOL0     C  196   8.579  10.192   8.976 -0.8836 -0.6124  0.4009
    2MOL0     C  197   8.455  10.277   8.996 -0.7327 -0.1582  0.7099
    2MOL0     C  198   8.418  10.380   8.890  0.2303  0.3807 -0.5000
    2MOL0     C  199   8.529  10.465   8.848 -0.9385 -0.3300  0.1316
    2MOL0     C  200   8.620  10.535   8.802  0.6342 -0.2445 -0.4651
    2MOL0     C  201   8.664   9.876   9.289 -0.5773 -0.3370 -0.2291
    2MOL0     C  202   8.703   9.763   9.361  0.0404  0.8370 -0.4450
    2MOL0     H  203   8.400   9.280   9.548 -0.0156  0.5529 -4.4571
    2MOL0     H  204   8.463   9.044   9.642 -0.8631 -0.0045 -0.4725
    2MOL0     H  205   8.787   8.980   9.790 -2.1138  0.9900 -1.1332
    2MOL0     H  206   8.625   8.907   9.812  0.1592 -0.1897  0.2012
    2MOL0     H  207   8.811   8.782   9.908 -0.8834 -1.2443 -0.0195
    2MOL0     H  208   8.715   8.683   9.797 -3.0353  1.0339  6.5464
    2MOL0     H  209   8.914   8.781   9.627  2.0648 -1.7275 -0.3137
    2MOL0     H  210   8.985   8.817   9.785 -1.1121 -0.4066  1.7812
    2MOL0     H  211   8.980   8.588   9.865  1.8143 -2.1333 -0.9288
    2MOL0     H  212   8.905   8.544   9.713  1.0483 -0.8736 -2.2340
    2MOL0     H  213   9.190   8.651   9.757  0.3333  0.5317 -3.0177
    2MOL0     H  214   9.133   8.485   9.731 -0.2671  0.1834  1.8800
    2MOL0     H  215   9.025   8.599   9.502  0.5033 -1.3442 -1.4319
    2MOL0     H  216   9.169   8.707   9.512  1.7722 -1.3567 -2.7531
    2MOL0     H  217   9.317   8.536   9.503 -0.1963 -0.3539 -0.1068
    2MOL0     H  218   9.194   8.404   9.518 -1.7046  0.0686 -0.4387
    2MOL0     H  219   9.219   8.601   9.286 -2.6782 -1.7877 -5.1110
    2MOL0     H  220   9.090   8.480   9.314  0.0266 -0.5829 -0.6864
    2MOL0     H  221   9.144   8.232   9.297 -0.8157 -0.1366 -2.1625
    2MOL0     H  222   9.201   8.064   9.052 -0.6828  3.3268 -0.1446
    2MOL0     H  223   9.373   8.066   9.008  1.4666 -1.2511  1.4294
    2MOL0     H  224   9.324   7.874   9.147  0.5072  0.2951 -1.8459
    2MOL0     H  225   9.252   7.976   9.277 -1.0208  4.5245 -0.8612
    2MOL0     H  226   9.468   8.076   9.328  1.6513 -0.2159 -0.4985
    2MOL0     H  227   9.529   8.022   9.173 -0.2167  0.1717  0.2021
    2MOL0     H  228   9.508   7.785   9.255  0.3603 -1.8239  3.0167
    2MOL0     H  229   9.440   7.848   9.399 -1.5106  0.6349 -2.5361
    2MOL0     H  230   9.862   7.783   9.265  2.5440 -1.8825  0.6054
    2MOL0     H  231  10.052   7.634   9.238  2.8635  0.5233  3.5984
    2MOL0     H  232  10.052   7.486   9.319 -3.3952 -2.5130  3.2790
    2MOL0     H  233   9.962   7.494   9.175  3.9523 -2.0722  1.1160
    2MOL0     H  234   9.709   7.155   9.654  0.5381 -0.2624  0.1005
    2MOL0     H  235   9.815   6.959   9.763  2.9883  3.3726  2.5970
    2MOL0     H  236   9.944   6.761   9.824 -1.7476 -1.2363  1.3988
    2MOL0     H  237   9.858   6.694   9.679  2.2966  1.3238 -4.5967
    2MOL0     H  238   9.968   6.496   9.766  3.2576 -2.6116 -1.2591
    2MOL0     H  239  10.046   6.555   9.622  1.6907  0.9568  0.0036
    2MOL0     H  240  10.141   6.594   9.916 -0.0991  0.8106 -0.7891
    2MOL0     H  241  10.216   6.668   9.786 -2.0123  0.5964 -0.9055
    2MOL0     H  242  10.289   6.459   9.673  2.9522 -3.5273  0.0294
    2MOL0     H  243  10.326   6.436   9.845 -0.9774 -1.0868  1.0361
    2MOL0     H  244  10.092   6.311   9.681 -1.7131  0.9031 -0.2901
    2MOL0     H  245  10.062   6.344   9.851 -0.4334  0.3074 -0.0248
    2MOL0     H  246  10.243   6.205   9.921  1.0297  1.8758  0.4606
    2MOL0     H  247  10.124   6.122   9.802  0.7855 -0.9118  0.5987
    2MOL0     H  248  10.411   6.229   9.759 -1.1946  0.6972  1.6741
    2MOL0     H  249  10.304   6.200   9.620 -2.1311 -0.2945  0.3612
    2MOL0     H  250  10.423   5.999   9.631  1.1647  0.1616  0.7560
    2MOL0     H  251  10.269   5.960   9.714  0.8999 -1.2599 -2.1501
    2MOL0     H  252  10.085   6.921   9.425  0.2803 -0.6146  1.1328
    2MOL0     H  253   9.992   7.115   9.334 -2.1489 -2.1773 -2.5672
    2MOL0     H  254   9.642   7.499   9.596  0.0922 -0.7851 -1.3540
    2MOL0     H  255   9.541   7.704   9.544 -0.2323 -0.3987 -0.7365
    2MOL0     H  256   8.856   9.079   9.514 -1.0480 -3.5397  1.4887
    2MOL0     H  257   8.803   9.329   9.445 -0.5451 -0.7435 -0.8394
    2MOL0     H  258   8.442   9.570   9.280 -2.1471  1.9239 -1.1420
    2MOL0     H  259   8.395   9.764   9.119 -0.4659 -2.3142  1.0462
    2MOL0     H  260   8.631  10.154   9.186  0.8215  0.0938 -0.2946
    2MOL0     H  261   8.718  10.060   9.071  0.6038  1.2695  0.1780
    2MOL0     H  262   8.571  10.134   8.883 -2.1659  1.4586 -0.8688
    2MOL0     H  263   8.661  10.260   8.951 -0.2441 -0.7057  2.1278
    2MOL0     H  264   8.464  10.315   9.098 -1.8393 -0.0750  0.7926
    2MOL0     H  265   8.374  10.203   9.001 -1.0303  0.2779  3.4847
    2MOL0     H  266   8.344  10.443   8.940 -0.3535 -3.4403  4.1645
    2MOL0     H  267   8.383  10.326   8.802  3.6872 -3.4941  0.1581
    2MOL0     H  268   8.698  10.599   8.766 -1.9967  3.0663 -0.7459
    2MOL0     H  269   8.742   9.951   9.296 -0.8704 -0.0608  0.1227
    2MOL0     H  270   8.792   9.765   9.423 -0.7113  0.0293  0.7212
    3MOL0     O  271  10.187   0.363   4.185 -0.2446 -0.3457  0.8349
    3MOL0     C  272  10.212   0.441   4.276  0.5212 -0.7251 -1.0692
    3MOL0     O  273  10.340   0.474   4.325 -0.1444 -0.0866  0.1254
    3MOL0     C  274  10.451   0.448   4.241 -0.6954 -1.1097 -0.9948
    3MOL0     C  275  10.494   0.526   4.134 -0.0578 -0.4725  0.2629
    3MOL0     C  276  10.603   0.501   4.052  1.0392 -1.0873 -0.3495
    3MOL0     C  277  10.685   0.401   4.103 -0.3646  0.1093 -0.0661
    3MOL0     O  278  10.804   0.368   4.054 -0.9784  0.0151  0.0001
    3MOL0     C  279  10.810   0.380   3.910  0.2678 -0.0315  0.0561
    3MOL0     C  280  10.956   0.356   3.863  1.0567  0.3188 -0.5685
    3MOL0     C  281  10.971   0.385   3.716 -0.0360 -0.2776  0.1672
    3MOL0     C  282  10.988   0.530   3.683  0.0556  0.1710 -0.6637
    3MOL0     C  283  11.040   0.555   3.539 -0.2380 -0.6477 -1.2038
    3MOL0     C  284  11.041   0.696   3.495  0.9276 -0.9926 -0.0266
    3MOL0     C  285  11.097   0.722   3.355  0.7470  0.3869  0.2188
    3MOL0     C  286  11.096   0.874   3.331  0.1715 -0.4537 -0.2425
    3MOL0     N  287  11.175   0.910   3.211  0.1288  0.1248 -0.7919
    3MOL0     C  288  11.241   1.028   3.195 -0.2577  0.5183  0.4290
    3MOL0     C  289  11.304   1.011   3.076  0.4164  0.3944 -0.1863
    3MOL0     C  290  11.395   1.107   3.015 -0.1780 -0.3947  0.5453
    3MOL0     C  291  11.545   1.084   3.054  0.3390 -0.6029  0.2047
    3MOL0     C  292  11.643   1.147   2.949  0.6676 -0.7787 -0.4308
    3MOL0     C  293  11.636   1.065   2.817  0.1788  0.9574  0.4800
    3MOL0     O  294  11.735   1.123   2.732  0.1285  0.0535 -0.8766
    3MOL0     C  295  11.706   1.237   2.655 -0.5374 -0.3368  0.2294
    3MOL0     C  296  11.640   1.236   2.531  0.1674  0.4850 -0.3931
    3MOL0     C  297  11.637   1.347   2.445  0.3304  0.4895 -0.2882
    3MOL0     C  298  11.576   1.329   2.309  0.0891 -0.3528  0.2358
    3MOL0     C  299  11.685   1.471   2.487 -0.6580  0.2261  0.0063
    3MOL0     C  300  11.674   1.595   2.402  0.5527 -0.0572  0.2485
    3MOL0     O  301  11.711   1.590   2.273  0.0100  0.1039  1.0487
    3MOL0     C  302  11.715   1.703   2.204  0.5692 -1.5188 -0.3156
    3MOL0     C  303  11.599   1.773   2.177  0.6472 -0.0541 -0.2851
    3MOL0     C  304  11.603   1.892   2.102  0.0743  0.4301  0.1811
    3MOL0     C  305  11.726   1.943   2.053  0.7356  0.4587 -0.0289
    3MOL0     O  306  11.745   2.068   1.993 -0.3810 -0.2726  0.2383
    3MOL0     C  307  11.632   2.157   1.963 -0.0301  0.5693  0.7593
    3MOL0     C  308  11.653   2.245   1.837  0.2813  0.1180  1.3844
    3MOL0     C  309  11.687   2.163   1.709  0.3934 -1.3070  1.2101
    3MOL0     C  310  11.702   2.265   1.590 -0.1726 -0.0909  0.8033
    3MOL0     C  311  11.780   2.205   1.466  0.3239 -0.4599 -0.7414
    3MOL0     C  312  11.689   2.125   1.369  1.0191 -0.0065 -0.9553
    3MOL0     C  313  11.780   2.031   1.287  0.8572 -0.6136 -0.7223
    3MOL0     C  314  11.695   1.952   1.184 -1.0192  0.3638 -0.7181
    3MOL0    Cl  315  11.604   2.062   1.078  0.1279  0.4841 -0.0146
    3MOL0     C  316  11.837   1.860   2.062  0.6256  0.0841 -0.3394
    3MOL0     C  317  11.836   1.745   2.145 -0.9102 -0.3488 -0.5274
    3MOL0     O  318  11.626   1.692   2.461  0.1996 -0.5680  0.4586
    3MOL0     C  319  11.741   1.470   2.620  0.3925  0.1873 -0.2454
    3MOL0     C  320  11.753   1.361   2.707 -0.2576 -0.2363 -0.2545
    3MOL0     N  321  11.266   0.894   3.018  0.4049  0.0040  0.8171
    3MOL0     N  322  11.195   0.828   3.104  0.2348 -0.2268 -0.9242
    3MOL0     C  323  10.647   0.310   4.203 -0.0513  0.5448  0.1969
    3MOL0     C  324  10.536   0.342   4.283 -0.7003  0.5494 -0.5076
    3MOL0     C  325  10.103   0.505   4.359 -0.7093 -0.3609  0.3572
    3MOL0     C  326   9.968   0.497   4.317 -1.0535  0.2822 -0.3537
    3MOL0     C  327   9.875   0.555   4.395 -0.0159 -0.2732  0.0921
    3MOL0     C  328   9.899   0.630   4.513  0.3112  0.1359  0.8202
    3MOL0     O  329   9.799   0.665   4.584  0.3040  0.4955 -1.0743
    3MOL0     C  330   9.812   0.719   4.714  0.5268 -0.1566 -0.0145
    3MOL0     C  331   9.672   0.742   4.767  0.0581 -0.0453 -0.7330
    3MOL0     C  332   9.661   0.812   4.899  0.2483  0.2138 -0.6775
    3MOL0     C  333   9.509   0.867   4.927 -0.6614 -0.0168  0.1095
    3MOL0     C  334   9.506   0.936   5.057  0.0083 -0.6719  0.3981
    3MOL0     C  335   9.534   0.996   5.156  1.2185  0.6376 -1.0701
    3MOL0     C  336  10.029   0.650   4.551 -2.2221  1.2920  0.2645
    3MOL0     C  337  10.129   0.580   4.478  0.1585  0.2797 -0.0999
    3MOL0     H  338  10.422   0.601   4.104 -2.1107 -2.4054  0.1051
    3MOL0     H  339  10.635   0.575   3.979  1.4306  1.3397  2.1198
    3MOL0     H  340  10.755   0.300   3.860  0.1828 -0.1864  0.3924
    3MOL0     H  341  10.788   0.483   3.881  0.9036  0.5318  1.5134
    3MOL0     H  342  11.027   0.418   3.918 -1.8207  2.4930  0.9774
    3MOL0     H  343  10.967   0.248   3.880 -0.0293 -0.2538 -3.0146
    3MOL0     H  344  11.057   0.339   3.667 -0.6957 -1.1731 -0.1865
    3MOL0     H  345  10.890   0.340   3.657 -2.0285  3.2839 -0.1240
    3MOL0     H  346  10.896   0.586   3.702  0.3582  0.5416 -0.2747
    3MOL0     H  347  11.065   0.572   3.747 -1.3380 -0.5829  1.6446
    3MOL0     H  348  11.141   0.514   3.541  0.5613  1.1839  1.9594
    3MOL0     H  349  10.985   0.484   3.475 -1.2631 -0.5289 -0.4867
    3MOL0     H  350  10.935   0.717   3.480  0.4681 -2.8535  0.3281
    3MOL0     H  351  11.088   0.757   3.573  1.1677 -4.4209  2.7776
    3MOL0     H  352  11.200   0.687   3.361  0.4166 -2.6412 -5.2776
    3MOL0     H  353  11.033   0.666   3.286  0.8104  0.0376  0.4408
    3MOL0     H  354  11.123   0.935   3.417 -1.8478 -1.7327  1.3755
    3MOL0     H  355  10.990   0.888   3.310 -0.0724 -3.3908 -1.4977
    3MOL0     H  356  11.251   1.113   3.261  1.1870  1.2906 -0.6953
    3MOL0     H  357  11.373   1.094   2.909  0.5437  0.4996  0.2715
    3MOL0     H  358  11.361   1.207   3.040  0.1100  0.4649 -2.1540
    3MOL0     H  359  11.571   0.978   3.048  0.6368 -0.4753 -1.0138
    3MOL0     H  360  11.576   1.137   3.145  1.5872  0.3992 -0.7672
    3MOL0     H  361  11.743   1.151   2.994  0.4460 -1.8917  0.1919
    3MOL0     H  362  11.611   1.250   2.929  0.4955 -0.6233  0.5754
    3MOL0     H  363  11.534   1.088   2.785  0.2844  1.9948  0.8704
    3MOL0     H  364  11.655   0.957   2.819  0.1707  0.9428 -0.0531
    3MOL0     H  365  11.595   1.142   2.502 -0.1051  0.3368  0.4812
    3MOL0     H  366  11.545   1.229   2.277 -3.9183  0.7217  0.1869
    3MOL0     H  367  11.478   1.378   2.316  0.1554 -0.2370  0.3627
    3MOL0     H  368  11.631   1.369   2.224  0.1615  0.5510  0.6971
    3MOL0     H  369  11.504   1.733   2.213  1.4923  0.1422  2.4011
    3MOL0     H  370  11.509   1.946   2.092 -0.2245 -0.2938 -1.1966
    3MOL0     H  371  11.543   2.096   1.944  0.3473  0.0177  0.7304
    3MOL0     H  372  11.621   2.223   2.050  0.1745 -1.8431  2.7619
    3MOL0     H  373  11.559   2.299   1.821  1.2516  1.6606  0.6932
    3MOL0     H  374  11.732   2.317   1.861  3.6735 -3.0871  0.8614
    3MOL0     H  375  11.608   2.095   1.676 -0.1897  1.1311 -3.3821
    3MOL0     H  376  11.780   2.110   1.730  2.3788  1.4367 -0.0959
    3MOL0     H  377  11.605   2.309   1.564 -0.2449 -0.0247  1.1883
    3MOL0     H  378  11.772   2.345   1.615  2.1594 -2.3804  2.1432
    3MOL0     H  379  11.852   2.132   1.505 -1.3507 -2.8930 -1.9209
    3MOL0     H  380  11.836   2.285   1.417  2.2171 -2.4525 -2.0902
    3MOL0     H  381  11.616   2.069   1.428  0.8747  0.9954 -0.1538
    3MOL0     H  382  11.625   2.187   1.305 -2.6936 -0.2890  2.1525
    3MOL0     H  383  11.836   1.967   1.356 -0.3118 -0.3558  0.5159
    3MOL0     H  384  11.852   2.102   1.245  0.8733 -0.4804 -0.4765
    3MOL0     H  385  11.620   1.894   1.239 -3.4595  4.4079  0.6818
    3MOL0     H  386  11.756   1.899   1.111 -2.3943  1.8726 -3.0743
    3MOL0     H  387  11.925   1.895   2.009  0.7509  1.2522  0.5793
    3MOL0     H  388  11.929   1.691   2.154 -1.0642 -0.3337  1.5260
    3MOL0     H  389  11.777   1.567   2.652  1.0840  0.1398 -0.8482
    3MOL0     H  390  11.795   1.357   2.807 -2.0277 -3.0391  0.4575
    3MOL0     H  391  10.706   0.220   4.219  0.1801  0.4084 -1.2878
    3MOL0     H  392  10.506   0.276   4.364 -3.5967 -0.0153 -1.9097
    3MOL0     H  393   9.936   0.442   4.228  0.9693 -2.5416  0.5414
    3MOL0     H  394   9.770   0.550   4.369  0.3330 -0.4969 -1.3807
    3MOL0     H  395   9.873   0.648   4.769  1.5483  0.1363 -0.7461
    3MOL0     H  396   9.861   0.817   4.716  3.8674 -1.4443 -4.1400
    3MOL0     H  397   9.615   0.649   4.765 -1.5418  0.9027 -0.3567
    3MOL0     H  398   9.625   0.811   4.697  0.3717 -0.4807 -1.3871
    3MOL0     H  399   9.734   0.893   4.895  0.9163 -0.1555  2.0679
    3MOL0     H  400   9.699   0.747   4.979  4.8231  2.8102 -0.3874
    3MOL0     H  401   9.442   0.780   4.926  1.6271 -1.8593  0.4164
    3MOL0     H  402   9.483   0.945   4.854  1.8702  2.7187  1.9385
    3MOL0     H  403   9.546   1.061   5.241 -1.7910  1.9249 -1.5208
    3MOL0     H  404  10.063   0.693   4.645  4.8653 -1.4147 -0.3859
    3MOL0     H  405  10.230   0.598   4.514  0.4264  0.3947 -0.8912
    4MOL0     O  406   6.036   0.416   1.516 -0.3577 -0.4464 -0.0126
    4MOL0     C  407   6.010   0.490   1.607 -0.0861  0.8395 -0.5177
    4MOL0     O  408   5.929   0.467   1.718 -0.4791  0.9841 -1.1328
    4MOL0     C  409   5.874   0.343   1.751  0.4763 -0.2556 -0.6156
    4MOL0     C  410   5.767   0.346   1.836  0.1333 -0.3422 -0.3131
    4MOL0     C  411   5.697   0.233   1.879  0.3028  0.1946  0.6000
    4MOL0     C  412   5.740   0.110   1.826  0.5513  0.0713 -0.9305
    4MOL0     O  413   5.679  -0.003   1.854 -0.0796  1.1783 -0.2458
    4MOL0     C  414   5.643  -0.095   1.743 -0.9744 -0.2767  0.4826
    4MOL0     C  415   5.590  -0.212   1.819  0.5792  0.7048  0.1013
    4MOL0     C  416   5.511  -0.307   1.720  0.5941  0.4143  0.0461
    4MOL0     C  417   5.468  -0.442   1.786 -0.6764  0.4471 -0.2539
    4MOL0     C  418   5.354  -0.508   1.715 -0.4385  0.0182  0.4385
    4MOL0     C  419   5.299  -0.640   1.758 -0.3994 -0.2298  0.0460
    4MOL0     C  420   5.149  -0.644   1.727 -0.9979  0.1958  0.1513
    4MOL0     C  421   5.083  -0.774   1.780  0.1794 -0.1141  1.1003
    4MOL0     N  422   4.944  -0.795   1.716 -0.0641 -0.3901  0.2886
    4MOL0     C  423   4.844  -0.703   1.701  1.3798  0.8778  1.0131
    4MOL0     C  424   4.746  -0.758   1.625  0.4643 -0.7232 -0.0638
    4MOL0     C  425   4.606  -0.722   1.599  0.7523 -0.0763  0.2967
    4MOL0     C  426   4.591  -0.700   1.448 -0.5240  0.6861 -0.2797
    4MOL0     C  427   4.471  -0.610   1.409 -0.1924  0.3929 -0.2872
    4MOL0     C  428   4.480  -0.455   1.404  0.3256 -0.4567 -0.4348
    4MOL0     O  429   4.490  -0.380   1.537 -0.3720 -0.1699 -0.4798
    4MOL0     C  430   4.620  -0.355   1.579  0.1734  0.0568 -0.2952
    4MOL0     C  431   4.739  -0.369   1.504  0.3315 -0.1249  0.2508
    4MOL0     C  432   4.869  -0.347   1.550 -0.1941  1.1808  2.0221
    4MOL0     C  433   4.980  -0.362   1.444  0.5878  0.8445 -0.0927
    4MOL0     C  434   4.889  -0.303   1.684  0.8530  0.7098 -0.2400
    4MOL0     C  435   5.013  -0.279   1.753 -0.0451 -0.4289 -0.8291
    4MOL0     O  436   5.022  -0.292   1.890  0.1092  0.1701  0.4668
    4MOL0     C  437   5.123  -0.225   1.944 -0.7859  0.1441 -0.7612
    4MOL0     C  438   5.105  -0.086   1.945  0.5144  0.6202  0.2400
    4MOL0     C  439   5.199  -0.013   2.023 -0.3648  1.4605 -0.0267
    4MOL0     C  440   5.296  -0.081   2.102  0.3682 -0.2469  0.5199
    4MOL0     O  441   5.378  -0.005   2.185  0.1692  0.0956  0.1191
    4MOL0     C  442   5.512  -0.049   2.213 -0.5054  0.4962  0.0641
    4MOL0     C  443   5.513  -0.109   2.352  0.6390  0.2949  0.8289
    4MOL0     C  444   5.652  -0.159   2.402 -0.2518  0.1259 -0.2710
    4MOL0     C  445   5.636  -0.231   2.536 -0.6413 -0.6771  0.1609
    4MOL0     C  446   5.776  -0.234   2.605 -0.2261  0.4552  0.1642
    4MOL0     C  447   5.782  -0.347   2.712 -0.5553 -0.0597 -0.4617
    4MOL0     C  448   5.902  -0.322   2.805 -0.3304 -1.1976 -0.3896
    4MOL0     C  449   5.884  -0.400   2.929  0.3282  0.2817  1.2787
    4MOL0    Cl  450   5.927  -0.572   2.903 -0.2616 -0.6677  0.8909
    4MOL0     C  451   5.314  -0.223   2.089 -0.2231  0.4718  1.0527
    4MOL0     C  452   5.220  -0.295   2.012  1.1691  0.5980  0.0099
    4MOL0     O  453   5.097  -0.227   1.683  0.0689  0.8488  0.3027
    4MOL0     C  454   4.765  -0.285   1.761 -0.1027 -0.9518 -0.1690
    4MOL0     C  455   4.634  -0.317   1.713 -0.0396 -0.0700 -0.8517
    4MOL0     N  456   4.791  -0.889   1.601  0.2594  0.2969 -0.8875
    4MOL0     N  457   4.908  -0.911   1.663 -0.1887  0.1256  0.2478
    4MOL0     C  458   5.860   0.108   1.743 -0.4780  0.2088  0.3063
    4MOL0     C  459   5.927   0.222   1.709  0.3038 -0.3322 -0.1845
    4MOL0     C  460   6.086   0.617   1.602 -0.0252  0.3949 -0.6290
    4MOL0     C  461   6.210   0.634   1.544  0.2553 -0.6844 -0.2734
    4MOL0     C  462   6.280   0.760   1.549  0.1721 -0.0923  0.5412
    4MOL0     C  463   6.218   0.875   1.604 -0.2032  0.4806  0.0895
    4MOL0     O  464   6.272   0.996   1.599 -0.1775  1.0937 -0.1285
    4MOL0     C  465   6.353   1.025   1.501  0.7435  0.0325 -0.6513
    4MOL0     C  466   6.369   1.170   1.484 -0.1222 -1.0595  0.5053
    4MOL0     C  467   6.252   1.244   1.420  0.4945 -1.1416  0.2385
    4MOL0     C  468   6.180   1.336   1.523  0.5848 -0.0925 -0.2666
    4MOL0     C  469   6.271   1.430   1.570  0.8260 -0.4413  0.6827
    4MOL0     C  470   6.361   1.506   1.610 -0.1456  0.4188  1.4801
    4MOL0     C  471   6.096   0.856   1.658  0.0281 -1.0772  0.3625
    4MOL0     C  472   6.028   0.739   1.669 -0.6172  1.2176 -0.3454
    4MOL0     H  473   5.731   0.443   1.870  2.3730  0.5461 -0.3552
    4MOL0     H  474   5.611   0.234   1.945  1.3751  1.7084  2.0586
    4MOL0     H  475   5.571  -0.040   1.682 -0.7182 -2.7400 -2.2628
    4MOL0     H  476   5.726  -0.113   1.674 -0.8156  0.2289  0.5326
    4MOL0     H  477   5.686  -0.260   1.840  0.6987  0.8425 -0.1338
    4MOL0     H  478   5.532  -0.186   1.908  2.7801 -1.7126  2.3892
    4MOL0     H  479   5.421  -0.254   1.687  0.9040  0.2771 -1.0265
    4MOL0     H  480   5.563  -0.332   1.628  2.7812  3.2913  0.3941
    4MOL0     H  481   5.558  -0.504   1.782 -0.0972  1.3380 -2.5622
    4MOL0     H  482   5.438  -0.421   1.889 -3.4685  0.4583 -0.9813
    4MOL0     H  483   5.273  -0.434   1.719 -1.5335 -1.0786 -0.6759
    4MOL0     H  484   5.383  -0.498   1.610  1.0183  2.3173  0.9853
    4MOL0     H  485   5.362  -0.715   1.710 -0.4246 -0.7554  0.8134
    4MOL0     H  486   5.329  -0.658   1.862  0.4885  0.5594 -0.0572
    4MOL0     H  487   5.085  -0.569   1.777 -1.3014 -0.7884  1.2933
    4MOL0     H  488   5.130  -0.624   1.621  0.5911  2.6868  0.2480
    4MOL0     H  489   5.081  -0.789   1.888 -2.8946 -1.4687  0.9612
    4MOL0     H  490   5.140  -0.857   1.737 -0.1290  0.6728 -0.9621
    4MOL0     H  491   4.842  -0.604   1.747 -0.8971 -0.8217  5.1337
    4MOL0     H  492   4.535  -0.800   1.631  1.1878 -1.6911 -2.3378
    4MOL0     H  493   4.585  -0.621   1.635  2.5235  1.1356 -1.8453
    4MOL0     H  494   4.582  -0.798   1.400  1.1690  0.4028 -0.0765
    4MOL0     H  495   4.665  -0.638   1.397 -0.1220  0.5931  0.1903
    4MOL0     H  496   4.396  -0.630   1.485  1.0958  2.2142  1.5915
    4MOL0     H  497   4.428  -0.650   1.317 -0.6421 -0.1066  0.1375
    4MOL0     H  498   4.388  -0.422   1.356  1.9471  0.4568 -3.1210
    4MOL0     H  499   4.551  -0.422   1.328  1.7777  2.0393  1.8530
    4MOL0     H  500   4.739  -0.410   1.404 -0.5710  1.3276 -0.3829
    4MOL0     H  501   5.030  -0.266   1.435 -1.7827  1.9761 -2.8393
    4MOL0     H  502   5.043  -0.445   1.477  2.5459  2.8686  1.4873
    4MOL0     H  503   4.934  -0.382   1.347 -2.6219  4.1788  0.5430
    4MOL0     H  504   5.024  -0.032   1.897  1.1508  0.1843 -1.3657
    4MOL0     H  505   5.193   0.093   2.047 -2.0806  0.8164  2.7675
    4MOL0     H  506   5.553  -0.127   2.149 -0.1286 -1.2782  2.3292
    4MOL0     H  507   5.563   0.048   2.209 -1.1066  0.7602 -1.7917
    4MOL0     H  508   5.483  -0.033   2.425  1.4063  2.3708 -0.9094
    4MOL0     H  509   5.440  -0.190   2.354 -1.8128  2.1565 -2.8559
    4MOL0     H  510   5.723  -0.078   2.418  2.2000 -2.2471  1.7868
    4MOL0     H  511   5.697  -0.215   2.320 -0.2016  3.0647 -2.4229
    4MOL0     H  512   5.566  -0.187   2.607  0.0224  0.3060  0.2292
    4MOL0     H  513   5.604  -0.332   2.508 -1.1725 -0.0177 -1.8063
    4MOL0     H  514   5.797  -0.136   2.649 -0.2707  1.8245 -2.6408
    4MOL0     H  515   5.855  -0.251   2.532 -0.2280  2.1000 -0.2712
    4MOL0     H  516   5.691  -0.337   2.772  0.3161 -0.1542  0.9331
    4MOL0     H  517   5.796  -0.443   2.661  2.7989  0.4888 -0.8214
    4MOL0     H  518   5.912  -0.217   2.835  3.0023 -0.7228 -2.6318
    4MOL0     H  519   5.999  -0.348   2.763 -0.0982  0.5505 -1.0375
    4MOL0     H  520   5.784  -0.400   2.973 -0.4648 -3.2282 -0.2051
    4MOL0     H  521   5.940  -0.359   3.014 -0.0714 -2.3275  2.9355
    4MOL0     H  522   5.397  -0.264   2.145  0.0836 -1.5152 -0.7388
    4MOL0     H  523   5.216  -0.403   2.001  0.1621  0.6696 -0.4422
    4MOL0     H  524   4.777  -0.254   1.865 -0.9357  0.8309 -0.5835
    4MOL0     H  525   4.542  -0.304   1.770  1.0449  1.9956  0.5442
    4MOL0     H  526   5.910   0.015   1.716 -1.8893 -0.9430  1.4880
    4MOL0     H  527   6.019   0.213   1.652  0.9116  1.8910  0.3408
    4MOL0     H  528   6.263   0.549   1.501  5.0805  0.1996  3.0397
    4MOL0     H  529   6.381   0.770   1.512  0.3677  0.2633  1.1660
    4MOL0     H  530   6.451   0.976   1.509  0.1743 -1.0081  0.3129
    4MOL0     H  531   6.310   0.991   1.407 -0.6737  0.0072 -0.0261
    4MOL0     H  532   6.461   1.184   1.427 -0.8118  1.2854 -0.1468
    4MOL0     H  533   6.390   1.198   1.588  3.8472  0.5425 -0.5562
    4MOL0     H  534   6.176   1.176   1.383 -1.6072  2.1781 -2.1712
    4MOL0     H  535   6.293   1.306   1.339  1.2880 -2.2362 -0.2153
    4MOL0     H  536   6.146   1.277   1.608  1.1832  1.4035  1.0486
    4MOL0     H  537   6.092   1.381   1.477 -0.3176  0.4572  1.9277
    4MOL0     H  538   6.439   1.573   1.641  1.5724 -0.2684 -1.0311
    4MOL0     H  539   6.064   0.947   1.708 -1.9960 -0.3627 -2.0713
    4MOL0     H  540   5.935   0.710   1.717 -0.0752 -1.5635 -0.7917
    5MOL0     O  541   6.172   0.575   7.107 -0.0088 -0.2443 -1.4830
    5MOL0     C  542   6.212   0.472   7.058 -0.3501 -0.2889  0.2008
    5MOL0     O  543   6.337   0.432   7.051 -0.6593  0.4462  0.4775
    5MOL0     C  544   6.437   0.509   7.107  0.4657 -0.6352  0.2571
    5MOL0     C  545   6.526   0.445   7.194  0.5613  0.7372 -1.3216
    5MOL0     C  546   6.624   0.523   7.251  0.6212  0.4324  0.4680
    5MOL0     C  547   6.653   0.647   7.209  0.6857 -0.2344 -0.4127
    5MOL0     O  548   6.758   0.712   7.260 -0.2004  0.1433 -0.5248
    5MOL0     C  549   6.766   0.847   7.235 -0.6266  1.3008  0.8137
    5MOL0     C  550   6.879   0.914   7.309  0.5794 -0.3466 -0.5897
    5MOL0     C  551   7.007   0.873   7.250  0.0361 -0.4192 -0.2848
    5MOL0     C  552   7.132   0.953   7.291  0.0061  0.2225 -0.4536
    5MOL0     C  553   7.262   0.897   7.226  0.1279  0.3579  0.6756
    5MOL0     C  554   7.292   0.987   7.097  0.3625 -0.1717 -0.8162
    5MOL0     C  555   7.367   0.886   7.012 -0.4922 -0.4423 -0.7006
    5MOL0     C  556   7.269   0.810   6.923  0.6658  0.0884 -0.4488
    5MOL0     N  557   7.344   0.738   6.821  0.0147 -0.0346 -0.5089
    5MOL0     C  558   7.414   0.793   6.725 -0.5889 -0.1003  0.0244
    5MOL0     C  559   7.455   0.693   6.643 -0.3170 -0.0807 -0.6479
    5MOL0     C  560   7.512   0.693   6.507  0.2832  0.0545 -0.1742
    5MOL0     C  561   7.646   0.615   6.497  0.7099 -0.1299 -1.0205
    5MOL0     C  562   7.764   0.704   6.536 -0.5476 -0.9276 -0.5494
    5MOL0     C  563   7.896   0.634   6.514  0.3992 -0.3693  0.5739
    5MOL0     O  564   7.918   0.656   6.374  0.0107 -0.0322  0.1927
    5MOL0     C  565   8.039   0.701   6.344 -0.3145 -0.3915 -0.5577
    5MOL0     C  566   8.101   0.817   6.407  0.2193 -0.2602  0.9398
    5MOL0     C  567   8.226   0.869   6.372 -0.5040 -0.2236 -0.3616
    5MOL0     C  568   8.273   0.984   6.454 -0.4709 -0.3466  0.1876
    5MOL0     C  569   8.288   0.822   6.257  0.3785  0.7136 -0.6190
    5MOL0     C  570   8.409   0.879   6.191  0.0622  0.3390 -1.6838
    5MOL0     O  571   8.498   0.777   6.155  0.1864 -0.0726  0.2109
    5MOL0     C  572   8.623   0.828   6.125  0.1469  0.6364 -1.4514
    5MOL0     C  573   8.649   0.873   5.995  0.1340  0.3310 -0.0333
    5MOL0     C  574   8.779   0.919   5.965 -0.3959  0.4402  0.5131
    5MOL0     C  575   8.886   0.907   6.055  0.0077  0.2076  0.3331
    5MOL0     O  576   9.014   0.928   6.025 -0.5450  0.4413  0.3335
    5MOL0     C  577   9.051   1.020   5.918  0.4336  0.1046  0.0454
    5MOL0     C  578   9.209   1.054   5.953  0.0799  0.4027  1.0626
    5MOL0     C  579   9.210   1.155   6.048 -0.3914 -0.4844  0.9270
    5MOL0     C  580   9.357   1.164   6.110  0.1722  0.3433  0.9498
    5MOL0     C  581   9.377   1.273   6.210  0.1233 -0.3814 -0.4173
    5MOL0     C  582   9.310   1.266   6.354 -0.1112 -0.5894  0.2917
    5MOL0     C  583   9.367   1.390   6.431 -0.0532  0.1686 -0.2312
    5MOL0     C  584   9.283   1.406   6.559 -1.1560 -0.5854  0.4277
    5MOL0    Cl  585   9.280   1.254   6.657  0.4440 -0.5465 -0.4033
    5MOL0     C  586   8.852   0.857   6.184 -0.5086 -0.3844  0.2354
    5MOL0     C  587   8.731   0.809   6.213  0.1678  0.1654 -0.3314
    5MOL0     O  588   8.426   0.998   6.190  0.0337 -0.6127 -0.6754
    5MOL0     C  589   8.232   0.700   6.204 -0.0695 -0.1945  1.6713
    5MOL0     C  590   8.108   0.645   6.242 -0.6123 -0.5494 -0.0340
    5MOL0     N  591   7.414   0.576   6.702  0.2457 -0.7592  0.5919
    5MOL0     N  592   7.345   0.605   6.801  0.1725 -0.0096  0.0928
    5MOL0     C  593   6.560   0.709   7.124  0.2472 -0.6736 -0.6467
    5MOL0     C  594   6.454   0.641   7.079  0.1166  0.3978  0.2982
    5MOL0     C  595   6.115   0.373   7.008 -0.0077 -0.0413 -0.6152
    5MOL0     C  596   5.975   0.389   7.034  0.4462 -0.8973  0.0881
    5MOL0     C  597   5.886   0.285   7.006 -0.1916 -0.2115  0.1682
    5MOL0     C  598   5.922   0.184   6.917 -0.2876 -1.1003  0.8501
    5MOL0     O  599   5.835   0.085   6.875 -0.3934  0.0681  0.5303
    5MOL0     C  600   5.690   0.114   6.878  0.1563  0.0218 -0.3703
    5MOL0     C  601   5.623   0.007   6.791 -0.5657  0.7640 -0.2475
    5MOL0     C  602   5.481   0.038   6.744 -0.4385 -0.4347  0.0924
    5MOL0     C  603   5.491   0.129   6.621  0.4325  0.6578  0.8750
    5MOL0     C  604   5.365   0.126   6.545 -0.1735 -0.7066 -0.4377
    5MOL0     C  605   5.257   0.112   6.494  0.3228  1.6753 -0.8360
    5MOL0     C  606   6.059   0.177   6.874 -0.0367 -0.2685 -0.5449
    5MOL0     C  607   6.152   0.262   6.931  0.1317 -0.5560  0.7949
    5MOL0     H  608   6.515   0.342   7.229  0.6810  0.5844 -1.7303
    5MOL0     H  609   6.691   0.477   7.324  0.2833 -2.1417 -0.7328
    5MOL0     H  610   6.788   0.873   7.131 -3.0502  1.5415  0.2923
    5MOL0     H  611   6.672   0.898   7.258 -1.8011 -0.0256 -0.7767
    5MOL0     H  612   6.860   1.022   7.309 -3.3926 -0.8688  1.0617
    5MOL0     H  613   6.874   0.881   7.413 -3.1771 -1.9389 -1.1044
    5MOL0     H  614   7.020   0.769   7.283 -1.3010 -0.7535 -0.7212
    5MOL0     H  615   7.006   0.872   7.140 -1.3399  0.5218 -0.3086
    5MOL0     H  616   7.116   1.060   7.274 -1.1652  0.3206  1.0272
    5MOL0     H  617   7.147   0.939   7.398  2.2672 -2.4981 -0.9956
    5MOL0     H  618   7.343   0.917   7.297  0.3512  0.0600  0.5073
    5MOL0     H  619   7.260   0.790   7.204  1.4414  1.0377 -3.6989
    5MOL0     H  620   7.205   1.026   7.045 -0.3482 -4.3549 -3.2405
    5MOL0     H  621   7.346   1.073   7.138 -0.9496  2.7583 -4.6086
    5MOL0     H  622   7.423   0.960   6.954 -2.7836  2.1082  0.1172
    5MOL0     H  623   7.439   0.823   7.065 -1.4140 -0.8128  0.1461
    5MOL0     H  624   7.197   0.874   6.871  2.1513  0.1255 -2.6165
    5MOL0     H  625   7.210   0.744   6.987  0.1633  2.0069  1.1375
    5MOL0     H  626   7.418   0.902   6.725  1.8507 -0.1260  1.3640
    5MOL0     H  627   7.443   0.639   6.441  0.4135 -1.7650  1.0772
    5MOL0     H  628   7.534   0.795   6.477 -0.1951 -0.1704 -1.3572
    5MOL0     H  629   7.655   0.596   6.390 -2.0173 -4.1895 -0.7525
    5MOL0     H  630   7.644   0.514   6.537  1.2046 -0.2952 -1.4051
    5MOL0     H  631   7.748   0.722   6.642 -2.1567 -1.2578 -0.7125
    5MOL0     H  632   7.767   0.793   6.473  0.0300 -0.6270 -0.1059
    5MOL0     H  633   7.899   0.530   6.549 -0.9470 -1.1214 -1.3976
    5MOL0     H  634   7.964   0.684   6.583 -0.9673 -1.5647  2.9367
    5MOL0     H  635   8.063   0.865   6.496  0.0917  1.0509  0.2001
    5MOL0     H  636   8.257   0.974   6.562 -2.4343  0.6818  0.0511
    5MOL0     H  637   8.381   0.986   6.441 -0.3022 -0.1884  1.4618
    5MOL0     H  638   8.235   1.081   6.421 -1.3118 -1.0290 -0.9235
    5MOL0     H  639   8.570   0.865   5.920  0.4317 -3.1996 -0.1084
    5MOL0     H  640   8.794   0.972   5.871  4.4023  1.9891  1.8269
    5MOL0     H  641   9.034   0.964   5.826 -1.0645 -6.1937  3.5723
    5MOL0     H  642   8.984   1.106   5.920  0.4230  0.0890  0.4069
    5MOL0     H  643   9.254   0.958   5.983  1.9885  0.2186 -1.9826
    5MOL0     H  644   9.258   1.090   5.862 -1.0507  2.2052  1.1173
    5MOL0     H  645   9.142   1.130   6.130 -1.0415  1.4750  1.0268
    5MOL0     H  646   9.190   1.253   6.006  1.1832 -0.2402  0.6798
    5MOL0     H  647   9.363   1.065   6.156 -1.6798  0.5144  1.6681
    5MOL0     H  648   9.428   1.173   6.028 -0.7156  1.1457  0.2401
    5MOL0     H  649   9.347   1.362   6.154 -1.7353  0.5547  1.8956
    5MOL0     H  650   9.484   1.284   6.230  0.0176  0.9182 -0.4404
    5MOL0     H  651   9.206   1.278   6.322  1.1070  4.2691 -2.8582
    5MOL0     H  652   9.326   1.180   6.420 -0.9447 -1.7418 -0.9550
    5MOL0     H  653   9.375   1.486   6.378  3.1721  0.7173  1.0540
    5MOL0     H  654   9.473   1.374   6.451 -0.0428 -1.4486 -1.3839
    5MOL0     H  655   9.183   1.438   6.529  0.3867  2.7803 -1.7063
    5MOL0     H  656   9.318   1.477   6.635  0.7110 -0.4099 -0.5444
    5MOL0     H  657   8.929   0.828   6.254  0.2065  0.6256 -0.1086
    5MOL0     H  658   8.699   0.768   6.308  0.6410 -1.2373 -0.7565
    5MOL0     H  659   8.292   0.647   6.130  1.2004  4.4236 -1.0231
    5MOL0     H  660   8.070   0.557   6.191  0.4810 -2.6757  2.5400
    5MOL0     H  661   6.558   0.809   7.082 -1.4352  0.6029  2.1708
    5MOL0     H  662   6.387   0.688   7.008  2.2088  3.2247  0.0016
    5MOL0     H  663   5.948   0.473   7.097 -1.7314 -0.1920 -1.6559
    5MOL0     H  664   5.789   0.282   7.055  0.4611 -0.9475  1.4695
    5MOL0     H  665   5.649   0.109   6.979  3.5145 -1.0658  1.0749
    5MOL0     H  666   5.666   0.210   6.831 -1.4958 -0.8161 -1.2985
    5MOL0     H  667   5.631  -0.088   6.844  4.3575  0.1954 -1.5399
    5MOL0     H  668   5.690  -0.016   6.707  0.9560 -0.7456  1.2875
    5MOL0     H  669   5.421   0.082   6.823 -2.1979  1.0706 -1.9515
    5MOL0     H  670   5.420  -0.046   6.710 -3.2578  1.9329 -1.1371
    5MOL0     H  671   5.552   0.089   6.539 -0.8323  1.9404 -0.7846
    5MOL0     H  672   5.507   0.236   6.640 -0.7404  0.7634  1.3468
    5MOL0     H  673   5.165   0.094   6.442 -0.5708  0.7434  0.9652
    5MOL0     H  674   6.087   0.113   6.791  2.0881 -1.1734  0.7931
    5MOL0     H  675   6.257   0.243   6.913  0.8240  0.0825  3.6793
    6MOL0     O  676  10.272   3.051   5.552 -0.0857  0.0354  1.0221
    6MOL0     C  677  10.281   3.135   5.636 -0.0673  0.1501 -0.7649
    6MOL0     O  678  10.300   3.113   5.773  0.4739 -0.2937 -0.3912
    6MOL0     C  679  10.313   2.984   5.815 -0.4589 -0.1168  0.5180
    6MOL0     C  680  10.198   2.914   5.846 -0.4520  0.3276 -0.5939
    6MOL0     C  681  10.211   2.782   5.890  0.9683 -0.1988 -0.4622
    6MOL0     C  682  10.334   2.723   5.896  0.1352  0.5171 -0.9174
    6MOL0     O  683  10.342   2.607   5.967 -0.5145  0.2628 -0.0919
    6MOL0     C  684  10.402   2.490   5.913  0.0225 -0.6191  0.1896
    6MOL0     C  685  10.310   2.426   5.807 -0.1569 -0.1171 -0.3936
    6MOL0     C  686  10.346   2.286   5.752 -0.4412  0.8668  0.7714
    6MOL0     C  687  10.306   2.175   5.849  0.0595 -0.3804 -0.2671
    6MOL0     C  688  10.330   2.039   5.800  0.0017  0.2191  0.6571
    6MOL0     C  689  10.456   2.005   5.712  0.0020 -0.7371  0.4361
    6MOL0     C  690  10.451   1.860   5.654  0.1884  0.5148  0.3940
    6MOL0     C  691  10.459   1.751   5.761 -0.6698  0.5185 -0.6914
    6MOL0     N  692  10.447   1.625   5.699  0.1129 -0.5989  0.0764
    6MOL0     C  693  10.330   1.564   5.651  0.3871 -0.7780 -0.2940
    6MOL0     C  694  10.377   1.447   5.601  0.3811 -0.0750 -0.5429
    6MOL0     C  695  10.289   1.340   5.540 -0.5085  0.2087  0.6649
    6MOL0     C  696  10.289   1.357   5.381 -0.4275 -0.2291  0.7335
    6MOL0     C  697  10.185   1.463   5.336  0.0915 -0.3843 -0.2041
    6MOL0     C  698  10.203   1.493   5.188  0.0194  0.4433  0.1195
    6MOL0     O  699  10.225   1.375   5.094 -0.7870 -0.1984 -0.0325
    6MOL0     C  700  10.219   1.408   4.961 -0.6088  0.0407 -0.3555
    6MOL0     C  701  10.215   1.297   4.879 -0.1573 -0.0173 -0.3411
    6MOL0     C  702  10.207   1.295   4.744  0.9746  0.6118  0.1854
    6MOL0     C  703  10.184   1.169   4.671  0.2386  0.4263 -0.4231
    6MOL0     C  704  10.218   1.414   4.686  0.6081 -0.1642 -0.6781
    6MOL0     C  705  10.209   1.420   4.548  0.6922  0.7331 -0.3661
    6MOL0     O  706  10.086   1.466   4.501 -0.8018 -0.3352  0.1871
    6MOL0     C  707  10.062   1.482   4.368  0.7634  0.0163 -0.2851
    6MOL0     C  708  10.000   1.603   4.325 -0.2449  0.9060 -0.7999
    6MOL0     C  709   9.976   1.632   4.184  0.3799  0.2720 -0.0560
    6MOL0     C  710  10.014   1.543   4.079  0.5168  0.8169  0.2220
    6MOL0     O  711   9.997   1.577   3.939  0.4135  0.0785 -0.0367
    6MOL0     C  712   9.922   1.696   3.909 -0.8241 -0.1278 -0.2525
    6MOL0     C  713   9.914   1.717   3.757  1.4651  0.1216 -1.0304
    6MOL0     C  714   9.816   1.626   3.685  0.8151  0.4152 -0.5244
    6MOL0     C  715   9.831   1.632   3.529  0.1681 -0.5340 -0.7830
    6MOL0     C  716   9.944   1.544   3.488 -0.0147 -0.8849  0.1759
    6MOL0     C  717   9.945   1.575   3.337  0.4786  0.5410 -0.3869
    6MOL0     C  718  10.054   1.486   3.271  0.6573  0.4911 -0.5824
    6MOL0     C  719  10.120   1.553   3.163 -0.2717  0.0573  0.4616
    6MOL0    Cl  720  10.224   1.683   3.215  0.1207  0.0938 -0.0714
    6MOL0     C  721  10.080   1.426   4.119  0.0418 -0.5079  0.4529
    6MOL0     C  722  10.108   1.391   4.262  0.4306 -0.5648  0.9191
    6MOL0     O  723  10.306   1.381   4.485 -0.0187 -0.7070  0.4515
    6MOL0     C  724  10.226   1.540   4.761  1.0564 -0.3121 -0.1879
    6MOL0     C  725  10.226   1.536   4.902 -0.9142  0.0345  0.2476
    6MOL0     N  726  10.510   1.431   5.630  0.9575  0.0523 -0.8374
    6MOL0     N  727  10.556   1.538   5.691  0.4178 -0.2968  0.0747
    6MOL0     C  728  10.441   2.790   5.855 -0.1010  0.1483 -0.3711
    6MOL0     C  729  10.440   2.923   5.822  0.4967 -0.4526 -0.0175
    6MOL0     C  730  10.295   3.271   5.581  0.3754 -0.1556  0.7862
    6MOL0     C  731  10.286   3.303   5.443  0.5839 -0.4224 -0.3708
    6MOL0     C  732  10.279   3.430   5.405 -0.5924 -0.1935 -0.3642
    6MOL0     C  733  10.294   3.540   5.488 -1.1060  1.3350 -0.4889
    6MOL0     O  734  10.286   3.669   5.446  0.3921  0.1679 -1.0957
    6MOL0     C  735  10.211   3.709   5.335 -0.2356  0.4733 -0.5462
    6MOL0     C  736  10.064   3.720   5.372  0.1211 -0.7373  0.6261
    6MOL0     C  737   9.961   3.700   5.246  0.0958  0.4591  0.0537
    6MOL0     C  738   9.831   3.633   5.274  0.1733 -0.0322  0.1410
    6MOL0     C  739   9.854   3.496   5.317 -0.5215  0.5566 -0.6061
    6MOL0     C  740   9.860   3.382   5.359 -0.1907  0.1655  0.3949
    6MOL0     C  741  10.318   3.511   5.622 -1.1805 -0.2493  0.4846
    6MOL0     C  742  10.312   3.383   5.671  0.6873  0.3025  0.0126
    6MOL0     H  743  10.099   2.958   5.851 -1.0098 -0.9512  0.7751
    6MOL0     H  744  10.122   2.730   5.926  1.3111 -1.4465 -1.3430
    6MOL0     H  745  10.493   2.531   5.868  1.2498 -1.6774  1.6293
    6MOL0     H  746  10.398   2.415   5.993 -0.4572 -1.4646 -0.5979
    6MOL0     H  747  10.209   2.416   5.847  0.1842 -0.2200  0.4570
    6MOL0     H  748  10.306   2.493   5.720 -0.3206 -0.0853 -0.3618
    6MOL0     H  749  10.306   2.271   5.652 -1.0087 -2.1447  1.3581
    6MOL0     H  750  10.455   2.289   5.757 -0.4769  0.5867  2.3845
    6MOL0     H  751  10.370   2.185   5.938  0.2932 -0.9722 -0.3582
    6MOL0     H  752  10.202   2.188   5.881 -0.8398 -2.9921 -1.7426
    6MOL0     H  753  10.331   1.969   5.884 -0.2968 -1.2592 -0.5289
    6MOL0     H  754  10.247   2.008   5.735  0.0333  3.7635 -1.3317
    6MOL0     H  755  10.449   2.068   5.622  0.3720 -2.3754 -0.7962
    6MOL0     H  756  10.540   2.033   5.776 -1.9305 -0.1443  2.8717
    6MOL0     H  757  10.372   1.842   5.581  0.6579  2.0334 -0.5406
    6MOL0     H  758  10.533   1.854   5.582 -0.0370  2.1419 -0.0444
    6MOL0     H  759  10.380   1.768   5.835 -2.7245 -2.1426 -2.1039
    6MOL0     H  760  10.553   1.755   5.817 -0.8630 -2.9858  0.1124
    6MOL0     H  761  10.226   1.596   5.650  1.1765  2.1167 -0.5521
    6MOL0     H  762  10.349   1.249   5.549  1.2219  0.9099 -2.3209
    6MOL0     H  763  10.189   1.327   5.583 -0.1147  0.4327  1.6636
    6MOL0     H  764  10.268   1.259   5.338 -2.4696  1.6359 -3.0968
    6MOL0     H  765  10.386   1.377   5.334  1.4310 -0.0893  4.2907
    6MOL0     H  766  10.192   1.564   5.377 -0.4666 -0.1665 -0.6275
    6MOL0     H  767  10.084   1.430   5.362  0.7901 -2.3257  0.2873
    6MOL0     H  768  10.293   1.555   5.184  0.2573  0.6887  4.2998
    6MOL0     H  769  10.122   1.562   5.164  1.5248  2.1101 -0.4058
    6MOL0     H  770  10.207   1.199   4.925 -0.3874 -0.5008 -1.3953
    6MOL0     H  771  10.140   1.177   4.571 -1.2804  3.5585  0.3641
    6MOL0     H  772  10.272   1.105   4.665  0.1374  0.1812  0.5455
    6MOL0     H  773  10.108   1.110   4.724 -2.7059  3.8318 -0.4511
    6MOL0     H  774   9.959   1.668   4.401 -0.3084 -2.2910  2.1865
    6MOL0     H  775   9.929   1.728   4.167 -0.8406  0.2698  2.7850
    6MOL0     H  776   9.822   1.687   3.951 -0.6041 -1.4697  0.0095
    6MOL0     H  777   9.975   1.783   3.948 -2.5191  0.7965  0.0858
    6MOL0     H  778   9.884   1.820   3.734  1.2905 -0.0616 -1.6404
    6MOL0     H  779  10.020   1.718   3.730  1.8003  2.0142  0.1525
    6MOL0     H  780   9.713   1.632   3.723  0.8613 -4.3512  1.0769
    6MOL0     H  781   9.847   1.526   3.717  0.2764  0.2613 -0.4607
    6MOL0     H  782   9.739   1.596   3.482 -2.3581  3.0674  0.9115
    6MOL0     H  783   9.845   1.739   3.510 -4.0686  0.7752  1.9629
    6MOL0     H  784   9.915   1.439   3.502 -0.2268 -1.1084 -1.7025
    6MOL0     H  785  10.027   1.567   3.555 -1.1489 -2.3426  2.2184
    6MOL0     H  786   9.849   1.554   3.289 -0.2654  3.6428 -0.4670
    6MOL0     H  787   9.967   1.682   3.323  1.2409  0.4371 -0.0196
    6MOL0     H  788  10.023   1.388   3.235 -1.2290  0.4685  0.9299
    6MOL0     H  789  10.126   1.471   3.352 -1.3641  3.0282  1.9267
    6MOL0     H  790  10.048   1.603   3.098  2.0942  1.5955 -1.1223
    6MOL0     H  791  10.179   1.482   3.104  0.0005 -0.5329  1.4163
    6MOL0     H  792  10.119   1.354   4.049 -0.1195 -1.7746  1.6240
    6MOL0     H  793  10.172   1.310   4.296  2.5965  1.5064  2.1392
    6MOL0     H  794  10.236   1.638   4.716  2.1670  0.9480  2.6214
    6MOL0     H  795  10.241   1.622   4.968 -0.1027  0.5544 -0.5865
    6MOL0     H  796  10.542   2.753   5.867  0.6303  1.9638 -0.5404
    6MOL0     H  797  10.530   2.984   5.809 -0.5687  1.7501  2.0700
    6MOL0     H  798  10.262   3.231   5.366 -2.0354 -1.2189  1.0576
    6MOL0     H  799  10.270   3.449   5.298 -2.5081  2.9783  0.2275
    6MOL0     H  800  10.255   3.806   5.309 -1.9395  1.2057 -0.8590
    6MOL0     H  801  10.226   3.640   5.251 -0.2635 -0.3310  0.1012
    6MOL0     H  802  10.046   3.816   5.423  0.5098  1.1835 -2.5892
    6MOL0     H  803  10.034   3.633   5.430  0.0424 -1.0470  0.1213
    6MOL0     H  804  10.014   3.634   5.175  0.0716 -0.1095  0.5579
    6MOL0     H  805   9.941   3.796   5.199 -1.6906  0.7402  1.3239
    6MOL0     H  806   9.779   3.631   5.178 -0.9789 -0.0423  0.7470
    6MOL0     H  807   9.785   3.702   5.346 -0.4291  1.8063 -1.8774
    6MOL0     H  808   9.874   3.277   5.373 -3.7738 -0.0772  3.7582
    6MOL0     H  809  10.344   3.599   5.680  1.6162  0.1594 -1.2286
    6MOL0     H  810  10.326   3.372   5.778  0.5142  1.2249  0.1411
    7MOL0     O  811   2.404   5.229   1.457  0.3782  0.0756 -0.1260
    7MOL0     C  812   2.317   5.160   1.415  0.5594 -0.0188  0.7356
    7MOL0     O  813   2.220   5.107   1.490 -0.0202  0.0816  0.2339
    7MOL0     C  814   2.220   5.117   1.627  1.0424  0.1961  0.3445
    7MOL0     C  815   2.118   5.176   1.705 -0.1997  0.6375 -0.2015
    7MOL0     C  816   2.121   5.169   1.847 -0.2167 -0.0522  0.7483
    7MOL0     C  817   2.226   5.112   1.916  0.3901  0.2068  0.8729
    7MOL0     O  818   2.247   5.096   2.047 -0.3963  0.3698 -0.1138
    7MOL0     C  819   2.192   5.196   2.141  0.3770  0.5308  0.8916
    7MOL0     C  820   2.269   5.177   2.278  0.7180 -0.2895  0.1663
    7MOL0     C  821   2.221   5.056   2.351  0.7391 -0.4209  0.5980
    7MOL0     C  822   2.294   5.065   2.481 -0.2682 -0.3787 -0.6657
    7MOL0     C  823   2.262   4.926   2.564  0.5237  0.2507 -0.3877
    7MOL0     C  824   2.320   4.931   2.701  0.5226 -0.4780 -0.0945
    7MOL0     C  825   2.270   4.815   2.796  0.0820 -0.3591 -1.0840
    7MOL0     C  826   2.318   4.827   2.944  0.3455 -0.4221  0.3534
    7MOL0     N  827   2.309   4.950   3.009  0.2170 -0.0945 -0.6576
    7MOL0     C  828   2.186   5.013   3.050 -0.7871 -0.1360 -0.8416
    7MOL0     C  829   2.228   5.109   3.135  0.5368 -0.0720 -0.8584
    7MOL0     C  830   2.137   5.201   3.211 -0.3229 -1.2030  0.3729
    7MOL0     C  831   1.996   5.160   3.221 -0.3035  0.2461  0.0814
    7MOL0     C  832   1.957   5.028   3.301 -0.0962 -0.4961  0.4833
    7MOL0     C  833   1.836   4.956   3.246 -0.5786 -0.3281  0.1227
    7MOL0     O  834   1.838   4.945   3.108 -0.9713  0.7174 -0.4079
    7MOL0     C  835   1.893   4.833   3.054  0.2145  0.1231 -0.0073
    7MOL0     C  836   1.836   4.798   2.937 -0.6047  0.6483  0.0918
    7MOL0     C  837   1.854   4.670   2.890  0.2674 -0.3895  0.2527
    7MOL0     C  838   1.755   4.620   2.779 -0.2433  0.4878  0.7866
    7MOL0     C  839   1.939   4.569   2.940  0.5695  0.3922 -0.8068
    7MOL0     C  840   1.962   4.436   2.890  0.4553  0.0050 -0.3756
    7MOL0     O  841   1.939   4.336   2.989 -0.5307  0.1596 -0.1357
    7MOL0     C  842   1.944   4.208   2.947 -1.6789 -0.9964  0.1188
    7MOL0     C  843   2.067   4.137   2.964 -0.0531 -0.4235 -0.7718
    7MOL0     C  844   2.076   4.008   2.903 -0.1450 -0.2828 -0.6178
    7MOL0     C  845   1.962   3.949   2.832  0.2644 -0.1993 -0.4511
    7MOL0     O  846   1.952   3.828   2.771  0.0452 -0.2154  0.9987
    7MOL0     C  847   2.062   3.737   2.750  0.6030  0.9079 -0.7889
    7MOL0     C  848   2.038   3.642   2.632  0.1615  0.8263 -0.2071
    7MOL0     C  849   1.966   3.506   2.671  1.0998  0.5111 -0.1926
    7MOL0     C  850   1.982   3.395   2.574 -0.7022 -0.0676  0.0150
    7MOL0     C  851   1.885   3.278   2.591  0.5509  0.4327 -0.5094
    7MOL0     C  852   1.887   3.224   2.739 -0.9376 -0.2274 -0.8172
    7MOL0     C  853   1.786   3.105   2.743 -0.0464 -0.5157 -0.9055
    7MOL0     C  854   1.766   3.048   2.893 -0.7606 -0.0809 -0.1453
    7MOL0    Cl  855   1.929   2.985   2.940 -0.2377 -0.2381 -0.0829
    7MOL0     C  856   1.844   4.031   2.826 -0.1878 -0.6890 -0.6381
    7MOL0     C  857   1.831   4.158   2.880 -0.3256 -0.6641 -1.4439
    7MOL0     O  858   2.007   4.416   2.774 -0.0602 -0.3761  0.1129
    7MOL0     C  859   2.005   4.612   3.052 -0.3353  0.0965 -0.4592
    7MOL0     C  860   1.986   4.741   3.116  0.7343  0.3663  0.0266
    7MOL0     N  861   2.367   5.115   3.144  1.0437  0.2700  0.7083
    7MOL0     N  862   2.418   5.012   3.073 -0.4664 -0.4036  1.2181
    7MOL0     C  863   2.330   5.056   1.835 -0.3660 -0.1935  0.1857
    7MOL0     C  864   2.328   5.069   1.698  0.2920 -0.0103  0.3750
    7MOL0     C  865   2.321   5.147   1.272  0.6258  0.1382 -0.2445
    7MOL0     C  866   2.225   5.070   1.207 -0.0186  1.0380  0.0779
    7MOL0     C  867   2.225   5.056   1.062 -0.0929 -0.1982  0.4155
    7MOL0     C  868   2.328   5.111   0.984 -0.2934  0.7073 -0.1082
    7MOL0     O  869   2.347   5.118   0.847 -0.4054  0.1537  0.2776
    7MOL0     C  870   2.282   5.026   0.767 -0.5714 -0.5839  0.4122
    7MOL0     C  871   2.274   5.060   0.623  1.3006  0.3193  0.5189
    7MOL0     C  872   2.415   5.117   0.575  0.7764  0.3820 -0.2958
    7MOL0     C  873   2.371   5.220   0.461  0.7463 -0.6622  0.5982
    7MOL0     C  874   2.485   5.258   0.378  0.4254 -0.1549 -0.0138
    7MOL0     C  875   2.574   5.298   0.310 -0.0429 -0.7978  0.4794
    7MOL0     C  876   2.416   5.179   1.060 -0.6288 -0.4667  0.2637
    7MOL0     C  877   2.424   5.199   1.197  0.9014  0.6984 -0.0078
    7MOL0     H  878   2.031   5.227   1.663  1.5880  2.7981 -1.4908
    7MOL0     H  879   2.041   5.217   1.903  0.6696  1.5661  0.7043
    7MOL0     H  880   2.224   5.296   2.112 -0.9494  0.4582 -0.9840
    7MOL0     H  881   2.082   5.196   2.148  0.2348  2.0704 -0.7916
    7MOL0     H  882   2.376   5.185   2.258  0.7767  0.5061  0.7324
    7MOL0     H  883   2.235   5.259   2.342 -0.6889 -1.6300  1.2238
    7MOL0     H  884   2.114   5.040   2.367  0.9985 -1.2483  1.5959
    7MOL0     H  885   2.263   4.969   2.301  1.1601 -0.4427  0.9843
    7MOL0     H  886   2.402   5.064   2.466  0.7940  1.1831  4.6232
    7MOL0     H  887   2.268   5.154   2.539 -1.1075  0.3282 -2.0891
    7MOL0     H  888   2.153   4.917   2.567  0.5484  0.0477  1.7290
    7MOL0     H  889   2.308   4.843   2.511  0.8392 -1.0059  1.7221
    7MOL0     H  890   2.430   4.928   2.708  0.4001 -2.1179  3.4244
    7MOL0     H  891   2.288   5.022   2.751 -2.1833  0.9233 -3.9174
    7MOL0     H  892   2.160   4.816   2.800  0.0823 -1.4076 -0.7424
    7MOL0     H  893   2.302   4.714   2.769 -1.0281 -1.3070  0.9023
    7MOL0     H  894   2.416   4.781   2.963 -0.0220 -0.5110  2.2922
    7MOL0     H  895   2.253   4.758   2.999  1.4289 -1.8352 -0.0671
    7MOL0     H  896   2.086   4.997   3.011 -1.8387 -3.2451  2.5494
    7MOL0     H  897   2.175   5.209   3.314 -0.2258  3.4336  0.1895
    7MOL0     H  898   2.153   5.303   3.176 -0.4285 -0.5317  2.1405
    7MOL0     H  899   1.948   5.160   3.123 -2.0873 -1.9319  0.8787
    7MOL0     H  900   1.947   5.246   3.268 -3.2833  1.2119 -4.2165
    7MOL0     H  901   1.924   5.061   3.400 -2.3444 -0.9064 -0.0736
    7MOL0     H  902   2.051   4.972   3.301  0.8601  0.9509 -1.3783
    7MOL0     H  903   1.746   5.003   3.288 -0.0355  1.6568 -0.8305
    7MOL0     H  904   1.847   4.860   3.297  2.2035  0.3503  0.9985
    7MOL0     H  905   1.765   4.861   2.885 -0.0421  1.0712 -0.1717
    7MOL0     H  906   1.790   4.541   2.712  0.8018  1.9391 -0.4602
    7MOL0     H  907   1.668   4.585   2.835 -0.8733 -0.6174 -0.8201
    7MOL0     H  908   1.738   4.701   2.707 -4.4949  1.0522  2.1530
    7MOL0     H  909   2.157   4.169   3.015 -0.8045 -2.3206  2.0135
    7MOL0     H  910   2.169   3.953   2.916 -0.0530 -0.0428 -0.2418
    7MOL0     H  911   2.151   3.800   2.742 -1.1044  3.6868  0.3409
    7MOL0     H  912   2.087   3.681   2.841  0.9959 -0.3087 -1.6222
    7MOL0     H  913   1.990   3.689   2.545 -1.7853  2.3349  1.5705
    7MOL0     H  914   2.138   3.613   2.600  0.1936  0.2749  0.3864
    7MOL0     H  915   1.859   3.531   2.675  1.1115  0.4203  1.2484
    7MOL0     H  916   2.005   3.485   2.771 -0.5189 -0.2132  0.3255
    7MOL0     H  917   1.956   3.439   2.477 -3.3055  2.3739  1.6845
    7MOL0     H  918   2.087   3.364   2.575 -0.4470  0.0420 -4.0977
    7MOL0     H  919   1.898   3.191   2.526 -1.9177  1.0749 -1.9796
    7MOL0     H  920   1.793   3.318   2.548  2.7989  4.9591 -1.6638
    7MOL0     H  921   1.981   3.177   2.769 -1.3381 -0.0154  0.8478
    7MOL0     H  922   1.865   3.300   2.814 -0.1009 -1.2205  0.4670
    7MOL0     H  923   1.817   3.024   2.676  0.0619  0.4500 -2.0722
    7MOL0     H  924   1.687   3.146   2.719  1.3561  4.7621  0.9357
    7MOL0     H  925   1.689   2.970   2.895  3.1037 -4.3320 -1.6039
    7MOL0     H  926   1.741   3.139   2.948  1.2205  2.0597 -2.5308
    7MOL0     H  927   1.758   3.992   2.774 -1.4038 -0.5414  1.1966
    7MOL0     H  928   1.734   4.206   2.885 -0.1709 -0.4507  2.1446
    7MOL0     H  929   2.077   4.555   3.109  3.1338  3.7612 -0.7405
    7MOL0     H  930   2.032   4.754   3.214 -0.3397  2.1783  0.3456
    7MOL0     H  931   2.406   5.000   1.889 -0.0747 -0.8227 -0.8608
    7MOL0     H  932   2.397   5.003   1.647 -1.1137 -1.3946  0.1687
    7MOL0     H  933   2.138   5.030   1.259 -0.6945 -1.1067 -2.5111
    7MOL0     H  934   2.139   5.003   1.024  0.2238 -1.0808  0.9133
    7MOL0     H  935   2.326   4.928   0.788  0.0991 -0.6553 -1.1649
    7MOL0     H  936   2.179   5.015   0.802 -0.4908  0.0513  0.8750
    7MOL0     H  937   2.196   5.136   0.615 -1.1929 -2.0902  0.4603
    7MOL0     H  938   2.247   4.972   0.564 -0.1016  0.5786  0.7545
    7MOL0     H  939   2.465   5.024   0.545 -2.1354 -0.9323 -1.5337
    7MOL0     H  940   2.474   5.182   0.640  0.1827  2.2335 -1.5012
    7MOL0     H  941   2.314   5.305   0.499  2.6026  2.1384 -2.3402
    7MOL0     H  942   2.297   5.172   0.396 -0.3783  0.5038  0.9998
    7MOL0     H  943   2.642   5.333   0.235 -2.8704  0.2460 -1.8318
    7MOL0     H  944   2.502   5.215   1.005 -1.1022  0.0172 -0.1834
    7MOL0     H  945   2.508   5.253   1.239  3.3605 -1.5455 -1.6489
    8MOL0     O  946   2.690   9.570   5.873 -0.2469 -1.0354  0.5607
    8MOL0     C  947   2.783   9.491   5.896  0.2685 -0.1227 -0.4947
    8MOL0     O  948   2.903   9.482   5.817 -0.2603  0.6791 -0.1031
    8MOL0     C  949   2.917   9.568   5.713  0.4170 -0.1610 -0.7914
    8MOL0     C  950   2.847   9.559   5.597  0.4246  0.2367 -0.3299
    8MOL0     C  951   2.875   9.651   5.498 -0.2912  0.5747 -0.4571
    8MOL0     C  952   2.954   9.765   5.508  0.1556  0.2261 -0.5839
    8MOL0     O  953   2.957   9.857   5.411  0.9477  0.6066  0.0621
    8MOL0     C  954   3.065   9.951   5.404 -1.0508 -0.1904  0.6582
    8MOL0     C  955   3.050  10.038   5.282 -0.0783  0.7585 -0.3805
    8MOL0     C  956   3.108   9.959   5.151  0.7314  0.1710  0.7894
    8MOL0     C  957   3.036  10.006   5.027  0.0915 -0.5678  0.5782
    8MOL0     C  958   3.121   9.995   4.903  0.3345 -0.1362 -0.7960
    8MOL0     C  959   3.040  10.041   4.777  0.0207 -1.0119 -0.0208
    8MOL0     C  960   3.132  10.060   4.654  1.3094 -0.6081  0.0456
    8MOL0     C  961   3.193  10.190   4.655 -1.0962 -0.7295 -0.9641
    8MOL0     N  962   3.307  10.208   4.570 -0.4848  0.1583  0.3389
    8MOL0     C  963   3.358  10.144   4.457 -0.4083 -0.9597 -1.4519
    8MOL0     C  964   3.480  10.213   4.444 -0.0094  0.2656 -0.1168
    8MOL0     C  965   3.598  10.173   4.359 -0.7962  0.2476  1.0211
    8MOL0     C  966   3.628  10.278   4.247 -0.0063 -0.0695  0.5211
    8MOL0     C  967   3.581  10.235   4.104 -0.1303 -0.6607 -0.4840
    8MOL0     C  968   3.614  10.356   4.006  0.3987  0.3684 -0.2219
    8MOL0     O  969   3.740  10.420   4.039 -0.0885 -0.1538  0.5153
    8MOL0     C  970   3.863  10.356   4.027  1.2960 -0.6324 -0.3033
    8MOL0     C  971   3.960  10.406   4.118  0.6176 -0.1230  1.6664
    8MOL0     C  972   4.096  10.363   4.117 -0.7786 -0.1769  0.5594
    8MOL0     C  973   4.181  10.418   4.240  0.4527 -0.4330  0.8932
    8MOL0     C  974   4.136  10.271   4.021  0.0717  1.2112  0.5932
    8MOL0     C  975   4.266  10.205   4.019  1.0431  0.8379  0.3123
    8MOL0     O  976   4.347  10.246   4.111 -0.0512 -0.5192 -0.7537
    8MOL0     C  977   4.446  10.163   4.164  0.4945  0.9273  0.6156
    8MOL0     C  978   4.420  10.072   4.263  0.9448 -0.1876  0.8521
    8MOL0     C  979   4.525   9.990   4.310  1.0782  0.2901  0.0044
    8MOL0     C  980   4.655  10.014   4.277 -0.2498  0.5982 -0.3066
    8MOL0     O  981   4.752   9.939   4.341 -0.3291 -0.3283  0.8557
    8MOL0     C  982   4.881   9.996   4.352  0.0991 -0.2706 -0.0916
    8MOL0     C  983   4.892  10.120   4.445  1.3103 -1.1261  0.1226
    8MOL0     C  984   4.823  10.086   4.587 -0.7958 -0.8291  0.6512
    8MOL0     C  985   4.889  10.162   4.704 -0.4536 -1.0093 -0.3528
    8MOL0     C  986   4.806  10.155   4.829 -0.4197 -0.5225  0.2514
    8MOL0     C  987   4.897  10.202   4.949  0.2813 -0.2271  0.5044
    8MOL0     C  988   4.836  10.208   5.085 -0.8585 -0.2760 -0.1301
    8MOL0     C  989   4.702  10.271   5.066 -1.5172 -0.4869  0.0660
    8MOL0    Cl  990   4.652  10.364   5.208 -0.3625 -0.1272 -0.2502
    8MOL0     C  991   4.685  10.105   4.174  0.5136  0.0095 -0.5847
    8MOL0     C  992   4.576  10.171   4.110 -0.3601 -0.4305 -0.2379
    8MOL0     O  993   4.287  10.108   3.945  0.1403 -0.3015 -0.4278
    8MOL0     C  994   4.036  10.220   3.929  0.1458 -0.3029 -0.1452
    8MOL0     C  995   3.899  10.268   3.930 -0.2566  0.2854  1.2330
    8MOL0     N  996   3.482  10.327   4.527 -0.2997 -0.4603 -0.0891
    8MOL0     N  997   3.368  10.321   4.599 -0.0959  0.4078 -0.3502
    8MOL0     C  998   3.035   9.768   5.624 -0.6146  0.0426  0.3372
    8MOL0     C  999   3.018   9.671   5.719  0.8676  0.4238  0.1673
    8MOL0     C 1000   2.774   9.403   6.018  0.1965 -0.6556  0.4232
    8MOL0     C 1001   2.651   9.350   6.067 -0.8865 -0.3548 -0.1238
    8MOL0     C 1002   2.650   9.280   6.195  0.5030 -0.5132  0.4099
    8MOL0     C 1003   2.774   9.264   6.265  0.9786  0.9253  0.1837
    8MOL0     O 1004   2.789   9.204   6.394  0.3399 -0.0905  0.4278
    8MOL0     C 1005   2.685   9.146   6.467  0.2445 -0.5680 -0.0815
    8MOL0     C 1006   2.601   9.253   6.537  0.5259 -0.5480  0.6768
    8MOL0     C 1007   2.674   9.325   6.656  0.0129  0.3051  0.3332
    8MOL0     C 1008   2.643   9.280   6.802  0.1619  0.0683  0.5520
    8MOL0     C 1009   2.675   9.141   6.833 -0.0807 -0.2759 -0.1481
    8MOL0     C 1010   2.712   9.033   6.862 -0.0099  1.0463 -0.2250
    8MOL0     C 1011   2.891   9.304   6.203 -0.1343  0.4513  0.2188
    8MOL0     C 1012   2.893   9.384   6.092 -0.1195 -0.2573  0.2426
    8MOL0     H 1013   2.769   9.484   5.594  0.9650 -0.5850  2.8896
    8MOL0     H 1014   2.813   9.643   5.409  1.1843 -4.0889 -1.3673
    8MOL0     H 1015   3.053  10.016   5.491 -0.9498  1.1324 -0.2943
    8MOL0     H 1016   3.167   9.911   5.400 -1.1515 -0.3776 -0.4610
    8MOL0     H 1017   2.943  10.052   5.265  0.1113  0.2682 -2.2392
    8MOL0     H 1018   3.104  10.132   5.294  4.9823 -1.7928 -0.4149
    8MOL0     H 1019   3.215   9.976   5.135  0.8327 -2.2588 -2.2161
    8MOL0     H 1020   3.079   9.853   5.145 -4.4959  1.4112 -1.7171
    8MOL0     H 1021   2.943   9.953   5.003  0.9709 -3.4563  2.8351
    8MOL0     H 1022   3.011  10.110   5.049  1.7303  0.3288 -1.4702
    8MOL0     H 1023   3.209  10.060   4.911 -0.4164  0.8316 -0.1658
    8MOL0     H 1024   3.157   9.897   4.869 -1.3489  0.0317 -3.3076
    8MOL0     H 1025   2.950   9.985   4.748 -0.9108  1.3577 -2.1369
    8MOL0     H 1026   2.994  10.135   4.808 -0.9971 -0.5476 -2.6594
    8MOL0     H 1027   3.201   9.976   4.639  2.0077  0.1773 -1.2987
    8MOL0     H 1028   3.066  10.063   4.567  0.3689  0.0399  0.7628
    8MOL0     H 1029   3.232  10.221   4.752 -0.0947 -0.1259 -1.5408
    8MOL0     H 1030   3.127  10.272   4.624  0.8460  2.7064  3.0073
    8MOL0     H 1031   3.320  10.057   4.404 -1.3923 -1.6203  0.2527
    8MOL0     H 1032   3.688  10.168   4.421  0.1994  1.4687 -0.2307
    8MOL0     H 1033   3.592  10.074   4.314 -0.6754  0.1705  1.1718
    8MOL0     H 1034   3.738  10.281   4.249 -0.0164  0.1578  0.7519
    8MOL0     H 1035   3.582  10.375   4.264  1.0661  0.9464 -1.8308
    8MOL0     H 1036   3.472  10.224   4.112  0.1665 -2.5218  2.3401
    8MOL0     H 1037   3.625  10.143   4.063  3.2854  0.8554 -0.5482
    8MOL0     H 1038   3.533  10.430   4.003 -0.0056 -0.1003 -1.6931
    8MOL0     H 1039   3.607  10.309   3.908  1.8121 -0.0090 -0.1550
    8MOL0     H 1040   3.927  10.471   4.198  0.2238  1.0674  0.5772
    8MOL0     H 1041   4.286  10.441   4.223  0.4284  1.3139  2.6989
    8MOL0     H 1042   4.137  10.509   4.283  2.2779  0.7690  0.3252
    8MOL0     H 1043   4.177  10.334   4.309  1.7628 -0.0151  1.5039
    8MOL0     H 1044   4.326  10.059   4.317  1.8368 -0.1585  2.4806
    8MOL0     H 1045   4.522   9.921   4.394  2.3151  1.3319  0.9431
    8MOL0     H 1046   4.952   9.917   4.379 -0.1813 -0.3282  0.4976
    8MOL0     H 1047   4.928  10.017   4.256  2.1368  1.5559  1.1942
    8MOL0     H 1048   4.999  10.142   4.457  0.9554  0.1028  1.3662
    8MOL0     H 1049   4.846  10.207   4.397 -1.3028 -3.7328 -2.4333
    8MOL0     H 1050   4.836   9.980   4.607  2.1033 -0.8340 -0.7588
    8MOL0     H 1051   4.716  10.106   4.575 -1.0631 -2.4126  0.2655
    8MOL0     H 1052   4.984  10.110   4.719 -0.0263  0.4147  2.4949
    8MOL0     H 1053   4.923  10.262   4.679  3.0729 -1.7873  0.7561
    8MOL0     H 1054   4.784  10.048   4.832 -1.1203 -0.4670 -1.4293
    8MOL0     H 1055   4.725  10.225   4.805 -0.0894 -0.3732 -0.4703
    8MOL0     H 1056   4.989  10.143   4.957  0.3417 -0.7895 -2.6849
    8MOL0     H 1057   4.932  10.305   4.939  1.8385 -0.9054 -2.2520
    8MOL0     H 1058   4.905  10.271   5.142  0.3677 -2.3741  0.8147
    8MOL0     H 1059   4.826  10.111   5.134 -2.4946  1.1124  2.5488
    8MOL0     H 1060   4.628  10.195   5.039 -1.0176 -1.6622  1.8269
    8MOL0     H 1061   4.715  10.342   4.984  0.7323 -1.4941 -0.5241
    8MOL0     H 1062   4.785  10.123   4.138  0.4204  0.9736 -0.4071
    8MOL0     H 1063   4.602  10.251   4.040 -0.4343 -0.4325 -0.2669
    8MOL0     H 1064   4.052  10.139   3.860  0.3775 -1.1453  0.8752
    8MOL0     H 1065   3.828  10.218   3.865  1.4863  2.5680 -2.7313
    8MOL0     H 1066   3.112   9.837   5.657  2.4111 -2.9515  0.1488
    8MOL0     H 1067   3.072   9.675   5.813  1.4086  1.8346 -0.1811
    8MOL0     H 1068   2.562   9.366   6.008 -1.8870  3.1399  2.0514
    8MOL0     H 1069   2.555   9.240   6.228 -0.9349 -0.2151 -2.9386
    8MOL0     H 1070   2.621   9.109   6.386  3.3188  0.5760 -3.2927
    8MOL0     H 1071   2.715   9.069   6.538  0.0426 -1.4671 -0.9444
    8MOL0     H 1072   2.510   9.209   6.578  0.0710  0.2749  0.5842
    8MOL0     H 1073   2.551   9.317   6.464  0.4619 -1.8978 -0.5006
    8MOL0     H 1074   2.623   9.421   6.652 -1.0136 -0.2587 -0.4594
    8MOL0     H 1075   2.781   9.331   6.634 -0.3372  0.8566 -1.3730
    8MOL0     H 1076   2.539   9.291   6.833  0.6335 -0.7146  2.5913
    8MOL0     H 1077   2.693   9.349   6.871  0.0224  2.4325 -1.5737
    8MOL0     H 1078   2.743   8.932   6.878 -3.9549 -0.3414 -0.3569
    8MOL0     H 1079   2.982   9.308   6.262  0.3214  1.9705 -0.5233
    8MOL0     H 1080   2.982   9.439   6.065 -1.0837 -0.3092 -3.5631
    9MOL0     O 1081   8.859   7.827   0.091 -0.0131 -0.1718  0.0460
    9MOL0     C 1082   8.863   7.724   0.021 -0.7862  0.2945 -0.1226
    9MOL0     O 1083   8.753   7.645  -0.026 -0.7074 -0.1937 -1.5839
    9MOL0     C 1084   8.626   7.668   0.019  0.6300  0.4307  0.0471
    9MOL0     C 1085   8.578   7.637   0.146 -1.0186 -0.2318  0.0923
    9MOL0     C 1086   8.443   7.651   0.174 -0.2168 -0.4686  0.3158
    9MOL0     C 1087   8.345   7.664   0.069 -0.5566 -0.5124  0.6147
    9MOL0     O 1088   8.212   7.645   0.099  0.2066 -0.0253  0.1781
    9MOL0     C 1089   8.127   7.676  -0.013  0.6458 -0.1972 -0.3603
    9MOL0     C 1090   7.988   7.691   0.046 -0.8259  0.8212 -0.0818
    9MOL0     C 1091   7.877   7.743  -0.051 -0.2300 -0.0121  0.3455
    9MOL0     C 1092   7.766   7.815   0.031 -1.1654  0.4179 -0.1095
    9MOL0     C 1093   7.655   7.892  -0.048  0.6637  0.4200 -0.3731
    9MOL0     C 1094   7.527   7.912   0.027 -0.2633 -0.2452  0.0777
    9MOL0     C 1095   7.423   7.950  -0.072  0.1419 -0.1527 -0.2394
    9MOL0     C 1096   7.295   7.996  -0.008  0.5637  0.3586  0.7888
    9MOL0     N 1097   7.327   8.103   0.084 -0.1406  0.1289  0.0378
    9MOL0     C 1098   7.276   8.120   0.210 -0.0296 -0.3114  0.6296
    9MOL0     C 1099   7.328   8.241   0.251  0.1476 -0.7060  0.2725
    9MOL0     C 1100   7.313   8.317   0.375 -0.5173 -0.4187 -0.5076
    9MOL0     C 1101   7.455   8.328   0.446  0.2124 -0.6211 -0.1498
    9MOL0     C 1102   7.444   8.412   0.578 -0.3324  0.3155  0.9389
    9MOL0     C 1103   7.579   8.399   0.661  0.2593  0.0943 -0.2261
    9MOL0     O 1104   7.574   8.274   0.732 -0.7785  0.7667  0.4609
    9MOL0     C 1105   7.516   8.272   0.851  0.3470 -0.2183  0.1673
    9MOL0     C 1106   7.398   8.209   0.866  0.7743  0.2246  0.9133
    9MOL0     C 1107   7.350   8.179   0.996  1.6036  0.5263  0.1776
    9MOL0     C 1108   7.218   8.094   0.996 -0.3058 -0.9924  0.6074
    9MOL0     C 1109   7.401   8.251   1.103 -0.2058 -0.7508  0.8920
    9MOL0     C 1110   7.355   8.238   1.251  0.2864  1.1727 -0.3072
    9MOL0     O 1111   7.445   8.195   1.348 -0.8208 -0.6779  0.0075
    9MOL0     C 1112   7.432   8.143   1.479  0.7301  0.2438 -0.3516
    9MOL0     C 1113   7.309   8.123   1.551 -0.6171  0.1553  1.1477
    9MOL0     C 1114   7.306   8.061   1.672  0.2969  0.0319  0.4974
    9MOL0     C 1115   7.430   8.037   1.746 -0.3381 -0.1598  0.3819
    9MOL0     O 1116   7.441   7.979   1.871  0.1306  0.5671 -0.4084
    9MOL0     C 1117   7.330   8.005   1.954 -0.6077  0.4856 -0.8830
    9MOL0     C 1118   7.356   7.933   2.089  0.2508 -0.3014  0.5122
    9MOL0     C 1119   7.277   7.991   2.212 -0.1791 -0.2239 -0.4115
    9MOL0     C 1120   7.141   7.936   2.215 -0.0557  0.4526  0.8943
    9MOL0     C 1121   7.070   7.973   2.344  0.7041 -0.9406  0.4620
    9MOL0     C 1122   7.132   7.925   2.480  0.5663 -0.6123  1.3382
    9MOL0     C 1123   7.037   7.940   2.601  0.4756 -1.0782  0.3962
    9MOL0     C 1124   7.098   7.902   2.732 -0.1560 -0.2810  0.2190
    9MOL0    Cl 1125   7.232   8.015   2.775 -0.3281  0.1095 -0.4245
    9MOL0     C 1126   7.542   8.069   1.680 -0.4741  0.2428  0.2597
    9MOL0     C 1127   7.551   8.115   1.546  0.1351  0.2176 -0.4183
    9MOL0     O 1128   7.232   8.249   1.273 -0.3277 -0.1001  0.4298
    9MOL0     C 1129   7.517   8.331   1.084 -0.1396  0.2186 -0.6972
    9MOL0     C 1130   7.574   8.342   0.956  0.3822 -0.2126 -0.1605
    9MOL0     N 1131   7.401   8.297   0.148 -0.0690 -0.1394  0.3185
    9MOL0     N 1132   7.406   8.204   0.061 -0.1344 -1.1208 -0.4145
    9MOL0     C 1133   8.396   7.699  -0.058 -0.0563 -0.7036 -1.1162
    9MOL0     C 1134   8.532   7.706  -0.075 -0.9539  0.5850  0.2845
    9MOL0     C 1135   9.000   7.679  -0.014 -0.4877 -0.2264  0.3494
    9MOL0     C 1136   9.031   7.590  -0.116 -0.8618  0.7268  0.3633
    9MOL0     C 1137   9.169   7.558  -0.142 -0.5343 -0.2758 -0.4827
    9MOL0     C 1138   9.273   7.616  -0.067 -0.9148 -0.3101 -0.4940
    9MOL0     O 1139   9.412   7.589  -0.080  0.3043  0.3149 -0.2622
    9MOL0     C 1140   9.455   7.529  -0.195 -0.6721  0.6335  0.1251
    9MOL0     C 1141   9.601   7.494  -0.190  0.2587 -0.3426 -0.3353
    9MOL0     C 1142   9.697   7.611  -0.230  0.6284  0.1747  0.5440
    9MOL0     C 1143   9.833   7.586  -0.167 -1.1689 -0.0545  0.3460
    9MOL0     C 1144   9.935   7.672  -0.228  0.1998  0.5121  1.0537
    9MOL0     C 1145  10.015   7.747  -0.273 -0.2438 -0.1938  0.3832
    9MOL0     C 1146   9.238   7.707   0.034  0.0490  0.5803  0.6575
    9MOL0     C 1147   9.107   7.740   0.058  0.2387  0.2639 -0.2626
    9MOL0     H 1148   8.644   7.611   0.228 -1.1280  2.2498  1.0451
    9MOL0     H 1149   8.423   7.636   0.279  1.3794  0.7839  0.8354
    9MOL0     H 1150   8.150   7.773  -0.056 -1.2782  3.5823  5.7577
    9MOL0     H 1151   8.129   7.597  -0.088  2.7618  1.5542 -2.2879
    9MOL0     H 1152   7.951   7.593   0.080  0.5516  1.2429  2.9824
    9MOL0     H 1153   8.009   7.743   0.140  0.9209 -1.3244  0.8156
    9MOL0     H 1154   7.921   7.807  -0.128 -1.6442  0.9418  0.2980
    9MOL0     H 1155   7.824   7.669  -0.112 -0.6640  1.2548 -0.8938
    9MOL0     H 1156   7.731   7.729   0.089  0.4676 -0.2296 -0.0324
    9MOL0     H 1157   7.811   7.881   0.106 -4.5795  0.2970  2.2752
    9MOL0     H 1158   7.698   7.987  -0.082  0.9283  0.3175 -0.3296
    9MOL0     H 1159   7.637   7.831  -0.136  1.0282  0.7478 -0.6799
    9MOL0     H 1160   7.508   7.819   0.080  1.5642  0.6097  2.3558
    9MOL0     H 1161   7.548   7.989   0.101 -0.3201 -2.4096  2.4901
    9MOL0     H 1162   7.466   8.034  -0.128 -0.3666 -0.0567 -0.4943
    9MOL0     H 1163   7.409   7.864  -0.138  0.1299 -1.9256  1.9483
    9MOL0     H 1164   7.252   7.914   0.049  1.1140 -1.1958 -0.9199
    9MOL0     H 1165   7.213   8.023  -0.075 -3.3427 -2.8924  3.7883
    9MOL0     H 1166   7.213   8.049   0.263 -0.6205  0.0875  0.4715
    9MOL0     H 1167   7.272   8.415   0.347 -1.9901 -1.5437 -2.6120
    9MOL0     H 1168   7.250   8.266   0.448 -1.7495  4.4728  2.3284
    9MOL0     H 1169   7.524   8.380   0.379 -0.5812  1.0196  0.2538
    9MOL0     H 1170   7.488   8.224   0.457  3.5580  0.0162 -2.5104
    9MOL0     H 1171   7.360   8.364   0.629  0.6289 -1.9520  0.5021
    9MOL0     H 1172   7.432   8.519   0.563 -1.4320  0.0868  0.0326
    9MOL0     H 1173   7.580   8.480   0.735  0.8920 -0.4286  0.3439
    9MOL0     H 1174   7.665   8.396   0.593 -0.8204 -1.8947 -1.6119
    9MOL0     H 1175   7.341   8.162   0.786  0.1007 -1.8103  2.4994
    9MOL0     H 1176   7.135   8.165   1.008  1.6364  1.1496  2.3551
    9MOL0     H 1177   7.201   8.030   0.909 -1.6142  1.0439 -0.7388
    9MOL0     H 1178   7.211   8.011   1.067  1.1101 -1.1249  0.6162
    9MOL0     H 1179   7.227   8.151   1.486  1.3413 -0.6847 -1.8805
    9MOL0     H 1180   7.210   8.051   1.721 -0.8508  1.1494 -1.3805
    9MOL0     H 1181   7.322   8.112   1.973 -1.6119  0.3772 -0.6714
    9MOL0     H 1182   7.241   7.964   1.907 -1.2080  4.5961 -3.8890
    9MOL0     H 1183   7.333   7.827   2.076 -2.7543  0.2081  0.9372
    9MOL0     H 1184   7.464   7.945   2.104  0.2297 -1.3085  1.5832
    9MOL0     H 1185   7.277   8.100   2.210  3.4953 -0.0253  1.8516
    9MOL0     H 1186   7.332   7.952   2.298  1.4779  0.7131 -1.0056
    9MOL0     H 1187   7.089   7.961   2.121 -0.8709 -1.7676  0.6924
    9MOL0     H 1188   7.155   7.828   2.211 -1.0326  0.2960  1.4017
    9MOL0     H 1189   6.972   7.925   2.345 -0.2902  0.9139  2.8406
    9MOL0     H 1190   7.048   8.080   2.341  0.7928 -0.9388 -0.7191
    9MOL0     H 1191   7.156   7.818   2.481 -1.0905 -1.0249  0.6647
    9MOL0     H 1192   7.226   7.980   2.484 -0.6272  1.7335 -0.3691
    9MOL0     H 1193   6.951   7.873   2.586  1.7336 -3.8996  4.1650
    9MOL0     H 1194   7.010   8.045   2.617  2.5965 -0.2516 -1.0751
    9MOL0     H 1195   7.154   7.809   2.722  2.8339  1.3196  0.7414
    9MOL0     H 1196   7.021   7.909   2.809  0.8650  2.0237  1.1358
    9MOL0     H 1197   7.636   8.048   1.731 -2.6438  1.0134  5.0929
    9MOL0     H 1198   7.641   8.129   1.487  0.7402 -0.7764  0.2364
    9MOL0     H 1199   7.566   8.367   1.174 -1.1627 -2.5664  1.1015
    9MOL0     H 1200   7.669   8.395   0.948 -1.6575  3.8725  0.0898
    9MOL0     H 1201   8.339   7.730  -0.145 -0.7542 -1.3883 -0.9250
    9MOL0     H 1202   8.564   7.742  -0.172 -1.7407  1.2280  0.2487
    9MOL0     H 1203   8.946   7.551  -0.170  0.9080  1.3600 -3.2015
    9MOL0     H 1204   9.190   7.479  -0.214  0.1672  1.7034 -2.5687
    9MOL0     H 1205   9.410   7.430  -0.197 -2.2407  1.3291 -1.5508
    9MOL0     H 1206   9.438   7.585  -0.287 -0.5205  0.2495 -0.1373
    9MOL0     H 1207   9.616   7.412  -0.261 -0.0728 -2.7278  2.1632
    9MOL0     H 1208   9.607   7.462  -0.085 -1.2641  1.1027  0.2309
    9MOL0     H 1209   9.651   7.707  -0.203 -2.9551 -1.7172  1.8856
    9MOL0     H 1210   9.699   7.608  -0.340 -0.4633  0.6095  0.4957
    9MOL0     H 1211   9.861   7.483  -0.187 -0.3991 -0.0144  1.1823
    9MOL0     H 1212   9.825   7.611  -0.061 -1.9342  2.5006 -0.2212
    9MOL0     H 1213  10.082   7.821  -0.311 -2.5098  2.5346  1.3470
    9MOL0     H 1214   9.321   7.746   0.092  1.7039  0.6949 -1.6740
    9MOL0     H 1215   9.103   7.789   0.155  1.6361  0.5167 -0.3134
   10MOL0     O 1216   4.612   4.620  10.931  0.4053  0.0538  0.0805
   10MOL0     C 1217   4.517   4.577  10.993  0.1180  0.8554 -0.5884
   10MOL0     O 1218   4.420   4.486  10.952  0.9319 -0.1881  0.2815
   10MOL0     C 1219   4.420   4.427  10.832  0.5212  0.9562  0.5292
   10MOL0     C 1220   4.486   4.458  10.715  0.3658  1.1278 -0.1944
   10MOL0     C 1221   4.463   4.378  10.600 -0.4904  0.0216  0.7448
   10MOL0     C 1222   4.382   4.270  10.602  0.0719  0.2983 -0.2388
   10MOL0     O 1223   4.353   4.197  10.493  0.1856 -0.1251  0.5110
   10MOL0     C 1224   4.334   4.265  10.367 -1.2907  0.1876 -0.3572
   10MOL0     C 1225   4.259   4.182  10.257  0.8071  0.4671 -0.5459
   10MOL0     C 1226   4.343   4.077  10.182 -0.2388 -0.0011  0.2289
   10MOL0     C 1227   4.407   3.972  10.269 -0.6186 -0.3160 -0.8934
   10MOL0     C 1228   4.458   3.856  10.177  0.1701 -0.5796  0.8708
   10MOL0     C 1229   4.502   3.730  10.255  0.4649 -0.2339  0.4088
   10MOL0     C 1230   4.510   3.583  10.180 -0.3824  0.5086 -0.7045
   10MOL0     C 1231   4.387   3.536  10.094 -1.7115 -1.3212 -0.0206
   10MOL0     N 1232   4.262   3.564  10.165  0.0514  0.3014 -1.1966
   10MOL0     C 1233   4.181   3.466  10.203 -0.9836 -0.4001  0.8188
   10MOL0     C 1234   4.056   3.523  10.223 -0.3416 -0.2326  1.3048
   10MOL0     C 1235   3.933   3.450  10.249 -0.2746  0.1825  0.8416
   10MOL0     C 1236   3.850   3.524  10.353 -0.1935 -0.0464  0.2124
   10MOL0     C 1237   3.923   3.520  10.491  0.5256  0.1820  0.2660
   10MOL0     C 1238   3.836   3.616  10.585  1.4524  0.6897  1.0236
   10MOL0     O 1239   3.844   3.581  10.724  0.0117  0.0349  0.2122
   10MOL0     C 1240   3.754   3.481  10.771  0.3902  0.4184  0.6155
   10MOL0     C 1241   3.675   3.391  10.705 -0.3323  0.1545  0.1853
   10MOL0     C 1242   3.601   3.295  10.772  0.3848  0.3282 -0.2008
   10MOL0     C 1243   3.528   3.194  10.682 -0.0957 -0.5837  0.3235
   10MOL0     C 1244   3.603   3.298  10.908  0.0001  0.6047 -0.4204
   10MOL0     C 1245   3.526   3.204  10.986  0.3920 -0.0310 -0.2155
   10MOL0     O 1246   3.489   3.243  11.118 -0.5284 -0.6969 -0.7562
   10MOL0     C 1247   3.475   3.152  11.225 -0.0124 -0.0022  1.0714
   10MOL0     C 1248   3.363   3.168  11.302  0.3301 -0.4162 -2.2690
   10MOL0     C 1249   3.349   3.097  11.422  0.4417  1.2476 -0.7551
   10MOL0     C 1250   3.437   2.995  11.463  0.3727 -0.4953  0.0505
   10MOL0     O 1251   3.409   2.902  11.559 -0.0443  0.1575  1.0753
   10MOL0     C 1252   3.287   2.827  11.543 -0.1552 -0.2238  0.2955
   10MOL0     C 1253   3.277   2.695  11.612 -0.6878  0.1063  0.6446
   10MOL0     C 1254   3.141   2.624  11.616  0.0752  0.1599 -0.2527
   10MOL0     C 1255   3.044   2.677  11.718  1.0665 -0.3767  0.3349
   10MOL0     C 1256   2.906   2.601  11.722  0.3584 -0.8228  0.4422
   10MOL0     C 1257   2.826   2.611  11.600 -0.6697  0.3662 -0.0263
   10MOL0     C 1258   2.776   2.757  11.565 -0.4750 -0.7340  0.0436
   10MOL0     C 1259   2.880   2.825  11.467 -0.8548 -0.6729 -0.2354
   10MOL0    Cl 1260   2.890   2.993  11.500 -0.2777 -0.2973  0.3919
   10MOL0     C 1261   3.556   2.985  11.391  0.5886 -0.3287  0.4665
   10MOL0     C 1262   3.569   3.057  11.267  0.2404  0.3823  0.2664
   10MOL0     O 1263   3.511   3.090  10.945 -0.3655 -0.4305 -0.6087
   10MOL0     C 1264   3.674   3.392  10.981 -0.5543 -0.1769  0.1954
   10MOL0     C 1265   3.754   3.476  10.912  1.6390  0.4584 -0.8155
   10MOL0     N 1266   4.073   3.654  10.203  0.3629  0.6445 -0.1031
   10MOL0     N 1267   4.195   3.683  10.174 -0.1847  0.3648 -0.5123
   10MOL0     C 1268   4.338   4.222  10.726 -0.7930  0.4771  0.6743
   10MOL0     C 1269   4.360   4.304  10.844  0.0190 -0.4745  0.0868
   10MOL0     C 1270   4.497   4.629  11.131  0.2970 -0.0440 -0.2086
   10MOL0     C 1271   4.559   4.750  11.167  0.0552  0.0713 -0.3884
   10MOL0     C 1272   4.530   4.810  11.294  1.1621  1.1101 -0.0821
   10MOL0     C 1273   4.436   4.746  11.378 -0.1020  0.2322  0.2850
   10MOL0     O 1274   4.401   4.785  11.504  0.4618  0.2361 -0.3112
   10MOL0     C 1275   4.401   4.922  11.558 -0.4997  0.1828 -0.0199
   10MOL0     C 1276   4.475   4.926  11.704 -0.9514  0.2904 -0.5835
   10MOL0     C 1277   4.627   4.886  11.688  0.2314 -0.1584 -0.2575
   10MOL0     C 1278   4.695   4.917  11.814 -0.3806 -1.0207  0.0356
   10MOL0     C 1279   4.836   4.925  11.796 -0.0120  0.0469 -0.3079
   10MOL0     C 1280   4.957   4.916  11.769 -0.3050 -0.4068 -0.2806
   10MOL0     C 1281   4.385   4.624  11.343  0.0718  0.2023 -1.0301
   10MOL0     C 1282   4.415   4.564  11.225  0.0504 -0.5097 -0.4519
   10MOL0     H 1283   4.533   4.556  10.706 -1.2956  1.9717 -0.1733
   10MOL0     H 1284   4.504   4.424  10.511 -1.7915  1.0399  0.6403
   10MOL0     H 1285   4.274   4.353  10.388  2.5232  2.7495  0.9893
   10MOL0     H 1286   4.436   4.279  10.330 -1.2209  0.7608  0.0435
   10MOL0     H 1287   4.175   4.127  10.301 -0.5408  0.8858 -2.4359
   10MOL0     H 1288   4.213   4.247  10.182 -1.3384 -0.3108  0.0039
   10MOL0     H 1289   4.279   4.031  10.106 -0.1112 -1.6767  1.0707
   10MOL0     H 1290   4.420   4.132  10.128 -1.5348  0.2834 -1.4197
   10MOL0     H 1291   4.491   4.024  10.315  0.5884 -0.7650 -2.5098
   10MOL0     H 1292   4.334   3.941  10.345 -2.4237  0.5619 -2.1912
   10MOL0     H 1293   4.385   3.829  10.100  1.6130  5.2022 -3.1197
   10MOL0     H 1294   4.546   3.896  10.125 -1.1649  1.0549 -0.2070
   10MOL0     H 1295   4.598   3.745  10.306  2.0880 -2.1599 -1.8783
   10MOL0     H 1296   4.433   3.715  10.338  0.5333 -0.0287  0.5058
   10MOL0     H 1297   4.603   3.585  10.122  1.2812 -1.5208  1.7171
   10MOL0     H 1298   4.522   3.519  10.268  1.3606  1.1092 -0.4451
   10MOL0     H 1299   4.393   3.431  10.066  2.2134 -1.1527 -0.2809
   10MOL0     H 1300   4.381   3.594  10.002  0.5377 -0.5646  0.2501
   10MOL0     H 1301   4.184   3.358  10.197  2.1875 -0.3100 -1.8064
   10MOL0     H 1302   3.880   3.446  10.154  2.2499  3.0604 -0.8799
   10MOL0     H 1303   3.954   3.349  10.286 -0.9985 -0.0319  0.6715
   10MOL0     H 1304   3.747   3.486  10.354  1.2526 -4.7663 -2.1062
   10MOL0     H 1305   3.840   3.629  10.324 -0.2380 -0.0365  0.2634
   10MOL0     H 1306   4.027   3.554  10.491  1.2189 -1.7681  0.5198
   10MOL0     H 1307   3.915   3.416  10.525 -1.0932  0.1184 -0.2426
   10MOL0     H 1308   3.734   3.619  10.546  1.3475  5.4203  1.1181
   10MOL0     H 1309   3.874   3.718  10.578  0.4608  1.0025  0.1732
   10MOL0     H 1310   3.663   3.391  10.597 -0.1295  0.9796  0.1560
   10MOL0     H 1311   3.420   3.211  10.690 -0.1312 -0.3290 -0.5473
   10MOL0     H 1312   3.549   3.219  10.577 -2.4191 -0.1860 -0.1082
   10MOL0     H 1313   3.551   3.089  10.698 -1.2907 -1.1018 -1.0652
   10MOL0     H 1314   3.283   3.236  11.275  1.5109  2.0575 -0.0490
   10MOL0     H 1315   3.255   3.122  11.471  0.0783 -0.8812 -0.2957
   10MOL0     H 1316   3.206   2.882  11.592 -0.4453 -1.3682  1.1334
   10MOL0     H 1317   3.274   2.804  11.437  3.0483 -0.3146 -0.1607
   10MOL0     H 1318   3.341   2.619  11.565 -2.1565  0.0785 -1.4208
   10MOL0     H 1319   3.316   2.704  11.714  0.1800  0.3744  0.3008
   10MOL0     H 1320   3.173   2.521  11.635  0.6291  0.2636 -0.6075
   10MOL0     H 1321   3.102   2.627  11.514  3.2521 -0.6254 -1.6311
   10MOL0     H 1322   3.089   2.678  11.818 -0.4917  3.1517  1.1468
   10MOL0     H 1323   3.026   2.780  11.689  1.7152 -0.4624 -0.4036
   10MOL0     H 1324   2.841   2.637  11.803  1.3400 -2.0275  1.8101
   10MOL0     H 1325   2.932   2.496  11.736  0.2800 -0.7890  0.8404
   10MOL0     H 1326   2.887   2.589  11.512 -3.8531 -2.4389 -1.7842
   10MOL0     H 1327   2.737   2.548  11.596  0.3442 -1.2687  1.8051
   10MOL0     H 1328   2.747   2.814  11.653 -1.4227 -1.4536  0.2191
   10MOL0     H 1329   2.684   2.763  11.505 -0.9744  0.0852  0.8651
   10MOL0     H 1330   2.859   2.805  11.362  2.3153 -0.0282 -1.0873
   10MOL0     H 1331   2.983   2.789  11.475 -0.1740  1.1094 -0.4868
   10MOL0     H 1332   3.636   2.917  11.419  1.1291  0.1232  0.0485
   10MOL0     H 1333   3.657   3.031  11.208 -0.7764 -0.7306 -0.8335
   10MOL0     H 1334   3.673   3.393  11.089 -4.6507  0.4329  0.3315
   10MOL0     H 1335   3.819   3.553  10.954  0.2340  2.6026 -2.3397
   10MOL0     H 1336   4.290   4.128  10.753  1.6343 -0.8821  0.5929
   10MOL0     H 1337   4.318   4.288  10.943 -2.1079 -0.7658 -0.7957
   10MOL0     H 1338   4.626   4.799  11.097 -1.3220  2.7551  0.0415
   10MOL0     H 1339   4.576   4.900  11.334  0.9394  0.6796  1.1818
   10MOL0     H 1340   4.445   4.997  11.491  0.9581 -1.9315 -1.5870
   10MOL0     H 1341   4.298   4.941  11.587 -0.5891 -1.4285  0.8672
   10MOL0     H 1342   4.421   4.845  11.754 -1.8331  0.7111 -0.8487
   10MOL0     H 1343   4.475   5.023  11.755  5.0546 -0.2146  1.2748
   10MOL0     H 1344   4.660   4.962  11.616 -0.0889  2.1803  1.8976
   10MOL0     H 1345   4.644   4.781  11.663  2.7380 -0.2600  1.4959
   10MOL0     H 1346   4.680   4.847  11.897  1.1279 -0.9531  0.3833
   10MOL0     H 1347   4.660   5.009  11.863  1.5884  1.0493 -2.2451
   10MOL0     H 1348   5.059   4.895  11.742  0.3819 -0.4810  2.1506
   10MOL0     H 1349   4.327   4.576  11.420  0.1660  1.0916 -0.3911
   10MOL0     H 1350   4.379   4.464  11.202 -0.9815  0.0359 -1.3427
   11MOL0     O 1351  10.681  11.446   8.433  0.3720  0.2365 -0.1989
   11MOL0     C 1352  10.581  11.443   8.501  0.7283  0.4268 -0.6022
   11MOL0     O 1353  10.578  11.484   8.623  0.0352  0.2917  0.2540
   11MOL0     C 1354  10.653  11.590   8.677 -0.7213  0.5333 -0.9990
   11MOL0     C 1355  10.683  11.699   8.596  0.3609 -0.5734 -0.2625
   11MOL0     C 1356  10.774  11.792   8.641 -0.1046 -0.7990  0.1815
   11MOL0     C 1357  10.821  11.800   8.772  0.4603 -0.1292  0.5453
   11MOL0     O 1358  10.902  11.890   8.830  0.0554  0.2082  0.4213
   11MOL0     C 1359  10.924  12.016   8.764  1.2979  0.0808 -0.6877
   11MOL0     C 1360  11.048  12.085   8.832 -1.3280  0.1599 -0.6811
   11MOL0     C 1361  11.027  12.096   8.985  0.9594  0.2335  0.7921
   11MOL0     C 1362  11.153  12.053   9.054 -0.0658 -0.3041 -0.5679
   11MOL0     C 1363  11.154  12.077   9.213 -0.1507 -0.7843 -0.8360
   11MOL0     C 1364  11.047  12.007   9.302 -0.8357 -0.1671 -0.2329
   11MOL0     C 1365  11.037  11.848   9.306 -0.3766 -0.2033  0.6381
   11MOL0     C 1366  10.912  11.792   9.378  0.0209 -0.8895 -0.6048
   11MOL0     N 1367  10.918  11.842   9.522  0.3560  0.2078  0.2440
   11MOL0     C 1368  10.861  11.951   9.579  0.0352 -0.5281  0.2462
   11MOL0     C 1369  10.917  11.956   9.706  0.1040  0.0839  0.0651
   11MOL0     C 1370  10.860  12.051   9.812  0.3175  0.5466 -1.1824
   11MOL0     C 1371  10.835  12.193   9.749 -0.8797 -0.3667 -0.6467
   11MOL0     C 1372  10.967  12.250   9.681  0.1506 -0.0931 -0.3624
   11MOL0     C 1373  11.078  12.266   9.791  0.1638  0.1575  0.3703
   11MOL0     O 1374  11.200  12.328   9.733  0.4779  0.2813 -0.2674
   11MOL0     C 1375  11.286  12.249   9.659 -0.6381 -0.1117  0.1556
   11MOL0     C 1376  11.274  12.105   9.648 -0.0809 -0.7129  0.2470
   11MOL0     C 1377  11.351  12.030   9.569  0.1313  1.0811  0.5590
   11MOL0     C 1378  11.350  11.885   9.591 -0.6232 -0.2370  0.4043
   11MOL0     C 1379  11.431  12.096   9.471 -0.9850  0.3972 -0.2194
   11MOL0     C 1380  11.517  12.021   9.375 -0.7734 -0.5310 -0.9841
   11MOL0     O 1381  11.501  11.893   9.346 -0.0181 -0.0046  0.9179
   11MOL0     C 1382  11.536  11.844   9.219  0.4654  0.4707  0.6105
   11MOL0     C 1383  11.567  11.704   9.211 -0.2631  0.2995  0.6987
   11MOL0     C 1384  11.619  11.658   9.090  1.2602  0.3167  0.3236
   11MOL0     C 1385  11.612  11.743   8.973 -0.9313 -0.5917 -0.2852
   11MOL0     O 1386  11.654  11.706   8.848  0.6506  0.0726  0.5529
   11MOL0     C 1387  11.641  11.566   8.814 -0.7171  0.4908  0.2598
   11MOL0     C 1388  11.648  11.544   8.664  1.0015  0.6265 -0.3890
   11MOL0     C 1389  11.664  11.397   8.626  0.3022  0.1745  0.2575
   11MOL0     C 1390  11.542  11.332   8.573  0.4850  0.6334  0.1778
   11MOL0     C 1391  11.577  11.208   8.504  0.1128 -0.2609 -0.6041
   11MOL0     C 1392  11.471  11.180   8.386 -0.6354 -0.3093  0.1939
   11MOL0     C 1393  11.513  11.053   8.318  0.1776 -0.5635 -0.0715
   11MOL0     C 1394  11.476  10.923   8.381 -0.2888 -0.2686 -0.3397
   11MOL0    Cl 1395  11.540  10.786   8.291 -0.4276  0.0721 -0.1408
   11MOL0     C 1396  11.572  11.877   8.985 -0.3141 -1.0229 -0.1679
   11MOL0     C 1397  11.533  11.927   9.103  0.2006 -0.3123 -1.0526
   11MOL0     O 1398  11.616  12.084   9.346  0.2366  0.1564 -0.0752
   11MOL0     C 1399  11.445  12.238   9.478  0.5305  0.0210  0.2295
   11MOL0     C 1400  11.371  12.318   9.561  1.1240 -0.6691  0.1851
   11MOL0     N 1401  11.008  11.855   9.717 -0.1908 -0.5522  0.5644
   11MOL0     N 1402  11.002  11.785   9.607 -0.3381  0.3429 -0.3402
   11MOL0     C 1403  10.784  11.698   8.858  0.3172  0.4424  0.3008
   11MOL0     C 1404  10.704  11.593   8.812 -0.5643  0.3213  1.0091
   11MOL0     C 1405  10.468  11.369   8.458  0.2733 -0.5034  0.5621
   11MOL0     C 1406  10.469  11.280   8.345 -0.0912 -0.8048 -0.3559
   11MOL0     C 1407  10.359  11.202   8.303 -0.1015 -0.3650 -0.1218
   11MOL0     C 1408  10.234  11.227   8.354 -0.3580 -0.2483 -0.5254
   11MOL0     O 1409  10.121  11.155   8.324  0.1044 -0.0151  0.8862
   11MOL0     C 1410  10.107  11.082   8.200 -0.7098 -0.1177 -0.0800
   11MOL0     C 1411   9.951  11.045   8.172 -0.6267  0.4848  1.5296
   11MOL0     C 1412   9.889  10.953   8.276  0.2112  0.0943  0.5602
   11MOL0     C 1413   9.735  10.954   8.273 -0.2634 -0.4810 -0.5349
   11MOL0     C 1414   9.676  10.955   8.141 -0.0080  0.1811  0.6124
   11MOL0     C 1415   9.607  10.959   8.046  0.1756  0.3033 -0.4874
   11MOL0     C 1416  10.230  11.314   8.465  0.1469  0.2919 -0.6562
   11MOL0     C 1417  10.338  11.372   8.523  0.2247 -0.6668  0.3951
   11MOL0     H 1418  10.636  11.702   8.498 -0.2335  1.1725  0.0369
   11MOL0     H 1419  10.813  11.864   8.571 -0.4253 -2.9392 -2.3753
   11MOL0     H 1420  10.940  11.999   8.658 -1.2763 -1.5733 -0.9123
   11MOL0     H 1421  10.829  12.070   8.768 -0.4174 -2.7459  2.7765
   11MOL0     H 1422  11.140  12.033   8.804 -2.6912 -0.9060 -3.6855
   11MOL0     H 1423  11.060  12.189   8.800 -1.5667 -0.2847 -2.3411
   11MOL0     H 1424  11.014  12.202   9.011  0.6910  0.1746  0.9007
   11MOL0     H 1425  10.942  12.036   9.016  0.2368  0.0884 -1.3183
   11MOL0     H 1426  11.193  11.953   9.033  2.0622  0.3837 -0.0164
   11MOL0     H 1427  11.235  12.112   9.013 -0.4380  1.2386  0.8046
   11MOL0     H 1428  11.253  12.055   9.254 -0.7609 -2.3397 -0.1218
   11MOL0     H 1429  11.137  12.185   9.216 -0.4114 -0.6723 -3.6398
   11MOL0     H 1430  11.057  12.040   9.405 -0.2816  3.0071 -1.2043
   11MOL0     H 1431  10.956  12.047   9.256 -0.5592 -0.7199 -1.3191
   11MOL0     H 1432  11.038  11.804   9.206  1.7390 -3.3246  1.8804
   11MOL0     H 1433  11.125  11.802   9.351 -1.0030 -1.2560  0.8265
   11MOL0     H 1434  10.904  11.684   9.362  0.0750 -0.8582 -0.8435
   11MOL0     H 1435  10.819  11.827   9.332 -0.6335  0.9034  1.8304
   11MOL0     H 1436  10.781  12.017   9.548  0.9291  1.9779  2.8657
   11MOL0     H 1437  10.763  12.009   9.840  0.7133  0.0914 -0.4622
   11MOL0     H 1438  10.925  12.059   9.899  0.5455  1.1700 -1.4079
   11MOL0     H 1439  10.789  12.257   9.825  0.6793 -2.3880  2.1896
   11MOL0     H 1440  10.757  12.201   9.672  1.3300  1.1747 -2.8799
   11MOL0     H 1441  10.952  12.345   9.629 -0.3271 -0.1744 -0.3738
   11MOL0     H 1442  11.009  12.185   9.604 -0.0848 -2.9334  1.7395
   11MOL0     H 1443  11.108  12.181   9.853  0.7455  0.1466  0.0777
   11MOL0     H 1444  11.041  12.336   9.866 -0.5882 -1.4255  1.5308
   11MOL0     H 1445  11.208  12.061   9.721 -2.1331  0.9400 -0.5102
   11MOL0     H 1446  11.454  11.853   9.603 -1.4893 -2.6407  2.2325
   11MOL0     H 1447  11.287  11.854   9.675 -1.7118  1.8493  0.4338
   11MOL0     H 1448  11.303  11.842   9.502  0.7260  0.8778 -0.9100
   11MOL0     H 1449  11.567  11.638   9.298  3.9791 -0.5507  0.2654
   11MOL0     H 1450  11.655  11.556   9.080 -2.2999 -1.0420 -0.2157
   11MOL0     H 1451  11.727  11.505   8.845 -2.7658 -2.2497  1.0144
   11MOL0     H 1452  11.549  11.522   8.854 -0.3879 -0.3014  0.1813
   11MOL0     H 1453  11.572  11.594   8.603  1.2780  1.3989 -0.1045
   11MOL0     H 1454  11.741  11.595   8.637  1.3997 -0.4351 -1.1260
   11MOL0     H 1455  11.702  11.335   8.707  1.3214  1.6311  0.9551
   11MOL0     H 1456  11.738  11.402   8.545  0.7850 -0.9378  0.6147
   11MOL0     H 1457  11.457  11.320   8.641  1.8174 -0.3349  1.7565
   11MOL0     H 1458  11.514  11.395   8.488  2.4927  0.9190 -0.3280
   11MOL0     H 1459  11.566  11.130   8.580  0.1187  0.2045 -0.1129
   11MOL0     H 1460  11.683  11.208   8.476  0.0797 -2.0242 -0.8237
   11MOL0     H 1461  11.371  11.179   8.431 -1.6515  2.0618 -1.7695
   11MOL0     H 1462  11.474  11.258   8.309  1.3726 -0.1482  0.3803
   11MOL0     H 1463  11.620  11.068   8.303 -0.3153  0.8376 -2.7607
   11MOL0     H 1464  11.471  11.057   8.217  1.5259  1.7820 -0.6037
   11MOL0     H 1465  11.368  10.904   8.376 -0.0531 -1.4317 -1.4837
   11MOL0     H 1466  11.507  10.917   8.485 -1.4676 -3.5568 -0.0594
   11MOL0     H 1467  11.553  11.939   8.898 -1.9591  1.6795  1.9800
   11MOL0     H 1468  11.475  12.019   9.100 -1.2578 -1.0664  1.5933
   11MOL0     H 1469  11.519  12.283   9.413  1.1100 -1.7493 -0.3930
   11MOL0     H 1470  11.369  12.426   9.567 -1.9203 -0.7189  1.4540
   11MOL0     H 1471  10.820  11.693   8.960  0.7343 -3.0766  0.1140
   11MOL0     H 1472  10.678  11.509   8.876 -4.7919  0.2220 -0.5305
   11MOL0     H 1473  10.557  11.262   8.284 -0.4399  1.1605 -1.5310
   11MOL0     H 1474  10.368  11.130   8.223 -2.1604 -1.9403  0.9798
   11MOL0     H 1475  10.153  11.131   8.114 -0.7101 -2.5608 -1.5912
   11MOL0     H 1476  10.170  10.993   8.208  3.4491  2.4298 -1.7027
   11MOL0     H 1477   9.949  11.006   8.070  1.5457  1.3052  1.1218
   11MOL0     H 1478   9.886  11.132   8.177 -2.0003 -0.4457  0.5404
   11MOL0     H 1479   9.923  10.972   8.378 -0.4362 -3.2811  1.5423
   11MOL0     H 1480   9.918  10.847   8.268 -0.4511 -0.0132 -0.6772
   11MOL0     H 1481   9.708  11.043   8.331  0.5556  0.3607 -1.4000
   11MOL0     H 1482   9.694  10.869   8.328 -1.7438  0.8849  0.5937
   11MOL0     H 1483   9.547  10.967   7.958 -1.6693  2.6708  0.8776
   11MOL0     H 1484  10.130  11.323   8.504 -0.6704 -1.2304 -2.2678
   11MOL0     H 1485  10.311  11.439   8.604 -2.9582 -1.2862 -0.0099
   12MOL0     O 1486   1.395   6.649   6.593  0.8563  0.2392 -1.0451
   12MOL0     C 1487   1.433   6.766   6.577  0.1951 -0.0125 -0.0421
   12MOL0     O 1488   1.560   6.813   6.563  0.2665  0.7833 -0.5504
   12MOL0     C 1489   1.669   6.735   6.534  0.0092 -0.1182 -0.1549
   12MOL0     C 1490   1.672   6.593   6.552 -0.9058 -0.1228 -0.7136
   12MOL0     C 1491   1.786   6.527   6.515 -0.7103  0.0847  0.0068
   12MOL0     C 1492   1.888   6.595   6.437  1.0437 -0.2419 -0.2115
   12MOL0     O 1493   1.982   6.512   6.378  0.1485 -0.6935  1.2038
   12MOL0     C 1494   2.109   6.579   6.353  0.7473  0.1435  0.0362
   12MOL0     C 1495   2.221   6.477   6.369 -0.0292 -0.2039  0.7424
   12MOL0     C 1496   2.193   6.358   6.269  0.0527  0.5746 -0.5872
   12MOL0     C 1497   2.285   6.229   6.292  0.0207  1.3536  1.1647
   12MOL0     C 1498   2.245   6.120   6.196 -0.5348 -0.2420  0.2377
   12MOL0     C 1499   2.149   6.029   6.259  0.6687 -0.1613  0.2959
   12MOL0     C 1500   2.066   5.943   6.159 -0.6120  0.1308 -0.2049
   12MOL0     C 1501   1.999   5.824   6.229  0.7483  0.0489 -0.1312
   12MOL0     N 1502   1.922   5.735   6.138 -0.0580  0.3141  0.1595
   12MOL0     C 1503   1.981   5.634   6.065  0.2577  0.9926 -0.0449
   12MOL0     C 1504   1.873   5.560   6.011 -0.8419 -0.1209 -0.0020
   12MOL0     C 1505   1.878   5.434   5.919 -1.2962  1.0225 -0.8016
   12MOL0     C 1506   2.017   5.419   5.852  0.3874  0.1852  0.0229
   12MOL0     C 1507   1.993   5.313   5.734  0.6497 -0.2411  0.8384
   12MOL0     C 1508   2.133   5.301   5.661  0.7130  0.0200 -0.1803
   12MOL0     O 1509   2.242   5.264   5.737 -1.0101 -0.1219  0.2284
   12MOL0     C 1510   2.373   5.268   5.673 -0.6009  1.1108 -0.0084
   12MOL0     C 1511   2.482   5.257   5.766  0.9396 -0.4230 -0.1999
   12MOL0     C 1512   2.614   5.275   5.720  0.0143  0.2799 -0.1771
   12MOL0     C 1513   2.715   5.282   5.833 -0.3471 -0.4070  0.0298
   12MOL0     C 1514   2.637   5.287   5.578  0.5286  0.3064  0.6306
   12MOL0     C 1515   2.776   5.300   5.516 -0.2702 -0.2605 -0.6171
   12MOL0     O 1516   2.777   5.319   5.379  0.2056 -0.5059  0.6607
   12MOL0     C 1517   2.898   5.316   5.319 -0.5774  0.0240  0.9850
   12MOL0     C 1518   2.987   5.425   5.325  0.3004 -0.1834  0.2090
   12MOL0     C 1519   3.107   5.428   5.260  0.2926 -0.4988  0.0302
   12MOL0     C 1520   3.155   5.317   5.185  0.4869  1.1363 -0.6350
   12MOL0     O 1521   3.275   5.323   5.130  0.5410 -0.4875  0.0164
   12MOL0     C 1522   3.278   5.302   4.989  0.5495  0.1819 -0.0520
   12MOL0     C 1523   3.358   5.186   4.950 -0.4871 -0.0865  0.3097
   12MOL0     C 1524   3.337   5.151   4.797 -0.1901 -0.1997  0.5698
   12MOL0     C 1525   3.347   5.275   4.706 -0.1079 -0.2322  0.6194
   12MOL0     C 1526   3.484   5.346   4.719  0.1643 -0.8863  0.0391
   12MOL0     C 1527   3.490   5.477   4.639  0.1783 -1.0377  0.2318
   12MOL0     C 1528   3.371   5.569   4.652 -1.5095 -0.5936  0.3611
   12MOL0     C 1529   3.429   5.720   4.673  1.6398  0.8320 -0.2568
   12MOL0    Cl 1530   3.529   5.769   4.525 -0.1863  0.2003  0.2315
   12MOL0     C 1531   3.073   5.202   5.195 -0.1758 -0.8369  1.0220
   12MOL0     C 1532   2.944   5.204   5.251  1.3729 -0.3462 -1.0827
   12MOL0     O 1533   2.880   5.300   5.593 -0.6427 -1.2810 -0.5437
   12MOL0     C 1534   2.522   5.291   5.488  0.0092 -0.0935  0.0477
   12MOL0     C 1535   2.393   5.298   5.542 -0.1302 -0.2944  0.4778
   12MOL0     N 1536   1.757   5.628   6.047  0.0139  0.0866 -0.0508
   12MOL0     N 1537   1.795   5.736   6.117  0.8958 -0.3919  0.1652
   12MOL0     C 1538   1.877   6.734   6.414  0.4334  0.9774  0.9892
   12MOL0     C 1539   1.773   6.799   6.469 -1.0655  0.3968 -0.4679
   12MOL0     C 1540   1.329   6.871   6.575  0.5120 -0.6359 -0.9597
   12MOL0     C 1541   1.194   6.833   6.599  0.0326  0.0615 -0.8493
   12MOL0     C 1542   1.086   6.926   6.592 -0.3817 -0.0233  0.4913
   12MOL0     C 1543   1.112   7.060   6.567  0.6793  0.2933  0.6730
   12MOL0     O 1544   1.007   7.151   6.559 -0.0631  0.1882  0.1372
   12MOL0     C 1545   0.928   7.154   6.676 -0.3532 -0.3782 -0.4138
   12MOL0     C 1546   0.803   7.240   6.652 -0.9719 -0.3414 -0.2312
   12MOL0     C 1547   0.710   7.253   6.771 -0.9799 -0.1880 -0.8946
   12MOL0     C 1548   0.781   7.262   6.918  0.3351 -0.5884  0.9165
   12MOL0     C 1549   0.834   7.390   6.938  0.1080 -0.0941 -0.3545
   12MOL0     C 1550   0.888   7.495   6.963  0.7238 -1.0389 -0.5601
   12MOL0     C 1551   1.240   7.094   6.526  0.6769 -0.7779  0.6454
   12MOL0     C 1552   1.339   6.996   6.520  0.0683 -0.2249 -0.3536
   12MOL0     H 1553   1.606   6.529   6.611  0.0448 -0.3609  0.1282
   12MOL0     H 1554   1.799   6.423   6.544 -1.7553 -0.1673 -0.3999
   12MOL0     H 1555   2.121   6.618   6.252  0.3263 -1.1856 -0.5343
   12MOL0     H 1556   2.127   6.654   6.431  1.0761 -1.3487  1.4539
   12MOL0     H 1557   2.316   6.527   6.348 -1.3266  2.9207  1.7167
   12MOL0     H 1558   2.236   6.436   6.470  0.0684  0.1357  0.8704
   12MOL0     H 1559   2.088   6.329   6.285  0.1855 -0.3642 -1.3377
   12MOL0     H 1560   2.196   6.386   6.164 -0.5752  1.0500 -0.4842
   12MOL0     H 1561   2.389   6.261   6.278  0.6001  0.0839  2.3775
   12MOL0     H 1562   2.275   6.203   6.397 -0.8534 -0.3455  0.6997
   12MOL0     H 1563   2.208   6.152   6.098 -0.0384 -1.8912 -0.5153
   12MOL0     H 1564   2.326   6.049   6.178 -0.0640  0.5563 -0.9385
   12MOL0     H 1565   2.205   5.961   6.324  2.6557 -0.4677 -1.6340
   12MOL0     H 1566   2.078   6.090   6.316  0.4874 -0.5532  0.4923
   12MOL0     H 1567   1.996   5.996   6.093 -0.0459 -2.1943 -2.8438
   12MOL0     H 1568   2.133   5.904   6.082 -0.3100  0.5708 -0.1711
   12MOL0     H 1569   1.920   5.865   6.293 -2.9313 -3.9324 -1.6062
   12MOL0     H 1570   2.080   5.769   6.277  0.4783 -1.8099 -1.6706
   12MOL0     H 1571   2.088   5.616   6.065  0.2005  0.6315 -0.0438
   12MOL0     H 1572   1.859   5.351   5.987  1.3978  2.3264  1.7560
   12MOL0     H 1573   1.799   5.439   5.843  0.6063  0.2101 -2.9302
   12MOL0     H 1574   2.083   5.378   5.928 -2.0135 -0.5098  1.8640
   12MOL0     H 1575   2.047   5.515   5.808 -2.3997  0.2446 -2.0771
   12MOL0     H 1576   1.911   5.345   5.669  0.5605 -2.2006 -0.0858
   12MOL0     H 1577   1.963   5.220   5.783  0.0527 -1.5619 -1.8340
   12MOL0     H 1578   2.147   5.401   5.618 -0.2943  1.8037  3.1818
   12MOL0     H 1579   2.124   5.224   5.584 -0.8418 -0.9033  0.8523
   12MOL0     H 1580   2.468   5.251   5.874  4.4569  3.5608  0.7420
   12MOL0     H 1581   2.673   5.293   5.933 -1.6451  2.7903 -0.7349
   12MOL0     H 1582   2.794   5.207   5.845 -0.0906  0.1227  1.9888
   12MOL0     H 1583   2.772   5.375   5.822 -1.3369  0.4040  1.4124
   12MOL0     H 1584   2.965   5.522   5.367  0.3034  0.8783 -2.0795
   12MOL0     H 1585   3.159   5.523   5.248  1.6911 -1.5425 -3.9278
   12MOL0     H 1586   3.176   5.279   4.957  0.3787  0.4583  0.2870
   12MOL0     H 1587   3.308   5.398   4.948  0.6803  0.2152  0.1170
   12MOL0     H 1588   3.463   5.206   4.973  0.4541 -0.8046 -2.9289
   12MOL0     H 1589   3.325   5.098   5.007  3.9838 -0.9679  1.9735
   12MOL0     H 1590   3.240   5.102   4.788 -0.6302  0.8429 -0.5965
   12MOL0     H 1591   3.423   5.089   4.770  0.9291  1.4959  0.0787
   12MOL0     H 1592   3.331   5.238   4.605  1.3295  2.7503 -0.8221
   12MOL0     H 1593   3.267   5.344   4.734 -0.9091 -1.5411  1.6569
   12MOL0     H 1594   3.553   5.270   4.679  0.9654  0.9154 -2.1970
   12MOL0     H 1595   3.496   5.378   4.823 -0.6197 -1.0434  0.1834
   12MOL0     H 1596   3.585   5.527   4.660 -0.1234  0.7238 -2.1979
   12MOL0     H 1597   3.505   5.441   4.536  1.4414 -1.2656  0.4840
   12MOL0     H 1598   3.309   5.542   4.738  0.8872 -2.3403  1.6837
   12MOL0     H 1599   3.311   5.554   4.563  0.2809 -0.7650 -0.8752
   12MOL0     H 1600   3.494   5.728   4.761 -0.7346 -3.3889  2.1913
   12MOL0     H 1601   3.333   5.772   4.675  1.3442  0.3261 -1.0132
   12MOL0     H 1602   3.103   5.105   5.158 -0.8111 -0.6278 -0.0840
   12MOL0     H 1603   2.885   5.114   5.246  1.5699 -0.4885 -0.8389
   12MOL0     H 1604   2.539   5.287   5.381 -0.9969  1.5500 -0.2103
   12MOL0     H 1605   2.311   5.314   5.473  0.1964 -3.6748 -0.8623
   12MOL0     H 1606   1.947   6.781   6.345  3.8514 -3.2271  1.1744
   12MOL0     H 1607   1.762   6.906   6.452 -0.4772  0.9369  2.0266
   12MOL0     H 1608   1.155   6.738   6.637 -1.3479  1.1839  0.6947
   12MOL0     H 1609   0.989   6.884   6.613 -0.4553 -0.1262 -0.0341
   12MOL0     H 1610   0.907   7.051   6.709  1.3356 -1.8130 -3.4138
   12MOL0     H 1611   0.980   7.214   6.751 -1.2142  0.3164 -0.3641
   12MOL0     H 1612   0.745   7.199   6.569 -0.5307 -1.2651 -0.0859
   12MOL0     H 1613   0.836   7.340   6.620  1.1711 -0.6576  0.8749
   12MOL0     H 1614   0.649   7.162   6.767 -0.8767 -0.3589  0.5948
   12MOL0     H 1615   0.632   7.330   6.765 -1.7474 -0.4683  2.7837
   12MOL0     H 1616   0.866   7.194   6.928  0.9630  0.2305  1.3644
   12MOL0     H 1617   0.709   7.226   6.992 -0.4733 -2.1201 -0.5683
   12MOL0     H 1618   0.945   7.585   6.965 -0.3994 -0.2772  2.8965
   12MOL0     H 1619   1.254   7.189   6.476  0.6842  1.5280  4.6019
   12MOL0     H 1620   1.439   7.008   6.481 -1.1758  0.4264 -3.6004
   13MOL0     O 1621   2.426   7.064  11.438 -0.2657 -0.3382 -0.3353
   13MOL0     C 1622   2.355   7.134  11.368 -1.2820  1.0102  0.4781
   13MOL0     O 1623   2.224   7.152  11.367 -1.1249  0.6210  0.1300
   13MOL0     C 1624   2.135   7.073  11.432  0.1843  0.9529 -0.7861
   13MOL0     C 1625   2.010   7.139  11.448 -0.5903 -0.6728  0.5910
   13MOL0     C 1626   1.908   7.075  11.513 -0.4862 -0.6733 -0.7320
   13MOL0     C 1627   1.928   6.943  11.571  0.4696  0.0244 -0.2472
   13MOL0     O 1628   1.835   6.869  11.645 -0.8808 -0.6971  0.1977
   13MOL0     C 1629   1.718   6.924  11.689  0.5149 -0.0193 -1.3859
   13MOL0     C 1630   1.611   6.928  11.579 -0.1949  0.6760 -0.7667
   13MOL0     C 1631   1.467   6.944  11.632 -0.3656 -0.0973 -0.4605
   13MOL0     C 1632   1.452   7.086  11.675 -0.0072 -0.5215 -0.5098
   13MOL0     C 1633   1.320   7.117  11.741  0.2974  0.0693  0.0689
   13MOL0     C 1634   1.219   7.128  11.636 -0.3472  0.1927 -0.7722
   13MOL0     C 1635   1.078   7.167  11.682  0.6799 -1.1411  0.1209
   13MOL0     C 1636   1.087   7.312  11.725  0.7298 -0.6216 -0.2720
   13MOL0     N 1637   0.979   7.361  11.813 -0.4407  0.0390  0.2787
   13MOL0     C 1638   0.969   7.324  11.937  0.6011  0.6732  0.4200
   13MOL0     C 1639   0.840   7.357  11.969 -0.1129 -0.4582 -0.1837
   13MOL0     C 1640   0.768   7.340  12.100  0.4623 -0.9641 -0.0791
   13MOL0     C 1641   0.738   7.457  12.190 -0.4481  1.0122  0.4009
   13MOL0     C 1642   0.712   7.589  12.116  0.2199 -0.3734  0.7045
   13MOL0     C 1643   0.683   7.712  12.201 -0.1086 -0.4310 -0.1991
   13MOL0     O 1644   0.609   7.811  12.119  0.7870  0.4195  0.5774
   13MOL0     C 1645   0.591   7.937  12.174 -0.8040  0.5015 -0.2029
   13MOL0     C 1646   0.544   8.046  12.096 -0.7480 -0.5852  1.1007
   13MOL0     C 1647   0.538   8.180  12.144  0.2549 -0.2734  0.1118
   13MOL0     C 1648   0.508   8.305  12.045 -0.0104  0.1688  0.1256
   13MOL0     C 1649   0.577   8.211  12.278 -0.2522  0.4121  0.3108
   13MOL0     C 1650   0.567   8.352  12.340 -0.2612 -0.0112 -0.0589
   13MOL0     O 1651   0.664   8.401  12.428  0.1306 -0.3963 -0.5288
   13MOL0     C 1652   0.636   8.520  12.487 -0.3116 -0.3933 -1.6207
   13MOL0     C 1653   0.651   8.652  12.440  0.2809  0.3202 -0.4039
   13MOL0     C 1654   0.645   8.768  12.523  0.1108 -0.5345 -0.1467
   13MOL0     C 1655   0.625   8.753  12.657 -0.0456  0.7828  1.0204
   13MOL0     O 1656   0.607   8.850  12.751 -0.4540  0.1432  0.2358
   13MOL0     C 1657   0.571   8.979  12.698  0.2043  0.4116  0.1230
   13MOL0     C 1658   0.585   9.081  12.810 -0.5593 -0.1083 -0.1179
   13MOL0     C 1659   0.590   9.218  12.755  0.1410  0.5150 -0.6389
   13MOL0     C 1660   0.466   9.272  12.676 -0.2647  0.2769 -0.1799
   13MOL0     C 1661   0.373   9.360  12.752 -0.4155 -0.2965 -0.4506
   13MOL0     C 1662   0.308   9.297  12.880  0.4994  0.3882 -1.0744
   13MOL0     C 1663   0.227   9.407  12.945  0.1738 -0.5512  0.8428
   13MOL0     C 1664   0.078   9.383  12.930  0.3333  0.0078 -0.0968
   13MOL0    Cl 1665   0.018   9.265  13.056 -0.0753  0.2506 -0.3532
   13MOL0     C 1666   0.633   8.618  12.714  0.8770 -1.0848  0.3356
   13MOL0     C 1667   0.630   8.506  12.628 -0.2866 -1.0473  0.1290
   13MOL0     O 1668   0.462   8.411  12.308 -0.2871  0.2029 -0.3364
   13MOL0     C 1669   0.623   8.105  12.358  1.3866 -1.0766  0.8617
   13MOL0     C 1670   0.634   7.974  12.309 -0.3693  0.1518  1.5759
   13MOL0     N 1671   0.779   7.409  11.851 -0.0377  0.3712 -0.5640
   13MOL0     N 1672   0.868   7.404  11.756 -0.7305 -0.1658  0.5316
   13MOL0     C 1673   2.055   6.880  11.562  0.6396 -0.4844  0.3195
   13MOL0     C 1674   2.161   6.942  11.496  0.2411 -0.1143 -0.6520
   13MOL0     C 1675   2.427   7.231  11.284 -0.2667 -0.2059  0.0828
   13MOL0     C 1676   2.355   7.319  11.194 -0.2701  0.1215 -0.2068
   13MOL0     C 1677   2.424   7.405  11.100  0.2336  0.6723 -0.1132
   13MOL0     C 1678   2.566   7.402  11.091 -0.4424  0.6744  0.0866
   13MOL0     O 1679   2.643   7.464  11.001 -0.6081 -0.4557  0.2142
   13MOL0     C 1680   2.580   7.501  10.875  0.0850 -0.3779  0.0029
   13MOL0     C 1681   2.524   7.645  10.897 -0.4025  0.2246 -0.9756
   13MOL0     C 1682   2.626   7.755  10.925  0.1630  0.1476 -0.6320
   13MOL0     C 1683   2.574   7.887  10.974 -0.0606 -0.4728 -0.8564
   13MOL0     C 1684   2.520   7.963  10.860  0.2790  0.4003  0.3089
   13MOL0     C 1685   2.466   8.025  10.769  0.0658  0.4365 -0.2547
   13MOL0     C 1686   2.631   7.316  11.173 -0.2772  0.3504 -0.1170
   13MOL0     C 1687   2.572   7.233  11.271  0.6893 -0.0399  0.0157
   13MOL0     H 1688   1.995   7.238  11.407 -2.3014 -1.8925 -1.9397
   13MOL0     H 1689   1.820   7.137  11.531  0.0050 -0.6655  2.0028
   13MOL0     H 1690   1.689   6.865  11.776  0.4803  2.7797  0.6328
   13MOL0     H 1691   1.724   7.027  11.724 -2.2959  0.1837 -1.2991
   13MOL0     H 1692   1.633   7.021  11.526  0.1086  1.9721  1.4797
   13MOL0     H 1693   1.620   6.839  11.516 -0.5096  2.2679 -3.1703
   13MOL0     H 1694   1.397   6.927  11.550 -1.1952  2.0000 -0.2450
   13MOL0     H 1695   1.432   6.881  11.714 -2.2985  3.0171  1.3030
   13MOL0     H 1696   1.522   7.095  11.759  1.6567 -1.9496 -1.6616
   13MOL0     H 1697   1.475   7.161  11.599  2.3016  0.9479  1.5167
   13MOL0     H 1698   1.278   7.041  11.807 -2.9188  1.2435 -0.4303
   13MOL0     H 1699   1.337   7.208  11.800  1.2039 -0.1086  0.1054
   13MOL0     H 1700   1.244   7.206  11.564 -1.3126 -0.3217 -1.7104
   13MOL0     H 1701   1.205   7.035  11.579 -2.9289 -0.4367  0.7021
   13MOL0     H 1702   1.002   7.158  11.605 -2.3689  1.9588  2.5094
   13MOL0     H 1703   1.051   7.106  11.770  4.4065 -1.2318  1.3919
   13MOL0     H 1704   1.096   7.377  11.637  1.5316 -2.8416 -1.9535
   13MOL0     H 1705   1.181   7.324  11.780  1.1872  0.4691 -1.2480
   13MOL0     H 1706   1.043   7.274  11.998  1.1543 -1.1532 -1.6257
   13MOL0     H 1707   0.667   7.303  12.082  0.1240 -0.8503  1.4249
   13MOL0     H 1708   0.823   7.266  12.158  0.2436  1.4740  3.6330
   13MOL0     H 1709   0.833   7.467  12.245 -0.8238  0.2221  1.2230
   13MOL0     H 1710   0.653   7.441  12.257 -0.5782  2.0811  0.5035
   13MOL0     H 1711   0.629   7.577  12.045 -1.3290  3.4158  1.6463
   13MOL0     H 1712   0.792   7.615  12.046  0.9333  1.2388  2.0478
   13MOL0     H 1713   0.779   7.758  12.228 -0.1574 -0.8866  0.7700
   13MOL0     H 1714   0.617   7.688  12.284 -2.4224 -1.4173 -2.2029
   13MOL0     H 1715   0.513   8.046  11.991  2.9737  5.8377 -0.5836
   13MOL0     H 1716   0.576   8.388  12.066 -1.0439  1.6354 -1.9714
   13MOL0     H 1717   0.508   8.264  11.944 -3.3035 -0.7352  0.3864
   13MOL0     H 1718   0.406   8.343  12.053 -0.4596 -0.9929  0.0879
   13MOL0     H 1719   0.663   8.665  12.332 -0.7103 -1.7244 -0.8174
   13MOL0     H 1720   0.649   8.865  12.475 -0.3006 -1.2131 -1.6405
   13MOL0     H 1721   0.632   9.023  12.618 -2.6071  3.6795 -0.4640
   13MOL0     H 1722   0.469   8.975  12.658 -0.3128 -1.1637  1.5002
   13MOL0     H 1723   0.493   9.081  12.869 -1.5824  0.4173 -1.6486
   13MOL0     H 1724   0.671   9.070  12.876 -0.0927  3.4908  0.0811
   13MOL0     H 1725   0.681   9.230  12.695  1.6459 -3.8290  0.4184
   13MOL0     H 1726   0.595   9.285  12.841 -1.0456 -2.2475  1.7349
   13MOL0     H 1727   0.505   9.322  12.587  1.0322 -1.1924 -0.4864
   13MOL0     H 1728   0.405   9.189  12.640  0.2841  0.2971 -1.2006
   13MOL0     H 1729   0.295   9.406  12.691  0.5803  0.5846 -1.0854
   13MOL0     H 1730   0.436   9.446  12.778  0.2124 -1.2439  1.3673
   13MOL0     H 1731   0.240   9.218  12.847 -2.1028  2.6958 -1.6358
   13MOL0     H 1732   0.380   9.258  12.953  0.6534 -1.0805 -1.9780
   13MOL0     H 1733   0.240   9.500  12.889 -2.9825 -0.3160  0.3548
   13MOL0     H 1734   0.256   9.431  13.048 -0.9183  3.0974  0.4465
   13MOL0     H 1735   0.059   9.346  12.829  0.7152  1.1403 -0.6004
   13MOL0     H 1736   0.019   9.475  12.936  1.0723  0.3978  3.4242
   13MOL0     H 1737   0.645   8.585  12.817  4.5833  0.1339  0.4211
   13MOL0     H 1738   0.654   8.407  12.665  0.9346 -0.7579  0.1647
   13MOL0     H 1739   0.643   8.127  12.462 -0.0696 -1.9005  1.3499
   13MOL0     H 1740   0.659   7.895  12.379  1.3269 -0.5235  0.2888
   13MOL0     H 1741   2.075   6.783  11.605 -0.6816 -1.6817 -1.6448
   13MOL0     H 1742   2.255   6.892  11.478  2.3726  2.0942  2.8794
   13MOL0     H 1743   2.248   7.331  11.182  0.1995  4.9282 -2.0006
   13MOL0     H 1744   2.360   7.464  11.035 -1.6694 -2.9057 -1.8126
   13MOL0     H 1745   2.660   7.507  10.801 -0.0669 -1.7418 -0.2951
   13MOL0     H 1746   2.504   7.432  10.838  2.3895 -3.8822  1.2676
   13MOL0     H 1747   2.456   7.644  10.983  0.0938 -2.8239 -0.5003
   13MOL0     H 1748   2.472   7.674  10.805  1.8806 -0.7492 -2.6681
   13MOL0     H 1749   2.701   7.773  10.847  0.3381  3.3371  0.1252
   13MOL0     H 1750   2.691   7.711  11.001 -2.2491 -2.5061  0.0553
   13MOL0     H 1751   2.656   7.942  11.022 -1.6337  0.0952  1.3328
   13MOL0     H 1752   2.498   7.871  11.050  1.9365  1.0609  1.6330
   13MOL0     H 1753   2.419   8.059  10.679 -1.2327  1.3779  0.7425
   13MOL0     H 1754   2.739   7.314  11.164 -0.3442  1.6194 -1.5701
   13MOL0     H 1755   2.656   7.196  11.329  4.2183  2.1615 -3.1858
   14MOL0     O 1756   3.137  10.555  10.814  0.3203  0.1685 -0.8143
   14MOL0     C 1757   3.255  10.513  10.822 -0.6103  0.3834 -1.0118
   14MOL0     O 1758   3.303  10.392  10.772 -0.1603  0.4124 -0.3052
   14MOL0     C 1759   3.222  10.316  10.698  0.3248  0.6316  0.6019
   14MOL0     C 1760   3.190  10.191  10.754 -0.1463 -1.0331 -0.0582
   14MOL0     C 1761   3.114  10.100  10.674  0.2074 -0.5410  0.6586
   14MOL0     C 1762   3.095  10.129  10.537 -0.0734  0.4613  0.2819
   14MOL0     O 1763   3.041  10.030  10.457  0.4708 -0.1536  0.2953
   14MOL0     C 1764   2.930  10.070  10.369 -0.2825  0.8342 -0.4380
   14MOL0     C 1765   2.878   9.943  10.313  0.0027  0.5346  1.0640
   14MOL0     C 1766   2.880   9.828  10.409 -0.6603  0.0418 -0.4275
   14MOL0     C 1767   2.794   9.711  10.358  0.1801  0.7005 -0.4728
   14MOL0     C 1768   2.786   9.591  10.459 -0.2762 -0.4904 -0.7190
   14MOL0     C 1769   2.685   9.484  10.414 -0.1009  0.4534  0.5301
   14MOL0     C 1770   2.668   9.381  10.524 -0.0728 -0.3868 -0.6915
   14MOL0     C 1771   2.621   9.248  10.464 -0.3053  0.1554 -0.0926
   14MOL0     N 1772   2.581   9.140  10.550  0.5483  0.4147 -0.1839
   14MOL0     C 1773   2.453   9.109  10.581 -0.8168 -0.5866  0.1018
   14MOL0     C 1774   2.463   9.035  10.704 -0.1704 -0.4238 -0.0543
   14MOL0     C 1775   2.354   8.985  10.790  0.3840  0.5675  0.1243
   14MOL0     C 1776   2.270   9.097  10.857  0.3862  0.6140  0.5461
   14MOL0     C 1777   2.353   9.191  10.943  0.4747  0.1674  0.3966
   14MOL0     C 1778   2.431   9.312  10.884 -0.0621  0.1853  1.0634
   14MOL0     O 1779   2.345   9.426  10.871 -0.2455  0.8705 -0.2932
   14MOL0     C 1780   2.337   9.487  10.753 -1.2773 -0.4102 -0.4785
   14MOL0     C 1781   2.408   9.602  10.724 -0.1258 -0.2987 -0.1797
   14MOL0     C 1782   2.409   9.659  10.601  0.4847  0.2632  0.1896
   14MOL0     C 1783   2.481   9.781  10.604 -0.3735 -0.1363  0.1473
   14MOL0     C 1784   2.322   9.607  10.496 -0.7700  0.2858  0.1676
   14MOL0     C 1785   2.288   9.677  10.362  0.5585  0.0781 -0.2014
   14MOL0     O 1786   2.378   9.762  10.303  0.0059  0.1447 -1.1976
   14MOL0     C 1787   2.336   9.876  10.232  0.3407  0.0055  1.1755
   14MOL0     C 1788   2.242   9.890  10.133 -0.6686  0.2729  0.2058
   14MOL0     C 1789   2.213  10.006  10.069  0.1809  0.3903  0.7055
   14MOL0     C 1790   2.275  10.122  10.109  0.6358 -0.3242 -0.2953
   14MOL0     O 1791   2.258  10.247  10.056 -0.5206  0.7003 -0.4096
   14MOL0     C 1792   2.147  10.275   9.965  0.2059  0.7065 -0.4125
   14MOL0     C 1793   2.178  10.407   9.903  0.0610 -0.7327  0.3685
   14MOL0     C 1794   2.061  10.467   9.820 -0.3348  0.4330 -0.0432
   14MOL0     C 1795   1.947  10.523   9.908  1.8386  0.0036 -0.2474
   14MOL0     C 1796   1.848  10.600   9.816 -0.7102 -1.0688 -0.1397
   14MOL0     C 1797   1.744  10.664   9.905 -0.6770 -0.4250  0.0004
   14MOL0     C 1798   1.650  10.763   9.836 -0.1937 -0.0337 -0.0010
   14MOL0     C 1799   1.606  10.877   9.930 -0.0609 -0.1987 -0.3152
   14MOL0    Cl 1800   1.560  11.019   9.825 -0.3912 -0.3640  0.1269
   14MOL0     C 1801   2.370  10.108  10.201 -0.9242 -0.2568  0.3907
   14MOL0     C 1802   2.401   9.987  10.265 -0.3561  0.2050 -0.2770
   14MOL0     O 1803   2.173   9.669  10.329  0.5225  0.7145 -0.1434
   14MOL0     C 1804   2.258   9.486  10.522  0.7326  1.0304  0.0582
   14MOL0     C 1805   2.255   9.430  10.650  0.8069  0.0126  0.0156
   14MOL0     N 1806   2.595   9.021  10.727 -0.0303  0.0578 -0.3182
   14MOL0     N 1807   2.664   9.083  10.639 -1.3946 -1.7720 -1.3257
   14MOL0     C 1808   3.131  10.258  10.481  0.8835 -0.8476 -0.2321
   14MOL0     C 1809   3.186  10.351  10.561 -0.7392 -1.0560  0.0792
   14MOL0     C 1810   3.355  10.590  10.912  0.0161 -0.2510 -0.7433
   14MOL0     C 1811   3.488  10.535  10.918  0.4680  0.3391 -0.1762
   14MOL0     C 1812   3.583  10.605  10.997  0.1649 -0.0896 -0.3434
   14MOL0     C 1813   3.552  10.730  11.051 -0.8827 -0.6562 -0.9363
   14MOL0     O 1814   3.650  10.783  11.131  0.4213 -0.2562 -0.4855
   14MOL0     C 1815   3.645  10.771  11.277 -0.9511 -0.6615  0.4028
   14MOL0     C 1816   3.675  10.630  11.333 -1.3105  0.4760 -0.1394
   14MOL0     C 1817   3.668  10.630  11.486 -0.2054  0.5867  0.2078
   14MOL0     C 1818   3.697  10.499  11.558  0.3303  0.7249 -1.3638
   14MOL0     C 1819   3.837  10.468  11.582  0.6099 -1.1272 -0.1745
   14MOL0     C 1820   3.956  10.448  11.588  0.5037 -0.5222  0.5956
   14MOL0     C 1821   3.419  10.792  11.039  0.1623 -0.0761  0.8627
   14MOL0     C 1822   3.323  10.713  10.971  0.0585 -1.2110 -0.9304
   14MOL0     H 1823   3.232  10.176  10.853 -0.4389 -1.2304  0.0381
   14MOL0     H 1824   3.088  10.006  10.722 -2.1934  0.0051  0.5217
   14MOL0     H 1825   2.855  10.121  10.429  2.5017 -0.8844  5.3114
   14MOL0     H 1826   2.961  10.127  10.281  0.1817  1.8029  0.3447
   14MOL0     H 1827   2.782   9.960  10.264 -0.0309  2.9556  1.8602
   14MOL0     H 1828   2.958   9.907  10.247  0.0019 -3.7792  3.0554
   14MOL0     H 1829   2.979   9.784  10.425 -0.7790 -0.9585 -2.1478
   14MOL0     H 1830   2.842   9.865  10.504 -2.5777 -0.6035 -0.9015
   14MOL0     H 1831   2.689   9.742  10.344  0.3345  1.6824  0.3990
   14MOL0     H 1832   2.822   9.678  10.258  0.8468  1.3252 -0.5018
   14MOL0     H 1833   2.892   9.564  10.467 -0.2777 -0.4194 -0.4688
   14MOL0     H 1834   2.757   9.632  10.556 -0.4520 -0.9587 -0.5713
   14MOL0     H 1835   2.585   9.522  10.391 -2.8844 -4.5668  2.7865
   14MOL0     H 1836   2.723   9.441  10.322 -3.2139  2.9202 -2.1710
   14MOL0     H 1837   2.763   9.364  10.576  0.4078  0.3307 -1.2961
   14MOL0     H 1838   2.609   9.423  10.606  1.5871  1.6694 -0.4356
   14MOL0     H 1839   2.697   9.213  10.394  0.6016 -2.0433  1.8297
   14MOL0     H 1840   2.531   9.270  10.407 -1.0081 -1.8320  0.1601
   14MOL0     H 1841   2.378   9.143  10.510  1.0767  0.9260 -1.2565
   14MOL0     H 1842   2.284   8.925  10.731  3.0278 -2.4665 -0.2261
   14MOL0     H 1843   2.399   8.919  10.865  0.2605  1.0176  0.5973
   14MOL0     H 1844   2.208   9.038  10.924  1.8402  1.0847  2.3789
   14MOL0     H 1845   2.191   9.148  10.801  0.0797  2.7406  2.7763
   14MOL0     H 1846   2.427   9.135  11.001 -0.3875 -0.8010  0.5832
   14MOL0     H 1847   2.282   9.237  11.012 -0.5690  0.2651 -0.7061
   14MOL0     H 1848   2.474   9.273  10.791 -1.9211  1.1706 -0.2823
   14MOL0     H 1849   2.518   9.330  10.948  0.1168 -2.1692  1.5993
   14MOL0     H 1850   2.473   9.630  10.807  3.5889 -0.3727 -2.8403
   14MOL0     H 1851   2.521   9.796  10.705 -1.0065 -2.4654  0.8224
   14MOL0     H 1852   2.557   9.785  10.526 -3.0820 -1.3495 -2.7783
   14MOL0     H 1853   2.408   9.861  10.593 -0.6576 -0.0407  2.3108
   14MOL0     H 1854   2.190   9.799  10.105 -2.1993  1.1287  0.1887
   14MOL0     H 1855   2.143   9.998   9.988  1.8825 -1.5564 -0.6757
   14MOL0     H 1856   2.152  10.202   9.884  1.6778  1.6195 -1.1819
   14MOL0     H 1857   2.049  10.276  10.015 -0.3531  1.5298 -1.4983
   14MOL0     H 1858   2.185  10.476   9.988 -2.6626  2.1310 -1.5207
   14MOL0     H 1859   2.269  10.405   9.843  0.5612  0.4785  1.0393
   14MOL0     H 1860   2.020  10.381   9.765 -1.8251 -0.6173  2.5154
   14MOL0     H 1861   2.092  10.542   9.747 -0.9101 -0.2660 -1.0317
   14MOL0     H 1862   1.894  10.446   9.966  2.6190 -0.4008 -0.0676
   14MOL0     H 1863   1.988  10.596   9.978 -0.7642  2.2298 -0.8581
   14MOL0     H 1864   1.802  10.535   9.741 -3.6920  1.3693 -0.6182
   14MOL0     H 1865   1.911  10.671   9.761 -1.6553 -0.4983 -0.4955
   14MOL0     H 1866   1.685  10.581   9.944 -0.0600 -0.1887  1.4817
   14MOL0     H 1867   1.795  10.709   9.990  1.8667 -1.7240 -0.7372
   14MOL0     H 1868   1.557  10.721   9.798  0.3734  1.0790 -2.9090
   14MOL0     H 1869   1.697  10.809   9.749 -0.1992 -0.1036 -0.0403
   14MOL0     H 1870   1.689  10.909   9.994 -1.7995  1.4260  1.2719
   14MOL0     H 1871   1.535  10.857  10.011  1.0506 -1.6952  0.3384
   14MOL0     H 1872   2.421  10.202  10.225  1.1482 -1.4027  0.7445
   14MOL0     H 1873   2.481   9.996  10.338 -0.9683  2.5248  0.1944
   14MOL0     H 1874   2.200   9.439  10.443 -1.4278  7.2488 -2.6743
   14MOL0     H 1875   2.182   9.356  10.679  0.0592  1.3465  1.6922
   14MOL0     H 1876   3.129  10.282  10.375  0.8160 -2.8886 -0.7424
   14MOL0     H 1877   3.218  10.438  10.505  0.3036 -2.0941 -0.9949
   14MOL0     H 1878   3.499  10.435  10.878 -2.5446 -0.1901  0.1026
   14MOL0     H 1879   3.679  10.557  11.018 -0.1881 -1.8833 -2.4559
   14MOL0     H 1880   3.700  10.848  11.332  1.1496 -2.2386  0.6271
   14MOL0     H 1881   3.539  10.795  11.292 -0.1735  1.8964  2.7079
   14MOL0     H 1882   3.779  10.610  11.307 -1.4416  2.6535 -2.7637
   14MOL0     H 1883   3.606  10.557  11.288 -3.7240  3.0843 -0.9613
   14MOL0     H 1884   3.568  10.657  11.520  0.0382 -0.1984  1.6381
   14MOL0     H 1885   3.734  10.711  11.519  1.7790 -1.2812  1.1045
   14MOL0     H 1886   3.644  10.421  11.503 -3.6047  2.2146 -0.0536
   14MOL0     H 1887   3.634  10.501  11.647 -0.6259 -1.1069 -1.9564
   14MOL0     H 1888   4.060  10.420  11.587  0.0183 -2.5100 -0.3365
   14MOL0     H 1889   3.406  10.892  11.077 -2.0862 -0.9208  2.5149
   14MOL0     H 1890   3.227  10.752  10.940 -0.4595 -0.8820  0.9613
   15MOL0     O 1891   2.709  10.200   1.196 -0.5655 -0.0078  0.1714
   15MOL0     C 1892   2.597  10.163   1.208  0.6261  0.2981 -0.4506
   15MOL0     O 1893   2.543  10.039   1.162 -0.1072 -0.1170  0.2211
   15MOL0     C 1894   2.622   9.924   1.146 -0.6275 -0.4271 -0.3920
   15MOL0     C 1895   2.562   9.804   1.111  0.4474 -0.1151  0.1046
   15MOL0     C 1896   2.633   9.688   1.083 -0.2512  0.7879  0.1797
   15MOL0     C 1897   2.774   9.683   1.123  1.0975  0.1417  0.6502
   15MOL0     O 1898   2.851   9.569   1.113  0.1015  0.8575  0.1738
   15MOL0     C 1899   2.804   9.436   1.146 -0.1787 -1.1386  1.0906
   15MOL0     C 1900   2.903   9.333   1.104  0.2698  1.1886  0.3062
   15MOL0     C 1901   3.017   9.306   1.206 -0.2464 -0.2791  0.1769
   15MOL0     C 1902   2.969   9.228   1.328 -0.0543 -0.4847 -0.2586
   15MOL0     C 1903   3.070   9.129   1.389 -0.0046  0.6774  0.6524
   15MOL0     C 1904   3.013   9.066   1.514 -0.4982  0.0592  0.5597
   15MOL0     C 1905   3.007   9.161   1.636  0.4951 -0.1600  0.7247
   15MOL0     C 1906   3.145   9.209   1.696  0.0867 -0.0638 -0.1248
   15MOL0     N 1907   3.142   9.235   1.842  0.2004  0.2578  0.5262
   15MOL0     C 1908   3.074   9.334   1.905 -0.0698 -0.6200  0.4148
   15MOL0     C 1909   3.127   9.330   2.030  0.0201  0.8796 -0.8953
   15MOL0     C 1910   3.100   9.424   2.135 -0.1828 -0.3130 -0.0772
   15MOL0     C 1911   3.142   9.569   2.083  0.3564 -0.3178  0.5321
   15MOL0     C 1912   3.110   9.667   2.190  0.3919 -0.6998 -0.0132
   15MOL0     C 1913   3.147   9.813   2.147  0.7402  0.9103 -0.2689
   15MOL0     O 1914   3.144   9.882   2.269  1.0473  0.0698 -0.1777
   15MOL0     C 1915   3.254   9.957   2.318 -0.6576  1.6195 -0.2670
   15MOL0     C 1916   3.234  10.013   2.447  0.0344  0.6479  0.4950
   15MOL0     C 1917   3.331  10.086   2.519  0.1365  0.9281 -0.5352
   15MOL0     C 1918   3.306  10.131   2.660  0.2750 -0.6223  0.5262
   15MOL0     C 1919   3.458  10.111   2.454 -0.4865  0.0763 -1.3594
   15MOL0     C 1920   3.570  10.194   2.507 -0.1176  0.4093  0.4869
   15MOL0     O 1921   3.693  10.174   2.456 -0.1943  1.3207 -0.1605
   15MOL0     C 1922   3.794  10.255   2.471  0.7238 -0.5084 -0.5249
   15MOL0     C 1923   3.861  10.262   2.592  0.2959 -0.8462  0.0175
   15MOL0     C 1924   3.968  10.336   2.606 -0.5754 -1.1217 -0.1674
   15MOL0     C 1925   4.022  10.407   2.501 -0.0238 -0.1266 -0.7289
   15MOL0     O 1926   4.144  10.461   2.532 -0.6343  0.4112  0.4296
   15MOL0     C 1927   4.237  10.484   2.424  0.6719 -1.0092 -0.8378
   15MOL0     C 1928   4.378  10.510   2.476  0.0639  0.4277  0.4980
   15MOL0     C 1929   4.450  10.553   2.352 -0.2640  0.7395  0.3557
   15MOL0     C 1930   4.598  10.574   2.355 -0.3498  0.3839 -0.6810
   15MOL0     C 1931   4.661  10.575   2.501  0.9570 -0.0736  0.3017
   15MOL0     C 1932   4.813  10.591   2.506 -0.8128 -0.1030  0.0704
   15MOL0     C 1933   4.876  10.582   2.649 -0.1845 -0.5222 -0.0232
   15MOL0     C 1934   4.918  10.442   2.694  0.6150  0.1648  1.1136
   15MOL0    Cl 1935   5.017  10.338   2.576 -0.0833  0.4369  0.3562
   15MOL0     C 1936   3.964  10.399   2.376  0.4116 -0.4989 -0.5765
   15MOL0     C 1937   3.845  10.311   2.364 -0.1860 -0.3467  0.5943
   15MOL0     O 1938   3.543  10.272   2.598 -0.9398 -0.2631 -0.1899
   15MOL0     C 1939   3.476  10.055   2.321  0.9814 -0.1976 -0.2668
   15MOL0     C 1940   3.374   9.978   2.261  0.0254 -0.5704  0.1340
   15MOL0     N 1941   3.205   9.219   2.047 -1.2356 -0.5040 -0.0517
   15MOL0     N 1942   3.227   9.165   1.928 -0.1071  0.4972 -1.1280
   15MOL0     C 1943   2.837   9.803   1.154  1.0351 -0.1043 -0.6669
   15MOL0     C 1944   2.762   9.919   1.169 -0.3932  0.4757  0.6295
   15MOL0     C 1945   2.498  10.258   1.246 -0.4852  0.1558 -0.7392
   15MOL0     C 1946   2.372  10.261   1.184 -0.5921  0.1609  0.1139
   15MOL0     C 1947   2.285  10.368   1.211 -0.3829  0.8340 -0.2271
   15MOL0     C 1948   2.314  10.464   1.310  0.4251 -0.2561  0.0681
   15MOL0     O 1949   2.222  10.563   1.323 -0.7319  0.5250 -0.5799
   15MOL0     C 1950   2.201  10.616   1.466  0.5059 -0.3092 -0.4586
   15MOL0     C 1951   2.125  10.747   1.454 -0.4928 -0.8571 -0.3760
   15MOL0     C 1952   2.153  10.838   1.573  0.0048 -0.0321  0.2294
   15MOL0     C 1953   2.055  10.960   1.560 -1.1692 -0.7940 -0.1962
   15MOL0     C 1954   2.101  11.061   1.463 -0.4241 -0.0358  0.5768
   15MOL0     C 1955   2.141  11.121   1.360  0.8442 -0.2492 -0.1191
   15MOL0     C 1956   2.434  10.459   1.370  0.4445 -0.4248  0.2975
   15MOL0     C 1957   2.524  10.358   1.341 -0.1185 -1.4580  0.0318
   15MOL0     H 1958   2.455   9.794   1.100  0.3630  1.4770 -0.7434
   15MOL0     H 1959   2.587   9.592   1.061 -0.5045  0.9351  0.0533
   15MOL0     H 1960   2.807   9.420   1.254  1.2547 -2.9342  0.8240
   15MOL0     H 1961   2.708   9.416   1.097  1.0637  1.8325 -3.2066
   15MOL0     H 1962   2.854   9.237   1.087  3.6177 -0.7794  0.7956
   15MOL0     H 1963   2.927   9.376   1.007  0.6817 -0.3432 -0.2976
   15MOL0     H 1964   3.091   9.241   1.160  0.3999 -0.4477  1.4080
   15MOL0     H 1965   3.064   9.402   1.231  0.7353 -0.7148  0.0194
   15MOL0     H 1966   2.954   9.306   1.404  0.4243 -1.9843  1.4389
   15MOL0     H 1967   2.881   9.171   1.298  0.9698  0.0141 -4.9351
   15MOL0     H 1968   3.089   9.059   1.308 -3.0434  1.1129 -0.5640
   15MOL0     H 1969   3.161   9.188   1.407 -2.0649  4.1217  0.6409
   15MOL0     H 1970   2.906   9.047   1.496 -0.3047 -0.9337  0.3948
   15MOL0     H 1971   3.060   8.970   1.533  2.4865  1.3224  0.0160
   15MOL0     H 1972   2.961   9.256   1.607  1.1307  0.7536  2.5645
   15MOL0     H 1973   2.943   9.111   1.709 -0.8271  1.8433  1.0408
   15MOL0     H 1974   3.202   9.283   1.639  2.4070  0.7890  3.0103
   15MOL0     H 1975   3.200   9.116   1.683  3.5768  2.2326 -4.5107
   15MOL0     H 1976   3.006   9.411   1.870  0.5187  1.0937  2.8093
   15MOL0     H 1977   2.997   9.407   2.169 -0.0473 -1.1810 -0.0716
   15MOL0     H 1978   3.155   9.409   2.228  1.0847 -2.4100 -1.1029
   15MOL0     H 1979   3.097   9.598   1.988 -2.8667 -0.0028  2.0339
   15MOL0     H 1980   3.249   9.562   2.059  0.5766  1.7501  0.6981
   15MOL0     H 1981   3.154   9.643   2.287  0.0128 -2.5803 -0.2641
   15MOL0     H 1982   3.002   9.669   2.204  0.4166  0.3127  0.1054
   15MOL0     H 1983   3.068   9.848   2.080  1.2873  1.0330 -0.8615
   15MOL0     H 1984   3.240   9.821   2.090  1.4712 -1.1582  0.5286
   15MOL0     H 1985   3.130  10.008   2.478 -0.6286 -3.2480 -1.7605
   15MOL0     H 1986   3.304  10.240   2.664  0.8678 -0.5150 -1.3522
   15MOL0     H 1987   3.215  10.097   2.709 -1.6959  3.5835  0.2020
   15MOL0     H 1988   3.390  10.111   2.728  1.4566 -2.0041 -1.2622
   15MOL0     H 1989   3.806  10.220   2.676  2.6160 -1.8371  1.1259
   15MOL0     H 1990   4.005  10.337   2.708 -2.2894 -1.5550  0.4924
   15MOL0     H 1991   4.230  10.399   2.357 -3.3802 -0.0408 -1.9076
   15MOL0     H 1992   4.200  10.567   2.362 -1.4259 -1.0293  0.2988
   15MOL0     H 1993   4.382  10.590   2.550 -0.7680  1.8197 -0.9003
   15MOL0     H 1994   4.420  10.418   2.517 -0.1303  1.0618  2.1807
   15MOL0     H 1995   4.399  10.639   2.309 -1.1140  1.0849  1.9729
   15MOL0     H 1996   4.433  10.471   2.282  2.7566  1.6180 -1.6295
   15MOL0     H 1997   4.655  10.510   2.288  0.2261  2.0902 -1.9025
   15MOL0     H 1998   4.615  10.679   2.328 -1.9679  2.0460  3.7460
   15MOL0     H 1999   4.633  10.485   2.556 -3.7681  2.0593  1.8557
   15MOL0     H 2000   4.619  10.655   2.563  1.4955  1.5090 -1.2892
   15MOL0     H 2001   4.858  10.516   2.440  1.4713 -1.2867  2.7836
   15MOL0     H 2002   4.834  10.688   2.461  1.8361 -0.8285 -0.4022
   15MOL0     H 2003   4.808  10.602   2.732  0.0642 -2.1735  0.6139
   15MOL0     H 2004   4.963  10.646   2.667  1.5631 -2.7152 -0.2455
   15MOL0     H 2005   4.826  10.389   2.721  1.4241 -0.8968  1.8708
   15MOL0     H 2006   4.969  10.459   2.790  0.1572  1.3700  1.1684
   15MOL0     H 2007   4.015  10.440   2.289  5.6617 -1.8351  1.4795
   15MOL0     H 2008   3.783  10.302   2.275 -1.0451 -4.5229  1.4135
   15MOL0     H 2009   3.570  10.067   2.269  0.5408  2.6460 -0.6061
   15MOL0     H 2010   3.389   9.943   2.160 -0.6073 -1.6646  0.3939
   15MOL0     H 2011   2.942   9.802   1.184  1.0647  0.3027 -0.7484
   15MOL0     H 2012   2.828  10.002   1.191  0.5256 -0.6609  2.4784
   15MOL0     H 2013   2.351  10.192   1.103 -1.9736 -2.3895  2.4805
   15MOL0     H 2014   2.194  10.386   1.154 -1.9649  0.7753  2.1226
   15MOL0     H 2015   2.140  10.546   1.525 -0.0081 -0.7089 -1.4506
   15MOL0     H 2016   2.300  10.637   1.508  0.7584 -0.4596 -0.9765
   15MOL0     H 2017   2.017  10.728   1.446 -0.6444  0.2750 -1.2588
   15MOL0     H 2018   2.163  10.803   1.368  1.4026 -2.1145 -0.4082
   15MOL0     H 2019   2.256  10.874   1.576 -0.2388  0.6359  2.3421
   15MOL0     H 2020   2.129  10.780   1.663 -1.3420 -0.0120 -0.1031
   15MOL0     H 2021   2.050  10.990   1.665  4.5306 -0.1749  0.1947
   15MOL0     H 2022   1.961  10.918   1.524  0.0896 -2.7030 -1.4891
   15MOL0     H 2023   2.166  11.171   1.268 -0.8404  3.7672  1.3521
   15MOL0     H 2024   2.452  10.525   1.455 -0.8304 -1.4157  1.4007
   15MOL0     H 2025   2.618  10.363   1.395 -0.4515  0.7942  0.4875
   16MOL0     O 2026   3.872   6.161   0.846  0.3877  0.1749 -1.1209
   16MOL0     C 2027   3.960   6.209   0.908 -1.7987 -0.4292 -0.3009
   16MOL0     O 2028   3.956   6.306   1.008 -0.5834  0.0926  0.1211
   16MOL0     C 2029   3.845   6.393   1.011  0.1476  1.4491 -0.3310
   16MOL0     C 2030   3.780   6.422   1.133  0.0179 -0.1919 -0.7426
   16MOL0     C 2031   3.692   6.533   1.147 -0.2308 -0.6666 -0.0727
   16MOL0     C 2032   3.667   6.613   1.028 -0.4031  0.0987  0.7961
   16MOL0     O 2033   3.599   6.733   1.034  0.4784 -1.4916  0.2720
   16MOL0     C 2034   3.668   6.844   0.965 -0.5096  0.8398 -0.5515
   16MOL0     C 2035   3.569   6.891   0.864  0.4765 -0.5619 -0.1619
   16MOL0     C 2036   3.637   7.006   0.775  0.1565 -0.1140 -0.1992
   16MOL0     C 2037   3.711   6.944   0.655 -0.1296 -0.4705 -0.1553
   16MOL0     C 2038   3.844   7.028   0.612 -0.8116  0.2353 -0.5743
   16MOL0     C 2039   3.929   6.966   0.505  0.4612  0.6854  0.2205
   16MOL0     C 2040   3.863   6.994   0.365  0.0125  0.3894 -0.1557
   16MOL0     C 2041   3.943   6.929   0.254 -0.0426 -0.1613 -0.0351
   16MOL0     N 2042   3.894   6.968   0.122  0.5058 -0.0041  0.1143
   16MOL0     C 2043   3.771   6.931   0.065 -0.6641  0.3690  0.3950
   16MOL0     C 2044   3.775   6.979  -0.062 -0.4755  1.1119 -0.5518
   16MOL0     C 2045   3.667   6.944  -0.165 -0.4469  0.3522  0.8650
   16MOL0     C 2046   3.729   6.901  -0.302 -0.0369 -0.5326  0.2460
   16MOL0     C 2047   3.773   7.023  -0.392 -0.4684  0.3357  0.6759
   16MOL0     C 2048   3.825   6.964  -0.526 -0.6314 -0.2411 -0.1857
   16MOL0     O 2049   3.968   6.994  -0.551 -0.1276  0.7483 -0.2630
   16MOL0     C 2050   4.015   7.123  -0.561  0.0006  0.5191 -0.9389
   16MOL0     C 2051   4.145   7.135  -0.610  0.4487  0.8259  0.1724
   16MOL0     C 2052   4.201   7.255  -0.648 -0.0545 -0.0760  0.3662
   16MOL0     C 2053   4.339   7.255  -0.713  1.4893  0.0102 -0.8153
   16MOL0     C 2054   4.133   7.376  -0.623  0.9489 -0.4107 -0.0912
   16MOL0     C 2055   4.174   7.513  -0.647 -1.3132 -0.2797  0.4165
   16MOL0     O 2056   4.246   7.531  -0.759 -0.1018  0.1042  0.0279
   16MOL0     C 2057   4.298   7.654  -0.777 -0.5161 -0.2919  0.2670
   16MOL0     C 2058   4.248   7.730  -0.883 -0.2022  0.0011  0.5132
   16MOL0     C 2059   4.295   7.860  -0.908  0.4987  1.2982 -0.2225
   16MOL0     C 2060   4.405   7.907  -0.837  0.1327 -0.4693  0.4496
   16MOL0     O 2061   4.444   8.030  -0.869 -0.3171 -0.4917  0.0459
   16MOL0     C 2062   4.581   8.064  -0.844 -0.1604 -0.5719 -0.1300
   16MOL0     C 2063   4.601   8.194  -0.922 -0.9299  0.4908  0.0226
   16MOL0     C 2064   4.738   8.267  -0.899  0.0839  0.4569 -1.0431
   16MOL0     C 2065   4.730   8.401  -0.834  0.5105  0.5554  0.3515
   16MOL0     C 2066   4.864   8.472  -0.851  0.1144 -0.1933 -0.5081
   16MOL0     C 2067   4.847   8.611  -0.788  0.1485 -1.5061 -0.2739
   16MOL0     C 2068   4.980   8.686  -0.786 -0.3315 -0.5959 -0.2120
   16MOL0     C 2069   5.025   8.719  -0.646 -0.2665 -0.6832 -0.5327
   16MOL0    Cl 2070   4.904   8.813  -0.564  0.2648  0.6392  0.2369
   16MOL0     C 2071   4.459   7.823  -0.739 -0.1567  0.0439  0.0758
   16MOL0     C 2072   4.409   7.701  -0.709  0.7260  0.2878 -1.0622
   16MOL0     O 2073   4.130   7.600  -0.578  0.2495 -0.4345  0.4107
   16MOL0     C 2074   4.009   7.363  -0.568  0.6657  0.5246 -0.0353
   16MOL0     C 2075   3.945   7.240  -0.530 -0.0471 -0.0718  0.2986
   16MOL0     N 2076   3.897   7.040  -0.087 -0.3554 -0.9402  0.1900
   16MOL0     N 2077   3.962   7.038   0.027  0.0749 -0.1607 -1.0309
   16MOL0     C 2078   3.724   6.580   0.905  0.0823 -0.4025 -0.1380
   16MOL0     C 2079   3.815   6.470   0.895  0.2264 -0.0839  0.2527
   16MOL0     C 2080   4.094   6.132   0.905 -0.6012  0.2661 -0.2491
   16MOL0     C 2081   4.108   6.029   0.809 -0.2740  0.9295  0.2821
   16MOL0     C 2082   4.236   5.966   0.809  1.2758 -0.1199  0.2850
   16MOL0     C 2083   4.327   5.970   0.910  0.0937 -1.2461 -0.8834
   16MOL0     O 2084   4.447   5.902   0.921 -0.1055  0.3815  0.9204
   16MOL0     C 2085   4.478   5.796   0.827 -0.1683  0.0526  0.3999
   16MOL0     C 2086   4.494   5.666   0.912 -0.7172 -0.3623  0.0199
   16MOL0     C 2087   4.362   5.611   0.974 -0.0285  0.5357 -0.3610
   16MOL0     C 2088   4.252   5.559   0.873 -0.3877  0.3961 -0.1779
   16MOL0     C 2089   4.301   5.466   0.770  0.7335  0.0585 -0.7235
   16MOL0     C 2090   4.341   5.380   0.704 -0.2845  0.1972 -0.3896
   16MOL0     C 2091   4.308   6.076   1.011  0.2793  0.1214  0.9135
   16MOL0     C 2092   4.198   6.154   1.000 -0.2570  0.0631  0.2428
   16MOL0     H 2093   3.809   6.357   1.214  1.4333  2.5685  1.1280
   16MOL0     H 2094   3.642   6.572   1.235 -1.3521 -2.1308 -0.0091
   16MOL0     H 2095   3.682   6.933   1.026  1.7334 -0.9082  1.6706
   16MOL0     H 2096   3.759   6.822   0.909 -1.2562 -0.4012 -1.3327
   16MOL0     H 2097   3.543   6.801   0.807  0.8666 -0.1345 -1.0228
   16MOL0     H 2098   3.481   6.945   0.899 -0.0329 -1.2498 -0.3593
   16MOL0     H 2099   3.553   7.063   0.736 -1.5736 -2.4331 -0.0813
   16MOL0     H 2100   3.709   7.070   0.827  1.4079  0.0911 -2.0808
   16MOL0     H 2101   3.737   6.844   0.689  0.7774  0.5165  2.3328
   16MOL0     H 2102   3.641   6.942   0.571 -0.4626  0.3273  0.0892
   16MOL0     H 2103   3.819   7.129   0.581  0.2574  0.4589 -0.7238
   16MOL0     H 2104   3.907   7.026   0.701 -1.5133 -3.1435  0.0228
   16MOL0     H 2105   4.026   7.016   0.502  0.4578  0.6790 -0.0111
   16MOL0     H 2106   3.940   6.857   0.517 -0.3257  0.4445 -1.1057
   16MOL0     H 2107   3.763   6.952   0.355  1.6580 -3.6719 -1.4018
   16MOL0     H 2108   3.864   7.102   0.347 -0.6066  0.5136  0.4927
   16MOL0     H 2109   3.937   6.821   0.272 -2.4225 -0.6891 -3.1456
   16MOL0     H 2110   4.046   6.961   0.268  0.2672 -1.5427  1.0382
   16MOL0     H 2111   3.696   6.874   0.119 -0.3221 -2.0886 -1.5666
   16MOL0     H 2112   3.604   6.859  -0.136  2.9492 -1.0238  5.3809
   16MOL0     H 2113   3.603   7.030  -0.188 -0.7139  0.9454  3.5147
   16MOL0     H 2114   3.660   6.845  -0.366 -1.1249  1.1599 -0.1338
   16MOL0     H 2115   3.808   6.828  -0.287 -1.5935 -2.8298 -1.9876
   16MOL0     H 2116   3.865   7.065  -0.349  0.2010  1.0822 -1.3891
   16MOL0     H 2117   3.704   7.106  -0.406  1.9615  2.4500  0.6415
   16MOL0     H 2118   3.770   7.007  -0.611  0.0432  0.5373 -0.2415
   16MOL0     H 2119   3.820   6.855  -0.525  3.7645 -0.6144 -0.5449
   16MOL0     H 2120   4.219   7.057  -0.620 -0.1947  0.3804 -1.3101
   16MOL0     H 2121   4.394   7.170  -0.671  0.3941 -2.1927 -3.6038
   16MOL0     H 2122   4.321   7.250  -0.820  1.3599  0.8546 -0.8370
   16MOL0     H 2123   4.408   7.338  -0.694  1.6612 -0.3526  0.2320
   16MOL0     H 2124   4.159   7.702  -0.939  0.4384 -1.3954  0.1427
   16MOL0     H 2125   4.237   7.923  -0.974 -0.3812  3.1952  2.1965
   16MOL0     H 2126   4.615   8.098  -0.745  1.0231  2.8381 -1.5582
   16MOL0     H 2127   4.653   7.987  -0.875 -0.2853 -1.6927  2.1257
   16MOL0     H 2128   4.587   8.176  -1.029  3.0652  3.0049 -1.1666
   16MOL0     H 2129   4.525   8.259  -0.879 -1.2770 -1.5815  2.8022
   16MOL0     H 2130   4.784   8.281  -0.997  0.7469  1.1387 -0.6527
   16MOL0     H 2131   4.810   8.199  -0.854  0.2847  1.8420  0.8933
   16MOL0     H 2132   4.650   8.461  -0.878 -1.6915  0.1738  3.5551
   16MOL0     H 2133   4.716   8.386  -0.727  1.6840 -3.4055  0.1285
   16MOL0     H 2134   4.883   8.467  -0.958  1.6166  0.3173 -0.2834
   16MOL0     H 2135   4.942   8.422  -0.793 -0.7330 -1.2574 -0.2448
   16MOL0     H 2136   4.780   8.672  -0.850  1.8565  1.9917  1.0153
   16MOL0     H 2137   4.795   8.599  -0.693 -3.0475  3.7398 -0.9134
   16MOL0     H 2138   4.987   8.780  -0.843  0.7951 -0.1216  0.6798
   16MOL0     H 2139   5.059   8.625  -0.830 -2.7783 -2.2617 -2.6979
   16MOL0     H 2140   5.127   8.758  -0.650  0.2205 -1.9543 -2.7143
   16MOL0     H 2141   5.037   8.621  -0.599 -3.9854 -3.0454 -3.8075
   16MOL0     H 2142   4.525   7.868  -0.666  0.2932  1.1641 -0.9722
   16MOL0     H 2143   4.444   7.635  -0.630 -2.2552  0.9126  0.9324
   16MOL0     H 2144   3.943   7.446  -0.542  0.4560 -0.1037  1.5508
   16MOL0     H 2145   3.843   7.248  -0.493  0.1663  1.2894  0.6278
   16MOL0     H 2146   3.734   6.633   0.811  0.7557 -1.3115 -0.5938
   16MOL0     H 2147   3.867   6.452   0.801 -2.6989 -2.4987 -1.0645
   16MOL0     H 2148   4.052   6.018   0.717 -0.3728 -2.4189  0.5994
   16MOL0     H 2149   4.256   5.902   0.724 -0.6215  3.0558 -2.8697
   16MOL0     H 2150   4.397   5.768   0.759 -0.7051  0.9664  0.6511
   16MOL0     H 2151   4.567   5.809   0.765 -0.4830  1.8061  0.2587
   16MOL0     H 2152   4.555   5.690   0.999 -0.2932 -1.0549 -0.0715
   16MOL0     H 2153   4.544   5.591   0.849  0.8066  1.4874 -1.0857
   16MOL0     H 2154   4.309   5.686   1.034 -0.4060 -1.3499  1.8127
   16MOL0     H 2155   4.396   5.532   1.042  0.9251 -1.6853 -3.2010
   16MOL0     H 2156   4.207   5.647   0.826 -2.2988  0.1497  1.0550
   16MOL0     H 2157   4.170   5.518   0.933 -0.3462  1.9322  0.9910
   16MOL0     H 2158   4.371   5.309   0.630  1.2746  3.4236 -3.1023
   16MOL0     H 2159   4.380   6.094   1.090  0.8166  0.1673  0.4155
   16MOL0     H 2160   4.185   6.234   1.071  0.4763  3.5608 -3.2139
   17MOL0     O 2161   6.301   2.163   3.601 -0.4453  0.0499 -1.0885
   17MOL0     C 2162   6.264   2.098   3.506  0.2002  0.1909  0.2485
   17MOL0     O 2163   6.333   2.005   3.434 -0.3562  0.4020  0.9134
   17MOL0     C 2164   6.461   2.000   3.477  0.4879 -0.8577 -0.2134
   17MOL0     C 2165   6.559   2.080   3.424  0.5347 -0.1038  1.5201
   17MOL0     C 2166   6.689   2.069   3.459 -0.1980 -0.2259 -0.1649
   17MOL0     C 2167   6.728   1.984   3.565  0.1454  0.5372  0.5879
   17MOL0     O 2168   6.862   1.975   3.599  0.6769 -0.2640  0.0506
   17MOL0     C 2169   6.932   2.098   3.612 -0.3474  0.1310  0.0022
   17MOL0     C 2170   7.037   2.064   3.711 -0.5907  0.3033 -0.5828
   17MOL0     C 2171   7.135   2.176   3.737  0.3105 -0.8504 -0.1978
   17MOL0     C 2172   7.260   2.124   3.816 -0.3099  0.1706 -0.0980
   17MOL0     C 2173   7.330   2.232   3.884  0.8571  0.1345 -0.2561
   17MOL0     C 2174   7.438   2.184   3.976  0.1372  0.7094 -0.4585
   17MOL0     C 2175   7.495   2.298   4.062 -0.6545  0.0221 -0.4957
   17MOL0     C 2176   7.583   2.232   4.170  0.4093 -0.1849 -0.3459
   17MOL0     N 2177   7.679   2.129   4.121  0.1524  0.0861 -0.0378
   17MOL0     C 2178   7.688   1.994   4.145 -0.1210 -0.3093  0.8480
   17MOL0     C 2179   7.790   1.961   4.066  0.0811 -0.2201 -0.4002
   17MOL0     C 2180   7.841   1.822   4.061 -0.0580 -0.0500  1.3659
   17MOL0     C 2181   7.874   1.777   3.915  1.1124  0.5247  0.5853
   17MOL0     C 2182   7.754   1.736   3.833  0.7193  0.4465 -0.8990
   17MOL0     C 2183   7.771   1.712   3.686 -0.1505 -0.3571 -0.4906
   17MOL0     O 2184   7.846   1.592   3.655  0.2668 -0.6467 -0.3265
   17MOL0     C 2185   7.780   1.486   3.596  0.5247  1.5086  0.2675
   17MOL0     C 2186   7.846   1.396   3.507  0.0658  0.1565 -0.0242
   17MOL0     C 2187   7.778   1.277   3.457  0.1529 -0.2341 -0.0216
   17MOL0     C 2188   7.852   1.191   3.367  0.6436  0.0753  0.1427
   17MOL0     C 2189   7.643   1.260   3.487 -1.0670  0.1617 -0.3697
   17MOL0     C 2190   7.566   1.138   3.444  0.3298 -0.0617 -0.8640
   17MOL0     O 2191   7.579   1.028   3.526  0.4814  0.3587  0.5198
   17MOL0     C 2192   7.488   0.921   3.519 -0.2060  0.0540 -1.3464
   17MOL0     C 2193   7.397   0.907   3.620 -0.4007  0.2024 -0.4123
   17MOL0     C 2194   7.311   0.794   3.627 -0.1266  0.1596  0.4835
   17MOL0     C 2195   7.325   0.695   3.532  0.3896  0.5973  0.3501
   17MOL0     O 2196   7.226   0.608   3.548  0.4226  0.2668 -0.1869
   17MOL0     C 2197   7.174   0.535   3.439 -0.0052 -0.7410 -0.0203
   17MOL0     C 2198   7.080   0.431   3.505  0.4410  0.9810 -0.3604
   17MOL0     C 2199   7.161   0.314   3.549 -0.0237 -0.6277 -0.3976
   17MOL0     C 2200   7.078   0.191   3.550  0.7085 -0.2157  0.2868
   17MOL0     C 2201   7.153   0.070   3.598  0.0269 -0.0841  0.1895
   17MOL0     C 2202   7.066  -0.056   3.590  0.3838  0.0067 -0.0399
   17MOL0     C 2203   7.124  -0.166   3.675  0.9734  0.6700  0.1404
   17MOL0     C 2204   7.122  -0.127   3.825 -0.5731 -0.1968 -1.2326
   17MOL0    Cl 2205   6.974  -0.161   3.912 -0.0172 -0.2739  0.1557
   17MOL0     C 2206   7.416   0.704   3.431  0.3823  0.0727 -0.5109
   17MOL0     C 2207   7.504   0.818   3.431 -0.0017 -0.0994  0.8719
   17MOL0     O 2208   7.483   1.148   3.349  0.9494  0.1269  0.0879
   17MOL0     C 2209   7.582   1.340   3.576  0.3368  0.6698  0.1361
   17MOL0     C 2210   7.652   1.450   3.628 -0.0941 -0.2918 -0.3358
   17MOL0     N 2211   7.841   2.080   4.007 -0.5704  0.3537  0.4585
   17MOL0     N 2212   7.767   2.176   4.025 -0.1963  0.1499 -0.1780
   17MOL0     C 2213   6.628   1.895   3.619  0.8165 -0.0283 -0.1414
   17MOL0     C 2214   6.489   1.913   3.585 -0.3322  0.5126  0.5382
   17MOL0     C 2215   6.118   2.112   3.481  0.7197  0.1701  0.7198
   17MOL0     C 2216   6.069   2.118   3.350  0.5921 -0.0071 -0.4209
   17MOL0     C 2217   5.930   2.126   3.334  1.0369  0.2413 -1.0512
   17MOL0     C 2218   5.833   2.139   3.444 -0.1461 -0.4854 -0.2769
   17MOL0     O 2219   5.699   2.136   3.416  0.0176  0.0024  0.1739
   17MOL0     C 2220   5.611   2.111   3.526  0.4779 -0.6184  0.6527
   17MOL0     C 2221   5.474   2.056   3.474  1.0654  0.0150 -0.1896
   17MOL0     C 2222   5.404   2.164   3.388 -0.6568  0.3463 -0.4814
   17MOL0     C 2223   5.278   2.098   3.343 -0.4631  0.0215 -0.8242
   17MOL0     C 2224   5.217   2.155   3.214 -0.5424 -0.4337  0.0949
   17MOL0     C 2225   5.160   2.199   3.118  0.2288  0.0015  0.0818
   17MOL0     C 2226   5.889   2.151   3.565  0.2861 -0.9738  0.6184
   17MOL0     C 2227   6.032   2.138   3.585 -0.5867 -0.2959  0.3426
   17MOL0     H 2228   6.522   2.138   3.340  1.5617 -1.4150  0.0963
   17MOL0     H 2229   6.758   2.137   3.411  3.2503 -2.7739  0.8139
   17MOL0     H 2230   6.958   2.129   3.511 -1.3822 -2.5009 -1.1821
   17MOL0     H 2231   6.859   2.169   3.651 -1.0467  2.0631 -4.2749
   17MOL0     H 2232   6.994   2.021   3.802  0.7690  1.3750  0.6034
   17MOL0     H 2233   7.106   1.990   3.669  2.3046  2.0931  0.7765
   17MOL0     H 2234   7.170   2.207   3.638  3.2692 -2.4021  0.2443
   17MOL0     H 2235   7.096   2.265   3.787  2.4151  0.0951 -0.1583
   17MOL0     H 2236   7.235   2.066   3.905  0.6306  2.6565  1.8945
   17MOL0     H 2237   7.323   2.060   3.752 -2.0705  0.6606 -2.4332
   17MOL0     H 2238   7.364   2.300   3.806 -0.0034  1.2257  0.2928
   17MOL0     H 2239   7.256   2.294   3.936 -0.2360  0.3263 -1.9663
   17MOL0     H 2240   7.396   2.107   4.041  2.2241 -0.2455 -0.1916
   17MOL0     H 2241   7.514   2.141   3.910 -3.3048 -1.9301 -3.1054
   17MOL0     H 2242   7.556   2.367   4.003 -0.8043  2.2335  1.7433
   17MOL0     H 2243   7.418   2.356   4.114  0.3960  0.6720  0.3676
   17MOL0     H 2244   7.512   2.181   4.235 -1.4292  1.7254 -0.7667
   17MOL0     H 2245   7.634   2.310   4.228 -1.0476  1.7500 -1.5404
   17MOL0     H 2246   7.629   1.932   4.212 -2.8651 -0.9667 -1.9400
   17MOL0     H 2247   7.934   1.802   4.115 -0.0994 -2.0528  0.7719
   17MOL0     H 2248   7.768   1.766   4.118  2.3942 -3.0616  1.8432
   17MOL0     H 2249   7.941   1.690   3.911  1.1346  0.5776 -0.7115
   17MOL0     H 2250   7.934   1.848   3.857  1.9627 -0.8214 -0.2388
   17MOL0     H 2251   7.678   1.815   3.836  0.2759  0.0654  2.5949
   17MOL0     H 2252   7.711   1.646   3.877 -0.0212  0.8228 -0.8400
   17MOL0     H 2253   7.822   1.801   3.648  2.3073 -0.8583  1.3912
   17MOL0     H 2254   7.674   1.715   3.636  1.1108  1.5419 -3.0610
   17MOL0     H 2255   7.947   1.433   3.494 -0.5132  1.5016 -0.9456
   17MOL0     H 2256   7.888   1.250   3.283  1.1086 -1.3357 -0.6799
   17MOL0     H 2257   7.928   1.133   3.421  0.4178 -0.4372 -0.0822
   17MOL0     H 2258   7.783   1.119   3.322  1.9454  0.1334 -2.0690
   17MOL0     H 2259   7.398   0.983   3.698  0.1461 -1.0752  0.8745
   17MOL0     H 2260   7.232   0.797   3.701 -0.5838 -0.9653  0.0767
   17MOL0     H 2261   7.118   0.596   3.367 -0.2085  0.0425  0.7927
   17MOL0     H 2262   7.255   0.492   3.379 -0.7379 -0.3388 -1.3449
   17MOL0     H 2263   7.019   0.481   3.582  1.8010  0.8530  0.8308
   17MOL0     H 2264   7.007   0.404   3.428  1.3645 -0.8760 -0.6319
   17MOL0     H 2265   7.207   0.326   3.648 -1.7413 -3.1762  0.8083
   17MOL0     H 2266   7.249   0.299   3.485  1.1743 -2.1737  1.4855
   17MOL0     H 2267   7.003   0.210   3.627  1.2850 -1.1566  1.1044
   17MOL0     H 2268   7.037   0.166   3.452  2.0840  2.1285 -0.9689
   17MOL0     H 2269   7.210   0.100   3.686  2.4281 -0.2040 -1.2447
   17MOL0     H 2270   7.242   0.042   3.541  0.2656  1.1091 -0.0676
   17MOL0     H 2271   6.962  -0.042   3.621  0.6427  0.1873  0.7777
   17MOL0     H 2272   7.065  -0.091   3.487 -0.3798  0.0513 -0.0531
   17MOL0     H 2273   7.230  -0.169   3.648  0.9371 -1.1625  0.0798
   17MOL0     H 2274   7.078  -0.265   3.668 -0.4579  1.1864  1.5804
   17MOL0     H 2275   7.163  -0.028   3.845 -0.3479 -0.0250 -2.4352
   17MOL0     H 2276   7.198  -0.189   3.873  0.1694  1.6080  0.0279
   17MOL0     H 2277   7.418   0.636   3.347  1.5485  0.7247 -1.0378
   17MOL0     H 2278   7.586   0.831   3.361  0.1821  2.6093  1.4686
   17MOL0     H 2279   7.477   1.325   3.601  0.1593  1.1058 -0.3285
   17MOL0     H 2280   7.601   1.497   3.712  1.9355 -1.1496  1.4682
   17MOL0     H 2281   6.637   1.837   3.710 -1.3953 -0.0263  0.1349
   17MOL0     H 2282   6.424   1.845   3.640  0.1002  0.4515  0.9835
   17MOL0     H 2283   6.119   2.100   3.255  0.5874  3.9083 -1.3441
   17MOL0     H 2284   5.883   2.122   3.236  1.0069 -3.7762 -1.0186
   17MOL0     H 2285   5.659   2.038   3.592 -0.6142 -1.2680  0.7632
   17MOL0     H 2286   5.604   2.203   3.585 -1.6095 -0.8106  0.7813
   17MOL0     H 2287   5.404   2.040   3.557  0.3263  1.1755 -0.5721
   17MOL0     H 2288   5.491   1.961   3.422 -1.7166 -0.3246 -0.6121
   17MOL0     H 2289   5.461   2.188   3.298 -0.6253 -1.7152 -1.0696
   17MOL0     H 2290   5.389   2.256   3.446 -0.6713  1.6615 -2.4949
   17MOL0     H 2291   5.204   2.098   3.423  1.4508  0.7393  1.0683
   17MOL0     H 2292   5.297   1.993   3.318 -1.2813  0.2024 -2.3053
   17MOL0     H 2293   5.110   2.243   3.034  0.1947 -3.2268 -1.7942
   17MOL0     H 2294   5.823   2.170   3.648  1.7301  0.5807  1.4579
   17MOL0     H 2295   6.065   2.148   3.688 -1.2756  2.9561  0.3636
   18MOL0     O 2296   1.482   9.811   1.011 -0.3124  0.0767  0.6295
   18MOL0     C 2297   1.488   9.771   0.893 -0.1020  0.5809  0.1920
   18MOL0     O 2298   1.483   9.638   0.859 -0.2623  0.6615 -0.5358
   18MOL0     C 2299   1.485   9.537   0.960  0.4398 -0.2594  0.1488
   18MOL0     C 2300   1.397   9.532   1.070 -0.6843 -0.3987  0.3897
   18MOL0     C 2301   1.406   9.427   1.163  0.2765 -0.0247 -0.4364
   18MOL0     C 2302   1.495   9.314   1.152  0.3122 -1.3523  0.2620
   18MOL0     O 2303   1.494   9.217   1.238  0.0699 -0.2868 -0.3571
   18MOL0     C 2304   1.624   9.174   1.281 -1.5749 -0.7223 -0.0275
   18MOL0     C 2305   1.636   9.181   1.435 -1.2964  0.1891  0.4652
   18MOL0     C 2306   1.773   9.129   1.478  0.1369 -0.5599 -0.1867
   18MOL0     C 2307   1.886   9.240   1.464  0.0553  1.8546  0.5522
   18MOL0     C 2308   1.992   9.196   1.364  0.8313  0.7993  0.1527
   18MOL0     C 2309   2.107   9.303   1.355 -0.0152 -0.6475 -0.1924
   18MOL0     C 2310   2.216   9.272   1.256 -0.4001 -0.0086 -0.2201
   18MOL0     C 2311   2.272   9.391   1.174 -0.0614  0.1255 -0.1535
   18MOL0     N 2312   2.317   9.499   1.266 -0.1355 -0.5502 -1.5868
   18MOL0     C 2313   2.264   9.621   1.299 -0.6063  0.4741  0.4387
   18MOL0     C 2314   2.362   9.692   1.355 -1.2380  0.0181 -0.4955
   18MOL0     C 2315   2.358   9.831   1.413 -0.4200  0.6806 -0.3898
   18MOL0     C 2316   2.234   9.890   1.472 -0.0497  0.9462  0.4272
   18MOL0     C 2317   2.255  10.031   1.527  0.7031  0.7521  0.8296
   18MOL0     C 2318   2.404  10.075   1.552  0.5210 -0.2467  0.5611
   18MOL0     O 2319   2.478  10.016   1.657  0.0961 -0.1814  0.5371
   18MOL0     C 2320   2.611  10.028   1.668  0.6434  0.2507 -0.5769
   18MOL0     C 2321   2.701  10.095   1.587 -0.0499  0.3059  0.5868
   18MOL0     C 2322   2.841  10.107   1.608 -0.5660  0.4220  0.9165
   18MOL0     C 2323   2.934  10.170   1.513  0.1391  0.8812  0.6948
   18MOL0     C 2324   2.898  10.045   1.723  0.2800 -0.2416 -0.3281
   18MOL0     C 2325   3.042  10.052   1.777  0.3320  0.5122  0.8951
   18MOL0     O 2326   3.076  10.166   1.837 -0.5782  0.4313  0.0524
   18MOL0     C 2327   3.186  10.171   1.911 -0.3612  0.3269  0.2215
   18MOL0     C 2328   3.175  10.203   2.046  0.0175 -1.2239 -0.1860
   18MOL0     C 2329   3.286  10.254   2.104  0.7831 -0.0990  0.4067
   18MOL0     C 2330   3.413  10.268   2.048  0.9857  0.7792 -0.0020
   18MOL0     O 2331   3.519  10.337   2.113  0.0992  0.5558  0.1702
   18MOL0     C 2332   3.494  10.471   2.154  0.9899 -0.7769 -0.0388
   18MOL0     C 2333   3.587  10.525   2.262 -1.1255 -0.5000  0.1386
   18MOL0     C 2334   3.595  10.677   2.244  0.3859  0.6406  0.3136
   18MOL0     C 2335   3.677  10.749   2.345 -0.4604 -0.3698  0.3592
   18MOL0     C 2336   3.821  10.776   2.287  0.0239  0.0076 -0.8665
   18MOL0     C 2337   3.921  10.785   2.403 -0.8279  0.5421 -0.8864
   18MOL0     C 2338   3.895  10.877   2.527 -0.2681  0.9393  0.0394
   18MOL0     C 2339   3.857  11.023   2.511 -0.0636  1.0893  1.4520
   18MOL0    Cl 2340   3.986  11.109   2.409 -0.4195 -0.0832  0.1773
   18MOL0     C 2341   3.424  10.228   1.910 -0.3402 -1.0951 -0.5745
   18MOL0     C 2342   3.314  10.177   1.843 -0.5184 -0.1124  0.6929
   18MOL0     O 2343   3.123   9.958   1.762 -0.3053  0.5187 -0.0656
   18MOL0     C 2344   2.807   9.976   1.801  0.2271  1.0720 -0.1378
   18MOL0     C 2345   2.665   9.961   1.777 -0.1122 -0.3348  0.7000
   18MOL0     N 2346   2.474   9.601   1.371  0.1626 -1.7908 -0.4227
   18MOL0     N 2347   2.435   9.482   1.336  0.6269 -0.6268  0.0190
   18MOL0     C 2348   1.587   9.333   1.055  0.2244 -0.8678 -0.1817
   18MOL0     C 2349   1.585   9.440   0.967  0.3170  0.3489 -1.2498
   18MOL0     C 2350   1.479   9.863   0.789  0.6682 -0.2493  0.4663
   18MOL0     C 2351   1.472  10.002   0.823  1.1020  0.3802 -0.0533
   18MOL0     C 2352   1.486  10.101   0.724  0.8444 -0.3153  0.0291
   18MOL0     C 2353   1.488  10.059   0.589  0.7351 -0.7416 -0.2621
   18MOL0     O 2354   1.490  10.144   0.481  0.7837  0.0518  0.4775
   18MOL0     C 2355   1.625  10.173   0.441 -0.5106 -0.2940 -0.2544
   18MOL0     C 2356   1.717  10.241   0.546  0.1195  0.3372 -0.1389
   18MOL0     C 2357   1.662  10.383   0.594 -0.2665  0.3070 -0.0537
   18MOL0     C 2358   1.709  10.421   0.737  0.4668 -0.1620  0.1329
   18MOL0     C 2359   1.858  10.442   0.730  0.2301  0.6434 -0.1365
   18MOL0     C 2360   1.979  10.438   0.734 -0.5607 -0.4802 -0.1925
   18MOL0     C 2361   1.477   9.926   0.553  0.1464  1.0643 -0.3446
   18MOL0     C 2362   1.480   9.826   0.653  0.1534  0.0609 -0.2375
   18MOL0     H 2363   1.316   9.604   1.068 -1.3129 -1.0902 -1.2336
   18MOL0     H 2364   1.331   9.420   1.242 -0.5929 -1.2154 -1.3208
   18MOL0     H 2365   1.654   9.077   1.240  2.6440  0.6451 -0.6448
   18MOL0     H 2366   1.697   9.249   1.249 -0.5231 -2.2336 -1.3340
   18MOL0     H 2367   1.617   9.285   1.463 -0.1559  0.0299  1.9652
   18MOL0     H 2368   1.562   9.109   1.471 -2.1871 -1.7157 -4.3175
   18MOL0     H 2369   1.771   9.114   1.587  3.0040  0.6161  0.1360
   18MOL0     H 2370   1.802   9.037   1.427 -2.6198 -2.3719  1.2908
   18MOL0     H 2371   1.843   9.338   1.441 -1.1775  0.9359 -1.2759
   18MOL0     H 2372   1.941   9.235   1.559  3.1178  0.1616 -1.1662
   18MOL0     H 2373   2.050   9.114   1.408  2.6542  3.1436  2.4751
   18MOL0     H 2374   1.948   9.165   1.269 -0.5585 -2.6538  1.7747
   18MOL0     H 2375   2.081   9.403   1.319  0.0672  1.2096  4.3112
   18MOL0     H 2376   2.142   9.323   1.456  2.5289  1.9257 -1.4490
   18MOL0     H 2377   2.301   9.223   1.307  1.0831  2.9603  0.3902
   18MOL0     H 2378   2.179   9.199   1.184 -0.0288 -1.7114  1.2493
   18MOL0     H 2379   2.193   9.420   1.104 -0.6354  0.3869  0.5854
   18MOL0     H 2380   2.354   9.353   1.113  1.6700  2.4001  0.5963
   18MOL0     H 2381   2.167   9.656   1.266 -0.8075 -1.1973 -0.8432
   18MOL0     H 2382   2.424   9.818   1.500 -1.4875  0.8887  0.4687
   18MOL0     H 2383   2.399   9.906   1.344 -1.9278  2.1341  0.2280
   18MOL0     H 2384   2.194   9.824   1.550  2.4704 -2.1190 -0.6614
   18MOL0     H 2385   2.163   9.883   1.389  0.3826 -0.1455  0.1287
   18MOL0     H 2386   2.208  10.027   1.626  1.1934  0.7407  1.0656
   18MOL0     H 2387   2.208  10.104   1.460 -1.3271 -0.3922  0.8996
   18MOL0     H 2388   2.399  10.181   1.581 -1.4266 -1.0754  3.8368
   18MOL0     H 2389   2.460  10.070   1.458  1.3129  0.6304  0.9668
   18MOL0     H 2390   2.669  10.141   1.494  0.0987  0.9142  0.8333
   18MOL0     H 2391   2.975  10.248   1.577 -0.8502 -0.3180  2.9112
   18MOL0     H 2392   3.012  10.106   1.472  2.3748  2.7643  1.7646
   18MOL0     H 2393   2.880  10.219   1.431  0.4879 -1.1020 -0.7955
   18MOL0     H 2394   3.077  10.186   2.090 -0.6108  1.3797 -0.4296
   18MOL0     H 2395   3.302  10.284   2.207  5.4046  2.7824 -0.8241
   18MOL0     H 2396   3.506  10.532   2.064 -1.5418  0.3573  0.3255
   18MOL0     H 2397   3.393  10.486   2.194  1.3836 -1.5420  1.3432
   18MOL0     H 2398   3.548  10.504   2.362  1.8651 -2.2294  1.0933
   18MOL0     H 2399   3.688  10.485   2.250 -0.9988 -0.1217 -0.0709
   18MOL0     H 2400   3.497  10.722   2.264  1.3663  3.8687 -1.4828
   18MOL0     H 2401   3.616  10.701   2.140 -1.1033 -0.3908 -0.2687
   18MOL0     H 2402   3.630  10.846   2.362  1.1583  0.7432 -1.1353
   18MOL0     H 2403   3.686  10.685   2.433 -2.2081  1.1315  1.7057
   18MOL0     H 2404   3.820  10.869   2.229 -0.7510  0.4355 -0.1831
   18MOL0     H 2405   3.848  10.691   2.223  2.7220 -1.7787  2.3493
   18MOL0     H 2406   3.938  10.681   2.433  1.0155  1.9302  3.9661
   18MOL0     H 2407   4.016  10.816   2.358 -0.6939  0.2661 -0.7962
   18MOL0     H 2408   3.984  10.868   2.591  1.0304 -1.4072 -1.9343
   18MOL0     H 2409   3.821  10.831   2.593  0.2512  0.0364  0.0080
   18MOL0     H 2410   3.835  11.081   2.602 -4.3132  2.5972 -0.2860
   18MOL0     H 2411   3.761  11.019   2.458  0.7426 -1.7860  0.0298
   18MOL0     H 2412   3.524  10.241   1.870 -0.1789 -2.6513 -0.7604
   18MOL0     H 2413   3.313  10.151   1.738 -1.1760  0.0745  0.6498
   18MOL0     H 2414   2.847   9.921   1.886 -0.7590 -1.8338 -1.4214
   18MOL0     H 2415   2.594   9.908   1.840 -1.5347  0.0889 -0.5051
   18MOL0     H 2416   1.672   9.267   1.040  1.8327  1.3397 -1.3655
   18MOL0     H 2417   1.667   9.441   0.896  1.6373  0.9481  0.2202
   18MOL0     H 2418   1.473  10.035   0.926  0.9539 -1.6874  0.6538
   18MOL0     H 2419   1.502  10.206   0.749  1.1604 -0.0417 -1.2670
   18MOL0     H 2420   1.680  10.086   0.405 -0.3633 -0.4190  0.2735
   18MOL0     H 2421   1.622  10.232   0.349 -0.5185 -0.3138 -0.2669
   18MOL0     H 2422   1.818  10.246   0.505 -0.1100 -0.6933 -0.8914
   18MOL0     H 2423   1.735  10.175   0.632 -0.7067 -0.8029 -0.8100
   18MOL0     H 2424   1.554  10.382   0.612 -0.1588  2.3195  1.1014
   18MOL0     H 2425   1.698  10.461   0.526 -1.6364  0.5659 -0.5107
   18MOL0     H 2426   1.687  10.346   0.813 -1.7640 -0.7015 -0.9655
   18MOL0     H 2427   1.661  10.514   0.767  1.2931  0.6611 -0.9905
   18MOL0     H 2428   2.085  10.419   0.736 -0.8550 -2.5448 -1.2111
   18MOL0     H 2429   1.473   9.885   0.453  0.0252 -2.8318  1.0497
   18MOL0     H 2430   1.467   9.723   0.622  1.9622 -1.6714  3.9568
   19MOL0     O 2431   1.768   9.441  10.423  0.3313 -0.0195 -0.1242
   19MOL0     C 2432   1.659   9.484  10.382  0.4167 -0.0112 -0.0082
   19MOL0     O 2433   1.543   9.400  10.383  0.6513  0.0776 -0.5591
   19MOL0     C 2434   1.553   9.274  10.433  0.0214 -0.2687  0.4653
   19MOL0     C 2435   1.506   9.239  10.561  0.6154  0.4429  0.1896
   19MOL0     C 2436   1.490   9.112  10.599  0.3933  1.1545  0.1634
   19MOL0     C 2437   1.534   9.001  10.528  0.5409  0.2979 -0.2373
   19MOL0     O 2438   1.528   8.877  10.590  0.0101 -0.1300  0.0631
   19MOL0     C 2439   1.572   8.767  10.516  0.2119  0.5886 -0.2556
   19MOL0     C 2440   1.472   8.708  10.415  0.9944  0.3995 -0.3956
   19MOL0     C 2441   1.345   8.658  10.472 -0.0098 -0.2776  0.2397
   19MOL0     C 2442   1.290   8.550  10.384  0.6954 -0.2597 -0.0629
   19MOL0     C 2443   1.153   8.510  10.443 -0.7535  0.0735  0.3989
   19MOL0     C 2444   1.099   8.388  10.376 -0.2978  1.1851  0.1610
   19MOL0     C 2445   1.077   8.408  10.228 -1.6035 -0.7320  0.2618
   19MOL0     C 2446   1.031   8.279  10.175  0.1256  0.6769 -0.6297
   19MOL0     N 2447   0.903   8.243  10.229  0.4981  0.3080 -0.3356
   19MOL0     C 2448   0.785   8.328  10.232 -0.6100 -0.2278  0.4951
   19MOL0     C 2449   0.699   8.264  10.310 -0.0685 -0.7946  0.4646
   19MOL0     C 2450   0.561   8.314  10.341  0.4048  0.2424 -0.8981
   19MOL0     C 2451   0.459   8.363  10.238  0.4580 -0.6415  0.6036
   19MOL0     C 2452   0.464   8.276  10.116 -0.8621  0.1965 -0.2327
   19MOL0     C 2453   0.344   8.274  10.027 -0.2527  0.1094  0.9618
   19MOL0     O 2454   0.386   8.237   9.892 -0.5386 -1.1687 -0.1855
   19MOL0     C 2455   0.330   8.303   9.786  0.3643 -0.5490  0.7036
   19MOL0     C 2456   0.395   8.315   9.664  1.2545  0.0940  0.2023
   19MOL0     C 2457   0.349   8.398   9.564  0.2643  0.4986 -0.0820
   19MOL0     C 2458   0.450   8.445   9.459  0.9261 -0.4374  0.0198
   19MOL0     C 2459   0.215   8.448   9.565 -0.2550 -0.0006  0.1823
   19MOL0     C 2460   0.150   8.526   9.456  0.1932  0.0258  0.5176
   19MOL0     O 2461   0.167   8.467   9.334 -0.6172  0.8621  0.2426
   19MOL0     C 2462   0.169   8.548   9.214  0.3317  0.0801 -1.9431
   19MOL0     C 2463   0.128   8.488   9.090  0.1635  0.5475  0.3984
   19MOL0     C 2464   0.156   8.563   8.969 -0.2202  0.0035 -0.4171
   19MOL0     C 2465   0.225   8.688   8.969  0.8656 -0.4496  0.3344
   19MOL0     O 2466   0.242   8.767   8.857  0.3316 -0.3203  0.8942
   19MOL0     C 2467   0.211   8.710   8.724 -0.7228  0.0881  0.1206
   19MOL0     C 2468   0.212   8.828   8.626 -1.2486 -0.1401 -0.4649
   19MOL0     C 2469   0.352   8.889   8.626 -0.3411 -0.5247 -0.3014
   19MOL0     C 2470   0.464   8.790   8.578  0.0073 -0.0233 -0.1409
   19MOL0     C 2471   0.577   8.876   8.535  0.6828 -0.1945 -0.3352
   19MOL0     C 2472   0.703   8.790   8.530  0.3067  0.2119  1.3016
   19MOL0     C 2473   0.828   8.855   8.466  0.6427 -0.5035  0.5919
   19MOL0     C 2474   0.904   8.950   8.564 -0.7645 -0.3995  0.5639
   19MOL0    Cl 2475   0.840   9.125   8.558  0.4090 -0.0848 -0.0345
   19MOL0     C 2476   0.264   8.739   9.095 -1.3725  0.7137 -0.5910
   19MOL0     C 2477   0.220   8.682   9.215  0.2478 -0.0584  0.0531
   19MOL0     O 2478   0.084   8.625   9.482  0.1009  0.8905 -0.2646
   19MOL0     C 2479   0.144   8.422   9.672  0.6843 -0.1480  0.1548
   19MOL0     C 2480   0.199   8.357   9.779  0.0808 -0.2623  0.1771
   19MOL0     N 2481   0.761   8.149  10.357  0.1912 -0.8450  0.8313
   19MOL0     N 2482   0.881   8.136  10.307 -0.0984  0.2498 -0.1341
   19MOL0     C 2483   1.598   9.030  10.408 -0.5911  0.7009 -0.7813
   19MOL0     C 2484   1.601   9.167  10.358  0.8647  1.0986 -1.0476
   19MOL0     C 2485   1.639   9.630  10.353  0.3465 -0.7239  0.5512
   19MOL0     C 2486   1.506   9.686  10.352 -0.3156 -0.0151 -1.2016
   19MOL0     C 2487   1.486   9.823  10.342 -0.0130  0.1787  0.5957
   19MOL0     C 2488   1.595   9.913  10.332  0.8596  0.0218  0.0469
   19MOL0     O 2489   1.563  10.043  10.302  0.4426  0.8888 -0.0343
   19MOL0     C 2490   1.593  10.128  10.409  0.1340 -0.1342 -1.2075
   19MOL0     C 2491   1.655  10.267  10.361  0.1828  0.9871 -0.3486
   19MOL0     C 2492   1.563  10.327  10.253  0.6823  0.1369  0.6193
   19MOL0     C 2493   1.621  10.431  10.159 -0.2060  0.0157  0.5761
   19MOL0     C 2494   1.624  10.556  10.229  0.5748 -0.0297 -0.5742
   19MOL0     C 2495   1.619  10.669  10.278  0.6466  0.3852  0.1058
   19MOL0     C 2496   1.724   9.860  10.328  0.1525  0.1907  0.4319
   19MOL0     C 2497   1.747   9.720  10.342 -0.0512  0.0791  0.0624
   19MOL0     H 2498   1.473   9.318  10.628 -0.3447  3.0752 -3.1265
   19MOL0     H 2499   1.450   9.093  10.698 -0.9728  2.0883 -0.1834
   19MOL0     H 2500   1.671   8.774  10.470 -1.3074 -1.0383 -4.1918
   19MOL0     H 2501   1.586   8.688  10.591 -0.2590  0.7339 -0.0096
   19MOL0     H 2502   1.446   8.780  10.337  2.9031  1.1399 -0.4029
   19MOL0     H 2503   1.526   8.626  10.366  1.9532  1.8966 -1.9312
   19MOL0     H 2504   1.358   8.612  10.570  4.1231  0.5842  0.2601
   19MOL0     H 2505   1.268   8.736  10.481 -1.6928 -1.6878 -1.1266
   19MOL0     H 2506   1.275   8.583  10.281 -2.4454 -1.1216  0.0050
   19MOL0     H 2507   1.350   8.460  10.399  0.3712 -0.2018  1.7581
   19MOL0     H 2508   1.152   8.502  10.552 -1.6209 -0.1976  0.3824
   19MOL0     H 2509   1.074   8.584  10.424 -0.3124  0.6214  0.6900
   19MOL0     H 2510   1.163   8.304  10.404 -1.5840  0.3325  0.6653
   19MOL0     H 2511   1.003   8.353  10.416 -1.8076  0.0497 -3.9255
   19MOL0     H 2512   1.009   8.491  10.208  0.2902  0.4166 -1.8874
   19MOL0     H 2513   1.170   8.427  10.174 -1.5481 -2.2141 -0.1997
   19MOL0     H 2514   1.103   8.201  10.201 -0.7624  0.2049  0.5263
   19MOL0     H 2515   1.020   8.285  10.067 -0.0902  3.2219 -0.5226
   19MOL0     H 2516   0.774   8.426  10.187 -1.3580 -0.7857 -0.5661
   19MOL0     H 2517   0.509   8.235  10.395 -0.5533 -0.5505 -2.9059
   19MOL0     H 2518   0.584   8.401  10.405 -0.4751 -0.0963 -0.1006
   19MOL0     H 2519   0.489   8.462  10.205  1.2988 -0.6685  1.2396
   19MOL0     H 2520   0.355   8.356  10.271  0.5956  2.0327  1.8346
   19MOL0     H 2521   0.486   8.176  10.153  1.8541  1.1829  1.1252
   19MOL0     H 2522   0.548   8.292  10.049  1.1967 -5.4990  0.4319
   19MOL0     H 2523   0.307   8.377  10.027  1.0172  0.6775 -2.2480
   19MOL0     H 2524   0.264   8.212  10.068 -3.2907  2.4619 -0.9058
   19MOL0     H 2525   0.502   8.296   9.660  1.3343  0.8086 -2.2980
   19MOL0     H 2526   0.413   8.499   9.371 -3.5147  0.6084  2.2222
   19MOL0     H 2527   0.506   8.525   9.508  0.3936  0.0136 -0.1008
   19MOL0     H 2528   0.504   8.354   9.430 -0.9507 -2.1129  1.4485
   19MOL0     H 2529   0.091   8.386   9.088 -1.8583  1.2295  0.5096
   19MOL0     H 2530   0.125   8.514   8.877 -0.0447 -0.1042 -0.4186
   19MOL0     H 2531   0.276   8.635   8.679 -1.6222  0.1895 -1.4128
   19MOL0     H 2532   0.110   8.669   8.723 -1.4712  1.6247 -3.4795
   19MOL0     H 2533   0.184   8.788   8.527 -3.8107  0.2115  0.0432
   19MOL0     H 2534   0.134   8.899   8.656  0.6262  0.7986  2.6051
   19MOL0     H 2535   0.374   8.937   8.721  0.0413 -3.1769  1.0352
   19MOL0     H 2536   0.359   8.970   8.552  1.5270 -1.0063 -0.7009
   19MOL0     H 2537   0.492   8.726   8.662  1.2648  2.9073  1.8509
   19MOL0     H 2538   0.427   8.732   8.493 -0.5543  0.8320 -0.4991
   19MOL0     H 2539   0.591   8.954   8.610 -1.9181  0.2651 -0.2422
   19MOL0     H 2540   0.562   8.929   8.441 -1.3990 -1.0255 -0.5166
   19MOL0     H 2541   0.732   8.751   8.628 -0.9211 -1.9811  0.8461
   19MOL0     H 2542   0.672   8.703   8.472  1.3672  0.5928  0.0959
   19MOL0     H 2543   0.797   8.909   8.376  2.5425  0.9718  0.7780
   19MOL0     H 2544   0.906   8.784   8.435  1.3412  1.3097 -2.2598
   19MOL0     H 2545   1.009   8.950   8.535 -0.7659  2.1234  0.4026
   19MOL0     H 2546   0.898   8.916   8.668 -3.1181 -1.4600  0.1446
   19MOL0     H 2547   0.326   8.827   9.110 -0.2250 -0.0576 -0.6932
   19MOL0     H 2548   0.241   8.732   9.309 -3.6588  1.0962  0.4959
   19MOL0     H 2549   0.042   8.460   9.673  0.4688 -0.7074  1.2272
   19MOL0     H 2550   0.127   8.331   9.856 -4.6822  0.1284 -3.7217
   19MOL0     H 2551   1.631   8.949  10.344 -4.2965 -2.9322  1.3968
   19MOL0     H 2552   1.624   9.175  10.252  1.0302 -0.7698 -1.1969
   19MOL0     H 2553   1.421   9.619  10.351 -0.9870  0.7978 -0.6985
   19MOL0     H 2554   1.384   9.857  10.331  0.2660  0.0814 -3.6913
   19MOL0     H 2555   1.498  10.152  10.457  1.3277  5.9884 -1.0428
   19MOL0     H 2556   1.658  10.077  10.480  0.3463 -1.4710 -2.3166
   19MOL0     H 2557   1.737  10.230  10.299 -0.2091  2.7676 -2.0410
   19MOL0     H 2558   1.684  10.335  10.442  1.4937  0.3883 -0.2966
   19MOL0     H 2559   1.467  10.355  10.298 -1.9199 -0.2396 -4.0583
   19MOL0     H 2560   1.529  10.256  10.178 -0.7321 -1.9054  3.0397
   19MOL0     H 2561   1.559  10.452  10.071  0.4284 -1.1076 -0.1684
   19MOL0     H 2562   1.722  10.403  10.126 -1.8318 -2.1873 -3.2082
   19MOL0     H 2563   1.601  10.757  10.337  0.4563 -0.2412  1.0066
   19MOL0     H 2564   1.811   9.925  10.331  0.5419 -0.2759 -0.4439
   19MOL0     H 2565   1.852   9.695  10.350  0.4614  1.6424 -1.3551
   20MOL0     O 2566   4.255   5.728   6.893  0.5577 -0.1545  0.4539
   20MOL0     C 2567   4.340   5.740   6.808  0.0401 -1.1581 -0.5968
   20MOL0     O 2568   4.429   5.850   6.799 -0.4258  0.2852  0.3048
   20MOL0     C 2569   4.407   5.964   6.869 -0.2828  0.1301  0.5639
   20MOL0     C 2570   4.281   6.030   6.886 -0.2869  0.4715  1.3096
   20MOL0     C 2571   4.266   6.153   6.932  0.5116  0.5954 -0.2437
   20MOL0     C 2572   4.373   6.219   6.984  0.4478  0.5153  0.2158
   20MOL0     O 2573   4.357   6.329   7.051 -0.6393  0.0011  1.2806
   20MOL0     C 2574   4.482   6.397   7.111  0.6062 -0.3817  0.4303
   20MOL0     C 2575   4.426   6.492   7.213 -0.1165 -0.2207 -0.2368
   20MOL0     C 2576   4.536   6.576   7.277 -0.4127  0.1483  0.1226
   20MOL0     C 2577   4.472   6.691   7.349  0.2418 -0.3398 -0.2043
   20MOL0     C 2578   4.560   6.757   7.449 -0.9669  0.7864 -0.0613
   20MOL0     C 2579   4.694   6.813   7.395  0.2398  0.0589  0.0953
   20MOL0     C 2580   4.792   6.823   7.517 -0.8468 -0.5172  0.8872
   20MOL0     C 2581   4.910   6.922   7.474 -0.0767 -0.6548  0.6352
   20MOL0     N 2582   5.003   6.850   7.374  0.4183  0.1013 -0.8575
   20MOL0     C 2583   5.077   6.737   7.408  0.1056  0.0548  0.5797
   20MOL0     C 2584   5.102   6.675   7.286  0.2843 -0.5342  0.6770
   20MOL0     C 2585   5.174   6.549   7.253  0.0997  0.3115 -0.3852
   20MOL0     C 2586   5.099   6.421   7.300  0.5917 -0.0949 -0.0743
   20MOL0     C 2587   4.954   6.410   7.262 -0.5585 -0.2945  0.1620
   20MOL0     C 2588   4.935   6.382   7.107 -0.4909  0.3992 -0.8650
   20MOL0     O 2589   5.015   6.275   7.051 -0.3103 -0.0042  0.0712
   20MOL0     C 2590   4.971   6.144   7.063 -0.3003  1.0369 -0.4769
   20MOL0     C 2591   4.849   6.098   7.133  0.0556 -1.6174 -0.3577
   20MOL0     C 2592   4.824   5.965   7.157 -0.0221  0.7011 -0.7913
   20MOL0     C 2593   4.710   5.929   7.242 -0.3346  0.0152  0.3261
   20MOL0     C 2594   4.907   5.871   7.078 -0.8478 -0.5325  0.2327
   20MOL0     C 2595   4.885   5.724   7.067 -0.7556 -0.9703  0.6407
   20MOL0     O 2596   4.972   5.650   6.986 -0.2471 -0.0580 -0.0284
   20MOL0     C 2597   4.964   5.508   6.984 -1.0140 -0.4761 -0.1824
   20MOL0     C 2598   5.087   5.441   6.992 -0.3460 -0.6215  0.1876
   20MOL0     C 2599   5.097   5.305   6.962  0.3558  1.0334  0.2708
   20MOL0     C 2600   4.985   5.234   6.927  0.2770  0.7333 -0.3068
   20MOL0     O 2601   4.991   5.105   6.884 -0.0385  0.3014 -0.4035
   20MOL0     C 2602   4.933   5.004   6.969 -0.5600  0.0643 -0.4545
   20MOL0     C 2603   4.997   4.855   6.953  0.4400  0.0535  0.4850
   20MOL0     C 2604   5.112   4.818   7.050 -0.9776 -0.0893 -0.4260
   20MOL0     C 2605   5.222   4.727   6.987  0.5456  0.1120  1.0097
   20MOL0     C 2606   5.271   4.627   7.095  0.3339  0.1483 -0.7497
   20MOL0     C 2607   5.373   4.528   7.035  0.1034 -0.8205  0.2620
   20MOL0     C 2608   5.431   4.445   7.153  0.1745  0.0573  0.5062
   20MOL0     C 2609   5.491   4.310   7.116 -0.6255 -0.4891 -0.3744
   20MOL0    Cl 2610   5.599   4.339   6.982  0.2284 -0.3678 -0.0981
   20MOL0     C 2611   4.865   5.294   6.932 -0.2186 -0.3816 -0.0638
   20MOL0     C 2612   4.856   5.426   6.966  0.0609 -1.0586 -0.4136
   20MOL0     O 2613   4.799   5.671   7.135  0.1346 -0.0457 -0.5330
   20MOL0     C 2614   5.021   5.918   7.009 -0.7243 -0.9278  0.3275
   20MOL0     C 2615   5.054   6.048   7.001 -0.2413  0.7632 -0.3579
   20MOL0     N 2616   5.054   6.761   7.186  0.1391 -0.5367 -0.3365
   20MOL0     N 2617   4.990   6.862   7.246 -0.0434  0.4725 -0.5504
   20MOL0     C 2618   4.499   6.153   6.971 -0.3600 -0.5957  0.5267
   20MOL0     C 2619   4.519   6.024   6.917 -0.0056 -0.8395 -0.0238
   20MOL0     C 2620   4.386   5.627   6.728 -0.2807  0.3304  0.7415
   20MOL0     C 2621   4.494   5.635   6.640 -0.4441  0.4777  0.9330
   20MOL0     C 2622   4.534   5.518   6.573 -1.0043  0.5663  0.3335
   20MOL0     C 2623   4.466   5.397   6.573  0.8035 -0.6557  0.3913
   20MOL0     O 2624   4.506   5.283   6.495 -0.0562 -0.1164 -0.1415
   20MOL0     C 2625   4.646   5.252   6.496 -0.1221  0.2334 -0.4358
   20MOL0     C 2626   4.663   5.103   6.470 -0.4015 -0.9730  0.4270
   20MOL0     C 2627   4.773   5.044   6.551 -0.1290  0.4944  0.3444
   20MOL0     C 2628   4.841   4.944   6.465 -1.6848 -0.4844 -0.5078
   20MOL0     C 2629   4.975   4.900   6.515 -0.2573 -0.5616 -0.6423
   20MOL0     C 2630   5.076   4.873   6.571  0.1726 -0.0903  0.5337
   20MOL0     C 2631   4.340   5.404   6.637  0.0335  0.1398 -0.8864
   20MOL0     C 2632   4.309   5.507   6.728  0.9793 -0.1972 -0.5929
   20MOL0     H 2633   4.188   5.980   6.859 -1.0170  1.8977  1.1002
   20MOL0     H 2634   4.168   6.200   6.929  0.1444 -0.1642 -3.2322
   20MOL0     H 2635   4.533   6.325   7.176 -0.1270 -2.1865 -0.9199
   20MOL0     H 2636   4.549   6.453   7.045 -1.6549  1.7689 -0.1707
   20MOL0     H 2637   4.341   6.541   7.165 -1.3390 -0.4430  1.5882
   20MOL0     H 2638   4.375   6.430   7.288  3.3139 -2.5942  0.3524
   20MOL0     H 2639   4.593   6.523   7.353 -2.6646 -2.4207  0.1743
   20MOL0     H 2640   4.599   6.611   7.194  1.0616  0.8694  1.4995
   20MOL0     H 2641   4.446   6.765   7.273  1.2048  0.0712 -0.1506
   20MOL0     H 2642   4.383   6.652   7.399 -0.1102  3.2631  2.3504
   20MOL0     H 2643   4.502   6.839   7.491  3.2635  2.3203  3.4792
   20MOL0     H 2644   4.577   6.680   7.525 -1.9568 -0.1309 -0.7260
   20MOL0     H 2645   4.747   6.753   7.320 -0.3064 -2.2821  1.4990
   20MOL0     H 2646   4.697   6.915   7.355 -1.7429  0.3891  0.6908
   20MOL0     H 2647   4.739   6.883   7.591 -0.2290 -1.1611  1.8590
   20MOL0     H 2648   4.824   6.733   7.570  0.3451  0.0796  1.2128
   20MOL0     H 2649   4.966   6.947   7.564  0.4012  2.8157 -0.4825
   20MOL0     H 2650   4.870   7.015   7.434 -1.9015 -1.9191 -0.6431
   20MOL0     H 2651   5.096   6.697   7.507 -1.4043 -0.3148  0.7406
   20MOL0     H 2652   5.201   6.546   7.146 -2.1048  0.3924 -0.9872
   20MOL0     H 2653   5.261   6.547   7.320 -1.0494  0.6934  1.1583
   20MOL0     H 2654   5.093   6.421   7.409 -0.8043  1.8192 -0.0913
   20MOL0     H 2655   5.159   6.334   7.270 -0.5370 -1.4431  1.4403
   20MOL0     H 2656   4.906   6.502   7.295  0.7017  0.4486 -0.0031
   20MOL0     H 2657   4.910   6.328   7.320 -1.9406 -1.1790 -2.0232
   20MOL0     H 2658   4.963   6.470   7.048 -2.3772  0.5815 -1.5547
   20MOL0     H 2659   4.828   6.367   7.089 -0.6294  0.6803 -0.3104
   20MOL0     H 2660   4.776   6.173   7.163 -0.2346 -0.9248 -2.5956
   20MOL0     H 2661   4.730   5.838   7.299 -2.0736 -3.2286 -3.6940
   20MOL0     H 2662   4.699   6.016   7.307  1.3047  3.3142 -3.3984
   20MOL0     H 2663   4.623   5.909   7.178  0.6923 -0.3237 -1.0058
   20MOL0     H 2664   5.173   5.507   6.996 -0.6338 -0.3141  1.8214
   20MOL0     H 2665   5.188   5.248   6.951 -0.5305 -0.1750 -1.5006
   20MOL0     H 2666   4.941   5.029   7.075 -0.1505  0.7239 -0.6326
   20MOL0     H 2667   4.829   5.002   6.937 -0.1169 -2.5026 -1.9969
   20MOL0     H 2668   4.917   4.787   6.985 -0.2434 -0.2852 -1.7824
   20MOL0     H 2669   5.020   4.840   6.847 -0.8448 -0.0481  0.1977
   20MOL0     H 2670   5.062   4.766   7.133 -2.2380  3.5996  1.3799
   20MOL0     H 2671   5.150   4.911   7.095 -0.7385 -0.3049 -0.1797
   20MOL0     H 2672   5.172   4.676   6.904  2.1964  1.7514 -1.1204
   20MOL0     H 2673   5.297   4.796   6.946  1.3082  0.6482  3.1646
   20MOL0     H 2674   5.188   4.571   7.139  2.4206 -2.5294  0.0598
   20MOL0     H 2675   5.325   4.680   7.174  2.8225  0.2194 -2.3661
   20MOL0     H 2676   5.326   4.467   6.958  1.6317  1.5001 -2.7230
   20MOL0     H 2677   5.458   4.583   6.993 -1.0047  0.7010 -0.0544
   20MOL0     H 2678   5.355   4.428   7.231 -0.6954  1.5460  0.0101
   20MOL0     H 2679   5.508   4.504   7.204  1.0525  0.5624 -1.3544
   20MOL0     H 2680   5.406   4.246   7.090 -1.6606 -0.0133  1.6043
   20MOL0     H 2681   5.539   4.264   7.202 -0.3799 -1.2257 -0.8980
   20MOL0     H 2682   4.772   5.248   6.901 -0.9474  1.2507 -0.3991
   20MOL0     H 2683   4.764   5.483   6.954  1.8483  2.0119 -0.5035
   20MOL0     H 2684   5.083   5.854   6.947 -1.8303 -1.8678  0.1483
   20MOL0     H 2685   5.140   6.093   6.953 -1.1429  1.0061 -1.8224
   20MOL0     H 2686   4.597   6.183   7.007  1.6112 -3.4589 -1.9471
   20MOL0     H 2687   4.609   5.964   6.903 -1.2895 -3.0386  0.6304
   20MOL0     H 2688   4.553   5.726   6.633 -1.2491  0.8543 -2.0102
   20MOL0     H 2689   4.633   5.532   6.531 -1.3157 -3.2115 -2.1184
   20MOL0     H 2690   4.697   5.327   6.435 -0.7565  0.4530 -0.7051
   20MOL0     H 2691   4.690   5.269   6.594 -1.2711  0.1588  0.1111
   20MOL0     H 2692   4.687   5.101   6.363 -0.5982  1.1425  0.2988
   20MOL0     H 2693   4.568   5.048   6.476 -1.4678  0.8310  0.6208
   20MOL0     H 2694   4.736   5.001   6.644  1.5100 -4.6164 -1.0246
   20MOL0     H 2695   4.845   5.123   6.573  0.8499  0.6281 -2.9097
   20MOL0     H 2696   4.851   4.985   6.364 -2.3065  0.0924 -0.3407
   20MOL0     H 2697   4.773   4.858   6.464  0.1823 -2.0530  0.3902
   20MOL0     H 2698   5.169   4.842   6.614 -1.3531 -5.1344  0.8286
   20MOL0     H 2699   4.276   5.317   6.648 -0.0801  0.2269 -0.8460
   20MOL0     H 2700   4.224   5.485   6.791  1.5841 -3.9364 -0.8707
   21MOL0     O 2701   5.488   4.885   7.284 -0.1191  0.2331  0.2882
   21MOL0     C 2702   5.544   4.943   7.191 -0.2340 -0.4522  0.4852
   21MOL0     O 2703   5.649   4.889   7.126  0.2166 -1.0469 -0.4669
   21MOL0     C 2704   5.702   4.766   7.169  0.5882 -0.1293 -0.5119
   21MOL0     C 2705   5.743   4.752   7.303  0.3553 -0.9917  0.7787
   21MOL0     C 2706   5.811   4.648   7.349 -0.3256 -1.0453 -0.3334
   21MOL0     C 2707   5.848   4.548   7.262 -0.8522  0.1184  0.3190
   21MOL0     O 2708   5.924   4.444   7.307 -0.3156  0.5136 -0.1061
   21MOL0     C 2709   5.902   4.299   7.289  0.4023 -0.9645  1.4621
   21MOL0     C 2710   6.033   4.232   7.238  0.6345  1.0208  0.3375
   21MOL0     C 2711   6.034   4.237   7.082  0.2440  1.0183 -0.2317
   21MOL0     C 2712   6.090   4.115   7.009 -0.2741  0.2333  0.2025
   21MOL0     C 2713   6.209   4.054   7.085 -0.2170  0.8592  0.5607
   21MOL0     C 2714   6.327   4.145   7.066  0.3147  0.2302  0.4739
   21MOL0     C 2715   6.459   4.079   7.112  0.0909  0.2535  0.1688
   21MOL0     C 2716   6.577   4.190   7.105 -0.3941 -0.3600  0.1164
   21MOL0     N 2717   6.616   4.217   6.969 -0.6434 -0.8245  0.3059
   21MOL0     C 2718   6.645   4.345   6.924 -0.0487  0.9972  0.0608
   21MOL0     C 2719   6.705   4.330   6.805  0.3137 -1.5559  0.1408
   21MOL0     C 2720   6.742   4.457   6.717 -0.2642  0.3563 -0.3338
   21MOL0     C 2721   6.885   4.507   6.745  0.6625  0.4136  0.5758
   21MOL0     C 2722   6.995   4.406   6.684 -0.5194  0.2286  0.6700
   21MOL0     C 2723   7.129   4.461   6.636 -0.3331  0.4789 -1.0012
   21MOL0     O 2724   7.242   4.367   6.650  0.5472 -0.9148  0.4350
   21MOL0     C 2725   7.340   4.395   6.554  0.7952  0.8003 -0.1457
   21MOL0     C 2726   7.349   4.314   6.441 -0.6360 -0.2027  0.2768
   21MOL0     C 2727   7.434   4.342   6.338 -0.5320 -0.2644 -0.0092
   21MOL0     C 2728   7.436   4.258   6.213 -1.1142 -0.3847  0.4774
   21MOL0     C 2729   7.524   4.457   6.342  0.2910  0.0295  0.7116
   21MOL0     C 2730   7.629   4.495   6.236 -0.1620 -1.1438  0.9074
   21MOL0     O 2731   7.695   4.614   6.252  0.7427 -0.5802 -0.2478
   21MOL0     C 2732   7.826   4.636   6.204  0.3008  0.0155 -0.0099
   21MOL0     C 2733   7.898   4.733   6.268  0.1914  0.0409  1.0329
   21MOL0     C 2734   8.033   4.762   6.244 -0.5377 -0.2397 -0.4836
   21MOL0     C 2735   8.103   4.672   6.152  0.1801 -0.5228 -0.2325
   21MOL0     O 2736   8.233   4.672   6.100 -0.4772 -0.3361 -0.3262
   21MOL0     C 2737   8.310   4.802   6.085  0.3866  1.2062  0.1576
   21MOL0     C 2738   8.437   4.744   6.019  0.2158 -0.7274  0.9613
   21MOL0     C 2739   8.551   4.852   6.005 -1.3114 -0.4229  0.4196
   21MOL0     C 2740   8.591   4.900   6.144 -0.2962  0.2688  0.2592
   21MOL0     C 2741   8.727   4.973   6.120  0.3560  0.2362  0.3425
   21MOL0     C 2742   8.715   5.118   6.178 -0.5003 -0.1817 -0.1279
   21MOL0     C 2743   8.859   5.176   6.168  0.2044 -0.6829  0.4497
   21MOL0     C 2744   8.853   5.325   6.215 -0.4341 -0.2459 -0.0786
   21MOL0    Cl 2745   8.778   5.427   6.082 -0.1515 -0.5589 -0.7904
   21MOL0     C 2746   8.032   4.566   6.096  0.2328 -0.0998  0.3224
   21MOL0     C 2747   7.898   4.551   6.115  0.3503 -0.1314 -0.8014
   21MOL0     O 2748   7.628   4.431   6.133 -0.8871  0.3354 -0.2452
   21MOL0     C 2749   7.517   4.527   6.466  0.1353 -0.6640 -0.9870
   21MOL0     C 2750   7.428   4.505   6.567 -0.1784 -0.4881 -0.2591
   21MOL0     N 2751   6.701   4.208   6.771 -0.0770  0.1436  0.3916
   21MOL0     N 2752   6.649   4.133   6.867 -0.1446  0.1747  0.2519
   21MOL0     C 2753   5.805   4.551   7.128 -0.8100  0.0267  0.5521
   21MOL0     C 2754   5.731   4.663   7.083  0.1642  1.0802 -0.3700
   21MOL0     C 2755   5.495   5.072   7.161 -0.7401  0.5706 -1.0370
   21MOL0     C 2756   5.571   5.163   7.104  0.0472  0.5647 -0.6541
   21MOL0     C 2757   5.534   5.297   7.095 -0.1931  0.5309 -0.5572
   21MOL0     C 2758   5.416   5.343   7.143  0.4537  0.0108  0.1727
   21MOL0     O 2759   5.379   5.471   7.139  0.1228 -0.1256 -0.3518
   21MOL0     C 2760   5.443   5.552   7.234 -0.0831  0.4235  0.2485
   21MOL0     C 2761   5.571   5.612   7.165 -0.0895  0.1958 -0.2791
   21MOL0     C 2762   5.645   5.705   7.258 -0.2658 -0.1623 -0.4527
   21MOL0     C 2763   5.748   5.619   7.337 -0.1107 -0.0973 -0.2001
   21MOL0     C 2764   5.882   5.650   7.268  0.3471 -0.3629 -0.1007
   21MOL0     C 2765   5.995   5.678   7.238  0.5420  0.2520  0.5032
   21MOL0     C 2766   5.339   5.248   7.210  0.7247  0.2506 -0.6851
   21MOL0     C 2767   5.377   5.119   7.230 -0.4727  0.9776 -0.2125
   21MOL0     H 2768   5.727   4.841   7.363  6.4016  0.7039  0.4887
   21MOL0     H 2769   5.841   4.665   7.452  2.2142  1.3955 -1.3667
   21MOL0     H 2770   5.883   4.249   7.384  3.5669  1.5593  3.6189
   21MOL0     H 2771   5.821   4.272   7.220  1.8269 -0.6441 -0.4229
   21MOL0     H 2772   6.133   4.264   7.269  2.0943 -3.1135  0.4796
   21MOL0     H 2773   6.015   4.134   7.284  0.0363  1.7711  1.7784
   21MOL0     H 2774   5.929   4.231   7.052  0.5686 -0.1599 -1.1861
   21MOL0     H 2775   6.086   4.327   7.049 -3.4713  2.3580 -3.1623
   21MOL0     H 2776   6.010   4.041   6.998  1.5581 -1.4841 -3.2590
   21MOL0     H 2777   6.111   4.140   6.905  5.2640  2.0709  1.4073
   21MOL0     H 2778   6.204   4.038   7.193 -1.2559  0.7889  0.5087
   21MOL0     H 2779   6.239   3.956   7.046 -1.9027 -1.0818  3.7099
   21MOL0     H 2780   6.334   4.179   6.962  0.1422 -1.1044  0.0098
   21MOL0     H 2781   6.313   4.240   7.119 -0.1961  1.0428 -1.0423
   21MOL0     H 2782   6.438   4.034   7.209 -1.3992 -0.5043 -0.4769
   21MOL0     H 2783   6.494   3.993   7.055 -1.7516 -0.5232  0.1279
   21MOL0     H 2784   6.666   4.151   7.155 -0.1064 -1.7467 -1.3878
   21MOL0     H 2785   6.546   4.282   7.156  1.8513 -0.5604  1.9798
   21MOL0     H 2786   6.626   4.441   6.972  0.5874  0.1497  2.0943
   21MOL0     H 2787   6.734   4.426   6.612 -0.7105  0.1499 -0.2423
   21MOL0     H 2788   6.666   4.533   6.737  0.8202  2.0248 -2.2214
   21MOL0     H 2789   6.895   4.516   6.853 -1.0145 -1.4646  0.9285
   21MOL0     H 2790   6.895   4.605   6.697 -0.3295  0.8257  1.2022
   21MOL0     H 2791   6.955   4.358   6.595  2.3726 -1.5930  0.2322
   21MOL0     H 2792   7.015   4.332   6.762  0.5423 -3.8486 -3.1042
   21MOL0     H 2793   7.140   4.558   6.686 -5.1265 -0.1510  1.8596
   21MOL0     H 2794   7.106   4.472   6.530 -3.0132 -2.9511 -0.9444
   21MOL0     H 2795   7.277   4.235   6.424  0.5937 -0.8813 -2.4449
   21MOL0     H 2796   7.418   4.308   6.118 -2.0392  2.2406  1.9197
   21MOL0     H 2797   7.534   4.210   6.210 -0.4500  0.8673  1.2217
   21MOL0     H 2798   7.365   4.178   6.234 -2.1256  0.5308  0.6679
   21MOL0     H 2799   7.846   4.786   6.347  1.3061 -1.2113  2.6660
   21MOL0     H 2800   8.072   4.853   6.290 -0.5047 -1.0607  1.2213
   21MOL0     H 2801   8.250   4.865   6.020 -0.9918  0.0189  0.2113
   21MOL0     H 2802   8.312   4.854   6.181 -1.0193  0.7859  0.4412
   21MOL0     H 2803   8.483   4.665   6.079  2.0487  0.0783  0.6905
   21MOL0     H 2804   8.413   4.699   5.923  0.7829  0.7296  0.0943
   21MOL0     H 2805   8.520   4.938   5.945 -1.0058  0.9001  2.0834
   21MOL0     H 2806   8.643   4.813   5.961  0.8595  2.6872  1.8451
   21MOL0     H 2807   8.511   4.966   6.177 -0.1717  0.4919  0.1152
   21MOL0     H 2808   8.592   4.811   6.207 -2.1512 -0.9500 -1.2977
   21MOL0     H 2809   8.757   4.976   6.015  1.3168 -0.4529  0.5903
   21MOL0     H 2810   8.794   4.917   6.186  0.3117 -0.3976 -0.1491
   21MOL0     H 2811   8.653   5.178   6.111 -0.7624  0.2245  0.4671
   21MOL0     H 2812   8.690   5.112   6.285  2.1616 -1.9646  0.4802
   21MOL0     H 2813   8.904   5.173   6.068 -0.2836 -0.2146  0.2102
   21MOL0     H 2814   8.933   5.111   6.216 -0.0025 -0.5641  0.9288
   21MOL0     H 2815   8.957   5.360   6.217  0.1541 -1.1255 -4.5175
   21MOL0     H 2816   8.806   5.337   6.313 -0.5821  1.4630 -0.3219
   21MOL0     H 2817   8.098   4.518   6.024  3.7581  2.4025  1.5971
   21MOL0     H 2818   7.844   4.474   6.061 -0.5529  2.6744 -4.2739
   21MOL0     H 2819   7.577   4.616   6.455  1.4460 -1.7260 -3.0306
   21MOL0     H 2820   7.425   4.558   6.661  1.0387 -2.3959  0.9349
   21MOL0     H 2821   5.841   4.467   7.070 -0.4271 -0.5383  1.5666
   21MOL0     H 2822   5.700   4.677   6.980  1.3809  1.5457 -0.6893
   21MOL0     H 2823   5.660   5.131   7.052 -2.7494  0.4407 -6.0571
   21MOL0     H 2824   5.606   5.364   7.048 -1.6611  2.9133  0.4301
   21MOL0     H 2825   5.379   5.628   7.279  0.7996 -0.0182  2.3465
   21MOL0     H 2826   5.471   5.488   7.318  0.4557  0.6567  0.2529
   21MOL0     H 2827   5.537   5.673   7.081 -3.0423  0.4178  0.9414
   21MOL0     H 2828   5.641   5.535   7.132 -0.4365 -2.5879  4.4846
   21MOL0     H 2829   5.574   5.747   7.330 -1.2266  1.7448 -2.4338
   21MOL0     H 2830   5.693   5.792   7.213  1.6998 -0.6692  0.5427
   21MOL0     H 2831   5.733   5.510   7.337  2.0594 -0.5434  2.7829
   21MOL0     H 2832   5.746   5.658   7.439 -2.4673  0.2098 -0.3197
   21MOL0     H 2833   6.092   5.709   7.203  1.2442 -1.1486  1.1483
   21MOL0     H 2834   5.256   5.283   7.270  3.5029  2.0751  2.4627
   21MOL0     H 2835   5.308   5.051   7.279 -1.0333  1.8593  0.2348
   22MOL0     O 2836   2.445   1.587   9.567  1.0760 -0.6519  0.1441
   22MOL0     C 2837   2.513   1.580   9.466 -0.6897 -0.2851  0.3105
   22MOL0     O 2838   2.588   1.472   9.430  1.1688  0.1516 -0.4292
   22MOL0     C 2839   2.590   1.355   9.502 -0.5106  0.3257 -0.0277
   22MOL0     C 2840   2.530   1.324   9.615  0.5600 -0.7069 -0.4548
   22MOL0     C 2841   2.553   1.203   9.689 -1.3112 -0.1670 -0.0712
   22MOL0     C 2842   2.638   1.108   9.629 -0.1438 -0.2428  0.4968
   22MOL0     O 2843   2.638   0.989   9.699 -0.1063  0.6659 -0.2402
   22MOL0     C 2844   2.520   0.910   9.676  0.6354 -1.4590 -0.5953
   22MOL0     C 2845   2.528   0.779   9.742  0.0574  0.6378  0.1750
   22MOL0     C 2846   2.632   0.676   9.682  0.1311 -0.4792  0.4032
   22MOL0     C 2847   2.687   0.570   9.779  0.7660 -0.1037  0.7351
   22MOL0     C 2848   2.837   0.599   9.802  0.1457 -0.6950 -0.5439
   22MOL0     C 2849   2.903   0.512   9.894  0.0098  0.4304 -0.4693
   22MOL0     C 2850   3.057   0.513   9.911  0.9085 -0.9409  0.6496
   22MOL0     C 2851   3.095   0.396  10.005 -0.0302  0.6377 -0.2792
   22MOL0     N 2852   3.243   0.366  10.001 -0.1487  0.3499 -0.1667
   22MOL0     C 2853   3.333   0.354   9.893  0.0998  0.0740 -0.2530
   22MOL0     C 2854   3.456   0.340   9.943  0.8375  0.1515 -0.7748
   22MOL0     C 2855   3.591   0.322   9.872 -1.1529 -0.7474  0.1906
   22MOL0     C 2856   3.706   0.431   9.879 -0.9796 -0.1290 -0.1878
   22MOL0     C 2857   3.822   0.385   9.788  0.9670  0.5197 -0.6522
   22MOL0     C 2858   3.943   0.474   9.782  0.6550  0.5263  0.2162
   22MOL0     O 2859   3.913   0.598   9.717  0.5299  0.0636  0.5821
   22MOL0     C 2860   4.002   0.694   9.712  0.1015  0.0771  0.1920
   22MOL0     C 2861   4.136   0.669   9.685  0.4185  0.5387 -1.0261
   22MOL0     C 2862   4.222   0.766   9.677  0.7083 -1.0546  0.0729
   22MOL0     C 2863   4.364   0.715   9.637  0.2047 -0.2500  0.2182
   22MOL0     C 2864   4.184   0.901   9.706  0.2887 -0.8661 -0.2949
   22MOL0     C 2865   4.281   1.011   9.719 -0.0082  0.0739 -0.2309
   22MOL0     O 2866   4.400   0.982   9.779 -0.6664 -0.0186 -0.0430
   22MOL0     C 2867   4.510   1.044   9.737  0.3135  0.5499  0.0432
   22MOL0     C 2868   4.547   1.057   9.602  0.0144  0.2093 -1.4448
   22MOL0     C 2869   4.656   1.137   9.564  0.1578  0.1906  0.7864
   22MOL0     C 2870   4.746   1.187   9.656  0.0562 -0.1245  0.1887
   22MOL0     O 2871   4.859   1.263   9.623  0.3431 -0.2001  0.4035
   22MOL0     C 2872   4.879   1.316   9.491  0.4435 -0.3546  0.4824
   22MOL0     C 2873   5.009   1.380   9.491 -0.0621  0.2494 -0.2221
   22MOL0     C 2874   5.116   1.277   9.530 -0.3058  0.1379 -0.2009
   22MOL0     C 2875   5.258   1.332   9.509 -0.3631 -0.2501 -0.5343
   22MOL0     C 2876   5.383   1.232   9.530  0.2182  0.3877  0.0277
   22MOL0     C 2877   5.384   1.176   9.670 -0.5403  0.0889 -0.5974
   22MOL0     C 2878   5.419   1.295   9.760 -0.9618  0.3385  0.2175
   22MOL0     C 2879   5.495   1.243   9.886 -0.2529  0.0432  0.3746
   22MOL0    Cl 2880   5.395   1.124   9.986 -0.0553  0.0365 -0.3656
   22MOL0     C 2881   4.721   1.160   9.788 -0.6879  0.2369 -0.6324
   22MOL0     C 2882   4.605   1.102   9.828 -0.2555  0.9318  0.2481
   22MOL0     O 2883   4.246   1.116   9.666 -0.5126  0.2645  0.1418
   22MOL0     C 2884   4.049   0.931   9.722 -0.2138 -0.5256 -1.3371
   22MOL0     C 2885   3.955   0.831   9.725 -0.3742  0.5290  0.4906
   22MOL0     N 2886   3.444   0.326  10.077 -0.3342 -0.1017  0.3266
   22MOL0     N 2887   3.328   0.351  10.114  0.4345  0.6396 -1.1162
   22MOL0     C 2888   2.709   1.142   9.520 -0.4308  0.1525  0.2886
   22MOL0     C 2889   2.686   1.266   9.458 -0.1942 -0.7460 -0.6451
   22MOL0     C 2890   2.515   1.684   9.366  0.1670 -1.0261 -0.1981
   22MOL0     C 2891   2.413   1.788   9.366  0.1708 -0.3078  0.1008
   22MOL0     C 2892   2.421   1.894   9.275  0.0239 -0.1410 -0.3277
   22MOL0     C 2893   2.520   1.893   9.168 -0.0440 -0.1329 -0.7531
   22MOL0     O 2894   2.513   2.000   9.079 -0.5971 -0.5659 -0.1547
   22MOL0     C 2895   2.635   2.075   9.068  0.3800 -0.7865 -0.0959
   22MOL0     C 2896   2.595   2.217   9.012 -0.0505  0.3243 -0.6916
   22MOL0     C 2897   2.543   2.218   8.870 -0.7778 -1.1102 -0.7015
   22MOL0     C 2898   2.655   2.196   8.766 -0.1713  0.8205  0.0385
   22MOL0     C 2899   2.741   2.315   8.748 -0.2322 -0.8212  0.5406
   22MOL0     C 2900   2.806   2.418   8.742 -0.9745  0.9421  0.3064
   22MOL0     C 2901   2.603   1.785   9.160 -0.5256  0.2829 -0.1864
   22MOL0     C 2902   2.601   1.677   9.258  0.4486 -1.1949  0.4540
   22MOL0     H 2903   2.457   1.386   9.667  0.8867  0.2752 -1.1509
   22MOL0     H 2904   2.500   1.184   9.782  0.2937  3.6156  1.8080
   22MOL0     H 2905   2.446   0.973   9.726  3.1139  0.9095  0.3815
   22MOL0     H 2906   2.501   0.901   9.569 -1.6564  1.7910 -0.5931
   22MOL0     H 2907   2.537   0.783   9.851 -2.0944 -0.3040  0.4230
   22MOL0     H 2908   2.428   0.736   9.736  0.6476 -0.5779 -1.7653
   22MOL0     H 2909   2.591   0.625   9.594 -0.7414  1.2677 -0.2584
   22MOL0     H 2910   2.711   0.739   9.640 -0.6934  0.6307  0.4620
   22MOL0     H 2911   2.629   0.579   9.871 -1.8806 -3.5373 -0.3861
   22MOL0     H 2912   2.678   0.466   9.747  0.9326 -0.6607  2.3931
   22MOL0     H 2913   2.895   0.595   9.710  2.9425  1.0480  0.9893
   22MOL0     H 2914   2.845   0.703   9.835 -2.6605 -0.4938 -0.2550
   22MOL0     H 2915   2.862   0.523   9.994  0.7470 -2.1104  0.1853
   22MOL0     H 2916   2.877   0.411   9.861  0.5496  0.8235 -2.2254
   22MOL0     H 2917   3.094   0.497   9.809 -1.3514 -2.8694  0.0537
   22MOL0     H 2918   3.092   0.611   9.944 -0.2512  0.4987 -2.0779
   22MOL0     H 2919   3.035   0.307   9.986 -0.2393  0.7912 -0.3367
   22MOL0     H 2920   3.060   0.427  10.104 -1.2434  1.9670 -1.0736
   22MOL0     H 2921   3.299   0.353   9.790  0.5163  3.1717 -0.5100
   22MOL0     H 2922   3.623   0.219   9.891  0.4601 -0.0427  1.5218
   22MOL0     H 2923   3.574   0.329   9.765  1.0963  1.7941 -0.1076
   22MOL0     H 2924   3.741   0.441   9.982  1.8321  2.5656 -1.2293
   22MOL0     H 2925   3.668   0.530   9.851  0.3184  1.1822  2.2968
   22MOL0     H 2926   3.785   0.367   9.687 -0.7024  1.7774 -0.3134
   22MOL0     H 2927   3.857   0.292   9.833 -0.3304  0.1550 -0.3558
   22MOL0     H 2928   4.026   0.424   9.730  0.8881 -1.7399  2.5729
   22MOL0     H 2929   3.993   0.502   9.875 -1.4129  1.0198  1.2265
   22MOL0     H 2930   4.160   0.566   9.663 -1.0981 -0.4917  1.6922
   22MOL0     H 2931   4.405   0.686   9.734  0.6408 -2.0229 -0.4712
   22MOL0     H 2932   4.362   0.636   9.562 -0.8058 -3.4536  3.3231
   22MOL0     H 2933   4.428   0.800   9.610  2.7700 -1.7050  1.3641
   22MOL0     H 2934   4.474   1.027   9.528  0.9670 -1.3758 -1.7886
   22MOL0     H 2935   4.659   1.146   9.456  0.7924 -1.4405  0.6444
   22MOL0     H 2936   4.878   1.238   9.415  1.5615  2.7805 -3.0529
   22MOL0     H 2937   4.815   1.399   9.459  0.2847 -0.3643  0.7717
   22MOL0     H 2938   5.044   1.419   9.395  2.5553 -1.9850 -0.2822
   22MOL0     H 2939   5.013   1.455   9.570 -0.3885 -0.1922  0.2263
   22MOL0     H 2940   5.096   1.183   9.477 -3.3915 -0.7237  2.1829
   22MOL0     H 2941   5.109   1.251   9.636 -4.6824  0.7097 -0.1915
   22MOL0     H 2942   5.260   1.365   9.405 -2.7281  0.0669 -0.5295
   22MOL0     H 2943   5.245   1.408   9.587 -2.0598 -2.9144  1.9946
   22MOL0     H 2944   5.469   1.294   9.503 -0.0148  0.8784  0.3954
   22MOL0     H 2945   5.372   1.157   9.451 -0.0029 -1.3539  1.6645
   22MOL0     H 2946   5.286   1.135   9.695 -0.8301  0.9170 -0.3367
   22MOL0     H 2947   5.457   1.094   9.672 -2.2976 -1.5416  0.3727
   22MOL0     H 2948   5.332   1.357   9.788  0.8120  1.9910  2.4834
   22MOL0     H 2949   5.475   1.365   9.697 -0.3034 -0.5478 -0.1946
   22MOL0     H 2950   5.532   1.324   9.949 -1.3468 -0.6708  2.0039
   22MOL0     H 2951   5.592   1.200   9.859 -1.8266 -2.0324 -2.6329
   22MOL0     H 2952   4.781   1.202   9.869 -1.1858 -0.0165 -0.1248
   22MOL0     H 2953   4.586   1.099   9.935  2.0700 -1.9101  0.7007
   22MOL0     H 2954   4.015   1.033   9.738  0.1714 -0.5160 -0.4940
   22MOL0     H 2955   3.847   0.840   9.729 -0.7616 -0.5618 -3.3144
   22MOL0     H 2956   2.773   1.067   9.475  0.7097  0.8724  0.6794
   22MOL0     H 2957   2.745   1.295   9.372  1.3447 -1.2184  0.2122
   22MOL0     H 2958   2.330   1.784   9.437  1.8639 -1.0767  2.1351
   22MOL0     H 2959   2.347   1.973   9.286 -1.6311 -1.8187  1.2811
   22MOL0     H 2960   2.692   2.083   9.162  2.2663  0.4968 -1.2780
   22MOL0     H 2961   2.701   2.012   9.007  2.6809  1.6209 -0.3005
   22MOL0     H 2962   2.685   2.278   9.015 -1.0253  1.8473 -1.3533
   22MOL0     H 2963   2.534   2.274   9.082 -1.2433 -0.4685 -1.0455
   22MOL0     H 2964   2.503   2.315   8.838  1.1656 -1.0215 -3.2277
   22MOL0     H 2965   2.469   2.138   8.859 -1.5644 -0.3075 -1.4233
   22MOL0     H 2966   2.594   2.180   8.677 -0.0662  0.2467  0.0721
   22MOL0     H 2967   2.714   2.105   8.780 -0.1255  0.8940  0.3419
   22MOL0     H 2968   2.863   2.509   8.745 -0.5007  0.6435  0.6137
   22MOL0     H 2969   2.689   1.791   9.094 -0.0001 -0.0058  0.4665
   22MOL0     H 2970   2.676   1.603   9.232 -2.1910 -3.0407 -2.8482
   23MOL0     O 2971   6.706   1.024   8.082 -0.0183 -0.2724 -0.2581
   23MOL0     C 2972   6.606   1.040   8.011 -0.0922 -0.4855 -0.0057
   23MOL0     O 2973   6.487   0.989   8.042  0.7349 -0.1545 -0.2738
   23MOL0     C 2974   6.454   0.955   8.169 -0.1921  0.9479 -0.5177
   23MOL0     C 2975   6.501   1.005   8.294 -0.1309 -0.3178  0.3390
   23MOL0     C 2976   6.476   0.940   8.410 -0.4152 -0.3585 -0.3846
   23MOL0     C 2977   6.395   0.829   8.419  0.4569 -0.7277  0.4255
   23MOL0     O 2978   6.368   0.770   8.538 -0.2090 -0.3385  0.4344
   23MOL0     C 2979   6.341   0.633   8.544 -1.2964  0.0078  0.1640
   23MOL0     C 2980   6.200   0.621   8.602 -0.4212 -0.0656 -0.0176
   23MOL0     C 2981   6.195   0.638   8.751  0.6104  0.4284 -0.8709
   23MOL0     C 2982   6.292   0.546   8.836  0.1171 -0.2779 -0.2079
   23MOL0     C 2983   6.225   0.468   8.959  0.1315  0.4985 -0.3697
   23MOL0     C 2984   6.170   0.565   9.062  0.0273  0.1337 -0.1589
   23MOL0     C 2985   6.149   0.490   9.207  0.1564 -0.8707  1.2773
   23MOL0     C 2986   6.030   0.403   9.205  0.0160  0.4768  0.0802
   23MOL0     N 2987   5.899   0.473   9.188 -0.0778 -0.6461 -0.3836
   23MOL0     C 2988   5.830   0.453   9.074  1.7755 -0.0812  0.3699
   23MOL0     C 2989   5.727   0.546   9.086  0.3829  0.2623 -0.7412
   23MOL0     C 2990   5.623   0.573   8.986  0.4135  0.8021  0.4846
   23MOL0     C 2991   5.686   0.660   8.875  0.5857 -0.3690  0.0912
   23MOL0     C 2992   5.770   0.776   8.917  0.1838  0.3664 -1.2859
   23MOL0     C 2993   5.757   0.899   8.817  0.9772  0.2976  0.4816
   23MOL0     O 2994   5.839   0.865   8.698 -0.2612 -0.9425 -0.3765
   23MOL0     C 2995   5.816   0.944   8.588  0.0721  0.4547 -0.7701
   23MOL0     C 2996   5.793   0.875   8.476 -0.8490 -0.1314  0.4843
   23MOL0     C 2997   5.760   0.928   8.359  0.6345  0.4342  0.6230
   23MOL0     C 2998   5.749   0.832   8.242 -0.3261 -0.0074 -0.0013
   23MOL0     C 2999   5.758   1.074   8.346 -1.4192  0.1872  1.0897
   23MOL0     C 3000   5.726   1.144   8.227 -0.3171  0.4281  0.6581
   23MOL0     O 3001   5.748   1.090   8.107  0.5262  0.1379 -0.6442
   23MOL0     C 3002   5.702   1.150   7.994 -0.8265 -0.7501  0.1022
   23MOL0     C 3003   5.614   1.078   7.922  0.4144  0.8596  0.8324
   23MOL0     C 3004   5.573   1.123   7.795 -0.5746  0.1674 -0.1289
   23MOL0     C 3005   5.615   1.253   7.742 -0.4628  0.4794  0.3001
   23MOL0     O 3006   5.564   1.289   7.616  0.3992  0.0533  0.4556
   23MOL0     C 3007   5.620   1.210   7.512  0.2101  0.2875 -0.0068
   23MOL0     C 3008   5.558   1.263   7.376  0.7043  0.0638  0.3660
   23MOL0     C 3009   5.626   1.386   7.328 -1.1978 -0.2481  0.5246
   23MOL0     C 3010   5.673   1.482   7.440 -0.4938  0.3865 -0.1832
   23MOL0     C 3011   5.735   1.606   7.373 -0.3468 -0.3933 -0.4985
   23MOL0     C 3012   5.798   1.705   7.474 -0.2235 -1.0136 -0.9108
   23MOL0     C 3013   5.934   1.750   7.411  0.4558  1.2763  0.7312
   23MOL0     C 3014   6.014   1.838   7.500 -0.3293 -0.3849  0.1698
   23MOL0    Cl 3015   6.011   1.812   7.682 -0.2560 -0.2249  0.0144
   23MOL0     C 3016   5.690   1.336   7.827 -0.9359 -0.0333  0.1158
   23MOL0     C 3017   5.737   1.281   7.951 -0.2403  0.5048 -0.5179
   23MOL0     O 3018   5.664   1.245   8.237  1.1755 -0.2829 -0.3166
   23MOL0     C 3019   5.782   1.149   8.460 -0.4747 -0.0782  0.2526
   23MOL0     C 3020   5.807   1.085   8.585  0.0756  0.4096 -0.7270
   23MOL0     N 3021   5.741   0.611   9.201 -0.8239  0.4695 -0.0910
   23MOL0     N 3022   5.842   0.571   9.263  0.0723 -0.3212 -0.1298
   23MOL0     C 3023   6.338   0.784   8.300 -0.0937  0.3018  0.6597
   23MOL0     C 3024   6.371   0.841   8.180  0.4367  0.3736 -0.3685
   23MOL0     C 3025   6.613   1.117   7.892  0.1391 -0.5298  0.2442
   23MOL0     C 3026   6.492   1.143   7.826 -0.9662 -0.3680  0.8590
   23MOL0     C 3027   6.495   1.218   7.707  0.0473 -0.6292  0.4011
   23MOL0     C 3028   6.621   1.254   7.654 -0.5476  0.7511  0.4310
   23MOL0     O 3029   6.624   1.331   7.537 -0.2689  0.3181  0.9248
   23MOL0     C 3030   6.743   1.342   7.455  0.8470 -0.2815 -0.2883
   23MOL0     C 3031   6.789   1.483   7.435 -0.0023 -0.1415  0.2068
   23MOL0     C 3032   6.680   1.554   7.338 -0.1352  0.2707  1.0968
   23MOL0     C 3033   6.760   1.650   7.246  0.3016 -0.4044 -1.4480
   23MOL0     C 3034   6.797   1.755   7.343 -0.4401 -0.4311  0.8851
   23MOL0     C 3035   6.836   1.857   7.409  0.4041  0.5723  0.0535
   23MOL0     C 3036   6.738   1.229   7.725 -1.0060 -0.9229 -0.0535
   23MOL0     C 3037   6.740   1.152   7.834  0.2151  0.1799  0.0752
   23MOL0     H 3038   6.553   1.100   8.303  0.6594 -0.7180  0.0876
   23MOL0     H 3039   6.519   0.973   8.504 -2.9364  1.5816  0.1800
   23MOL0     H 3040   6.366   0.578   8.453 -1.8164 -2.4385  1.4089
   23MOL0     H 3041   6.423   0.596   8.607 -0.4440  0.4770 -0.6478
   23MOL0     H 3042   6.147   0.702   8.552  1.8810 -0.8824 -4.3027
   23MOL0     H 3043   6.144   0.530   8.578 -3.2400  1.6437 -0.4083
   23MOL0     H 3044   6.216   0.741   8.782  2.3912  0.7439 -2.8999
   23MOL0     H 3045   6.092   0.607   8.773  1.2446  0.4849  2.7843
   23MOL0     H 3046   6.313   0.460   8.772  1.8930 -0.6040  0.7648
   23MOL0     H 3047   6.384   0.603   8.855 -1.6161  2.3909  0.8950
   23MOL0     H 3048   6.145   0.404   8.921  1.5799 -1.4708 -0.2406
   23MOL0     H 3049   6.292   0.394   9.003 -2.8390 -3.0356 -1.2982
   23MOL0     H 3050   6.245   0.643   9.079  2.5535 -2.2084  0.1623
   23MOL0     H 3051   6.077   0.621   9.050 -0.3991  0.5138  3.6845
   23MOL0     H 3052   6.237   0.444   9.253 -0.8847 -2.0937  2.0932
   23MOL0     H 3053   6.135   0.570   9.280  2.0862 -0.3924  1.1696
   23MOL0     H 3054   6.019   0.359   9.304 -0.8998  1.6190  0.5042
   23MOL0     H 3055   6.037   0.330   9.124 -2.3177 -2.8494  2.6729
   23MOL0     H 3056   5.852   0.384   8.993  1.5181  0.1708  0.0836
   23MOL0     H 3057   5.582   0.483   8.939 -0.7638  1.5548  0.0041
   23MOL0     H 3058   5.536   0.622   9.031  0.1037 -0.3978  1.2262
   23MOL0     H 3059   5.610   0.706   8.811  1.3764  1.5199  0.4627
   23MOL0     H 3060   5.741   0.588   8.814 -0.0767  0.5327 -1.6318
   23MOL0     H 3061   5.874   0.747   8.937 -0.9511 -0.8419  4.1597
   23MOL0     H 3062   5.739   0.820   9.012  2.9258 -0.3002  0.0241
   23MOL0     H 3063   5.782   0.998   8.857 -0.0704  1.6256 -1.9394
   23MOL0     H 3064   5.656   0.910   8.776  0.8223 -3.4766 -0.5426
   23MOL0     H 3065   5.803   0.767   8.467  3.4087  0.2196 -1.4839
   23MOL0     H 3066   5.834   0.825   8.173  1.4851 -4.2154  2.2142
   23MOL0     H 3067   5.738   0.727   8.272 -0.5362 -0.1063 -0.4148
   23MOL0     H 3068   5.655   0.855   8.191  0.5987 -2.3357 -3.0222
   23MOL0     H 3069   5.575   0.987   7.967  0.8887 -0.4181 -1.1891
   23MOL0     H 3070   5.501   1.080   7.727  0.2117  4.3605 -4.1114
   23MOL0     H 3071   5.728   1.227   7.518  0.2198 -0.2467  2.3328
   23MOL0     H 3072   5.594   1.106   7.530 -1.0255  0.5444 -0.1459
   23MOL0     H 3073   5.579   1.181   7.307 -1.9483 -0.6926  0.3204
   23MOL0     H 3074   5.452   1.290   7.380  0.4954  0.5314 -3.5801
   23MOL0     H 3075   5.559   1.436   7.258  1.5259  2.1979 -0.5602
   23MOL0     H 3076   5.708   1.359   7.261 -1.0019  1.0176  0.2224
   23MOL0     H 3077   5.577   1.510   7.485 -1.3690 -1.4647 -0.7860
   23MOL0     H 3078   5.749   1.447   7.511 -0.2541 -1.3605 -1.2308
   23MOL0     H 3079   5.659   1.660   7.315 -1.2934 -1.1477  0.0151
   23MOL0     H 3080   5.813   1.575   7.302 -0.4645  1.2589 -1.4132
   23MOL0     H 3081   5.758   1.805   7.492  4.0354  0.5895  0.9958
   23MOL0     H 3082   5.816   1.660   7.572 -2.3685 -0.4598 -0.1963
   23MOL0     H 3083   5.918   1.808   7.320 -0.1939 -0.2282 -0.1489
   23MOL0     H 3084   5.994   1.659   7.401 -1.3789  0.0557  0.1037
   23MOL0     H 3085   5.977   1.940   7.486  1.7727  0.6515  1.7060
   23MOL0     H 3086   6.117   1.838   7.464 -1.7731 -1.4904 -4.6497
   23MOL0     H 3087   5.735   1.430   7.798  0.0648  0.1277  1.9906
   23MOL0     H 3088   5.817   1.330   8.006  1.6377 -0.8684 -1.9009
   23MOL0     H 3089   5.781   1.257   8.463  3.8358  0.1166 -0.1685
   23MOL0     H 3090   5.832   1.156   8.664  1.8620 -0.9694  0.0437
   23MOL0     H 3091   6.263   0.706   8.295 -2.3747  2.4103  0.1454
   23MOL0     H 3092   6.335   0.807   8.083  2.2215  0.5504 -1.1321
   23MOL0     H 3093   6.392   1.113   7.857 -0.2437 -0.1000  3.7231
   23MOL0     H 3094   6.400   1.246   7.664 -0.0130 -2.0517 -0.4673
   23MOL0     H 3095   6.830   1.280   7.478 -0.3127 -2.2636 -1.0243
   23MOL0     H 3096   6.709   1.287   7.367  0.5521 -2.5352  1.1550
   23MOL0     H 3097   6.890   1.476   7.394 -0.2541  1.6755 -0.8359
   23MOL0     H 3098   6.793   1.529   7.534 -0.4219  0.7744 -0.1902
   23MOL0     H 3099   6.600   1.606   7.391 -0.2643 -0.0390  1.2063
   23MOL0     H 3100   6.641   1.471   7.278  1.2177 -0.5489  1.2989
   23MOL0     H 3101   6.702   1.706   7.172 -1.0812 -0.9924 -0.8472
   23MOL0     H 3102   6.847   1.605   7.197  2.6303  1.7357  0.4376
   23MOL0     H 3103   6.863   1.937   7.475 -1.2086  0.4312  0.9342
   23MOL0     H 3104   6.831   1.279   7.699 -1.7337 -0.6474 -2.4206
   23MOL0     H 3105   6.835   1.121   7.876 -1.0699 -1.4047  1.9957
   24MOL0     O 3106   9.435   0.133   7.344  0.4768 -0.0105 -0.2721
   24MOL0     C 3107   9.434   0.180   7.452 -0.3015  0.0112  0.2549
   24MOL0     O 3108   9.338   0.258   7.500  0.2108 -0.2899 -0.1579
   24MOL0     C 3109   9.271   0.344   7.417 -0.3146 -0.0354 -0.1674
   24MOL0     C 3110   9.306   0.374   7.288 -1.1667  0.2180  0.4841
   24MOL0     C 3111   9.230   0.454   7.217  1.0557  1.0181  0.3647
   24MOL0     C 3112   9.104   0.513   7.258 -0.5281  0.0389 -0.2937
   24MOL0     O 3113   9.023   0.578   7.161  0.1075  0.0644  0.0615
   24MOL0     C 3114   8.890   0.539   7.145 -0.2888 -0.5934  0.5246
   24MOL0     C 3115   8.873   0.416   7.059 -0.4376 -0.0686 -0.0380
   24MOL0     C 3116   8.719   0.367   7.066 -0.5093  0.2313 -0.0299
   24MOL0     C 3117   8.705   0.227   7.006 -0.0415  0.7862  0.4518
   24MOL0     C 3118   8.560   0.179   7.041  0.6711  0.0402 -1.0420
   24MOL0     C 3119   8.530   0.036   6.999  0.0610  0.1458 -0.9823
   24MOL0     C 3120   8.377  -0.005   6.998 -0.0300  0.1626 -0.6058
   24MOL0     C 3121   8.347  -0.120   6.898  0.3086 -0.4044  0.2042
   24MOL0     N 3122   8.230  -0.202   6.943 -0.2950  0.0846 -0.0132
   24MOL0     C 3123   8.204  -0.326   6.897  0.3047  0.3301 -1.3029
   24MOL0     C 3124   8.077  -0.339   6.943 -0.3921 -0.6456  0.1908
   24MOL0     C 3125   8.021  -0.478   6.924  0.4196  0.8874  0.7736
   24MOL0     C 3126   7.881  -0.493   6.983  0.1831  0.8301 -0.8768
   24MOL0     C 3127   7.823  -0.632   6.998 -0.0675 -0.0756 -0.5503
   24MOL0     C 3128   7.844  -0.702   7.139 -0.3405  0.3467 -0.0721
   24MOL0     O 3129   7.974  -0.681   7.201 -0.9522 -0.2278  0.4777
   24MOL0     C 3130   8.001  -0.709   7.335  0.0052 -0.3318  0.3876
   24MOL0     C 3131   7.909  -0.766   7.423  0.0573  1.1131  0.3361
   24MOL0     C 3132   7.938  -0.783   7.560 -0.4424 -1.1127 -0.0311
   24MOL0     C 3133   7.831  -0.836   7.654 -0.5315 -0.8772  0.8986
   24MOL0     C 3134   8.072  -0.752   7.606  1.0868 -0.3164 -0.1645
   24MOL0     C 3135   8.100  -0.793   7.746  0.3402  0.5091 -0.2146
   24MOL0     O 3136   8.170  -0.703   7.828 -0.1356 -0.3792  0.1968
   24MOL0     C 3137   8.200  -0.732   7.959  0.0707 -0.1686 -0.8358
   24MOL0     C 3138   8.120  -0.688   8.071  0.1935  0.2446  0.7605
   24MOL0     C 3139   8.168  -0.677   8.203 -0.3855 -0.1207  1.1520
   24MOL0     C 3140   8.301  -0.720   8.241 -0.7004 -0.3535 -0.1350
   24MOL0     O 3141   8.353  -0.722   8.366  0.1823 -0.0177 -0.9073
   24MOL0     C 3142   8.276  -0.666   8.475 -0.4844  0.1205  0.5258
   24MOL0     C 3143   8.348  -0.708   8.600  0.4158 -0.3035 -0.1327
   24MOL0     C 3144   8.284  -0.639   8.725 -0.1306  0.0502  0.9604
   24MOL0     C 3145   8.360  -0.706   8.848  0.2531 -0.5576  0.5277
   24MOL0     C 3146   8.307  -0.655   8.979 -0.6790  0.3153  0.4522
   24MOL0     C 3147   8.372  -0.746   9.087  0.2003 -1.2419 -0.0438
   24MOL0     C 3148   8.357  -0.682   9.221 -0.9498 -0.5360 -0.4230
   24MOL0     C 3149   8.302  -0.762   9.337 -0.3414 -0.8694  0.1815
   24MOL0    Cl 3150   8.269  -0.661   9.480  0.0592  0.2261 -0.0674
   24MOL0     C 3151   8.372  -0.780   8.129 -0.9760 -0.5531  0.1028
   24MOL0     C 3152   8.324  -0.785   7.997 -0.1604 -0.5069  0.1365
   24MOL0     O 3153   8.071  -0.907   7.780  0.5162 -0.1691 -0.2199
   24MOL0     C 3154   8.157  -0.693   7.517  0.5374 -0.1125 -0.3654
   24MOL0     C 3155   8.121  -0.662   7.383  0.0904  0.1681  0.0851
   24MOL0     N 3156   8.034  -0.225   7.009  0.1129  0.3887 -0.2137
   24MOL0     N 3157   8.135  -0.143   7.024 -0.3847  0.0339  0.5274
   24MOL0     C 3158   9.079   0.502   7.397  0.6655  0.7074  0.1843
   24MOL0     C 3159   9.158   0.407   7.472  0.0959  0.2379 -0.2239
   24MOL0     C 3160   9.545   0.138   7.546 -0.1297 -0.7117  0.5286
   24MOL0     C 3161   9.545   0.195   7.678  0.2407 -0.1575  0.4423
   24MOL0     C 3162   9.634   0.141   7.774 -0.4199  0.3775 -0.1588
   24MOL0     C 3163   9.729   0.049   7.743 -0.1893 -0.7490 -0.0480
   24MOL0     O 3164   9.836   0.018   7.826 -0.5443  0.5408 -0.0674
   24MOL0     C 3165   9.797   0.004   7.962  0.5344  0.4322  0.2832
   24MOL0     C 3166   9.847  -0.110   8.035 -0.7970  0.2573 -0.0535
   24MOL0     C 3167   9.790  -0.135   8.170 -0.2651 -0.2147 -0.7557
   24MOL0     C 3168   9.673  -0.233   8.178  0.3446 -0.7364  0.0489
   24MOL0     C 3169   9.563  -0.154   8.131 -0.2549 -0.1996 -0.2426
   24MOL0     C 3170   9.467  -0.090   8.092  0.5675  0.4297 -0.2876
   24MOL0     C 3171   9.739   0.012   7.610 -0.0924  0.4997  0.8683
   24MOL0     C 3172   9.651   0.055   7.511 -1.0151  0.0787 -1.0833
   24MOL0     H 3173   9.389   0.335   7.230 -1.0135  1.7792 -0.4053
   24MOL0     H 3174   9.250   0.484   7.114  3.1353 -2.1763 -0.3185
   24MOL0     H 3175   8.837   0.512   7.238 -3.8548 -3.6564 -2.0767
   24MOL0     H 3176   8.836   0.616   7.090  0.7479  0.5829  1.1010
   24MOL0     H 3177   8.895   0.414   6.952  1.5291 -1.3130  0.3308
   24MOL0     H 3178   8.937   0.341   7.107 -0.2153 -0.0992 -0.3781
   24MOL0     H 3179   8.710   0.354   7.174 -1.5720  0.9355 -0.0144
   24MOL0     H 3180   8.639   0.433   7.031 -1.2739  0.8998  2.7356
   24MOL0     H 3181   8.709   0.221   6.897 -0.1441  2.1638  0.3609
   24MOL0     H 3182   8.779   0.155   7.044 -3.0204 -1.9308  1.6340
   24MOL0     H 3183   8.551   0.185   7.149 -1.3613  2.9166 -1.2498
   24MOL0     H 3184   8.492   0.254   6.998  1.8054  1.6212 -0.1494
   24MOL0     H 3185   8.559   0.016   6.896 -3.2118 -0.4447 -1.8974
   24MOL0     H 3186   8.577  -0.041   7.061  0.8725  0.9089 -0.6353
   24MOL0     H 3187   8.347  -0.027   7.101 -1.7608 -1.0784 -1.3268
   24MOL0     H 3188   8.312   0.081   6.983  0.8242  1.4931  2.4772
   24MOL0     H 3189   8.444  -0.166   6.879  1.7843  2.8666 -0.9549
   24MOL0     H 3190   8.334  -0.073   6.800  2.9870  4.5557  1.8896
   24MOL0     H 3191   8.270  -0.389   6.838  0.9041  2.7438 -3.3468
   24MOL0     H 3192   8.000  -0.498   6.819  3.3728  1.8550 -0.0972
   24MOL0     H 3193   8.086  -0.552   6.970  0.0069  1.4741  2.3776
   24MOL0     H 3194   7.812  -0.432   6.924 -0.2872 -1.5261 -2.9271
   24MOL0     H 3195   7.874  -0.447   7.082 -2.6473 -3.0436  0.9787
   24MOL0     H 3196   7.849  -0.704   6.921 -2.7571 -0.5716 -1.0981
   24MOL0     H 3197   7.714  -0.628   6.992 -0.3892  2.3834  3.3751
   24MOL0     H 3198   7.830  -0.809   7.120 -4.9544  1.0444 -1.8369
   24MOL0     H 3199   7.765  -0.686   7.213 -0.0184  2.8859 -0.1891
   24MOL0     H 3200   7.817  -0.808   7.385 -1.7336  2.3016  3.0792
   24MOL0     H 3201   7.829  -0.784   7.750  0.1457  1.3659 -0.2318
   24MOL0     H 3202   7.736  -0.818   7.603 -0.8953 -2.9049  0.7825
   24MOL0     H 3203   7.847  -0.944   7.659  0.6385 -1.4751 -6.0126
   24MOL0     H 3204   8.021  -0.646   8.055  0.8642  1.3405 -0.6274
   24MOL0     H 3205   8.107  -0.629   8.278  0.8550  1.4131  1.2266
   24MOL0     H 3206   8.272  -0.557   8.467 -0.1712 -0.0284 -3.5223
   24MOL0     H 3207   8.178  -0.715   8.469 -1.1912  1.6614 -3.2095
   24MOL0     H 3208   8.330  -0.814   8.616 -0.1131  0.1574  3.0585
   24MOL0     H 3209   8.455  -0.690   8.588  0.7190 -2.5464 -1.3265
   24MOL0     H 3210   8.176  -0.656   8.729 -0.5295  2.1233  0.2827
   24MOL0     H 3211   8.296  -0.530   8.720  0.6484  0.0153  1.8009
   24MOL0     H 3212   8.367  -0.815   8.849  3.3272 -0.4332  1.6743
   24MOL0     H 3213   8.460  -0.663   8.851  0.9761 -2.0295  4.7142
   24MOL0     H 3214   8.198  -0.648   8.984 -0.5885  1.3353  1.7026
   24MOL0     H 3215   8.343  -0.552   8.987  0.8509 -0.0865 -0.9008
   24MOL0     H 3216   8.330  -0.847   9.089 -0.2270 -1.0584  0.6608
   24MOL0     H 3217   8.472  -0.768   9.048 -0.1999 -1.4514 -0.9628
   24MOL0     H 3218   8.306  -0.586   9.213 -1.0194 -0.4671  0.6633
   24MOL0     H 3219   8.459  -0.651   9.247 -0.7221  0.7884 -2.6482
   24MOL0     H 3220   8.367  -0.845   9.367  0.0894  0.1037  2.0765
   24MOL0     H 3221   8.222  -0.829   9.304  0.8052 -0.4597 -4.1100
   24MOL0     H 3222   8.476  -0.810   8.143 -0.2748  1.6454 -0.1215
   24MOL0     H 3223   8.399  -0.811   7.922 -0.4308  1.3084 -0.8230
   24MOL0     H 3224   8.260  -0.686   7.552  0.5664 -2.1439  0.0729
   24MOL0     H 3225   8.200  -0.616   7.324  1.2056 -0.1705  1.2521
   24MOL0     H 3226   8.999   0.567   7.433 -1.0839  0.0111 -2.1795
   24MOL0     H 3227   9.131   0.381   7.574  3.5740 -1.0015  0.5015
   24MOL0     H 3228   9.476   0.276   7.700  0.0852 -0.4600  1.1006
   24MOL0     H 3229   9.637   0.187   7.873  0.0058 -3.8655  1.9992
   24MOL0     H 3230   9.815   0.101   8.010  1.7441  0.0526  0.6151
   24MOL0     H 3231   9.691  -0.021   7.966  0.8420 -0.8456  2.0787
   24MOL0     H 3232   9.951  -0.090   8.060 -0.2052 -3.5206  1.3053
   24MOL0     H 3233   9.855  -0.207   7.985 -2.5064 -0.6446  1.2753
   24MOL0     H 3234   9.767  -0.042   8.223 -0.2338 -0.9197  0.5415
   24MOL0     H 3235   9.861  -0.187   8.234 -1.2862 -0.6882  0.0343
   24MOL0     H 3236   9.643  -0.264   8.279 -2.9905  1.7151  0.0134
   24MOL0     H 3237   9.678  -0.313   8.104 -0.2474 -2.0120  1.3506
   24MOL0     H 3238   9.381  -0.032   8.065  0.1944  2.0328  3.5667
   24MOL0     H 3239   9.819  -0.055   7.582  0.0508  1.3804 -0.9912
   24MOL0     H 3240   9.668   0.017   7.411 -0.8929 -3.6838  0.2028
   25MOL0     O 3241   3.481   8.279   4.139 -0.3431  0.2401 -0.3305
   25MOL0     C 3242   3.603   8.259   4.117  0.3112 -0.3882 -0.3991
   25MOL0     O 3243   3.690   8.359   4.078 -0.0745  0.5544 -0.1759
   25MOL0     C 3244   3.652   8.484   4.091  0.6689 -1.1490  0.6121
   25MOL0     C 3245   3.720   8.559   4.189 -0.2888  0.7591  1.0859
   25MOL0     C 3246   3.691   8.693   4.207 -0.6635 -0.2241  0.0155
   25MOL0     C 3247   3.595   8.756   4.124 -1.1893 -0.2560 -1.2649
   25MOL0     O 3248   3.569   8.889   4.141  0.8475  0.9903 -0.5674
   25MOL0     C 3249   3.656   8.983   4.067 -1.0404 -0.7223 -0.1493
   25MOL0     C 3250   3.781   9.014   4.147  0.2227 -0.4336 -0.7180
   25MOL0     C 3251   3.773   9.153   4.230  0.0752 -0.7190 -0.8793
   25MOL0     C 3252   3.672   9.156   4.346  0.4458  1.0341  0.9115
   25MOL0     C 3253   3.740   9.126   4.473  1.4965 -0.0969 -0.6418
   25MOL0     C 3254   3.641   9.107   4.585  0.1078 -0.7718  0.5917
   25MOL0     C 3255   3.691   9.051   4.717  0.0080 -0.6676 -0.2843
   25MOL0     C 3256   3.749   8.908   4.691 -0.0785 -0.8501 -0.1968
   25MOL0     N 3257   3.643   8.807   4.667  0.0168 -0.3655 -0.4227
   25MOL0     C 3258   3.610   8.747   4.552 -0.2960  0.0370 -0.4524
   25MOL0     C 3259   3.520   8.648   4.570  0.1116 -0.7151 -0.4535
   25MOL0     C 3260   3.449   8.572   4.464  0.3271  0.4244  0.1437
   25MOL0     C 3261   3.323   8.662   4.398  1.3040  0.3128 -0.2065
   25MOL0     C 3262   3.197   8.658   4.490 -0.6915  0.1904 -0.5531
   25MOL0     C 3263   3.214   8.761   4.608  0.2876  0.1289 -0.8442
   25MOL0     O 3264   3.099   8.745   4.697 -0.1057 -0.0811  0.4617
   25MOL0     C 3265   3.083   8.634   4.779  0.9645  0.4959 -0.3328
   25MOL0     C 3266   3.164   8.520   4.785 -0.2680 -0.3222 -0.2051
   25MOL0     C 3267   3.135   8.408   4.858 -0.9034  0.0954  0.3608
   25MOL0     C 3268   3.238   8.292   4.832 -0.1863  0.0268 -0.5604
   25MOL0     C 3269   3.022   8.396   4.934  0.0263 -0.0203 -0.3224
   25MOL0     C 3270   2.969   8.272   4.996  0.5571  1.1038  0.1959
   25MOL0     O 3271   2.890   8.285   5.107  0.8787  1.2832  0.0134
   25MOL0     C 3272   2.820   8.186   5.171 -0.1544 -0.1438  0.0113
   25MOL0     C 3273   2.741   8.233   5.277  0.3811  0.1561 -1.4975
   25MOL0     C 3274   2.657   8.149   5.349 -0.2643  0.3718  0.1352
   25MOL0     C 3275   2.642   8.011   5.310  0.2282 -0.0699  0.0914
   25MOL0     O 3276   2.560   7.938   5.391 -0.3505  0.6217 -0.4747
   25MOL0     C 3277   2.465   7.862   5.313  0.1083 -0.1557 -0.4906
   25MOL0     C 3278   2.373   7.809   5.416 -0.1027  1.0458  0.4875
   25MOL0     C 3279   2.232   7.800   5.355  0.0819  0.1005  0.4145
   25MOL0     C 3280   2.132   7.789   5.477 -0.0890  0.2136  1.2197
   25MOL0     C 3281   1.985   7.810   5.432 -0.0774 -0.1849 -0.4893
   25MOL0     C 3282   1.881   7.778   5.535 -1.2510 -0.3938  0.1121
   25MOL0     C 3283   1.731   7.798   5.490  0.2176  0.0476  0.2935
   25MOL0     C 3284   1.671   7.691   5.414  0.2754 -0.3770 -1.1576
   25MOL0    Cl 3285   1.530   7.764   5.317 -0.4285 -0.6179 -0.4099
   25MOL0     C 3286   2.700   7.969   5.196 -0.7634  0.1418 -0.4762
   25MOL0     C 3287   2.796   8.053   5.137  0.9636 -0.3368  0.4556
   25MOL0     O 3288   2.996   8.160   4.948 -0.4305 -0.4586 -0.6879
   25MOL0     C 3289   2.948   8.512   4.944 -0.1621  0.4219 -0.0889
   25MOL0     C 3290   2.974   8.627   4.867  0.0486  0.0000 -0.3220
   25MOL0     N 3291   3.508   8.643   4.715  0.3621 -0.1382  0.7665
   25MOL0     N 3292   3.576   8.740   4.769 -0.0016 -1.2482  0.0052
   25MOL0     C 3293   3.535   8.684   4.023 -0.8190 -0.4478  0.7848
   25MOL0     C 3294   3.559   8.550   4.012  0.2533  0.4132  0.5544
   25MOL0     C 3295   3.654   8.123   4.155  0.5457  0.2736 -0.1202
   25MOL0     C 3296   3.795   8.122   4.169 -0.6991 -0.1248  0.1397
   25MOL0     C 3297   3.860   7.998   4.171  1.1247 -0.2333 -0.5376
   25MOL0     C 3298   3.789   7.878   4.184 -0.5387  0.4684 -0.3627
   25MOL0     O 3299   3.864   7.764   4.197  0.5899  0.0223  0.4720
   25MOL0     C 3300   3.987   7.752   4.273 -0.1838 -0.1027  0.7287
   25MOL0     C 3301   3.947   7.755   4.425 -0.8505  0.5532  0.4874
   25MOL0     C 3302   3.904   7.891   4.477  0.2192  0.6167 -0.7784
   25MOL0     C 3303   3.912   7.900   4.629  0.1189 -0.0784 -0.3058
   25MOL0     C 3304   3.855   7.798   4.708  0.6494 -0.8177  0.2647
   25MOL0     C 3305   3.834   7.703   4.772 -0.5430  0.1048  0.4239
   25MOL0     C 3306   3.649   7.874   4.184 -1.1069 -0.2385 -0.4294
   25MOL0     C 3307   3.586   8.002   4.170  0.8662 -0.2696 -0.2264
   25MOL0     H 3308   3.793   8.512   4.254  2.9165  5.1015  1.1140
   25MOL0     H 3309   3.739   8.753   4.283 -0.6518  0.5526 -0.5877
   25MOL0     H 3310   3.680   8.924   3.978 -0.5299  0.9567 -1.1700
   25MOL0     H 3311   3.600   9.075   4.050 -0.4588 -0.1758  0.7795
   25MOL0     H 3312   3.817   8.925   4.201 -0.0954 -0.8029 -1.1047
   25MOL0     H 3313   3.854   9.021   4.066  0.4798 -0.2360 -0.4730
   25MOL0     H 3314   3.872   9.182   4.265  0.2993  0.2050 -2.2080
   25MOL0     H 3315   3.747   9.224   4.152  2.3232 -0.9982 -1.9410
   25MOL0     H 3316   3.637   9.260   4.346 -3.7281 -0.1991  0.1248
   25MOL0     H 3317   3.592   9.085   4.325  2.2804 -1.9404  3.1232
   25MOL0     H 3318   3.812   9.045   4.461 -1.0556 -2.8263  0.9909
   25MOL0     H 3319   3.800   9.211   4.506  2.0527 -0.3994 -0.8553
   25MOL0     H 3320   3.605   9.209   4.602 -2.7370 -1.3544 -1.1861
   25MOL0     H 3321   3.553   9.057   4.543 -0.7635  1.5090 -0.4636
   25MOL0     H 3322   3.768   9.104   4.774 -0.6024 -0.2223  0.1481
   25MOL0     H 3323   3.611   9.040   4.790  1.0026  0.0697  0.9554
   25MOL0     H 3324   3.794   8.868   4.783  0.7686 -1.3950 -0.8321
   25MOL0     H 3325   3.825   8.899   4.613 -1.1420 -0.3911 -1.3102
   25MOL0     H 3326   3.630   8.780   4.451 -2.8828  0.8289 -0.7752
   25MOL0     H 3327   3.519   8.537   4.388 -0.3926 -1.1133  0.1664
   25MOL0     H 3328   3.409   8.480   4.507 -0.3292  0.4752 -0.3537
   25MOL0     H 3329   3.286   8.637   4.298  0.2722  1.7576 -0.2179
   25MOL0     H 3330   3.362   8.764   4.398  0.9525  0.4499 -0.4648
   25MOL0     H 3331   3.193   8.552   4.518  2.2392  0.0809 -0.2709
   25MOL0     H 3332   3.106   8.688   4.438 -1.1845  1.9507  1.1779
   25MOL0     H 3333   3.215   8.860   4.561 -1.4384 -0.2257 -1.7245
   25MOL0     H 3334   3.308   8.737   4.659  0.2890 -1.6249 -1.6065
   25MOL0     H 3335   3.263   8.513   4.741 -1.2128 -1.5540 -2.3403
   25MOL0     H 3336   3.267   8.257   4.931 -2.8810 -0.4503  0.1370
   25MOL0     H 3337   3.193   8.213   4.772 -2.1005  2.3316 -2.3313
   25MOL0     H 3338   3.336   8.324   4.794  0.0377  0.7976  0.5949
   25MOL0     H 3339   2.748   8.336   5.312 -0.2170  0.7844 -3.1156
   25MOL0     H 3340   2.614   8.181   5.444 -1.6220 -1.6639  0.2564
   25MOL0     H 3341   2.417   7.927   5.240  0.4080  0.3848 -0.2106
   25MOL0     H 3342   2.511   7.775   5.265 -3.1948 -2.8085  0.6750
   25MOL0     H 3343   2.401   7.709   5.450  0.0593  0.6586 -0.7732
   25MOL0     H 3344   2.367   7.878   5.502  0.1614 -0.5439  1.8295
   25MOL0     H 3345   2.231   7.715   5.287  2.3535  1.7097 -1.8086
   25MOL0     H 3346   2.195   7.880   5.289  2.3471 -0.5380 -1.7718
   25MOL0     H 3347   2.165   7.702   5.534  3.5292  1.6122  1.5675
   25MOL0     H 3348   2.158   7.867   5.549  3.4473 -0.6657  1.1093
   25MOL0     H 3349   1.963   7.740   5.351 -2.4143 -3.7147  2.8340
   25MOL0     H 3350   1.986   7.910   5.388  3.7365 -1.0655 -2.9123
   25MOL0     H 3351   1.896   7.673   5.562 -2.8816 -1.1857 -1.8353
   25MOL0     H 3352   1.900   7.842   5.622 -0.5373  1.5600 -1.3973
   25MOL0     H 3353   1.718   7.890   5.433 -1.8622  0.8489  1.9412
   25MOL0     H 3354   1.677   7.823   5.582 -1.7333 -0.6216 -0.6188
   25MOL0     H 3355   1.623   7.628   5.490 -2.3769  1.9173 -0.7585
   25MOL0     H 3356   1.733   7.627   5.351  2.6652  0.9575 -0.3166
   25MOL0     H 3357   2.683   7.869   5.156  0.6601  0.3303 -1.6139
   25MOL0     H 3358   2.839   8.019   5.043 -0.8700 -1.6055  0.0284
   25MOL0     H 3359   2.854   8.522   4.998 -0.5445  1.0744 -0.8637
   25MOL0     H 3360   2.902   8.707   4.871 -0.0162 -0.0766  0.1304
   25MOL0     H 3361   3.469   8.716   3.943  0.6302 -1.4700 -0.8996
   25MOL0     H 3362   3.502   8.495   3.937  5.2562 -5.8523  0.4904
   25MOL0     H 3363   3.856   8.212   4.170 -2.7066  1.3527 -1.3703
   25MOL0     H 3364   3.969   8.003   4.175  1.3212 -2.3488  4.1024
   25MOL0     H 3365   4.044   7.662   4.248  0.5921 -0.1282  2.4132
   25MOL0     H 3366   4.058   7.830   4.242 -1.2486  2.1121  3.3355
   25MOL0     H 3367   4.039   7.718   4.471 -1.0471 -0.1548  0.3260
   25MOL0     H 3368   3.861   7.693   4.452 -0.8294  0.6026  0.6753
   25MOL0     H 3369   3.802   7.905   4.440 -0.4843 -1.1094  0.3737
   25MOL0     H 3370   3.970   7.965   4.431  2.3769 -0.6708  0.0810
   25MOL0     H 3371   3.876   7.999   4.657  0.4705 -0.2941  0.9776
   25MOL0     H 3372   4.018   7.897   4.656 -0.2953 -6.4134  2.2474
   25MOL0     H 3373   3.843   7.622   4.841  0.6202 -0.0973  0.0440
   25MOL0     H 3374   3.589   7.784   4.189  1.2030 -2.0206 -2.1875
   25MOL0     H 3375   3.478   8.002   4.163  0.7636 -1.7854  1.0953
   26MOL0     O 3376   1.112   7.799   1.176  0.0965  0.8635 -0.9296
   26MOL0     C 3377   1.071   7.704   1.114 -0.0271  0.6836 -0.1085
   26MOL0     O 3378   1.144   7.596   1.067 -0.5607 -0.3336  1.2199
   26MOL0     C 3379   1.272   7.592   1.101 -0.5552  0.5280  0.3849
   26MOL0     C 3380   1.358   7.607   0.982 -0.0798 -0.8810  1.1166
   26MOL0     C 3381   1.490   7.605   0.999 -1.2642  0.7786  0.7762
   26MOL0     C 3382   1.545   7.582   1.123  0.2200 -0.0259  1.2203
   26MOL0     O 3383   1.676   7.575   1.153  0.2905 -0.0763 -0.0722
   26MOL0     C 3384   1.763   7.586   1.042 -0.8161  1.0366  0.4692
   26MOL0     C 3385   1.900   7.537   1.097 -0.6589  0.2117 -0.4375
   26MOL0     C 3386   2.012   7.520   0.991  0.3495  0.7323 -0.4799
   26MOL0     C 3387   2.146   7.488   1.069  0.4623  0.1264  0.3068
   26MOL0     C 3388   2.231   7.615   1.101  0.2265  0.0719  0.4301
   26MOL0     C 3389   2.299   7.674   0.972  0.2226 -0.1451 -0.5591
   26MOL0     C 3390   2.385   7.589   0.886 -0.5108  0.0190 -0.3674
   26MOL0     C 3391   2.404   7.652   0.744 -0.7056 -0.9815 -0.1280
   26MOL0     N 3392   2.542   7.712   0.739  0.1840 -0.5773  1.1386
   26MOL0     C 3393   2.655   7.648   0.696  1.2079 -0.5365  0.7479
   26MOL0     C 3394   2.759   7.732   0.723 -0.1100 -0.8459 -0.1152
   26MOL0     C 3395   2.900   7.704   0.679  0.2934  0.4849 -0.8366
   26MOL0     C 3396   2.906   7.703   0.528  0.8707  1.7087  0.0181
   26MOL0     C 3397   3.045   7.686   0.480  0.5858  0.7242  0.6666
   26MOL0     C 3398   3.129   7.567   0.547  0.6670 -0.5093 -0.2751
   26MOL0     O 3399   3.254   7.555   0.486  0.2798 -0.7860 -0.1936
   26MOL0     C 3400   3.283   7.462   0.391  0.0322  0.4813 -0.2902
   26MOL0     C 3401   3.417   7.427   0.386 -0.1934 -0.0551  1.0969
   26MOL0     C 3402   3.464   7.333   0.292 -0.0774 -0.0413 -0.0276
   26MOL0     C 3403   3.612   7.297   0.285 -0.7691  0.6091 -0.2039
   26MOL0     C 3404   3.375   7.281   0.197 -0.9052 -0.0828  0.2304
   26MOL0     C 3405   3.400   7.184   0.096 -0.1106  0.6175  0.0951
   26MOL0     O 3406   3.330   7.188  -0.022  0.5366 -0.0931 -0.1424
   26MOL0     C 3407   3.339   7.092  -0.116 -0.4659 -0.2317  0.6898
   26MOL0     C 3408   3.339   7.138  -0.245 -0.0043  0.1627 -0.3329
   26MOL0     C 3409   3.333   7.049  -0.351 -0.0299  1.0413 -0.9714
   26MOL0     C 3410   3.330   6.902  -0.324 -0.6970  0.1403  0.1827
   26MOL0     O 3411   3.329   6.807  -0.426 -0.2519 -0.5082  0.0139
   26MOL0     C 3412   3.285   6.860  -0.554  0.7556  1.4452  0.4597
   26MOL0     C 3413   3.235   6.733  -0.630 -0.0754 -1.1704  0.4451
   26MOL0     C 3414   3.116   6.758  -0.707  0.6421  0.4144 -0.0459
   26MOL0     C 3415   3.082   6.641  -0.807  0.8261  0.2732 -0.3037
   26MOL0     C 3416   2.978   6.685  -0.927 -0.1748  0.1461  1.2066
   26MOL0     C 3417   2.841   6.718  -0.867  0.2579 -0.1250  1.0805
   26MOL0     C 3418   2.760   6.812  -0.958 -0.6614  0.3253  0.0228
   26MOL0     C 3419   2.655   6.748  -1.061  0.1865 -0.5544 -0.1492
   26MOL0    Cl 3420   2.734   6.598  -1.124  0.3318 -0.0136  0.2398
   26MOL0     C 3421   3.324   6.862  -0.189  0.1804 -0.0563  0.5998
   26MOL0     C 3422   3.330   6.955  -0.088  0.0910 -0.7034  0.6088
   26MOL0     O 3423   3.481   7.097   0.129 -0.3181  0.0552  0.7237
   26MOL0     C 3424   3.241   7.302   0.212  1.0889 -0.8767  0.6050
   26MOL0     C 3425   3.190   7.398   0.307 -0.6655  0.8612 -0.3756
   26MOL0     N 3426   2.717   7.851   0.770  0.0569  0.8951 -0.8972
   26MOL0     N 3427   2.583   7.841   0.772 -0.0902 -0.4230 -0.0399
   26MOL0     C 3428   1.460   7.563   1.238 -0.4528  0.5052  0.0464
   26MOL0     C 3429   1.322   7.567   1.226 -0.4353 -0.3328 -1.3999
   26MOL0     C 3430   0.930   7.705   1.077 -0.0705  0.0037 -1.0846
   26MOL0     C 3431   0.879   7.594   1.013  0.7332  0.3218 -0.2737
   26MOL0     C 3432   0.749   7.578   0.983  0.7128  0.2325 -0.2935
   26MOL0     C 3433   0.645   7.667   1.018  0.5025 -0.8361 -0.0189
   26MOL0     O 3434   0.509   7.650   1.021  0.9163 -0.0635  0.5593
   26MOL0     C 3435   0.457   7.522   0.989  0.3399  0.1756  0.5803
   26MOL0     C 3436   0.308   7.520   0.940  1.1066  0.7566  0.8876
   26MOL0     C 3437   0.223   7.605   1.024 -0.1074  0.2653 -0.6216
   26MOL0     C 3438   0.078   7.603   0.977 -0.1765  0.5772  0.3154
   26MOL0     C 3439   0.023   7.466   0.980  0.5028  0.0467  1.0811
   26MOL0     C 3440  -0.014   7.350   0.976  0.9232 -0.8202 -0.8018
   26MOL0     C 3441   0.697   7.787   1.089  0.0644 -0.3508 -1.0634
   26MOL0     C 3442   0.834   7.807   1.122  0.6281  0.1172  0.2835
   26MOL0     H 3443   1.313   7.614   0.883  0.2244  2.6544  1.1084
   26MOL0     H 3444   1.551   7.642   0.917 -3.7617 -2.3669 -2.8364
   26MOL0     H 3445   1.719   7.523   0.964 -0.4136  1.5537 -0.1859
   26MOL0     H 3446   1.783   7.689   1.011 -1.4463  0.9652 -0.1974
   26MOL0     H 3447   1.929   7.605   1.178 -1.9095  0.6600 -0.3406
   26MOL0     H 3448   1.875   7.435   1.126  0.0312 -0.6552 -2.6444
   26MOL0     H 3449   1.983   7.436   0.927  1.0140 -0.6706  0.9856
   26MOL0     H 3450   2.027   7.606   0.925  1.4787  1.9181  1.2474
   26MOL0     H 3451   2.126   7.445   1.167 -0.3107  0.0784  0.1358
   26MOL0     H 3452   2.197   7.409   1.013 -1.8409 -0.2955 -1.3472
   26MOL0     H 3453   2.172   7.693   1.150  0.7403 -1.1449  3.1908
   26MOL0     H 3454   2.308   7.586   1.174 -1.3772 -0.4640  1.9878
   26MOL0     H 3455   2.208   7.712   0.924 -0.4249 -1.0449 -0.0787
   26MOL0     H 3456   2.353   7.767   0.993 -1.8682  0.4910  2.9713
   26MOL0     H 3457   2.486   7.574   0.925 -0.4898  1.0946  0.0253
   26MOL0     H 3458   2.340   7.490   0.871  2.4049 -2.1618  3.3621
   26MOL0     H 3459   2.339   7.734   0.712  0.2838  0.1727  0.7158
   26MOL0     H 3460   2.408   7.568   0.675  3.1976 -2.5627  1.7295
   26MOL0     H 3461   2.654   7.547   0.657 -2.0632 -1.1764  2.1477
   26MOL0     H 3462   2.964   7.777   0.730  0.2727 -0.3849  0.4957
   26MOL0     H 3463   2.934   7.611   0.726 -0.1516  0.5035 -0.4631
   26MOL0     H 3464   2.868   7.794   0.481  0.9656  0.4212 -2.7550
   26MOL0     H 3465   2.842   7.621   0.497 -2.7135  4.6268 -0.9823
   26MOL0     H 3466   3.107   7.775   0.495  2.2980  0.5018 -3.7567
   26MOL0     H 3467   3.048   7.674   0.372  2.2160 -1.7471  0.8971
   26MOL0     H 3468   3.080   7.469   0.549  0.0249 -0.2040  1.8566
   26MOL0     H 3469   3.142   7.591   0.653 -1.8080 -0.8084  0.1679
   26MOL0     H 3470   3.479   7.473   0.462 -1.3364 -2.8096  3.8674
   26MOL0     H 3471   3.670   7.361   0.352 -0.5018  0.4434 -0.2751
   26MOL0     H 3472   3.621   7.193   0.318  1.0925  0.4935 -0.9502
   26MOL0     H 3473   3.646   7.316   0.183 -1.2321  3.1868  0.0581
   26MOL0     H 3474   3.328   7.244  -0.267 -3.2821 -0.2955 -1.6482
   26MOL0     H 3475   3.338   7.078  -0.455  1.1275  0.7442 -1.0186
   26MOL0     H 3476   3.195   6.918  -0.535  0.2596  0.3090  1.8309
   26MOL0     H 3477   3.356   6.919  -0.612  1.1876 -0.4962 -1.1174
   26MOL0     H 3478   3.312   6.695  -0.698 -1.2806 -1.6136 -0.7185
   26MOL0     H 3479   3.207   6.656  -0.557 -0.0536 -0.1816  1.5189
   26MOL0     H 3480   3.127   6.848  -0.768 -0.9185 -0.8191 -2.2897
   26MOL0     H 3481   3.033   6.771  -0.636  0.4083 -1.1002 -0.0165
   26MOL0     H 3482   3.171   6.617  -0.865  2.0453  2.5050  0.5271
   26MOL0     H 3483   3.051   6.552  -0.751  0.6601  0.0051 -0.8129
   26MOL0     H 3484   2.964   6.600  -0.995 -1.4046 -0.2622  1.9293
   26MOL0     H 3485   3.023   6.773  -0.974  2.5487 -1.1504  1.2116
   26MOL0     H 3486   2.787   6.626  -0.844  0.0296 -0.0777  0.7365
   26MOL0     H 3487   2.849   6.764  -0.767 -0.6973 -1.3556  1.7509
   26MOL0     H 3488   2.832   6.859  -1.026 -1.9637 -1.9484 -3.1932
   26MOL0     H 3489   2.700   6.881  -0.899 -2.8357 -2.6628  1.5728
   26MOL0     H 3490   2.627   6.822  -1.137 -0.5416  1.5697  2.0675
   26MOL0     H 3491   2.570   6.725  -0.996 -0.8024 -1.6792 -1.7863
   26MOL0     H 3492   3.323   6.756  -0.166  2.6419 -0.3639 -0.4651
   26MOL0     H 3493   3.318   6.921   0.014 -0.8875  1.9999  1.4866
   26MOL0     H 3494   3.162   7.272   0.145 -0.6642  1.9171  1.2573
   26MOL0     H 3495   3.083   7.416   0.313 -0.5447  2.0717 -1.4429
   26MOL0     H 3496   1.497   7.533   1.336 -2.3715  1.0985  0.9933
   26MOL0     H 3497   1.254   7.570   1.310  0.7611  0.4539 -0.4256
   26MOL0     H 3498   0.952   7.518   0.987  1.7431  0.4881  1.8333
   26MOL0     H 3499   0.721   7.484   0.937  0.1753 -0.9303  2.2568
   26MOL0     H 3500   0.509   7.498   0.896 -0.9623  2.9991 -0.9741
   26MOL0     H 3501   0.472   7.446   1.067  1.6386  0.4380  0.6238
   26MOL0     H 3502   0.283   7.417   0.916  1.5039  1.5873 -4.3483
   26MOL0     H 3503   0.303   7.558   0.838 -0.1656 -2.3166 -0.3049
   26MOL0     H 3504   0.254   7.710   1.018 -3.9974  2.0346  3.8799
   26MOL0     H 3505   0.238   7.578   1.128  2.5894  0.5747 -0.8700
   26MOL0     H 3506   0.070   7.626   0.870 -0.2428 -1.1014 -0.0660
   26MOL0     H 3507   0.028   7.687   1.027 -0.1620  3.1819 -3.6088
   26MOL0     H 3508  -0.046   7.249   0.965  1.8675 -1.1014 -1.0431
   26MOL0     H 3509   0.635   7.873   1.113  1.5911  2.2335 -5.1655
   26MOL0     H 3510   0.860   7.893   1.183 -0.9323  0.5070  0.4285
   27MOL0     O 3511   7.268  10.192   1.483  0.5050 -0.1460 -0.9568
   27MOL0     C 3512   7.274  10.164   1.363  0.4910  0.3076  0.8233
   27MOL0     O 3513   7.171  10.100   1.298 -0.5089 -0.2382 -0.3329
   27MOL0     C 3514   7.071  10.032   1.358  0.4494 -0.5526  0.0523
   27MOL0     C 3515   6.946  10.025   1.289 -0.7243  0.4212 -0.0101
   27MOL0     C 3516   6.840   9.956   1.336  0.0115  0.8102 -0.5017
   27MOL0     C 3517   6.851   9.886   1.458  0.4724 -1.5169 -0.0305
   27MOL0     O 3518   6.753   9.813   1.512  0.4550 -0.8856 -0.6377
   27MOL0     C 3519   6.644   9.767   1.430  0.5431  0.3560 -0.0427
   27MOL0     C 3520   6.556   9.686   1.509  0.6890  0.2191  0.6227
   27MOL0     C 3521   6.477   9.760   1.614  1.1106 -0.3810 -1.0756
   27MOL0     C 3522   6.357   9.673   1.668  0.8544  0.5684  0.6137
   27MOL0     C 3523   6.283   9.730   1.796 -0.3544 -0.0130  0.4555
   27MOL0     C 3524   6.248   9.873   1.812 -0.0603 -0.8697 -0.4848
   27MOL0     C 3525   6.198   9.907   1.963 -0.3528  0.5631  0.1804
   27MOL0     C 3526   6.320   9.904   2.057  0.6710 -0.0113 -0.3445
   27MOL0     N 3527   6.419  10.016   2.033  1.2471  0.3678 -0.2446
   27MOL0     C 3528   6.525   9.990   1.953  0.3733 -0.6507 -0.3916
   27MOL0     C 3529   6.566  10.114   1.906  1.7552  0.2512  0.0760
   27MOL0     C 3530   6.671  10.123   1.796  0.2974  0.5425 -0.2408
   27MOL0     C 3531   6.737  10.263   1.791  0.1379  0.4586  0.0135
   27MOL0     C 3532   6.854  10.273   1.701  1.1161  0.5277  0.4848
   27MOL0     C 3533   6.911  10.410   1.691 -0.0194 -1.1059 -0.8398
   27MOL0     O 3534   7.013  10.421   1.600  0.0374 -0.1547 -0.2441
   27MOL0     C 3535   7.065  10.547   1.572  0.0423  0.8311 -0.2635
   27MOL0     C 3536   7.194  10.541   1.517 -0.8327  0.0419  0.1085
   27MOL0     C 3537   7.263  10.654   1.484  1.5431 -0.4359  0.8033
   27MOL0     C 3538   7.391  10.629   1.414  0.1682  0.2293  0.1373
   27MOL0     C 3539   7.212  10.781   1.512  0.2984 -0.5285 -0.0383
   27MOL0     C 3540   7.292  10.900   1.486  0.5647  0.7086 -0.8325
   27MOL0     O 3541   7.230  11.016   1.446 -0.0379 -0.4399 -0.4081
   27MOL0     C 3542   7.321  11.092   1.367 -0.6648 -1.3488 -0.6351
   27MOL0     C 3543   7.306  11.101   1.231  0.9280 -0.0335  0.7809
   27MOL0     C 3544   7.375  11.197   1.153  0.2789 -0.7876 -0.7866
   27MOL0     C 3545   7.487  11.263   1.206  0.3605  0.6252  0.2173
   27MOL0     O 3546   7.562  11.354   1.135 -0.1704 -0.1781  0.1210
   27MOL0     C 3547   7.544  11.361   0.995  0.4596 -0.1396  0.4683
   27MOL0     C 3548   7.679  11.406   0.937  0.0792 -0.2089  0.5646
   27MOL0     C 3549   7.671  11.399   0.786  0.3074  0.0096 -0.5631
   27MOL0     C 3550   7.792  11.464   0.715  0.9280 -0.2986  0.4002
   27MOL0     C 3551   7.927  11.399   0.751  0.6148 -0.0069  0.9812
   27MOL0     C 3552   7.939  11.253   0.683  0.6108  0.8390 -0.4983
   27MOL0     C 3553   8.084  11.194   0.686 -0.3277  0.2413  0.7208
   27MOL0     C 3554   8.126  11.144   0.820  0.3796  0.3332  0.2403
   27MOL0    Cl 3555   8.293  11.084   0.843 -0.6508 -0.2209  0.2516
   27MOL0     C 3556   7.504  11.255   1.351 -0.7789  0.9848  0.6077
   27MOL0     C 3557   7.422  11.172   1.425 -0.0652 -0.0833 -0.8202
   27MOL0     O 3558   7.416  10.899   1.525  0.9462  0.1760 -0.3605
   27MOL0     C 3559   7.077  10.789   1.571  0.6704 -0.1014 -0.9404
   27MOL0     C 3560   7.007  10.665   1.601  0.0711 -1.0691 -0.2819
   27MOL0     N 3561   6.481  10.203   1.962  0.2584 -0.4666 -0.0791
   27MOL0     N 3562   6.398  10.151   2.047  0.3960 -0.0572  0.1717
   27MOL0     C 3563   6.967   9.895   1.533 -0.7112 -0.5928 -0.2932
   27MOL0     C 3564   7.071   9.966   1.480  0.5704 -0.4923  0.1322
   27MOL0     C 3565   7.393  10.199   1.293  0.4873  0.5443  0.4702
   27MOL0     C 3566   7.390  10.221   1.158 -0.1843 -1.5150 -0.1454
   27MOL0     C 3567   7.509  10.261   1.093 -0.1771  0.7166  0.0286
   27MOL0     C 3568   7.639  10.268   1.156  0.2573 -0.8037 -0.1957
   27MOL0     O 3569   7.761  10.306   1.106  0.7647 -0.0827  0.1588
   27MOL0     C 3570   7.781  10.310   0.964 -0.3571 -0.2624  0.4530
   27MOL0     C 3571   7.728  10.444   0.903  0.1553 -0.9011  0.8175
   27MOL0     C 3572   7.786  10.571   0.948  0.0446 -0.4161  1.2052
   27MOL0     C 3573   7.936  10.572   0.962  0.4831  0.2275 -0.4032
   27MOL0     C 3574   7.981  10.513   1.086 -0.2599 -1.2146  0.3224
   27MOL0     C 3575   8.006  10.474   1.199 -0.0848 -0.1109 -0.1396
   27MOL0     C 3576   7.629  10.241   1.291  0.0015  0.0145 -0.2457
   27MOL0     C 3577   7.511  10.210   1.361 -0.0399 -0.2836  0.2458
   27MOL0     H 3578   6.940  10.096   1.207  1.7015  0.5356 -0.1778
   27MOL0     H 3579   6.752   9.957   1.272 -1.0378 -0.6950  0.8280
   27MOL0     H 3580   6.583   9.851   1.397 -1.5552  0.5638  3.7309
   27MOL0     H 3581   6.684   9.715   1.343 -1.6854 -2.8210  0.6433
   27MOL0     H 3582   6.479   9.648   1.441  0.3519 -1.9498  2.0913
   27MOL0     H 3583   6.615   9.606   1.556  0.7194  1.2023  2.3153
   27MOL0     H 3584   6.534   9.785   1.704 -1.2113  0.5489  0.2189
   27MOL0     H 3585   6.438   9.856   1.580 -0.8102 -1.1430 -1.1712
   27MOL0     H 3586   6.281   9.674   1.589  1.1815  0.5014  0.2966
   27MOL0     H 3587   6.381   9.569   1.688 -0.1543 -0.4111 -2.5919
   27MOL0     H 3588   6.187   9.676   1.797  1.6478 -4.1066  3.5598
   27MOL0     H 3589   6.342   9.681   1.875 -0.1061 -2.1358 -0.9579
   27MOL0     H 3590   6.334   9.934   1.782  1.8942 -3.2590 -0.0380
   27MOL0     H 3591   6.168   9.902   1.743  1.0232  1.1047 -0.9753
   27MOL0     H 3592   6.149  10.005   1.964 -3.6995 -0.9593  1.4054
   27MOL0     H 3593   6.124   9.833   1.994 -1.6558  2.7194  2.5456
   27MOL0     H 3594   6.366   9.806   2.045  2.4923  1.0879 -3.9321
   27MOL0     H 3595   6.285   9.915   2.160  1.8729  0.6096  0.0255
   27MOL0     H 3596   6.577   9.899   1.929  3.6165  1.0442 -0.3081
   27MOL0     H 3597   6.747  10.044   1.792 -1.4113 -1.1407 -4.1589
   27MOL0     H 3598   6.614  10.114   1.704 -1.1679  1.3673  0.5541
   27MOL0     H 3599   6.765  10.296   1.892  1.6422  1.1948 -0.6190
   27MOL0     H 3600   6.661  10.330   1.749  0.6248 -0.5540 -2.6800
   27MOL0     H 3601   6.816  10.252   1.601 -1.4692  0.6580  1.3587
   27MOL0     H 3602   6.933  10.201   1.722  1.4916  0.8382  0.1381
   27MOL0     H 3603   6.951  10.446   1.787 -0.7698 -0.0207 -0.9176
   27MOL0     H 3604   6.835  10.486   1.672  1.4971  1.6974  2.8427
   27MOL0     H 3605   7.230  10.444   1.484  1.8832  0.4126  1.6791
   27MOL0     H 3606   7.375  10.660   1.310 -0.0727 -1.4123 -0.3349
   27MOL0     H 3607   7.470  10.680   1.470 -1.9048  2.6362  1.0163
   27MOL0     H 3608   7.429  10.527   1.409  1.4588  0.5657  1.9131
   27MOL0     H 3609   7.223  11.042   1.192 -1.2569  0.9263  3.6197
   27MOL0     H 3610   7.341  11.198   1.050 -1.8521 -0.6574 -0.1522
   27MOL0     H 3611   7.515  11.264   0.953  2.4935 -1.8046  2.6814
   27MOL0     H 3612   7.465  11.437   0.986 -0.6440 -1.1696  1.1468
   27MOL0     H 3613   7.685  11.508   0.974 -0.6874 -0.2850  0.9170
   27MOL0     H 3614   7.754  11.338   0.979 -0.1685  0.6867  2.5782
   27MOL0     H 3615   7.576  11.445   0.756  0.8649  0.7397 -1.2266
   27MOL0     H 3616   7.657  11.297   0.749 -2.3285  0.7277 -1.8554
   27MOL0     H 3617   7.773  11.464   0.607  0.7217  4.0368  0.2871
   27MOL0     H 3618   7.809  11.567   0.747  0.2246  0.1695 -0.6651
   27MOL0     H 3619   7.952  11.399   0.857 -1.3990  4.1941  1.6650
   27MOL0     H 3620   8.002  11.459   0.700 -0.9017  1.1841  0.0588
   27MOL0     H 3621   7.878  11.188   0.747 -0.2519  2.2330  0.1479
   27MOL0     H 3622   7.899  11.250   0.581 -0.9669 -0.4654  0.1138
   27MOL0     H 3623   8.152  11.278   0.664  0.2102 -0.7909 -2.0286
   27MOL0     H 3624   8.115  11.116   0.616  0.9832  1.8413 -0.5786
   27MOL0     H 3625   8.061  11.059   0.844  2.0204 -0.4551  2.1552
   27MOL0     H 3626   8.095  11.220   0.891 -3.3008 -0.0833 -0.7293
   27MOL0     H 3627   7.585  11.308   1.400  1.7795 -1.2409 -0.9082
   27MOL0     H 3628   7.434  11.158   1.532 -3.2990 -1.8387 -0.5655
   27MOL0     H 3629   7.031  10.884   1.595 -0.4519 -1.1829  1.4622
   27MOL0     H 3630   6.912  10.677   1.651 -1.8793  1.1250 -4.0467
   27MOL0     H 3631   6.974   9.871   1.638  2.9538  0.3617 -0.1838
   27MOL0     H 3632   7.163   9.970   1.536  1.5156  0.0344 -1.4072
   27MOL0     H 3633   7.303  10.222   1.094  0.6392  0.4032 -1.3135
   27MOL0     H 3634   7.502  10.278   0.986  1.3122  1.6100  0.0381
   27MOL0     H 3635   7.889  10.293   0.958 -0.1309  0.5154  1.8403
   27MOL0     H 3636   7.736  10.234   0.899 -1.5892  0.6098  0.2403
   27MOL0     H 3637   7.621  10.448   0.925  0.2530 -1.5543  1.4485
   27MOL0     H 3638   7.750  10.435   0.796  2.5803 -2.8187  1.3862
   27MOL0     H 3639   7.744  10.592   1.046 -2.5608 -1.6136  0.4339
   27MOL0     H 3640   7.749  10.645   0.877 -1.4613 -0.0528  2.3175
   27MOL0     H 3641   7.957  10.679   0.973 -2.9921  1.1968 -2.0327
   27MOL0     H 3642   7.996  10.530   0.881  1.8132  0.4685  0.4262
   27MOL0     H 3643   8.021  10.428   1.294 -1.0776 -0.9830 -0.3954
   27MOL0     H 3644   7.724  10.241   1.344 -1.6295  0.6590  2.9799
   27MOL0     H 3645   7.502  10.181   1.465 -0.8190  2.0277  0.8845
   28MOL0     O 3646   8.393   7.196   5.089 -0.0533  0.0685 -0.5430
   28MOL0     C 3647   8.445   7.302   5.057  0.0831  0.1513  0.6539
   28MOL0     O 3648   8.494   7.393   5.145 -0.1921  0.9302  0.6529
   28MOL0     C 3649   8.448   7.381   5.270  0.4132  0.1361  0.9798
   28MOL0     C 3650   8.333   7.456   5.305  0.0233 -0.6005 -0.5657
   28MOL0     C 3651   8.278   7.431   5.432  0.0849 -0.9663 -0.9694
   28MOL0     C 3652   8.328   7.336   5.523  0.3874 -0.8241  0.0170
   28MOL0     O 3653   8.268   7.310   5.646 -0.1636 -0.3464  0.2207
   28MOL0     C 3654   8.315   7.408   5.741 -0.8136  0.6443 -0.7044
   28MOL0     C 3655   8.212   7.523   5.742 -0.6657 -0.1363  0.0828
   28MOL0     C 3656   8.271   7.655   5.800  0.1762 -0.4702  1.0491
   28MOL0     C 3657   8.283   7.649   5.951  0.2785 -0.8334 -0.4777
   28MOL0     C 3658   8.350   7.769   6.021  0.0096  0.1254  0.3159
   28MOL0     C 3659   8.407   7.737   6.170  0.0352  0.3389 -0.1222
   28MOL0     C 3660   8.303   7.740   6.282 -0.3803  0.0550 -0.3033
   28MOL0     C 3661   8.200   7.626   6.273 -0.0333 -0.4888 -0.2371
   28MOL0     N 3662   8.174   7.565   6.407  0.5725 -0.1537  0.0414
   28MOL0     C 3663   8.089   7.630   6.497  1.2475 -0.0452 -1.0049
   28MOL0     C 3664   8.116   7.568   6.616  0.2266  0.2130 -0.0590
   28MOL0     C 3665   8.068   7.618   6.747  0.0211 -0.5047 -1.2367
   28MOL0     C 3666   8.182   7.622   6.857  0.4597  0.4864  0.1266
   28MOL0     C 3667   8.196   7.487   6.923 -0.4549  0.8265 -0.4641
   28MOL0     C 3668   8.082   7.450   7.011  0.6025 -1.0117 -0.1084
   28MOL0     O 3669   8.041   7.554   7.106  0.2767  0.1379 -0.5265
   28MOL0     C 3670   8.058   7.549   7.242 -0.1717  0.3014  0.2576
   28MOL0     C 3671   8.088   7.427   7.320  0.4199 -0.0572  0.4671
   28MOL0     C 3672   8.103   7.439   7.461  0.2439 -0.6261 -0.3668
   28MOL0     C 3673   8.145   7.309   7.522  0.3261  0.6163  0.1217
   28MOL0     C 3674   8.105   7.566   7.523  0.5487  0.3196  0.4142
   28MOL0     C 3675   8.144   7.580   7.662  0.6581 -0.2877  0.7941
   28MOL0     O 3676   8.067   7.678   7.732  0.3159  0.7477  0.0956
   28MOL0     C 3677   8.072   7.691   7.868 -0.8251 -0.4555 -1.1978
   28MOL0     C 3678   7.975   7.637   7.948 -1.4368  0.3207 -0.2531
   28MOL0     C 3679   7.965   7.670   8.078  0.0021  0.4544  0.2956
   28MOL0     C 3680   8.043   7.771   8.133 -0.8905  1.3393  0.3723
   28MOL0     O 3681   8.030   7.788   8.270  0.0661 -0.8227  0.4197
   28MOL0     C 3682   8.116   7.879   8.340  0.9775 -0.1506  0.7722
   28MOL0     C 3683   8.120   7.847   8.490  0.3352 -0.4302  0.5326
   28MOL0     C 3684   7.982   7.862   8.558 -0.1350  0.6787 -0.1426
   28MOL0     C 3685   8.007   7.852   8.712  0.3128 -0.2225 -0.1136
   28MOL0     C 3686   7.882   7.881   8.783 -0.2284 -0.6176 -0.1653
   28MOL0     C 3687   7.896   7.841   8.932 -0.8607  1.0380 -0.0898
   28MOL0     C 3688   7.765   7.869   9.006 -0.4963 -0.6595 -0.3447
   28MOL0     C 3689   7.747   8.010   9.029  1.0410 -0.9530 -0.5732
   28MOL0    Cl 3690   7.853   8.067   9.165 -0.2533 -0.2887 -0.1089
   28MOL0     C 3691   8.132   7.835   8.051 -0.2426  0.4019 -0.1579
   28MOL0     C 3692   8.159   7.795   7.915 -0.4584  0.2805 -0.2465
   28MOL0     O 3693   8.229   7.516   7.716  0.0759 -0.4771 -0.7852
   28MOL0     C 3694   8.084   7.681   7.442  1.8991  0.1182 -0.2363
   28MOL0     C 3695   8.049   7.671   7.308  0.0735  1.0718 -0.0078
   28MOL0     N 3696   8.216   7.469   6.591  0.5942 -0.1070  0.0483
   28MOL0     N 3697   8.254   7.480   6.469  0.5187  0.1265  0.7707
   28MOL0     C 3698   8.457   7.284   5.490 -0.5244 -0.4030 -0.2654
   28MOL0     C 3699   8.512   7.307   5.364 -0.5242  0.0150  0.4223
   28MOL0     C 3700   8.437   7.314   4.904 -0.5140 -0.6603 -0.3606
   28MOL0     C 3701   8.468   7.448   4.851  0.2821  0.5130  0.9943
   28MOL0     C 3702   8.454   7.472   4.710 -0.6494  0.9668 -0.6573
   28MOL0     C 3703   8.419   7.363   4.619 -0.0342 -0.1813 -0.3727
   28MOL0     O 3704   8.412   7.395   4.493 -0.5814  0.1800  0.6859
   28MOL0     C 3705   8.402   7.291   4.382 -0.4322  0.1907  0.2979
   28MOL0     C 3706   8.388   7.373   4.252 -0.7001  0.4592 -0.2982
   28MOL0     C 3707   8.266   7.461   4.271  0.1862  0.6108  0.4493
   28MOL0     C 3708   8.206   7.531   4.154  0.4036 -1.3797  0.2918
   28MOL0     C 3709   8.123   7.445   4.070 -0.6235 -0.5147 -0.0010
   28MOL0     C 3710   8.056   7.373   3.997 -0.5440 -0.3465  0.3606
   28MOL0     C 3711   8.392   7.235   4.676 -0.8023  0.4460  0.8583
   28MOL0     C 3712   8.397   7.214   4.812 -0.1452  0.2901  0.5562
   28MOL0     H 3713   8.295   7.530   5.235  3.4850  2.7652  0.7599
   28MOL0     H 3714   8.192   7.492   5.455  0.8291 -0.4536  0.6192
   28MOL0     H 3715   8.324   7.364   5.841 -1.5025  2.1412  0.0496
   28MOL0     H 3716   8.406   7.458   5.705 -1.2797  2.1180  0.0871
   28MOL0     H 3717   8.163   7.537   5.646 -3.0175 -1.3898  1.0193
   28MOL0     H 3718   8.127   7.494   5.805 -1.9497  0.0653 -1.4798
   28MOL0     H 3719   8.371   7.667   5.756 -1.1133  0.2233 -1.9576
   28MOL0     H 3720   8.205   7.739   5.777  0.0225 -1.1584 -1.3550
   28MOL0     H 3721   8.182   7.637   5.993  0.0120  1.3677 -0.3859
   28MOL0     H 3722   8.340   7.561   5.982  1.2327  0.2086  0.8379
   28MOL0     H 3723   8.438   7.795   5.961  0.7943  0.6180  1.6256
   28MOL0     H 3724   8.289   7.859   6.034  0.7610  0.6514  0.3173
   28MOL0     H 3725   8.458   7.640   6.165 -1.3919 -0.3877 -3.0794
   28MOL0     H 3726   8.485   7.812   6.185 -2.0895  2.6110  0.2541
   28MOL0     H 3727   8.362   7.725   6.373  2.5871 -0.1981 -2.1238
   28MOL0     H 3728   8.240   7.829   6.268 -1.3802 -1.0147 -3.4886
   28MOL0     H 3729   8.250   7.550   6.212 -1.2401 -0.6227 -1.0879
   28MOL0     H 3730   8.114   7.666   6.219  0.2708  1.8874  0.9166
   28MOL0     H 3731   8.024   7.716   6.492 -1.7415 -1.8976  2.0171
   28MOL0     H 3732   8.013   7.712   6.733 -3.4205 -1.5647  2.9010
   28MOL0     H 3733   7.987   7.549   6.774 -0.8672  0.4182 -1.4670
   28MOL0     H 3734   8.159   7.692   6.938  1.3716  1.3092 -0.2960
   28MOL0     H 3735   8.280   7.647   6.815  1.6300  1.2488  3.0705
   28MOL0     H 3736   8.289   7.494   6.980  1.2345 -2.3255 -2.5427
   28MOL0     H 3737   8.219   7.409   6.849  1.1915  0.1039  0.7599
   28MOL0     H 3738   8.124   7.361   7.058  4.7550  0.7505 -0.1138
   28MOL0     H 3739   7.999   7.429   6.943 -1.5144 -0.3212  2.1032
   28MOL0     H 3740   8.103   7.326   7.284 -0.3392 -0.2674  0.7276
   28MOL0     H 3741   8.254   7.297   7.521  0.1192 -2.2166 -1.8994
   28MOL0     H 3742   8.090   7.280   7.612 -1.7043 -0.6420 -1.4271
   28MOL0     H 3743   8.111   7.220   7.468 -2.1099  0.2971  2.0175
   28MOL0     H 3744   7.904   7.567   7.906 -0.2179 -0.5619 -0.9108
   28MOL0     H 3745   7.886   7.626   8.137 -1.1005  2.1181  0.1162
   28MOL0     H 3746   8.220   7.869   8.308  0.6806  0.8418 -0.5667
   28MOL0     H 3747   8.084   7.981   8.318  0.5537 -0.6818 -1.2657
   28MOL0     H 3748   8.130   7.738   8.486  2.7038 -0.2457 -0.6671
   28MOL0     H 3749   8.196   7.913   8.533 -0.8977  1.1451  0.3914
   28MOL0     H 3750   7.905   7.800   8.512 -0.9040  3.3834 -2.8512
   28MOL0     H 3751   7.937   7.962   8.550  0.6377  0.9833 -0.9394
   28MOL0     H 3752   8.036   7.747   8.724 -1.1941 -0.6451 -0.0187
   28MOL0     H 3753   8.092   7.911   8.747  0.2003  0.1808 -0.5252
   28MOL0     H 3754   7.793   7.845   8.730 -1.6600  2.2097  0.1376
   28MOL0     H 3755   7.879   7.990   8.779  3.4753 -0.3182  1.3800
   28MOL0     H 3756   7.927   7.737   8.944  1.3253  1.3450 -2.2172
   28MOL0     H 3757   7.972   7.915   8.957  1.4237 -0.9442 -0.8807
   28MOL0     H 3758   7.760   7.827   9.107 -1.2125  3.7674  1.6919
   28MOL0     H 3759   7.678   7.831   8.951 -3.0906  1.5151  1.9060
   28MOL0     H 3760   7.646   8.029   9.066  1.4025  0.7181 -0.3581
   28MOL0     H 3761   7.754   8.069   8.938  3.2804  0.9629  0.7022
   28MOL0     H 3762   8.196   7.912   8.094 -0.6475  0.1566  0.9354
   28MOL0     H 3763   8.239   7.843   7.859  0.3513 -3.4419 -2.6681
   28MOL0     H 3764   8.097   7.781   7.483  1.9988  1.3452 -3.0619
   28MOL0     H 3765   8.035   7.764   7.254 -1.4998  0.6686 -0.3323
   28MOL0     H 3766   8.490   7.205   5.555 -1.1714 -0.5482 -0.1064
   28MOL0     H 3767   8.598   7.256   5.320 -3.2553 -3.1065 -1.8715
   28MOL0     H 3768   8.500   7.529   4.916  2.9082  1.0163 -0.7918
   28MOL0     H 3769   8.479   7.568   4.666 -2.1638  1.3836 -0.6708
   28MOL0     H 3770   8.492   7.228   4.383  0.3720  1.2941  1.5752
   28MOL0     H 3771   8.319   7.226   4.408 -1.5643  2.2064  2.0393
   28MOL0     H 3772   8.374   7.318   4.158 -2.2980  1.3951 -0.6435
   28MOL0     H 3773   8.482   7.428   4.241  1.3326 -2.9250 -1.0293
   28MOL0     H 3774   8.299   7.539   4.341 -0.6971  0.0076  1.5746
   28MOL0     H 3775   8.184   7.411   4.323  0.2734  0.1226  0.1229
   28MOL0     H 3776   8.292   7.574   4.102  0.1009 -1.5643 -0.3661
   28MOL0     H 3777   8.147   7.618   4.185  3.6129  0.6638  1.1515
   28MOL0     H 3778   7.997   7.307   3.938  1.5894 -1.4716 -0.6223
   28MOL0     H 3779   8.386   7.155   4.604 -3.9684  2.1051 -0.9720
   28MOL0     H 3780   8.393   7.113   4.853  2.0256 -0.9930 -2.0624
   29MOL0     O 3781   9.000   3.192   3.909 -0.2890  0.2018 -0.2637
   29MOL0     C 3782   8.913   3.267   3.886 -0.0832 -0.6685  0.3903
   29MOL0     O 3783   8.930   3.401   3.850  0.1539  0.7059 -0.9173
   29MOL0     C 3784   9.066   3.439   3.837 -0.5640 -1.1890  0.0390
   29MOL0     C 3785   9.107   3.528   3.943 -0.0841  0.0372 -1.0237
   29MOL0     C 3786   9.239   3.566   3.956 -0.1180  1.4144 -0.6535
   29MOL0     C 3787   9.332   3.517   3.870 -1.0151  1.5964  0.1928
   29MOL0     O 3788   9.468   3.542   3.875 -0.2944 -0.2418  0.5377
   29MOL0     C 3789   9.535   3.544   4.002  0.1261 -0.7888  0.8557
   29MOL0     C 3790   9.687   3.552   3.971  1.2134 -0.2829 -0.0853
   29MOL0     C 3791   9.771   3.650   4.058 -0.2545  0.3362  0.3069
   29MOL0     C 3792   9.757   3.792   4.015 -0.4491 -1.5795  0.1894
   29MOL0     C 3793   9.821   3.890   4.117 -0.4716 -0.1604  0.1355
   29MOL0     C 3794   9.784   4.033   4.084 -0.0787 -1.1186  0.1999
   29MOL0     C 3795   9.868   4.079   3.955  0.3023 -0.6155 -1.6995
   29MOL0     C 3796   9.770   4.140   3.855  0.8316  1.1543 -0.3318
   29MOL0     N 3797   9.704   4.269   3.878 -0.3769 -0.0107 -0.0457
   29MOL0     C 3798   9.788   4.378   3.911  0.1377  0.9362  0.3582
   29MOL0     C 3799   9.697   4.476   3.930 -0.3409  0.4917 -0.2973
   29MOL0     C 3800   9.743   4.614   3.937 -0.1585  0.4203  0.6198
   29MOL0     C 3801   9.696   4.686   3.810 -0.5425  0.8561  0.4193
   29MOL0     C 3802   9.782   4.640   3.685 -1.0028 -0.3304  0.4316
   29MOL0     C 3803   9.729   4.693   3.548 -0.0507  0.2537 -0.4227
   29MOL0     O 3804   9.786   4.818   3.509  0.0112  0.5405  0.4387
   29MOL0     C 3805   9.734   4.862   3.383 -1.2897  0.0685  0.8891
   29MOL0     C 3806   9.619   4.833   3.310 -0.5755 -0.4528 -0.4571
   29MOL0     C 3807   9.593   4.908   3.189  0.5345 -0.5542  0.6055
   29MOL0     C 3808   9.456   4.883   3.124 -0.0357 -0.8429  0.2296
   29MOL0     C 3809   9.699   4.983   3.132  0.2102 -0.0895  0.3029
   29MOL0     C 3810   9.680   5.067   3.020  0.3113  0.4212  0.1561
   29MOL0     O 3811   9.773   5.063   2.920  0.0084  0.1535 -0.4379
   29MOL0     C 3812   9.781   5.153   2.817 -0.0755  0.9019 -1.4314
   29MOL0     C 3813   9.719   5.277   2.811 -0.8681  0.4692  0.0696
   29MOL0     C 3814   9.735   5.351   2.701  0.2800 -0.8516 -0.2037
   29MOL0     C 3815   9.806   5.326   2.589 -0.3570  0.3668  0.0364
   29MOL0     O 3816   9.808   5.400   2.470  0.6585 -0.5942  0.7448
   29MOL0     C 3817   9.783   5.335   2.342  1.1290  0.2582  0.1355
   29MOL0     C 3818   9.729   5.415   2.232 -0.0160 -0.4668  0.3798
   29MOL0     C 3819   9.583   5.458   2.278 -0.2203  1.2058 -0.0960
   29MOL0     C 3820   9.502   5.527   2.168  0.6381  0.4974  0.5886
   29MOL0     C 3821   9.578   5.637   2.101 -0.2317  0.0517 -0.4293
   29MOL0     C 3822   9.599   5.760   2.201  0.1846  1.7595 -0.2503
   29MOL0     C 3823   9.470   5.797   2.261 -0.3868 -0.1184  0.6055
   29MOL0     C 3824   9.475   5.933   2.315  0.7162  0.1594  0.1778
   29MOL0    Cl 3825   9.507   6.060   2.190 -0.3318  0.1003 -0.2433
   29MOL0     C 3826   9.867   5.198   2.593 -0.7721  0.2637 -0.6504
   29MOL0     C 3827   9.861   5.118   2.711 -0.5778 -0.1889 -0.1361
   29MOL0     O 3828   9.586   5.141   3.022  0.3487  0.0978  0.1420
   29MOL0     C 3829   9.823   4.995   3.190 -1.0420 -0.7774 -0.1540
   29MOL0     C 3830   9.839   4.937   3.321  0.8402  0.3237  0.1387
   29MOL0     N 3831   9.569   4.436   3.910 -0.3247 -0.6344 -0.8341
   29MOL0     N 3832   9.573   4.305   3.883  0.4999  0.2518  0.0775
   29MOL0     C 3833   9.287   3.448   3.746  0.2774 -0.1294 -0.1143
   29MOL0     C 3834   9.148   3.418   3.728 -0.8860 -0.2822 -0.0804
   29MOL0     C 3835   8.781   3.196   3.874  0.5400 -0.1268  0.9081
   29MOL0     C 3836   8.661   3.276   3.874 -0.3951 -0.6600  0.9638
   29MOL0     C 3837   8.539   3.209   3.864 -0.5946  0.5471 -0.2514
   29MOL0     C 3838   8.520   3.073   3.850  0.2856  0.0018 -1.5685
   29MOL0     O 3839   8.391   3.030   3.851  0.1428  0.5994  0.5218
   29MOL0     C 3840   8.367   2.901   3.802 -0.1556 -0.2608  0.2132
   29MOL0     C 3841   8.228   2.914   3.731  1.1764  0.1292 -0.2624
   29MOL0     C 3842   8.179   2.772   3.704  0.5849  0.5031 -0.4323
   29MOL0     C 3843   8.047   2.773   3.628  0.1759 -0.8926 -0.0487
   29MOL0     C 3844   8.062   2.828   3.499  0.3927 -0.9817  0.1212
   29MOL0     C 3845   8.072   2.873   3.386  0.6136  0.0462 -0.4161
   29MOL0     C 3846   8.643   3.001   3.847  0.5913 -0.1773  0.6581
   29MOL0     C 3847   8.764   3.058   3.856  0.5512 -0.3156  0.0593
   29MOL0     H 3848   9.046   3.569   4.023 -1.5923  0.0455 -2.1281
   29MOL0     H 3849   9.274   3.627   4.039  2.7990 -0.2902 -0.5266
   29MOL0     H 3850   9.493   3.625   4.063  0.9457 -1.5017  2.4486
   29MOL0     H 3851   9.507   3.452   4.055  2.4505 -2.7136 -0.9894
   29MOL0     H 3852   9.729   3.453   3.990 -2.0329 -1.5088  1.2717
   29MOL0     H 3853   9.706   3.570   3.865  0.2846  0.3530 -0.1574
   29MOL0     H 3854   9.735   3.625   4.158 -1.8296 -1.2154 -0.5892
   29MOL0     H 3855   9.877   3.626   4.056 -0.7593 -2.6067  2.3346
   29MOL0     H 3856   9.806   3.801   3.917  1.0893 -0.2592  1.0301
   29MOL0     H 3857   9.650   3.813   4.006 -0.0656  0.1363 -0.9218
   29MOL0     H 3858   9.783   3.873   4.218  1.5531 -2.3613  0.6331
   29MOL0     H 3859   9.930   3.875   4.119 -0.3281  0.8268  0.7205
   29MOL0     H 3860   9.676   4.040   4.071  0.0100 -3.3235 -2.7167
   29MOL0     H 3861   9.803   4.098   4.170  0.4732 -0.9204 -0.0697
   29MOL0     H 3862   9.939   4.150   3.998  0.2576 -2.0230  0.8591
   29MOL0     H 3863   9.921   3.992   3.915  0.7873 -1.3352  0.3834
   29MOL0     H 3864   9.694   4.067   3.824  0.6656  0.9011  0.6366
   29MOL0     H 3865   9.829   4.151   3.764  1.5718  1.2603  0.1522
   29MOL0     H 3866   9.895   4.394   3.908  0.1329  0.8869 -0.3178
   29MOL0     H 3867   9.685   4.652   4.022 -5.9497 -2.9695 -1.2298
   29MOL0     H 3868   9.850   4.624   3.955  0.2186  2.4114 -2.0860
   29MOL0     H 3869   9.710   4.794   3.818  0.2357  0.7435  0.7396
   29MOL0     H 3870   9.593   4.659   3.787  0.8998 -2.3078 -3.4145
   29MOL0     H 3871   9.769   4.532   3.673  1.8930 -0.6348 -0.6799
   29MOL0     H 3872   9.888   4.669   3.686 -2.0367  4.3066 -0.1988
   29MOL0     H 3873   9.621   4.688   3.561  0.1885 -4.9012  2.0633
   29MOL0     H 3874   9.757   4.619   3.472  1.8764  1.1955 -0.6956
   29MOL0     H 3875   9.537   4.780   3.357 -1.4112  0.1162 -1.2350
   29MOL0     H 3876   9.437   4.775   3.128  0.3480 -0.9161  0.0843
   29MOL0     H 3877   9.386   4.944   3.181  0.2302 -0.6383  0.3408
   29MOL0     H 3878   9.452   4.924   3.022  0.9526  0.2189  0.5981
   29MOL0     H 3879   9.653   5.325   2.883 -4.3789 -0.8105 -2.0816
   29MOL0     H 3880   9.681   5.444   2.688  0.6786 -0.8309 -2.0984
   29MOL0     H 3881   9.883   5.310   2.304  0.6557 -1.4679 -0.0628
   29MOL0     H 3882   9.713   5.250   2.348  0.2128  0.9197 -0.7970
   29MOL0     H 3883   9.791   5.504   2.226 -0.2510 -0.3501 -0.4293
   29MOL0     H 3884   9.735   5.358   2.139 -1.2929  0.4415 -0.2969
   29MOL0     H 3885   9.599   5.519   2.367  2.6545  1.4213 -0.6490
   29MOL0     H 3886   9.516   5.379   2.311 -0.6741  1.7756  0.3737
   29MOL0     H 3887   9.488   5.465   2.079  2.7952  2.2890 -1.1112
   29MOL0     H 3888   9.406   5.548   2.217  0.2266 -3.2018  1.6692
   29MOL0     H 3889   9.524   5.678   2.015 -0.2094  0.6531 -0.1584
   29MOL0     H 3890   9.679   5.600   2.078  0.4083  0.7661  1.1249
   29MOL0     H 3891   9.661   5.735   2.288  0.5039  1.6501 -0.5083
   29MOL0     H 3892   9.637   5.848   2.149 -0.9793  1.7216 -1.1835
   29MOL0     H 3893   9.435   5.729   2.339  0.4190  0.3881  1.4316
   29MOL0     H 3894   9.394   5.801   2.182  1.3053 -1.2714 -1.1495
   29MOL0     H 3895   9.557   5.930   2.387 -0.6825 -1.0165  1.7974
   29MOL0     H 3896   9.382   5.950   2.370 -1.1711 -2.8672 -1.7313
   29MOL0     H 3897   9.924   5.159   2.509  2.1615 -1.3053  1.8452
   29MOL0     H 3898   9.919   5.027   2.716  0.7178  0.5636 -1.0825
   29MOL0     H 3899   9.897   5.065   3.152 -1.1924  0.1361  1.1351
   29MOL0     H 3900   9.934   4.941   3.373  3.1667 -1.9517 -3.5510
   29MOL0     H 3901   9.367   3.419   3.679  0.7877 -1.0220  0.8511
   29MOL0     H 3902   9.124   3.344   3.652  1.5983  0.5314 -1.7994
   29MOL0     H 3903   8.667   3.381   3.900  2.4803 -0.5682  0.2909
   29MOL0     H 3904   8.452   3.271   3.882 -1.8312 -1.1360 -0.1713
   29MOL0     H 3905   8.448   2.884   3.730 -0.7002  0.6211 -0.6377
   29MOL0     H 3906   8.348   2.828   3.881  2.3905  0.1855  1.3346
   29MOL0     H 3907   8.256   2.972   3.642 -0.9508  1.1257 -0.3388
   29MOL0     H 3908   8.175   2.978   3.802 -3.9946 -3.1983 -0.6056
   29MOL0     H 3909   8.157   2.707   3.789 -1.8441  2.1956  0.3746
   29MOL0     H 3910   8.246   2.716   3.639  0.2353 -1.8325  1.0851
   29MOL0     H 3911   7.973   2.832   3.683 -0.5513 -1.8753  0.0561
   29MOL0     H 3912   8.004   2.675   3.604 -2.0107  0.6532 -3.1119
   29MOL0     H 3913   8.061   2.914   3.288  0.3221  0.5458 -0.1791
   29MOL0     H 3914   8.644   2.893   3.842  0.4721 -0.1240 -1.6629
   29MOL0     H 3915   8.856   3.005   3.878 -0.2202 -1.5592  0.3773
   30MOL0     O 3916   8.523   6.710  11.416 -0.2521 -0.2078  0.3614
   30MOL0     C 3917   8.510   6.604  11.476  0.5190  0.3669  0.0347
   30MOL0     O 3918   8.413   6.567  11.566 -0.4814 -0.8419  0.2975
   30MOL0     C 3919   8.315   6.663  11.590  0.1494  0.5646  0.1642
   30MOL0     C 3920   8.353   6.779  11.657 -0.6830 -0.3130  0.1094
   30MOL0     C 3921   8.269   6.884  11.657 -0.5556 -0.3302  1.0016
   30MOL0     C 3922   8.141   6.879  11.596 -0.2041 -0.6915 -0.9914
   30MOL0     O 3923   8.066   6.987  11.600  0.2943  0.5312 -0.3022
   30MOL0     C 3924   8.108   7.083  11.524 -0.0032  0.2236  0.0440
   30MOL0     C 3925   8.026   7.208  11.556 -0.7594  0.1638  0.9019
   30MOL0     C 3926   8.097   7.314  11.645  0.1124  0.1596 -0.1542
   30MOL0     C 3927   8.122   7.256  11.788 -0.4967  0.4604  0.5495
   30MOL0     C 3928   8.170   7.358  11.890 -0.7531 -0.1353 -0.0228
   30MOL0     C 3929   8.074   7.482  11.905  0.2597 -0.1975  0.0144
   30MOL0     C 3930   8.125   7.576  12.009  0.7781  1.1744 -0.5944
   30MOL0     C 3931   8.087   7.529  12.152 -0.0236  0.2183  0.6963
   30MOL0     N 3932   8.115   7.637  12.245  0.4143 -0.5843  0.4084
   30MOL0     C 3933   8.178   7.628  12.364 -0.2448 -0.7506  0.0812
   30MOL0     C 3934   8.134   7.742  12.424  1.3663 -0.1576 -0.6773
   30MOL0     C 3935   8.174   7.779  12.559  0.4984  0.3685 -0.3322
   30MOL0     C 3936   8.287   7.867  12.567 -0.4472 -0.5031 -0.1437
   30MOL0     C 3937   8.335   7.900  12.712  0.6765 -0.4290 -0.0217
   30MOL0     C 3938   8.474   7.968  12.712  0.2906  0.5324  0.5342
   30MOL0     O 3939   8.508   8.040  12.588  0.3762 -0.5950  0.9523
   30MOL0     C 3940   8.461   8.168  12.571  0.1058  0.5563  0.3734
   30MOL0     C 3941   8.370   8.227  12.655  0.5529 -0.2734 -0.8837
   30MOL0     C 3942   8.337   8.369  12.660  0.3864 -0.2704  0.2782
   30MOL0     C 3943   8.275   8.412  12.783  0.1588  0.0412 -0.2433
   30MOL0     C 3944   8.381   8.442  12.545  0.7132  0.2622  0.4915
   30MOL0     C 3945   8.351   8.586  12.537 -0.2644  1.2150 -0.5975
   30MOL0     O 3946   8.258   8.642  12.606 -0.7377  0.8068  0.3641
   30MOL0     C 3947   8.221   8.777  12.583  0.5893 -0.0210  0.2941
   30MOL0     C 3948   8.087   8.796  12.617 -0.3896  0.3035  0.4859
   30MOL0     C 3949   8.031   8.922  12.609 -0.4850  0.2409 -1.1085
   30MOL0     C 3950   8.108   9.031  12.564  0.4748  0.7695  0.6789
   30MOL0     O 3951   8.042   9.148  12.578 -1.0503 -0.2140  0.0056
   30MOL0     C 3952   8.121   9.260  12.545 -0.2591 -0.0714  0.5561
   30MOL0     C 3953   8.050   9.368  12.618 -0.1638 -0.0747  0.1215
   30MOL0     C 3954   8.017   9.346  12.770 -0.7808 -0.0307  0.7893
   30MOL0     C 3955   7.875   9.285  12.795 -0.1673  0.0872  0.5225
   30MOL0     C 3956   7.857   9.261  12.944 -0.8229  0.2100  1.1528
   30MOL0     C 3957   7.791   9.118  12.954 -0.8425 -1.0489  0.3084
   30MOL0     C 3958   7.779   9.066  13.098  0.3024  0.9505  0.8232
   30MOL0     C 3959   7.685   9.154  13.183 -0.0131 -0.8413 -0.9847
   30MOL0    Cl 3960   7.528   9.166  13.106  0.2737  0.1997  0.3541
   30MOL0     C 3961   8.239   9.013  12.537 -0.2083 -0.9677  0.0320
   30MOL0     C 3962   8.294   8.894  12.555  0.9162  0.6586 -0.3723
   30MOL0     O 3963   8.430   8.648  12.468 -0.0866  0.1475 -0.4053
   30MOL0     C 3964   8.458   8.379  12.448  0.4882  0.1615  0.3302
   30MOL0     C 3965   8.494   8.251  12.463  0.9550 -0.7934  0.4576
   30MOL0     N 3966   8.069   7.823  12.336 -0.9255 -0.5635 -0.2013
   30MOL0     N 3967   8.053   7.762  12.228 -0.5165 -0.1481 -0.0744
   30MOL0     C 3968   8.110   6.766  11.523 -1.0000 -0.0464  0.7213
   30MOL0     C 3969   8.197   6.655  11.519  0.1890 -0.4811 -0.4437
   30MOL0     C 3970   8.623   6.514  11.473 -0.7643  0.0373 -0.0696
   30MOL0     C 3971   8.733   6.546  11.391  0.0916 -0.3786 -0.2154
   30MOL0     C 3972   8.839   6.466  11.379  0.3168  0.0959  0.4759
   30MOL0     C 3973   8.843   6.341  11.440  0.8823  0.6196  0.4558
   30MOL0     O 3974   8.949   6.253  11.420 -0.3782  1.1165  0.0845
   30MOL0     C 3975   9.062   6.277  11.332  0.5341  0.3525  0.6466
   30MOL0     C 3976   9.158   6.149  11.326  0.3949 -0.1765  0.8999
   30MOL0     C 3977   9.286   6.188  11.413 -0.3444  0.5069  0.1099
   30MOL0     C 3978   9.398   6.078  11.422 -0.4096 -0.3043  0.1579
   30MOL0     C 3979   9.343   5.964  11.488  0.2489  0.9307  0.1966
   30MOL0     C 3980   9.310   5.863  11.540 -0.2160  0.0343 -0.5924
   30MOL0     C 3981   8.735   6.297  11.520 -0.3217 -0.1088 -0.4994
   30MOL0     C 3982   8.629   6.382  11.543  0.9858 -0.4753  0.7279
   30MOL0     H 3983   8.452   6.799  11.698  0.3752 -1.0786 -1.9083
   30MOL0     H 3984   8.285   6.980  11.704  0.2671  0.7940 -1.3782
   30MOL0     H 3985   8.216   7.103  11.524  0.4582 -1.9625  1.0988
   30MOL0     H 3986   8.086   7.068  11.418  1.4091  2.1820 -0.5869
   30MOL0     H 3987   8.019   7.265  11.463  0.4973  1.4975  1.5914
   30MOL0     H 3988   7.929   7.168  11.590 -1.9173  1.8525 -0.2967
   30MOL0     H 3989   8.185   7.350  11.590  0.1487  0.4206  0.0700
   30MOL0     H 3990   8.021   7.391  11.661  0.2781  0.2930 -0.0096
   30MOL0     H 3991   8.030   7.206  11.821  1.1845 -1.3673  2.7053
   30MOL0     H 3992   8.196   7.176  11.785 -2.2366 -1.2029 -1.0947
   30MOL0     H 3993   8.165   7.305  11.986 -0.1414 -1.6670 -0.8030
   30MOL0     H 3994   8.269   7.399  11.870 -0.9608  0.3780 -0.0215
   30MOL0     H 3995   8.073   7.544  11.815 -0.7953 -2.4010 -1.5713
   30MOL0     H 3996   7.975   7.448  11.935  0.7384 -1.1217  0.5997
   30MOL0     H 3997   8.231   7.599  12.003  0.8600  0.3803 -2.8143
   30MOL0     H 3998   8.077   7.673  11.995 -0.1957  0.9880  1.0862
   30MOL0     H 3999   8.133   7.432  12.171 -0.3850  0.3498  2.4127
   30MOL0     H 4000   7.979   7.513  12.148  0.2675 -1.8750 -2.3078
   30MOL0     H 4001   8.249   7.554  12.399  3.5300  0.4911 -4.0015
   30MOL0     H 4002   8.083   7.824  12.601  0.0214  0.7376 -1.7198
   30MOL0     H 4003   8.195   7.693  12.623 -1.7241 -0.0064 -0.0295
   30MOL0     H 4004   8.279   7.967  12.522 -1.1828 -0.1133  0.8248
   30MOL0     H 4005   8.377   7.822  12.523  0.5133  1.6727 -0.5207
   30MOL0     H 4006   8.349   7.822  12.787 -2.2193  1.5741  2.8926
   30MOL0     H 4007   8.256   7.966  12.748 -1.1093 -1.8121 -1.2442
   30MOL0     H 4008   8.550   7.890  12.719  1.0964  1.2839  0.3318
   30MOL0     H 4009   8.484   8.043  12.791 -0.3568 -0.1342  1.2683
   30MOL0     H 4010   8.331   8.178  12.744 -1.2030  2.5456  0.0383
   30MOL0     H 4011   8.166   8.412  12.787  0.1847  1.2753  1.1113
   30MOL0     H 4012   8.319   8.355  12.865 -0.2203  2.9329  2.1432
   30MOL0     H 4013   8.307   8.516  12.798 -0.6901  0.4254 -0.9474
   30MOL0     H 4014   8.037   8.704  12.643  0.9297 -0.5761  0.0660
   30MOL0     H 4015   7.927   8.942  12.633 -1.0788 -2.8150 -0.7517
   30MOL0     H 4016   8.227   9.266  12.572  0.3184 -0.5332 -1.4407
   30MOL0     H 4017   8.112   9.276  12.437 -4.1483 -1.6910  0.5160
   30MOL0     H 4018   8.119   9.452  12.614  1.2919 -0.8882  4.0918
   30MOL0     H 4019   7.962   9.393  12.558  0.9764  0.9020 -1.2030
   30MOL0     H 4020   8.017   9.444  12.818 -0.6566  0.9095 -1.0468
   30MOL0     H 4021   8.095   9.285  12.815 -1.5479 -3.1790 -1.7658
   30MOL0     H 4022   7.811   9.367  12.764  1.0078  1.1269  0.7655
   30MOL0     H 4023   7.849   9.198  12.734 -1.3616 -1.9312  3.6812
   30MOL0     H 4024   7.809   9.347  12.992  3.2374  3.4583 -0.0779
   30MOL0     H 4025   7.953   9.248  12.994  0.3403  0.3748 -0.9083
   30MOL0     H 4026   7.706   9.114  12.884  0.5834 -3.0560 -1.4387
   30MOL0     H 4027   7.866   9.050  12.913  2.4022  2.3381  0.0369
   30MOL0     H 4028   7.878   9.085  13.140  1.0751  0.9889 -0.9348
   30MOL0     H 4029   7.757   8.960  13.090  1.7507  0.7161 -0.5718
   30MOL0     H 4030   7.734   9.250  13.204 -0.0864 -1.1236  0.6247
   30MOL0     H 4031   7.674   9.106  13.281 -0.7400  0.6683 -0.2854
   30MOL0     H 4032   8.309   9.086  12.497 -1.1956  0.5109  0.9087
   30MOL0     H 4033   8.400   8.880  12.536  0.7491 -2.7053  0.5160
   30MOL0     H 4034   8.499   8.449  12.377  0.0861 -0.0278 -0.0915
   30MOL0     H 4035   8.548   8.198  12.385  2.1971  2.7317 -1.3021
   30MOL0     H 4036   8.026   6.773  11.456  1.9886 -0.2864 -3.4095
   30MOL0     H 4037   8.175   6.574  11.451  5.0485 -0.8733 -1.9305
   30MOL0     H 4038   8.717   6.641  11.342 -2.6760 -0.5774  0.1503
   30MOL0     H 4039   8.925   6.493  11.319 -0.2996  4.4429  1.2344
   30MOL0     H 4040   9.045   6.308  11.228 -2.4011 -0.6505  0.7401
   30MOL0     H 4041   9.116   6.357  11.384 -2.1349  2.9965 -0.3621
   30MOL0     H 4042   9.194   6.131  11.225 -1.4239  0.2948  0.1212
   30MOL0     H 4043   9.097   6.069  11.369 -0.3189 -1.0138 -1.5443
   30MOL0     H 4044   9.249   6.210  11.513 -0.0153  1.3486  0.0535
   30MOL0     H 4045   9.332   6.274  11.363  0.0541  0.7499  0.8722
   30MOL0     H 4046   9.478   6.131  11.475 -0.0901 -0.6624  0.0277
   30MOL0     H 4047   9.445   6.062  11.325 -2.1995  1.0016 -0.9768
   30MOL0     H 4048   9.269   5.781  11.596 -1.8328  0.5257 -1.0124
   30MOL0     H 4049   8.711   6.198  11.558 -3.5838  0.6368 -0.3446
   30MOL0     H 4050   8.529   6.368  11.585 -1.5615  7.2010 -1.2367
   31MOL0     O 4051   0.685   2.491   3.811  0.3997 -0.3708 -0.0612
   31MOL0     C 4052   0.760   2.559   3.743 -0.4631 -0.0573  0.4936
   31MOL0     O 4053   0.790   2.542   3.615 -0.3012  1.0567 -0.6866
   31MOL0     C 4054   0.679   2.498   3.535  0.0144 -0.4352  0.4722
   31MOL0     C 4055   0.625   2.375   3.522  0.5925 -0.2451 -0.3087
   31MOL0     C 4056   0.515   2.349   3.437  0.0612 -0.0477 -0.2919
   31MOL0     C 4057   0.457   2.453   3.359 -0.4162 -0.1964  0.6113
   31MOL0     O 4058   0.347   2.447   3.269 -0.8960  0.2549  0.1049
   31MOL0     C 4059   0.277   2.323   3.242 -0.5774  0.0783 -0.0354
   31MOL0     C 4060   0.348   2.238   3.131  0.3453 -0.2394 -0.7673
   31MOL0     C 4061   0.253   2.127   3.082 -0.2239 -0.0092  0.7409
   31MOL0     C 4062   0.127   2.191   3.019 -0.2059 -0.0423 -0.4007
   31MOL0     C 4063   0.034   2.097   2.936  0.1100 -0.2559 -0.5055
   31MOL0     C 4064   0.078   2.076   2.792  0.4236  0.5973  0.0696
   31MOL0     C 4065  -0.019   1.986   2.725  0.2959 -0.3100 -0.0157
   31MOL0     C 4066   0.015   1.982   2.569 -0.9546  0.5970 -0.8580
   31MOL0     N 4067  -0.019   2.112   2.509 -0.1641 -0.5702  0.2265
   31MOL0     C 4068  -0.146   2.148   2.484 -0.2463  0.7941  0.5281
   31MOL0     C 4069  -0.132   2.269   2.428  0.4892 -0.9089 -0.3527
   31MOL0     C 4070  -0.243   2.371   2.410  0.1799  0.4329 -0.1011
   31MOL0     C 4071  -0.304   2.357   2.269  0.1011 -0.4706 -0.4585
   31MOL0     C 4072  -0.211   2.405   2.154  0.0785 -0.0953  0.2100
   31MOL0     C 4073  -0.262   2.377   2.015 -0.5021 -0.7079  0.3323
   31MOL0     O 4074  -0.398   2.423   1.998  0.0103 -0.9391 -0.5625
   31MOL0     C 4075  -0.419   2.564   2.008 -1.5382 -0.0447 -0.2430
   31MOL0     C 4076  -0.314   2.663   2.014  0.7016  0.1652  0.1434
   31MOL0     C 4077  -0.338   2.793   2.055  0.1371 -1.1645 -0.4146
   31MOL0     C 4078  -0.207   2.874   2.072 -0.5667 -0.4388  0.8964
   31MOL0     C 4079  -0.459   2.829   2.107 -0.4538 -1.1063  0.3340
   31MOL0     C 4080  -0.502   2.962   2.167 -0.0620 -0.1462  0.6350
   31MOL0     O 4081  -0.450   3.069   2.102 -0.8748  0.3662  0.3795
   31MOL0     C 4082  -0.502   3.196   2.084 -0.5118 -0.3383 -0.3429
   31MOL0     C 4083  -0.452   3.266   1.971 -0.4916  0.0148  0.4433
   31MOL0     C 4084  -0.516   3.376   1.925 -0.2329  0.6687 -0.4769
   31MOL0     C 4085  -0.633   3.424   1.987  0.2584  0.5043  0.7970
   31MOL0     O 4086  -0.712   3.510   1.922 -0.5126  1.2563  0.0115
   31MOL0     C 4087  -0.652   3.636   1.889  0.6776 -1.0779 -0.3357
   31MOL0     C 4088  -0.591   3.716   2.009 -0.3830  0.9324  0.3258
   31MOL0     C 4089  -0.700   3.767   2.098  0.9629 -0.9405 -0.8023
   31MOL0     C 4090  -0.777   3.883   2.034 -0.1799 -0.3726  0.2910
   31MOL0     C 4091  -0.859   3.963   2.129  0.1381 -0.1224  0.0200
   31MOL0     C 4092  -0.819   4.119   2.138 -0.1052 -0.4069 -0.2139
   31MOL0     C 4093  -0.937   4.198   2.182  0.1586  0.5730 -0.0732
   31MOL0     C 4094  -0.923   4.348   2.169 -1.0372  0.4759 -0.6602
   31MOL0    Cl 4095  -1.087   4.417   2.185 -0.3439  0.5328  0.6396
   31MOL0     C 4096  -0.686   3.350   2.102 -0.7263 -0.2615 -0.3585
   31MOL0     C 4097  -0.612   3.247   2.158 -0.2428  0.0786  0.4080
   31MOL0     O 4098  -0.610   2.965   2.229 -0.9407 -0.1583 -0.9006
   31MOL0     C 4099  -0.571   2.733   2.102  0.3369  0.7653  0.0598
   31MOL0     C 4100  -0.544   2.599   2.051 -0.8834  0.0322 -0.5066
   31MOL0     N 4101  -0.003   2.312   2.431  0.0872  0.1050  0.8295
   31MOL0     N 4102   0.060   2.218   2.478 -0.3934 -0.0654 -0.0991
   31MOL0     C 4103   0.516   2.575   3.372  1.4070  0.3915  0.1419
   31MOL0     C 4104   0.617   2.596   3.465  0.1713 -0.0609  0.0980
   31MOL0     C 4105   0.827   2.669   3.827  0.6355  1.0723  0.1022
   31MOL0     C 4106   0.767   2.718   3.946  0.5747  0.4019 -0.0693
   31MOL0     C 4107   0.822   2.813   4.037 -0.1277 -0.6238  0.2671
   31MOL0     C 4108   0.948   2.860   3.998  0.0450 -0.0778  0.2823
   31MOL0     O 4109   1.020   2.957   4.060 -0.1615  0.3640  0.4370
   31MOL0     C 4110   0.975   3.002   4.189 -0.1136 -0.6736  0.7108
   31MOL0     C 4111   1.073   3.111   4.240 -0.2043 -0.1108  0.2502
   31MOL0     C 4112   1.002   3.195   4.355  0.7161  0.2271 -0.7627
   31MOL0     C 4113   1.094   3.285   4.425  0.3102  1.2498  0.5056
   31MOL0     C 4114   1.019   3.351   4.537 -0.7333 -0.5400 -0.1912
   31MOL0     C 4115   0.977   3.426   4.620  0.6252 -0.2580  0.2180
   31MOL0     C 4116   1.013   2.809   3.885 -0.4615 -0.3481  1.0006
   31MOL0     C 4117   0.953   2.709   3.801 -0.0204 -0.8705  0.0551
   31MOL0     H 4118   0.683   2.310   3.587  2.5993  1.8929  0.1788
   31MOL0     H 4119   0.489   2.245   3.423  0.2247  0.0227 -1.1275
   31MOL0     H 4120   0.262   2.257   3.328  1.6295 -0.7951 -0.2615
   31MOL0     H 4121   0.187   2.368   3.200 -2.6064 -2.7789  0.9161
   31MOL0     H 4122   0.395   2.307   3.059 -0.1956  3.0514  1.7963
   31MOL0     H 4123   0.432   2.181   3.173  0.9784  0.5758 -0.8864
   31MOL0     H 4124   0.302   2.067   3.004 -1.9391  0.6349 -0.8887
   31MOL0     H 4125   0.222   2.053   3.157  1.7200 -3.3191 -1.4097
   31MOL0     H 4126   0.062   2.215   3.103  1.6478  1.1448  0.7583
   31MOL0     H 4127   0.151   2.278   2.957  0.1849 -0.8623 -1.4277
   31MOL0     H 4128   0.032   2.007   2.998 -6.2560  0.7335  1.5477
   31MOL0     H 4129  -0.063   2.147   2.943  1.0569  1.4840  1.0758
   31MOL0     H 4130   0.087   2.176   2.749  0.3316  0.0670 -1.2291
   31MOL0     H 4131   0.182   2.041   2.789  0.2072 -0.4582  2.4940
   31MOL0     H 4132  -0.020   1.886   2.769 -0.4955 -0.7454 -0.9740
   31MOL0     H 4133  -0.119   2.026   2.745  0.6216  0.8663 -0.6567
   31MOL0     H 4134  -0.015   1.897   2.507  0.4596 -0.6554  0.1135
   31MOL0     H 4135   0.123   1.970   2.555 -1.1639 -2.4696 -0.4370
   31MOL0     H 4136  -0.241   2.096   2.499 -2.2782  3.6601 -1.2589
   31MOL0     H 4137  -0.298   2.337   2.498 -0.6931 -0.1682 -0.8670
   31MOL0     H 4138  -0.217   2.477   2.422  0.9916  0.1140  1.3597
   31MOL0     H 4139  -0.398   2.411   2.256  1.6425  2.2952 -0.7285
   31MOL0     H 4140  -0.323   2.251   2.248 -0.4983 -0.1630 -1.5403
   31MOL0     H 4141  -0.121   2.344   2.159  0.4220  0.3066 -0.7414
   31MOL0     H 4142  -0.178   2.509   2.166  0.0088  0.3831 -2.8832
   31MOL0     H 4143  -0.265   2.269   2.001  2.2025 -0.5327 -2.9744
   31MOL0     H 4144  -0.192   2.404   1.935 -1.1927  0.9481  0.2576
   31MOL0     H 4145  -0.213   2.641   1.979  0.9725  1.8445 -0.1959
   31MOL0     H 4146  -0.209   2.923   2.170  0.7402  0.8621  0.3111
   31MOL0     H 4147  -0.116   2.814   2.076  0.6895  1.1465 -1.3666
   31MOL0     H 4148  -0.194   2.954   1.999  1.1732 -1.9708 -0.5836
   31MOL0     H 4149  -0.373   3.215   1.918 -3.2580 -2.5860 -1.4860
   31MOL0     H 4150  -0.474   3.440   1.848  3.2037 -1.1351 -0.3112
   31MOL0     H 4151  -0.574   3.623   1.814  0.5576 -0.5643 -0.5608
   31MOL0     H 4152  -0.737   3.689   1.844 -1.6247 -2.5830  1.9407
   31MOL0     H 4153  -0.518   3.652   2.060 -0.9903  1.3685  1.7958
   31MOL0     H 4154  -0.531   3.794   1.962  0.4958 -0.0013 -0.1308
   31MOL0     H 4155  -0.639   3.800   2.184 -2.2303 -0.7647  1.5771
   31MOL0     H 4156  -0.769   3.687   2.125  0.2283  0.1246  0.7044
   31MOL0     H 4157  -0.707   3.950   1.983  0.1115  0.7898  2.1490
   31MOL0     H 4158  -0.840   3.851   1.950  0.3704 -0.9415  0.0768
   31MOL0     H 4159  -0.851   3.921   2.230 -1.2488 -0.2389  0.1124
   31MOL0     H 4160  -0.964   3.941   2.105  0.4702 -2.2168  0.2390
   31MOL0     H 4161  -0.739   4.134   2.212  0.1070 -1.7304 -0.1526
   31MOL0     H 4162  -0.779   4.164   2.047  2.8624  2.2158  2.1596
   31MOL0     H 4163  -0.963   4.178   2.286  2.5130 -0.3813  0.4031
   31MOL0     H 4164  -1.015   4.162   2.114  0.7471 -1.2665  0.1754
   31MOL0     H 4165  -0.883   4.381   2.073 -0.5847  0.3280 -0.5271
   31MOL0     H 4166  -0.846   4.390   2.234 -1.4778  2.8388 -1.5543
   31MOL0     H 4167  -0.771   3.385   2.160  1.2236  2.9200  0.8756
   31MOL0     H 4168  -0.643   3.185   2.241 -0.0165 -1.9605 -0.9386
   31MOL0     H 4169  -0.667   2.776   2.126  0.2254  0.8949 -0.5868
   31MOL0     H 4170  -0.620   2.523   2.051 -0.9813  0.1120  0.6320
   31MOL0     H 4171   0.473   2.652   3.310 -0.8145 -0.5018  0.4637
   31MOL0     H 4172   0.646   2.699   3.483  0.3238 -0.1422  0.3323
   31MOL0     H 4173   0.666   2.679   3.958 -0.3673  1.4595 -3.4698
   31MOL0     H 4174   0.772   2.855   4.123 -0.2404 -0.5289  0.1561
   31MOL0     H 4175   0.876   3.045   4.172 -1.7946 -4.3727  0.1975
   31MOL0     H 4176   0.960   2.928   4.268  0.5575  0.5812  2.0693
   31MOL0     H 4177   1.114   3.176   4.163  3.9973  0.5333  2.6888
   31MOL0     H 4178   1.159   3.067   4.291  0.6871  2.8468  1.4945
   31MOL0     H 4179   0.975   3.111   4.420  0.2833 -0.7713 -2.1941
   31MOL0     H 4180   0.906   3.234   4.322  0.5204  0.9996  0.6185
   31MOL0     H 4181   1.127   3.362   4.355  2.6433 -1.1905 -1.2751
   31MOL0     H 4182   1.181   3.234   4.466  0.9583  1.7983 -0.1586
   31MOL0     H 4183   0.921   3.498   4.675 -1.3455 -0.9271 -0.7999
   31MOL0     H 4184   1.108   2.853   3.858 -1.2640  0.1051 -1.3576
   31MOL0     H 4185   1.004   2.684   3.708 -1.5264  0.3789 -1.1673
   32MOL0     O 4186   0.347  11.002   1.136 -0.0529  0.2192 -0.4620
   32MOL0     C 4187   0.453  11.011   1.079  0.0420  0.5508  0.6144
   32MOL0     O 4188   0.498  11.116   0.998  0.0978  0.0848  0.3181
   32MOL0     C 4189   0.420  11.230   0.996  0.5029  0.8815  0.3417
   32MOL0     C 4190   0.277  11.253   1.014 -0.3937 -0.3755 -0.1827
   32MOL0     C 4191   0.220  11.381   1.027 -0.0695  0.7561 -0.0208
   32MOL0     C 4192   0.301  11.498   1.016  1.1419  0.1315 -0.3018
   32MOL0     O 4193   0.258  11.627   1.027 -0.0770  0.2488  0.2568
   32MOL0     C 4194   0.188  11.673   1.144 -0.9378  0.0684 -0.5687
   32MOL0     C 4195   0.276  11.639   1.268  0.1617  0.1810 -0.5752
   32MOL0     C 4196   0.266  11.753   1.363  0.2542  0.5560 -0.6893
   32MOL0     C 4197   0.129  11.808   1.403 -0.5531 -0.4137 -0.1573
   32MOL0     C 4198   0.146  11.905   1.522 -0.4198  0.7418 -0.0524
   32MOL0     C 4199   0.220  12.033   1.501  0.8871  1.2986 -0.9066
   32MOL0     C 4200   0.223  12.109   1.634  0.7990 -0.8760 -0.5733
   32MOL0     C 4201   0.344  12.209   1.646 -0.7253  0.0336 -0.6730
   32MOL0     N 4202   0.309  12.348   1.598 -0.3549  0.1456  0.2573
   32MOL0     C 4203   0.224  12.378   1.495 -0.0913 -0.2547 -0.1075
   32MOL0     C 4204   0.256  12.510   1.470  1.2098 -0.0722  0.7312
   32MOL0     C 4205   0.208  12.607   1.359  0.1670  0.2426 -0.7274
   32MOL0     C 4206   0.066  12.656   1.356 -0.0540  0.3061  0.1537
   32MOL0     C 4207  -0.030  12.561   1.275  0.1978 -0.3297 -0.2936
   32MOL0     C 4208  -0.016  12.603   1.124 -0.1276 -0.2993 -1.2176
   32MOL0     O 4209  -0.092  12.527   1.020  1.1731  0.4340  0.1404
   32MOL0     C 4210  -0.067  12.393   1.005 -0.3354 -0.4892  0.0818
   32MOL0     C 4211   0.041  12.330   1.061  0.1184  0.2030 -0.3445
   32MOL0     C 4212   0.072  12.197   1.034  0.6408  0.0125  0.2387
   32MOL0     C 4213   0.190  12.140   1.113 -0.1667 -0.1881  0.3103
   32MOL0     C 4214  -0.008  12.123   0.939  0.1739  0.3190 -0.9073
   32MOL0     C 4215   0.006  11.971   0.912  0.2435  0.7341  0.0138
   32MOL0     O 4216  -0.052  11.928   0.794 -0.3160 -0.1401 -0.1638
   32MOL0     C 4217  -0.054  11.801   0.744  0.0370  1.4326  0.1303
   32MOL0     C 4218   0.038  11.697   0.770 -0.0131 -1.0010  0.2320
   32MOL0     C 4219   0.032  11.565   0.723  0.0024  0.4353  0.7708
   32MOL0     C 4220  -0.079  11.538   0.647  0.9488 -0.5483  0.5589
   32MOL0     O 4221  -0.079  11.411   0.603  0.3208  0.5370  0.7583
   32MOL0     C 4222  -0.209  11.347   0.590  0.7626 -0.2142  0.2094
   32MOL0     C 4223  -0.191  11.193   0.587 -0.1891  0.6653 -0.1224
   32MOL0     C 4224  -0.312  11.109   0.589  0.9126 -0.3001  0.6435
   32MOL0     C 4225  -0.353  11.071   0.737 -0.2131 -0.9364  0.4281
   32MOL0     C 4226  -0.461  10.973   0.737 -0.3081 -0.3861 -0.7000
   32MOL0     C 4227  -0.500  10.946   0.887  0.6551  0.8028 -0.0257
   32MOL0     C 4228  -0.634  10.995   0.955 -0.3445 -0.5196  0.2081
   32MOL0     C 4229  -0.727  10.883   0.986 -1.0107  0.4269 -0.2041
   32MOL0    Cl 4230  -0.808  10.814   0.847  0.0286  0.7581 -0.5881
   32MOL0     C 4231  -0.175  11.639   0.615 -0.5833  1.1023  1.2315
   32MOL0     C 4232  -0.166  11.765   0.661 -0.8616  0.2584  0.6098
   32MOL0     O 4233   0.071  11.910   0.998 -0.3071  1.2880  0.1903
   32MOL0     C 4234  -0.116  12.184   0.882  0.1413 -0.2796  0.0305
   32MOL0     C 4235  -0.140  12.323   0.909  1.0226  0.1523 -0.6096
   32MOL0     N 4236   0.345  12.562   1.564  0.5546  0.5944  0.0300
   32MOL0     N 4237   0.379  12.457   1.637  0.2676  0.1318  0.4138
   32MOL0     C 4238   0.439  11.478   0.992 -0.5287  0.1606 -0.1443
   32MOL0     C 4239   0.495  11.350   0.988 -0.1174  0.1689 -0.4894
   32MOL0     C 4240   0.518  10.877   1.074 -0.1708 -0.0583 -0.8134
   32MOL0     C 4241   0.621  10.849   0.986 -0.4543  0.7255  0.3272
   32MOL0     C 4242   0.695  10.731   0.994 -0.6227  0.7866  0.5907
   32MOL0     C 4243   0.678  10.641   1.103 -0.3941  0.8787  0.3262
   32MOL0     O 4244   0.753  10.528   1.125  0.5557  0.3658  0.6181
   32MOL0     C 4245   0.693  10.406   1.087 -0.6417 -0.4813 -0.7682
   32MOL0     C 4246   0.771  10.360   0.968 -0.4938  1.0689 -1.1173
   32MOL0     C 4247   0.687  10.256   0.876  0.2733  0.7056  0.3183
   32MOL0     C 4248   0.736  10.251   0.720  0.5634  0.3032  0.7745
   32MOL0     C 4249   0.690  10.368   0.647 -1.0596 -1.1150  0.7143
   32MOL0     C 4250   0.642  10.463   0.592 -0.3915 -0.0275 -1.1594
   32MOL0     C 4251   0.573  10.667   1.195 -0.7705 -0.5498 -1.0466
   32MOL0     C 4252   0.492  10.780   1.180 -0.0222 -0.1388  0.0186
   32MOL0     H 4253   0.213  11.166   1.028  1.5189 -1.5201  2.2451
   32MOL0     H 4254   0.114  11.390   1.047 -0.1599  1.6779 -0.8668
   32MOL0     H 4255   0.190  11.782   1.149 -0.5517  0.0050  2.7935
   32MOL0     H 4256   0.086  11.635   1.145 -0.4413 -1.3278 -0.4949
   32MOL0     H 4257   0.231  11.554   1.320  0.3974  1.6924  2.2701
   32MOL0     H 4258   0.382  11.622   1.249  0.3140 -2.0294  1.7464
   32MOL0     H 4259   0.317  11.717   1.453  0.5970 -1.0521 -1.4758
   32MOL0     H 4260   0.323  11.842   1.337  0.6456  2.7436  5.8789
   32MOL0     H 4261   0.081  11.866   1.324  3.5153  3.3025 -0.2474
   32MOL0     H 4262   0.071  11.719   1.427 -0.8367 -1.0322 -2.8326
   32MOL0     H 4263   0.048  11.941   1.553  1.3805  3.1953  3.6172
   32MOL0     H 4264   0.186  11.845   1.604  0.1647 -0.2574 -1.0444
   32MOL0     H 4265   0.316  12.006   1.456 -0.3438 -1.6431 -2.0707
   32MOL0     H 4266   0.158  12.086   1.429 -2.5640  1.6681  2.0275
   32MOL0     H 4267   0.137  12.177   1.629  1.3362 -0.1615 -0.2978
   32MOL0     H 4268   0.213  12.044   1.721  0.7819  0.6832  0.6340
   32MOL0     H 4269   0.439  12.178   1.601 -0.0337  1.8852 -0.5639
   32MOL0     H 4270   0.350  12.228   1.753 -2.5312  1.8014 -0.8155
   32MOL0     H 4271   0.159  12.309   1.443  0.0050 -3.0969  3.1491
   32MOL0     H 4272   0.267  12.698   1.353  3.2058 -1.3012  2.1545
   32MOL0     H 4273   0.236  12.566   1.261  3.3964  0.5184 -0.0392
   32MOL0     H 4274   0.057  12.758   1.318 -0.7919 -0.7482 -2.8249
   32MOL0     H 4275   0.037  12.675   1.459  1.0917  0.4516  0.4707
   32MOL0     H 4276  -0.133  12.584   1.302 -0.0474 -1.2532 -0.4168
   32MOL0     H 4277  -0.015  12.456   1.304 -0.3327 -0.0207  1.1813
   32MOL0     H 4278   0.087  12.588   1.091 -0.4437 -3.1874 -1.1495
   32MOL0     H 4279  -0.035  12.708   1.101 -2.7905 -0.8124 -1.6948
   32MOL0     H 4280   0.107  12.382   1.130 -0.4242  0.2894  0.1118
   32MOL0     H 4281   0.275  12.104   1.055 -0.5889  2.6170 -2.2856
   32MOL0     H 4282   0.233  12.219   1.175 -1.6734 -0.4729  1.8074
   32MOL0     H 4283   0.143  12.074   1.186 -4.7821  3.5861  1.2435
   32MOL0     H 4284   0.118  11.712   0.842 -0.1484 -0.8157  0.3452
   32MOL0     H 4285   0.115  11.498   0.744  0.7772  0.0428 -2.7983
   32MOL0     H 4286  -0.273  11.372   0.675  1.4744 -0.9245  0.9772
   32MOL0     H 4287  -0.263  11.381   0.500 -1.6011  1.4558  2.1268
   32MOL0     H 4288  -0.145  11.184   0.488 -0.3424  0.9549 -0.2221
   32MOL0     H 4289  -0.121  11.154   0.661 -1.3084  0.8382  1.0585
   32MOL0     H 4290  -0.286  11.023   0.526 -0.8976  0.8152 -1.8394
   32MOL0     H 4291  -0.398  11.155   0.538  1.5368 -1.1114 -1.2569
   32MOL0     H 4292  -0.264  11.023   0.777  1.1481  1.3114  0.2687
   32MOL0     H 4293  -0.373  11.168   0.784  0.1665  0.7433 -2.5939
   32MOL0     H 4294  -0.426  10.879   0.694  3.4318  1.6372 -2.5269
   32MOL0     H 4295  -0.554  10.998   0.685 -0.1444 -1.8408 -1.7555
   32MOL0     H 4296  -0.489  10.837   0.892 -3.4722  0.2527  1.0929
   32MOL0     H 4297  -0.424  10.989   0.954 -0.7625  0.4541  1.9020
   32MOL0     H 4298  -0.701  11.056   0.894 -5.9620 -1.1361  4.8694
   32MOL0     H 4299  -0.596  11.038   1.049  3.0104 -1.4852 -0.5843
   32MOL0     H 4300  -0.796  10.923   1.060 -0.5995 -0.5278  0.7267
   32MOL0     H 4301  -0.666  10.804   1.030 -0.6521  0.7695 -0.0792
   32MOL0     H 4302  -0.253  11.617   0.543 -0.4188 -2.0824  1.9007
   32MOL0     H 4303  -0.246  11.834   0.638 -0.1742  0.3478 -1.7368
   32MOL0     H 4304  -0.174  12.117   0.820  0.1482 -0.9308  0.7238
   32MOL0     H 4305  -0.225  12.367   0.859 -1.2720 -1.5835  1.4625
   32MOL0     H 4306   0.499  11.568   0.982 -1.4715  0.7855 -0.4560
   32MOL0     H 4307   0.602  11.344   0.978  0.1328  2.2269  0.5419
   32MOL0     H 4308   0.655  10.921   0.913 -0.4475  0.6269  0.2310
   32MOL0     H 4309   0.787  10.724   0.937 -0.9638 -2.5055  0.2670
   32MOL0     H 4310   0.712  10.334   1.167 -0.5626  1.3203  0.9174
   32MOL0     H 4311   0.585  10.421   1.074 -0.3669  0.6888 -2.0087
   32MOL0     H 4312   0.861  10.312   1.009  0.0911  2.4491 -0.7104
   32MOL0     H 4313   0.791  10.441   0.897  0.1714 -0.0624 -2.2746
   32MOL0     H 4314   0.579  10.272   0.883  0.2036  0.8875 -0.9952
   32MOL0     H 4315   0.704  10.162   0.930 -1.5904  1.0418  1.5752
   32MOL0     H 4316   0.696  10.161   0.673 -1.2226  0.9350  1.0238
   32MOL0     H 4317   0.845  10.252   0.710  0.3925 -0.5969 -2.0983
   32MOL0     H 4318   0.599  10.548   0.543  0.1436  0.2363 -1.1776
   32MOL0     H 4319   0.547  10.592   1.269  3.6738 -4.3097 -2.7903
   32MOL0     H 4320   0.408  10.786   1.247 -0.2371 -4.0762  0.2955
   33MOL0     O 4321   3.510   6.588  10.789  0.2631  0.4219 -0.0320
   33MOL0     C 4322   3.607   6.531  10.737 -0.0214 -0.3014  0.1514
   33MOL0     O 4323   3.608   6.461  10.624 -0.2046  0.4868  0.0354
   33MOL0     C 4324   3.498   6.450  10.542  0.6763  0.6094 -0.5655
   33MOL0     C 4325   3.473   6.331  10.476 -0.1289 -0.2512 -0.9428
   33MOL0     C 4326   3.369   6.323  10.383 -0.8834 -0.7621  1.5547
   33MOL0     C 4327   3.281   6.429  10.363  0.6786  0.0972 -0.2836
   33MOL0     O 4328   3.168   6.431  10.286 -0.0481 -0.2592 -1.2207
   33MOL0     C 4329   3.101   6.308  10.261  0.6179  0.6885  0.4646
   33MOL0     C 4330   2.963   6.340  10.219  0.9503  0.1858  0.5320
   33MOL0     C 4331   2.952   6.381  10.069 -0.7011  0.0705 -0.6001
   33MOL0     C 4332   2.801   6.413  10.041 -0.7613 -1.1248 -0.2589
   33MOL0     C 4333   2.767   6.421   9.894 -0.2741  0.2981  0.0614
   33MOL0     C 4334   2.808   6.557   9.822  1.1918  0.2944 -0.4897
   33MOL0     C 4335   2.764   6.547   9.684 -0.2460 -0.1976  0.1569
   33MOL0     C 4336   2.851   6.449   9.605  0.1839  0.9026 -0.7334
   33MOL0     N 4337   3.000   6.485   9.605  0.3826 -0.2001  0.0394
   33MOL0     C 4338   3.110   6.419   9.644 -1.0414  0.3728  0.9998
   33MOL0     C 4339   3.206   6.518   9.629 -0.1863  0.1932  0.7477
   33MOL0     C 4340   3.355   6.526   9.651 -0.5121 -0.2169 -0.4000
   33MOL0     C 4341   3.405   6.618   9.754  0.6490  0.7477 -0.9864
   33MOL0     C 4342   3.366   6.579   9.890  0.0702 -0.0260  0.7395
   33MOL0     C 4343   3.245   6.649   9.942 -0.5310  0.1507 -0.7629
   33MOL0     O 4344   3.264   6.790   9.968  0.0547  0.1363  0.5812
   33MOL0     C 4345   3.146   6.865   9.973  0.0601  0.1624 -0.5113
   33MOL0     C 4346   3.046   6.842  10.069  0.1606 -0.1728  0.0940
   33MOL0     C 4347   2.926   6.922  10.066  1.5681  0.0488 -0.0919
   33MOL0     C 4348   2.809   6.888  10.164  1.1589 -0.2274  0.7954
   33MOL0     C 4349   2.909   7.023   9.965  0.0936 -0.7588  0.3424
   33MOL0     C 4350   2.795   7.115   9.939 -0.3975 -0.4751 -0.3201
   33MOL0     O 4351   2.744   7.173  10.051 -0.4246 -0.5304  0.6330
   33MOL0     C 4352   2.697   7.306  10.043 -0.0654  0.4565 -0.6445
   33MOL0     C 4353   2.626   7.343  10.162 -0.7973  0.0298  0.3611
   33MOL0     C 4354   2.569   7.472  10.176  1.0344 -0.1661  0.1938
   33MOL0     C 4355   2.606   7.573  10.084  1.3247 -0.0389  0.6987
   33MOL0     O 4356   2.531   7.688  10.088  0.0606 -0.8539  0.0147
   33MOL0     C 4357   2.603   7.804  10.062 -0.2429 -0.1962  0.3354
   33MOL0     C 4358   2.500   7.917  10.049  0.9186  1.1160  0.2855
   33MOL0     C 4359   2.399   7.905   9.931  0.1357  0.2525  0.6585
   33MOL0     C 4360   2.302   8.027   9.945 -0.2614 -0.4469  0.7085
   33MOL0     C 4361   2.157   8.010   9.886 -0.0333  0.4275 -0.3102
   33MOL0     C 4362   2.140   8.060   9.744  0.4651  0.6791 -0.4652
   33MOL0     C 4363   2.243   8.000   9.640  0.5380  0.5149  0.7562
   33MOL0     C 4364   2.182   8.036   9.506  0.0444 -0.7744 -0.4151
   33MOL0    Cl 4365   2.325   7.992   9.394  0.1108  0.0026 -0.0953
   33MOL0     C 4366   2.679   7.538   9.968 -0.7966  0.1395 -0.4992
   33MOL0     C 4367   2.727   7.410   9.950  0.8611  1.3691 -0.7591
   33MOL0     O 4368   2.765   7.142   9.824 -0.0752 -0.7445  0.4507
   33MOL0     C 4369   3.009   7.039   9.870  0.4739  0.4058 -1.5014
   33MOL0     C 4370   3.118   6.957   9.866 -0.7504  1.1920  0.8060
   33MOL0     N 4371   3.145   6.628   9.566  0.4541  0.7379 -0.8291
   33MOL0     N 4372   3.018   6.613   9.554 -0.0131  0.3090  0.1715
   33MOL0     C 4373   3.310   6.542  10.427  0.8256  0.8805  0.2250
   33MOL0     C 4374   3.424   6.565  10.509  0.9892  0.8642  0.0343
   33MOL0     C 4375   3.726   6.520  10.825 -0.6798 -0.8310 -0.6311
   33MOL0     C 4376   3.722   6.582  10.953  0.0487 -0.6522  0.1196
   33MOL0     C 4377   3.842   6.570  11.034  0.7641  0.1656  0.4742
   33MOL0     C 4378   3.952   6.488  11.001  0.8127  0.5872 -0.1049
   33MOL0     O 4379   4.063   6.458  11.082  0.1388 -0.1295 -0.6473
   33MOL0     C 4380   4.098   6.547  11.193  0.1834  0.6749 -0.1652
   33MOL0     C 4381   4.018   6.502  11.318  0.3413  0.3169  0.6572
   33MOL0     C 4382   4.051   6.589  11.436 -0.8410  0.2916  0.8092
   33MOL0     C 4383   3.968   6.577  11.557  0.7307  0.3413  0.3971
   33MOL0     C 4384   3.830   6.608  11.541  0.3591  0.0207 -0.5552
   33MOL0     C 4385   3.716   6.630  11.533  0.3524  0.2589  0.1807
   33MOL0     C 4386   3.949   6.431  10.866 -0.7781 -0.4068  0.0416
   33MOL0     C 4387   3.840   6.452  10.787  0.7229  0.3462  0.7802
   33MOL0     H 4388   3.545   6.255  10.506  1.1680  1.3488  0.2173
   33MOL0     H 4389   3.358   6.232  10.325 -2.7688  0.5197 -0.2640
   33MOL0     H 4390   3.163   6.256  10.187 -0.0103  1.6519 -0.7780
   33MOL0     H 4391   3.097   6.242  10.348  0.0066 -1.5197 -1.1368
   33MOL0     H 4392   2.906   6.248  10.237 -2.3587  1.6852 -1.4524
   33MOL0     H 4393   2.919   6.420  10.279  0.1982  3.1361 -3.5941
   33MOL0     H 4394   3.009   6.474  10.058 -1.3672  0.7418  1.2050
   33MOL0     H 4395   2.995   6.295  10.016 -2.5793 -2.4920  1.7024
   33MOL0     H 4396   2.741   6.332  10.084  1.5292 -3.0550 -0.5006
   33MOL0     H 4397   2.785   6.509  10.092 -1.3013  0.6179 -3.4300
   33MOL0     H 4398   2.817   6.334   9.851 -1.3734 -0.4991  0.3630
   33MOL0     H 4399   2.658   6.416   9.885 -0.2955  1.2374 -0.3071
   33MOL0     H 4400   2.749   6.628   9.881 -0.2639 -3.4519  3.0905
   33MOL0     H 4401   2.916   6.574   9.828  1.3874 -0.8595 -0.5398
   33MOL0     H 4402   2.661   6.512   9.681  0.1792 -1.4168 -2.5010
   33MOL0     H 4403   2.761   6.647   9.640 -1.9723 -0.2552  0.0913
   33MOL0     H 4404   2.822   6.433   9.501  3.1168 -1.9202 -1.2982
   33MOL0     H 4405   2.839   6.350   9.649  1.6907  0.9885 -0.0359
   33MOL0     H 4406   3.137   6.326   9.693  4.4832 -0.6789 -3.0633
   33MOL0     H 4407   3.397   6.429   9.680 -0.6980 -0.0872  0.3038
   33MOL0     H 4408   3.402   6.566   9.560 -1.1834  2.7454  0.4603
   33MOL0     H 4409   3.368   6.720   9.754 -1.8484 -0.0778 -0.3117
   33MOL0     H 4410   3.514   6.614   9.742  0.9576  0.8367  1.2789
   33MOL0     H 4411   3.457   6.592   9.948  3.1702  3.2772 -4.1433
   33MOL0     H 4412   3.357   6.470   9.887 -2.0012  0.1179  0.1235
   33MOL0     H 4413   3.206   6.613  10.038  0.6545 -1.3635 -0.7992
   33MOL0     H 4414   3.160   6.630   9.876 -0.4084 -0.5118 -0.7431
   33MOL0     H 4415   3.046   6.765  10.146 -2.5254 -0.9839 -0.6152
   33MOL0     H 4416   2.735   6.822  10.118  0.3676 -0.4017  2.2680
   33MOL0     H 4417   2.840   6.817  10.241  1.3614 -1.1516 -0.1042
   33MOL0     H 4418   2.763   6.979  10.203 -0.3970  0.8718 -3.1154
   33MOL0     H 4419   2.611   7.264  10.236  2.3787 -0.6306  0.4384
   33MOL0     H 4420   2.507   7.493  10.263  0.0898 -0.0159 -0.5011
   33MOL0     H 4421   2.666   7.833  10.147  0.7614 -0.2310 -0.3920
   33MOL0     H 4422   2.654   7.808   9.966 -1.5651  0.6166 -0.3756
   33MOL0     H 4423   2.432   7.909  10.135 -0.2866  1.0950 -0.6327
   33MOL0     H 4424   2.546   8.016  10.044  1.6792  0.8037  0.9848
   33MOL0     H 4425   2.339   7.813   9.932 -0.9633  0.9566  0.6163
   33MOL0     H 4426   2.446   7.905   9.832 -1.7347  2.6254 -0.3395
   33MOL0     H 4427   2.285   8.051  10.050  2.8774 -1.5530  1.5798
   33MOL0     H 4428   2.353   8.116   9.905  0.3180 -0.2882  1.7665
   33MOL0     H 4429   2.086   8.067   9.946  0.1277  1.3650 -0.9915
   33MOL0     H 4430   2.141   7.902   9.896 -0.4573  0.5259  0.0888
   33MOL0     H 4431   2.037   8.025   9.730 -0.6576  3.5347  0.0786
   33MOL0     H 4432   2.142   8.169   9.747  0.1301  0.6796  1.6560
   33MOL0     H 4433   2.264   7.894   9.659  0.8768  0.6175  0.9704
   33MOL0     H 4434   2.341   8.047   9.656  1.9140 -2.3608  1.4998
   33MOL0     H 4435   2.158   8.143   9.501  1.8266 -0.3816 -1.2814
   33MOL0     H 4436   2.087   7.985   9.489 -0.7419 -0.3115  2.0917
   33MOL0     H 4437   2.695   7.602   9.882 -0.2101  1.2924  0.4347
   33MOL0     H 4438   2.795   7.395   9.867 -0.8853  0.0225 -2.0062
   33MOL0     H 4439   2.999   7.109   9.788 -2.9203  0.5275 -1.1164
   33MOL0     H 4440   3.181   6.976   9.780 -4.1803 -3.5834 -3.3768
   33MOL0     H 4441   3.247   6.630  10.416  0.0206  0.2069 -0.6137
   33MOL0     H 4442   3.455   6.664  10.542  1.8012  0.1592  1.4865
   33MOL0     H 4443   3.640   6.643  10.989  0.2532  0.2499 -0.8691
   33MOL0     H 4444   3.843   6.629  11.125 -0.4268  0.7335  0.1429
   33MOL0     H 4445   4.206   6.547  11.214  0.4285 -2.4343 -0.9728
   33MOL0     H 4446   4.080   6.652  11.167 -0.8502  0.9151  1.3653
   33MOL0     H 4447   4.044   6.396  11.324 -2.6038 -0.7602 -2.2344
   33MOL0     H 4448   3.912   6.507  11.293  0.1268  2.6685  1.7120
   33MOL0     H 4449   4.043   6.694  11.404 -0.5842  0.6344  1.8377
   33MOL0     H 4450   4.155   6.568  11.465  0.3301  3.7966 -0.2834
   33MOL0     H 4451   4.023   6.626  11.638  1.6882  0.3349 -0.2371
   33MOL0     H 4452   3.965   6.471  11.582  0.5360  0.2812  0.1260
   33MOL0     H 4453   3.612   6.645  11.515  0.0780  0.1608  1.5945
   33MOL0     H 4454   4.030   6.374  10.821  0.4707  1.6887 -0.5270
   33MOL0     H 4455   3.848   6.396  10.695  0.6900 -2.6250  2.4699
   34MOL0     O 4456   2.024   5.444   2.875 -0.2400  0.2417  0.1819
   34MOL0     C 4457   2.106   5.462   2.781  0.2700  0.7302  0.3817
   34MOL0     O 4458   2.142   5.364   2.697  0.5868 -0.7412  0.5839
   34MOL0     C 4459   2.058   5.264   2.660 -0.4292 -0.2088  0.0937
   34MOL0     C 4460   1.993   5.264   2.539 -1.2884 -0.2395  0.5153
   34MOL0     C 4461   1.915   5.152   2.493  0.9854 -0.2133  0.1053
   34MOL0     C 4462   1.912   5.034   2.560  0.6323  0.3655 -0.6439
   34MOL0     O 4463   1.846   4.914   2.536 -0.4576 -0.2086 -0.3863
   34MOL0     C 4464   1.855   4.855   2.406  0.2879 -1.0088  0.7746
   34MOL0     C 4465   1.796   4.717   2.377 -0.0697  0.0428  0.1420
   34MOL0     C 4466   1.653   4.704   2.420 -0.4682 -0.2599 -0.0296
   34MOL0     C 4467   1.611   4.564   2.439 -0.2940 -0.5359 -0.3293
   34MOL0     C 4468   1.474   4.561   2.500 -0.7241  0.2200 -0.1867
   34MOL0     C 4469   1.419   4.425   2.564  0.2953 -0.8327  0.6478
   34MOL0     C 4470   1.480   4.299   2.487 -0.1714  0.8375  0.0027
   34MOL0     C 4471   1.410   4.172   2.520 -0.0513  1.0937 -0.8091
   34MOL0     N 4472   1.400   4.136   2.664  0.2648 -0.0257 -0.3755
   34MOL0     C 4473   1.281   4.157   2.720  0.9910  0.1716 -0.6629
   34MOL0     C 4474   1.324   4.150   2.855  0.1787  0.0910 -0.1004
   34MOL0     C 4475   1.223   4.163   2.965 -0.7520 -0.6084 -0.3167
   34MOL0     C 4476   1.223   4.311   3.012  1.5446 -0.0306  0.5025
   34MOL0     C 4477   1.307   4.352   3.139  0.3977  0.1063  0.6881
   34MOL0     C 4478   1.336   4.498   3.169 -0.2405  0.0433  0.2242
   34MOL0     O 4479   1.374   4.557   3.044  0.2177 -0.1127  0.3552
   34MOL0     C 4480   1.417   4.690   3.040 -0.0424  0.7393  0.0596
   34MOL0     C 4481   1.431   4.734   2.915  0.5853 -0.7609 -0.0971
   34MOL0     C 4482   1.464   4.870   2.891  0.4221  0.0042  0.8242
   34MOL0     C 4483   1.473   4.909   2.740  0.6634  0.0347  0.2369
   34MOL0     C 4484   1.481   4.954   3.003 -0.3990  0.1280  0.3074
   34MOL0     C 4485   1.528   5.090   2.996 -0.1401  0.0846 -0.7273
   34MOL0     O 4486   1.590   5.152   3.108 -0.3868  0.6406 -0.3676
   34MOL0     C 4487   1.617   5.284   3.097 -1.0922 -0.0218  1.0339
   34MOL0     C 4488   1.549   5.371   3.177 -0.7609  0.2390 -0.5034
   34MOL0     C 4489   1.572   5.508   3.173 -0.9678  0.1334  0.0482
   34MOL0     C 4490   1.668   5.560   3.079  0.2410  1.2293 -0.2736
   34MOL0     O 4491   1.668   5.701   3.097 -0.0278 -0.1512  0.2979
   34MOL0     C 4492   1.726   5.767   2.980 -0.0862 -0.3546 -0.7902
   34MOL0     C 4493   1.730   5.913   3.015 -0.1588  0.5120 -0.2392
   34MOL0     C 4494   1.870   5.963   3.066 -0.2250  0.2141 -0.5131
   34MOL0     C 4495   1.874   6.117   3.074  0.7833 -1.2031 -0.3646
   34MOL0     C 4496   1.970   6.174   3.186  0.0445  0.1301 -0.6157
   34MOL0     C 4497   1.908   6.208   3.322 -0.0459  0.4623  0.0850
   34MOL0     C 4498   2.019   6.263   3.418 -0.0599  0.9643  0.5560
   34MOL0     C 4499   1.976   6.264   3.563  0.3436  0.4192 -0.2594
   34MOL0    Cl 4500   1.963   6.434   3.606  0.4840  0.1252  0.0637
   34MOL0     C 4501   1.729   5.468   2.992 -0.0152 -0.4244 -0.2681
   34MOL0     C 4502   1.701   5.335   2.994  0.2886  0.7795  1.2373
   34MOL0     O 4503   1.492   5.156   2.896  0.4065 -0.2917  0.3450
   34MOL0     C 4504   1.467   4.909   3.133  0.2055 -0.2373  0.6005
   34MOL0     C 4505   1.426   4.779   3.149  0.2679 -0.3593 -0.3493
   34MOL0     N 4506   1.457   4.140   2.874  0.4842  0.4652 -0.3957
   34MOL0     N 4507   1.503   4.128   2.757  0.0291  0.1648 -0.6659
   34MOL0     C 4508   1.975   5.038   2.683  0.0081  0.9827  0.7616
   34MOL0     C 4509   2.043   5.148   2.738  0.4374 -0.2798 -1.5285
   34MOL0     C 4510   2.183   5.593   2.778 -0.3128  0.4546 -0.2323
   34MOL0     C 4511   2.135   5.709   2.837  0.5483  0.2184 -0.0962
   34MOL0     C 4512   2.214   5.826   2.815  1.1376 -0.0343  0.8354
   34MOL0     C 4513   2.327   5.834   2.729  0.5886 -0.6351 -0.3123
   34MOL0     O 4514   2.404   5.946   2.710  1.1961  0.5062 -0.3211
   34MOL0     C 4515   2.416   6.045   2.818  1.4871  0.0228 -0.1908
   34MOL0     C 4516   2.347   6.176   2.776  0.3698  0.0300 -0.4580
   34MOL0     C 4517   2.420   6.286   2.857 -0.1310 -0.0032 -0.0971
   34MOL0     C 4518   2.387   6.315   3.019  1.2972  0.0543 -0.1608
   34MOL0     C 4519   2.476   6.419   3.076 -0.6654  1.2592 -0.3633
   34MOL0     C 4520   2.542   6.498   3.146  0.2824  0.5277  0.7858
   34MOL0     C 4521   2.372   5.712   2.687 -0.2191  0.0660  0.0479
   34MOL0     C 4522   2.312   5.585   2.712  0.1156  0.1967 -0.7703
   34MOL0     H 4523   2.009   5.353   2.479 -0.2167  1.4203  3.1121
   34MOL0     H 4524   1.865   5.146   2.396  2.6835  0.0058 -0.8255
   34MOL0     H 4525   1.821   4.922   2.326  0.9512 -3.7929 -2.0526
   34MOL0     H 4526   1.961   4.850   2.379 -0.2349 -2.5778 -1.2637
   34MOL0     H 4527   1.819   4.703   2.271  0.9072 -0.2692  0.3791
   34MOL0     H 4528   1.853   4.640   2.431 -0.7100 -1.0374 -0.6822
   34MOL0     H 4529   1.645   4.764   2.511 -0.1947  0.3950 -0.4282
   34MOL0     H 4530   1.581   4.750   2.351 -1.2372  0.0064  0.9120
   34MOL0     H 4531   1.621   4.519   2.340  2.3327 -0.3380 -0.2147
   34MOL0     H 4532   1.675   4.505   2.505 -3.1875 -1.0751  2.2417
   34MOL0     H 4533   1.485   4.636   2.579 -1.4304 -1.6161  1.7439
   34MOL0     H 4534   1.397   4.604   2.435  0.7344  2.5896 -0.4504
   34MOL0     H 4535   1.464   4.410   2.663  0.4294  1.8976  1.0746
   34MOL0     H 4536   1.311   4.440   2.577  0.2846  3.0371 -2.2437
   34MOL0     H 4537   1.469   4.306   2.378  3.4667 -1.3093 -0.6499
   34MOL0     H 4538   1.586   4.289   2.513  1.0734  2.3394 -3.7826
   34MOL0     H 4539   1.451   4.087   2.464 -2.3506 -1.3413  0.9212
   34MOL0     H 4540   1.306   4.175   2.485 -0.4940  1.8325  0.5036
   34MOL0     H 4541   1.188   4.181   2.671  0.2277  3.0191  1.9003
   34MOL0     H 4542   1.129   4.122   2.928 -0.5193 -0.7469 -0.7567
   34MOL0     H 4543   1.252   4.102   3.051 -4.4079  0.9463  2.3095
   34MOL0     H 4544   1.116   4.331   3.026  0.9556 -1.1582 -1.8399
   34MOL0     H 4545   1.242   4.381   2.929 -1.3689  2.9027  2.0601
   34MOL0     H 4546   1.400   4.294   3.142  0.0389 -0.4574  1.7023
   34MOL0     H 4547   1.243   4.316   3.221 -0.5881  2.8184  1.2150
   34MOL0     H 4548   1.418   4.508   3.241  1.0633 -1.1722 -1.0191
   34MOL0     H 4549   1.252   4.550   3.216  0.3724  2.1194 -0.8087
   34MOL0     H 4550   1.405   4.657   2.843 -4.5620  0.6814 -0.1200
   34MOL0     H 4551   1.395   4.983   2.720 -1.0513 -1.3631  1.5110
   34MOL0     H 4552   1.574   4.944   2.718  0.6970 -1.7587 -3.1973
   34MOL0     H 4553   1.448   4.832   2.666 -0.6547 -0.1029  0.8062
   34MOL0     H 4554   1.478   5.326   3.246  3.7399 -3.1527  2.5479
   34MOL0     H 4555   1.517   5.585   3.226  0.6993  1.4523 -0.0321
   34MOL0     H 4556   1.828   5.731   2.966 -0.5721 -1.6005 -1.3299
   34MOL0     H 4557   1.677   5.744   2.884  0.6431 -1.3423 -0.9434
   34MOL0     H 4558   1.719   5.971   2.923  2.9627  1.8658  0.1189
   34MOL0     H 4559   1.647   5.944   3.079 -0.4087  0.7586 -0.6808
   34MOL0     H 4560   1.942   5.936   2.988 -0.2214 -0.5476 -0.2524
   34MOL0     H 4561   1.898   5.928   3.166  0.8426  1.6869 -0.2702
   34MOL0     H 4562   1.895   6.163   2.977 -3.2391  1.3784 -0.2487
   34MOL0     H 4563   1.770   6.144   3.092  0.3108 -3.1181  0.0826
   34MOL0     H 4564   2.005   6.274   3.158 -1.8563  1.4835  1.5772
   34MOL0     H 4565   2.060   6.113   3.199  0.1988  0.7158  1.3782
   34MOL0     H 4566   1.825   6.277   3.310 -0.0936  1.0859  3.1109
   34MOL0     H 4567   1.871   6.118   3.372 -1.9553  0.7967 -0.6794
   34MOL0     H 4568   2.063   6.358   3.385  0.5349  0.7983  0.8450
   34MOL0     H 4569   2.096   6.187   3.402 -0.2153  1.3317 -2.4345
   34MOL0     H 4570   2.052   6.226   3.632 -1.6154 -3.0084  0.2251
   34MOL0     H 4571   1.890   6.200   3.585  2.3590 -2.5058 -0.3458
   34MOL0     H 4572   1.811   5.516   2.940 -0.0332 -3.1538 -3.0619
   34MOL0     H 4573   1.756   5.271   2.926 -0.8765  0.2813  0.7252
   34MOL0     H 4574   1.478   4.960   3.228 -1.9243  2.0616 -0.2718
   34MOL0     H 4575   1.410   4.746   3.251 -1.1407 -0.0080 -0.4313
   34MOL0     H 4576   1.975   4.943   2.736 -2.9606  0.9285  0.8408
   34MOL0     H 4577   2.103   5.139   2.828 -1.8072  4.2820  0.7705
   34MOL0     H 4578   2.042   5.737   2.887  0.4597  3.5408 -1.7964
   34MOL0     H 4579   2.168   5.906   2.872 -3.2440 -2.8340  1.6548
   34MOL0     H 4580   2.372   6.015   2.913 -3.2045 -3.0193 -2.9306
   34MOL0     H 4581   2.524   6.057   2.835  1.4769 -0.7164  0.4626
   34MOL0     H 4582   2.239   6.183   2.794  0.3834  1.3921 -0.8111
   34MOL0     H 4583   2.362   6.183   2.668  1.1513 -1.0768 -0.4429
   34MOL0     H 4584   2.400   6.380   2.803 -0.1096 -0.4426 -0.8951
   34MOL0     H 4585   2.529   6.271   2.856  0.2267  1.1505  4.2115
   34MOL0     H 4586   2.395   6.221   3.075 -0.4580 -0.4869 -0.7443
   34MOL0     H 4587   2.284   6.349   3.026  1.4835  0.9302 -1.2949
   34MOL0     H 4588   2.570   6.574   3.216 -1.9988  3.8728 -1.5810
   34MOL0     H 4589   2.460   5.712   2.624  1.3430  0.4984  2.1253
   34MOL0     H 4590   2.359   5.492   2.680 -2.0519 -1.8127  1.4947
   35MOL0     O 4591   7.273   1.916  11.095  0.3814  1.0003 -0.3460
   35MOL0     C 4592   7.280   1.902  10.974 -0.1531  0.5953  0.5920
   35MOL0     O 4593   7.272   1.787  10.899  0.5080  0.2232 -0.2400
   35MOL0     C 4594   7.229   1.663  10.947 -0.9423  0.1876 -0.7745
   35MOL0     C 4595   7.307   1.587  11.041  0.5179 -0.4233  0.6504
   35MOL0     C 4596   7.265   1.469  11.098 -0.2822 -0.0944 -0.0369
   35MOL0     C 4597   7.147   1.411  11.051  0.3249 -0.2468 -0.5370
   35MOL0     O 4598   7.079   1.297  11.084 -0.2065  0.1869  0.3723
   35MOL0     C 4599   7.130   1.206  11.180  0.5228  0.3054  0.7310
   35MOL0     C 4600   7.263   1.136  11.145  0.1875 -0.0175  0.4843
   35MOL0     C 4601   7.275   1.038  11.025 -0.3575 -0.6394 -0.0763
   35MOL0     C 4602   7.235   1.107  10.895 -0.9351 -0.5574 -0.3385
   35MOL0     C 4603   7.353   1.201  10.861  0.4440 -0.7216  1.1419
   35MOL0     C 4604   7.347   1.270  10.718  0.1012 -0.5050 -0.0042
   35MOL0     C 4605   7.445   1.389  10.715  0.4518  0.0180 -0.4468
   35MOL0     C 4606   7.465   1.446  10.572  0.6774  0.6117  1.4807
   35MOL0     N 4607   7.527   1.577  10.579 -0.4064 -0.7905 -0.1140
   35MOL0     C 4608   7.664   1.601  10.601  0.2590 -1.3803 -0.3292
   35MOL0     C 4609   7.667   1.744  10.580 -0.1402  0.9959 -0.0059
   35MOL0     C 4610   7.789   1.820  10.550  0.3774 -0.2817 -0.1987
   35MOL0     C 4611   7.838   1.814  10.408  0.0794  1.1058  0.0502
   35MOL0     C 4612   7.747   1.890  10.312 -0.5816 -0.6219 -0.2711
   35MOL0     C 4613   7.647   1.815  10.226  0.2504 -0.1466  0.5233
   35MOL0     O 4614   7.578   1.907  10.144 -0.3611 -0.4133 -0.2261
   35MOL0     C 4615   7.471   1.974  10.199  0.6302  0.4724 -0.0832
   35MOL0     C 4616   7.456   2.099  10.161 -0.2395 -0.8717  0.3477
   35MOL0     C 4617   7.339   2.168  10.200 -0.4179 -0.1783  0.5056
   35MOL0     C 4618   7.330   2.309  10.151 -0.2567  0.2440  0.7280
   35MOL0     C 4619   7.254   2.121  10.300  0.0187 -0.7295  0.4709
   35MOL0     C 4620   7.140   2.203  10.353 -0.2792  0.9015  0.9087
   35MOL0     O 4621   7.077   2.127  10.455  0.4261 -0.3350 -0.4712
   35MOL0     C 4622   7.016   2.185  10.562 -0.2380 -0.1980 -0.7191
   35MOL0     C 4623   7.029   2.313  10.601  0.2963 -0.0522 -0.0563
   35MOL0     C 4624   6.980   2.364  10.716  0.2495  0.3935 -0.5789
   35MOL0     C 4625   6.878   2.283  10.783  0.8419  0.3939  0.3470
   35MOL0     O 4626   6.808   2.313  10.896  0.4293  0.0502 -0.3780
   35MOL0     C 4627   6.813   2.449  10.941  0.7006  0.3946 -0.0133
   35MOL0     C 4628   6.725   2.460  11.068 -0.0613  0.1709 -0.3311
   35MOL0     C 4629   6.744   2.581  11.156 -0.1143 -0.9010 -0.2223
   35MOL0     C 4630   6.654   2.578  11.283  0.2091 -0.2084  0.2556
   35MOL0     C 4631   6.702   2.666  11.393  0.1022 -0.9871  0.2158
   35MOL0     C 4632   6.804   2.600  11.480  0.3834 -0.9484 -0.3273
   35MOL0     C 4633   6.805   2.646  11.632  0.7978  0.5249 -0.0116
   35MOL0     C 4634   6.851   2.790  11.641 -1.0077 -0.2087  0.7688
   35MOL0    Cl 4635   7.015   2.821  11.567  0.8129 -0.1419  0.3016
   35MOL0     C 4636   6.873   2.142  10.746 -0.0088 -0.6099 -0.4245
   35MOL0     C 4637   6.947   2.100  10.638  0.1994  0.1659 -0.2232
   35MOL0     O 4638   7.113   2.319  10.313 -0.6251  0.4248  0.5136
   35MOL0     C 4639   7.274   1.986  10.341  1.2007 -0.5285  0.6714
   35MOL0     C 4640   7.382   1.910  10.292 -0.1358 -0.9638 -0.6661
   35MOL0     N 4641   7.536   1.795  10.567 -0.6851  0.6147  0.5863
   35MOL0     N 4642   7.454   1.693  10.561 -0.0313  0.0242  0.1188
   35MOL0     C 4643   7.074   1.477  10.953 -0.1524  0.5219  0.5263
   35MOL0     C 4644   7.109   1.604  10.905  0.0215  0.0907 -0.3461
   35MOL0     C 4645   7.297   2.026  10.895  1.1095 -0.1001 -0.1971
   35MOL0     C 4646   7.254   2.147  10.943  1.5743  1.1365 -0.1066
   35MOL0     C 4647   7.281   2.264  10.870  0.3607 -1.2968  0.1397
   35MOL0     C 4648   7.339   2.263  10.745 -0.2426  0.0162  0.1391
   35MOL0     O 4649   7.371   2.385  10.700 -0.4742 -0.5812 -0.2896
   35MOL0     C 4650   7.418   2.407  10.564  0.1329  0.3481 -0.5174
   35MOL0     C 4651   7.458   2.555  10.523 -0.1946  0.8068 -0.2731
   35MOL0     C 4652   7.550   2.626  10.624 -0.4882 -0.7296 -0.0891
   35MOL0     C 4653   7.681   2.554  10.646  0.3952  0.7565  0.2611
   35MOL0     C 4654   7.768   2.546  10.528 -0.2167  0.2097 -0.1917
   35MOL0     C 4655   7.815   2.529  10.414  0.1886  0.3544  0.1325
   35MOL0     C 4656   7.363   2.142  10.684  0.2031  0.4472 -0.2353
   35MOL0     C 4657   7.350   2.023  10.760  0.1906  0.0044 -0.0340
   35MOL0     H 4658   7.404   1.633  11.059  1.1843 -0.5785 -2.0880
   35MOL0     H 4659   7.332   1.413  11.162  2.0534  1.9229 -0.5722
   35MOL0     H 4660   7.149   1.253  11.277 -2.4978 -1.6170  2.4300
   35MOL0     H 4661   7.053   1.131  11.203 -0.2290  0.9425  0.3179
   35MOL0     H 4662   7.337   1.216  11.145 -1.0660  1.1904 -1.1239
   35MOL0     H 4663   7.299   1.080  11.233  1.3787  1.1484  0.7686
   35MOL0     H 4664   7.372   0.987  11.030  1.1544  2.0365 -0.3553
   35MOL0     H 4665   7.197   0.962  11.017 -1.2157  0.3730 -2.1869
   35MOL0     H 4666   7.236   1.018  10.830  1.4837 -1.5546  0.9225
   35MOL0     H 4667   7.136   1.150  10.911 -0.0367  1.6298 -0.3172
   35MOL0     H 4668   7.363   1.285  10.930 -1.5749  1.6873 -1.2909
   35MOL0     H 4669   7.437   1.131  10.862  1.8903  0.9272  1.1494
   35MOL0     H 4670   7.364   1.188  10.647 -1.9678 -1.3938  0.4487
   35MOL0     H 4671   7.245   1.304  10.699 -0.8143 -3.3128 -0.6076
   35MOL0     H 4672   7.393   1.471  10.767 -1.8599  1.5586 -4.6876
   35MOL0     H 4673   7.539   1.365  10.766  1.4803  1.1766 -1.7133
   35MOL0     H 4674   7.365   1.443  10.527  0.7643 -2.2414  1.3286
   35MOL0     H 4675   7.520   1.369  10.517 -1.5749 -0.5811  0.7769
   35MOL0     H 4676   7.758   1.548  10.590  0.7970 -1.2448  2.7142
   35MOL0     H 4677   7.773   1.923  10.584 -1.1776  0.1327 -2.0365
   35MOL0     H 4678   7.869   1.784  10.615  0.4217  0.5205  0.2136
   35MOL0     H 4679   7.843   1.709  10.378  1.5975  0.7548  1.4058
   35MOL0     H 4680   7.941   1.851  10.411  1.4493 -2.2502  3.2230
   35MOL0     H 4681   7.802   1.941  10.233 -0.9657 -2.1619 -1.5964
   35MOL0     H 4682   7.700   1.974  10.365 -2.3885 -0.6379 -1.7357
   35MOL0     H 4683   7.588   1.746  10.288 -3.8841  1.6213 -1.0792
   35MOL0     H 4684   7.699   1.748  10.157 -2.1573 -2.5561  0.8886
   35MOL0     H 4685   7.532   2.127  10.088  0.7168 -0.8874  1.3186
   35MOL0     H 4686   7.230   2.338  10.117  0.3457  1.9280  0.2584
   35MOL0     H 4687   7.365   2.366  10.237 -2.5406  1.6508  0.8140
   35MOL0     H 4688   7.396   2.321  10.064 -1.4992 -1.2154 -0.4814
   35MOL0     H 4689   7.109   2.367  10.551  1.2394 -0.1478  1.3174
   35MOL0     H 4690   6.994   2.464  10.757 -4.3412  1.8723 -1.9557
   35MOL0     H 4691   6.913   2.484  10.967  0.6752  0.8945 -0.5582
   35MOL0     H 4692   6.773   2.510  10.859  0.8521  1.5965  0.7775
   35MOL0     H 4693   6.623   2.455  11.029  0.2184 -2.6278 -0.9242
   35MOL0     H 4694   6.742   2.370  11.129 -1.5342 -0.4109 -0.7178
   35MOL0     H 4695   6.727   2.676  11.106 -0.8618  1.2799  3.7509
   35MOL0     H 4696   6.849   2.575  11.189 -1.5563 -3.0132  5.0362
   35MOL0     H 4697   6.554   2.610  11.253 -0.5301 -2.7212 -0.2035
   35MOL0     H 4698   6.646   2.474  11.316  0.1440  0.0301  0.9967
   35MOL0     H 4699   6.615   2.696  11.452 -1.5456  2.6426 -3.5569
   35MOL0     H 4700   6.733   2.761  11.348  1.9602 -2.3540 -1.6226
   35MOL0     H 4701   6.783   2.493  11.484  2.6100 -1.4433 -0.8270
   35MOL0     H 4702   6.903   2.615  11.436  0.2549 -0.4828 -0.4683
   35MOL0     H 4703   6.871   2.579  11.687  2.8431 -0.0111 -2.8476
   35MOL0     H 4704   6.710   2.639  11.685  1.2723  0.6633  0.8692
   35MOL0     H 4705   6.869   2.812  11.747  1.6277 -0.8953  0.5471
   35MOL0     H 4706   6.779   2.860  11.599 -0.9047  0.8173  2.2315
   35MOL0     H 4707   6.820   2.070  10.809 -0.5261  1.3817  1.5659
   35MOL0     H 4708   6.947   1.995  10.610  0.6313  0.3331 -0.8652
   35MOL0     H 4709   7.203   1.933  10.404 -1.1860 -1.3654 -2.4552
   35MOL0     H 4710   7.401   1.809  10.327 -2.7216 -1.4325 -0.3513
   35MOL0     H 4711   6.981   1.437  10.915  0.5426  0.7602 -1.5787
   35MOL0     H 4712   7.053   1.654  10.826  1.1969 -0.4429 -1.5450
   35MOL0     H 4713   7.206   2.172  11.038  1.8799  2.5562 -0.3176
   35MOL0     H 4714   7.273   2.369  10.898 -0.2748 -0.7902 -1.7745
   35MOL0     H 4715   7.503   2.339  10.552  0.3515  0.2134  1.4778
   35MOL0     H 4716   7.334   2.367  10.505  0.4940  0.7639 -1.3268
   35MOL0     H 4717   7.367   2.603  10.487 -0.5185  0.1412 -0.3536
   35MOL0     H 4718   7.517   2.550  10.431  0.7444 -1.7557  0.3802
   35MOL0     H 4719   7.495   2.631  10.718 -3.5138  1.1723 -1.7904
   35MOL0     H 4720   7.553   2.732  10.595 -4.1319 -0.6101 -0.4438
   35MOL0     H 4721   7.649   2.454  10.676  2.7954  0.9097  3.9853
   35MOL0     H 4722   7.732   2.602  10.730 -3.3198  0.0638  3.2067
   35MOL0     H 4723   7.857   2.517  10.316 -2.2064 -0.3417 -0.8709
   35MOL0     H 4724   7.397   2.133  10.581 -4.4638 -1.4725 -1.8555
   35MOL0     H 4725   7.371   1.928  10.712  1.6332 -1.1502  2.6301
   36MOL0     O 4726  10.029   8.044   3.460  1.2418  0.3148 -0.4310
   36MOL0     C 4727  10.088   8.000   3.362  0.0473 -0.4354 -0.6263
   36MOL0     O 4728  10.220   8.045   3.329  0.0860 -0.4879  1.1687
   36MOL0     C 4729  10.257   8.157   3.394 -0.1555 -0.1300  0.2226
   36MOL0     C 4730  10.362   8.151   3.486  0.4932  0.1587  0.2572
   36MOL0     C 4731  10.412   8.263   3.551  0.3998 -0.2908 -0.4337
   36MOL0     C 4732  10.357   8.385   3.513  0.5610 -1.2274 -0.4794
   36MOL0     O 4733  10.388   8.508   3.567 -1.0941  0.3346 -0.0994
   36MOL0     C 4734  10.385   8.534   3.711  1.2355  0.5675  0.0909
   36MOL0     C 4735  10.298   8.434   3.787 -1.2397  0.3759 -0.5764
   36MOL0     C 4736  10.276   8.488   3.929 -0.2071 -0.2844  0.3620
   36MOL0     C 4737  10.130   8.449   3.986 -0.6428 -0.0312  0.1348
   36MOL0     C 4738  10.108   8.464   4.137 -0.8625 -1.2119 -0.3556
   36MOL0     C 4739   9.964   8.492   4.157  0.1194  0.0031 -0.0771
   36MOL0     C 4740   9.945   8.548   4.297 -0.3175 -0.0656 -0.5189
   36MOL0     C 4741   9.795   8.584   4.330 -0.0251 -0.1609 -0.2555
   36MOL0     N 4742   9.717   8.461   4.329 -0.6992 -0.5725  0.0810
   36MOL0     C 4743   9.648   8.416   4.219 -0.4103  0.1747  0.2709
   36MOL0     C 4744   9.606   8.298   4.266  0.4642  0.6694 -0.7297
   36MOL0     C 4745   9.537   8.199   4.174  0.7334 -0.0204 -0.2148
   36MOL0     C 4746   9.619   8.071   4.151 -0.1874 -0.5802  0.2301
   36MOL0     C 4747   9.763   8.106   4.105 -0.3166 -0.6775 -0.1172
   36MOL0     C 4748   9.759   8.187   3.973  0.5200 -0.4164  0.1726
   36MOL0     O 4749   9.690   8.092   3.879 -0.6327  0.3502  0.5950
   36MOL0     C 4750   9.680   8.108   3.744 -0.6176  0.5624  0.3430
   36MOL0     C 4751   9.735   8.219   3.678 -1.1599 -0.1215  0.6511
   36MOL0     C 4752   9.733   8.232   3.541  0.3561 -0.6549 -0.0864
   36MOL0     C 4753   9.823   8.342   3.488 -0.1297 -0.2356  0.1288
   36MOL0     C 4754   9.657   8.141   3.459 -0.0111  0.4703 -0.6334
   36MOL0     C 4755   9.648   8.138   3.308 -0.3177  0.0104 -0.9288
   36MOL0     O 4756   9.569   8.042   3.249 -0.7304  0.6503 -0.7010
   36MOL0     C 4757   9.574   8.021   3.109  1.1904 -0.1529  0.5149
   36MOL0     C 4758   9.446   8.021   3.046  0.0962  1.2729  0.4731
   36MOL0     C 4759   9.445   8.018   2.905 -0.9377 -1.2681  0.0052
   36MOL0     C 4760   9.568   8.009   2.835 -0.4225  0.3522  0.1280
   36MOL0     O 4761   9.575   7.997   2.699 -0.7565 -0.4570 -0.1768
   36MOL0     C 4762   9.453   8.023   2.625 -0.4237  0.2217  0.2812
   36MOL0     C 4763   9.493   8.027   2.484  0.3703 -0.3211  0.1128
   36MOL0     C 4764   9.366   8.056   2.394  0.3142 -0.0953  0.7348
   36MOL0     C 4765   9.411   8.052   2.257  0.4797  0.0616  0.4582
   36MOL0     C 4766   9.280   8.087   2.184  0.4214 -0.4483 -0.3471
   36MOL0     C 4767   9.336   8.127   2.049 -0.9440 -0.6183 -0.0909
   36MOL0     C 4768   9.228   8.127   1.942  0.0641  0.1876 -0.6269
   36MOL0     C 4769   9.277   8.186   1.805 -0.9401  0.0564 -0.5223
   36MOL0    Cl 4770   9.393   8.080   1.716  0.1861  0.3644 -0.6252
   36MOL0     C 4771   9.687   8.003   2.898  0.0070  0.4485  0.4021
   36MOL0     C 4772   9.693   8.006   3.043  0.0960 -0.7269 -0.6508
   36MOL0     O 4773   9.719   8.220   3.242  0.1740  0.9892 -0.1041
   36MOL0     C 4774   9.597   8.036   3.528  0.7769 -0.0818 -0.8101
   36MOL0     C 4775   9.613   8.018   3.670  0.2515  0.2291 -0.5341
   36MOL0     N 4776   9.629   8.277   4.401 -0.0162  0.4628 -0.9647
   36MOL0     N 4777   9.693   8.381   4.436 -1.5431 -0.0569  0.9412
   36MOL0     C 4778  10.264   8.397   3.409  0.5807 -0.7025  0.5527
   36MOL0     C 4779  10.212   8.282   3.350 -0.7905  0.0124 -0.8406
   36MOL0     C 4780  10.030   7.888   3.291 -0.5110  0.2750 -0.3632
   36MOL0     C 4781  10.098   7.819   3.190  1.2181 -0.3587 -0.8994
   36MOL0     C 4782  10.033   7.712   3.119 -0.1926 -0.2663 -1.1156
   36MOL0     C 4783   9.900   7.673   3.150  0.2451  1.2853 -0.8974
   36MOL0     O 4784   9.836   7.563   3.089  0.0526 -0.3272 -0.4647
   36MOL0     C 4785   9.915   7.497   2.986 -0.5212  1.2124 -0.1431
   36MOL0     C 4786   9.936   7.571   2.854  0.3428  0.2432 -0.5435
   36MOL0     C 4787   9.815   7.527   2.762 -0.4754 -0.3471  0.7261
   36MOL0     C 4788   9.779   7.642   2.676  0.1885  0.2069  0.2014
   36MOL0     C 4789   9.878   7.672   2.576 -0.9021  0.0992  0.0110
   36MOL0     C 4790   9.957   7.697   2.492 -0.1886  0.2842 -0.3367
   36MOL0     C 4791   9.830   7.736   3.255 -0.3240  0.3361 -0.1122
   36MOL0     C 4792   9.901   7.844   3.329  0.5141  0.9527  1.3406
   36MOL0     H 4793  10.400   8.055   3.519 -2.7976 -1.7556 -1.0513
   36MOL0     H 4794  10.481   8.265   3.636  0.0722 -2.3184 -0.0690
   36MOL0     H 4795  10.487   8.537   3.750 -0.0655  2.7899  3.8485
   36MOL0     H 4796  10.330   8.626   3.733 -3.4447 -1.7633 -0.4443
   36MOL0     H 4797  10.201   8.405   3.744 -0.7417 -2.5707  0.0459
   36MOL0     H 4798  10.356   8.341   3.789 -2.2366 -0.2984 -1.6432
   36MOL0     H 4799  10.360   8.469   3.996  2.3544  1.8042 -2.0085
   36MOL0     H 4800  10.284   8.597   3.928  2.1646 -0.3987  1.0691
   36MOL0     H 4801  10.065   8.513   3.926  0.4500 -0.3738 -1.5076
   36MOL0     H 4802  10.109   8.343   3.972  2.7594 -1.6757  4.8236
   36MOL0     H 4803  10.138   8.383   4.205  1.4983  1.5447  2.2196
   36MOL0     H 4804  10.168   8.552   4.161 -1.6503 -1.1339  1.5411
   36MOL0     H 4805   9.931   8.563   4.081 -2.3523  1.3273  2.0800
   36MOL0     H 4806   9.906   8.400   4.145 -1.3992  0.8267  0.7052
   36MOL0     H 4807   9.976   8.473   4.371 -3.9981  0.2998  1.6417
   36MOL0     H 4808  10.004   8.637   4.320  0.7391 -1.0435  0.7733
   36MOL0     H 4809   9.761   8.657   4.256 -1.8174 -0.0975  0.5781
   36MOL0     H 4810   9.796   8.620   4.433 -1.3427 -0.9454  0.0563
   36MOL0     H 4811   9.642   8.467   4.123  3.1878  1.6141  0.6256
   36MOL0     H 4812   9.443   8.171   4.222  3.5704 -2.0017  4.9792
   36MOL0     H 4813   9.514   8.251   4.081  4.4443  4.9385  1.2452
   36MOL0     H 4814   9.570   8.013   4.071 -2.7612  2.9869 -1.0536
   36MOL0     H 4815   9.624   8.009   4.241  4.7033 -0.2799  0.4397
   36MOL0     H 4816   9.834   8.023   4.120  2.2542  1.5595  1.0452
   36MOL0     H 4817   9.817   8.178   4.167  0.7977 -0.5587 -1.2003
   36MOL0     H 4818   9.858   8.212   3.933 -1.0402 -0.4119 -4.3213
   36MOL0     H 4819   9.700   8.278   3.967 -0.8371 -1.2147  1.0280
   36MOL0     H 4820   9.782   8.301   3.732  0.1885 -1.7069  1.9608
   36MOL0     H 4821   9.773   8.399   3.409  0.1835  0.7596  0.6467
   36MOL0     H 4822   9.858   8.407   3.568  1.3326  2.0120 -2.1841
   36MOL0     H 4823   9.918   8.304   3.449  1.2826  4.9388 -2.4148
   36MOL0     H 4824   9.354   8.029   3.104 -0.0789  0.0340  0.3946
   36MOL0     H 4825   9.347   8.024   2.860 -0.9833 -0.1427  0.2147
   36MOL0     H 4826   9.388   7.936   2.639  1.9181 -1.4468  1.4430
   36MOL0     H 4827   9.395   8.110   2.655 -0.9928  0.0919 -0.4205
   36MOL0     H 4828   9.560   8.110   2.462  1.5038 -1.1814  0.2149
   36MOL0     H 4829   9.542   7.931   2.463 -0.8609 -1.0231  0.3426
   36MOL0     H 4830   9.327   8.156   2.416  0.1971 -0.0275  0.2248
   36MOL0     H 4831   9.286   7.983   2.408  0.2466 -0.3258 -0.6882
   36MOL0     H 4832   9.487   8.127   2.232 -0.5709 -0.0176 -3.8894
   36MOL0     H 4833   9.456   7.957   2.228 -0.2851 -1.5299  4.0137
   36MOL0     H 4834   9.226   8.171   2.229 -2.3022 -2.2026 -0.1118
   36MOL0     H 4835   9.211   8.004   2.167 -2.1677  1.4372  0.4063
   36MOL0     H 4836   9.388   8.223   2.054  2.0360 -2.1612  1.7001
   36MOL0     H 4837   9.410   8.052   2.020  1.3253  1.0823  0.9703
   36MOL0     H 4838   9.144   8.192   1.967  0.2053  1.0227 -2.2014
   36MOL0     H 4839   9.194   8.025   1.925  2.2216 -1.6568  4.2372
   36MOL0     H 4840   9.324   8.282   1.829 -4.5580  1.7224  0.6956
   36MOL0     H 4841   9.192   8.205   1.738 -0.3119  2.0912 -0.8358
   36MOL0     H 4842   9.788   8.001   2.856 -0.0654  0.8176  0.2081
   36MOL0     H 4843   9.782   8.001   3.105 -0.2449  1.0849  0.0452
   36MOL0     H 4844   9.545   7.955   3.477  2.7123 -3.5456  2.2743
   36MOL0     H 4845   9.571   7.925   3.706 -0.0640 -0.0612 -1.6040
   36MOL0     H 4846  10.231   8.499   3.390 -1.3872 -1.1123  1.5754
   36MOL0     H 4847  10.134   8.287   3.275 -1.0065  0.0539 -0.6136
   36MOL0     H 4848  10.197   7.853   3.160  2.8707 -1.1800  3.0552
   36MOL0     H 4849  10.094   7.664   3.043  0.8134  1.5178 -1.5038
   36MOL0     H 4850  10.013   7.474   3.027 -0.0513  1.1122 -1.2824
   36MOL0     H 4851   9.863   7.401   2.970 -2.0358  1.0345  4.4453
   36MOL0     H 4852  10.033   7.537   2.818  1.2591 -0.8991  2.6662
   36MOL0     H 4853   9.930   7.680   2.860  1.4622  0.3891 -1.6779
   36MOL0     H 4854   9.727   7.513   2.825 -0.8891 -1.2406 -0.0333
   36MOL0     H 4855   9.836   7.442   2.697  0.6111 -0.0552  0.6608
   36MOL0     H 4856   9.734   7.730   2.721 -4.2100  1.6572 -5.7646
   36MOL0     H 4857   9.687   7.610   2.627 -1.5852  1.1561  2.6873
   36MOL0     H 4858  10.012   7.678   2.401  0.2253 -0.4189  0.0475
   36MOL0     H 4859   9.727   7.710   3.277 -0.4942  0.0864 -1.1337
   36MOL0     H 4860   9.837   7.890   3.404 -0.2768 -2.6604  3.0866
   37MOL0     O 4861   5.504   8.549   2.336  0.1884  0.7150  0.1722
   37MOL0     C 4862   5.531   8.425   2.333  1.6189 -0.6317  0.3468
   37MOL0     O 4863   5.614   8.358   2.410 -0.0979  0.1345  0.0195
   37MOL0     C 4864   5.700   8.435   2.486  0.0238 -0.3239 -0.6248
   37MOL0     C 4865   5.829   8.445   2.440  0.0173  0.4895 -0.9199
   37MOL0     C 4866   5.930   8.490   2.528  0.5876 -0.0665 -0.0034
   37MOL0     C 4867   5.894   8.549   2.647  0.4238 -0.5979 -1.0229
   37MOL0     O 4868   5.997   8.614   2.714 -0.6908  0.3813  0.4445
   37MOL0     C 4869   6.031   8.549   2.833 -1.3255 -0.4015  0.4736
   37MOL0     C 4870   6.159   8.472   2.816  0.4731 -1.0060  0.6024
   37MOL0     C 4871   6.233   8.454   2.945 -0.0356  1.0791 -0.9280
   37MOL0     C 4872   6.362   8.373   2.933 -0.2898 -0.7991 -0.5733
   37MOL0     C 4873   6.443   8.365   3.069  0.0482  0.5787 -0.3472
   37MOL0     C 4874   6.589   8.316   3.038  0.0066 -0.4677 -0.5500
   37MOL0     C 4875   6.583   8.173   2.995 -0.0770  0.0934 -0.1371
   37MOL0     C 4876   6.715   8.096   3.023 -0.1018  0.1239 -0.5855
   37MOL0     N 4877   6.702   7.955   2.969 -0.0079 -0.3761  0.1854
   37MOL0     C 4878   6.691   7.924   2.833  0.5869 -0.1746 -0.2086
   37MOL0     C 4879   6.684   7.791   2.837  1.1456 -0.2020 -0.1125
   37MOL0     C 4880   6.670   7.697   2.721 -0.4567  0.3229 -0.4575
   37MOL0     C 4881   6.740   7.571   2.748 -0.2257  0.2829 -0.4732
   37MOL0     C 4882   6.891   7.598   2.761 -0.6639  0.1372 -0.6681
   37MOL0     C 4883   6.971   7.476   2.717 -0.3120 -0.4444  0.5732
   37MOL0     O 4884   7.110   7.481   2.746  1.0801 -0.5256  0.0540
   37MOL0     C 4885   7.208   7.416   2.677 -0.2304  0.3186  0.1623
   37MOL0     C 4886   7.337   7.463   2.671 -0.2301  0.6293 -0.5240
   37MOL0     C 4887   7.437   7.385   2.608 -0.8395 -1.1479  0.0318
   37MOL0     C 4888   7.578   7.452   2.612 -0.5258  0.2588 -0.1441
   37MOL0     C 4889   7.403   7.262   2.544 -0.2692  0.2735  0.1534
   37MOL0     C 4890   7.512   7.179   2.475  1.0831 -0.0406  0.1414
   37MOL0     O 4891   7.646   7.203   2.493  0.2946 -0.6674  0.0536
   37MOL0     C 4892   7.731   7.140   2.408  0.3560  0.3100 -1.0456
   37MOL0     C 4893   7.842   7.096   2.465 -0.1844  0.5137  0.5187
   37MOL0     C 4894   7.950   7.038   2.394  0.2473 -0.4417 -0.1168
   37MOL0     C 4895   7.948   7.032   2.256  0.9594  1.1847  0.4728
   37MOL0     O 4896   8.063   7.001   2.188  0.3403 -0.0868  0.2289
   37MOL0     C 4897   8.095   7.098   2.085  0.0040 -0.2843 -0.0395
   37MOL0     C 4898   8.217   7.174   2.118 -0.5942 -0.7766  0.7511
   37MOL0     C 4899   8.267   7.283   2.018 -0.4158 -0.3625 -0.0260
   37MOL0     C 4900   8.173   7.399   1.979  0.1622 -0.1389 -0.2543
   37MOL0     C 4901   8.221   7.473   1.854 -0.2074 -0.0887 -0.3519
   37MOL0     C 4902   8.110   7.543   1.787  0.0178 -0.5290  0.1072
   37MOL0     C 4903   8.161   7.606   1.655 -0.3387  0.6147  0.3565
   37MOL0     C 4904   8.059   7.689   1.593 -0.6274 -0.5807  0.4939
   37MOL0    Cl 4905   8.119   7.725   1.427 -0.5534  0.0493  1.2009
   37MOL0     C 4906   7.818   7.064   2.192  0.3068 -0.8113 -0.2152
   37MOL0     C 4907   7.712   7.119   2.270  0.1441  0.2003 -0.1057
   37MOL0     O 4908   7.474   7.082   2.402 -0.1628 -0.6998  0.3751
   37MOL0     C 4909   7.272   7.225   2.538 -0.6871 -0.6114 -0.4780
   37MOL0     C 4910   7.181   7.304   2.605  0.1783  0.4204 -0.1904
   37MOL0     N 4911   6.706   7.747   2.967  0.3511 -0.2516 -0.2191
   37MOL0     N 4912   6.720   7.842   3.046  0.1968 -0.3255 -0.6917
   37MOL0     C 4913   5.764   8.537   2.698 -0.0651 -0.8796  0.5928
   37MOL0     C 4914   5.667   8.478   2.614 -0.1609  1.2673  0.2024
   37MOL0     C 4915   5.453   8.356   2.230  0.4292 -0.8437  0.2329
   37MOL0     C 4916   5.504   8.234   2.171 -0.1546 -0.1622  0.0685
   37MOL0     C 4917   5.432   8.159   2.076  0.5315  0.4798 -0.6140
   37MOL0     C 4918   5.305   8.196   2.035  0.7291  0.7215  0.2246
   37MOL0     O 4919   5.222   8.124   1.955  0.0285  0.5385  0.3678
   37MOL0     C 4920   5.275   8.004   1.896 -0.2183 -0.2839 -0.7747
   37MOL0     C 4921   5.184   7.911   1.824  0.3297 -0.4269 -0.7768
   37MOL0     C 4922   5.259   7.823   1.713  0.5402 -0.2988 -0.8027
   37MOL0     C 4923   5.192   7.686   1.678 -0.0654 -0.2726  0.1920
   37MOL0     C 4924   5.191   7.592   1.796 -0.4393 -0.4234  0.8851
   37MOL0     C 4925   5.201   7.508   1.883 -0.6254 -0.6668  0.9624
   37MOL0     C 4926   5.256   8.308   2.094 -0.3404 -0.0130 -0.0459
   37MOL0     C 4927   5.328   8.393   2.190  0.8767 -0.3923 -0.1434
   37MOL0     H 4928   5.847   8.381   2.355 -2.8141 -3.1951  0.9249
   37MOL0     H 4929   6.035   8.491   2.500  0.4651 -1.6263 -0.6028
   37MOL0     H 4930   6.053   8.641   2.890 -3.1023 -0.3836  1.1982
   37MOL0     H 4931   5.951   8.507   2.894 -3.0011  3.6914  1.4618
   37MOL0     H 4932   6.123   8.374   2.784  0.6549 -0.6486 -0.7850
   37MOL0     H 4933   6.218   8.519   2.736  0.0128  1.5263  1.6437
   37MOL0     H 4934   6.276   8.552   2.970 -0.0019  1.8789 -3.7976
   37MOL0     H 4935   6.171   8.418   3.027  0.6846  2.5640  0.3408
   37MOL0     H 4936   6.337   8.276   2.891 -1.6518  0.3389 -2.5504
   37MOL0     H 4937   6.422   8.432   2.863 -1.9709  2.0638  0.2097
   37MOL0     H 4938   6.441   8.468   3.104 -3.1355  0.8997 -1.1505
   37MOL0     H 4939   6.389   8.310   3.147  1.7923  1.1265  1.3104
   37MOL0     H 4940   6.634   8.387   2.967  1.1130 -1.0787 -0.4808
   37MOL0     H 4941   6.653   8.328   3.125 -0.0356  3.9496 -0.9042
   37MOL0     H 4942   6.506   8.120   3.052  0.3444 -1.9990 -1.4136
   37MOL0     H 4943   6.576   8.174   2.885  2.1012 -2.3385 -0.3832
   37MOL0     H 4944   6.728   8.103   3.131  0.4480 -1.0646 -0.5647
   37MOL0     H 4945   6.798   8.151   2.976  0.6305  0.1995  0.7585
   37MOL0     H 4946   6.697   7.985   2.743  4.0948  0.2688  0.1914
   37MOL0     H 4947   6.564   7.681   2.702 -1.4613  3.1574  1.9768
   37MOL0     H 4948   6.709   7.748   2.633 -0.7011  0.4017 -0.5207
   37MOL0     H 4949   6.734   7.513   2.655  5.0908  2.1852 -2.3723
   37MOL0     H 4950   6.694   7.515   2.830 -1.2270 -0.2346 -1.3660
   37MOL0     H 4951   6.922   7.618   2.863  0.2588 -3.6059 -0.0699
   37MOL0     H 4952   6.912   7.681   2.692 -1.2624  0.4270 -0.5028
   37MOL0     H 4953   6.971   7.450   2.611 -0.5013 -2.6948  1.0618
   37MOL0     H 4954   6.920   7.387   2.756  0.1656  0.6171  3.9949
   37MOL0     H 4955   7.365   7.558   2.716 -0.1691  0.3298  0.0735
   37MOL0     H 4956   7.648   7.397   2.676 -0.7781  2.3485  2.1081
   37MOL0     H 4957   7.617   7.460   2.511 -1.3143 -0.1052 -0.4868
   37MOL0     H 4958   7.567   7.553   2.652 -3.9129  0.0560 -0.2811
   37MOL0     H 4959   7.843   7.104   2.573  2.7363  2.2894  0.4493
   37MOL0     H 4960   8.040   7.006   2.447 -1.7213 -2.7591  2.1055
   37MOL0     H 4961   8.106   7.032   1.998  0.9856 -2.1508  1.4330
   37MOL0     H 4962   8.008   7.162   2.069 -1.1925 -2.0198 -0.8424
   37MOL0     H 4963   8.205   7.226   2.213  4.0416 -0.6128  1.4491
   37MOL0     H 4964   8.304   7.111   2.139 -0.1820 -0.3528  0.3276
   37MOL0     H 4965   8.317   7.226   1.939  1.2976 -1.7990  1.9785
   37MOL0     H 4966   8.347   7.334   2.073 -1.5534 -0.0751  1.4127
   37MOL0     H 4967   8.074   7.360   1.953  0.3660  0.1201 -1.4988
   37MOL0     H 4968   8.167   7.468   2.063 -1.3486 -0.3974 -0.1314
   37MOL0     H 4969   8.276   7.403   1.790  3.0248 -1.0036  3.0571
   37MOL0     H 4970   8.301   7.545   1.870 -1.6133  1.6813 -0.9974
   37MOL0     H 4971   8.038   7.463   1.767  1.0274 -1.4025 -0.1147
   37MOL0     H 4972   8.064   7.621   1.848 -0.9255  0.1142 -1.3446
   37MOL0     H 4973   8.201   7.529   1.589  1.2978  0.0683  1.9066
   37MOL0     H 4974   8.242   7.676   1.674  0.8168 -1.2562  2.8759
   37MOL0     H 4975   8.057   7.771   1.666  0.5411 -0.1021  0.0149
   37MOL0     H 4976   7.967   7.630   1.585 -1.8834  1.3472  0.0590
   37MOL0     H 4977   7.816   7.045   2.085 -1.1935 -0.8689 -0.1993
   37MOL0     H 4978   7.619   7.142   2.221 -0.8951  0.3666  1.8561
   37MOL0     H 4979   7.245   7.148   2.467 -0.5511 -0.0854 -1.1131
   37MOL0     H 4980   7.086   7.256   2.589  0.7524 -0.8340  0.0441
   37MOL0     H 4981   5.733   8.568   2.797 -1.1125  0.1278 -0.0154
   37MOL0     H 4982   5.565   8.466   2.650 -0.1981  1.6336  0.2196
   37MOL0     H 4983   5.609   8.217   2.191 -0.3320 -0.7787  0.5101
   37MOL0     H 4984   5.489   8.072   2.045  0.9726  0.6920 -0.4035
   37MOL0     H 4985   5.369   8.002   1.841  2.4807 -2.9405  3.3312
   37MOL0     H 4986   5.305   7.946   1.984  1.4518  1.4264 -0.1240
   37MOL0     H 4987   5.107   7.968   1.771  0.0119  0.6565  0.7985
   37MOL0     H 4988   5.134   7.853   1.902 -1.8276  3.5317  1.0658
   37MOL0     H 4989   5.354   7.795   1.760  1.2852 -0.0839 -2.1413
   37MOL0     H 4990   5.284   7.886   1.628  2.9879  2.8817  2.0215
   37MOL0     H 4991   5.251   7.640   1.598  0.3852  0.1943  0.2497
   37MOL0     H 4992   5.090   7.707   1.644  0.5772  1.9350 -0.5835
   37MOL0     H 4993   5.205   7.434   1.960  0.4225  0.7590  2.3389
   37MOL0     H 4994   5.160   8.346   2.060  0.0259  0.5428 -0.4690
   37MOL0     H 4995   5.283   8.484   2.228  0.7906 -0.2492 -0.5773
   38MOL0     O 4996   1.949   5.345   5.269 -0.1481 -0.4297  0.8366
   38MOL0     C 4997   1.955   5.460   5.227 -0.2057 -0.8758  0.1281
   38MOL0     O 4998   1.848   5.539   5.179 -0.6043  0.6896 -0.0545
   38MOL0     C 4999   1.725   5.490   5.152 -1.0388 -0.1738  1.0568
   38MOL0     C 5000   1.622   5.573   5.154  0.1148 -0.8110 -0.9557
   38MOL0     C 5001   1.491   5.523   5.151  0.6858 -0.1135  0.3475
   38MOL0     C 5002   1.457   5.397   5.125  0.1233  0.3910  0.1648
   38MOL0     O 5003   1.327   5.358   5.131  0.2386  0.3142  0.1191
   38MOL0     C 5004   1.260   5.372   5.259  0.5558 -0.1965  0.6035
   38MOL0     C 5005   1.135   5.283   5.256 -0.2965  0.6825  0.3947
   38MOL0     C 5006   1.188   5.139   5.248  0.4132 -0.3157  0.7762
   38MOL0     C 5007   1.163   5.080   5.106 -0.5929  0.9389 -0.6902
   38MOL0     C 5008   1.273   4.970   5.074  0.2629 -0.9228  0.1027
   38MOL0     C 5009   1.259   4.851   5.163 -0.0468  0.2246 -0.6743
   38MOL0     C 5010   1.357   4.742   5.120  0.0173 -0.2733  0.5059
   38MOL0     C 5011   1.345   4.625   5.222 -0.5612  0.0964  0.0099
   38MOL0     N 5012   1.410   4.493   5.183 -0.1542 -0.0834  0.3338
   38MOL0     C 5013   1.460   4.405   5.270 -1.2697  0.4585 -1.0412
   38MOL0     C 5014   1.523   4.314   5.199 -0.6782  0.2252  0.3347
   38MOL0     C 5015   1.593   4.187   5.249 -0.0449  0.1902  0.0376
   38MOL0     C 5016   1.757   4.210   5.256 -0.2594  0.3850  0.1644
   38MOL0     C 5017   1.836   4.142   5.134  0.5945 -0.0099 -0.1116
   38MOL0     C 5018   1.850   3.989   5.142  0.5022  1.3051  1.2075
   38MOL0     O 5019   1.916   3.953   5.019  0.5751 -0.5085  0.1038
   38MOL0     C 5020   1.917   3.825   4.985  0.1958 -0.2708  0.0196
   38MOL0     C 5021   1.815   3.748   4.929  0.1815 -0.7428 -0.5992
   38MOL0     C 5022   1.833   3.608   4.909  0.0650  0.1409 -1.3541
   38MOL0     C 5023   1.709   3.545   4.842 -0.3603  0.2436  0.1591
   38MOL0     C 5024   1.955   3.542   4.948 -0.0797  0.0771 -0.2968
   38MOL0     C 5025   1.990   3.394   4.929  0.6319 -0.5530 -0.9781
   38MOL0     O 5026   2.106   3.342   4.983 -0.3201  0.1285  0.0193
   38MOL0     C 5027   2.123   3.204   4.977 -0.1259 -0.0721 -0.2617
   38MOL0     C 5028   2.126   3.122   4.864 -0.5099  0.8272 -0.4060
   38MOL0     C 5029   2.157   2.988   4.871  0.3860  0.1539  0.4573
   38MOL0     C 5030   2.191   2.911   4.988  0.0927 -0.1704  1.3766
   38MOL0     O 5031   2.203   2.770   4.979 -0.3394  0.4357  0.4447
   38MOL0     C 5032   2.244   2.701   5.089 -0.4021 -0.5038 -0.2904
   38MOL0     C 5033   2.246   2.555   5.057  0.2611 -0.6879 -0.3150
   38MOL0     C 5034   2.328   2.503   4.936 -0.2024 -0.7290 -0.0714
   38MOL0     C 5035   2.313   2.347   4.926  0.0895  0.3301 -0.2748
   38MOL0     C 5036   2.414   2.277   4.838 -0.6048  0.1665 -0.0312
   38MOL0     C 5037   2.393   2.123   4.838 -0.2232 -0.1340 -0.2354
   38MOL0     C 5038   2.410   2.058   4.973 -0.5070 -0.4264 -0.0797
   38MOL0     C 5039   2.534   2.080   5.067  0.1944 -0.1426  0.3188
   38MOL0    Cl 5040   2.677   2.029   4.977  0.0451  0.2645  0.3307
   38MOL0     C 5041   2.187   2.989   5.099 -0.8875 -0.7966  0.6186
   38MOL0     C 5042   2.156   3.123   5.089 -0.1336 -0.3724 -0.9949
   38MOL0     O 5043   1.910   3.336   4.857 -0.1578  0.0940 -0.1075
   38MOL0     C 5044   2.061   3.624   4.994 -1.5763  0.1249 -0.1369
   38MOL0     C 5045   2.036   3.762   5.018  0.6586  0.3064  0.7212
   38MOL0     N 5046   1.489   4.330   5.067  0.8403  0.1951 -0.8413
   38MOL0     N 5047   1.419   4.441   5.058  0.7454  0.5178  0.4780
   38MOL0     C 5048   1.566   5.309   5.117 -0.1798  0.5911  1.4438
   38MOL0     C 5049   1.695   5.350   5.137  0.8983  0.2950  0.9932
   38MOL0     C 5050   2.085   5.537   5.235 -0.3308  0.3314 -0.8799
   38MOL0     C 5051   2.080   5.679   5.229  0.0203  0.3146 -0.1157
   38MOL0     C 5052   2.195   5.755   5.253 -0.0476  0.3950  0.8616
   38MOL0     C 5053   2.312   5.690   5.285  0.3788 -0.3196  0.3659
   38MOL0     O 5054   2.421   5.773   5.314 -0.3798 -0.5768 -0.2185
   38MOL0     C 5055   2.546   5.725   5.367  0.5045 -0.3919  0.8428
   38MOL0     C 5056   2.521   5.664   5.506 -0.9794 -0.0033 -0.4115
   38MOL0     C 5057   2.436   5.757   5.586  0.2352  0.1327 -0.1553
   38MOL0     C 5058   2.463   5.734   5.739  0.0024  0.8615 -0.2817
   38MOL0     C 5059   2.413   5.840   5.818 -0.0493 -0.5855  0.3642
   38MOL0     C 5060   2.376   5.917   5.910  0.4856 -0.7151  0.6819
   38MOL0     C 5061   2.330   5.556   5.290  0.5329 -0.0115 -0.0862
   38MOL0     C 5062   2.207   5.483   5.265  0.3122  0.1121  0.4530
   38MOL0     H 5063   1.653   5.677   5.164  0.3633 -1.0909  2.2122
   38MOL0     H 5064   1.422   5.605   5.167  0.7387 -0.6271  4.2325
   38MOL0     H 5065   1.324   5.335   5.340  0.5742 -0.9599  0.2465
   38MOL0     H 5066   1.231   5.475   5.284  0.8654  0.9965 -3.2966
   38MOL0     H 5067   1.092   5.311   5.352  0.9529  2.3404  0.5171
   38MOL0     H 5068   1.074   5.311   5.170  2.6994  0.5744 -1.9677
   38MOL0     H 5069   1.293   5.133   5.280 -0.4787 -0.7027  4.0183
   38MOL0     H 5070   1.123   5.074   5.307 -0.5944  0.5803  0.6741
   38MOL0     H 5071   1.059   5.047   5.099 -1.2675  3.3267 -4.8754
   38MOL0     H 5072   1.168   5.155   5.028 -3.9094 -0.1638 -2.1420
   38MOL0     H 5073   1.267   4.935   4.970 -1.3730 -0.3850 -0.0107
   38MOL0     H 5074   1.372   5.017   5.070 -0.1582 -0.0669 -2.3633
   38MOL0     H 5075   1.276   4.885   5.266 -0.0671  0.8733 -0.8829
   38MOL0     H 5076   1.157   4.813   5.158  0.1643 -0.8882  1.8206
   38MOL0     H 5077   1.323   4.701   5.025 -0.7091  1.4077 -0.0095
   38MOL0     H 5078   1.461   4.773   5.112 -0.4283  1.2619  0.2901
   38MOL0     H 5079   1.239   4.610   5.243 -0.1323 -2.4052  0.6119
   38MOL0     H 5080   1.388   4.663   5.315 -0.8051  1.1999 -0.3153
   38MOL0     H 5081   1.467   4.405   5.378  0.5135  0.1621 -1.1234
   38MOL0     H 5082   1.552   4.184   5.350 -1.0405  1.4419 -0.2969
   38MOL0     H 5083   1.569   4.100   5.187 -0.2252 -0.1834  0.6287
   38MOL0     H 5084   1.798   4.174   5.351 -1.5147  0.5500  0.7884
   38MOL0     H 5085   1.788   4.315   5.247  1.7378  0.0217  2.0136
   38MOL0     H 5086   1.935   4.186   5.124 -0.1194  1.9237  0.7734
   38MOL0     H 5087   1.774   4.170   5.048  1.4080  2.4542  0.0085
   38MOL0     H 5088   1.752   3.942   5.158  1.8403 -2.2412 -0.1169
   38MOL0     H 5089   1.901   3.959   5.234 -4.2662  2.7974  4.7408
   38MOL0     H 5090   1.729   3.807   4.896 -0.9903  0.1087  3.4796
   38MOL0     H 5091   1.738   3.468   4.770 -0.5089  0.8881 -0.5924
   38MOL0     H 5092   1.654   3.495   4.923 -2.7813  0.4261 -1.2987
   38MOL0     H 5093   1.655   3.618   4.782  2.4301  0.8960 -1.7728
   38MOL0     H 5094   2.119   3.171   4.767  0.2203 -0.4657 -1.1346
   38MOL0     H 5095   2.160   2.936   4.776 -1.9762 -1.6101  1.2388
   38MOL0     H 5096   2.339   2.730   5.137 -1.8159  2.5242  0.9885
   38MOL0     H 5097   2.172   2.729   5.167 -0.1550  0.0424 -0.2510
   38MOL0     H 5098   2.301   2.507   5.139  2.6203 -0.5143 -1.6814
   38MOL0     H 5099   2.144   2.517   5.059 -0.5355  1.2284 -1.9062
   38MOL0     H 5100   2.434   2.519   4.957  0.5131 -3.7772 -0.8802
   38MOL0     H 5101   2.309   2.557   4.843  0.9505 -1.1048 -0.5471
   38MOL0     H 5102   2.321   2.309   5.029  2.1746  3.1562  0.7430
   38MOL0     H 5103   2.214   2.320   4.886  1.1543 -3.6403 -0.6024
   38MOL0     H 5104   2.521   2.293   4.850 -0.9429  0.9346  2.4281
   38MOL0     H 5105   2.383   2.315   4.740  0.0756 -0.3793 -0.4637
   38MOL0     H 5106   2.297   2.093   4.795  0.4458  0.3871 -2.1962
   38MOL0     H 5107   2.462   2.082   4.763  2.1487 -2.2850  2.8547
   38MOL0     H 5108   2.406   1.954   4.937  1.7153  0.7834 -4.6431
   38MOL0     H 5109   2.321   2.073   5.035 -0.2279 -0.5753  0.3620
   38MOL0     H 5110   2.521   2.015   5.154 -0.0847  0.4757  0.7428
   38MOL0     H 5111   2.552   2.184   5.097 -1.5010 -0.4541  2.6711
   38MOL0     H 5112   2.226   2.951   5.193 -2.4005 -2.5793  0.5830
   38MOL0     H 5113   2.164   3.178   5.182 -1.4385 -0.5928 -0.7296
   38MOL0     H 5114   2.153   3.581   5.031  0.5104  6.2711  3.1423
   38MOL0     H 5115   2.104   3.832   5.067  0.7151  2.1052 -1.7419
   38MOL0     H 5116   1.564   5.202   5.095  0.4108  0.8470  0.0997
   38MOL0     H 5117   1.772   5.274   5.150 -1.0008 -1.3150  4.1251
   38MOL0     H 5118   1.989   5.735   5.212 -1.2606 -1.6564 -0.0345
   38MOL0     H 5119   2.182   5.861   5.272  0.7447  0.4900  0.8905
   38MOL0     H 5120   2.584   5.656   5.292  1.8587 -0.0887  1.2312
   38MOL0     H 5121   2.615   5.809   5.377 -1.1095  1.6215 -2.9803
   38MOL0     H 5122   2.618   5.651   5.554 -2.8782  1.4749  4.4147
   38MOL0     H 5123   2.478   5.563   5.506 -0.2189 -0.4227  2.7301
   38MOL0     H 5124   2.328   5.742   5.577 -0.1838 -0.3563  3.8254
   38MOL0     H 5125   2.450   5.862   5.562 -0.4436 -0.1599 -2.0151
   38MOL0     H 5126   2.568   5.721   5.763 -0.3112  0.0397  0.7094
   38MOL0     H 5127   2.409   5.642   5.763 -2.4446  2.4360  0.6674
   38MOL0     H 5128   2.346   5.983   5.989  3.5544 -1.5515  2.7167
   38MOL0     H 5129   2.429   5.519   5.315  0.5130  0.3861  0.6117
   38MOL0     H 5130   2.208   5.377   5.289  2.9651  0.4004  2.0545
   39MOL0     O 5131   4.651  11.300   8.227  0.6641 -0.3315  0.2019
   39MOL0     C 5132   4.655  11.195   8.287 -0.2971  0.1740 -0.2436
   39MOL0     O 5133   4.548  11.127   8.352 -0.3809  0.6940 -0.0367
   39MOL0     C 5134   4.415  11.157   8.357 -0.0534  0.0658 -0.4313
   39MOL0     C 5135   4.332  11.064   8.425 -0.8673 -0.8041  0.4699
   39MOL0     C 5136   4.190  11.086   8.421  0.1608  0.3046  0.2231
   39MOL0     C 5137   4.135  11.198   8.372  0.5596  0.4426 -0.1087
   39MOL0     O 5138   4.000  11.201   8.377 -0.1162 -0.7217 -1.0889
   39MOL0     C 5139   3.938  11.235   8.256  0.4929 -0.5824  0.7223
   39MOL0     C 5140   3.906  11.376   8.221 -0.2721 -0.9231  0.2023
   39MOL0     C 5141   3.873  11.455   8.355 -0.2211  1.2358 -0.0384
   39MOL0     C 5142   3.821  11.600   8.315 -0.1517 -0.3215 -0.0511
   39MOL0     C 5143   3.826  11.697   8.436  0.4367  0.5525  0.2506
   39MOL0     C 5144   3.747  11.633   8.559  0.6957  0.0665  0.1780
   39MOL0     C 5145   3.746  11.712   8.691  0.3103  0.6435  0.2253
   39MOL0     C 5146   3.692  11.848   8.678 -0.1012  0.2593 -0.2194
   39MOL0     N 5147   3.540  11.851   8.657  0.5699 -0.3155 -0.4395
   39MOL0     C 5148   3.437  11.759   8.676 -0.2704 -0.7379 -0.2690
   39MOL0     C 5149   3.328  11.813   8.615  0.3179 -0.5790  0.2957
   39MOL0     C 5150   3.186  11.784   8.651  0.6215 -0.7891 -0.6076
   39MOL0     C 5151   3.079  11.884   8.595  0.6144 -0.6061 -0.4233
   39MOL0     C 5152   3.079  12.038   8.644  0.2536 -0.8714  0.3366
   39MOL0     C 5153   3.007  12.118   8.541  0.3325  0.6385 -0.2185
   39MOL0     O 5154   2.880  12.068   8.552 -0.6176  0.1269  0.4794
   39MOL0     C 5155   2.775  12.146   8.497 -0.1721  0.2513 -0.0450
   39MOL0     C 5156   2.794  12.255   8.407  0.3759  0.1293 -0.0788
   39MOL0     C 5157   2.683  12.317   8.350 -0.1228  0.2911 -0.7652
   39MOL0     C 5158   2.707  12.423   8.237 -0.2627  0.8448 -0.2345
   39MOL0     C 5159   2.550  12.287   8.389 -0.4428 -1.0276  0.4885
   39MOL0     C 5160   2.425  12.347   8.333  0.0721  0.3221  0.3057
   39MOL0     O 5161   2.421  12.365   8.199 -0.3261 -0.0344  0.1412
   39MOL0     C 5162   2.312  12.351   8.121  0.1308  0.9868  0.0944
   39MOL0     C 5163   2.207  12.261   8.153  0.0884  0.0308  0.6590
   39MOL0     C 5164   2.092  12.245   8.075  1.1116 -0.3455 -0.3146
   39MOL0     C 5165   2.066  12.341   7.974 -0.6382 -0.8096  0.2388
   39MOL0     O 5166   1.947  12.329   7.895  0.4952 -0.4051 -0.6805
   39MOL0     C 5167   1.819  12.332   7.968 -0.3536 -0.5898 -0.5754
   39MOL0     C 5168   1.694  12.356   7.884 -0.7068 -0.3449 -0.1000
   39MOL0     C 5169   1.683  12.497   7.843  0.1012  0.0020  0.0733
   39MOL0     C 5170   1.542  12.516   7.787  0.1376 -0.4518 -0.5224
   39MOL0     C 5171   1.518  12.659   7.742  0.6360  0.4218  0.0701
   39MOL0     C 5172   1.617  12.716   7.637 -0.3769  0.0042 -0.5006
   39MOL0     C 5173   1.554  12.846   7.568  0.4207 -0.5921 -0.3201
   39MOL0     C 5174   1.444  12.812   7.474  0.1660  0.2118  0.8621
   39MOL0    Cl 5175   1.389  12.965   7.398  0.3340  0.5538 -0.1943
   39MOL0     C 5176   2.165  12.438   7.945  0.2523  0.1432 -0.6271
   39MOL0     C 5177   2.292  12.433   8.013  0.7356  0.4246 -0.3496
   39MOL0     O 5178   2.335  12.345   8.416 -0.4133  0.1115 -0.0943
   39MOL0     C 5179   2.537  12.189   8.491  0.1831  1.4216  0.8697
   39MOL0     C 5180   2.648  12.119   8.543 -0.0735 -1.0372 -0.3892
   39MOL0     N 5181   3.362  11.934   8.563  0.6503  0.1138 -0.0757
   39MOL0     N 5182   3.485  11.958   8.595 -0.3231 -0.4779  0.2826
   39MOL0     C 5183   4.214  11.299   8.320 -0.3369 -0.3991 -0.2276
   39MOL0     C 5184   4.357  11.276   8.313  0.1215 -0.6085 -0.9898
   39MOL0     C 5185   4.783  11.122   8.277 -0.1871 -0.2138 -0.6122
   39MOL0     C 5186   4.795  10.984   8.287 -0.0726  0.0385  0.0324
   39MOL0     C 5187   4.910  10.905   8.262  0.3786  0.4088 -0.6981
   39MOL0     C 5188   5.028  10.970   8.241 -0.4053 -0.8668 -0.5251
   39MOL0     O 5189   5.141  10.901   8.227 -0.1337  0.1549  0.2158
   39MOL0     C 5190   5.264  10.978   8.204 -0.3244 -0.4905 -0.2181
   39MOL0     C 5191   5.362  10.869   8.167  0.3534  0.4649 -0.3201
   39MOL0     C 5192   5.395  10.787   8.297 -0.5600 -0.5950  0.4167
   39MOL0     C 5193   5.511  10.698   8.253  0.0152 -0.1615  1.0836
   39MOL0     C 5194   5.505  10.574   8.323  0.1034 -0.0586  0.5346
   39MOL0     C 5195   5.485  10.470   8.358  1.1073  0.2094  0.4887
   39MOL0     C 5196   5.026  11.114   8.242  0.9505  0.0808  0.3993
   39MOL0     C 5197   4.904  11.189   8.250 -0.5749 -0.2985 -0.0762
   39MOL0     H 5198   4.381  10.978   8.471 -1.6400 -0.9747  0.9976
   39MOL0     H 5199   4.123  11.009   8.460 -1.1706  0.4047 -1.6900
   39MOL0     H 5200   3.992  11.188   8.173 -3.3446  0.8062 -2.9109
   39MOL0     H 5201   3.842  11.183   8.253  1.1912 -1.8918  0.6568
   39MOL0     H 5202   3.988  11.423   8.165 -0.5903 -0.6711 -0.0525
   39MOL0     H 5203   3.816  11.370   8.161 -0.5019  0.1265  0.4128
   39MOL0     H 5204   3.793  11.401   8.407  0.0003 -0.2407 -1.1499
   39MOL0     H 5205   3.965  11.463   8.413 -1.0739  0.9674  1.4141
   39MOL0     H 5206   3.893  11.638   8.242  1.1815 -0.6478  1.0317
   39MOL0     H 5207   3.719  11.592   8.277 -0.4523  2.1171  0.0541
   39MOL0     H 5208   3.931  11.694   8.467 -0.0536 -0.0961  1.9716
   39MOL0     H 5209   3.794  11.798   8.408 -1.1334  0.1868  0.6333
   39MOL0     H 5210   3.640  11.618   8.541 -0.2629  0.0263  4.7375
   39MOL0     H 5211   3.802  11.542   8.585  0.0771 -0.2380  0.4279
   39MOL0     H 5212   3.696  11.648   8.764  3.2378  0.4010  2.2081
   39MOL0     H 5213   3.852  11.709   8.720  1.0174 -0.1061 -2.1526
   39MOL0     H 5214   3.738  11.907   8.597 -1.5698  0.8869 -0.6366
   39MOL0     H 5215   3.728  11.894   8.770  2.5090  2.2402 -2.0729
   39MOL0     H 5216   3.445  11.665   8.729 -2.6040 -4.0583 -5.0169
   39MOL0     H 5217   3.148  11.686   8.622 -2.8344 -0.3392  1.7690
   39MOL0     H 5218   3.182  11.801   8.759  2.9306  1.6802 -0.7794
   39MOL0     H 5219   2.979  11.842   8.608  0.6116 -0.0909  1.4909
   39MOL0     H 5220   3.097  11.866   8.489 -0.0152 -3.1665 -0.1519
   39MOL0     H 5221   3.182  12.075   8.647  1.1575 -3.2946  2.0826
   39MOL0     H 5222   3.038  12.049   8.744 -1.2784  2.4348 -0.5259
   39MOL0     H 5223   3.054  12.107   8.443 -1.5564 -2.4878 -0.8951
   39MOL0     H 5224   3.010  12.225   8.564  0.4378  0.6275 -0.1775
   39MOL0     H 5225   2.896  12.287   8.388 -0.9574  3.2116 -2.8245
   39MOL0     H 5226   2.665  12.515   8.277 -1.2743 -1.4769  4.8721
   39MOL0     H 5227   2.815  12.428   8.219 -0.4296 -1.3478 -2.3278
   39MOL0     H 5228   2.662  12.390   8.143  1.3155 -1.9243 -0.1392
   39MOL0     H 5229   2.206  12.209   8.248  1.1093 -0.4062  0.4463
   39MOL0     H 5230   2.023  12.171   8.113  2.0997 -0.8306  0.5642
   39MOL0     H 5231   1.802  12.233   8.012 -1.1888 -0.3812 -0.4007
   39MOL0     H 5232   1.827  12.400   8.053  0.5438 -0.2892 -0.8982
   39MOL0     H 5233   1.693  12.288   7.798  1.1869  0.1099 -0.5198
   39MOL0     H 5234   1.606  12.340   7.947  0.3406  0.0013  1.5030
   39MOL0     H 5235   1.752  12.517   7.761 -1.9246 -0.9323 -1.9758
   39MOL0     H 5236   1.712  12.562   7.926  0.5846  1.8885 -1.5003
   39MOL0     H 5237   1.511  12.445   7.710  2.4065 -2.5425  0.3747
   39MOL0     H 5238   1.466  12.493   7.862 -0.9824 -0.8576 -1.7431
   39MOL0     H 5239   1.509  12.726   7.828 -0.6445  1.0421 -0.5074
   39MOL0     H 5240   1.415  12.664   7.706  0.3655 -1.2579  0.5116
   39MOL0     H 5241   1.717  12.747   7.667 -0.4311  0.9457 -1.2579
   39MOL0     H 5242   1.635  12.645   7.556 -1.9450  1.2093 -1.9600
   39MOL0     H 5243   1.624  12.915   7.518  0.1239  1.2049  1.6312
   39MOL0     H 5244   1.501  12.899   7.647  0.2648 -2.3214  0.7980
   39MOL0     H 5245   1.359  12.767   7.526  2.4152 -3.0992  1.9671
   39MOL0     H 5246   1.477  12.752   7.389  0.3538  1.3291  0.1260
   39MOL0     H 5247   2.150  12.500   7.857 -1.8545  0.8758  0.1871
   39MOL0     H 5248   2.364  12.511   7.992 -0.5614  2.7327  2.8956
   39MOL0     H 5249   2.442  12.151   8.529  2.0994 -0.7729  3.9085
   39MOL0     H 5250   2.634  12.053   8.628  0.5461 -0.0952  0.4791
   39MOL0     H 5251   4.166  11.392   8.292  2.0568  0.6794 -1.0230
   39MOL0     H 5252   4.420  11.359   8.282  0.8653  0.0909  2.1017
   39MOL0     H 5253   4.703  10.926   8.298  1.8806 -3.1236  1.2233
   39MOL0     H 5254   4.908  10.796   8.270  1.0357  0.4932  0.8126
   39MOL0     H 5255   5.246  11.051   8.124 -1.9733  0.7888  1.2470
   39MOL0     H 5256   5.305  11.034   8.289  0.3253  3.3326 -2.7964
   39MOL0     H 5257   5.448  10.920   8.122 -1.2870  1.7025 -2.2520
   39MOL0     H 5258   5.306  10.808   8.095 -1.2649  2.0587 -0.4878
   39MOL0     H 5259   5.310  10.727   8.332 -1.2274  0.0772 -0.0355
   39MOL0     H 5260   5.432  10.854   8.375 -0.3912 -0.7626  0.4813
   39MOL0     H 5261   5.612  10.735   8.276  0.5201 -0.9048  0.1232
   39MOL0     H 5262   5.513  10.683   8.144  0.5531  1.0983  0.8964
   39MOL0     H 5263   5.444  10.375   8.387  1.6040  0.1112  0.8827
   39MOL0     H 5264   5.117  11.171   8.229  1.3090 -0.4042  0.7575
   39MOL0     H 5265   4.914  11.297   8.238  0.0360 -0.3440  0.0185
   40MOL0     O 5266   9.757   4.688   5.294  0.8237 -0.3011  0.1292
   40MOL0     C 5267   9.853   4.764   5.281 -0.7287  0.6370  0.9784
   40MOL0     O 5268   9.862   4.866   5.193 -0.1975 -0.6679 -0.1446
   40MOL0     C 5269   9.762   4.883   5.097  0.3679 -0.0375  0.1673
   40MOL0     C 5270   9.792   4.902   4.963  0.1791 -0.3685 -0.4561
   40MOL0     C 5271   9.692   4.900   4.871  0.4664 -0.3131  1.2064
   40MOL0     C 5272   9.556   4.917   4.907  0.2083 -0.3239  0.5115
   40MOL0     O 5273   9.462   4.926   4.800 -0.7335 -0.2652 -0.6229
   40MOL0     C 5274   9.326   4.936   4.847  0.3058 -0.3708  0.3513
   40MOL0     C 5275   9.238   4.906   4.726  0.3299  0.3427 -1.0902
   40MOL0     C 5276   9.234   4.761   4.675  0.4541 -0.0647 -1.1809
   40MOL0     C 5277   9.150   4.733   4.551 -0.4873 -0.7030  0.1185
   40MOL0     C 5278   9.120   4.583   4.553  0.8879  1.0388 -0.4080
   40MOL0     C 5279   9.018   4.542   4.449 -0.1448  0.0515  0.1440
   40MOL0     C 5280   9.075   4.561   4.311 -0.6497  0.5462  0.9070
   40MOL0     C 5281   9.048   4.447   4.205  0.0671  0.4093 -0.9355
   40MOL0     N 5282   8.911   4.454   4.146 -0.1045 -0.2438  0.1051
   40MOL0     C 5283   8.859   4.349   4.086 -0.6340  0.7090 -0.1363
   40MOL0     C 5284   8.752   4.392   4.026  1.0636 -0.0718  0.0020
   40MOL0     C 5285   8.650   4.321   3.947  0.7152  0.0337 -0.3093
   40MOL0     C 5286   8.566   4.233   4.038  0.3006  0.5674  0.2904
   40MOL0     C 5287   8.486   4.284   4.161  0.2311  0.3288 -0.3313
   40MOL0     C 5288   8.377   4.388   4.126  0.1252 -0.1037  0.1314
   40MOL0     O 5289   8.294   4.400   4.241 -0.4927  0.1248 -0.3677
   40MOL0     C 5290   8.207   4.304   4.278 -0.6153  0.6060 -0.0880
   40MOL0     C 5291   8.128   4.251   4.178  0.8325 -0.0775  0.6005
   40MOL0     C 5292   8.033   4.151   4.207  0.1219  0.5280 -0.0872
   40MOL0     C 5293   7.964   4.081   4.098 -0.4936  0.5235 -0.6855
   40MOL0     C 5294   8.026   4.097   4.339  0.2946  1.0139 -0.6687
   40MOL0     C 5295   7.947   3.972   4.372  0.2832  0.8747 -0.3841
   40MOL0     O 5296   7.836   3.943   4.308  0.2320  0.4940  0.2327
   40MOL0     C 5297   7.762   3.827   4.306 -1.1074  0.0467  0.1802
   40MOL0     C 5298   7.741   3.772   4.180  0.7296 -0.1406  0.0831
   40MOL0     C 5299   7.677   3.647   4.159  0.4832  0.5078  0.0982
   40MOL0     C 5300   7.614   3.582   4.268 -0.0423  0.1394 -0.2898
   40MOL0     O 5301   7.540   3.463   4.271 -0.0715  0.4860  1.1373
   40MOL0     C 5302   7.588   3.375   4.171  0.6125  0.4751  0.7149
   40MOL0     C 5303   7.505   3.245   4.181  0.1157 -0.4255 -0.9330
   40MOL0     C 5304   7.563   3.150   4.291 -0.3311  0.6022  0.3174
   40MOL0     C 5305   7.523   3.003   4.280  0.0703  0.3760 -0.1743
   40MOL0     C 5306   7.640   2.925   4.338 -0.4203 -1.2050 -0.2905
   40MOL0     C 5307   7.632   2.775   4.319  0.2533  0.7155 -0.5730
   40MOL0     C 5308   7.559   2.710   4.429 -0.6383 -0.2737  0.1957
   40MOL0     C 5309   7.565   2.556   4.407 -0.1966  0.2735  0.0447
   40MOL0    Cl 5310   7.533   2.487   4.565  0.1169  0.1471 -0.5566
   40MOL0     C 5311   7.620   3.658   4.390  0.7960 -0.4620  0.3291
   40MOL0     C 5312   7.705   3.759   4.414  0.3040  0.1421 -0.5551
   40MOL0     O 5313   8.001   3.891   4.448  0.3524  0.2680 -0.0787
   40MOL0     C 5314   8.103   4.156   4.441 -0.1039 -0.5124  0.2270
   40MOL0     C 5315   8.198   4.256   4.411 -0.0931  0.9466  0.5166
   40MOL0     N 5316   8.738   4.526   4.067  0.3479 -0.0279  0.3330
   40MOL0     N 5317   8.837   4.568   4.131  0.9984 -0.2278 -0.4798
   40MOL0     C 5318   9.528   4.916   5.040  0.2846 -0.0101  0.3118
   40MOL0     C 5319   9.622   4.893   5.133  0.0797 -0.1582 -0.0907
   40MOL0     C 5320   9.951   4.768   5.389  0.2684  1.0664 -0.6083
   40MOL0     C 5321   9.961   4.646   5.474  0.0928 -0.4632  0.1652
   40MOL0     C 5322  10.038   4.653   5.596 -0.3443 -0.2740 -0.3182
   40MOL0     C 5323  10.093   4.768   5.641 -0.6641 -1.2286  0.6875
   40MOL0     O 5324  10.162   4.756   5.760  0.3757  0.8175 -0.2766
   40MOL0     C 5325  10.209   4.869   5.833  0.0052  0.0630  0.4835
   40MOL0     C 5326  10.257   4.824   5.967 -0.5771 -0.3442  0.2181
   40MOL0     C 5327  10.137   4.784   6.052  0.2187 -0.6704  0.0950
   40MOL0     C 5328  10.196   4.727   6.184  0.4162  0.0567  0.3868
   40MOL0     C 5329  10.091   4.676   6.271 -0.6974 -0.6831  0.2206
   40MOL0     C 5330  10.001   4.652   6.357 -0.5475  0.4290  0.7864
   40MOL0     C 5331  10.067   4.887   5.571  0.2609  0.1527  0.3349
   40MOL0     C 5332   9.999   4.886   5.453 -1.3924  0.6294 -0.6092
   40MOL0     H 5333   9.891   4.878   4.925 -1.2007 -2.5081 -3.0165
   40MOL0     H 5334   9.712   4.898   4.764 -2.5798  0.5694  0.5127
   40MOL0     H 5335   9.305   4.877   4.936 -1.4907 -3.3130 -1.8638
   40MOL0     H 5336   9.317   5.040   4.882  1.3547 -1.2070  3.4541
   40MOL0     H 5337   9.137   4.931   4.761 -0.2505  0.5517 -2.8284
   40MOL0     H 5338   9.258   4.972   4.641 -0.6346  1.5630 -0.3961
   40MOL0     H 5339   9.334   4.723   4.654  0.5328 -0.8523  0.4613
   40MOL0     H 5340   9.205   4.696   4.758  0.8618 -1.0014 -1.7558
   40MOL0     H 5341   9.056   4.789   4.552 -0.4309 -0.6111  0.8817
   40MOL0     H 5342   9.208   4.759   4.461 -0.4359 -0.8579  0.1060
   40MOL0     H 5343   9.208   4.518   4.564  0.5311  0.6249  0.0435
   40MOL0     H 5344   9.068   4.573   4.649  2.4495  1.2961  0.5109
   40MOL0     H 5345   8.993   4.435   4.454  2.3644 -0.7119 -1.5999
   40MOL0     H 5346   8.921   4.591   4.459 -1.3900 -1.4551 -3.0333
   40MOL0     H 5347   9.046   4.658   4.271 -2.1780  0.0352  0.7042
   40MOL0     H 5348   9.184   4.566   4.312 -0.6893  1.8281  0.7657
   40MOL0     H 5349   9.035   4.352   4.258 -0.3897 -0.1578 -2.0316
   40MOL0     H 5350   9.115   4.447   4.118  0.4054 -0.0598 -0.6811
   40MOL0     H 5351   8.904   4.251   4.076  1.5234  1.6758 -0.3889
   40MOL0     H 5352   8.597   4.408   3.909  2.5991  1.6980  0.6974
   40MOL0     H 5353   8.697   4.272   3.861  1.5771  2.2818 -1.1921
   40MOL0     H 5354   8.637   4.162   4.081 -0.3482 -1.3636 -1.6834
   40MOL0     H 5355   8.489   4.178   3.984 -0.5090  1.2884  0.6772
   40MOL0     H 5356   8.557   4.336   4.227  0.4215 -0.3556  0.0100
   40MOL0     H 5357   8.439   4.209   4.225 -0.2106  1.1786  0.3764
   40MOL0     H 5358   8.329   4.348   4.037  0.2902  0.5743 -0.2680
   40MOL0     H 5359   8.422   4.484   4.097  0.2995  0.1881  1.2862
   40MOL0     H 5360   8.135   4.286   4.076 -0.8364 -4.1811 -1.1439
   40MOL0     H 5361   7.858   4.107   4.090 -0.3978  1.6686  1.1164
   40MOL0     H 5362   8.012   4.110   4.003  0.5659 -0.1466 -0.3749
   40MOL0     H 5363   7.975   3.974   4.115 -1.5448  0.7090  1.4405
   40MOL0     H 5364   7.796   3.819   4.099 -2.3668  3.5074 -0.1648
   40MOL0     H 5365   7.679   3.601   4.060 -0.5296 -1.5594  0.9682
   40MOL0     H 5366   7.598   3.415   4.070 -0.1478 -0.9923  0.0187
   40MOL0     H 5367   7.689   3.342   4.198 -0.6153 -1.4801  3.3424
   40MOL0     H 5368   7.404   3.267   4.217 -0.5200  1.3364 -3.5431
   40MOL0     H 5369   7.508   3.200   4.081  2.6992  1.8855 -2.0049
   40MOL0     H 5370   7.536   3.188   4.390  1.4325  3.3362 -0.1307
   40MOL0     H 5371   7.672   3.158   4.277  0.3168 -2.4454  2.6940
   40MOL0     H 5372   7.441   2.994   4.352 -1.3003 -2.2281 -1.9206
   40MOL0     H 5373   7.495   2.976   4.179 -0.9205 -0.0486  0.2054
   40MOL0     H 5374   7.654   2.948   4.444  0.1641 -2.2087 -0.1321
   40MOL0     H 5375   7.726   2.965   4.285 -1.5055  1.0119 -0.5005
   40MOL0     H 5376   7.593   2.754   4.219  3.2023  0.3585 -1.7775
   40MOL0     H 5377   7.732   2.732   4.329 -1.1350 -3.0577 -1.3666
   40MOL0     H 5378   7.461   2.754   4.452  0.5334  1.1756  2.9299
   40MOL0     H 5379   7.620   2.722   4.519  4.7537 -1.2208 -2.9030
   40MOL0     H 5380   7.668   2.527   4.383 -0.1583  1.5757 -1.5639
   40MOL0     H 5381   7.491   2.523   4.332  2.2791  2.4499 -3.7098
   40MOL0     H 5382   7.575   3.605   4.474 -1.2990  1.6445  0.6387
   40MOL0     H 5383   7.720   3.793   4.516  2.0338  0.6918 -0.9529
   40MOL0     H 5384   8.106   4.115   4.541  3.5712  0.0106  0.4633
   40MOL0     H 5385   8.272   4.294   4.480  1.7077 -2.9384  0.9748
   40MOL0     H 5386   9.432   4.921   5.089  0.3159 -0.0721  0.3792
   40MOL0     H 5387   9.597   4.878   5.238 -1.8435  2.6353 -0.0182
   40MOL0     H 5388   9.922   4.552   5.435  0.1731  0.9272 -3.6605
   40MOL0     H 5389  10.029   4.567   5.662 -5.1333 -1.1102 -1.6910
   40MOL0     H 5390  10.293   4.910   5.776 -0.0545 -1.6795 -0.9288
   40MOL0     H 5391  10.142   4.956   5.839  2.1733  1.7214  2.6357
   40MOL0     H 5392  10.308   4.913   6.005 -2.8073  1.3942 -0.6247
   40MOL0     H 5393  10.316   4.733   5.957 -2.5453 -1.6460 -0.1817
   40MOL0     H 5394  10.069   4.714   6.002  0.9367 -0.9754 -0.4819
   40MOL0     H 5395  10.082   4.872   6.085  1.2495  0.3340 -0.7780
   40MOL0     H 5396  10.255   4.805   6.234  1.7423 -1.0804  0.6607
   40MOL0     H 5397  10.265   4.647   6.156 -0.7761 -0.6620 -0.5774
   40MOL0     H 5398   9.942   4.653   6.447 -1.0266 -2.7642  0.6214
   40MOL0     H 5399  10.110   4.977   5.615  2.2573 -0.4103 -0.3727
   40MOL0     H 5400   9.982   4.983   5.408  2.8859  2.0502  0.3913
   41MOL0     O 5401   5.158   5.113   3.548  0.3333 -0.4595  0.8048
   41MOL0     C 5402   5.094   5.021   3.591 -0.3269 -0.5735  0.2642
   41MOL0     O 5403   5.141   4.902   3.646  0.2344  0.3761 -0.2657
   41MOL0     C 5404   5.271   4.876   3.633 -1.1459 -0.7101  0.6756
   41MOL0     C 5405   5.325   4.831   3.510 -0.1662  1.5512  0.4481
   41MOL0     C 5406   5.459   4.798   3.489  0.1262 -1.7245 -0.3672
   41MOL0     C 5407   5.552   4.826   3.592  0.7571 -0.7644 -1.3736
   41MOL0     O 5408   5.686   4.808   3.588 -0.0534  0.1838 -0.0384
   41MOL0     C 5409   5.746   4.721   3.497 -0.1377 -0.2921  0.5113
   41MOL0     C 5410   5.901   4.736   3.490 -0.0567  0.0778 -0.1284
   41MOL0     C 5411   5.973   4.752   3.632  0.0913  1.3408  0.3143
   41MOL0     C 5412   6.113   4.790   3.616 -0.4272 -0.7450  1.1250
   41MOL0     C 5413   6.146   4.937   3.572  0.5725  0.0637 -0.4325
   41MOL0     C 5414   6.300   4.953   3.548 -0.1991 -0.4390  0.0056
   41MOL0     C 5415   6.339   5.085   3.475 -0.6015 -0.8688  0.1533
   41MOL0     C 5416   6.315   5.203   3.562 -0.6484  0.2031  0.3968
   41MOL0     N 5417   6.391   5.198   3.688  0.0779 -0.1007  0.6041
   41MOL0     C 5418   6.341   5.173   3.818 -0.8484 -0.5497 -0.1217
   41MOL0     C 5419   6.453   5.147   3.883 -1.1605  0.5739 -0.2830
   41MOL0     C 5420   6.475   5.107   4.028  0.3361 -0.2615  0.9042
   41MOL0     C 5421   6.429   4.967   4.062 -0.7243  0.9404  0.1559
   41MOL0     C 5422   6.279   4.955   4.059  0.0673 -0.4282 -1.2803
   41MOL0     C 5423   6.205   5.039   4.161  0.1701  0.2388  0.4612
   41MOL0     O 5424   6.063   5.008   4.140 -0.0026  0.1720  0.0071
   41MOL0     C 5425   5.960   5.053   4.221  0.9434  0.4633 -0.0558
   41MOL0     C 5426   5.978   5.167   4.294  0.2680 -0.1632 -1.1900
   41MOL0     C 5427   5.869   5.232   4.369  0.1540  0.0512 -0.3679
   41MOL0     C 5428   5.906   5.354   4.447 -0.0463 -0.6496  0.9189
   41MOL0     C 5429   5.744   5.167   4.357 -0.0801  0.1133  1.2819
   41MOL0     C 5430   5.627   5.213   4.426 -0.7351  0.1973 -0.2929
   41MOL0     O 5431   5.504   5.161   4.389  0.8380 -0.4746 -0.3625
   41MOL0     C 5432   5.390   5.218   4.442 -0.3250  0.8884 -0.8518
   41MOL0     C 5433   5.342   5.173   4.570 -1.0086  0.4490 -1.2715
   41MOL0     C 5434   5.210   5.208   4.617 -0.8004  0.2365  0.8928
   41MOL0     C 5435   5.135   5.295   4.536 -0.2088 -0.2155  0.8921
   41MOL0     O 5436   5.013   5.328   4.583 -0.3371  0.4980 -0.4734
   41MOL0     C 5437   4.920   5.290   4.471  0.2566 -0.1323 -0.0650
   41MOL0     C 5438   4.782   5.281   4.550 -0.5243 -0.6152 -0.2438
   41MOL0     C 5439   4.675   5.245   4.442 -0.0271  0.2761 -0.4076
   41MOL0     C 5440   4.545   5.211   4.513  0.9349 -0.1643  0.5899
   41MOL0     C 5441   4.449   5.159   4.398 -0.2242 -0.2250 -0.4453
   41MOL0     C 5442   4.398   5.273   4.301 -0.8218  0.2522  0.6372
   41MOL0     C 5443   4.277   5.235   4.220 -0.3479  1.0751  0.2483
   41MOL0     C 5444   4.245   5.356   4.133  0.5134  0.4439 -0.1394
   41MOL0    Cl 5445   4.168   5.483   4.232 -0.4773  0.2759 -0.1006
   41MOL0     C 5446   5.191   5.358   4.420  1.1485  0.4132 -0.9880
   41MOL0     C 5447   5.320   5.317   4.383  0.8117  0.2458  0.5688
   41MOL0     O 5448   5.642   5.312   4.501 -1.0680 -0.1598 -0.6244
   41MOL0     C 5449   5.731   5.044   4.284  0.0397  1.2153 -0.1578
   41MOL0     C 5450   5.834   4.987   4.219 -1.0441 -0.9946 -0.6611
   41MOL0     N 5451   6.566   5.152   3.791  0.4961 -0.5999 -0.6472
   41MOL0     N 5452   6.519   5.180   3.677 -0.0044  0.1532 -0.2522
   41MOL0     C 5453   5.500   4.864   3.716  0.8712  0.0527  0.0260
   41MOL0     C 5454   5.361   4.889   3.738 -0.2345 -1.1813  0.4890
   41MOL0     C 5455   4.948   5.037   3.583  0.5481  0.1928  0.4677
   41MOL0     C 5456   4.854   4.934   3.604 -0.4289 -0.3431  0.1391
   41MOL0     C 5457   4.714   4.958   3.616  0.0649  0.2172  0.4930
   41MOL0     C 5458   4.665   5.085   3.615 -0.5589 -0.3186 -0.6698
   41MOL0     O 5459   4.536   5.131   3.649 -0.3130 -0.5113  0.0752
   41MOL0     C 5460   4.438   5.051   3.712 -0.1524 -0.1507 -0.9552
   41MOL0     C 5461   4.307   5.134   3.718 -0.0877  0.3324  0.5962
   41MOL0     C 5462   4.307   5.268   3.777 -0.4490  0.1607 -0.5623
   41MOL0     C 5463   4.186   5.363   3.738 -0.2905  0.2036 -0.7051
   41MOL0     C 5464   4.210   5.491   3.812  0.3640  0.6560  0.2805
   41MOL0     C 5465   4.217   5.595   3.871 -0.1307 -1.0161 -1.3124
   41MOL0     C 5466   4.757   5.192   3.587 -0.1921  0.0500  0.2775
   41MOL0     C 5467   4.890   5.169   3.573 -0.1473 -0.1626  1.0362
   41MOL0     H 5468   5.252   4.831   3.430  0.7256  2.7426 -0.3959
   41MOL0     H 5469   5.492   4.775   3.388 -0.1693  1.5214 -1.3027
   41MOL0     H 5470   5.719   4.621   3.534 -2.4046 -0.7792 -2.1402
   41MOL0     H 5471   5.708   4.735   3.395  1.0418 -2.3973 -0.2766
   41MOL0     H 5472   5.946   4.652   3.437 -2.0863 -0.3169 -1.3161
   41MOL0     H 5473   5.920   4.825   3.431  0.4252  1.0429  1.4084
   41MOL0     H 5474   5.928   4.833   3.690  1.0895  2.9841 -1.1101
   41MOL0     H 5475   5.963   4.655   3.680 -2.2960  1.8063  0.9208
   41MOL0     H 5476   6.152   4.781   3.718 -2.0491  4.7896  2.5930
   41MOL0     H 5477   6.169   4.725   3.548  0.0923 -3.2252  3.7279
   41MOL0     H 5478   6.094   4.953   3.477 -0.5186  2.2071  0.4632
   41MOL0     H 5479   6.108   5.005   3.649  3.9009 -0.0216  1.5002
   41MOL0     H 5480   6.346   4.942   3.647 -0.8401  1.3477  0.5405
   41MOL0     H 5481   6.332   4.871   3.484 -1.3268 -0.1842 -0.9104
   41MOL0     H 5482   6.442   5.085   3.438 -0.4401 -0.0506  0.5820
   41MOL0     H 5483   6.271   5.101   3.391 -0.4869 -0.7076  0.0918
   41MOL0     H 5484   6.209   5.208   3.589 -0.7255 -2.2124  0.7573
   41MOL0     H 5485   6.354   5.289   3.506  0.6888 -0.4306  0.2968
   41MOL0     H 5486   6.240   5.154   3.853  0.4706 -4.3057  2.3453
   41MOL0     H 5487   6.581   5.098   4.050  0.3239 -0.4287  0.8923
   41MOL0     H 5488   6.427   5.179   4.096  1.4963  3.1143 -1.6151
   41MOL0     H 5489   6.474   4.945   4.159  0.9774  2.2186 -0.3021
   41MOL0     H 5490   6.478   4.896   3.995  0.8301  1.3755  0.7954
   41MOL0     H 5491   6.247   4.851   4.075 -0.1685 -0.3325 -1.1247
   41MOL0     H 5492   6.239   4.992   3.964 -3.7736  2.3291  1.1465
   41MOL0     H 5493   6.227   5.146   4.153  1.6659  0.0851  2.0822
   41MOL0     H 5494   6.227   5.003   4.261  0.9681  0.1122  0.2472
   41MOL0     H 5495   6.076   5.211   4.310  0.1684  0.1942 -1.5548
   41MOL0     H 5496   5.876   5.343   4.552 -5.2308  3.4697  0.2847
   41MOL0     H 5497   6.013   5.378   4.444 -0.4669  1.2669 -0.8323
   41MOL0     H 5498   5.855   5.443   4.409  1.9374  0.0685 -0.2305
   41MOL0     H 5499   5.409   5.100   4.615 -0.7091  0.0915 -2.2785
   41MOL0     H 5500   5.176   5.178   4.715  2.1595 -1.8893  1.3973
   41MOL0     H 5501   4.918   5.351   4.380 -1.4736 -1.0682 -0.7165
   41MOL0     H 5502   4.935   5.188   4.434 -1.6041 -0.1518 -0.8792
   41MOL0     H 5503   4.785   5.207   4.630  3.1550  1.6951  2.0531
   41MOL0     H 5504   4.761   5.374   4.604 -0.8924  0.8867 -2.7902
   41MOL0     H 5505   4.710   5.150   4.401  1.3793  0.4781  0.2695
   41MOL0     H 5506   4.654   5.324   4.369 -2.7868 -2.3204 -2.6886
   41MOL0     H 5507   4.553   5.136   4.593 -1.3341 -2.0066 -0.7655
   41MOL0     H 5508   4.505   5.300   4.562  3.4010  1.4782 -0.2089
   41MOL0     H 5509   4.353   5.113   4.425 -0.7521  1.2766  0.3528
   41MOL0     H 5510   4.511   5.096   4.333  3.4007  1.3877  1.1625
   41MOL0     H 5511   4.381   5.370   4.349  3.5143  1.7500 -0.4276
   41MOL0     H 5512   4.479   5.300   4.234 -0.8667 -4.1102 -1.4714
   41MOL0     H 5513   4.189   5.213   4.281  1.0993 -1.0821  1.7345
   41MOL0     H 5514   4.300   5.141   4.168  0.3794  0.4870  1.5710
   41MOL0     H 5515   4.181   5.331   4.048 -0.2567  3.6498 -0.6687
   41MOL0     H 5516   4.338   5.386   4.083 -0.8479  3.4292 -1.1317
   41MOL0     H 5517   5.144   5.447   4.378  1.9069  2.7885  2.7140
   41MOL0     H 5518   5.370   5.350   4.293  2.4869  0.0403  1.3928
   41MOL0     H 5519   5.635   4.994   4.274  0.0548  0.9698  0.8840
   41MOL0     H 5520   5.820   4.900   4.157  3.4813 -2.3262 -0.2241
   41MOL0     H 5521   5.572   4.891   3.793  0.3453 -0.1299  0.5953
   41MOL0     H 5522   5.326   4.922   3.835 -2.5987  2.7618 -1.4552
   41MOL0     H 5523   4.889   4.831   3.604  1.6017  0.2256 -2.5271
   41MOL0     H 5524   4.650   4.875   3.641 -1.1180  0.9506 -0.0292
   41MOL0     H 5525   4.423   4.961   3.651 -2.7236  0.2370 -1.0224
   41MOL0     H 5526   4.458   5.014   3.813 -4.6832 -1.9043 -0.4755
   41MOL0     H 5527   4.221   5.088   3.768 -2.5176  3.2761 -0.5784
   41MOL0     H 5528   4.263   5.131   3.619  0.5843  2.8638  0.1615
   41MOL0     H 5529   4.397   5.317   3.737 -0.8884  1.6419  0.1995
   41MOL0     H 5530   4.319   5.257   3.885 -1.5476  0.5654 -0.3945
   41MOL0     H 5531   4.089   5.326   3.771 -1.7505  0.5115 -4.2593
   41MOL0     H 5532   4.189   5.393   3.633  3.8904  1.7000 -0.3479
   41MOL0     H 5533   4.242   5.681   3.931  0.8061  0.4460 -3.6616
   41MOL0     H 5534   4.724   5.294   3.600  0.9263  0.5026 -0.2928
   41MOL0     H 5535   4.952   5.257   3.559  0.4920 -0.8735 -0.9952
   42MOL0     O 5536   2.981   1.542   6.530 -0.1566  0.1994  0.7165
   42MOL0     C 5537   3.071   1.456   6.521  0.4852 -0.7408 -0.5545
   42MOL0     O 5538   3.112   1.400   6.405  0.7582 -0.0539 -0.4460
   42MOL0     C 5539   3.092   1.450   6.275  0.0165 -0.1939  0.1243
   42MOL0     C 5540   3.033   1.568   6.233 -0.4496  0.3686 -0.1861
   42MOL0     C 5541   3.007   1.603   6.101 -0.0839  0.3523  0.3362
   42MOL0     C 5542   3.034   1.511   5.999 -0.4660  0.1382 -0.5498
   42MOL0     O 5543   3.013   1.551   5.872  0.2651 -1.0612 -0.2618
   42MOL0     C 5544   2.902   1.477   5.816 -0.3074  0.4426  0.1918
   42MOL0     C 5545   2.763   1.534   5.834  0.0336  0.9732 -0.6368
   42MOL0     C 5546   2.658   1.433   5.767 -0.3846 -0.2391  0.5322
   42MOL0     C 5547   2.512   1.489   5.774  1.3684 -0.5664 -0.6084
   42MOL0     C 5548   2.436   1.438   5.901 -0.0450 -0.7960 -0.1691
   42MOL0     C 5549   2.289   1.491   5.901 -0.1340 -0.2332  0.1557
   42MOL0     C 5550   2.219   1.496   6.035 -0.2994  0.1592  0.3058
   42MOL0     C 5551   2.170   1.362   6.076  0.8168  1.5996  0.2726
   42MOL0     N 5552   2.266   1.254   6.095  0.5122 -0.2466  0.8935
   42MOL0     C 5553   2.374   1.255   6.169  1.3785  0.4520 -0.3196
   42MOL0     C 5554   2.440   1.146   6.137  0.3040  0.4661  0.5483
   42MOL0     C 5555   2.571   1.094   6.174 -0.2629 -0.1639  0.8372
   42MOL0     C 5556   2.679   1.167   6.099  0.3475 -0.5341  0.2807
   42MOL0     C 5557   2.823   1.131   6.147  0.1600 -0.0967  0.5575
   42MOL0     C 5558   2.865   0.992   6.124 -0.5233  0.2370  0.8022
   42MOL0     O 5559   3.012   0.992   6.107  0.1296  0.6963 -0.2366
   42MOL0     C 5560   3.067   1.042   5.992  1.2087 -0.6414 -0.3613
   42MOL0     C 5561   3.200   1.066   6.011 -0.4888 -0.1328 -0.2802
   42MOL0     C 5562   3.266   1.117   5.895  0.0798  0.4874 -0.8395
   42MOL0     C 5563   3.416   1.144   5.908 -0.5130  0.6550 -1.3543
   42MOL0     C 5564   3.195   1.134   5.775 -0.5014 -0.1528  0.6960
   42MOL0     C 5565   3.256   1.183   5.653  0.2626 -0.3988  0.5907
   42MOL0     O 5566   3.371   1.128   5.600  0.5084 -0.1520 -0.1131
   42MOL0     C 5567   3.438   1.195   5.494 -0.4096  0.6808  0.7325
   42MOL0     C 5568   3.467   1.126   5.372  0.3228 -0.7150 -0.2600
   42MOL0     C 5569   3.535   1.201   5.279 -1.0186  0.2158  0.7171
   42MOL0     C 5570   3.593   1.334   5.297  0.2984  0.0102 -0.1178
   42MOL0     O 5571   3.662   1.384   5.180  0.1063  0.4753 -0.1061
   42MOL0     C 5572   3.747   1.501   5.191 -0.2264  0.1721 -0.4346
   42MOL0     C 5573   3.673   1.638   5.201 -1.3759  0.1227 -0.6545
   42MOL0     C 5574   3.740   1.740   5.286 -1.0657  0.2628  0.4036
   42MOL0     C 5575   3.857   1.792   5.203 -1.4563 -0.4243  1.3402
   42MOL0     C 5576   3.904   1.922   5.270 -0.4771  0.5385  1.0812
   42MOL0     C 5577   3.939   1.922   5.420  1.0078 -0.4251 -0.3944
   42MOL0     C 5578   3.922   2.067   5.486  0.4411 -0.6764  0.5716
   42MOL0     C 5579   3.928   2.061   5.646 -0.4502 -1.0665  0.4676
   42MOL0    Cl 5580   4.097   2.043   5.692 -0.4874  0.1264 -0.0391
   42MOL0     C 5581   3.565   1.394   5.424  0.5252  0.2198 -0.0824
   42MOL0     C 5582   3.490   1.323   5.517  0.2085 -0.4851  0.3156
   42MOL0     O 5583   3.197   1.280   5.610  0.4523 -1.3185  0.3163
   42MOL0     C 5584   3.059   1.106   5.760  0.4088  0.1932  0.1418
   42MOL0     C 5585   3.000   1.044   5.867  0.0876 -0.4459 -0.3768
   42MOL0     N 5586   2.352   1.071   6.053 -0.1676  0.7150  0.1697
   42MOL0     N 5587   2.255   1.135   6.029 -0.0504 -0.4958  0.4856
   42MOL0     C 5588   3.075   1.383   6.040  1.1982  0.3538  0.2915
   42MOL0     C 5589   3.103   1.359   6.175  0.1491  0.3028 -0.2244
   42MOL0     C 5590   3.120   1.405   6.657  0.2554  0.2889  0.6072
   42MOL0     C 5591   3.033   1.407   6.778 -0.6014  0.1364  0.3080
   42MOL0     C 5592   3.088   1.342   6.892 -0.2106 -0.2286 -0.2680
   42MOL0     C 5593   3.202   1.270   6.891  0.2099  0.7572 -0.0897
   42MOL0     O 5594   3.251   1.206   7.002 -0.0610  0.3000 -0.7986
   42MOL0     C 5595   3.226   1.278   7.127 -0.0800  0.0859  0.9741
   42MOL0     C 5596   3.328   1.234   7.231 -0.1220 -0.1755  0.3874
   42MOL0     C 5597   3.469   1.217   7.174 -0.0431 -0.6454  0.3902
   42MOL0     C 5598   3.589   1.231   7.272 -0.9449  0.0075  0.0594
   42MOL0     C 5599   3.554   1.146   7.391 -0.1283 -1.0736  0.8867
   42MOL0     C 5600   3.533   1.065   7.472 -0.2750  0.6565  0.1585
   42MOL0     C 5601   3.281   1.268   6.774 -0.9177 -0.0766 -0.1577
   42MOL0     C 5602   3.243   1.333   6.662 -0.5695 -0.3862 -0.7371
   42MOL0     H 5603   3.001   1.633   6.314  0.0467  0.0736  0.2528
   42MOL0     H 5604   2.965   1.701   6.081 -1.9901 -0.6532 -0.8615
   42MOL0     H 5605   2.913   1.464   5.707 -1.2756  2.3297 -0.1827
   42MOL0     H 5606   2.913   1.375   5.853  6.0105  2.3067  5.1770
   42MOL0     H 5607   2.750   1.533   5.943 -1.9335 -2.2717 -0.7672
   42MOL0     H 5608   2.765   1.632   5.785 -2.5716 -0.4904 -4.0387
   42MOL0     H 5609   2.686   1.412   5.664 -0.1297  1.1161  0.3149
   42MOL0     H 5610   2.660   1.334   5.815  1.3351  0.5842  2.3271
   42MOL0     H 5611   2.489   1.595   5.761  0.0026 -0.6123  0.9718
   42MOL0     H 5612   2.478   1.440   5.682  0.5981 -1.9761  0.3796
   42MOL0     H 5613   2.428   1.329   5.911  0.4254 -0.9425 -1.2471
   42MOL0     H 5614   2.480   1.469   5.996 -0.2645 -0.1736 -0.2638
   42MOL0     H 5615   2.285   1.592   5.859  0.4552 -0.3213 -0.1222
   42MOL0     H 5616   2.230   1.435   5.829 -0.4711  0.7217 -0.3361
   42MOL0     H 5617   2.296   1.530   6.105 -2.6687  2.3925  2.0040
   42MOL0     H 5618   2.137   1.568   6.037 -1.8156 -1.4270 -1.2652
   42MOL0     H 5619   2.105   1.329   5.994  1.8427 -1.4876  0.5801
   42MOL0     H 5620   2.106   1.370   6.164  1.8754  0.4212  1.1717
   42MOL0     H 5621   2.412   1.329   6.239  0.4129  2.2724 -1.6175
   42MOL0     H 5622   2.564   1.129   6.278 -2.8146  1.2539  0.2719
   42MOL0     H 5623   2.565   0.985   6.175 -1.2563 -0.1395 -0.2427
   42MOL0     H 5624   2.660   1.274   6.114  1.2874 -0.2377 -0.5633
   42MOL0     H 5625   2.669   1.144   5.993 -1.4165  1.7600 -0.1443
   42MOL0     H 5626   2.848   1.158   6.250  2.0555 -0.1739  0.1652
   42MOL0     H 5627   2.892   1.200   6.097 -0.3797  0.7473  0.9485
   42MOL0     H 5628   2.807   0.953   6.040 -0.5678 -0.8952  1.3342
   42MOL0     H 5629   2.828   0.924   6.201 -1.5197  1.6764  1.6381
   42MOL0     H 5630   3.247   1.063   6.110 -0.2364 -0.0380 -0.3957
   42MOL0     H 5631   3.442   1.167   6.011  1.0191 -1.7884 -1.1082
   42MOL0     H 5632   3.477   1.061   5.870 -0.2260  0.5945 -0.7614
   42MOL0     H 5633   3.443   1.233   5.850 -0.4596  0.8444 -1.0412
   42MOL0     H 5634   3.436   1.026   5.345 -0.8645 -0.4808  0.1745
   42MOL0     H 5635   3.574   1.159   5.186  3.6071  3.6687  0.6893
   42MOL0     H 5636   3.809   1.497   5.281 -1.4939 -2.9182  0.4400
   42MOL0     H 5637   3.812   1.505   5.102 -0.4317  1.1809 -0.5504
   42MOL0     H 5638   3.652   1.676   5.101 -2.5475  0.7332 -0.1954
   42MOL0     H 5639   3.578   1.616   5.250  1.8885 -4.9018  4.8260
   42MOL0     H 5640   3.763   1.699   5.385  1.3944  1.2024  0.2822
   42MOL0     H 5641   3.661   1.814   5.298 -0.7661  0.7699 -0.6480
   42MOL0     H 5642   3.930   1.711   5.191 -0.4810  0.7145 -1.1227
   42MOL0     H 5643   3.829   1.818   5.100  3.1100 -1.7572 -0.4890
   42MOL0     H 5644   3.814   1.984   5.264 -0.9863 -0.1911  1.0290
   42MOL0     H 5645   3.972   1.976   5.203  1.5159 -0.0048  2.5527
   42MOL0     H 5646   3.866   1.857   5.468 -1.1338  2.2807  0.2538
   42MOL0     H 5647   4.037   1.874   5.413  0.5479 -1.1786 -2.4931
   42MOL0     H 5648   3.832   2.114   5.445  0.0931 -1.4388  0.4587
   42MOL0     H 5649   4.010   2.130   5.466 -0.0013 -0.4480 -0.7256
   42MOL0     H 5650   3.859   1.985   5.683 -0.4253 -1.8070 -0.9371
   42MOL0     H 5651   3.886   2.150   5.694 -1.1992 -1.3853  0.4213
   42MOL0     H 5652   3.604   1.494   5.443  1.7311 -0.1120 -0.7083
   42MOL0     H 5653   3.470   1.359   5.618  1.2424 -0.4374  0.5105
   42MOL0     H 5654   3.004   1.114   5.667  1.7142 -3.0749 -1.0470
   42MOL0     H 5655   2.896   1.015   5.849 -0.2185  0.4377 -0.0833
   42MOL0     H 5656   3.079   1.314   5.956 -2.7531  1.6197 -1.1785
   42MOL0     H 5657   3.127   1.256   6.198  0.0078  0.6511  1.6068
   42MOL0     H 5658   2.933   1.445   6.796  0.7889  2.7135  3.5392
   42MOL0     H 5659   3.028   1.342   6.982 -1.2881 -1.1055 -0.9664
   42MOL0     H 5660   3.234   1.385   7.104 -0.7747  0.0707  0.6571
   42MOL0     H 5661   3.123   1.253   7.155 -0.1296 -5.2293 -2.6306
   42MOL0     H 5662   3.313   1.137   7.279  2.9505  0.0272  1.9627
   42MOL0     H 5663   3.341   1.310   7.308  2.5456 -0.2209  0.0744
   42MOL0     H 5664   3.484   1.282   7.088  0.0297  3.1769  3.0019
   42MOL0     H 5665   3.472   1.117   7.131  0.6187  0.0685 -1.2750
   42MOL0     H 5666   3.601   1.334   7.308 -0.4362  0.0263 -0.1542
   42MOL0     H 5667   3.693   1.213   7.243 -0.4250 -1.9795  2.7350
   42MOL0     H 5668   3.507   0.976   7.525  0.3678  0.5843  0.3611
   42MOL0     H 5669   3.374   1.212   6.764  0.3621  2.3415 -5.0096
   42MOL0     H 5670   3.311   1.336   6.577  1.8302  0.8451  1.0986
   43MOL0     O 5671   5.258   0.044   9.146  0.8610 -0.0787  0.7781
   43MOL0     C 5672   5.179  -0.046   9.170 -0.1149  0.1415  0.1124
   43MOL0     O 5673   5.135  -0.073   9.299  0.1367 -0.1631  0.6882
   43MOL0     C 5674   5.170  -0.003   9.408 -0.7252  0.5602  0.2142
   43MOL0     C 5675   5.297   0.061   9.438  0.0195  0.6175  0.0046
   43MOL0     C 5676   5.321   0.122   9.557 -0.2213  0.1213 -1.0055
   43MOL0     C 5677   5.219   0.146   9.654  0.1486  0.8623  0.3397
   43MOL0     O 5678   5.227   0.200   9.774  0.3999  0.5035  0.7684
   43MOL0     C 5679   5.347   0.272   9.807  0.4057  0.5326  0.2190
   43MOL0     C 5680   5.321   0.326   9.940  0.4652 -0.2911  0.3227
   43MOL0     C 5681   5.441   0.395   9.995  0.0353 -0.0280  0.6389
   43MOL0     C 5682   5.469   0.376  10.140  0.0437  0.9547 -0.1360
   43MOL0     C 5683   5.493   0.505  10.219 -0.4309  0.8421 -0.2495
   43MOL0     C 5684   5.544   0.489  10.366 -0.6970  0.0560 -0.0853
   43MOL0     C 5685   5.452   0.397  10.437 -0.9591 -0.0954 -0.6822
   43MOL0     C 5686   5.513   0.377  10.581 -0.2813  0.9177 -0.1433
   43MOL0     N 5687   5.430   0.302  10.672  0.2516 -0.3389 -0.0505
   43MOL0     C 5688   5.395   0.169  10.663 -0.0858  0.2791  0.8604
   43MOL0     C 5689   5.332   0.132  10.780  0.4213 -0.1989  0.3060
   43MOL0     C 5690   5.278   0.008  10.840  0.7694 -0.6338  0.6884
   43MOL0     C 5691   5.304  -0.118  10.756 -0.2080  0.3869  0.6703
   43MOL0     C 5692   5.290  -0.255  10.826  0.5541 -0.0858 -0.1492
   43MOL0     C 5693   5.299  -0.376  10.734 -0.1404 -0.1137 -0.2688
   43MOL0     O 5694   5.306  -0.490  10.812  0.3146  0.4386 -0.4194
   43MOL0     C 5695   5.344  -0.611  10.753 -0.0269  1.0898 -0.6211
   43MOL0     C 5696   5.388  -0.639  10.621  1.0347  1.3089  0.8777
   43MOL0     C 5697   5.441  -0.771  10.593  0.7742 -0.3933 -0.1019
   43MOL0     C 5698   5.478  -0.793  10.449 -0.6152  0.3333  0.6698
   43MOL0     C 5699   5.450  -0.871  10.693 -0.4937  0.2428 -0.5269
   43MOL0     C 5700   5.502  -1.008  10.667  1.1803  0.3164  0.2567
   43MOL0     O 5701   5.478  -1.067  10.546 -0.1312 -0.0986  0.7165
   43MOL0     C 5702   5.507  -1.198  10.516 -0.5315  0.5814  0.4959
   43MOL0     C 5703   5.424  -1.266  10.423 -0.0623 -0.7757 -0.2943
   43MOL0     C 5704   5.465  -1.394  10.381  0.5287  0.4368 -0.9856
   43MOL0     C 5705   5.582  -1.461  10.424  0.0417 -0.2551  0.2716
   43MOL0     O 5706   5.609  -1.580  10.347  0.1758  1.0587 -0.9442
   43MOL0     C 5707   5.729  -1.657  10.366 -0.7670 -0.0776  0.3457
   43MOL0     C 5708   5.823  -1.615  10.251 -0.3773 -0.3889  0.1070
   43MOL0     C 5709   5.876  -1.474  10.257  0.0238  0.2585  1.0178
   43MOL0     C 5710   5.936  -1.445  10.116 -0.3082 -0.2932 -0.7699
   43MOL0     C 5711   5.978  -1.300  10.116  0.2212 -0.6983 -0.4022
   43MOL0     C 5712   5.867  -1.193  10.127  0.8302  0.1033  0.1732
   43MOL0     C 5713   5.915  -1.045  10.144 -0.4773 -0.3159  0.5438
   43MOL0     C 5714   5.815  -0.941  10.190 -0.3155  0.0730  0.2807
   43MOL0    Cl 5715   5.689  -0.930  10.070  0.1750  0.3139  0.3841
   43MOL0     C 5716   5.665  -1.384  10.515 -0.0448  0.0413 -0.2039
   43MOL0     C 5717   5.633  -1.259  10.556 -0.0555 -0.3339  0.4212
   43MOL0     O 5718   5.550  -1.066  10.761  0.3770  0.6846 -0.2530
   43MOL0     C 5719   5.400  -0.840  10.819  0.5018  0.7484 -0.4537
   43MOL0     C 5720   5.350  -0.713  10.853 -0.7735  0.5868 -0.1592
   43MOL0     N 5721   5.333   0.254  10.854 -0.0500  0.1191 -0.8515
   43MOL0     N 5722   5.390   0.356  10.792 -0.2855 -0.9668  0.5935
   43MOL0     C 5723   5.099   0.086   9.627  0.2116  0.7773 -0.4144
   43MOL0     C 5724   5.076   0.011   9.511  0.2256  0.3803  0.4413
   43MOL0     C 5725   5.146  -0.150   9.065 -0.7733 -0.8250 -0.3952
   43MOL0     C 5726   5.024  -0.219   9.080 -1.9816  0.5460  0.0917
   43MOL0     C 5727   4.993  -0.315   8.979 -0.2408 -0.0930 -1.1412
   43MOL0     C 5728   5.061  -0.325   8.857  0.0014  0.6787 -0.6823
   43MOL0     O 5729   5.018  -0.397   8.753 -0.0929 -0.1851  0.5436
   43MOL0     C 5730   4.880  -0.412   8.726 -0.0255  0.4317  0.2081
   43MOL0     C 5731   4.793  -0.284   8.680 -1.2029  1.0388  0.0901
   43MOL0     C 5732   4.648  -0.325   8.656  0.4849  0.1582 -0.0872
   43MOL0     C 5733   4.548  -0.206   8.680 -0.6515  0.3549 -0.3862
   43MOL0     C 5734   4.570  -0.122   8.800  0.1622  0.1363 -0.2623
   43MOL0     C 5735   4.574  -0.072   8.907 -1.4389 -0.4779  0.2388
   43MOL0     C 5736   5.176  -0.251   8.850 -0.0066 -0.4631  0.1292
   43MOL0     C 5737   5.226  -0.166   8.952  0.2386 -0.1260 -0.4399
   43MOL0     H 5738   5.380   0.049   9.369  0.6462  1.5938  0.5669
   43MOL0     H 5739   5.414   0.170   9.587 -1.0625  1.7771 -0.9914
   43MOL0     H 5740   5.439   0.212   9.805  0.5062  0.6938 -0.1384
   43MOL0     H 5741   5.378   0.355   9.743  0.1736  3.0302  3.1019
   43MOL0     H 5742   5.242   0.400   9.928  0.6654 -0.0307  0.5724
   43MOL0     H 5743   5.312   0.249  10.017  4.6401  1.0891  2.5420
   43MOL0     H 5744   5.520   0.371   9.923  0.5676  5.0875 -0.9059
   43MOL0     H 5745   5.421   0.501   9.977  3.8757  1.7486  4.7932
   43MOL0     H 5746   5.393   0.323  10.199  0.2434  1.0576  0.2140
   43MOL0     H 5747   5.565   0.324  10.146 -0.5032  0.0746  2.5386
   43MOL0     H 5748   5.570   0.557  10.161 -0.0650 -0.1549 -0.6656
   43MOL0     H 5749   5.396   0.553  10.234 -1.4271 -1.4856  1.2585
   43MOL0     H 5750   5.649   0.465  10.353 -0.7373 -0.0878 -0.1444
   43MOL0     H 5751   5.537   0.590  10.407 -2.3638  0.7237 -1.8130
   43MOL0     H 5752   5.356   0.443  10.460 -0.5957 -0.1393  0.9944
   43MOL0     H 5753   5.451   0.296  10.396 -1.2500 -0.4764  0.2480
   43MOL0     H 5754   5.514   0.472  10.634 -1.2419 -0.9594  3.5793
   43MOL0     H 5755   5.609   0.326  10.565 -2.7180 -3.4821 -3.0493
   43MOL0     H 5756   5.416   0.103  10.580 -0.4444  0.4834  0.6029
   43MOL0     H 5757   5.339  -0.006  10.929  3.5041 -0.2825 -1.0248
   43MOL0     H 5758   5.170   0.023  10.854  0.2990 -3.3518  0.4223
   43MOL0     H 5759   5.393  -0.103  10.695 -0.4162  1.9858  0.7034
   43MOL0     H 5760   5.219  -0.115  10.688  0.5682  1.8243 -0.2807
   43MOL0     H 5761   5.197  -0.255  10.883  0.2311  2.2017 -0.5950
   43MOL0     H 5762   5.362  -0.256  10.909 -0.0582 -2.4108  0.4216
   43MOL0     H 5763   5.385  -0.359  10.669 -0.1424  1.8266  0.1682
   43MOL0     H 5764   5.208  -0.377  10.673 -0.5900 -0.3057  0.3970
   43MOL0     H 5765   5.384  -0.569  10.538  0.5492 -0.9788 -1.1593
   43MOL0     H 5766   5.483  -0.694  10.404 -2.6741  1.1462  2.0403
   43MOL0     H 5767   5.582  -0.826  10.445 -0.3584  0.9057 -4.5918
   43MOL0     H 5768   5.417  -0.864  10.391  0.7501  1.0931 -1.8332
   43MOL0     H 5769   5.328  -1.223  10.397  0.5643 -0.2913 -1.8778
   43MOL0     H 5770   5.405  -1.453  10.314  0.1257 -1.2039  0.7291
   43MOL0     H 5771   5.774  -1.629  10.462 -2.4205 -0.2700  1.2037
   43MOL0     H 5772   5.718  -1.765  10.377 -2.5246  0.0038 -0.2725
   43MOL0     H 5773   5.905  -1.687  10.241 -1.3537 -1.2278 -3.3739
   43MOL0     H 5774   5.775  -1.631  10.154 -0.3837  1.9976 -0.3490
   43MOL0     H 5775   5.956  -1.461  10.331  2.1622 -0.4582 -1.0361
   43MOL0     H 5776   5.796  -1.402  10.271  1.6949  1.8739  2.7951
   43MOL0     H 5777   6.021  -1.507  10.088 -0.9060  0.2776 -4.2645
   43MOL0     H 5778   5.865  -1.465  10.035 -0.4689 -0.3187 -0.6244
   43MOL0     H 5779   6.038  -1.279  10.027  2.4140  1.0953  1.3784
   43MOL0     H 5780   6.056  -1.288  10.192  1.2304 -1.1887 -1.3352
   43MOL0     H 5781   5.810  -1.200  10.034 -1.3039 -1.3170  1.5186
   43MOL0     H 5782   5.791  -1.205  10.205 -0.5018  1.2052 -0.8997
   43MOL0     H 5783   5.946  -1.022  10.042 -2.0162  0.3479  0.2056
   43MOL0     H 5784   5.998  -1.048  10.216  0.1046 -0.4621 -0.1244
   43MOL0     H 5785   5.863  -0.846  10.217 -1.7060  0.3460  1.9988
   43MOL0     H 5786   5.770  -0.976  10.284  0.3060 -0.8703  0.2345
   43MOL0     H 5787   5.752  -1.437  10.553 -2.2066 -3.1517  0.7322
   43MOL0     H 5788   5.692  -1.198  10.623  0.1548  1.7680 -1.5628
   43MOL0     H 5789   5.394  -0.911  10.901  1.5194  2.7059  1.4058
   43MOL0     H 5790   5.326  -0.697  10.958 -0.1703  2.9799 -0.3248
   43MOL0     H 5791   5.024   0.104   9.703  2.6157 -0.1131  2.3656
   43MOL0     H 5792   4.981  -0.037   9.489  1.3438 -1.3978 -0.8032
   43MOL0     H 5793   4.952  -0.224   9.161  0.6677  1.0916  2.6544
   43MOL0     H 5794   4.910  -0.379   9.005 -0.7637  1.1210  0.3037
   43MOL0     H 5795   4.879  -0.480   8.641  2.2507 -4.7421  3.8256
   43MOL0     H 5796   4.833  -0.459   8.813 -2.2783  0.1523 -1.0716
   43MOL0     H 5797   4.840  -0.239   8.591  2.3886 -1.8047  0.2910
   43MOL0     H 5798   4.808  -0.212   8.761  2.4275 -0.3882  0.9011
   43MOL0     H 5799   4.631  -0.401   8.733  0.8891  0.3756  0.2198
   43MOL0     H 5800   4.645  -0.367   8.555  1.3002 -2.0403  0.7588
   43MOL0     H 5801   4.447  -0.248   8.681 -0.0048 -1.4286 -1.9828
   43MOL0     H 5802   4.565  -0.150   8.588  1.8400 -0.7091 -0.6404
   43MOL0     H 5803   4.562  -0.014   8.997 -2.2146  1.4170 -1.0217
   43MOL0     H 5804   5.238  -0.257   8.761 -2.2910 -0.8494 -1.5174
   43MOL0     H 5805   5.306  -0.096   8.932  1.7605 -1.6442  0.0431
   44MOL0     O 5806  11.297   7.569   3.830 -0.9186  0.3335 -0.4214
   44MOL0     C 5807  11.223   7.501   3.760  0.0967  0.0679  0.6265
   44MOL0     O 5808  11.090   7.466   3.795  0.3123  0.7212  0.3879
   44MOL0     C 5809  11.056   7.513   3.917  0.5717 -0.4360 -0.9511
   44MOL0     C 5810  10.988   7.635   3.951 -0.8597  0.6757 -0.4509
   44MOL0     C 5811  10.950   7.669   4.083 -0.1918  0.4228  0.2253
   44MOL0     C 5812  10.987   7.583   4.192 -0.0179  0.3089  0.3528
   44MOL0     O 5813  10.938   7.609   4.320 -0.1339 -0.5354  0.9525
   44MOL0     C 5814  11.045   7.659   4.401  0.6698  0.7125  0.1631
   44MOL0     C 5815  11.009   7.781   4.487  0.0485  0.4822 -0.2336
   44MOL0     C 5816  10.968   7.910   4.423  0.2719 -0.2080  0.5026
   44MOL0     C 5817  11.082   7.984   4.361 -1.2907 -0.7684  1.0856
   44MOL0     C 5818  11.029   8.119   4.302 -0.4264 -0.5813 -0.0665
   44MOL0     C 5819  10.969   8.219   4.394  0.0672  0.2629 -0.4688
   44MOL0     C 5820  11.057   8.257   4.525 -0.0762  0.0566 -0.7823
   44MOL0     C 5821  10.990   8.356   4.622 -0.8327  0.4697 -0.7349
   44MOL0     N 5822  10.857   8.308   4.664  0.0856  0.9798 -0.2414
   44MOL0     C 5823  10.822   8.189   4.716  0.1965 -0.6451 -1.0217
   44MOL0     C 5824  10.685   8.187   4.728  0.5328 -0.4062  0.2345
   44MOL0     C 5825  10.598   8.098   4.803  0.0902 -0.2439 -0.2806
   44MOL0     C 5826  10.633   7.953   4.806 -0.0352  0.9786 -0.0930
   44MOL0     C 5827  10.652   7.886   4.667  0.5844 -0.0878  0.4166
   44MOL0     C 5828  10.516   7.863   4.601 -0.3097  0.0637  0.1605
   44MOL0     O 5829  10.537   7.827   4.463 -0.6731  0.2017 -0.2353
   44MOL0     C 5830  10.571   7.929   4.377 -0.0795  0.6643 -1.2325
   44MOL0     C 5831  10.613   7.889   4.259 -0.4187 -0.1072 -0.1085
   44MOL0     C 5832  10.662   7.980   4.164 -0.0308  0.5873 -0.2384
   44MOL0     C 5833  10.705   7.933   4.024 -0.2180  0.7148 -0.4649
   44MOL0     C 5834  10.647   8.116   4.193 -0.1728 -0.9123  0.0673
   44MOL0     C 5835  10.692   8.226   4.108 -0.5982  0.2343  0.7247
   44MOL0     O 5836  10.603   8.309   4.061  0.6714  0.0030 -0.0682
   44MOL0     C 5837  10.645   8.414   3.981 -0.2155 -0.6785 -0.2296
   44MOL0     C 5838  10.679   8.397   3.847  0.5103 -1.3132  0.0813
   44MOL0     C 5839  10.740   8.496   3.770  0.2260 -0.2780 -0.1425
   44MOL0     C 5840  10.746   8.627   3.813 -0.4010 -0.4924 -0.7477
   44MOL0     O 5841  10.779   8.733   3.735 -0.1065 -0.2430 -0.4778
   44MOL0     C 5842  10.820   8.709   3.598  0.4613 -0.4198 -0.4426
   44MOL0     C 5843  10.845   8.846   3.522  1.2055  1.7680 -0.3598
   44MOL0     C 5844  10.960   8.929   3.578  0.3050 -0.4518  0.4975
   44MOL0     C 5845  10.990   9.062   3.494 -0.4193  0.9839 -1.3506
   44MOL0     C 5846  11.089   9.141   3.581  0.3846 -0.7085  0.9625
   44MOL0     C 5847  11.106   9.290   3.522 -0.8528  0.8616 -0.4262
   44MOL0     C 5848  11.200   9.377   3.604  0.1370  0.2656  0.3287
   44MOL0     C 5849  11.193   9.527   3.577  0.5970 -0.1654 -0.5456
   44MOL0    Cl 5850  11.187   9.585   3.407 -0.1863 -0.9631 -0.3336
   44MOL0     C 5851  10.697   8.649   3.944 -0.8365  0.9502  0.1536
   44MOL0     C 5852  10.653   8.546   4.028  0.9026  0.9837 -0.4912
   44MOL0     O 5853  10.811   8.230   4.081  0.1598  0.3520  0.0123
   44MOL0     C 5854  10.580   8.155   4.308 -0.6958  0.9141  0.3228
   44MOL0     C 5855  10.557   8.058   4.405 -0.1231  0.0916 -0.0054
   44MOL0     N 5856  10.643   8.309   4.686 -0.6221 -0.6177 -0.1463
   44MOL0     N 5857  10.742   8.383   4.648 -0.1700 -0.1903  1.2297
   44MOL0     C 5858  11.058   7.471   4.170  0.0169  0.3978 -0.4254
   44MOL0     C 5859  11.080   7.433   4.038 -0.7487 -0.7491 -0.3370
   44MOL0     C 5860  11.267   7.449   3.624  1.0014  0.0503  1.0279
   44MOL0     C 5861  11.402   7.438   3.585 -0.0273  0.2422  0.1044
   44MOL0     C 5862  11.429   7.380   3.459 -0.5830 -0.0934 -0.2799
   44MOL0     C 5863  11.333   7.333   3.367  0.4609 -0.7856 -0.0747
   44MOL0     O 5864  11.382   7.258   3.260 -0.4674 -0.5273 -0.8776
   44MOL0     C 5865  11.283   7.245   3.155  0.1837 -0.2815 -0.2770
   44MOL0     C 5866  11.358   7.180   3.037  0.3223  0.1636 -0.5334
   44MOL0     C 5867  11.283   7.176   2.898  0.1604 -0.6131 -0.6123
   44MOL0     C 5868  11.372   7.115   2.789  1.3638  0.7068 -0.1946
   44MOL0     C 5869  11.291   7.016   2.703 -0.1352  0.0569  0.0245
   44MOL0     C 5870  11.222   6.933   2.642 -1.2970 -1.0491  0.5542
   44MOL0     C 5871  11.198   7.352   3.407 -0.1155  1.0215  0.8630
   44MOL0     C 5872  11.166   7.405   3.527 -0.3641  0.0660 -0.5667
   44MOL0     H 5873  10.959   7.704   3.873 -1.3683 -0.1799 -1.0357
   44MOL0     H 5874  10.885   7.752   4.107 -0.4194  0.9360 -1.9426
   44MOL0     H 5875  11.086   7.589   4.474 -1.2557  1.4192  2.0223
   44MOL0     H 5876  11.130   7.691   4.339 -1.4059  0.9800 -2.7128
   44MOL0     H 5877  10.926   7.744   4.548  0.5398  3.0960  2.2384
   44MOL0     H 5878  11.085   7.808   4.561 -1.0788  0.0481  1.1413
   44MOL0     H 5879  10.886   7.904   4.350 -1.4035 -1.7206  2.3609
   44MOL0     H 5880  10.935   7.974   4.506 -0.3333  1.3002 -0.8573
   44MOL0     H 5881  11.159   8.017   4.432  2.9625  1.9692 -4.0220
   44MOL0     H 5882  11.122   7.922   4.280 -4.8935 -3.0180  0.7895
   44MOL0     H 5883  11.117   8.160   4.253  0.5915 -3.4098 -0.7875
   44MOL0     H 5884  10.963   8.087   4.221 -0.4437  1.4087 -0.8852
   44MOL0     H 5885  10.950   8.313   4.343  1.5937 -1.0227 -3.6562
   44MOL0     H 5886  10.870   8.178   4.420  0.6152 -1.6713 -1.2282
   44MOL0     H 5887  11.066   8.161   4.577  0.0986 -0.5374 -1.8708
   44MOL0     H 5888  11.152   8.303   4.499  0.2517  0.0969  0.4485
   44MOL0     H 5889  10.988   8.448   4.563 -2.6511 -0.0323 -1.5213
   44MOL0     H 5890  11.060   8.365   4.705 -2.2166  4.0089  0.1997
   44MOL0     H 5891  10.896   8.117   4.748  2.1506  2.9537  3.6183
   44MOL0     H 5892  10.600   8.138   4.905  1.3959  2.1754 -1.1707
   44MOL0     H 5893  10.494   8.114   4.772 -0.2163 -1.6706 -0.0313
   44MOL0     H 5894  10.554   7.905   4.864 -0.8962  3.9297  1.4076
   44MOL0     H 5895  10.731   7.936   4.852 -0.4855  0.9723  0.8705
   44MOL0     H 5896  10.707   7.792   4.680  0.8899  0.3800  3.1597
   44MOL0     H 5897  10.721   7.943   4.604 -1.0098  1.7874  0.3005
   44MOL0     H 5898  10.462   7.957   4.610  0.2784  0.3663  0.5993
   44MOL0     H 5899  10.465   7.781   4.652 -5.3146  1.4164 -2.0607
   44MOL0     H 5900  10.615   7.782   4.240 -1.8502  0.0776 -1.4513
   44MOL0     H 5901  10.814   7.935   4.033 -0.2189 -0.9643  0.4340
   44MOL0     H 5902  10.673   7.831   4.000 -0.3802  0.2832  1.4483
   44MOL0     H 5903  10.678   8.007   3.948  1.3653  0.9736 -0.8211
   44MOL0     H 5904  10.662   8.292   3.824  1.4193 -1.4703  0.1136
   44MOL0     H 5905  10.774   8.464   3.671  0.3975 -1.8172  0.3938
   44MOL0     H 5906  10.915   8.656   3.587  1.3779  1.0535  0.0891
   44MOL0     H 5907  10.738   8.658   3.548 -1.8396  1.3182  1.3495
   44MOL0     H 5908  10.881   8.812   3.424  2.1215  1.4508  0.0688
   44MOL0     H 5909  10.757   8.910   3.513  1.2767  1.6772 -1.9534
   44MOL0     H 5910  11.052   8.871   3.590  1.5338  1.6046  1.4795
   44MOL0     H 5911  10.928   8.965   3.676 -1.2383 -3.2111  1.1247
   44MOL0     H 5912  11.051   9.047   3.404  1.3278 -2.9120  0.2733
   44MOL0     H 5913  10.897   9.119   3.483 -1.8784 -1.1558 -0.6378
   44MOL0     H 5914  11.187   9.091   3.582 -0.3357 -2.3282 -1.4374
   44MOL0     H 5915  11.047   9.141   3.682 -4.9888 -1.9813 -0.9648
   44MOL0     H 5916  11.136   9.280   3.417 -2.7810 -0.8028 -0.8682
   44MOL0     H 5917  11.004   9.328   3.522 -0.6473  1.4233  0.1140
   44MOL0     H 5918  11.301   9.345   3.575  0.4327  1.3051  0.1587
   44MOL0     H 5919  11.181   9.354   3.709 -0.8057 -1.8433 -0.2551
   44MOL0     H 5920  11.276   9.569   3.636 -1.2044 -1.1431  2.9613
   44MOL0     H 5921  11.106   9.567   3.631  1.3553 -2.2143  2.4962
   44MOL0     H 5922  10.693   8.752   3.979 -2.5486  1.5824 -1.7058
   44MOL0     H 5923  10.633   8.557   4.134 -3.2309 -1.0894 -0.8610
   44MOL0     H 5924  10.567   8.258   4.341  1.0427  0.2916  3.3815
   44MOL0     H 5925  10.497   8.104   4.483  1.7478  1.0723  0.9106
   44MOL0     H 5926  11.085   7.410   4.255 -2.3653 -0.5114 -0.2598
   44MOL0     H 5927  11.141   7.345   4.020 -0.7842 -0.8963  0.2363
   44MOL0     H 5928  11.478   7.472   3.654  1.5500  3.3255 -2.8463
   44MOL0     H 5929  11.529   7.352   3.427 -0.5481  2.0434 -2.2919
   44MOL0     H 5930  11.203   7.181   3.195  1.1778 -1.1605  0.3774
   44MOL0     H 5931  11.234   7.341   3.140 -1.2985 -1.3058 -2.4901
   44MOL0     H 5932  11.379   7.076   3.062 -0.9659 -0.2782 -1.2107
   44MOL0     H 5933  11.450   7.237   3.022  0.5179 -0.2824 -1.0672
   44MOL0     H 5934  11.247   7.272   2.860  0.6945 -0.9400 -1.9826
   44MOL0     H 5935  11.202   7.108   2.929  1.0758 -1.6568 -0.4258
   44MOL0     H 5936  11.459   7.066   2.834  0.7632 -0.6833 -0.5234
   44MOL0     H 5937  11.415   7.196   2.729  0.9117  0.1154 -1.3312
   44MOL0     H 5938  11.169   6.851   2.600  1.4311 -3.2784  1.1500
   44MOL0     H 5939  11.123   7.300   3.348  2.4477 -4.0937  1.4929
   44MOL0     H 5940  11.062   7.431   3.546  0.2459  2.7232 -0.4258
   45MOL0     O 5941   0.877   0.999   4.542 -0.3373  0.7441  0.2211
   45MOL0     C 5942   0.992   0.966   4.556  0.5925 -0.3293 -0.4476
   45MOL0     O 5943   1.063   0.971   4.675  0.7544 -0.8116  0.3676
   45MOL0     C 5944   1.005   0.982   4.798  0.3425  0.6464 -0.3832
   45MOL0     C 5945   1.020   1.095   4.869 -0.4608  0.6405  0.1712
   45MOL0     C 5946   0.954   1.128   4.983  0.2953 -0.5153 -0.5711
   45MOL0     C 5947   0.861   1.035   5.040 -0.1838  0.5666  0.0088
   45MOL0     O 5948   0.795   1.080   5.149  0.1016 -0.1531 -0.4238
   45MOL0     C 5949   0.686   0.990   5.199  0.6668 -0.3489 -0.1698
   45MOL0     C 5950   0.616   1.050   5.316 -0.7741 -0.5854 -0.3671
   45MOL0     C 5951   0.551   0.952   5.417  0.6439  0.1274  0.4085
   45MOL0     C 5952   0.431   0.880   5.353 -0.3529  0.4144  0.8668
   45MOL0     C 5953   0.285   0.932   5.381 -0.4453  0.2725  0.1118
   45MOL0     C 5954   0.186   0.841   5.309  0.2050 -0.2874  0.4819
   45MOL0     C 5955   0.053   0.853   5.369 -0.0665 -0.3384 -0.5035
   45MOL0     C 5956  -0.031   0.777   5.269 -0.7476 -1.0736 -0.1715
   45MOL0     N 5957  -0.172   0.773   5.307 -0.6786  0.2695 -0.5605
   45MOL0     C 5958  -0.285   0.812   5.232  0.2962  0.1395  0.2478
   45MOL0     C 5959  -0.384   0.804   5.324 -0.0800 -0.8830  0.2671
   45MOL0     C 5960  -0.533   0.832   5.306 -0.0136  0.4519  0.0964
   45MOL0     C 5961  -0.608   0.716   5.241  0.5747 -0.2470  0.7950
   45MOL0     C 5962  -0.615   0.593   5.338  0.2349 -0.7170 -0.1032
   45MOL0     C 5963  -0.664   0.468   5.267 -0.0232  0.2444  0.0559
   45MOL0     O 5964  -0.796   0.487   5.215 -0.2026 -0.3531 -0.6363
   45MOL0     C 5965  -0.906   0.454   5.299  0.4284  0.2156 -0.0959
   45MOL0     C 5966  -1.029   0.493   5.250  0.0825  0.3105  0.2307
   45MOL0     C 5967  -1.148   0.460   5.313  0.8906  0.1388  0.7140
   45MOL0     C 5968  -1.276   0.504   5.241 -0.5779 -0.7236  0.4126
   45MOL0     C 5969  -1.140   0.397   5.440  0.7064 -0.4548  0.2930
   45MOL0     C 5970  -1.260   0.376   5.521  0.1676 -0.0748  0.1617
   45MOL0     O 5971  -1.358   0.460   5.507  0.3151 -0.5537 -0.1988
   45MOL0     C 5972  -1.474   0.431   5.573  0.1155  0.2935 -1.3709
   45MOL0     C 5973  -1.585   0.426   5.494 -0.3115  0.1609  0.2448
   45MOL0     C 5974  -1.718   0.420   5.550  0.1418 -0.4265 -0.2750
   45MOL0     C 5975  -1.726   0.400   5.690 -0.2057 -0.4179 -0.3468
   45MOL0     O 5976  -1.848   0.399   5.750 -0.0902 -0.1316 -0.0449
   45MOL0     C 5977  -1.892   0.306   5.846  0.0371  0.1398 -0.2450
   45MOL0     C 5978  -2.022   0.367   5.921 -0.7392  0.0964 -0.2232
   45MOL0     C 5979  -2.071   0.250   6.021 -0.6553 -1.2218  0.2643
   45MOL0     C 5980  -2.095   0.287   6.166  0.6529  0.3664  0.2154
   45MOL0     C 5981  -2.146   0.162   6.239 -0.4551 -1.1875  0.3816
   45MOL0     C 5982  -2.185   0.190   6.381  0.5653  0.0817 -0.3978
   45MOL0     C 5983  -2.069   0.244   6.475 -0.4421 -0.0426  0.2471
   45MOL0     C 5984  -1.933   0.174   6.459  0.6047  0.4483  0.5573
   45MOL0    Cl 5985  -1.947   0.010   6.540 -0.0778  0.2678  0.0042
   45MOL0     C 5986  -1.607   0.389   5.764  0.6099  0.8756 -0.1623
   45MOL0     C 5987  -1.481   0.406   5.710  0.6462 -0.0909 -0.0236
   45MOL0     O 5988  -1.263   0.278   5.591 -0.9620 -0.2328 -1.5903
   45MOL0     C 5989  -1.014   0.363   5.502  0.2831 -0.7346  0.2745
   45MOL0     C 5990  -0.901   0.400   5.425  0.1926  0.6535 -0.5010
   45MOL0     N 5991  -0.333   0.767   5.443 -0.3208  0.6392 -0.3341
   45MOL0     N 5992  -0.212   0.742   5.438 -0.5548  0.4020 -0.0769
   45MOL0     C 5993   0.845   0.908   4.972  0.1336 -0.8301 -0.5883
   45MOL0     C 5994   0.912   0.889   4.850 -0.1810  0.2206  0.7701
   45MOL0     C 5995   1.059   0.893   4.440 -0.7848  0.0661  0.3287
   45MOL0     C 5996   0.998   0.911   4.310 -0.6994 -0.4830 -0.1970
   45MOL0     C 5997   1.064   0.858   4.200 -0.4575  0.3727  0.0556
   45MOL0     C 5998   1.186   0.796   4.203  1.2208  1.7169  0.1868
   45MOL0     O 5999   1.235   0.728   4.092  0.3463 -0.4852 -0.3170
   45MOL0     C 6000   1.175   0.600   4.066  0.6184  0.1293  0.2043
   45MOL0     C 6001   1.119   0.595   3.925  0.8515 -0.3061  0.3375
   45MOL0     C 6002   1.095   0.452   3.872  0.1285 -0.8000  0.6208
   45MOL0     C 6003   0.958   0.398   3.849  0.3839 -0.3840 -0.7091
   45MOL0     C 6004   0.893   0.394   3.979  0.5113  0.3072  0.6422
   45MOL0     C 6005   0.835   0.358   4.076  0.1730  0.3036  1.0479
   45MOL0     C 6006   1.242   0.772   4.333  0.1532 -0.4262  0.8538
   45MOL0     C 6007   1.173   0.815   4.447  0.0411 -0.5726 -0.4098
   45MOL0     H 6008   1.092   1.163   4.825  2.4396 -1.5630  1.2608
   45MOL0     H 6009   0.951   1.223   5.037  0.4990  1.0323 -3.1337
   45MOL0     H 6010   0.611   0.978   5.119  0.7434  1.2087 -0.5161
   45MOL0     H 6011   0.717   0.891   5.230 -2.2735 -1.1742  0.4605
   45MOL0     H 6012   0.686   1.110   5.375 -2.3537  0.8770  0.1123
   45MOL0     H 6013   0.545   1.131   5.294 -1.1631 -0.4852  1.1638
   45MOL0     H 6014   0.635   0.886   5.444  1.0718 -1.8388 -4.6276
   45MOL0     H 6015   0.518   1.004   5.508 -3.8432 -0.7639 -0.4762
   45MOL0     H 6016   0.439   0.878   5.244 -1.7737  1.7728  0.7077
   45MOL0     H 6017   0.428   0.777   5.390 -0.1057 -0.0317 -0.3168
   45MOL0     H 6018   0.264   0.927   5.489 -0.7723 -0.3120  0.0241
   45MOL0     H 6019   0.287   1.039   5.359  1.1664  0.3178  0.4136
   45MOL0     H 6020   0.189   0.876   5.206  1.3004 -2.3572 -0.2444
   45MOL0     H 6021   0.223   0.738   5.310  5.8800  1.3377 -1.7933
   45MOL0     H 6022   0.063   0.814   5.471  4.0766 -0.9183 -0.9735
   45MOL0     H 6023   0.017   0.956   5.363 -0.5991 -0.5459 -1.0506
   45MOL0     H 6024   0.013   0.678   5.279  0.5863 -0.4513  0.4485
   45MOL0     H 6025  -0.017   0.815   5.168  2.5875 -3.1493 -0.6268
   45MOL0     H 6026  -0.287   0.880   5.147  3.0016  2.9321  2.1868
   45MOL0     H 6027  -0.568   0.858   5.406 -0.8878  1.0455 -0.3594
   45MOL0     H 6028  -0.542   0.917   5.238 -1.2108 -1.1390 -1.8557
   45MOL0     H 6029  -0.542   0.687   5.159 -0.0271  0.8368 -0.1180
   45MOL0     H 6030  -0.701   0.756   5.198  2.4751  2.1973 -1.3970
   45MOL0     H 6031  -0.692   0.617   5.412 -0.9339 -0.3014 -1.4054
   45MOL0     H 6032  -0.517   0.573   5.382 -0.0949 -3.8206 -0.5495
   45MOL0     H 6033  -0.667   0.379   5.330  0.5516  0.1908  0.0054
   45MOL0     H 6034  -0.586   0.450   5.193  2.9154 -3.0839  3.4906
   45MOL0     H 6035  -1.031   0.525   5.147  0.4092  0.0839  0.1542
   45MOL0     H 6036  -1.262   0.521   5.134 -0.6414 -0.0786  0.5007
   45MOL0     H 6037  -1.343   0.417   5.250 -0.7773 -0.6566 -0.3750
   45MOL0     H 6038  -1.327   0.593   5.280  1.7838  0.6180  0.6498
   45MOL0     H 6039  -1.564   0.442   5.389 -0.7178  1.0836  0.2947
   45MOL0     H 6040  -1.800   0.428   5.479  1.8207  2.7357 -2.0814
   45MOL0     H 6041  -1.906   0.204   5.810 -3.5440 -0.2812  1.9185
   45MOL0     H 6042  -1.820   0.305   5.928  0.3242 -0.6283 -0.4962
   45MOL0     H 6043  -1.991   0.462   5.967  0.7373 -0.2987 -0.3351
   45MOL0     H 6044  -2.101   0.389   5.849 -1.0166 -2.1603 -0.6871
   45MOL0     H 6045  -1.991   0.175   6.023  0.8558  0.3562  0.7800
   45MOL0     H 6046  -2.160   0.198   5.985  1.1783 -4.4718 -0.0621
   45MOL0     H 6047  -1.996   0.315   6.206  1.8425 -4.0172  0.8658
   45MOL0     H 6048  -2.165   0.371   6.178  0.7721  0.5843 -0.5998
   45MOL0     H 6049  -2.068   0.086   6.240  1.9178  1.1188  0.1652
   45MOL0     H 6050  -2.233   0.120   6.187 -2.2241  2.2078  0.3067
   45MOL0     H 6051  -2.269   0.260   6.376 -1.1163 -1.8807 -3.2250
   45MOL0     H 6052  -2.230   0.098   6.421 -1.7288  2.1387  2.1353
   45MOL0     H 6053  -2.086   0.243   6.583  1.4945  0.8491  0.5893
   45MOL0     H 6054  -2.047   0.344   6.439 -1.5641  0.3203  0.5331
   45MOL0     H 6055  -1.842   0.217   6.503 -0.2046  1.1218  1.6311
   45MOL0     H 6056  -1.908   0.150   6.355 -2.4328  0.4653 -0.2693
   45MOL0     H 6057  -1.609   0.379   5.872  0.8217  1.8507 -0.0550
   45MOL0     H 6058  -1.389   0.410   5.768  2.3864 -0.5494 -2.5628
   45MOL0     H 6059  -0.990   0.329   5.603 -0.1382 -0.3834  0.4971
   45MOL0     H 6060  -0.812   0.358   5.471 -1.1820 -1.9801 -0.0572
   45MOL0     H 6061   0.768   0.838   5.001 -2.0563  2.6217  2.8429
   45MOL0     H 6062   0.900   0.795   4.796  0.9487 -0.9538  2.4570
   45MOL0     H 6063   0.911   0.975   4.299  0.0020  0.5740  0.2291
   45MOL0     H 6064   1.013   0.871   4.105 -2.6450 -2.3960  0.7273
   45MOL0     H 6065   1.248   0.519   4.072  1.7086  1.0688 -0.1127
   45MOL0     H 6066   1.105   0.580   4.148  1.5039  0.0776  0.9537
   45MOL0     H 6067   1.199   0.629   3.859  0.6679  1.6343  1.0401
   45MOL0     H 6068   1.026   0.653   3.921 -0.2090 -1.9762 -2.9972
   45MOL0     H 6069   1.155   0.380   3.929  1.3743  1.8833  2.9503
   45MOL0     H 6070   1.143   0.449   3.774 -0.1323 -0.0105  0.4636
   45MOL0     H 6071   0.970   0.292   3.824 -2.6099 -1.0618  0.2601
   45MOL0     H 6072   0.899   0.449   3.773 -0.5700  2.8141  1.9169
   45MOL0     H 6073   0.788   0.324   4.167 -0.5241 -0.2926  0.4724
   45MOL0     H 6074   1.330   0.707   4.332 -0.5177 -1.5106 -2.8917
   45MOL0     H 6075   1.214   0.796   4.545 -0.2015 -0.6477 -0.3211
   46MOL0     O 6076   7.880   8.145   7.688  0.0599 -0.0817 -0.3730
   46MOL0     C 6077   7.888   8.261   7.736  0.7112  0.4340  0.5056
   46MOL0     O 6078   7.894   8.377   7.669  0.9821 -0.6994  1.0894
   46MOL0     C 6079   7.864   8.365   7.537 -1.1070  0.1363  1.2445
   46MOL0     C 6080   7.962   8.345   7.434 -0.3509 -0.6747  0.6831
   46MOL0     C 6081   7.915   8.341   7.303  0.8412  0.8047  0.4296
   46MOL0     C 6082   7.785   8.371   7.270  0.7382 -0.2221  0.6138
   46MOL0     O 6083   7.739   8.367   7.143 -0.6616 -0.8105  0.5683
   46MOL0     C 6084   7.835   8.383   7.031  0.0233  0.6186  0.4888
   46MOL0     C 6085   7.761   8.447   6.908 -0.9344  0.4754 -0.6269
   46MOL0     C 6086   7.828   8.460   6.776  0.5674 -0.6553 -0.8129
   46MOL0     C 6087   7.787   8.338   6.679  0.4258  0.7765 -0.7061
   46MOL0     C 6088   7.830   8.352   6.534  0.4609  0.5790  0.2737
   46MOL0     C 6089   7.767   8.236   6.444  0.4956  0.7524  0.6876
   46MOL0     C 6090   7.613   8.251   6.408  0.0050  0.9771  1.5404
   46MOL0     C 6091   7.574   8.203   6.263  0.3469  0.0426  0.4442
   46MOL0     N 6092   7.601   8.307   6.165 -0.0535  0.8328 -1.1252
   46MOL0     C 6093   7.692   8.317   6.071  0.5730  0.3755  0.4021
   46MOL0     C 6094   7.678   8.447   6.021  0.2765  0.7390 -0.0567
   46MOL0     C 6095   7.753   8.517   5.909  0.4278 -0.8472  0.0486
   46MOL0     C 6096   7.905   8.507   5.889  1.2309 -0.4095  0.8416
   46MOL0     C 6097   7.935   8.546   5.745 -0.3090  0.3187 -0.6150
   46MOL0     C 6098   8.076   8.501   5.713  0.0861  0.2716  0.4239
   46MOL0     O 6099   8.172   8.579   5.792  0.3404  0.5001  0.2605
   46MOL0     C 6100   8.208   8.703   5.738 -0.0130 -0.2330  0.4477
   46MOL0     C 6101   8.190   8.808   5.827  0.6565  0.4126  0.3525
   46MOL0     C 6102   8.231   8.934   5.789 -0.0860  0.2315  1.0279
   46MOL0     C 6103   8.220   9.033   5.894 -0.2048 -0.9971 -0.2274
   46MOL0     C 6104   8.281   8.954   5.663 -0.2722 -0.3460  0.4778
   46MOL0     C 6105   8.325   9.088   5.615  0.7204 -0.7983  0.2716
   46MOL0     O 6106   8.242   9.197   5.633  0.6218  0.0222  0.2344
   46MOL0     C 6107   8.291   9.327   5.611  0.4455 -0.3708 -0.3882
   46MOL0     C 6108   8.416   9.373   5.651 -0.3532  0.5800  0.1233
   46MOL0     C 6109   8.463   9.489   5.609  0.1249 -1.2693  0.2183
   46MOL0     C 6110   8.385   9.582   5.532  0.1510 -0.1825  0.3240
   46MOL0     O 6111   8.442   9.698   5.486 -0.1250 -0.1565 -0.1052
   46MOL0     C 6112   8.584   9.730   5.483  0.7447  0.5524  0.2142
   46MOL0     C 6113   8.630   9.698   5.347 -0.7190 -0.3362 -0.3744
   46MOL0     C 6114   8.680   9.830   5.270  0.0974  0.1729  0.1154
   46MOL0     C 6115   8.563   9.925   5.240 -0.5400  0.2665 -0.3615
   46MOL0     C 6116   8.611  10.046   5.156  0.1865 -0.1488  0.1488
   46MOL0     C 6117   8.713  10.146   5.223 -0.2550 -0.3387 -0.3624
   46MOL0     C 6118   8.800  10.210   5.120 -0.0147  1.1157 -0.8172
   46MOL0     C 6119   8.930  10.127   5.098 -0.1205 -0.1147 -0.6506
   46MOL0    Cl 6120   9.052  10.217   4.999  0.3170  0.1936 -0.2537
   46MOL0     C 6121   8.250   9.551   5.508 -0.5046  0.3179 -1.6444
   46MOL0     C 6122   8.205   9.418   5.539  0.0924 -0.2157  0.4477
   46MOL0     O 6123   8.445   9.094   5.585  0.2118  0.3421  0.4661
   46MOL0     C 6124   8.296   8.854   5.577 -0.5329 -0.3757  0.0440
   46MOL0     C 6125   8.251   8.729   5.614 -0.9907 -0.0686  0.9229
   46MOL0     N 6126   7.574   8.500   6.078 -0.3218 -0.3018 -0.2204
   46MOL0     N 6127   7.524   8.416   6.162 -0.0012  0.1983  0.1429
   46MOL0     C 6128   7.693   8.399   7.365 -0.1443  0.3116 -0.3039
   46MOL0     C 6129   7.734   8.390   7.498 -0.2779  0.3279  0.4595
   46MOL0     C 6130   7.883   8.264   7.886 -0.4629 -0.4571 -0.4712
   46MOL0     C 6131   7.873   8.142   7.957  1.1800  0.0936 -0.0818
   46MOL0     C 6132   7.852   8.150   8.098  0.1466 -0.4471 -0.5488
   46MOL0     C 6133   7.854   8.272   8.176  0.5597  0.5020  0.5627
   46MOL0     O 6134   7.854   8.259   8.310  0.1287  0.3526  0.2558
   46MOL0     C 6135   7.765   8.351   8.377 -0.3792 -0.4723  0.0945
   46MOL0     C 6136   7.714   8.273   8.507 -0.4242  0.4027  0.8802
   46MOL0     C 6137   7.618   8.152   8.457 -0.5219  0.1901 -0.6280
   46MOL0     C 6138   7.591   8.051   8.570  0.0264  0.0645  0.2321
   46MOL0     C 6139   7.549   8.111   8.698 -0.4672 -1.6351  0.2138
   46MOL0     C 6140   7.515   8.170   8.798 -0.0181  0.0244  0.1113
   46MOL0     C 6141   7.869   8.386   8.100 -0.5139 -0.5714 -0.3374
   46MOL0     C 6142   7.885   8.388   7.959 -0.2155 -0.5619 -0.5071
   46MOL0     H 6143   8.066   8.332   7.461  0.1130  2.4260  0.7770
   46MOL0     H 6144   7.999   8.300   7.247  1.2536  0.1132  1.5278
   46MOL0     H 6145   7.908   8.462   7.050 -0.1214  1.4588 -2.0854
   46MOL0     H 6146   7.886   8.291   7.000 -0.7738 -0.0701  1.1689
   46MOL0     H 6147   7.668   8.389   6.896 -1.6149  1.0466  1.5587
   46MOL0     H 6148   7.736   8.545   6.949  2.0145  0.3572  1.7492
   46MOL0     H 6149   7.800   8.550   6.720 -1.3651  1.8451  3.6084
   46MOL0     H 6150   7.936   8.469   6.792  0.4761 -0.0962 -0.4578
   46MOL0     H 6151   7.832   8.255   6.734 -1.6447  0.1828  0.2126
   46MOL0     H 6152   7.680   8.314   6.674  0.4787  0.5344 -0.7086
   46MOL0     H 6153   7.801   8.448   6.490  2.2341  0.4144 -1.3488
   46MOL0     H 6154   7.938   8.353   6.520  0.2435  0.3651 -1.6328
   46MOL0     H 6155   7.826   8.224   6.353  0.1990  0.6183  0.5120
   46MOL0     H 6156   7.784   8.142   6.496 -1.0629 -1.1427 -2.0005
   46MOL0     H 6157   7.546   8.194   6.474 -1.7846  1.3707  0.1504
   46MOL0     H 6158   7.577   8.354   6.416 -0.2432  0.9877  0.3967
   46MOL0     H 6159   7.470   8.168   6.255  0.5095 -0.8375  1.7841
   46MOL0     H 6160   7.634   8.115   6.239 -0.3163 -0.4589  0.5825
   46MOL0     H 6161   7.777   8.252   6.051  0.3175 -0.6214  2.2980
   46MOL0     H 6162   7.716   8.471   5.817  2.0143 -0.1196 -0.9861
   46MOL0     H 6163   7.720   8.621   5.898  2.3018 -0.1378  0.8482
   46MOL0     H 6164   7.940   8.410   5.924 -0.9336 -1.6986 -0.3674
   46MOL0     H 6165   7.954   8.581   5.954  3.2484  0.3397 -1.3927
   46MOL0     H 6166   7.932   8.656   5.748  0.6221  0.3574  2.0317
   46MOL0     H 6167   7.861   8.510   5.673 -0.9037  1.9126 -0.8389
   46MOL0     H 6168   8.091   8.504   5.605  1.6225 -3.1258  0.3921
   46MOL0     H 6169   8.095   8.399   5.748 -0.9573  0.3950  1.3859
   46MOL0     H 6170   8.149   8.788   5.925 -0.3532  2.3089  0.3735
   46MOL0     H 6171   8.192   8.989   5.991 -0.7899  1.3308  0.7305
   46MOL0     H 6172   8.315   9.087   5.903  0.6254 -2.0318 -2.1773
   46MOL0     H 6173   8.133   9.095   5.872 -1.2372 -1.8810  1.2105
   46MOL0     H 6174   8.467   9.303   5.717 -2.1223 -2.8537 -1.9051
   46MOL0     H 6175   8.559   9.508   5.655 -1.3955 -0.0449  3.0909
   46MOL0     H 6176   8.608   9.834   5.507  1.5521 -0.0580  2.1852
   46MOL0     H 6177   8.643   9.665   5.548 -1.0473 -0.6734  0.6789
   46MOL0     H 6178   8.710   9.624   5.358  2.2317  2.3384 -2.1691
   46MOL0     H 6179   8.558   9.645   5.284 -1.9141 -0.2130  0.8277
   46MOL0     H 6180   8.727   9.820   5.172  2.0613  1.2282  0.8838
   46MOL0     H 6181   8.741   9.882   5.344 -1.2615  3.0060 -0.6017
   46MOL0     H 6182   8.478   9.874   5.194  0.4617 -0.5926 -1.3216
   46MOL0     H 6183   8.518   9.967   5.330  0.2689  3.6635 -1.3881
   46MOL0     H 6184   8.517  10.099   5.136 -0.3302 -0.7193  1.0163
   46MOL0     H 6185   8.652  10.011   5.060  1.7436 -0.8150  1.0175
   46MOL0     H 6186   8.656  10.227   5.269 -2.7280 -1.3879 -1.4217
   46MOL0     H 6187   8.776  10.090   5.293 -3.0799 -1.3550  1.5186
   46MOL0     H 6188   8.828  10.313   5.142  0.2563  0.4708  2.4052
   46MOL0     H 6189   8.745  10.210   5.025  0.9344  1.8692 -1.3817
   46MOL0     H 6190   8.906  10.031   5.050  3.8915 -0.7686 -1.7398
   46MOL0     H 6191   8.962  10.101   5.200 -1.5687  1.7404  0.3461
   46MOL0     H 6192   8.187   9.627   5.462  0.6811  1.2892 -1.7399
   46MOL0     H 6193   8.100   9.392   5.527 -0.0796  0.9091 -0.6737
   46MOL0     H 6194   8.335   8.882   5.479  0.1714  2.3771  1.0047
   46MOL0     H 6195   8.254   8.643   5.547 -1.1462 -0.7444  1.7548
   46MOL0     H 6196   7.592   8.428   7.338 -0.7550  0.1399  1.6441
   46MOL0     H 6197   7.653   8.401   7.569 -0.5685 -1.6686  0.4920
   46MOL0     H 6198   7.863   8.047   7.906 -3.4552 -0.0965  0.6809
   46MOL0     H 6199   7.844   8.054   8.148  0.7387 -1.0571 -1.5858
   46MOL0     H 6200   7.834   8.426   8.416 -1.1706  0.6216 -0.5772
   46MOL0     H 6201   7.700   8.413   8.316 -1.6593  1.7328  3.3969
   46MOL0     H 6202   7.660   8.341   8.573 -2.7835 -1.3155  0.8557
   46MOL0     H 6203   7.800   8.224   8.553 -0.1571 -2.2913 -2.1371
   46MOL0     H 6204   7.661   8.100   8.371  0.5636 -0.4858  0.2932
   46MOL0     H 6205   7.520   8.184   8.419 -2.0087 -1.1073  1.8650
   46MOL0     H 6206   7.674   7.985   8.598 -0.0530 -1.3298 -2.4955
   46MOL0     H 6207   7.511   7.982   8.540  1.4483 -0.9778 -1.3534
   46MOL0     H 6208   7.492   8.230   8.884  3.3869  1.2322  0.3238
   46MOL0     H 6209   7.893   8.475   8.156 -0.7578  1.0711 -2.7111
   46MOL0     H 6210   7.901   8.474   7.894 -4.8885  0.2537 -0.9109
   47MOL0     O 6211   7.589   6.642   3.174  0.0647  0.8851 -0.3257
   47MOL0     C 6212   7.562   6.532   3.133 -0.8075 -0.1990 -1.0224
   47MOL0     O 6213   7.565   6.413   3.204 -0.2881 -0.7689  0.8056
   47MOL0     C 6214   7.567   6.428   3.340 -1.3891 -0.4952 -0.7847
   47MOL0     C 6215   7.657   6.356   3.410  0.1240  0.5559 -0.0724
   47MOL0     C 6216   7.643   6.345   3.547 -1.2827 -0.6860  0.9250
   47MOL0     C 6217   7.556   6.430   3.618 -0.7503  0.9254  0.1580
   47MOL0     O 6218   7.545   6.437   3.754  0.0004 -0.6626 -0.3692
   47MOL0     C 6219   7.632   6.540   3.808  0.4497  0.4012 -0.3670
   47MOL0     C 6220   7.545   6.613   3.921 -0.2811 -0.4510  0.7010
   47MOL0     C 6221   7.613   6.748   3.967 -0.5865  0.4405 -0.2581
   47MOL0     C 6222   7.543   6.804   4.099 -0.7472 -0.1650 -0.0898
   47MOL0     C 6223   7.634   6.885   4.190  0.0704  0.0605 -0.6855
   47MOL0     C 6224   7.718   6.815   4.292 -0.1330 -0.1153  0.5954
   47MOL0     C 6225   7.791   6.911   4.392 -0.4919  0.0044 -0.7050
   47MOL0     C 6226   7.855   7.036   4.337  0.2784  0.5166 -0.1041
   47MOL0     N 6227   7.950   7.010   4.227  0.6839 -0.0203 -0.0033
   47MOL0     C 6228   8.075   6.957   4.252  0.7935 -0.2794  0.3147
   47MOL0     C 6229   8.135   6.967   4.129  0.0370  0.6823  0.5364
   47MOL0     C 6230   8.268   6.925   4.074 -0.0129 -0.2410 -0.5960
   47MOL0     C 6231   8.373   7.037   4.070  0.2225 -0.4570  0.0281
   47MOL0     C 6232   8.505   6.981   4.015  0.8465  0.4026 -0.1091
   47MOL0     C 6233   8.603   7.095   4.010  0.9327  0.0536  0.6773
   47MOL0     O 6234   8.550   7.231   3.974 -1.3999 -0.4491  0.2111
   47MOL0     C 6235   8.617   7.303   3.878  0.4189  0.4269  0.0895
   47MOL0     C 6236   8.539   7.420   3.845  0.3788 -0.1842  0.5875
   47MOL0     C 6237   8.569   7.500   3.725 -0.4925  0.5983  0.0059
   47MOL0     C 6238   8.492   7.627   3.697  0.5385  0.0946 -0.0736
   47MOL0     C 6239   8.689   7.468   3.646 -0.3752 -0.1005  1.0414
   47MOL0     C 6240   8.709   7.534   3.515 -0.9898  0.4310 -0.6233
   47MOL0     O 6241   8.615   7.522   3.423 -0.6081 -0.1733 -0.8783
   47MOL0     C 6242   8.631   7.600   3.306  0.0280  0.0847  0.9258
   47MOL0     C 6243   8.645   7.740   3.319 -0.2651 -0.9403  0.2198
   47MOL0     C 6244   8.692   7.815   3.210  1.5456 -0.1572 -0.3599
   47MOL0     C 6245   8.723   7.753   3.088 -1.0365  0.2454 -0.1795
   47MOL0     O 6246   8.740   7.843   2.987  0.1709 -0.5546 -0.6500
   47MOL0     C 6247   8.794   7.800   2.854  0.8811  0.4874  0.1194
   47MOL0     C 6248   8.697   7.721   2.755  0.5319 -0.1893  0.4116
   47MOL0     C 6249   8.588   7.819   2.692  0.6623 -0.2958 -0.4235
   47MOL0     C 6250   8.502   7.748   2.584 -0.0576 -0.8442 -0.1821
   47MOL0     C 6251   8.399   7.850   2.527  0.0452  0.0721 -0.4238
   47MOL0     C 6252   8.466   7.954   2.432  0.2184  0.3728 -0.2419
   47MOL0     C 6253   8.358   8.043   2.375  0.1992 -0.4465 -0.0126
   47MOL0     C 6254   8.400   8.192   2.401  0.3468  0.3463 -0.3056
   47MOL0    Cl 6255   8.553   8.262   2.339 -0.5066  0.0155  0.0954
   47MOL0     C 6256   8.715   7.620   3.076 -0.5915 -0.0524 -0.6415
   47MOL0     C 6257   8.665   7.541   3.181  0.2673 -0.6287 -0.5831
   47MOL0     O 6258   8.817   7.592   3.503  0.5121 -0.3260  0.2863
   47MOL0     C 6259   8.772   7.363   3.691 -0.1452  0.7460 -0.2198
   47MOL0     C 6260   8.730   7.268   3.793 -0.8165  0.0538 -0.0105
   47MOL0     N 6261   8.051   7.031   4.041  0.3055 -1.4851 -0.1908
   47MOL0     N 6262   7.943   7.062   4.097  0.8369  0.1730  0.2325
   47MOL0     C 6263   7.457   6.499   3.542 -0.0159  0.1776 -1.2813
   47MOL0     C 6264   7.464   6.495   3.399  0.3863  0.1326 -0.5712
   47MOL0     C 6265   7.495   6.520   3.003 -0.6130 -0.2289 -0.1508
   47MOL0     C 6266   7.471   6.630   2.918 -0.1293  0.1892 -0.3247
   47MOL0     C 6267   7.420   6.612   2.794 -0.1867 -0.1135 -1.2047
   47MOL0     C 6268   7.388   6.485   2.743 -0.3965  0.3808  0.5971
   47MOL0     O 6269   7.352   6.458   2.612  0.0315  0.0743 -0.1529
   47MOL0     C 6270   7.345   6.561   2.509 -0.0446 -0.4221 -0.7600
   47MOL0     C 6271   7.227   6.661   2.529 -0.8013  0.8888  0.2706
   47MOL0     C 6272   7.236   6.756   2.409  0.2957  0.0038  0.4227
   47MOL0     C 6273   7.137   6.864   2.438  0.2490  0.4076  0.2291
   47MOL0     C 6274   7.117   6.949   2.320 -0.2327  0.1291 -0.3951
   47MOL0     C 6275   7.071   7.016   2.234  0.1623 -0.2535 -0.2598
   47MOL0     C 6276   7.402   6.373   2.832 -0.2178 -0.4601  0.3554
   47MOL0     C 6277   7.461   6.396   2.959  0.3006  0.6739 -0.0311
   47MOL0     H 6278   7.725   6.289   3.358  2.5839  0.8193  2.5348
   47MOL0     H 6279   7.704   6.290   3.619 -1.6868 -1.0269  1.0056
   47MOL0     H 6280   7.716   6.490   3.857 -0.0414  1.4013  1.6246
   47MOL0     H 6281   7.666   6.614   3.736  0.6828 -0.0675 -0.7426
   47MOL0     H 6282   7.440   6.624   3.894 -0.5830 -2.3716  0.9359
   47MOL0     H 6283   7.536   6.549   4.010 -3.7301 -3.4893 -1.5593
   47MOL0     H 6284   7.714   6.721   3.998 -1.0227  1.2717  2.1505
   47MOL0     H 6285   7.628   6.823   3.889  1.2485  0.6250  0.2138
   47MOL0     H 6286   7.467   6.872   4.059  1.0353  1.2859 -1.2040
   47MOL0     H 6287   7.497   6.723   4.157  2.0534 -0.6060  1.6933
   47MOL0     H 6288   7.696   6.955   4.132 -0.9579  1.6561  0.0618
   47MOL0     H 6289   7.576   6.954   4.252  0.5119 -1.1297  1.1345
   47MOL0     H 6290   7.676   6.732   4.350  2.0295 -1.0111  0.9937
   47MOL0     H 6291   7.786   6.768   4.220 -1.7786 -3.9468  1.2811
   47MOL0     H 6292   7.730   6.938   4.479 -0.7339  3.2063 -1.7488
   47MOL0     H 6293   7.867   6.846   4.437 -2.8564 -1.0538  2.1229
   47MOL0     H 6294   7.919   7.070   4.419  0.0566  0.1805  0.2157
   47MOL0     H 6295   7.773   7.103   4.311  0.9904  1.8214  0.8873
   47MOL0     H 6296   8.117   6.898   4.332  0.5376  1.2941  1.6666
   47MOL0     H 6297   8.304   6.842   4.135  1.0568  1.8986  1.8726
   47MOL0     H 6298   8.252   6.902   3.968  4.4777 -0.4952 -1.4365
   47MOL0     H 6299   8.392   7.073   4.171 -0.1600 -0.3908  0.0745
   47MOL0     H 6300   8.351   7.106   3.988  3.0655 -0.1171 -0.5857
   47MOL0     H 6301   8.489   6.951   3.911  3.0383  1.1150 -0.6964
   47MOL0     H 6302   8.545   6.902   4.080 -0.6605  1.2552  1.9643
   47MOL0     H 6303   8.689   7.066   3.948  1.1611  3.5667 -0.9350
   47MOL0     H 6304   8.640   7.103   4.112 -0.5803 -3.4103  1.6109
   47MOL0     H 6305   8.452   7.448   3.904 -1.0669  2.1624 -2.4023
   47MOL0     H 6306   8.443   7.663   3.788  0.6108 -0.9200  0.3772
   47MOL0     H 6307   8.559   7.705   3.661 -1.9763  3.2705  1.6182
   47MOL0     H 6308   8.427   7.601   3.612  1.4560 -0.4015 -0.6336
   47MOL0     H 6309   8.620   7.792   3.411 -1.5157  0.7142 -0.9876
   47MOL0     H 6310   8.711   7.920   3.224 -2.6105  0.6020  1.3100
   47MOL0     H 6311   8.837   7.887   2.803  0.1523 -0.4779 -2.2869
   47MOL0     H 6312   8.885   7.743   2.875  1.4956  0.8199 -1.4570
   47MOL0     H 6313   8.753   7.676   2.673 -0.1570  1.0695 -0.7896
   47MOL0     H 6314   8.647   7.644   2.814  0.2094  0.8890  1.5949
   47MOL0     H 6315   8.635   7.911   2.657 -1.8439  1.1676 -0.1330
   47MOL0     H 6316   8.517   7.849   2.769  0.9916  0.8374 -0.5419
   47MOL0     H 6317   8.561   7.694   2.509 -0.1568 -1.2087 -0.0006
   47MOL0     H 6318   8.448   7.674   2.644  1.5619 -1.0112  1.1825
   47MOL0     H 6319   8.346   7.910   2.602 -0.4541 -0.8482 -0.0298
   47MOL0     H 6320   8.322   7.808   2.462  0.5778  0.8524 -1.5967
   47MOL0     H 6321   8.544   8.012   2.481  0.7852 -0.9541  0.4603
   47MOL0     H 6322   8.516   7.911   2.345  1.7297 -2.0021  1.6734
   47MOL0     H 6323   8.255   8.034   2.411  0.4165 -2.6991  0.1666
   47MOL0     H 6324   8.347   8.025   2.267 -0.7533  2.2869 -0.4353
   47MOL0     H 6325   8.393   8.198   2.510 -1.8245 -0.3193 -0.3592
   47MOL0     H 6326   8.319   8.255   2.362 -0.8585 -1.1520 -0.3064
   47MOL0     H 6327   8.749   7.575   2.984  0.9865 -1.4794  0.5630
   47MOL0     H 6328   8.667   7.433   3.180  1.4093 -0.6151 -0.3763
   47MOL0     H 6329   8.856   7.328   3.632  0.6276  0.8448  0.8022
   47MOL0     H 6330   8.783   7.174   3.800  2.3512  1.5761 -1.0110
   47MOL0     H 6331   7.376   6.548   3.595 -1.0161 -0.7906 -1.8748
   47MOL0     H 6332   7.397   6.553   3.337  1.7392 -0.3061 -2.5264
   47MOL0     H 6333   7.488   6.735   2.938 -2.8524  0.7004 -0.3259
   47MOL0     H 6334   7.405   6.698   2.729 -1.6626 -2.0352 -3.6398
   47MOL0     H 6335   7.441   6.614   2.516 -1.2100  1.7907 -0.6616
   47MOL0     H 6336   7.350   6.513   2.411 -2.1474 -0.7564 -0.7589
   47MOL0     H 6337   7.237   6.720   2.620  1.8896  1.3444 -0.2373
   47MOL0     H 6338   7.134   6.605   2.540 -1.4973  1.3264 -2.4553
   47MOL0     H 6339   7.199   6.696   2.325  0.9699 -0.1581  0.2339
   47MOL0     H 6340   7.331   6.804   2.383  0.3457 -0.9850 -1.3791
   47MOL0     H 6341   7.176   6.935   2.511 -0.9739  0.2968  1.0389
   47MOL0     H 6342   7.045   6.820   2.479 -0.7816 -0.6457 -2.9313
   47MOL0     H 6343   7.023   7.060   2.149 -2.0178  0.2206  1.1388
   47MOL0     H 6344   7.379   6.269   2.812  1.1095 -1.1712  2.2135
   47MOL0     H 6345   7.486   6.306   3.014  2.0214 -0.3851 -2.3876
   48MOL0     O 6346   8.552   7.681   7.993 -0.3147 -0.2858 -0.1570
   48MOL0     C 6347   8.543   7.798   8.015  0.4910 -0.2085  0.1103
   48MOL0     O 6348   8.531   7.892   7.917  0.3483 -0.1674 -0.0434
   48MOL0     C 6349   8.519   7.860   7.780 -0.2942 -0.5249 -1.5154
   48MOL0     C 6350   8.547   7.959   7.686 -0.3752 -0.0565  0.2177
   48MOL0     C 6351   8.565   7.927   7.545 -0.3607 -0.2401  1.8026
   48MOL0     C 6352   8.532   7.793   7.501  0.2434 -0.8385  0.2258
   48MOL0     O 6353   8.522   7.746   7.370  1.0966 -0.6319  0.4139
   48MOL0     C 6354   8.463   7.838   7.280 -0.0084  0.1248 -0.6610
   48MOL0     C 6355   8.457   7.781   7.138  0.0465 -0.3593 -0.6100
   48MOL0     C 6356   8.588   7.722   7.083 -0.1772 -0.5669  1.2080
   48MOL0     C 6357   8.708   7.823   7.111  0.1205  0.2771  0.2292
   48MOL0     C 6358   8.677   7.967   7.043 -0.5418  1.6389 -1.3880
   48MOL0     C 6359   8.700   7.964   6.890  0.0315 -0.3419 -0.3032
   48MOL0     C 6360   8.846   7.930   6.850  0.1079  0.8145  0.7157
   48MOL0     C 6361   8.866   7.890   6.706  0.8299  0.0407  0.9153
   48MOL0     N 6362   8.996   7.835   6.682 -0.5613 -0.2274 -0.2597
   48MOL0     C 6363   9.036   7.702   6.687  1.0874 -0.8582  0.0029
   48MOL0     C 6364   9.131   7.687   6.596 -0.3668  0.2438 -0.0309
   48MOL0     C 6365   9.187   7.557   6.541  0.5500 -0.8042  0.4619
   48MOL0     C 6366   9.199   7.567   6.390 -1.1395 -0.2739  0.1745
   48MOL0     C 6367   9.234   7.434   6.321 -0.3331 -0.4829  0.4036
   48MOL0     C 6368   9.129   7.322   6.327 -0.9659  0.5055  1.4016
   48MOL0     O 6369   9.152   7.233   6.212  0.0477 -0.4356  0.2070
   48MOL0     C 6370   9.048   7.136   6.191 -0.0782 -0.0716  0.1294
   48MOL0     C 6371   8.934   7.112   6.274 -0.5498 -0.6006 -0.4144
   48MOL0     C 6372   8.835   7.017   6.255  0.1959  0.4991  0.7351
   48MOL0     C 6373   8.716   7.029   6.346 -0.9581 -0.4003  0.3937
   48MOL0     C 6374   8.848   6.920   6.151 -0.4920 -0.8465 -0.5763
   48MOL0     C 6375   8.753   6.814   6.119 -1.3002  0.0453 -0.7498
   48MOL0     O 6376   8.752   6.759   5.996  0.4070  0.2597  0.4302
   48MOL0     C 6377   8.742   6.628   5.965 -0.0661  0.5753  0.0735
   48MOL0     C 6378   8.743   6.533   6.060  0.4049  0.8425 -0.6582
   48MOL0     C 6379   8.751   6.395   6.029  0.9660 -0.5086  0.1615
   48MOL0     C 6380   8.758   6.353   5.894  0.6184 -0.2700  0.7976
   48MOL0     O 6381   8.755   6.219   5.854  0.2352 -0.5425  0.2748
   48MOL0     C 6382   8.820   6.125   5.940 -0.2988  0.7161 -0.2287
   48MOL0     C 6383   8.717   6.055   6.027  0.2033 -1.1829  0.4054
   48MOL0     C 6384   8.779   5.987   6.150  0.5412  0.1613 -0.9233
   48MOL0     C 6385   8.666   5.918   6.226  0.3839 -0.5176  0.2424
   48MOL0     C 6386   8.707   5.847   6.351 -0.0086 -0.4809 -1.0895
   48MOL0     C 6387   8.765   5.703   6.335  0.0960  1.0081  0.3526
   48MOL0     C 6388   8.852   5.634   6.448 -0.3691 -0.7585 -0.1821
   48MOL0     C 6389   8.971   5.706   6.481 -0.8531 -0.8217  0.6674
   48MOL0    Cl 6390   9.093   5.697   6.337  0.1324 -0.0611 -0.4949
   48MOL0     C 6391   8.760   6.459   5.799 -0.2892 -0.2804 -1.0647
   48MOL0     C 6392   8.749   6.592   5.835  0.1290 -0.2530 -0.8498
   48MOL0     O 6393   8.684   6.777   6.209  0.2558  0.1290  0.3414
   48MOL0     C 6394   8.959   6.944   6.062  0.2715 -0.0527 -0.4901
   48MOL0     C 6395   9.058   7.044   6.087  0.2278  0.0067 -0.1120
   48MOL0     N 6396   9.155   7.806   6.538  0.6749  0.0106  0.1864
   48MOL0     N 6397   9.062   7.888   6.582  0.4227 -0.3983 -0.3238
   48MOL0     C 6398   8.487   7.712   7.592 -0.1951  0.9760 -0.5195
   48MOL0     C 6399   8.487   7.743   7.732  0.6049  0.0501  1.0309
   48MOL0     C 6400   8.532   7.848   8.152 -1.1592  0.8962 -0.1814
   48MOL0     C 6401   8.507   7.974   8.187  0.1090 -0.4853 -0.2114
   48MOL0     C 6402   8.511   8.023   8.324  0.6182 -0.0634 -0.7287
   48MOL0     C 6403   8.509   7.922   8.433 -0.8329 -0.8594  0.7066
   48MOL0     O 6404   8.498   7.947   8.570  0.2763 -0.2220  0.1507
   48MOL0     C 6405   8.500   8.088   8.620 -1.9848 -0.7794 -0.2382
   48MOL0     C 6406   8.378   8.163   8.578  0.0704  0.9908  0.6652
   48MOL0     C 6407   8.289   8.193   8.698 -0.0304 -0.4914 -0.1924
   48MOL0     C 6408   8.146   8.231   8.654  0.5375  0.3931  0.1409
   48MOL0     C 6409   8.070   8.250   8.777  0.4714 -0.1023 -0.2383
   48MOL0     C 6410   8.009   8.275   8.883 -0.0709 -0.5681  0.2967
   48MOL0     C 6411   8.534   7.791   8.388 -0.0866  0.9963  0.6306
   48MOL0     C 6412   8.545   7.752   8.253  0.6055  0.6277 -0.3697
   48MOL0     H 6413   8.557   8.058   7.729  2.6966 -0.5531  0.8849
   48MOL0     H 6414   8.612   8.010   7.494 -0.1346 -0.5130  1.5687
   48MOL0     H 6415   8.366   7.873   7.317 -0.2082  0.8884 -1.8295
   48MOL0     H 6416   8.529   7.925   7.271 -0.6448  0.5319 -1.5686
   48MOL0     H 6417   8.378   7.705   7.136  0.4600 -0.8706  1.1391
   48MOL0     H 6418   8.425   7.859   7.069 -1.4759  1.6111  2.1414
   48MOL0     H 6419   8.595   7.627   7.138 -0.9444 -0.1138  2.1085
   48MOL0     H 6420   8.589   7.693   6.977 -0.2982 -1.9079  1.5581
   48MOL0     H 6421   8.727   7.836   7.218  0.6223 -0.4826  0.2393
   48MOL0     H 6422   8.797   7.771   7.075 -1.0195 -0.3339 -1.8859
   48MOL0     H 6423   8.577   8.007   7.064 -1.4896 -1.7507  1.5815
   48MOL0     H 6424   8.743   8.041   7.090  1.4550 -1.9390  2.0031
   48MOL0     H 6425   8.633   7.890   6.846 -2.2214  2.5321 -2.0495
   48MOL0     H 6426   8.660   8.060   6.857 -1.7262 -1.2211 -0.8409
   48MOL0     H 6427   8.900   8.020   6.881 -2.9064  2.4657  1.6169
   48MOL0     H 6428   8.882   7.853   6.918  1.7736  0.6663 -0.2834
   48MOL0     H 6429   8.847   7.985   6.655 -2.2113 -1.2026 -0.5634
   48MOL0     H 6430   8.801   7.806   6.678  0.1824  0.1932  1.9226
   48MOL0     H 6431   8.984   7.619   6.735  0.5284 -0.1673  0.6062
   48MOL0     H 6432   9.277   7.526   6.596  0.3668 -4.4859 -1.0494
   48MOL0     H 6433   9.129   7.470   6.571  1.6470 -1.2356  1.4064
   48MOL0     H 6434   9.280   7.629   6.350  2.2362 -4.3698 -0.0817
   48MOL0     H 6435   9.114   7.616   6.341  1.9439  3.6139 -1.8637
   48MOL0     H 6436   9.333   7.411   6.361  0.3354  2.0622  0.3539
   48MOL0     H 6437   9.238   7.441   6.212 -2.7343 -0.4893  0.2618
   48MOL0     H 6438   9.030   7.367   6.313 -0.1997  1.7753 -0.5286
   48MOL0     H 6439   9.130   7.266   6.420  4.2726 -0.5603  0.9894
   48MOL0     H 6440   8.932   7.178   6.360  1.5604 -0.3867 -0.4864
   48MOL0     H 6441   8.710   6.936   6.403  0.6524 -0.7396  0.0642
   48MOL0     H 6442   8.718   7.116   6.412 -3.4841  1.2296 -1.5009
   48MOL0     H 6443   8.628   7.029   6.282 -0.5947  1.6292 -0.1804
   48MOL0     H 6444   8.746   6.553   6.167 -0.3992 -3.4996  0.3504
   48MOL0     H 6445   8.754   6.321   6.108  0.7019  0.4007  1.0441
   48MOL0     H 6446   8.877   6.058   5.875 -1.8846  0.0487 -0.9632
   48MOL0     H 6447   8.899   6.174   5.999 -0.1037  0.3038 -0.1390
   48MOL0     H 6448   8.649   6.137   6.050  2.1537  0.8647 -0.7934
   48MOL0     H 6449   8.674   5.981   5.960  0.1370 -0.5665 -0.2417
   48MOL0     H 6450   8.825   6.059   6.217 -1.5425 -0.3323  1.1735
   48MOL0     H 6451   8.857   5.913   6.130  0.9803 -0.7651  3.3478
   48MOL0     H 6452   8.609   6.007   6.255  2.3408  1.1603 -0.7791
   48MOL0     H 6453   8.615   5.847   6.160  1.6909 -1.5518  0.3103
   48MOL0     H 6454   8.620   5.847   6.418  2.2447  1.2941  2.1097
   48MOL0     H 6455   8.770   5.918   6.404 -1.7144  0.0243  0.3351
   48MOL0     H 6456   8.682   5.637   6.309 -2.0498  3.1238  1.4143
   48MOL0     H 6457   8.834   5.707   6.250  0.0800  1.8506  0.3648
   48MOL0     H 6458   8.865   5.528   6.424 -0.9607 -1.4703  2.2865
   48MOL0     H 6459   8.801   5.642   6.545 -2.6661  0.5008 -1.4188
   48MOL0     H 6460   9.023   5.676   6.573  3.8488  0.6440 -1.2193
   48MOL0     H 6461   8.953   5.813   6.491  0.9354 -0.1572 -2.0954
   48MOL0     H 6462   8.769   6.429   5.696 -1.7897 -2.0422 -0.7314
   48MOL0     H 6463   8.752   6.674   5.764  1.7586  1.3271  0.8986
   48MOL0     H 6464   8.966   6.866   5.987 -2.8718  0.7174 -1.7150
   48MOL0     H 6465   9.146   7.062   6.026  1.7584 -1.3095  1.6027
   48MOL0     H 6466   8.464   7.608   7.569 -0.5710  0.8548  0.3563
   48MOL0     H 6467   8.433   7.674   7.795  0.5029 -0.1240  0.7556
   48MOL0     H 6468   8.493   8.054   8.114 -0.7141 -1.7324 -1.4790
   48MOL0     H 6469   8.513   8.126   8.358 -0.8485  0.5451 -2.3499
   48MOL0     H 6470   8.523   8.095   8.727  0.6911  1.1273 -0.8435
   48MOL0     H 6471   8.591   8.131   8.578 -0.9791 -2.3529  0.2655
   48MOL0     H 6472   8.333   8.100   8.501  2.5321 -1.2491  0.9114
   48MOL0     H 6473   8.408   8.254   8.526  1.1006 -1.0553 -2.5879
   48MOL0     H 6474   8.328   8.288   8.734 -0.0078 -0.7682  0.5433
   48MOL0     H 6475   8.293   8.130   8.787 -0.0487  0.3991  0.4507
   48MOL0     H 6476   8.107   8.141   8.605  0.8880  0.8982 -1.0979
   48MOL0     H 6477   8.148   8.317   8.587 -0.7435 -1.4168 -2.3765
   48MOL0     H 6478   7.957   8.297   8.974 -2.0238  3.0200 -1.4683
   48MOL0     H 6479   8.536   7.717   8.468  1.4479  1.6698  1.2444
   48MOL0     H 6480   8.556   7.647   8.229  1.9032  1.4489 -3.9499
   49MOL0     O 6481   6.184   2.816   1.744 -0.6576  0.3683 -0.0325
   49MOL0     C 6482   6.189   2.843   1.623  0.1342  0.5115 -0.3232
   49MOL0     O 6483   6.279   2.796   1.538 -0.1465  0.7911  1.1700
   49MOL0     C 6484   6.356   2.689   1.583  0.2189 -0.2624 -0.2308
   49MOL0     C 6485   6.472   2.713   1.642 -0.2218 -0.2878 -0.6072
   49MOL0     C 6486   6.555   2.622   1.718 -0.4764 -0.9473  1.7377
   49MOL0     C 6487   6.505   2.489   1.718 -0.8864  0.1217  0.2261
   49MOL0     O 6488   6.563   2.391   1.790 -0.2025  1.0485 -0.4623
   49MOL0     C 6489   6.567   2.414   1.931 -0.3060  0.3184  0.0248
   49MOL0     C 6490   6.657   2.302   1.987  0.4377 -0.1677  0.6894
   49MOL0     C 6491   6.621   2.154   1.945 -0.0814 -0.0438 -0.6416
   49MOL0     C 6492   6.733   2.062   1.987 -0.1451 -0.2100 -0.5361
   49MOL0     C 6493   6.680   1.922   1.951  0.6762 -0.2950 -0.1519
   49MOL0     C 6494   6.784   1.816   1.991 -0.2785  0.0647  0.7898
   49MOL0     C 6495   6.805   1.798   2.142  0.3683  0.4364  0.5493
   49MOL0     C 6496   6.878   1.675   2.174  0.2474  1.0618  0.3675
   49MOL0     N 6497   6.923   1.682   2.317  0.1479 -0.3809  0.4885
   49MOL0     C 6498   6.839   1.715   2.424 -0.4168 -0.3709  0.3357
   49MOL0     C 6499   6.915   1.726   2.533  0.3126  0.2927  0.3310
   49MOL0     C 6500   6.870   1.757   2.666  0.0476 -0.5668 -0.6417
   49MOL0     C 6501   6.939   1.878   2.728  0.6854  0.6569 -0.8558
   49MOL0     C 6502   6.912   1.900   2.875 -0.1527 -0.8727  0.0973
   49MOL0     C 6503   6.770   1.939   2.917 -0.1374 -0.0392  0.6558
   49MOL0     O 6504   6.720   2.050   2.839  0.3375 -0.3088  0.0517
   49MOL0     C 6505   6.578   2.058   2.838 -0.4528  1.5319 -0.9534
   49MOL0     C 6506   6.486   1.965   2.783 -0.4300 -0.7168 -0.1916
   49MOL0     C 6507   6.352   1.979   2.797 -0.0768  0.2257  0.8055
   49MOL0     C 6508   6.258   1.870   2.740  0.1379 -0.2493  0.3695
   49MOL0     C 6509   6.302   2.093   2.868 -0.3197 -0.0135 -0.3546
   49MOL0     C 6510   6.159   2.127   2.871  0.2633  0.5228 -0.5218
   49MOL0     O 6511   6.098   2.119   2.994  1.0563 -0.1725  0.0843
   49MOL0     C 6512   5.969   2.146   2.986  1.3146  0.2414 -0.2633
   49MOL0     C 6513   5.876   2.042   3.000  0.1853 -0.4358 -0.0175
   49MOL0     C 6514   5.739   2.076   2.995  0.7573  0.1476 -0.6201
   49MOL0     C 6515   5.687   2.201   2.972 -0.0688  0.0497  0.3889
   49MOL0     O 6516   5.556   2.224   2.965  0.7066 -0.2766  0.1171
   49MOL0     C 6517   5.496   2.177   2.839 -0.7835 -0.0398  0.1968
   49MOL0     C 6518   5.528   2.288   2.736 -0.8729  0.2166 -0.4151
   49MOL0     C 6519   5.513   2.436   2.782 -0.7648 -0.1989 -0.5200
   49MOL0     C 6520   5.374   2.494   2.740 -0.2299  0.6606  0.2482
   49MOL0     C 6521   5.366   2.647   2.744 -0.3440  0.5712  0.6815
   49MOL0     C 6522   5.237   2.703   2.714  0.7893 -0.7015  1.0486
   49MOL0     C 6523   5.248   2.842   2.659 -1.1288 -0.3572 -0.4144
   49MOL0     C 6524   5.116   2.935   2.674  0.1990 -0.0111 -0.1842
   49MOL0    Cl 6525   4.951   2.858   2.625 -0.4515  0.0675  0.2964
   49MOL0     C 6526   5.781   2.301   2.940 -0.0770 -0.3336 -0.0234
   49MOL0     C 6527   5.920   2.266   2.947 -0.8752  0.0215 -1.2822
   49MOL0     O 6528   6.111   2.153   2.765  0.0302 -0.1030 -0.3810
   49MOL0     C 6529   6.385   2.184   2.921 -0.3037 -0.6731 -0.4434
   49MOL0     C 6530   6.524   2.167   2.906  0.1553 -0.9388 -0.0746
   49MOL0     N 6531   7.043   1.689   2.490 -0.6081  0.9259  0.6078
   49MOL0     N 6532   7.043   1.643   2.370 -0.2327 -1.1661  0.5666
   49MOL0     C 6533   6.381   2.457   1.662 -0.6174  0.7583 -0.7060
   49MOL0     C 6534   6.315   2.560   1.592 -0.1516 -0.2734  1.0331
   49MOL0     C 6535   6.095   2.948   1.584  0.5557 -0.2675  0.3770
   49MOL0     C 6536   6.020   3.018   1.681 -0.8367  0.7377  0.2133
   49MOL0     C 6537   5.920   3.107   1.637 -0.4597 -0.5097  0.0287
   49MOL0     C 6538   5.909   3.141   1.507  0.2753  0.2925  0.4628
   49MOL0     O 6539   5.813   3.234   1.470 -0.4812 -0.2834 -0.3799
   49MOL0     C 6540   5.731   3.311   1.562 -0.1126 -0.0866  0.5905
   49MOL0     C 6541   5.638   3.416   1.488 -0.0036 -0.2285 -0.1178
   49MOL0     C 6542   5.510   3.372   1.417 -0.1833  0.0386  0.0983
   49MOL0     C 6543   5.410   3.304   1.513  0.0354  0.2638  0.1818
   49MOL0     C 6544   5.271   3.308   1.470  0.3592  1.0265  0.3082
   49MOL0     C 6545   5.153   3.293   1.440 -0.6829  0.2700  0.2633
   49MOL0     C 6546   5.981   3.075   1.411  0.0069  0.2493 -0.0391
   49MOL0     C 6547   6.085   2.990   1.447  0.8398 -0.4075 -0.0290
   49MOL0     H 6548   6.502   2.818   1.647 -1.8854  0.2529 -1.4291
   49MOL0     H 6549   6.649   2.656   1.760 -1.0911  1.5233  1.2664
   49MOL0     H 6550   6.609   2.512   1.956  0.7298 -0.6305  2.2105
   49MOL0     H 6551   6.469   2.403   1.977 -0.3136  2.5105  0.6809
   49MOL0     H 6552   6.754   2.322   1.941  0.2678  2.4577  1.2950
   49MOL0     H 6553   6.663   2.310   2.096  1.9296 -0.2338  0.6265
   49MOL0     H 6554   6.536   2.131   2.010  0.6949 -0.2107  0.3452
   49MOL0     H 6555   6.594   2.148   1.840  1.3864  2.7939 -1.2699
   49MOL0     H 6556   6.830   2.098   1.949 -1.8103  1.6020 -3.4158
   49MOL0     H 6557   6.729   2.067   2.096 -3.3066 -1.7998 -0.4737
   49MOL0     H 6558   6.590   1.896   2.007 -0.1344  1.0587 -0.8035
   49MOL0     H 6559   6.662   1.922   1.843  2.1247 -3.9166 -0.5500
   49MOL0     H 6560   6.748   1.725   1.942 -4.0479  1.6559  0.2478
   49MOL0     H 6561   6.880   1.846   1.949 -0.9910 -1.2143 -1.9437
   49MOL0     H 6562   6.850   1.887   2.187 -1.3048  1.7447 -0.2644
   49MOL0     H 6563   6.715   1.784   2.202  2.0865 -1.4147  2.9196
   49MOL0     H 6564   6.955   1.656   2.098 -1.7481  0.4236 -1.5719
   49MOL0     H 6565   6.801   1.599   2.157  0.7562  1.3199 -4.5851
   49MOL0     H 6566   6.731   1.716   2.428 -0.4669 -2.3412  0.2926
   49MOL0     H 6567   6.761   1.766   2.671 -0.0497 -2.1280  2.0106
   49MOL0     H 6568   6.904   1.679   2.735 -1.2345 -0.9248 -0.3911
   49MOL0     H 6569   6.910   1.968   2.671 -4.2439  1.5841  2.5286
   49MOL0     H 6570   7.047   1.878   2.711  0.7752  2.3339 -0.4569
   49MOL0     H 6571   6.969   1.989   2.904  0.5551 -1.7667  1.5980
   49MOL0     H 6572   6.955   1.822   2.939 -0.8931 -2.0425 -0.7748
   49MOL0     H 6573   6.776   1.988   3.015  0.8612  2.6085 -0.6499
   49MOL0     H 6574   6.695   1.860   2.932 -0.0895 -0.2689 -0.2554
   49MOL0     H 6575   6.531   1.894   2.714  2.5256  0.2037  0.6247
   49MOL0     H 6576   6.163   1.893   2.788 -0.1125  2.2732 -1.1385
   49MOL0     H 6577   6.246   1.895   2.634  0.9738  2.8672  0.9082
   49MOL0     H 6578   6.302   1.770   2.753 -0.4571 -0.3522  1.7122
   49MOL0     H 6579   5.925   1.946   3.010  1.9250  0.5013  0.9830
   49MOL0     H 6580   5.678   1.987   3.008  2.2499 -0.3848  5.0800
   49MOL0     H 6581   5.528   2.078   2.805  0.2119  0.9763 -2.0107
   49MOL0     H 6582   5.388   2.195   2.844 -0.8124 -0.4550  1.3358
   49MOL0     H 6583   5.633   2.274   2.707 -0.0681  0.0237  2.2925
   49MOL0     H 6584   5.464   2.252   2.655  0.7264 -1.8209 -0.8615
   49MOL0     H 6585   5.595   2.497   2.743 -0.1681 -0.8006 -0.2268
   49MOL0     H 6586   5.520   2.448   2.890  1.1844  3.1343 -0.8918
   49MOL0     H 6587   5.339   2.471   2.639 -1.4269 -1.3905  1.0539
   49MOL0     H 6588   5.307   2.467   2.822 -0.9958  0.5855 -0.3882
   49MOL0     H 6589   5.439   2.697   2.679  0.6177 -2.0622 -0.4104
   49MOL0     H 6590   5.393   2.670   2.847 -0.3877 -1.1694  1.1088
   49MOL0     H 6591   5.159   2.654   2.655  1.1106  0.0886 -0.0632
   49MOL0     H 6592   5.188   2.709   2.812  1.4281 -0.0701  1.3366
   49MOL0     H 6593   5.287   2.834   2.557  0.3334 -1.1151  0.1671
   49MOL0     H 6594   5.333   2.889   2.708 -0.1921 -4.3591  2.2123
   49MOL0     H 6595   5.129   3.019   2.606 -3.7430  1.7534  0.9305
   49MOL0     H 6596   5.123   2.985   2.771  0.7526  0.5522 -0.5109
   49MOL0     H 6597   5.750   2.404   2.921  1.6512 -0.0599 -1.6668
   49MOL0     H 6598   5.992   2.344   2.928 -0.7977  0.1982 -0.2728
   49MOL0     H 6599   6.343   2.278   2.956 -0.0414 -1.0139  0.8440
   49MOL0     H 6600   6.579   2.246   2.958 -2.6650  1.3033 -0.2276
   49MOL0     H 6601   6.330   2.362   1.669  0.1679  0.3365 -0.6794
   49MOL0     H 6602   6.215   2.534   1.557 -0.4166 -1.8153  2.7828
   49MOL0     H 6603   6.036   2.992   1.785  0.0664 -3.8663 -0.8976
   49MOL0     H 6604   5.862   3.142   1.722 -1.3220 -0.2024 -0.6726
   49MOL0     H 6605   5.665   3.248   1.623 -2.5827  2.0955  0.3253
   49MOL0     H 6606   5.791   3.371   1.632 -0.9339  1.9442 -0.3803
   49MOL0     H 6607   5.692   3.462   1.404  2.9745 -3.2435 -0.0628
   49MOL0     H 6608   5.610   3.505   1.545 -2.7426  1.0533 -3.1679
   49MOL0     H 6609   5.534   3.296   1.342 -1.1625  1.7630 -2.0864
   49MOL0     H 6610   5.469   3.463   1.373  1.4450  1.1046  0.6824
   49MOL0     H 6611   5.409   3.360   1.606  0.5132  3.1765 -1.4391
   49MOL0     H 6612   5.434   3.199   1.533 -3.0968 -0.9055 -1.5181
   49MOL0     H 6613   5.047   3.296   1.431 -0.7754 -1.5863  0.3707
   49MOL0     H 6614   5.963   3.088   1.304 -0.1872  2.0887  0.1842
   49MOL0     H 6615   6.135   2.941   1.363 -0.5830 -0.9777 -0.5747
   50MOL0     O 6616   0.851   7.483   6.167 -0.2695 -0.4657  0.9467
   50MOL0     C 6617   0.820   7.603   6.197 -1.6389  0.0214 -0.3274
   50MOL0     O 6618   0.759   7.691   6.119 -0.5344  0.2933  0.2560
   50MOL0     C 6619   0.730   7.660   5.986 -0.4111  1.0455 -0.8755
   50MOL0     C 6620   0.811   7.706   5.881 -0.4288 -0.5988 -0.7881
   50MOL0     C 6621   0.761   7.683   5.749  0.3023 -0.0088 -0.5870
   50MOL0     C 6622   0.643   7.620   5.718  0.7452 -0.2756 -0.5649
   50MOL0     O 6623   0.599   7.606   5.594 -0.5932 -0.6569 -0.6129
   50MOL0     C 6624   0.474   7.670   5.569 -0.5768 -0.2861  0.1424
   50MOL0     C 6625   0.489   7.806   5.494 -0.1587  0.5138 -0.9475
   50MOL0     C 6626   0.353   7.876   5.471  0.0548  0.1077 -1.0594
   50MOL0     C 6627   0.365   8.001   5.390  1.0122  0.2914 -0.2251
   50MOL0     C 6628   0.228   8.084   5.373 -0.3139  0.8392 -0.9322
   50MOL0     C 6629   0.261   8.226   5.335 -0.1192  0.0759 -0.3007
   50MOL0     C 6630   0.330   8.240   5.195 -0.4093  0.7080 -0.2193
   50MOL0     C 6631   0.310   8.383   5.134  0.2926  0.5667 -0.8931
   50MOL0     N 6632   0.372   8.408   4.999  0.2476 -0.8081  0.2077
   50MOL0     C 6633   0.388   8.535   4.958 -0.4967 -0.0848 -0.3401
   50MOL0     C 6634   0.445   8.523   4.838  0.7703  0.3319  0.0966
   50MOL0     C 6635   0.483   8.642   4.753  0.0046  0.5980  0.0714
   50MOL0     C 6636   0.619   8.690   4.790  0.8015 -0.0230  0.3361
   50MOL0     C 6637   0.725   8.585   4.756 -0.9359 -0.6098 -0.2347
   50MOL0     C 6638   0.861   8.656   4.739 -0.5878 -0.0074 -0.3437
   50MOL0     O 6639   0.904   8.707   4.861 -0.0018  0.4173  0.1465
   50MOL0     C 6640   1.040   8.738   4.861  0.1125 -0.2719 -0.1852
   50MOL0     C 6641   1.104   8.745   4.987 -0.8826 -0.0478 -0.1794
   50MOL0     C 6642   1.241   8.791   5.003 -0.5330  0.6594  0.5858
   50MOL0     C 6643   1.306   8.794   5.133 -0.0194  0.0692 -0.5041
   50MOL0     C 6644   1.321   8.821   4.883  0.0767 -1.1239  0.0737
   50MOL0     C 6645   1.460   8.861   4.876 -0.7311  0.6463  0.1518
   50MOL0     O 6646   1.516   8.889   4.751 -0.0905  0.2304  1.0887
   50MOL0     C 6647   1.642   8.948   4.737 -0.4654  0.2260  0.6813
   50MOL0     C 6648   1.702   9.033   4.838  0.1596  0.8379  1.2533
   50MOL0     C 6649   1.824   9.093   4.804 -0.0859 -0.2791 -0.2688
   50MOL0     C 6650   1.880   9.071   4.679 -0.3069  0.0575  0.6347
   50MOL0     O 6651   2.006   9.129   4.645  0.2936 -0.0874  0.0564
   50MOL0     C 6652   2.008   9.274   4.672 -0.2924 -0.4751  0.1951
   50MOL0     C 6653   2.148   9.318   4.651 -0.2875 -0.4580 -0.2674
   50MOL0     C 6654   2.188   9.321   4.512  0.3864 -0.0329  0.6614
   50MOL0     C 6655   2.340   9.347   4.482  0.1117 -0.4981 -0.0714
   50MOL0     C 6656   2.376   9.330   4.342  0.2464 -0.4051  0.5838
   50MOL0     C 6657   2.526   9.342   4.302  0.1457  0.6319  0.5632
   50MOL0     C 6658   2.626   9.284   4.400 -0.3030  0.1157 -0.5308
   50MOL0     C 6659   2.757   9.256   4.333 -0.3608 -1.1171  0.2318
   50MOL0    Cl 6660   2.834   9.409   4.287  0.2583  0.6389 -0.7110
   50MOL0     C 6661   1.825   8.987   4.584 -0.1563 -0.2052 -0.4002
   50MOL0     C 6662   1.707   8.917   4.617  0.5248 -0.3026  0.2178
   50MOL0     O 6663   1.524   8.850   4.981  0.1998 -0.2079 -0.4475
   50MOL0     C 6664   1.257   8.814   4.758  0.3873  0.5633 -0.1704
   50MOL0     C 6665   1.121   8.770   4.746  0.1663 -0.4794 -1.1367
   50MOL0     N 6666   0.453   8.386   4.810  0.3211 -0.2587  0.5507
   50MOL0     N 6667   0.398   8.333   4.897  0.5377 -0.4192 -0.7814
   50MOL0     C 6668   0.570   7.576   5.820  1.0609  0.3238 -0.4931
   50MOL0     C 6669   0.617   7.590   5.957  0.2055 -1.5326 -0.0707
   50MOL0     C 6670   0.868   7.654   6.336  0.4325  0.4011  0.6100
   50MOL0     C 6671   0.827   7.781   6.386  0.6318 -0.0497 -0.2259
   50MOL0     C 6672   0.870   7.821   6.515  0.2348 -1.0081  0.1467
   50MOL0     C 6673   0.951   7.744   6.598 -0.0357 -0.0759 -0.9184
   50MOL0     O 6674   0.996   7.783   6.721  0.1785 -0.6942 -0.4318
   50MOL0     C 6675   1.094   7.886   6.721  0.5364  0.0415 -0.2780
   50MOL0     C 6676   1.233   7.833   6.670 -0.5441  0.4747  0.5255
   50MOL0     C 6677   1.338   7.835   6.776  0.7837  0.0204  0.1990
   50MOL0     C 6678   1.490   7.861   6.749  0.0422  0.3668  0.6915
   50MOL0     C 6679   1.573   7.831   6.866 -1.0385  0.3035 -0.1879
   50MOL0     C 6680   1.650   7.797   6.960  0.3251  0.3631 -0.1316
   50MOL0     C 6681   0.982   7.612   6.554  0.9902 -0.4202 -0.5382
   50MOL0     C 6682   0.938   7.565   6.424  0.4522 -0.4205 -0.6428
   50MOL0     H 6683   0.912   7.745   5.893  0.5041 -3.3147  1.0514
   50MOL0     H 6684   0.827   7.707   5.666 -1.7529 -1.7460 -2.8467
   50MOL0     H 6685   0.416   7.606   5.501  1.0057 -0.3431 -1.2095
   50MOL0     H 6686   0.408   7.676   5.656 -0.1134 -2.7675  0.7406
   50MOL0     H 6687   0.558   7.876   5.541 -1.2428 -0.0262  1.6497
   50MOL0     H 6688   0.530   7.786   5.395  3.2500 -0.2471  0.4769
   50MOL0     H 6689   0.288   7.805   5.419  1.8530 -3.1105  0.7412
   50MOL0     H 6690   0.316   7.903   5.570  1.5920 -1.0319 -0.1261
   50MOL0     H 6691   0.426   8.065   5.455 -2.4074 -0.9731  4.8681
   50MOL0     H 6692   0.408   7.973   5.293 -0.5080 -1.2906 -0.4951
   50MOL0     H 6693   0.174   8.038   5.290  0.5727  2.0762 -2.2388
   50MOL0     H 6694   0.161   8.077   5.460 -0.5090  2.8670 -0.8810
   50MOL0     H 6695   0.163   8.275   5.334  0.0465  0.6283 -4.1846
   50MOL0     H 6696   0.318   8.270   5.417 -1.7105  0.6701  0.5266
   50MOL0     H 6697   0.435   8.212   5.184 -0.3667  1.7171 -3.0490
   50MOL0     H 6698   0.283   8.169   5.127  0.6637  0.4310 -0.6815
   50MOL0     H 6699   0.362   8.443   5.210 -1.0989 -1.6149  1.9775
   50MOL0     H 6700   0.205   8.413   5.135  0.4696  1.1967 -0.6420
   50MOL0     H 6701   0.376   8.633   5.002  1.6608  0.3299 -0.5944
   50MOL0     H 6702   0.479   8.619   4.646  1.4507 -1.6755  0.4326
   50MOL0     H 6703   0.410   8.722   4.767  0.2315  0.7574  0.3471
   50MOL0     H 6704   0.624   8.719   4.895  0.3256  2.5252 -0.2839
   50MOL0     H 6705   0.642   8.775   4.726  5.5236 -1.4613 -0.3016
   50MOL0     H 6706   0.712   8.533   4.661  1.9041  1.2691 -1.8001
   50MOL0     H 6707   0.734   8.510   4.835  1.8428  0.5179  0.6456
   50MOL0     H 6708   0.849   8.746   4.677  4.2798  1.0882 -0.0496
   50MOL0     H 6709   0.942   8.599   4.694  1.9779  2.8285  0.3673
   50MOL0     H 6710   1.053   8.709   5.075  2.6286  0.6152  2.3097
   50MOL0     H 6711   1.375   8.714   5.160 -0.2690  0.0042 -0.0411
   50MOL0     H 6712   1.353   8.889   5.161  5.1367 -2.9324  2.5677
   50MOL0     H 6713   1.217   8.789   5.197 -2.2237  1.3393 -3.2454
   50MOL0     H 6714   1.653   9.050   4.933 -0.9203  5.2763  0.1456
   50MOL0     H 6715   1.876   9.164   4.866 -1.6015  1.0833 -0.4934
   50MOL0     H 6716   1.942   9.334   4.608  2.1389  0.9985 -1.0853
   50MOL0     H 6717   1.975   9.311   4.769 -1.5093  2.3271 -1.1732
   50MOL0     H 6718   2.149   9.422   4.685  0.5509 -0.5149 -0.0893
   50MOL0     H 6719   2.225   9.263   4.706  1.5410  0.5194 -1.7338
   50MOL0     H 6720   2.128   9.399   4.463 -1.7701 -0.6043  2.2549
   50MOL0     H 6721   2.156   9.231   4.459  1.5928  0.4453 -0.9964
   50MOL0     H 6722   2.369   9.449   4.510 -1.8865  0.8333 -2.4874
   50MOL0     H 6723   2.402   9.278   4.541  1.8514  1.0016 -0.0747
   50MOL0     H 6724   2.307   9.399   4.292  2.0202 -0.4791 -2.1193
   50MOL0     H 6725   2.349   9.231   4.305  1.0707  0.0817 -1.4791
   50MOL0     H 6726   2.544   9.285   4.210  1.7024 -0.1518  1.3055
   50MOL0     H 6727   2.554   9.447   4.286 -2.1324  2.0186  4.4052
   50MOL0     H 6728   2.577   9.192   4.433  0.1967  0.2270  0.5719
   50MOL0     H 6729   2.642   9.342   4.492  1.5611 -1.8192  0.4407
   50MOL0     H 6730   2.732   9.190   4.250 -0.8410 -0.7518  0.0797
   50MOL0     H 6731   2.823   9.202   4.401  2.4862  1.3318 -0.3497
   50MOL0     H 6732   1.878   8.968   4.492 -0.3523 -0.0506 -0.5470
   50MOL0     H 6733   1.666   8.850   4.543 -0.7284  1.7858 -1.0771
   50MOL0     H 6734   1.306   8.832   4.663  1.0137 -2.7481 -0.6071
   50MOL0     H 6735   1.081   8.766   4.644 -1.8425 -2.4030 -0.3668
   50MOL0     H 6736   0.477   7.522   5.831  2.0850 -1.5580 -0.6738
   50MOL0     H 6737   0.570   7.535   6.037  1.1340  0.6003  2.0841
   50MOL0     H 6738   0.751   7.845   6.341  0.5119 -2.3316 -3.6370
   50MOL0     H 6739   0.834   7.919   6.547  1.3342 -0.6564  0.3367
   50MOL0     H 6740   1.053   7.972   6.667 -1.9705 -2.3806 -2.4892
   50MOL0     H 6741   1.105   7.941   6.816  3.1077 -1.3840  0.3446
   50MOL0     H 6742   1.265   7.890   6.582 -0.7663 -1.2375 -0.7234
   50MOL0     H 6743   1.211   7.728   6.645 -0.2083 -0.0529  2.3020
   50MOL0     H 6744   1.334   7.743   6.835 -1.1051 -0.9265 -1.3028
   50MOL0     H 6745   1.305   7.913   6.846  0.1101 -2.8467  3.3492
   50MOL0     H 6746   1.524   7.961   6.720 -0.8120  0.6862  0.7581
   50MOL0     H 6747   1.521   7.785   6.677 -2.1340  1.6287 -1.7657
   50MOL0     H 6748   1.724   7.777   7.035 -3.0231  0.5634  3.5467
   50MOL0     H 6749   1.041   7.559   6.629 -0.4517  4.0350  4.3865
   50MOL0     H 6750   0.955   7.462   6.392 -1.7047 -0.1649 -2.9328
   51MOL0     O 6751   7.365  10.887   2.030 -0.7588  0.3877  0.2140
   51MOL0     C 6752   7.484  10.911   2.015  0.3080 -0.1434 -0.0735
   51MOL0     O 6753   7.545  11.031   1.979  1.1417  0.4027 -0.1142
   51MOL0     C 6754   7.454  11.127   1.938 -0.0455 -0.0553  0.1142
   51MOL0     C 6755   7.449  11.248   2.011  0.0233 -1.0740 -0.6737
   51MOL0     C 6756   7.357  11.356   1.989  0.0006  0.5075  0.8475
   51MOL0     C 6757   7.259  11.332   1.893 -0.5178 -0.6372 -0.2342
   51MOL0     O 6758   7.169  11.426   1.847 -0.5130 -0.3747 -0.7099
   51MOL0     C 6759   7.114  11.511   1.948  0.1707  0.0242  0.2433
   51MOL0     C 6760   7.024  11.628   1.890  0.1955  0.1005 -0.5178
   51MOL0     C 6761   6.895  11.578   1.818 -0.3359 -0.4512 -0.6132
   51MOL0     C 6762   6.788  11.697   1.806 -0.7616  0.2150  0.2216
   51MOL0     C 6763   6.828  11.801   1.710  0.2833  0.1825  0.2974
   51MOL0     C 6764   6.837  11.758   1.561 -0.5878  0.5447 -0.8212
   51MOL0     C 6765   6.891  11.873   1.474  0.0430 -0.4698 -0.5782
   51MOL0     C 6766   7.041  11.907   1.473  0.6680 -0.1757 -0.3251
   51MOL0     N 6767   7.065  12.009   1.366  0.9707 -0.5770  0.6580
   51MOL0     C 6768   7.118  11.979   1.246 -0.2369  0.8880 -0.2039
   51MOL0     C 6769   7.149  12.100   1.192  0.9727 -0.6825  0.0072
   51MOL0     C 6770   7.198  12.127   1.063 -0.6166 -0.4531  0.5488
   51MOL0     C 6771   7.104  12.093   0.940 -0.0504 -0.3500 -0.3063
   51MOL0     C 6772   6.974  12.164   0.966 -0.5150  0.1359  0.2256
   51MOL0     C 6773   6.977  12.320   0.979  0.1998  0.1041  0.2245
   51MOL0     O 6774   7.044  12.386   0.881 -0.0936 -1.1975  0.2700
   51MOL0     C 6775   6.992  12.386   0.753  0.9889  0.6402 -0.0324
   51MOL0     C 6776   6.861  12.409   0.721  0.7313 -0.0171 -0.4991
   51MOL0     C 6777   6.811  12.408   0.595 -0.5197  0.1655  0.0091
   51MOL0     C 6778   6.661  12.429   0.581  0.2088 -0.0025  0.6959
   51MOL0     C 6779   6.900  12.401   0.481  0.7923  0.2741  0.5244
   51MOL0     C 6780   6.862  12.415   0.338 -0.4492  0.4930  0.3191
   51MOL0     O 6781   6.950  12.357   0.245 -0.4868  0.0679  0.3225
   51MOL0     C 6782   6.924  12.385   0.110 -0.0806 -0.0709 -0.2223
   51MOL0     C 6783   7.028  12.450   0.041 -1.3925  0.6286  0.2777
   51MOL0     C 6784   7.018  12.477  -0.093 -0.1542 -0.3599 -0.4193
   51MOL0     C 6785   6.911  12.410  -0.162 -0.3899 -0.5677  0.6180
   51MOL0     O 6786   6.893  12.433  -0.301  0.5464 -0.3220  0.1435
   51MOL0     C 6787   6.793  12.528  -0.323  0.4342 -0.6358 -0.3371
   51MOL0     C 6788   6.733  12.517  -0.459  0.0019 -0.4168  0.3367
   51MOL0     C 6789   6.828  12.592  -0.574 -0.4437  0.4924 -0.7372
   51MOL0     C 6790   6.773  12.579  -0.719  0.8707  0.0968  0.2814
   51MOL0     C 6791   6.640  12.661  -0.730 -0.2287  0.7123  1.0746
   51MOL0     C 6792   6.592  12.664  -0.875 -0.3269 -0.3020  0.7393
   51MOL0     C 6793   6.446  12.695  -0.893  0.6143 -0.2996  0.1607
   51MOL0     C 6794   6.414  12.743  -1.040  0.4166  0.4725  0.4673
   51MOL0    Cl 6795   6.245  12.686  -1.072 -0.4098  0.6683 -0.1359
   51MOL0     C 6796   6.809  12.341  -0.090 -0.8984  0.8339  0.9438
   51MOL0     C 6797   6.807  12.342   0.051  0.3360 -0.1391  0.1986
   51MOL0     O 6798   6.754  12.463   0.306 -0.4329  0.5084  0.5542
   51MOL0     C 6799   7.028  12.379   0.513  0.2507  0.4138  0.3778
   51MOL0     C 6800   7.069  12.368   0.641 -0.2509 -0.4007 -1.1669
   51MOL0     N 6801   7.117  12.199   1.292  0.0208 -0.1582  0.0319
   51MOL0     N 6802   7.057  12.134   1.391 -0.4247 -0.3212  0.6947
   51MOL0     C 6803   7.264  11.215   1.812 -0.4165  0.8530 -0.0204
   51MOL0     C 6804   7.351  11.113   1.842 -0.0761  0.0586  0.2847
   51MOL0     C 6805   7.584  10.806   2.049  0.1445  0.0348 -0.4756
   51MOL0     C 6806   7.722  10.833   2.049  0.3373  0.4224 -0.0840
   51MOL0     C 6807   7.811  10.735   2.085 -0.6916 -0.7095  0.4407
   51MOL0     C 6808   7.772  10.608   2.125  0.4692 -0.8781  0.2929
   51MOL0     O 6809   7.870  10.519   2.157  0.6706  0.7524 -0.4256
   51MOL0     C 6810   7.903  10.528   2.294  1.6445 -0.0221  0.3828
   51MOL0     C 6811   7.798  10.501   2.406 -0.7015 -0.2146  0.1498
   51MOL0     C 6812   7.886  10.462   2.525  0.0263 -0.6148  0.8351
   51MOL0     C 6813   7.801  10.462   2.659 -0.5952 -1.0138 -0.5960
   51MOL0     C 6814   7.683  10.380   2.674  0.0366  0.1011 -0.1510
   51MOL0     C 6815   7.581  10.318   2.693  0.0323  0.5557  0.3872
   51MOL0     C 6816   7.634  10.581   2.117  0.3051 -0.0513  0.0327
   51MOL0     C 6817   7.542  10.684   2.085 -0.4438  1.0234 -0.8235
   51MOL0     H 6818   7.506  11.275   2.099  1.9032  0.3742 -2.2356
   51MOL0     H 6819   7.362  11.447   2.048  1.7609  1.9039 -1.2683
   51MOL0     H 6820   7.064  11.442   2.018  0.6934  0.3415  0.9399
   51MOL0     H 6821   7.187  11.566   2.008 -0.9076 -0.0718  1.6984
   51MOL0     H 6822   7.004  11.694   1.975  2.4114  2.1388 -1.4546
   51MOL0     H 6823   7.084  11.691   1.823  1.8814 -0.8909 -0.0069
   51MOL0     H 6824   6.916  11.536   1.719 -0.0209  0.9196 -1.1493
   51MOL0     H 6825   6.855  11.487   1.864 -0.2370  1.0064  2.5685
   51MOL0     H 6826   6.696  11.647   1.775 -0.9235  1.6151 -1.6860
   51MOL0     H 6827   6.779  11.748   1.903 -0.6125 -0.0642  0.3841
   51MOL0     H 6828   6.760  11.887   1.705  1.2775  1.0146  0.6901
   51MOL0     H 6829   6.924  11.841   1.744  0.3311 -1.2069  1.9092
   51MOL0     H 6830   6.909  11.676   1.558 -0.9548  0.2255 -1.0773
   51MOL0     H 6831   6.737  11.725   1.529  0.2787 -2.5062 -0.6752
   51MOL0     H 6832   6.870  11.847   1.370  0.2130 -0.3359 -0.6463
   51MOL0     H 6833   6.831  11.963   1.493  2.0581  0.6371  0.9866
   51MOL0     H 6834   7.098  11.814   1.465 -0.3586 -0.8014 -0.4564
   51MOL0     H 6835   7.069  11.941   1.573 -0.5728  1.2041 -0.4151
   51MOL0     H 6836   7.138  11.877   1.214 -2.7676  0.0955  0.5161
   51MOL0     H 6837   7.229  12.232   1.057  2.4771 -1.0756  3.0870
   51MOL0     H 6838   7.290  12.068   1.054 -1.5726 -1.8055 -0.9170
   51MOL0     H 6839   7.080  11.986   0.932 -2.4206 -0.3225  3.7362
   51MOL0     H 6840   7.145  12.120   0.843  1.8147  0.3804  0.6137
   51MOL0     H 6841   6.921  12.121   1.051 -4.0584  1.5464 -1.0744
   51MOL0     H 6842   6.910  12.143   0.880  0.3195 -2.1087  0.0938
   51MOL0     H 6843   7.019  12.351   1.075 -0.0845 -0.0086  0.3871
   51MOL0     H 6844   6.871  12.343   0.994  0.1827 -1.1817  2.4924
   51MOL0     H 6845   6.795  12.439   0.801  2.5722  0.8949  0.7451
   51MOL0     H 6846   6.619  12.494   0.504 -2.1449 -1.0895  0.9592
   51MOL0     H 6847   6.610  12.339   0.542 -2.1035  1.7222 -0.5397
   51MOL0     H 6848   6.617  12.451   0.679  0.8419 -0.8334  1.1801
   51MOL0     H 6849   7.115  12.479   0.099 -0.3299 -3.7902  1.2651
   51MOL0     H 6850   7.087  12.551  -0.133 -2.8051  3.4320  1.4062
   51MOL0     H 6851   6.709  12.501  -0.257  1.7467 -2.4361  0.6729
   51MOL0     H 6852   6.822  12.631  -0.298  0.7046 -0.3429 -1.7972
   51MOL0     H 6853   6.702  12.422  -0.503 -0.7429  0.5729 -1.3724
   51MOL0     H 6854   6.641  12.577  -0.457 -0.6319 -0.9930 -3.6080
   51MOL0     H 6855   6.921  12.533  -0.570 -1.1260 -0.6671 -1.3608
   51MOL0     H 6856   6.835  12.697  -0.545  0.6357  0.1781  0.2483
   51MOL0     H 6857   6.847  12.621  -0.788 -0.7050  2.7425  0.0789
   51MOL0     H 6858   6.763  12.475  -0.752  1.7934 -0.1091  0.6268
   51MOL0     H 6859   6.660  12.764  -0.700  0.6926  0.3644  1.6866
   51MOL0     H 6860   6.566  12.623  -0.659  0.7851  0.6749  2.1368
   51MOL0     H 6861   6.650  12.734  -0.936 -0.6279 -1.5068 -0.9990
   51MOL0     H 6862   6.605  12.566  -0.920 -0.4746 -0.2250  0.5260
   51MOL0     H 6863   6.416  12.769  -0.819  0.8302 -1.4474  1.4336
   51MOL0     H 6864   6.388  12.606  -0.865 -0.2547  0.2107  0.0331
   51MOL0     H 6865   6.476  12.697  -1.118 -2.3918  0.4487 -1.9252
   51MOL0     H 6866   6.411  12.852  -1.040 -0.5031  0.4662 -0.6700
   51MOL0     H 6867   6.739  12.284  -0.151  0.7141 -0.0948 -0.1374
   51MOL0     H 6868   6.734  12.291   0.112 -0.0197 -1.0374 -0.9363
   51MOL0     H 6869   7.108  12.369   0.439  0.8403 -1.5341  1.2076
   51MOL0     H 6870   7.176  12.356   0.650 -0.1205 -0.8396 -2.9223
   51MOL0     H 6871   7.215  11.223   1.715  0.1121  2.6684 -0.1828
   51MOL0     H 6872   7.358  11.020   1.788 -2.5085  0.3962 -0.7404
   51MOL0     H 6873   7.759  10.928   2.012  2.4982  0.2749  1.5678
   51MOL0     H 6874   7.917  10.749   2.067 -0.9224  0.9629  0.2338
   51MOL0     H 6875   7.989  10.462   2.308  2.7475  1.5723  1.5545
   51MOL0     H 6876   7.939  10.631   2.305  1.2736  0.3092 -1.2294
   51MOL0     H 6877   7.725  10.427   2.374 -0.8240  0.2666 -0.7187
   51MOL0     H 6878   7.740  10.591   2.431 -2.4852 -0.2247 -3.3428
   51MOL0     H 6879   7.966  10.536   2.513 -0.1600 -0.6921 -1.4170
   51MOL0     H 6880   7.936  10.367   2.505  0.5019 -0.3127  0.5741
   51MOL0     H 6881   7.763  10.565   2.664 -1.0148 -1.2138  2.3792
   51MOL0     H 6882   7.866  10.435   2.742 -2.6185 -0.1361  1.3787
   51MOL0     H 6883   7.494  10.257   2.706  1.4387 -1.4002  1.0576
   51MOL0     H 6884   7.593  10.483   2.140  0.9510 -0.1582  0.7661
   51MOL0     H 6885   7.438  10.654   2.098  1.0955 -3.8266  4.8845
   52MOL0     O 6886   1.253  11.538   8.039  0.4147  0.1142  0.2103
   52MOL0     C 6887   1.279  11.560   8.155  0.4680  0.3516 -0.1520
   52MOL0     O 6888   1.199  11.623   8.249  0.0102  0.7618 -0.1286
   52MOL0     C 6889   1.068  11.596   8.238  0.6069  1.5525  0.6378
   52MOL0     C 6890   0.974  11.681   8.180 -0.3078  0.4935  0.1218
   52MOL0     C 6891   0.843  11.640   8.153  0.3815 -0.5146  0.2473
   52MOL0     C 6892   0.805  11.517   8.213  0.1122  0.7360  0.3413
   52MOL0     O 6893   0.670  11.478   8.206  0.0715 -0.1138  0.4166
   52MOL0     C 6894   0.617  11.428   8.324  0.7676  0.1292 -0.2670
   52MOL0     C 6895   0.468  11.466   8.346 -0.1225 -1.0292  0.6169
   52MOL0     C 6896   0.436  11.602   8.404  0.1724  0.3224 -0.1739
   52MOL0     C 6897   0.477  11.621   8.550  0.6162  1.1602  0.7410
   52MOL0     C 6898   0.436  11.750   8.611  0.8196 -0.9744 -0.1854
   52MOL0     C 6899   0.472  11.749   8.762 -0.7010 -0.7629 -0.0423
   52MOL0     C 6900   0.415  11.865   8.840 -0.1066 -0.4032  0.0190
   52MOL0     C 6901   0.431  11.855   8.997  0.3276  0.2110 -0.1797
   52MOL0     N 6902   0.568  11.837   9.017 -0.5357 -1.0433  0.3007
   52MOL0     C 6903   0.659  11.938   9.049 -0.2369  0.6931  0.5293
   52MOL0     C 6904   0.782  11.877   9.074 -0.6038 -1.2985  0.6284
   52MOL0     C 6905   0.904  11.946   9.129  0.0730  1.0333 -0.1274
   52MOL0     C 6906   0.897  11.929   9.284 -0.7581  0.0685 -0.8655
   52MOL0     C 6907   0.999  12.026   9.362 -0.4864 -1.1381  0.5198
   52MOL0     C 6908   1.051  11.987   9.502  0.5891  0.2041  0.2663
   52MOL0     O 6909   1.124  11.867   9.500 -0.3662 -0.4722  0.2709
   52MOL0     C 6910   1.230  11.847   9.592 -0.3067  0.1886  0.9236
   52MOL0     C 6911   1.256  11.926   9.703 -0.4054 -0.4741  0.6739
   52MOL0     C 6912   1.362  11.886   9.791 -0.1311 -1.1302 -0.6659
   52MOL0     C 6913   1.379  11.990   9.905  0.5846  0.7774 -0.4292
   52MOL0     C 6914   1.443  11.767   9.768 -0.1600 -0.5631 -0.0499
   52MOL0     C 6915   1.551  11.727   9.850 -0.2765  0.8383 -0.2876
   52MOL0     O 6916   1.586  11.592   9.836  0.4119  0.7189 -1.1628
   52MOL0     C 6917   1.664  11.521   9.927 -0.5884 -0.4553  0.1087
   52MOL0     C 6918   1.617  11.414  10.002  0.8175  0.2668 -0.4860
   52MOL0     C 6919   1.711  11.332  10.071  0.2951  0.4483  1.1880
   52MOL0     C 6920   1.837  11.362  10.083 -0.6904 -0.7790  0.2688
   52MOL0     O 6921   1.936  11.277  10.148 -0.8319 -0.0107  0.2861
   52MOL0     C 6922   1.940  11.141  10.118  0.2864 -0.3595 -0.5374
   52MOL0     C 6923   1.921  11.069  10.255 -0.2770  0.4344 -0.2350
   52MOL0     C 6924   1.802  11.099  10.342  0.4738  0.6921  0.4734
   52MOL0     C 6925   1.805  11.014  10.473  1.0039  0.1839 -0.7525
   52MOL0     C 6926   1.675  11.018  10.541  0.1586 -1.4023 -0.4707
   52MOL0     C 6927   1.649  10.959  10.683 -0.6817 -0.0248  0.0166
   52MOL0     C 6928   1.690  11.056  10.786 -0.3323  0.3092  0.1925
   52MOL0     C 6929   1.709  10.960  10.919  0.4119  0.1300  0.1160
   52MOL0    Cl 6930   1.788  11.047  11.051  0.0416 -0.1895 -0.0812
   52MOL0     C 6931   1.889  11.481  10.026  0.8398  0.9889  0.0142
   52MOL0     C 6932   1.799  11.557   9.949 -0.5711 -0.0393  0.3550
   52MOL0     O 6933   1.599  11.800   9.930  0.6235  1.1232 -0.5463
   52MOL0     C 6934   1.412  11.692   9.655 -0.7311  1.0257 -0.4087
   52MOL0     C 6935   1.314  11.732   9.564 -0.5454 -0.1720  0.3188
   52MOL0     N 6936   0.767  11.741   9.053 -0.1837  0.6347 -0.0355
   52MOL0     N 6937   0.646  11.718   9.023  1.1650  0.3969 -0.5396
   52MOL0     C 6938   0.895  11.429   8.281  0.3014  0.2511 -0.4759
   52MOL0     C 6939   1.025  11.475   8.293 -0.1025 -0.3476 -0.0466
   52MOL0     C 6940   1.401  11.495   8.202 -0.2072  0.5715 -0.8499
   52MOL0     C 6941   1.465  11.539   8.317  0.6333  0.2763 -0.5984
   52MOL0     C 6942   1.578  11.483   8.365 -0.5571  0.3367 -0.3800
   52MOL0     C 6943   1.638  11.373   8.305 -0.3784  0.9722 -0.3991
   52MOL0     O 6944   1.739  11.291   8.346  0.3442 -0.5718  0.1329
   52MOL0     C 6945   1.762  11.284   8.487 -0.2129  0.2258  0.2779
   52MOL0     C 6946   1.724  11.155   8.559  0.2110  1.0719  0.4580
   52MOL0     C 6947   1.758  11.155   8.714 -0.2448  0.1569 -0.6266
   52MOL0     C 6948   1.660  11.243   8.791  0.0890  1.1758 -0.2746
   52MOL0     C 6949   1.687  11.381   8.788  0.3190  0.5457 -0.6180
   52MOL0     C 6950   1.705  11.501   8.789  0.3961 -0.1844  0.9672
   52MOL0     C 6951   1.576  11.327   8.192 -0.1573  0.7289 -0.1639
   52MOL0     C 6952   1.464  11.385   8.140 -0.5084  0.4612 -0.3088
   52MOL0     H 6953   1.009  11.778   8.146  2.3100  0.3175  2.0251
   52MOL0     H 6954   0.775  11.707   8.101  1.3520 -1.1510 -1.9418
   52MOL0     H 6955   0.630  11.320   8.310 -0.7563 -0.3362  1.3694
   52MOL0     H 6956   0.673  11.449   8.416  1.4291 -1.5199 -0.2677
   52MOL0     H 6957   0.421  11.462   8.247  3.1085  1.9876 -1.2475
   52MOL0     H 6958   0.425  11.377   8.394  1.2424 -2.9298 -1.4775
   52MOL0     H 6959   0.488  11.677   8.343  2.0269 -0.0321  0.8952
   52MOL0     H 6960   0.334  11.634   8.381  0.2857  0.8641  0.0633
   52MOL0     H 6961   0.435  11.533   8.599 -0.1763 -0.4585 -2.5875
   52MOL0     H 6962   0.584  11.598   8.553  0.0792 -1.5044  1.5147
   52MOL0     H 6963   0.483  11.836   8.561 -1.1857  1.6481  2.0845
   52MOL0     H 6964   0.328  11.761   8.613  0.7482 -1.4543 -1.0094
   52MOL0     H 6965   0.435  11.664   8.820 -1.2022 -0.5487 -0.0417
   52MOL0     H 6966   0.581  11.755   8.773 -0.8677 -0.0005  1.3819
   52MOL0     H 6967   0.478  11.950   8.812  1.3626 -1.1730  0.8749
   52MOL0     H 6968   0.312  11.880   8.806 -0.5142  1.5745  1.9027
   52MOL0     H 6969   0.370  11.779   9.047 -1.0091  1.5469  0.3059
   52MOL0     H 6970   0.394  11.945   9.045  3.2363  0.4978  1.7742
   52MOL0     H 6971   0.637  12.044   9.055 -1.7027  0.6219 -1.9242
   52MOL0     H 6972   0.988  11.890   9.086 -0.7796 -0.5319  0.1802
   52MOL0     H 6973   0.909  12.053   9.109  1.1593  2.1415  4.6806
   52MOL0     H 6974   0.912  11.824   9.311  1.6462  0.9082  1.5281
   52MOL0     H 6975   0.793  11.950   9.310 -0.4200  1.7754 -0.7428
   52MOL0     H 6976   0.944  12.121   9.364  1.4168  0.1162 -1.1789
   52MOL0     H 6977   1.080  12.038   9.289 -5.9643  0.5585 -6.4063
   52MOL0     H 6978   0.974  11.974   9.578  0.1777 -2.7707 -0.5070
   52MOL0     H 6979   1.114  12.068   9.540 -0.3829  0.5232  1.2357
   52MOL0     H 6980   1.190  12.012   9.713 -0.0562 -0.1334  0.1522
   52MOL0     H 6981   1.465  12.056   9.894 -0.5679  2.4495  0.2851
   52MOL0     H 6982   1.294  12.059   9.911 -0.3571 -0.4707  2.1000
   52MOL0     H 6983   1.393  11.929   9.995  2.5283  0.5316 -0.8550
   52MOL0     H 6984   1.513  11.383   9.999  0.5596  1.0342  0.2033
   52MOL0     H 6985   1.675  11.246  10.126 -0.9252  0.0421 -0.1766
   52MOL0     H 6986   1.864  11.098  10.052  0.8234 -1.2621 -0.5811
   52MOL0     H 6987   2.041  11.112  10.091  0.1915 -1.9920  0.7014
   52MOL0     H 6988   1.920  10.964  10.223 -1.2324  0.9904 -2.2361
   52MOL0     H 6989   2.012  11.089  10.312 -0.2969 -0.5792  0.1733
   52MOL0     H 6990   1.713  11.084  10.281  0.9057 -1.6623  0.3391
   52MOL0     H 6991   1.804  11.206  10.363 -0.5973  0.8586 -0.1767
   52MOL0     H 6992   1.835  10.917  10.434 -0.2006  0.1847 -1.7315
   52MOL0     H 6993   1.883  11.046  10.542  0.2426 -1.5575  1.0202
   52MOL0     H 6994   1.598  10.969  10.480 -2.3402 -1.4235  2.4353
   52MOL0     H 6995   1.647  11.124  10.544 -2.4947 -1.9401 -2.6068
   52MOL0     H 6996   1.543  10.938  10.702 -0.6674 -3.0910 -2.5099
   52MOL0     H 6997   1.707  10.866  10.691  0.8138  0.9774  1.4603
   52MOL0     H 6998   1.615  11.134  10.803 -1.5386 -1.2276  2.3675
   52MOL0     H 6999   1.787  11.102  10.764 -0.1084  1.2164  2.7851
   52MOL0     H 7000   1.782  10.882  10.892 -0.0818 -0.0137 -0.8751
   52MOL0     H 7001   1.614  10.920  10.955  0.8628 -1.2404 -0.1531
   52MOL0     H 7002   1.988  11.518  10.051 -0.1382  2.9540  1.2846
   52MOL0     H 7003   1.833  11.649   9.902 -0.6324  0.4993  1.3375
   52MOL0     H 7004   1.464  11.602   9.624 -2.8422  0.7720 -3.8304
   52MOL0     H 7005   1.303  11.659   9.484 -0.6037 -0.2837  0.4277
   52MOL0     H 7006   0.868  11.329   8.312  4.8561 -1.5371 -1.4435
   52MOL0     H 7007   1.099  11.419   8.349  1.7324  0.0981 -1.9391
   52MOL0     H 7008   1.430  11.631   8.362 -1.0677 -0.9401  0.6952
   52MOL0     H 7009   1.617  11.528   8.455 -0.6364  0.1697 -0.2619
   52MOL0     H 7010   1.865  11.306   8.516 -0.3025 -0.3452  1.0744
   52MOL0     H 7011   1.711  11.368   8.535 -0.5028  0.0079  0.3529
   52MOL0     H 7012   1.773  11.075   8.504  2.8414  0.6766  3.1220
   52MOL0     H 7013   1.615  11.156   8.549  0.0934 -0.1456  1.3162
   52MOL0     H 7014   1.861  11.183   8.735  0.3548  0.2932 -3.3560
   52MOL0     H 7015   1.740  11.053   8.747 -2.2056  0.1604 -1.5439
   52MOL0     H 7016   1.667  11.206   8.893  0.5986  0.8006 -0.4391
   52MOL0     H 7017   1.561  11.218   8.751  1.6304 -1.1706 -3.0800
   52MOL0     H 7018   1.704  11.608   8.796  3.2191  0.0318 -0.3557
   52MOL0     H 7019   1.642  11.266   8.130  0.5948 -0.4669  1.7307
   52MOL0     H 7020   1.427  11.356   8.042  0.0352 -4.8935  0.7426
   53MOL0     O 7021  10.486   3.804  10.062 -0.3236 -0.7573  0.5005
   53MOL0     C 7022  10.403   3.859  10.141 -0.1753 -0.1437 -0.3583
   53MOL0     O 7023  10.389   3.833  10.282 -0.2282  0.0850 -0.3543
   53MOL0     C 7024  10.501   3.755  10.335 -0.3485 -0.7445 -0.1863
   53MOL0     C 7025  10.611   3.815  10.393 -0.1884 -0.0259 -0.2845
   53MOL0     C 7026  10.709   3.736  10.442 -0.2479 -0.2240  0.8005
   53MOL0     C 7027  10.721   3.599  10.414  0.1533 -0.4513 -0.4948
   53MOL0     O 7028  10.835   3.526  10.453  0.2717 -0.2370 -0.4518
   53MOL0     C 7029  10.921   3.590  10.550  0.4252 -0.0107 -0.2327
   53MOL0     C 7030  11.049   3.497  10.583  0.8604  0.1997 -0.7533
   53MOL0     C 7031  11.115   3.552  10.713  0.0465 -0.4368 -0.3830
   53MOL0     C 7032  11.216   3.447  10.766 -0.4154 -0.0829  0.0151
   53MOL0     C 7033  11.251   3.472  10.914  0.4536 -0.3859 -0.7378
   53MOL0     C 7034  11.132   3.444  11.017  0.5909 -0.0715 -0.2742
   53MOL0     C 7035  11.185   3.391  11.154 -0.6476 -0.1335 -0.4104
   53MOL0     C 7036  11.084   3.405  11.262  0.4952  0.6151 -0.4535
   53MOL0     N 7037  11.091   3.297  11.357 -0.1514 -0.8016 -0.8681
   53MOL0     C 7038  10.997   3.190  11.364 -0.2703 -0.2796  0.3202
   53MOL0     C 7039  11.027   3.114  11.472 -0.3232 -0.9139  0.1553
   53MOL0     C 7040  10.956   2.996  11.533 -0.9494  1.3209 -0.6784
   53MOL0     C 7041  10.845   3.038  11.627  0.4503  0.3840 -0.2817
   53MOL0     C 7042  10.878   3.134  11.733 -0.0277  0.5465  0.1337
   53MOL0     C 7043  10.999   3.082  11.818  0.0179 -1.1746 -0.1161
   53MOL0     O 7044  10.941   2.978  11.902 -0.4206 -0.3339 -0.0333
   53MOL0     C 7045  11.008   2.987  12.017 -0.1067  0.5152  0.3928
   53MOL0     C 7046  11.118   2.900  12.029  0.7343 -0.3348 -0.3296
   53MOL0     C 7047  11.205   2.897  12.148  0.9228 -0.2743  0.4565
   53MOL0     C 7048  11.325   2.808  12.159  0.3599  0.2203 -0.3207
   53MOL0     C 7049  11.177   2.984  12.257 -0.5230 -1.3134 -0.2716
   53MOL0     C 7050  11.270   3.009  12.375 -0.5428  0.2518  0.1856
   53MOL0     O 7051  11.411   2.990  12.364  0.2697 -0.0055 -0.6673
   53MOL0     C 7052  11.497   2.987  12.468  0.4357 -0.9611  0.6135
   53MOL0     C 7053  11.472   2.914  12.577 -0.7699  1.2025 -0.3012
   53MOL0     C 7054  11.573   2.895  12.669 -0.1354  0.3953 -1.0053
   53MOL0     C 7055  11.698   2.959  12.670 -0.0014 -0.6585  0.6305
   53MOL0     O 7056  11.773   2.944  12.780  0.6217  0.1453 -0.2229
   53MOL0     C 7057  11.914   2.982  12.759 -0.0556  0.0085 -0.3691
   53MOL0     C 7058  12.015   2.943  12.865  0.0673 -0.7131  0.3143
   53MOL0     C 7059  11.972   3.004  13.004 -0.5269  0.2516  0.0483
   53MOL0     C 7060  12.048   2.960  13.126 -0.5528  0.0955  0.6659
   53MOL0     C 7061  12.014   3.033  13.256 -0.2484 -0.2658 -0.3867
   53MOL0     C 7062  12.090   2.977  13.384  0.6036 -0.0291  0.4161
   53MOL0     C 7063  12.053   3.069  13.497 -0.6264 -0.2488 -0.2642
   53MOL0     C 7064  12.165   3.083  13.594 -0.4107 -0.0545  0.3036
   53MOL0    Cl 7065  12.123   3.176  13.753  0.0297 -0.2913  0.0513
   53MOL0     C 7066  11.727   3.037  12.557  0.2818  0.1902  0.1439
   53MOL0     C 7067  11.620   3.056  12.464 -0.4060  0.4008  1.1229
   53MOL0     O 7068  11.223   3.054  12.477  0.8945  0.2583 -0.2293
   53MOL0     C 7069  11.062   3.075  12.243 -0.3434 -0.7321  0.0015
   53MOL0     C 7070  10.997   3.079  12.115  0.4925  0.1065  0.5322
   53MOL0     N 7071  11.127   3.178  11.531  1.1302 -0.1487  0.3902
   53MOL0     N 7072  11.167   3.287  11.466 -0.5305  0.7330  0.4674
   53MOL0     C 7073  10.612   3.545  10.349 -0.7030  0.6876 -0.1616
   53MOL0     C 7074  10.496   3.617  10.316 -0.2708 -0.1209 -0.8065
   53MOL0     C 7075  10.324   3.962  10.089 -0.6599 -0.5631  0.0879
   53MOL0     C 7076  10.356   4.034   9.972 -0.5516  0.3973  0.3410
   53MOL0     C 7077  10.264   4.113   9.902 -1.0142  0.4519 -0.4368
   53MOL0     C 7078  10.136   4.127   9.961 -0.0242 -0.3126  0.0106
   53MOL0     O 7079  10.056   4.221   9.907  0.6499 -0.5892  0.1063
   53MOL0     C 7080   9.962   4.289   9.998 -0.0469  1.2060 -0.0121
   53MOL0     C 7081   9.899   4.415   9.941 -0.4881  0.5166  0.2746
   53MOL0     C 7082  10.006   4.517   9.885 -0.0347  0.1758  0.8804
   53MOL0     C 7083   9.927   4.620   9.809  0.1496  0.3817 -0.9467
   53MOL0     C 7084  10.015   4.713   9.738 -0.5168  0.0797 -0.9746
   53MOL0     C 7085  10.100   4.782   9.691 -0.6400  0.1978  0.2622
   53MOL0     C 7086  10.110   4.061  10.077 -0.5789 -0.2906  0.7345
   53MOL0     C 7087  10.200   3.979  10.140  1.3469 -1.1146  0.5864
   53MOL0     H 7088  10.623   3.922  10.387 -0.9709  0.0617 -0.4744
   53MOL0     H 7089  10.793   3.791  10.482  0.0951  1.8950 -2.5092
   53MOL0     H 7090  10.956   3.689  10.519 -2.6419  2.4539  3.2902
   53MOL0     H 7091  10.874   3.621  10.643  0.7557  0.8707 -0.3467
   53MOL0     H 7092  11.010   3.396  10.600  2.0594  0.1962  2.6451
   53MOL0     H 7093  11.119   3.482  10.501  0.2436 -1.0906 -1.0743
   53MOL0     H 7094  11.162   3.649  10.695 -0.0550 -0.0961  1.0156
   53MOL0     H 7095  11.034   3.566  10.785 -2.7524  0.5791 -3.4908
   53MOL0     H 7096  11.172   3.347  10.757 -1.0663  0.0787  1.2529
   53MOL0     H 7097  11.304   3.442  10.701 -0.2236  2.3626 -0.0174
   53MOL0     H 7098  11.338   3.407  10.932 -0.9878 -2.4328 -0.8322
   53MOL0     H 7099  11.302   3.566  10.936  2.0550 -1.1311 -1.0609
   53MOL0     H 7100  11.082   3.541  11.021  0.8686  0.1080 -1.0502
   53MOL0     H 7101  11.062   3.374  10.972 -4.4098  1.8043  3.6574
   53MOL0     H 7102  11.207   3.284  11.149 -0.4809 -0.0591 -1.5609
   53MOL0     H 7103  11.276   3.447  11.174  1.5784 -3.4545 -0.5898
   53MOL0     H 7104  10.985   3.421  11.219  0.2060 -0.3190 -0.1660
   53MOL0     H 7105  11.113   3.488  11.328 -0.1456 -0.5544  1.3824
   53MOL0     H 7106  10.911   3.186  11.298 -1.9007  0.5548  2.3060
   53MOL0     H 7107  10.898   2.946  11.455 -0.3139 -0.1371 -0.2532
   53MOL0     H 7108  11.017   2.915  11.576 -4.1362 -0.9684 -0.0647
   53MOL0     H 7109  10.804   2.955  11.685  1.1145  1.3877  1.7522
   53MOL0     H 7110  10.764   3.082  11.569 -2.9781 -2.5493  1.8365
   53MOL0     H 7111  10.789   3.147  11.795 -2.3830  1.3265 -3.1170
   53MOL0     H 7112  10.894   3.230  11.683  1.8639 -0.8521 -2.1665
   53MOL0     H 7113  11.059   3.162  11.863 -3.5152  0.3350  2.3884
   53MOL0     H 7114  11.076   3.030  11.760  1.2201 -0.7268  1.0132
   53MOL0     H 7115  11.132   2.829  11.948  2.8530  0.1077 -0.3922
   53MOL0     H 7116  11.329   2.716  12.100  1.8692 -1.6120  2.4232
   53MOL0     H 7117  11.414   2.869  12.144 -0.9301  2.3466  0.3150
   53MOL0     H 7118  11.318   2.769  12.261  1.5961  2.0525  0.5046
   53MOL0     H 7119  11.388   2.845  12.578  1.7003 -2.0845 -1.8401
   53MOL0     H 7120  11.561   2.817  12.744  1.8104  0.3866 -0.6400
   53MOL0     H 7121  11.945   2.951  12.659  0.0638 -4.3355  0.8241
   53MOL0     H 7122  11.924   3.091  12.758  2.9147 -0.1489 -2.7437
   53MOL0     H 7123  12.008   2.835  12.884 -0.0529 -0.9745 -1.1304
   53MOL0     H 7124  12.115   2.981  12.843  0.8514 -2.3025  0.9740
   53MOL0     H 7125  11.870   2.977  13.032 -1.2221  4.3744  2.3937
   53MOL0     H 7126  11.983   3.113  12.998 -2.4794  0.5847  1.6075
   53MOL0     H 7127  12.043   2.850  13.129  1.6051 -0.1100 -1.0296
   53MOL0     H 7128  12.154   2.977  13.107 -0.2940 -2.9031 -1.3783
   53MOL0     H 7129  11.912   3.007  13.287 -0.9385  1.8549 -0.7385
   53MOL0     H 7130  12.030   3.141  13.245 -4.3317  0.3375 -2.3355
   53MOL0     H 7131  12.070   2.872  13.408 -0.2662 -0.3361 -1.4407
   53MOL0     H 7132  12.197   2.985  13.366  0.3128  2.6593 -0.6015
   53MOL0     H 7133  11.966   3.028  13.548  0.6734 -3.1191 -0.1852
   53MOL0     H 7134  12.029   3.169  13.458 -0.0755 -0.2023 -0.4898
   53MOL0     H 7135  12.247   3.136  13.544 -0.2459  0.2344  0.8643
   53MOL0     H 7136  12.206   2.987  13.627  0.8550 -0.1373 -1.3919
   53MOL0     H 7137  11.819   3.090  12.536 -0.5833  1.1758 -1.3650
   53MOL0     H 7138  11.632   3.131  12.386  0.7444  1.4026  2.2281
   53MOL0     H 7139  11.035   3.147  12.319  3.5775  0.1888  0.7286
   53MOL0     H 7140  10.923   3.157  12.096  2.1833  1.3118 -1.6276
   53MOL0     H 7141  10.605   3.439  10.326 -1.9278  1.0519 -1.6310
   53MOL0     H 7142  10.410   3.558  10.288 -1.6439  0.6133  1.5572
   53MOL0     H 7143  10.441   4.000   9.914 -1.5355 -2.4817  0.4081
   53MOL0     H 7144  10.294   4.152   9.805 -1.7450 -4.8185 -3.1183
   53MOL0     H 7145   9.879   4.228  10.034 -0.1786  1.9491  0.9771
   53MOL0     H 7146  10.010   4.320  10.091 -0.1494 -0.8241  0.7651
   53MOL0     H 7147   9.835   4.450  10.022 -0.8929 -0.8024  0.5409
   53MOL0     H 7148   9.834   4.387   9.858 -1.6054  0.2621  1.2172
   53MOL0     H 7149  10.076   4.463   9.821  1.6340  2.3008  0.8160
   53MOL0     H 7150  10.077   4.556   9.958  3.8017 -0.3660 -2.2260
   53MOL0     H 7151   9.870   4.677   9.883 -2.1164 -1.0461 -1.4813
   53MOL0     H 7152   9.871   4.567   9.731 -0.9364 -0.4802  0.3656
   53MOL0     H 7153  10.174   4.851   9.656  0.0290 -1.5619 -2.1258
   53MOL0     H 7154  10.017   4.078  10.130 -0.1171  3.9854  0.5474
   53MOL0     H 7155  10.158   3.927  10.225 -0.6279 -2.1397 -0.9412
   54MOL0     O 7156   0.137   8.144   8.703  0.4545 -0.0975 -0.0446
   54MOL0     C 7157   0.223   8.178   8.784 -0.4096  0.6000 -0.9425
   54MOL0     O 7158   0.351   8.248   8.758 -0.0048 -0.3930  0.4055
   54MOL0     C 7159   0.372   8.294   8.624  0.3063  0.2480  0.2089
   54MOL0     C 7160   0.492   8.260   8.576  0.8279  0.0929  0.0544
   54MOL0     C 7161   0.514   8.282   8.443  1.1352 -1.0647  0.4493
   54MOL0     C 7162   0.416   8.343   8.358 -0.1337 -0.3559 -0.4603
   54MOL0     O 7163   0.438   8.363   8.228  0.1420  0.3903 -0.2921
   54MOL0     C 7164   0.362   8.273   8.148 -0.2277  0.1777  0.1800
   54MOL0     C 7165   0.413   8.265   8.006  0.7539  0.0255  0.7236
   54MOL0     C 7166   0.538   8.171   8.006 -0.0802  1.0687  0.3686
   54MOL0     C 7167   0.577   8.132   7.862  0.8882 -0.1996  0.3498
   54MOL0     C 7168   0.702   8.053   7.841  0.2889  0.1751 -0.5217
   54MOL0     C 7169   0.681   7.901   7.878 -0.6700 -1.0851  0.8386
   54MOL0     C 7170   0.786   7.816   7.821  0.8991 -0.1703 -0.5398
   54MOL0     C 7171   0.753   7.763   7.674 -0.6207 -0.5398  0.4022
   54MOL0     N 7172   0.816   7.643   7.631 -0.4823  0.5295 -0.2627
   54MOL0     C 7173   0.947   7.620   7.615 -0.3040 -0.4325 -0.1996
   54MOL0     C 7174   0.959   7.498   7.558 -0.4115  0.2394 -0.1670
   54MOL0     C 7175   1.091   7.438   7.512  0.0379  0.0873  0.8410
   54MOL0     C 7176   1.126   7.310   7.589 -0.3871 -0.4381 -0.5290
   54MOL0     C 7177   1.183   7.338   7.729 -0.1828  0.0249  0.5007
   54MOL0     C 7178   1.072   7.362   7.835 -0.4271  0.5435 -0.5425
   54MOL0     O 7179   1.128   7.419   7.955 -0.4222  0.2733  1.0037
   54MOL0     C 7180   1.111   7.551   7.976 -1.3516  0.6274 -0.4022
   54MOL0     C 7181   1.146   7.644   7.885 -0.9056 -1.1590 -0.8974
   54MOL0     C 7182   1.130   7.793   7.912  0.4507 -0.4312  0.5941
   54MOL0     C 7183   1.174   7.893   7.803  0.5953 -0.1499 -0.1632
   54MOL0     C 7184   1.096   7.828   8.040 -0.7098 -0.7276 -1.0279
   54MOL0     C 7185   1.101   7.953   8.098 -0.1096 -1.2474  0.3556
   54MOL0     O 7186   1.224   8.002   8.122 -1.1816  0.1104  0.4930
   54MOL0     C 7187   1.230   8.137   8.162 -0.9382 -0.7646 -0.4082
   54MOL0     C 7188   1.255   8.241   8.071 -0.4700 -0.1159 -0.1514
   54MOL0     C 7189   1.250   8.378   8.109  0.0451 -0.5530 -0.9989
   54MOL0     C 7190   1.264   8.411   8.251  0.7433  0.9353 -0.0660
   54MOL0     O 7191   1.284   8.532   8.313 -0.1771 -0.5271  0.1116
   54MOL0     C 7192   1.261   8.650   8.234  0.4527 -0.5906  0.0387
   54MOL0     C 7193   1.293   8.770   8.317 -0.4754 -0.2501 -0.1733
   54MOL0     C 7194   1.327   8.892   8.225 -0.2794 -0.1519 -0.2869
   54MOL0     C 7195   1.203   8.945   8.151 -0.7624 -0.5778 -0.3646
   54MOL0     C 7196   1.242   9.065   8.065 -0.2728  0.5487 -0.2413
   54MOL0     C 7197   1.316   9.034   7.931  0.7495  0.2837 -0.7225
   54MOL0     C 7198   1.407   9.151   7.872  0.0857 -0.1777  0.1383
   54MOL0     C 7199   1.535   9.172   7.955  0.2101 -0.8239 -0.1807
   54MOL0    Cl 7200   1.596   9.026   8.045 -0.2208  0.2135  0.0814
   54MOL0     C 7201   1.241   8.306   8.346  0.3391  0.1922  0.0327
   54MOL0     C 7202   1.224   8.176   8.295  0.0411 -0.1168 -0.5901
   54MOL0     O 7203   0.997   8.004   8.136 -0.7608  0.1733  0.8394
   54MOL0     C 7204   1.054   7.725   8.134  0.1857 -0.0763  0.9146
   54MOL0     C 7205   1.055   7.584   8.100  0.3006  0.7348 -0.3324
   54MOL0     N 7206   0.839   7.445   7.545 -0.4305 -0.3466  0.3049
   54MOL0     N 7207   0.752   7.526   7.593 -0.0964  0.3225 -0.5303
   54MOL0     C 7208   0.287   8.377   8.410  0.2807  0.3991 -0.1772
   54MOL0     C 7209   0.274   8.362   8.547 -0.3911  0.7311  0.5361
   54MOL0     C 7210   0.195   8.149   8.925  0.9403 -0.1552 -0.1718
   54MOL0     C 7211   0.283   8.185   9.035 -0.1539 -0.1300 -0.0946
   54MOL0     C 7212   0.251   8.153   9.167 -0.4308  0.3191 -0.1984
   54MOL0     C 7213   0.130   8.086   9.193  1.6630 -0.1386  0.9998
   54MOL0     O 7214   0.084   8.040   9.314  0.0299  0.8839  0.2198
   54MOL0     C 7215   0.151   8.060   9.434 -0.1862  0.0906  0.2233
   54MOL0     C 7216   0.253   7.953   9.430  0.3462  0.5287 -0.5273
   54MOL0     C 7217   0.350   7.964   9.551 -0.3570  0.1041  0.9288
   54MOL0     C 7218   0.442   7.845   9.582  0.8065  0.6699 -0.4616
   54MOL0     C 7219   0.522   7.810   9.470 -0.3352 -0.2920  0.4992
   54MOL0     C 7220   0.608   7.785   9.382 -0.7679 -0.5639  0.3728
   54MOL0     C 7221   0.030   8.072   9.086  0.1584  0.0609 -0.0619
   54MOL0     C 7222   0.067   8.095   8.959 -0.2515 -0.1253 -0.3479
   54MOL0     H 7223   0.562   8.214   8.645 -2.7208 -2.4207  2.3305
   54MOL0     H 7224   0.603   8.250   8.391  0.6513  1.6563 -2.3713
   54MOL0     H 7225   0.362   8.172   8.190 -3.8140 -0.5530 -1.2179
   54MOL0     H 7226   0.256   8.301   8.154  0.4649  3.1990  0.1055
   54MOL0     H 7227   0.326   8.225   7.951 -0.4905 -0.7788  3.1366
   54MOL0     H 7228   0.444   8.360   7.961 -1.6876  0.3618 -0.4792
   54MOL0     H 7229   0.625   8.205   8.062 -0.2011 -1.9405  2.5850
   54MOL0     H 7230   0.503   8.080   8.055  2.4257 -0.3146 -0.2539
   54MOL0     H 7231   0.488   8.088   7.817  0.5819  2.8937 -2.3793
   54MOL0     H 7232   0.577   8.217   7.794 -2.8749 -2.8333 -3.4292
   54MOL0     H 7233   0.728   8.060   7.735 -0.4065 -1.5017 -0.8348
   54MOL0     H 7234   0.769   8.101   7.912  1.7293 -0.1896 -1.6003
   54MOL0     H 7235   0.681   7.903   7.988 -0.9581  0.4690  0.8301
   54MOL0     H 7236   0.589   7.853   7.844  0.9815 -1.6296 -3.4201
   54MOL0     H 7237   0.879   7.871   7.807 -0.2383  2.6491  1.7428
   54MOL0     H 7238   0.802   7.742   7.900  0.7805 -0.3464 -0.6800
   54MOL0     H 7239   0.782   7.837   7.599  2.6737 -1.7548  0.2948
   54MOL0     H 7240   0.644   7.759   7.669 -0.5924 -0.4335 -0.4212
   54MOL0     H 7241   1.029   7.681   7.651  0.5433  0.0890 -2.8300
   54MOL0     H 7242   1.085   7.417   7.405  1.3869  1.1710  0.5145
   54MOL0     H 7243   1.180   7.503   7.504  2.6448 -3.4666 -2.6016
   54MOL0     H 7244   1.195   7.246   7.533  1.2128 -1.3569  2.3004
   54MOL0     H 7245   1.036   7.250   7.604  0.3648 -1.2663  0.9418
   54MOL0     H 7246   1.250   7.424   7.721 -1.0033  0.7028  0.8369
   54MOL0     H 7247   1.255   7.262   7.762  0.9942  0.7313 -0.3539
   54MOL0     H 7248   1.034   7.261   7.857 -2.8851  1.8954  2.0313
   54MOL0     H 7249   1.009   7.444   7.802  0.2480  0.8904 -0.9855
   54MOL0     H 7250   1.177   7.607   7.787 -0.6628  1.9085 -2.0874
   54MOL0     H 7251   1.103   7.976   7.807  0.1880 -0.5220  0.8118
   54MOL0     H 7252   1.275   7.925   7.831  0.6093 -0.1832 -0.1751
   54MOL0     H 7253   1.181   7.853   7.702  1.7538  0.3163 -0.2778
   54MOL0     H 7254   1.260   8.225   7.964 -2.2733  0.4853 -0.3665
   54MOL0     H 7255   1.265   8.461   8.041 -2.4240 -1.7070 -3.1294
   54MOL0     H 7256   1.323   8.647   8.143 -1.2424 -2.9287 -1.1382
   54MOL0     H 7257   1.153   8.650   8.219 -0.1971  0.6543  3.7868
   54MOL0     H 7258   1.218   8.783   8.396 -1.6062  0.1657 -1.2987
   54MOL0     H 7259   1.389   8.742   8.363 -0.1311  0.6990 -0.2813
   54MOL0     H 7260   1.415   8.861   8.166  1.2017  0.1712  1.6482
   54MOL0     H 7261   1.363   8.975   8.288 -4.1219  0.4446  1.3699
   54MOL0     H 7262   1.156   8.867   8.089  0.1832 -0.2213 -1.5489
   54MOL0     H 7263   1.132   8.971   8.230 -0.9878  0.2435 -0.8371
   54MOL0     H 7264   1.304   9.134   8.122 -1.4329  0.5708  1.0202
   54MOL0     H 7265   1.151   9.114   8.030 -1.2071  0.5459  2.0424
   54MOL0     H 7266   1.363   8.936   7.942 -2.5438 -1.0936  3.7929
   54MOL0     H 7267   1.235   9.007   7.863 -1.0006 -1.5023  1.8936
   54MOL0     H 7268   1.342   9.239   7.878 -0.8218 -0.7966 -0.4566
   54MOL0     H 7269   1.430   9.132   7.767  1.4633  0.7691  0.2445
   54MOL0     H 7270   1.513   9.252   8.026 -2.1297  0.9091 -2.6749
   54MOL0     H 7271   1.603   9.218   7.883  1.2167 -0.9912  0.6222
   54MOL0     H 7272   1.226   8.325   8.452  0.9260 -3.5585  0.9330
   54MOL0     H 7273   1.197   8.107   8.375 -1.1599 -0.0431 -0.9136
   54MOL0     H 7274   1.020   7.762   8.230 -2.6830 -0.3754  0.1025
   54MOL0     H 7275   1.028   7.514   8.178 -3.5907  2.2386 -0.0707
   54MOL0     H 7276   0.210   8.431   8.356 -0.9798 -0.6647  0.5117
   54MOL0     H 7277   0.178   8.371   8.595 -1.8375 -0.7838 -1.8649
   54MOL0     H 7278   0.378   8.232   9.012  0.3604 -0.9884  0.2372
   54MOL0     H 7279   0.329   8.174   9.239 -1.2863 -0.2369  0.9062
   54MOL0     H 7280   0.204   8.155   9.444 -0.8126  0.7066 -1.8334
   54MOL0     H 7281   0.091   8.038   9.524  1.6871 -0.7280  1.3241
   54MOL0     H 7282   0.306   7.947   9.334 -2.4227 -0.8689 -2.1033
   54MOL0     H 7283   0.188   7.865   9.438 -2.4758  2.3736 -1.8902
   54MOL0     H 7284   0.286   7.967   9.639 -3.5462  1.9536 -1.2629
   54MOL0     H 7285   0.408   8.057   9.545 -1.8056  1.1938  2.8806
   54MOL0     H 7286   0.373   7.766   9.613 -3.9274  4.4268 -0.2792
   54MOL0     H 7287   0.504   7.897   9.656 -1.9268  2.2925  0.8230
   54MOL0     H 7288   0.687   7.762   9.313 -0.8042 -1.1232  0.5175
   54MOL0     H 7289  -0.068   8.033   9.108  0.6968  0.3493  3.5281
   54MOL0     H 7290  -0.002   8.078   8.877 -1.0935 -1.9892  0.6754
   55MOL0     O 7291   6.773   6.988   6.906 -0.4518 -0.0632 -0.1882
   55MOL0     C 7292   6.743   6.884   6.954  0.8100 -0.6975  0.4337
   55MOL0     O 7293   6.665   6.875   7.075  1.0452  0.3226  0.2062
   55MOL0     C 7294   6.676   6.988   7.151 -0.9049 -0.8876 -0.6510
   55MOL0     C 7295   6.797   7.051   7.212  0.0601  0.5159  0.5216
   55MOL0     C 7296   6.795   7.168   7.299 -0.1027  0.9921 -0.2072
   55MOL0     C 7297   6.679   7.229   7.340 -0.2848  0.3109  0.1039
   55MOL0     O 7298   6.685   7.329   7.440  0.2057  0.4466  0.5703
   55MOL0     C 7299   6.570   7.341   7.527  0.7821 -0.3572  0.2908
   55MOL0     C 7300   6.595   7.444   7.647 -0.2683 -0.1135 -0.6710
   55MOL0     C 7301   6.488   7.429   7.755 -0.1439  0.5978  0.8068
   55MOL0     C 7302   6.463   7.540   7.852  0.9483  0.1483 -0.1255
   55MOL0     C 7303   6.332   7.528   7.925 -0.1180  0.6864 -0.2226
   55MOL0     C 7304   6.307   7.395   8.011 -0.3633  0.4500 -0.0217
   55MOL0     C 7305   6.205   7.421   8.121 -0.1675 -0.5375  0.3125
   55MOL0     C 7306   6.141   7.294   8.171  0.2965  0.3553 -0.7859
   55MOL0     N 7307   6.056   7.315   8.292  0.1657 -0.1328  0.3139
   55MOL0     C 7308   6.108   7.320   8.418  0.0714 -1.2044  0.2710
   55MOL0     C 7309   6.023   7.254   8.509 -0.4251  0.5107  0.1688
   55MOL0     C 7310   6.046   7.225   8.654 -0.0198 -0.8526 -0.7909
   55MOL0     C 7311   6.154   7.117   8.683 -0.0661  0.8940  0.5609
   55MOL0     C 7312   6.145   7.008   8.574  0.1198 -0.5430  0.6734
   55MOL0     C 7313   6.208   6.888   8.612 -1.0869  0.3890 -0.0286
   55MOL0     O 7314   6.202   6.794   8.504  0.2019  0.2789 -0.1705
   55MOL0     C 7315   6.299   6.700   8.496 -0.9306  0.6146  0.2633
   55MOL0     C 7316   6.355   6.644   8.608 -0.4033 -0.2172  0.7885
   55MOL0     C 7317   6.454   6.543   8.594  0.9240 -0.7822  0.5486
   55MOL0     C 7318   6.511   6.490   8.722 -0.5237  0.0941 -0.3837
   55MOL0     C 7319   6.493   6.505   8.461  1.0328  0.2239 -0.8734
   55MOL0     C 7320   6.586   6.393   8.426 -0.3296 -0.4154  0.6942
   55MOL0     O 7321   6.568   6.332   8.307 -0.0534  0.4449 -0.0560
   55MOL0     C 7322   6.628   6.219   8.282  0.5587  0.5253  0.0433
   55MOL0     C 7323   6.684   6.124   8.373  0.0107 -0.8075  0.2492
   55MOL0     C 7324   6.746   6.006   8.343 -0.1061  0.8136  0.4697
   55MOL0     C 7325   6.753   5.973   8.213  0.9416  0.4772  0.0311
   55MOL0     O 7326   6.798   5.851   8.172 -1.1423  0.3269  0.5585
   55MOL0     C 7327   6.859   5.743   8.249 -0.2333  0.0347 -1.2257
   55MOL0     C 7328   6.855   5.606   8.170 -0.5959  0.1803 -1.1954
   55MOL0     C 7329   6.884   5.470   8.250  0.4759  0.7374  0.2320
   55MOL0     C 7330   7.022   5.463   8.317 -0.8775  0.8010  0.7645
   55MOL0     C 7331   7.036   5.323   8.376 -0.6912  0.0300  0.3346
   55MOL0     C 7332   6.944   5.299   8.494 -0.1767 -0.2245 -0.2943
   55MOL0     C 7333   6.985   5.171   8.571 -0.3517  0.5205 -0.1489
   55MOL0     C 7334   6.909   5.168   8.696 -0.5600  0.2182  0.1481
   55MOL0    Cl 7335   6.731   5.197   8.692  0.6216  0.2552 -0.1125
   55MOL0     C 7336   6.709   6.058   8.113  0.0777 -0.4767  0.3150
   55MOL0     C 7337   6.653   6.177   8.152  0.5286  0.3140  0.6974
   55MOL0     O 7338   6.675   6.374   8.511  0.6923 -0.7725 -0.0047
   55MOL0     C 7339   6.425   6.565   8.348 -0.9521 -0.4034  0.2649
   55MOL0     C 7340   6.337   6.669   8.373  0.0319 -0.4235  0.1078
   55MOL0     N 7341   5.914   7.207   8.435 -0.4490 -0.5966  0.2584
   55MOL0     N 7342   5.935   7.249   8.306  1.0891 -0.5185  0.0879
   55MOL0     C 7343   6.559   7.161   7.294 -0.0066  0.1304  0.0422
   55MOL0     C 7344   6.563   7.054   7.201  0.2270 -0.3068  0.1489
   55MOL0     C 7345   6.790   6.763   6.882  0.4186  0.1905 -0.8140
   55MOL0     C 7346   6.917   6.752   6.824  0.2559 -0.2134 -0.3882
   55MOL0     C 7347   6.950   6.628   6.772  0.3911 -0.3437 -0.2437
   55MOL0     C 7348   6.843   6.528   6.758 -0.8970 -0.1195 -0.3761
   55MOL0     O 7349   6.851   6.418   6.679 -0.3011  0.0464  0.5804
   55MOL0     C 7350   6.978   6.373   6.633 -0.0514  0.5709 -0.6755
   55MOL0     C 7351   6.957   6.228   6.597  0.1069 -0.0855  0.8406
   55MOL0     C 7352   7.085   6.147   6.589 -0.7096  0.2418 -0.2560
   55MOL0     C 7353   7.124   6.118   6.742  0.7790 -0.3234  0.0424
   55MOL0     C 7354   7.258   6.052   6.757  0.1385  0.9392 -0.8226
   55MOL0     C 7355   7.360   5.998   6.792  0.4372  0.5742 -0.7251
   55MOL0     C 7356   6.717   6.542   6.818 -0.2208  0.2364 -0.4678
   55MOL0     C 7357   6.699   6.656   6.888  0.2361  0.7623 -0.3374
   55MOL0     H 7358   6.895   7.010   7.191  1.1540  3.1640 -0.0215
   55MOL0     H 7359   6.888   7.209   7.337  0.2371  2.8653 -2.7511
   55MOL0     H 7360   6.487   7.371   7.462  1.2338 -2.6139 -1.4367
   55MOL0     H 7361   6.528   7.251   7.574 -1.2039 -0.3215 -1.2536
   55MOL0     H 7362   6.693   7.429   7.694 -1.5865  2.0698  3.2562
   55MOL0     H 7363   6.584   7.547   7.614  0.3716  0.2774  0.2920
   55MOL0     H 7364   6.394   7.408   7.703  0.6906  2.0944 -1.4898
   55MOL0     H 7365   6.526   7.344   7.812 -3.0068  0.1223  2.1546
   55MOL0     H 7366   6.551   7.530   7.915  0.6543 -1.6026  0.0752
   55MOL0     H 7367   6.462   7.643   7.814  0.7518  0.5018  0.8193
   55MOL0     H 7368   6.321   7.616   7.989 -1.0345 -0.4255  1.2298
   55MOL0     H 7369   6.250   7.533   7.853 -1.1913 -1.5471  0.7240
   55MOL0     H 7370   6.260   7.315   7.954 -1.2083  2.4171 -2.2184
   55MOL0     H 7371   6.396   7.364   8.066 -1.4197  0.7683  1.9558
   55MOL0     H 7372   6.244   7.477   8.207  0.1930  0.9548 -0.7714
   55MOL0     H 7373   6.122   7.478   8.078 -0.0973  0.6432  1.6644
   55MOL0     H 7374   6.218   7.221   8.196  2.3144  2.2058 -1.2997
   55MOL0     H 7375   6.098   7.248   8.081  0.6856 -1.4558 -0.0962
   55MOL0     H 7376   6.189   7.379   8.461 -0.3747 -0.9778  0.8128
   55MOL0     H 7377   6.083   7.321   8.691 -0.1740 -1.3917  0.8864
   55MOL0     H 7378   5.951   7.193   8.700  0.5775 -0.2786  0.9133
   55MOL0     H 7379   6.138   7.075   8.782  1.0791  0.6310  0.6492
   55MOL0     H 7380   6.254   7.159   8.670  0.7833 -0.8651  1.1134
   55MOL0     H 7381   6.188   7.034   8.476 -0.0440 -0.2756  0.6715
   55MOL0     H 7382   6.041   6.981   8.551  0.2949 -0.6778  0.0072
   55MOL0     H 7383   6.168   6.844   8.705  2.8179  0.3843  1.8450
   55MOL0     H 7384   6.315   6.900   8.631 -0.9026  0.2775 -0.9409
   55MOL0     H 7385   6.326   6.674   8.708 -0.3924  0.0884  0.7001
   55MOL0     H 7386   6.620   6.475   8.723 -0.6490 -0.9561 -1.0384
   55MOL0     H 7387   6.492   6.564   8.799 -0.0237 -1.5071  1.3618
   55MOL0     H 7388   6.472   6.390   8.744 -1.5781  1.0618  2.5153
   55MOL0     H 7389   6.684   6.135   8.481  4.1947 -1.7795  0.5476
   55MOL0     H 7390   6.775   5.935   8.420 -2.1887 -1.5069 -0.7068
   55MOL0     H 7391   6.964   5.761   8.274 -0.4416 -2.2283  1.8843
   55MOL0     H 7392   6.810   5.725   8.345  1.3827 -0.3877 -0.4421
   55MOL0     H 7393   6.756   5.590   8.127  0.3167  0.6317 -3.6202
   55MOL0     H 7394   6.925   5.620   8.087 -3.2202  2.1571 -3.2602
   55MOL0     H 7395   6.863   5.387   8.182  3.4966 -2.7797  3.1349
   55MOL0     H 7396   6.807   5.454   8.327  1.1810 -1.5753  0.5365
   55MOL0     H 7397   7.107   5.469   8.248  1.0901 -2.7752  2.5094
   55MOL0     H 7398   7.044   5.537   8.395  0.4071 -0.0135  1.2183
   55MOL0     H 7399   7.141   5.317   8.407 -1.3957 -1.1370  2.7276
   55MOL0     H 7400   7.028   5.250   8.295  1.0648  1.4500 -1.2103
   55MOL0     H 7401   6.948   5.391   8.553  0.1890 -0.4361  0.0201
   55MOL0     H 7402   6.840   5.292   8.464 -0.7779 -2.2353  1.9165
   55MOL0     H 7403   7.090   5.185   8.600 -0.8897  2.4511  1.0198
   55MOL0     H 7404   6.975   5.076   8.518 -0.7196  0.8256 -0.6374
   55MOL0     H 7405   6.931   5.255   8.758  1.1993  0.4737 -0.7880
   55MOL0     H 7406   6.938   5.081   8.756 -0.3367 -0.5735 -1.0697
   55MOL0     H 7407   6.709   6.039   8.006  1.5911  0.3490  0.1443
   55MOL0     H 7408   6.603   6.234   8.075  3.1306 -0.6766 -1.9216
   55MOL0     H 7409   6.454   6.543   8.246  2.5607 -0.6084  1.1813
   55MOL0     H 7410   6.277   6.731   8.307 -0.6425 -3.0218 -1.8498
   55MOL0     H 7411   6.471   7.223   7.305  1.1765  1.9714 -0.3211
   55MOL0     H 7412   6.471   7.004   7.173  0.6427 -1.7022  1.1927
   55MOL0     H 7413   6.983   6.837   6.810  1.0777 -1.0557 -1.9280
   55MOL0     H 7414   7.046   6.622   6.723  0.0513 -0.1132 -0.9467
   55MOL0     H 7415   7.006   6.417   6.537  2.3523  1.5042  0.3906
   55MOL0     H 7416   7.051   6.380   6.714 -1.5698  1.7882  0.6587
   55MOL0     H 7417   6.896   6.231   6.505  1.7606  0.7776 -0.2735
   55MOL0     H 7418   6.888   6.183   6.669 -0.6770 -2.7127 -1.3549
   55MOL0     H 7419   7.165   6.208   6.548  0.7379 -0.1757  1.7991
   55MOL0     H 7420   7.084   6.049   6.541  1.3363 -1.3957  2.7397
   55MOL0     H 7421   7.062   6.039   6.787 -1.8222 -0.0931 -2.8145
   55MOL0     H 7422   7.133   6.207   6.804  1.2343 -1.2732  1.3875
   55MOL0     H 7423   7.443   5.946   6.836 -0.3481  0.3177  0.5096
   55MOL0     H 7424   6.647   6.460   6.807 -1.6503  1.2521  0.6590
   55MOL0     H 7425   6.600   6.676   6.929 -1.0640 -4.7529  0.0059
   56MOL0     O 7426   5.175   4.654   1.190  0.3151 -0.2293  0.1021
   56MOL0     C 7427   5.221   4.705   1.092  0.1869  0.5831  0.1236
   56MOL0     O 7428   5.269   4.647   0.978  0.9636 -0.1468 -0.8105
   56MOL0     C 7429   5.239   4.516   0.972  0.3723  0.9019 -0.3408
   56MOL0     C 7430   5.330   4.414   1.015  0.3581 -1.3162 -1.0757
   56MOL0     C 7431   5.301   4.280   1.001  0.1943  0.2832 -0.6316
   56MOL0     C 7432   5.180   4.245   0.941  0.8003 -0.1881  0.1905
   56MOL0     O 7433   5.161   4.118   0.925 -0.4681  0.7591  0.6179
   56MOL0     C 7434   5.032   4.051   0.901 -1.3757 -0.0704 -0.4521
   56MOL0     C 7435   4.960   4.011   1.029  0.2501 -1.0238  0.2511
   56MOL0     C 7436   4.835   3.939   0.995  0.4585  0.2975  0.0089
   56MOL0     C 7437   4.792   3.839   1.094 -0.2564 -0.5104  0.5378
   56MOL0     C 7438   4.676   3.765   1.049  0.1153  0.4709 -0.2800
   56MOL0     C 7439   4.547   3.823   1.095 -0.1557 -0.5052  0.2311
   56MOL0     C 7440   4.436   3.710   1.104  0.3677  0.3760 -0.0592
   56MOL0     C 7441   4.298   3.772   1.123 -0.3185  0.3852  0.9583
   56MOL0     N 7442   4.263   3.862   1.235 -0.1565  0.1688 -0.6020
   56MOL0     C 7443   4.233   3.817   1.357 -0.0639 -0.5241 -0.3489
   56MOL0     C 7444   4.189   3.924   1.440  0.7572 -0.1789 -0.3712
   56MOL0     C 7445   4.135   3.902   1.575 -0.0525 -0.3951  0.1339
   56MOL0     C 7446   3.983   3.889   1.578  0.6456  0.0992 -0.4804
   56MOL0     C 7447   3.925   4.029   1.567  0.2806  1.0470 -0.2392
   56MOL0     C 7448   3.781   4.033   1.620  0.0001  0.5475  0.5918
   56MOL0     O 7449   3.755   3.990   1.750  0.5922  0.6558 -0.0235
   56MOL0     C 7450   3.826   4.033   1.856  0.2182 -0.5404  0.4570
   56MOL0     C 7451   3.833   4.171   1.893 -0.2418  0.1677 -0.6305
   56MOL0     C 7452   3.917   4.210   2.007  0.0225 -0.1428 -0.0910
   56MOL0     C 7453   3.909   4.354   2.049  0.8077  0.0248 -0.3256
   56MOL0     C 7454   3.983   4.113   2.088  0.3413  0.4425  0.5662
   56MOL0     C 7455   4.061   4.139   2.208  0.1983  0.6759 -0.0107
   56MOL0     O 7456   4.137   4.254   2.213 -0.0392 -0.0949 -0.6281
   56MOL0     C 7457   4.216   4.263   2.320  0.1700  1.1888 -1.0456
   56MOL0     C 7458   4.167   4.336   2.427 -0.6174  0.4171  0.6673
   56MOL0     C 7459   4.246   4.343   2.543  1.0281  0.1544  1.3230
   56MOL0     C 7460   4.373   4.286   2.550 -0.2520  0.7474  0.1741
   56MOL0     O 7461   4.439   4.302   2.658  0.3303  0.4783 -0.7974
   56MOL0     C 7462   4.463   4.438   2.708 -0.7988 -0.5952  0.2539
   56MOL0     C 7463   4.578   4.465   2.805  0.5799  0.3929 -0.0868
   56MOL0     C 7464   4.595   4.368   2.920 -0.2237  0.1277  0.3946
   56MOL0     C 7465   4.466   4.358   3.005 -1.2601  0.1066 -0.3378
   56MOL0     C 7466   4.480   4.281   3.140  0.4104 -0.3702 -0.9930
   56MOL0     C 7467   4.352   4.288   3.216 -0.0215  0.3201 -0.9128
   56MOL0     C 7468   4.363   4.212   3.344 -0.2215  0.2245  0.4918
   56MOL0     C 7469   4.227   4.189   3.412 -0.3550  1.0437 -0.2141
   56MOL0    Cl 7470   4.196   4.352   3.483 -0.0839 -0.3273 -0.0146
   56MOL0     C 7471   4.424   4.224   2.437 -0.2104  0.6829 -1.1732
   56MOL0     C 7472   4.343   4.210   2.328  0.2212 -0.4988 -0.1233
   56MOL0     O 7473   4.046   4.054   2.300  0.3037 -1.0635 -0.3771
   56MOL0     C 7474   3.971   3.979   2.048  0.6152 -0.1696  0.2647
   56MOL0     C 7475   3.893   3.938   1.937  1.5729 -0.4969 -0.0260
   56MOL0     N 7476   4.206   4.044   1.361  0.1929 -0.3572  0.0669
   56MOL0     N 7477   4.260   4.003   1.243 -0.6580 -0.2540 -0.9847
   56MOL0     C 7478   5.086   4.345   0.899 -0.8789 -0.5746  0.0600
   56MOL0     C 7479   5.117   4.483   0.915  0.4498  0.3062 -0.1843
   56MOL0     C 7480   5.231   4.857   1.096 -0.0702 -0.2588 -0.3576
   56MOL0     C 7481   5.273   4.923   0.978 -0.8271 -0.7401 -0.6619
   56MOL0     C 7482   5.272   5.066   0.977  0.5356 -0.7695 -0.9376
   56MOL0     C 7483   5.251   5.144   1.095  0.0786 -0.6247  0.5605
   56MOL0     O 7484   5.260   5.280   1.073  0.3309 -0.4411 -0.3787
   56MOL0     C 7485   5.229   5.372   1.176 -0.2370 -0.2643 -1.1837
   56MOL0     C 7486   5.261   5.524   1.132  0.6829 -1.3488 -1.2522
   56MOL0     C 7487   5.392   5.543   1.055 -1.1109 -0.0570  1.0203
   56MOL0     C 7488   5.418   5.697   1.042 -0.0447  0.2543  1.0414
   56MOL0     C 7489   5.307   5.768   0.963 -0.7359 -0.0417  0.2083
   56MOL0     C 7490   5.215   5.820   0.905 -0.2334  0.5561  0.2992
   56MOL0     C 7491   5.219   5.074   1.205 -0.1889 -0.0636  0.3089
   56MOL0     C 7492   5.215   4.935   1.209 -0.1392 -0.3597 -0.9636
   56MOL0     H 7493   5.424   4.448   1.057  0.6944 -0.9996 -2.0653
   56MOL0     H 7494   5.367   4.201   1.034 -0.0162 -0.2793 -1.5146
   56MOL0     H 7495   4.962   4.096   0.830 -0.4717  1.6978 -0.2789
   56MOL0     H 7496   5.056   3.956   0.855 -1.2765 -0.0581 -0.4261
   56MOL0     H 7497   5.017   3.955   1.105 -0.5087  1.3656  2.7386
   56MOL0     H 7498   4.931   4.103   1.080 -4.0588 -1.3975 -1.1556
   56MOL0     H 7499   4.752   4.010   0.998  1.3348  1.3888 -0.8611
   56MOL0     H 7500   4.846   3.886   0.900  3.2790  2.5178 -1.0354
   56MOL0     H 7501   4.864   3.757   1.108 -0.8421 -1.1214  0.0296
   56MOL0     H 7502   4.778   3.885   1.192 -1.8832  1.3201 -0.5141
   56MOL0     H 7503   4.685   3.750   0.941  0.4751  4.1078 -0.8573
   56MOL0     H 7504   4.690   3.664   1.090 -1.5395  0.7877  1.1915
   56MOL0     H 7505   4.557   3.867   1.195  0.2566  0.2352 -0.1286
   56MOL0     H 7506   4.522   3.896   1.017  0.0764  0.8306  1.3607
   56MOL0     H 7507   4.425   3.663   1.006 -3.4318  1.0128 -0.1151
   56MOL0     H 7508   4.467   3.631   1.173  0.9238 -0.8605 -1.6610
   56MOL0     H 7509   4.226   3.690   1.108 -0.6858  0.9076 -0.2082
   56MOL0     H 7510   4.273   3.829   1.033  2.9446  4.0222  2.1246
   56MOL0     H 7511   4.232   3.715   1.396  0.5259  0.5014  2.6031
   56MOL0     H 7512   4.163   3.811   1.629  1.7561  1.3449  2.3421
   56MOL0     H 7513   4.179   3.968   1.650  0.1321 -1.9302  1.4427
   56MOL0     H 7514   3.950   3.838   1.668 -1.8090  0.9390 -0.8445
   56MOL0     H 7515   3.954   3.831   1.490 -0.1781  2.7929 -2.1305
   56MOL0     H 7516   3.920   4.077   1.469 -1.0128  1.8775  0.2075
   56MOL0     H 7517   3.969   4.108   1.629 -1.1773  0.1136  2.1464
   56MOL0     H 7518   3.718   3.972   1.555  2.2585 -1.3137  0.0159
   56MOL0     H 7519   3.731   4.130   1.618 -0.3251  0.6245  4.3556
   56MOL0     H 7520   3.781   4.249   1.838 -3.1784  1.3714  3.3882
   56MOL0     H 7521   4.005   4.404   2.035  0.6214  0.9413  1.4199
   56MOL0     H 7522   3.831   4.412   1.998  0.5676  2.2248  2.3066
   56MOL0     H 7523   3.896   4.349   2.157  4.4665  1.5146  0.3321
   56MOL0     H 7524   4.067   4.376   2.439 -1.6244 -2.2136  2.1183
   56MOL0     H 7525   4.203   4.391   2.630  1.6308  0.6683  1.3445
   56MOL0     H 7526   4.492   4.498   2.621  0.4391  2.3382  2.5209
   56MOL0     H 7527   4.373   4.487   2.747 -0.2361  0.1181  0.6664
   56MOL0     H 7528   4.668   4.485   2.747  0.6001  1.2258  0.2270
   56MOL0     H 7529   4.544   4.558   2.852 -3.1008 -0.0295 -1.5356
   56MOL0     H 7530   4.684   4.399   2.976  1.0493 -2.1071 -0.2760
   56MOL0     H 7531   4.618   4.272   2.874 -1.3433  0.8223 -1.7408
   56MOL0     H 7532   4.436   4.462   3.023 -1.2661 -0.1322  1.1793
   56MOL0     H 7533   4.387   4.310   2.947 -0.9901 -2.8448  1.5227
   56MOL0     H 7534   4.549   4.328   3.211 -3.5074  0.3979  2.7324
   56MOL0     H 7535   4.491   4.173   3.130  0.6262 -0.2882 -1.6627
   56MOL0     H 7536   4.327   4.390   3.244 -2.3476 -0.4104 -0.1095
   56MOL0     H 7537   4.264   4.258   3.157  1.6544 -1.7692 -2.5569
   56MOL0     H 7538   4.418   4.271   3.418 -3.3332  2.0667  1.5226
   56MOL0     H 7539   4.417   4.117   3.340 -0.4480 -0.5079  6.2817
   56MOL0     H 7540   4.228   4.107   3.485 -0.5056 -1.8036 -3.1426
   56MOL0     H 7541   4.143   4.172   3.344 -0.9757  5.2265 -0.7278
   56MOL0     H 7542   4.522   4.180   2.451  0.1290  1.5965 -0.6589
   56MOL0     H 7543   4.378   4.146   2.248  3.8919  1.2942 -0.2018
   56MOL0     H 7544   4.007   3.890   2.097  0.7574 -0.5575 -0.5300
   56MOL0     H 7545   3.874   3.832   1.921  1.0505 -1.7047  6.2766
   56MOL0     H 7546   4.999   4.327   0.837  0.1877  3.1341 -2.9182
   56MOL0     H 7547   5.056   4.564   0.875  0.7608  1.6445  1.8991
   56MOL0     H 7548   5.297   4.862   0.892  1.6608 -2.1345  0.8772
   56MOL0     H 7549   5.308   5.113   0.886  2.1145  3.1193  1.4158
   56MOL0     H 7550   5.124   5.346   1.195 -0.2263  1.2049  1.3193
   56MOL0     H 7551   5.297   5.354   1.259 -0.1482 -0.0521 -1.2083
   56MOL0     H 7552   5.268   5.593   1.217 -2.4242 -1.8125 -0.5140
   56MOL0     H 7553   5.173   5.551   1.074  0.5790 -2.4122 -1.6038
   56MOL0     H 7554   5.388   5.482   0.964 -0.2495 -2.3634  2.4235
   56MOL0     H 7555   5.474   5.492   1.107  0.0960 -0.2671 -0.9757
   56MOL0     H 7556   5.516   5.702   0.995 -1.6216 -3.1103 -3.2756
   56MOL0     H 7557   5.435   5.745   1.139 -1.2274  2.4309  0.2419
   56MOL0     H 7558   5.148   5.883   0.850  0.2931  1.4459  0.6571
   56MOL0     H 7559   5.203   5.126   1.300  2.2542 -1.9490  1.8753
   56MOL0     H 7560   5.182   4.897   1.305 -1.0781  0.9622 -0.7327
   57MOL0     O 7561   2.152   1.909   4.520  0.5585 -0.6003 -0.6823
   57MOL0     C 7562   2.110   1.891   4.635 -0.6150 -0.2313  0.0880
   57MOL0     O 7563   2.142   1.790   4.716 -0.8456  0.9458  0.4633
   57MOL0     C 7564   2.264   1.732   4.688 -0.0941  0.2635  0.7722
   57MOL0     C 7565   2.265   1.593   4.703  1.6234 -0.0208 -0.0329
   57MOL0     C 7566   2.379   1.515   4.669  0.7896 -0.4389 -0.3934
   57MOL0     C 7567   2.505   1.578   4.638  0.5418  0.1507  0.6798
   57MOL0     O 7568   2.607   1.494   4.593  0.4802 -1.0284 -0.3920
   57MOL0     C 7569   2.745   1.537   4.624 -0.0826  1.1874 -1.1510
   57MOL0     C 7570   2.772   1.543   4.772  0.4930  0.5751 -0.2748
   57MOL0     C 7571   2.770   1.395   4.841 -0.1300  0.5225 -0.4490
   57MOL0     C 7572   2.855   1.380   4.974 -0.1451 -0.4769 -0.3377
   57MOL0     C 7573   2.834   1.252   5.052 -0.8132 -0.0726  0.0535
   57MOL0     C 7574   2.905   1.272   5.182 -0.0889  0.2863  0.7776
   57MOL0     C 7575   2.928   1.145   5.256  0.2283 -0.1333 -0.3562
   57MOL0     C 7576   2.969   1.146   5.404 -1.0167  0.1177 -0.5663
   57MOL0     N 7577   2.975   0.997   5.439  0.3680  0.4638  0.0609
   57MOL0     C 7578   3.091   0.925   5.440 -0.0929  0.0825  0.3959
   57MOL0     C 7579   3.046   0.806   5.482  0.1049 -0.2850 -0.5382
   57MOL0     C 7580   3.126   0.680   5.505  0.1763  0.2584 -1.1859
   57MOL0     C 7581   3.162   0.660   5.652  0.6057  0.5731 -0.6865
   57MOL0     C 7582   3.225   0.782   5.719  0.1491 -1.0014  0.7719
   57MOL0     C 7583   3.237   0.766   5.876 -0.3653 -0.5817  0.4368
   57MOL0     O 7584   3.285   0.633   5.898 -0.6791  0.8079 -0.2341
   57MOL0     C 7585   3.346   0.616   6.022 -0.1520 -0.2435 -0.2998
   57MOL0     C 7586   3.461   0.533   6.029  0.2637  0.3183 -0.4969
   57MOL0     C 7587   3.528   0.494   6.141  0.7526 -0.0516  0.0727
   57MOL0     C 7588   3.648   0.395   6.132 -0.1867  0.3532  0.6157
   57MOL0     C 7589   3.485   0.556   6.259 -0.0266 -0.7211 -0.8859
   57MOL0     C 7590   3.533   0.521   6.393 -0.2709  0.1396  0.5790
   57MOL0     O 7591   3.437   0.495   6.484  0.5031 -0.0179 -0.0145
   57MOL0     C 7592   3.473   0.471   6.612 -0.0895  0.1899  0.3991
   57MOL0     C 7593   3.475   0.566   6.714 -0.5180 -0.5734  0.9692
   57MOL0     C 7594   3.498   0.535   6.841 -0.3350  0.6460 -0.6910
   57MOL0     C 7595   3.541   0.407   6.876 -0.2825  0.2875  0.1200
   57MOL0     O 7596   3.587   0.377   6.999  1.3302  0.2626 -0.0034
   57MOL0     C 7597   3.486   0.409   7.099 -0.5449  0.1007  0.4091
   57MOL0     C 7598   3.480   0.327   7.233  0.7107  0.8359  0.1348
   57MOL0     C 7599   3.503   0.177   7.212  0.5916 -0.5111  0.3531
   57MOL0     C 7600   3.474   0.099   7.349  0.6614  0.3063 -0.0887
   57MOL0     C 7601   3.581   0.111   7.451  0.0106  1.3479 -0.0642
   57MOL0     C 7602   3.546   0.005   7.566 -0.1930 -0.8889 -0.6333
   57MOL0     C 7603   3.410   0.022   7.642  0.0091 -0.1804 -0.6280
   57MOL0     C 7604   3.406  -0.058   7.772  0.6073 -0.2866 -0.1198
   57MOL0    Cl 7605   3.222  -0.074   7.813  0.2145  0.2623  0.0209
   57MOL0     C 7606   3.554   0.313   6.778  0.4030  0.5408  0.7313
   57MOL0     C 7607   3.513   0.335   6.643 -0.3721 -0.7124  0.3141
   57MOL0     O 7608   3.654   0.543   6.425 -0.0443  0.2144  0.0840
   57MOL0     C 7609   3.378   0.646   6.261  0.0438 -0.4293 -0.0109
   57MOL0     C 7610   3.305   0.675   6.142 -0.8860 -0.7123 -0.2756
   57MOL0     N 7611   2.914   0.809   5.517  0.0815  0.8379 -1.1291
   57MOL0     N 7612   2.868   0.920   5.478 -0.6383 -0.6457 -0.7896
   57MOL0     C 7613   2.512   1.720   4.637  0.4422 -1.0144  0.0118
   57MOL0     C 7614   2.386   1.795   4.662 -0.5448 -0.9210  1.1090
   57MOL0     C 7615   2.040   1.997   4.717 -0.0230  1.6096  0.8647
   57MOL0     C 7616   2.058   2.133   4.692  1.3403  0.2645  0.1331
   57MOL0     C 7617   2.009   2.228   4.780 -0.5966  0.0241 -0.0906
   57MOL0     C 7618   1.936   2.188   4.885  1.1116  0.9192  0.2804
   57MOL0     O 7619   1.902   2.295   4.955  0.3997 -0.2870 -0.0447
   57MOL0     C 7620   1.778   2.291   5.038 -0.1969  0.2094 -0.3351
   57MOL0     C 7621   1.796   2.383   5.159  0.5014  0.5191  0.1938
   57MOL0     C 7622   1.829   2.521   5.102 -0.3639 -0.6561 -0.5590
   57MOL0     C 7623   1.700   2.593   5.071 -0.2126  0.5398  0.7813
   57MOL0     C 7624   1.717   2.731   5.023 -0.3995  0.9761  0.3857
   57MOL0     C 7625   1.724   2.845   5.007 -0.1180 -0.0495 -0.2013
   57MOL0     C 7626   1.896   2.049   4.901 -0.2927  0.3717  0.7516
   57MOL0     C 7627   1.960   1.958   4.825 -0.2124  0.3364  0.2762
   57MOL0     H 7628   2.178   1.533   4.729  2.7874 -0.9568  1.9724
   57MOL0     H 7629   2.375   1.407   4.656 -0.5561 -0.2026 -2.1974
   57MOL0     H 7630   2.814   1.461   4.586  1.0679  1.7751 -0.3304
   57MOL0     H 7631   2.756   1.632   4.572 -1.4003 -0.2404 -4.3014
   57MOL0     H 7632   2.874   1.577   4.793  1.1135 -1.5693  0.3742
   57MOL0     H 7633   2.703   1.617   4.814  0.9165  0.5867  0.4239
   57MOL0     H 7634   2.668   1.361   4.862  0.5142 -0.9089  0.5676
   57MOL0     H 7635   2.808   1.328   4.764 -2.9920 -1.5517 -0.2220
   57MOL0     H 7636   2.960   1.394   4.946  0.0442 -2.2855 -0.6535
   57MOL0     H 7637   2.819   1.464   5.034 -2.9874 -2.2727  0.7165
   57MOL0     H 7638   2.726   1.239   5.066 -0.3405 -2.3071  2.2590
   57MOL0     H 7639   2.865   1.165   4.994  1.4348  1.8543 -1.8745
   57MOL0     H 7640   3.006   1.313   5.166 -0.7113  1.2472 -0.9608
   57MOL0     H 7641   2.832   1.332   5.237 -2.0381 -0.6178 -0.7001
   57MOL0     H 7642   2.833   1.091   5.249  0.0471  0.2484 -0.8753
   57MOL0     H 7643   3.000   1.089   5.196  1.7695  0.9424  0.4303
   57MOL0     H 7644   2.903   1.199   5.474  1.0870  1.4050  0.5809
   57MOL0     H 7645   3.059   1.209   5.409 -1.5558  0.9321 -0.9423
   57MOL0     H 7646   3.192   0.945   5.406 -0.0071 -2.6890 -1.3099
   57MOL0     H 7647   3.062   0.596   5.475  2.6509 -1.9163 -0.7195
   57MOL0     H 7648   3.214   0.671   5.441  0.5589 -0.5353 -0.5756
   57MOL0     H 7649   3.222   0.569   5.664  0.8042  0.9867  2.1647
   57MOL0     H 7650   3.068   0.649   5.707  0.0804  1.5925 -1.3495
   57MOL0     H 7651   3.171   0.876   5.703  2.4576  0.4548  1.0405
   57MOL0     H 7652   3.325   0.801   5.677  1.2298 -2.3055  2.6168
   57MOL0     H 7653   3.136   0.775   5.917  0.2333  4.4661  1.4188
   57MOL0     H 7654   3.308   0.843   5.906 -3.3313  1.1572  3.7733
   57MOL0     H 7655   3.490   0.498   5.931 -1.6629 -0.7787 -0.7370
   57MOL0     H 7656   3.741   0.440   6.168 -1.6534  2.4086  2.0408
   57MOL0     H 7657   3.639   0.310   6.201 -1.3663 -1.3377 -1.5102
   57MOL0     H 7658   3.654   0.360   6.029 -1.8696 -0.7136  0.8447
   57MOL0     H 7659   3.439   0.663   6.683 -3.1824 -2.4161 -2.4040
   57MOL0     H 7660   3.475   0.599   6.926 -2.9035 -0.3048 -0.6100
   57MOL0     H 7661   3.495   0.517   7.115 -0.0358  0.2418 -0.7223
   57MOL0     H 7662   3.389   0.403   7.050 -0.4090  2.8567 -0.3697
   57MOL0     H 7663   3.564   0.349   7.299  2.8407 -2.7122 -1.1160
   57MOL0     H 7664   3.382   0.342   7.279 -2.1970 -1.2656 -4.5623
   57MOL0     H 7665   3.599   0.151   7.168  0.2408 -2.8586  0.8732
   57MOL0     H 7666   3.437   0.138   7.133  3.1074 -0.4421 -1.9278
   57MOL0     H 7667   3.383   0.138   7.396 -0.5531 -0.7388 -1.4561
   57MOL0     H 7668   3.463  -0.008   7.330 -1.4464 -0.3128  3.5790
   57MOL0     H 7669   3.574   0.214   7.486 -1.0599  0.2831  3.2068
   57MOL0     H 7670   3.684   0.097   7.417  0.0860  1.1262  0.2486
   57MOL0     H 7671   3.560  -0.097   7.531  2.4516 -1.9827  2.9382
   57MOL0     H 7672   3.628   0.024   7.637  1.4777  0.0207 -2.6947
   57MOL0     H 7673   3.332   0.000   7.568  2.9678  1.1996 -4.5172
   57MOL0     H 7674   3.385   0.124   7.671  1.0088 -0.3270  0.8027
   57MOL0     H 7675   3.460  -0.018   7.859 -0.2515  1.5823 -0.4016
   57MOL0     H 7676   3.454  -0.156   7.765 -0.1972 -0.7020  0.0375
   57MOL0     H 7677   3.584   0.209   6.788 -0.3794  0.1970 -0.2600
   57MOL0     H 7678   3.523   0.263   6.563 -2.4443 -2.2866  1.3696
   57MOL0     H 7679   3.356   0.699   6.353 -2.6391  2.2037 -2.0152
   57MOL0     H 7680   3.231   0.754   6.151  1.0300  1.2745 -0.8796
   57MOL0     H 7681   2.591   1.789   4.606 -0.6912 -0.0694 -0.8621
   57MOL0     H 7682   2.398   1.902   4.655 -0.1656 -1.0883 -1.5382
   57MOL0     H 7683   2.111   2.173   4.606 -0.1040 -1.6906 -1.7574
   57MOL0     H 7684   2.025   2.331   4.749  2.5803 -1.3242 -3.7111
   57MOL0     H 7685   1.696   2.330   4.978 -0.9788 -0.0075  0.5763
   57MOL0     H 7686   1.755   2.189   5.071 -1.7320  0.8574  0.6840
   57MOL0     H 7687   1.881   2.348   5.218  0.9839  0.2078 -0.6766
   57MOL0     H 7688   1.708   2.378   5.223 -0.2347 -1.6835 -0.8968
   57MOL0     H 7689   1.908   2.514   5.026  0.4904 -2.4697  0.4311
   57MOL0     H 7690   1.872   2.583   5.181  1.2590 -1.4225 -0.8078
   57MOL0     H 7691   1.633   2.614   5.154 -0.7620  2.0541  0.0041
   57MOL0     H 7692   1.638   2.540   4.998  1.5608  2.4263 -2.3404
   57MOL0     H 7693   1.745   2.949   5.023 -1.9021  0.3416 -0.2091
   57MOL0     H 7694   1.832   2.015   4.983  2.5319 -1.9806  2.1804
   57MOL0     H 7695   1.947   1.852   4.846 -2.9905  0.6680  0.5425
   58MOL0     O 7696   6.359   7.126  10.173 -0.1048 -0.2290  0.1164
   58MOL0     C 7697   6.439   7.158  10.081 -0.2371  0.5320 -0.4418
   58MOL0     O 7698   6.514   7.067  10.016  0.2332 -0.4170  0.0563
   58MOL0     C 7699   6.474   6.933  10.027 -0.7602 -0.3294  0.6594
   58MOL0     C 7700   6.482   6.858  10.141  0.6414  0.4449  0.3440
   58MOL0     C 7701   6.465   6.717  10.125  0.2171 -0.7256 -1.0435
   58MOL0     C 7702   6.477   6.659  10.002 -0.2088  0.0470 -0.2619
   58MOL0     O 7703   6.483   6.522   9.999 -0.0827 -0.1362 -0.0564
   58MOL0     C 7704   6.608   6.464  10.029 -0.6756  0.6374 -0.1888
   58MOL0     C 7705   6.625   6.333   9.956  0.5466  0.1196  0.0818
   58MOL0     C 7706   6.745   6.258  10.019  0.0729 -0.1113  0.0247
   58MOL0     C 7707   6.792   6.157   9.914 -0.0726 -0.3250  0.9997
   58MOL0     C 7708   6.891   6.057   9.973 -0.0917  0.6145  0.0899
   58MOL0     C 7709   7.024   6.123  10.022  0.4285 -0.0980  0.5533
   58MOL0     C 7710   7.134   6.028  10.055  0.0961 -0.6575  0.1778
   58MOL0     C 7711   7.107   5.969  10.197  0.4495 -0.0868 -0.1369
   58MOL0     N 7712   7.116   6.084  10.298 -0.0491 -0.3444 -0.3185
   58MOL0     C 7713   7.229   6.142  10.336 -0.0675 -0.1042 -0.7791
   58MOL0     C 7714   7.193   6.238  10.423  0.6112 -0.2078  0.1262
   58MOL0     C 7715   7.278   6.330  10.507 -0.9151 -1.0952 -0.2020
   58MOL0     C 7716   7.371   6.262  10.612 -1.0047  0.1468 -0.1364
   58MOL0     C 7717   7.309   6.138  10.676 -0.1000 -1.2679 -0.3109
   58MOL0     C 7718   7.399   6.076  10.783  0.0193  1.3205  1.0653
   58MOL0     O 7719   7.530   6.049  10.738 -0.5064  0.0819 -0.8158
   58MOL0     C 7720   7.624   6.008  10.829 -0.2782 -0.2772 -0.6987
   58MOL0     C 7721   7.621   5.994  10.968 -0.6873 -0.4598 -1.7160
   58MOL0     C 7722   7.723   5.936  11.053  0.8654 -0.1286 -0.1108
   58MOL0     C 7723   7.688   5.950  11.199  0.1331  0.6382 -0.3545
   58MOL0     C 7724   7.842   5.905  10.989 -1.3682 -0.2250 -0.0230
   58MOL0     C 7725   7.961   5.840  11.054 -1.2083 -0.7132 -0.4547
   58MOL0     O 7726   8.066   5.810  10.971  0.0931  0.7262 -0.9809
   58MOL0     C 7727   8.177   5.746  11.023  0.5851  2.0290 -0.9560
   58MOL0     C 7728   8.259   5.811  11.110 -0.7526  0.6409 -0.3486
   58MOL0     C 7729   8.392   5.768  11.146 -0.7870  1.2326  0.4025
   58MOL0     C 7730   8.435   5.644  11.095 -0.3592 -0.3963  0.2439
   58MOL0     O 7731   8.554   5.604  11.133  0.6511 -0.3258 -0.8169
   58MOL0     C 7732   8.593   5.474  11.076  0.1955 -0.2850 -0.4019
   58MOL0     C 7733   8.733   5.421  11.112  1.2216 -0.8949  0.4992
   58MOL0     C 7734   8.754   5.397  11.263  0.7425  0.0581  0.2668
   58MOL0     C 7735   8.897   5.348  11.290 -0.6526 -0.0559 -0.0226
   58MOL0     C 7736   8.916   5.294  11.433 -0.4892  0.0430  0.3154
   58MOL0     C 7737   9.060   5.236  11.447  0.3514 -0.1502 -0.6719
   58MOL0     C 7738   9.151   5.350  11.490 -0.5822  0.0129 -0.7878
   58MOL0     C 7739   9.116   5.389  11.626  0.4779 -0.6982 -1.0261
   58MOL0    Cl 7740   9.247   5.347  11.739 -0.2441  0.1690  0.2487
   58MOL0     C 7741   8.347   5.569  11.008  0.0129  0.1494 -0.1648
   58MOL0     C 7742   8.210   5.617  10.981  0.3552  0.5958 -0.1217
   58MOL0     O 7743   7.967   5.842  11.176  0.1606  0.1866  0.0404
   58MOL0     C 7744   7.856   5.924  10.851 -0.1121  1.3000  0.1536
   58MOL0     C 7745   7.753   5.975  10.777 -0.2939 -0.7415  0.0145
   58MOL0     N 7746   7.056   6.241  10.429  0.0405  0.2184 -0.5592
   58MOL0     N 7747   7.011   6.135  10.365  0.2365 -0.1287 -0.5645
   58MOL0     C 7748   6.481   6.737   9.892  0.8909 -0.2317  0.4070
   58MOL0     C 7749   6.474   6.872   9.899 -0.3012  1.0936  0.8845
   58MOL0     C 7750   6.464   7.305  10.060  0.2911 -0.0585 -0.1217
   58MOL0     C 7751   6.396   7.404  10.139 -0.3194 -0.0663 -0.5250
   58MOL0     C 7752   6.431   7.540  10.121  0.3164  0.1987 -0.6850
   58MOL0     C 7753   6.529   7.577  10.031 -0.0116  0.4857  1.3612
   58MOL0     O 7754   6.541   7.708  10.012  0.4189  0.1302 -0.5709
   58MOL0     C 7755   6.503   7.775   9.889  0.1007  0.0530  1.1529
   58MOL0     C 7756   6.373   7.717   9.833 -0.1787 -0.1602  0.8436
   58MOL0     C 7757   6.335   7.793   9.705  1.0454  0.1194  0.1376
   58MOL0     C 7758   6.183   7.774   9.664 -0.6260 -0.5708  0.9420
   58MOL0     C 7759   6.144   7.634   9.641 -0.5680  0.8536 -0.0685
   58MOL0     C 7760   6.107   7.519   9.612  0.5377  0.4450  0.1215
   58MOL0     C 7761   6.593   7.480   9.949 -0.2766  0.1154  0.6999
   58MOL0     C 7762   6.558   7.347   9.968  0.4855 -0.5832  0.2517
   58MOL0     H 7763   6.480   6.906  10.239 -2.4995 -0.7743  0.9691
   58MOL0     H 7764   6.444   6.645  10.203 -1.5281  0.1453 -0.6688
   58MOL0     H 7765   6.691   6.531  10.003  1.3877 -0.5313  2.7929
   58MOL0     H 7766   6.626   6.461  10.137  3.4127  3.2011 -0.5835
   58MOL0     H 7767   6.533   6.275   9.966  0.3279  0.8308  3.2574
   58MOL0     H 7768   6.638   6.352   9.849 -2.1873 -0.9577 -0.5121
   58MOL0     H 7769   6.820   6.337  10.032 -0.7271  0.5058  1.0465
   58MOL0     H 7770   6.716   6.206  10.111 -1.4764 -1.8637 -1.3473
   58MOL0     H 7771   6.709   6.097   9.875  1.3484 -0.6284 -1.8360
   58MOL0     H 7772   6.829   6.206   9.823 -2.3311 -0.9420 -0.3132
   58MOL0     H 7773   6.836   6.013  10.057 -0.8551 -0.6798 -1.0573
   58MOL0     H 7774   6.904   5.985   9.892 -5.2575  2.3669 -2.7752
   58MOL0     H 7775   7.061   6.184   9.939 -2.0872  1.1283  0.2451
   58MOL0     H 7776   7.000   6.191  10.104 -2.4486 -1.0107  0.5852
   58MOL0     H 7777   7.149   5.949   9.981  1.7091 -1.5528  1.3931
   58MOL0     H 7778   7.225   6.087  10.051 -0.1716 -0.3011 -1.4743
   58MOL0     H 7779   7.178   5.891  10.229  0.4464 -0.0385 -0.0115
   58MOL0     H 7780   7.012   5.916  10.207  1.3663 -1.7809  0.1277
   58MOL0     H 7781   7.334   6.122  10.314  0.3644 -0.3599  1.2420
   58MOL0     H 7782   7.345   6.393  10.449  1.6462  1.4601  4.8839
   58MOL0     H 7783   7.212   6.399  10.561 -0.4556 -0.0717 -0.9211
   58MOL0     H 7784   7.401   6.333  10.690 -4.4261 -2.3227  3.8510
   58MOL0     H 7785   7.459   6.222  10.560  0.0414 -0.5659  2.0711
   58MOL0     H 7786   7.294   6.060  10.601 -0.5449 -2.0816  0.6015
   58MOL0     H 7787   7.215   6.156  10.728  0.4525 -0.3374  0.4067
   58MOL0     H 7788   7.355   5.993  10.839  0.7328  0.1509 -0.0512
   58MOL0     H 7789   7.415   6.150  10.863  1.1323 -1.2591  3.4013
   58MOL0     H 7790   7.536   6.040  11.018 -1.9399 -1.2026 -3.0790
   58MOL0     H 7791   7.734   5.864  11.248  1.7425  1.4461 -0.3886
   58MOL0     H 7792   7.732   6.041  11.240  1.0843  0.5390 -1.1109
   58MOL0     H 7793   7.580   5.957  11.214  0.3031  2.1576  0.2730
   58MOL0     H 7794   8.228   5.905  11.153 -1.4069 -0.0662  0.7712
   58MOL0     H 7795   8.452   5.820  11.220  0.6687 -1.1558  1.0210
   58MOL0     H 7796   8.524   5.397  11.113 -0.7000  0.6571 -0.0637
   58MOL0     H 7797   8.583   5.483  10.967 -1.7236  1.0846 -0.1674
   58MOL0     H 7798   8.747   5.326  11.060  1.3952 -1.7820  2.1058
   58MOL0     H 7799   8.811   5.487  11.073  0.5037 -0.0376  0.4732
   58MOL0     H 7800   8.676   5.326  11.291  0.3225  1.1196  1.8994
   58MOL0     H 7801   8.730   5.489  11.316  1.1537  1.3407 -1.6598
   58MOL0     H 7802   8.936   5.272  11.222 -0.5461  0.1592 -0.2021
   58MOL0     H 7803   8.968   5.431  11.285  0.3138 -0.8266  0.4996
   58MOL0     H 7804   8.856   5.202  11.438  1.6105 -1.3569  2.9892
   58MOL0     H 7805   8.873   5.352  11.515  0.0203 -3.1465  3.0922
   58MOL0     H 7806   9.053   5.142  11.503  0.3320  0.2981  0.0844
   58MOL0     H 7807   9.090   5.200  11.348 -1.3883 -1.7334 -0.6911
   58MOL0     H 7808   9.143   5.441  11.430  3.4052 -0.9836 -3.2237
   58MOL0     H 7809   9.257   5.324  11.492 -1.1774 -2.8428 -1.5757
   58MOL0     H 7810   9.026   5.344  11.669 -1.7238  1.3689 -3.1854
   58MOL0     H 7811   9.090   5.495  11.637 -1.3577 -1.2589  0.8057
   58MOL0     H 7812   8.371   5.475  10.959  0.8978  0.1028  0.3457
   58MOL0     H 7813   8.125   5.564  10.938  1.7869  0.2262 -2.6902
   58MOL0     H 7814   7.943   5.895  10.794  0.9501  1.6347  1.5600
   58MOL0     H 7815   7.771   5.986  10.671 -0.9444  0.6921  0.0385
   58MOL0     H 7816   6.480   6.696   9.792 -2.3870 -1.5236  0.8408
   58MOL0     H 7817   6.451   6.934   9.813 -1.1985 -2.5535 -1.7513
   58MOL0     H 7818   6.316   7.372  10.205 -0.4137 -1.3224 -1.2230
   58MOL0     H 7819   6.374   7.609  10.182 -1.9637 -0.9648 -1.3705
   58MOL0     H 7820   6.490   7.880   9.913  0.9322  0.9191 -1.7784
   58MOL0     H 7821   6.580   7.761   9.812 -1.3283 -0.1121 -0.2831
   58MOL0     H 7822   6.303   7.731   9.916  0.7948  1.3738  1.4390
   58MOL0     H 7823   6.386   7.612   9.802  3.3896  0.9991 -2.3511
   58MOL0     H 7824   6.399   7.768   9.620 -2.2768  0.1674 -2.5792
   58MOL0     H 7825   6.349   7.901   9.706 -0.3555  0.3228 -0.5496
   58MOL0     H 7826   6.146   7.836   9.582  1.4408 -0.9414 -0.3271
   58MOL0     H 7827   6.128   7.816   9.749 -2.9399 -1.4527 -0.0482
   58MOL0     H 7828   6.067   7.422   9.594  0.8706 -0.1273  2.1744
   58MOL0     H 7829   6.672   7.502   9.878  0.9826 -0.4044  1.9107
   58MOL0     H 7830   6.611   7.276   9.905  1.7504  1.7043 -1.4066
   59MOL0     O 7831   0.987   9.621   0.230 -0.1553  0.9575  0.1696
   59MOL0     C 7832   0.904   9.703   0.264  0.1274  0.5431  0.3205
   59MOL0     O 7833   0.765   9.694   0.247 -0.6925  0.6880  1.0504
   59MOL0     C 7834   0.725   9.572   0.183 -0.3375  0.4420 -0.3130
   59MOL0     C 7835   0.684   9.562   0.048 -0.0741 -0.7677  0.0714
   59MOL0     C 7836   0.629   9.439  -0.000  0.2557 -0.3695  0.2221
   59MOL0     C 7837   0.629   9.321   0.083 -0.3408 -0.0396  0.9753
   59MOL0     O 7838   0.574   9.205   0.033 -0.1786 -0.1276  0.2380
   59MOL0     C 7839   0.628   9.074   0.069 -0.7260  1.6851  0.9517
   59MOL0     C 7840   0.588   8.985  -0.048  0.4029 -0.6775  0.5927
   59MOL0     C 7841   0.603   8.835  -0.024 -0.1396 -0.3748  0.0630
   59MOL0     C 7842   0.504   8.756  -0.105 -0.4541  0.4758 -0.7410
   59MOL0     C 7843   0.502   8.611  -0.061 -0.5742 -0.0565 -0.1981
   59MOL0     C 7844   0.410   8.528  -0.161  0.9334  0.4724 -0.8641
   59MOL0     C 7845   0.415   8.377  -0.119  0.2455  0.6160  0.6342
   59MOL0     C 7846   0.543   8.316  -0.191  0.5555  0.2693 -0.1999
   59MOL0     N 7847   0.535   8.174  -0.177 -0.1321 -1.2074  0.8624
   59MOL0     C 7848   0.525   8.088  -0.282  0.5651 -1.2973 -0.3656
   59MOL0     C 7849   0.496   7.966  -0.226 -1.0391 -0.2183 -0.0039
   59MOL0     C 7850   0.456   7.839  -0.283 -0.0828 -0.2296  0.1783
   59MOL0     C 7851   0.584   7.748  -0.287 -1.3702 -0.1753 -0.6180
   59MOL0     C 7852   0.718   7.789  -0.357  0.4898  0.2421 -0.2606
   59MOL0     C 7853   0.696   7.812  -0.515  0.0912  1.1388  0.3115
   59MOL0     O 7854   0.647   7.675  -0.565  0.2524 -0.3370  0.0086
   59MOL0     C 7855   0.739   7.589  -0.631  0.3604  0.3583 -0.8697
   59MOL0     C 7856   0.702   7.455  -0.619  0.7691 -0.1028 -1.0866
   59MOL0     C 7857   0.781   7.356  -0.670 -0.3910  0.5911  1.1542
   59MOL0     C 7858   0.743   7.218  -0.636 -0.0637 -0.2517 -0.5736
   59MOL0     C 7859   0.900   7.389  -0.735 -0.2496  0.1115 -0.5484
   59MOL0     C 7860   1.006   7.290  -0.781  0.1017  0.3037 -0.2953
   59MOL0     O 7861   1.117   7.342  -0.838  0.3808 -0.0489  0.8673
   59MOL0     C 7862   1.220   7.262  -0.874 -1.1566  0.9708  0.1432
   59MOL0     C 7863   1.331   7.278  -0.800 -1.2225  0.2775  0.5003
   59MOL0     C 7864   1.453   7.210  -0.832 -0.4193  0.8716 -0.1877
   59MOL0     C 7865   1.456   7.119  -0.933  0.8706  0.7885 -0.0249
   59MOL0     O 7866   1.577   7.070  -0.969  0.5052  0.2976  0.3269
   59MOL0     C 7867   1.612   6.957  -0.882 -0.0884 -0.5044 -0.2579
   59MOL0     C 7868   1.764   6.957  -0.854 -0.3716 -0.2170  0.1154
   59MOL0     C 7869   1.803   6.849  -0.747 -0.2631  0.2765 -0.0060
   59MOL0     C 7870   1.941   6.868  -0.686  0.1015  0.1942  0.6494
   59MOL0     C 7871   1.985   6.737  -0.624 -0.4219  0.0253 -0.9793
   59MOL0     C 7872   2.114   6.737  -0.546  0.7122  0.0205  0.5179
   59MOL0     C 7873   2.234   6.764  -0.638  0.9781  0.3827  0.3983
   59MOL0     C 7874   2.374   6.755  -0.568 -0.5993 -0.7564  0.9898
   59MOL0    Cl 7875   2.506   6.810  -0.676 -0.3525  0.0554  0.4679
   59MOL0     C 7876   1.340   7.102  -1.016  0.2602 -0.5684 -0.3797
   59MOL0     C 7877   1.222   7.179  -0.981 -0.8173  1.5248 -1.2149
   59MOL0     O 7878   0.993   7.168  -0.762  0.2215 -0.1455  0.0305
   59MOL0     C 7879   0.935   7.526  -0.742  0.6660  0.6718  0.9049
   59MOL0     C 7880   0.859   7.632  -0.691  0.0887 -0.3323 -0.1759
   59MOL0     N 7881   0.520   7.975  -0.092  0.1789 -0.2982  0.2521
   59MOL0     N 7882   0.550   8.099  -0.062 -0.4463  0.2347  0.4989
   59MOL0     C 7883   0.675   9.332   0.211  0.5396 -0.7953  0.6431
   59MOL0     C 7884   0.722   9.460   0.267 -0.4739  0.1365  0.7331
   59MOL0     C 7885   0.943   9.819   0.343 -0.2213 -1.0167  0.6081
   59MOL0     C 7886   0.858   9.924   0.340 -0.0183  0.1618 -0.3998
   59MOL0     C 7887   0.895  10.041   0.410  0.6214 -0.7011 -0.1209
   59MOL0     C 7888   1.027  10.070   0.444 -0.5371  0.7978  0.3619
   59MOL0     O 7889   1.049  10.186   0.503 -0.9170 -0.1407 -1.1027
   59MOL0     C 7890   1.173  10.201   0.576  0.7451 -0.1838  0.0723
   59MOL0     C 7891   1.155  10.326   0.665 -0.8503 -0.6810 -0.5186
   59MOL0     C 7892   1.184  10.457   0.592  0.0790  0.3254 -0.4028
   59MOL0     C 7893   1.104  10.573   0.641  1.2128 -1.1980 -0.2314
   59MOL0     C 7894   1.165  10.638   0.758  0.1390  0.5502  0.4353
   59MOL0     C 7895   1.215  10.708   0.836  0.0105  0.0741 -0.9108
   59MOL0     C 7896   1.123   9.967   0.415 -0.1335 -0.6035  0.8241
   59MOL0     C 7897   1.077   9.848   0.371 -0.5209  1.5481  0.8618
   59MOL0     H 7898   0.682   9.654  -0.010  0.1778 -1.4106 -0.9661
   59MOL0     H 7899   0.584   9.426  -0.098 -1.5434 -0.5842  1.0458
   59MOL0     H 7900   0.736   9.073   0.087 -0.1793 -0.1627 -1.7504
   59MOL0     H 7901   0.584   9.027   0.157  0.9843 -0.2806  0.8424
   59MOL0     H 7902   0.481   8.998  -0.068  0.3527 -0.8797  0.7229
   59MOL0     H 7903   0.645   9.016  -0.136  2.3780  0.9771  2.3476
   59MOL0     H 7904   0.704   8.807  -0.056  1.3092  3.1970  1.0060
   59MOL0     H 7905   0.597   8.812   0.083 -0.7877 -1.3647 -0.1674
   59MOL0     H 7906   0.404   8.799  -0.096 -1.0004 -0.9276  0.1328
   59MOL0     H 7907   0.537   8.757  -0.210  1.8926  0.4621 -0.0661
   59MOL0     H 7908   0.596   8.554  -0.056 -2.1631 -3.1136 -2.0160
   59MOL0     H 7909   0.464   8.614   0.041 -0.2823 -1.8114 -0.0070
   59MOL0     H 7910   0.306   8.555  -0.139  1.1335  2.4088 -2.0414
   59MOL0     H 7911   0.433   8.553  -0.265  1.4198  1.1757 -0.5931
   59MOL0     H 7912   0.429   8.360  -0.011  0.0955  0.4519  0.6292
   59MOL0     H 7913   0.327   8.316  -0.143  1.7016 -1.8132  1.1230
   59MOL0     H 7914   0.632   8.358  -0.143 -2.0812  3.2014  2.5534
   59MOL0     H 7915   0.550   8.330  -0.299  2.5470 -2.5614 -0.5444
   59MOL0     H 7916   0.522   8.111  -0.388  1.0610 -2.7444 -0.7152
   59MOL0     H 7917   0.378   7.791  -0.224 -0.7378  1.3550  0.6507
   59MOL0     H 7918   0.410   7.862  -0.379  1.0509  1.0165 -0.0867
   59MOL0     H 7919   0.559   7.648  -0.325  2.4517 -0.9378 -1.4495
   59MOL0     H 7920   0.598   7.735  -0.179 -1.9040  1.7454 -0.2830
   59MOL0     H 7921   0.806   7.733  -0.325 -0.4897 -1.7571 -0.9301
   59MOL0     H 7922   0.739   7.885  -0.307 -0.4031  0.1132  0.3889
   59MOL0     H 7923   0.783   7.849  -0.569 -0.1399  2.0839  0.5730
   59MOL0     H 7924   0.610   7.872  -0.547 -2.0564 -2.0883 -0.4858
   59MOL0     H 7925   0.610   7.431  -0.566  0.8515  3.4580  0.9909
   59MOL0     H 7926   0.687   7.165  -0.713  2.8525 -2.8284 -1.1339
   59MOL0     H 7927   0.828   7.152  -0.619  0.1916 -0.7739 -3.3828
   59MOL0     H 7928   0.699   7.231  -0.537  2.2190 -1.2450  0.6561
   59MOL0     H 7929   1.336   7.344  -0.714  0.0404 -0.1923  0.8169
   59MOL0     H 7930   1.542   7.229  -0.774  0.6199  0.8733 -1.7258
   59MOL0     H 7931   1.547   6.947  -0.794 -0.9924  1.4802 -0.6371
   59MOL0     H 7932   1.590   6.876  -0.953 -0.0283 -0.5791 -0.1922
   59MOL0     H 7933   1.818   6.935  -0.947  0.9379 -1.3378  1.0983
   59MOL0     H 7934   1.790   7.056  -0.817 -1.2573 -0.0121  0.1957
   59MOL0     H 7935   1.777   6.753  -0.791  0.3615  1.4086 -3.0703
   59MOL0     H 7936   1.728   6.852  -0.667 -2.4179 -1.6114 -1.8471
   59MOL0     H 7937   2.008   6.889  -0.770 -0.7362 -1.1990 -0.4119
   59MOL0     H 7938   1.941   6.952  -0.617 -2.9271  0.6154  0.2360
   59MOL0     H 7939   1.996   6.655  -0.696 -2.8271 -1.3417  0.0993
   59MOL0     H 7940   1.912   6.697  -0.554  0.1885 -1.6117 -1.2267
   59MOL0     H 7941   2.113   6.806  -0.460  2.4468 -0.6261  1.1070
   59MOL0     H 7942   2.127   6.632  -0.518 -0.3387 -1.5718 -4.2055
   59MOL0     H 7943   2.215   6.863  -0.681  0.2379 -0.2010 -0.6615
   59MOL0     H 7944   2.243   6.694  -0.721 -2.6640  2.0320 -1.6506
   59MOL0     H 7945   2.386   6.654  -0.527 -1.7609 -1.2551  0.1657
   59MOL0     H 7946   2.365   6.833  -0.493  0.9880 -1.5820  2.1125
   59MOL0     H 7947   1.338   7.024  -1.092  1.6250 -1.5751  0.5722
   59MOL0     H 7948   1.125   7.172  -1.029 -0.6367 -0.8284 -1.3585
   59MOL0     H 7949   1.028   7.552  -0.792 -0.0433  0.2307 -0.7382
   59MOL0     H 7950   0.892   7.733  -0.709  0.2523 -0.0896  1.3949
   59MOL0     H 7951   0.670   9.242   0.271  1.1584 -0.0350  1.8888
   59MOL0     H 7952   0.744   9.478   0.372 -0.7776  0.7092  0.7032
   59MOL0     H 7953   0.760   9.920   0.294  0.1325 -0.9515 -0.6599
   59MOL0     H 7954   0.828  10.126   0.420  2.5719  0.7507  1.6388
   59MOL0     H 7955   1.202  10.109   0.627 -2.7984 -1.1354  0.6807
   59MOL0     H 7956   1.245  10.228   0.499  0.4503 -2.9362 -1.2753
   59MOL0     H 7957   1.219  10.320   0.753 -1.5931 -0.1947  0.0732
   59MOL0     H 7958   1.053  10.315   0.703 -0.6108 -2.5945 -0.3443
   59MOL0     H 7959   1.165  10.443   0.486 -1.4815  2.5211 -0.4895
   59MOL0     H 7960   1.288  10.489   0.606 -0.1255  1.3927 -1.2223
   59MOL0     H 7961   1.001  10.549   0.670  1.2656  0.2134  1.3167
   59MOL0     H 7962   1.075  10.646   0.565 -1.0855 -1.0475  0.6968
   59MOL0     H 7963   1.278  10.758   0.906  2.3014 -1.3384 -1.8396
   59MOL0     H 7964   1.226   9.989   0.441 -0.9959  0.1899  3.9894
   59MOL0     H 7965   1.152   9.771   0.355 -0.4086  1.7916  0.1861
   60MOL0     O 7966   6.980   6.859   1.845  0.1614  0.1901  0.5232
   60MOL0     C 7967   7.031   6.968   1.818 -1.2390 -0.2794  0.5238
   60MOL0     O 7968   7.170   6.996   1.832 -0.0992  0.6000  0.5728
   60MOL0     C 7969   7.253   6.898   1.883  0.3907 -0.5601 -0.1814
   60MOL0     C 7970   7.310   6.797   1.803  1.2119  0.7396 -0.0644
   60MOL0     C 7971   7.399   6.718   1.873  0.8529  0.6475  0.1735
   60MOL0     C 7972   7.446   6.745   2.012  0.1927  0.1657  0.2733
   60MOL0     O 7973   7.536   6.659   2.072  0.3819 -0.4723 -0.0999
   60MOL0     C 7974   7.649   6.731   2.130 -0.0329 -0.2201  1.0896
   60MOL0     C 7975   7.764   6.636   2.114  0.3658 -0.5113  0.5469
   60MOL0     C 7976   7.892   6.706   2.151 -0.9498 -0.6130 -0.1293
   60MOL0     C 7977   8.022   6.618   2.121  0.5888 -0.6766  0.9878
   60MOL0     C 7978   8.021   6.474   2.152  0.5852  0.0307 -0.4078
   60MOL0     C 7979   8.134   6.386   2.082 -0.9576 -1.4101 -0.1666
   60MOL0     C 7980   8.272   6.449   2.104 -0.3650  0.0299 -0.7122
   60MOL0     C 7981   8.382   6.376   2.021  0.2999 -0.9469  0.3359
   60MOL0     N 7982   8.522   6.419   2.027  0.3866 -0.1948  0.3377
   60MOL0     C 7983   8.584   6.466   2.138  0.3888 -0.7141 -0.2869
   60MOL0     C 7984   8.714   6.448   2.130  0.0325  0.0110  0.6650
   60MOL0     C 7985   8.822   6.462   2.234  0.3460  0.3850  0.4894
   60MOL0     C 7986   8.915   6.335   2.253  0.0576 -0.8468 -0.7445
   60MOL0     C 7987   8.836   6.233   2.327 -1.1436 -0.3758  0.1276
   60MOL0     C 7988   8.930   6.116   2.371 -0.0701 -0.0671 -0.3385
   60MOL0     O 7989   8.847   6.010   2.421  0.5961 -0.1890 -0.1415
   60MOL0     C 7990   8.921   5.908   2.459 -0.5664 -0.0722 -0.7305
   60MOL0     C 7991   8.912   5.861   2.587  0.1413  0.1751 -1.7809
   60MOL0     C 7992   8.995   5.753   2.642  0.1350 -1.2620 -0.3176
   60MOL0     C 7993   8.968   5.723   2.788  0.4063 -0.4914 -0.4545
   60MOL0     C 7994   9.070   5.674   2.550  0.3918 -1.2089  0.1968
   60MOL0     C 7995   9.137   5.556   2.587  0.0158  0.4365  0.3351
   60MOL0     O 7996   9.228   5.511   2.492 -0.2494 -0.4052 -0.1417
   60MOL0     C 7997   9.264   5.384   2.492  0.1303  0.0713 -0.2404
   60MOL0     C 7998   9.365   5.346   2.587  0.3046 -0.0839 -0.1055
   60MOL0     C 7999   9.425   5.221   2.582 -1.3561  0.2137  0.7239
   60MOL0     C 8000   9.397   5.135   2.475  0.4100  0.0244  0.2010
   60MOL0     O 8001   9.447   5.006   2.452 -0.4486  0.8410  0.2387
   60MOL0     C 8002   9.571   4.969   2.517 -0.0735  0.2580  0.4100
   60MOL0     C 8003   9.584   4.818   2.544 -1.0086  0.7574  0.3872
   60MOL0     C 8004   9.548   4.790   2.688 -0.1082 -0.7216  0.9566
   60MOL0     C 8005   9.505   4.653   2.725 -1.1602 -0.0740  0.1849
   60MOL0     C 8006   9.454   4.631   2.867 -0.0544 -0.6595 -0.1650
   60MOL0     C 8007   9.405   4.481   2.898 -0.1942 -0.6438  0.6346
   60MOL0     C 8008   9.259   4.467   2.855 -0.0361  0.4298  0.6480
   60MOL0     C 8009   9.166   4.487   2.977 -0.2759  0.3064 -0.2914
   60MOL0    Cl 8010   9.165   4.359   3.103  0.7585  0.6301 -0.2880
   60MOL0     C 8011   9.296   5.177   2.385  0.6360 -1.0123 -0.0060
   60MOL0     C 8012   9.228   5.300   2.388  0.6802  1.0242  0.0594
   60MOL0     O 8013   9.095   5.491   2.681  0.0224  0.6563 -0.4072
   60MOL0     C 8014   9.083   5.723   2.410  0.2980  0.3145 -0.6034
   60MOL0     C 8015   9.013   5.840   2.373 -0.0127 -0.1048 -0.8451
   60MOL0     N 8016   8.726   6.381   2.007  0.1285 -1.0167 -0.2419
   60MOL0     N 8017   8.611   6.352   1.955  0.1055 -0.4002 -0.2084
   60MOL0     C 8018   7.402   6.867   2.062 -0.5910  0.0256 -0.2308
   60MOL0     C 8019   7.311   6.945   2.000  0.6393  0.1606 -0.1242
   60MOL0     C 8020   6.949   7.077   1.769 -0.5745 -0.5999  0.2301
   60MOL0     C 8021   7.011   7.196   1.723 -1.0303  0.4253  0.6872
   60MOL0     C 8022   6.944   7.301   1.658  0.4995  0.1447  1.0560
   60MOL0     C 8023   6.801   7.293   1.659  0.0643  0.5047  0.6803
   60MOL0     O 8024   6.725   7.386   1.594  0.1222  0.3762 -0.1398
   60MOL0     C 8025   6.783   7.511   1.538  0.5176 -0.9479 -0.1218
   60MOL0     C 8026   6.815   7.606   1.647 -0.3155  0.5578 -0.6150
   60MOL0     C 8027   6.864   7.739   1.577 -0.2698 -0.2480  0.3591
   60MOL0     C 8028   6.940   7.804   1.685  0.1563 -0.3744  1.1418
   60MOL0     C 8029   6.951   7.946   1.640 -0.0434  0.5791  0.4846
   60MOL0     C 8030   6.954   8.067   1.628  0.5397 -0.7031 -0.4610
   60MOL0     C 8031   6.743   7.187   1.726 -0.4039 -0.4672  0.3130
   60MOL0     C 8032   6.813   7.073   1.766 -1.0699  0.8180  0.6445
   60MOL0     H 8033   7.256   6.756   1.719  1.5128 -2.1464  1.0516
   60MOL0     H 8034   7.416   6.624   1.821  2.7336  0.4841  0.9898
   60MOL0     H 8035   7.665   6.821   2.069  2.1097 -2.3368 -1.7246
   60MOL0     H 8036   7.631   6.767   2.232  1.6614 -2.5912  2.3241
   60MOL0     H 8037   7.727   6.566   2.189 -2.7633  2.0885  1.6670
   60MOL0     H 8038   7.763   6.603   2.010  0.0091  1.5355 -0.1504
   60MOL0     H 8039   7.894   6.808   2.110 -0.2068  0.5975  2.7076
   60MOL0     H 8040   7.909   6.739   2.254  0.2349  5.4462 -1.8378
   60MOL0     H 8041   8.037   6.632   2.013  0.2500  1.7567  1.1955
   60MOL0     H 8042   8.110   6.657   2.172  0.1817 -0.6156  1.6488
   60MOL0     H 8043   8.019   6.465   2.261 -0.4129 -2.7519 -0.5889
   60MOL0     H 8044   7.924   6.442   2.112  0.0173  1.6417 -0.4098
   60MOL0     H 8045   8.141   6.282   2.117  0.9020 -1.0102  0.8122
   60MOL0     H 8046   8.106   6.385   1.977 -1.8851 -0.8384  0.0665
   60MOL0     H 8047   8.273   6.548   2.055 -1.4887 -0.2069 -1.2491
   60MOL0     H 8048   8.297   6.451   2.210 -0.5468 -0.7773 -0.6487
   60MOL0     H 8049   8.346   6.362   1.919  2.3363 -0.5080 -0.4859
   60MOL0     H 8050   8.375   6.277   2.066  0.0292 -1.0452  0.0820
   60MOL0     H 8051   8.533   6.493   2.229  0.8814 -1.5007  0.2282
   60MOL0     H 8052   8.886   6.549   2.217 -1.6053  2.0126  1.0889
   60MOL0     H 8053   8.769   6.475   2.328  0.6026 -1.1286  0.8647
   60MOL0     H 8054   8.995   6.363   2.322 -1.4017 -0.4309  0.8354
   60MOL0     H 8055   8.970   6.295   2.167 -1.8499 -1.9357 -1.5123
   60MOL0     H 8056   8.765   6.193   2.254 -1.1172  1.2837 -0.8417
   60MOL0     H 8057   8.802   6.279   2.420  0.2597  4.2551 -1.3808
   60MOL0     H 8058   9.002   6.143   2.449 -0.8372 -2.9212  1.5057
   60MOL0     H 8059   8.975   6.072   2.281  1.1580 -0.4836  0.4504
   60MOL0     H 8060   8.848   5.911   2.659  2.2244 -3.3968  3.1817
   60MOL0     H 8061   8.908   5.799   2.838  2.4970 -0.2019  1.7617
   60MOL0     H 8062   8.924   5.623   2.794  1.3915 -0.8803  0.7591
   60MOL0     H 8063   9.063   5.713   2.841  1.2879 -1.9920 -2.2159
   60MOL0     H 8064   9.403   5.421   2.656  1.3076 -0.0275 -0.6930
   60MOL0     H 8065   9.487   5.193   2.667 -1.4776  0.9022  1.0464
   60MOL0     H 8066   9.650   4.998   2.447  0.9042 -1.2446  0.8486
   60MOL0     H 8067   9.589   5.024   2.610 -0.9044 -0.0172  0.7432
   60MOL0     H 8068   9.526   4.765   2.467 -0.3060  1.4639 -0.6477
   60MOL0     H 8069   9.688   4.789   2.529 -0.5750  1.8397  1.1536
   60MOL0     H 8070   9.463   4.854   2.715 -1.2850 -1.2655 -1.1948
   60MOL0     H 8071   9.627   4.835   2.749 -0.7782  1.9048  0.0438
   60MOL0     H 8072   9.425   4.636   2.651 -1.0411  3.4055 -0.8947
   60MOL0     H 8073   9.582   4.579   2.703  1.4299  2.7554 -0.8047
   60MOL0     H 8074   9.361   4.688   2.873 -1.1759 -2.2571 -1.6764
   60MOL0     H 8075   9.521   4.670   2.945 -1.1435 -0.2475  0.5847
   60MOL0     H 8076   9.459   4.402   2.845 -2.3159 -1.2886 -0.7036
   60MOL0     H 8077   9.414   4.471   3.007 -1.3097  0.1400  0.8197
   60MOL0     H 8078   9.242   4.373   2.802  0.1180 -0.4480  2.1003
   60MOL0     H 8079   9.233   4.544   2.782  0.9658 -1.8898 -2.3405
   60MOL0     H 8080   9.060   4.491   2.950 -1.0224 -1.9554  1.8842
   60MOL0     H 8081   9.204   4.578   3.024 -1.5083  0.7234 -0.0544
   60MOL0     H 8082   9.257   5.117   2.303 -1.5266  2.9496 -2.1889
   60MOL0     H 8083   9.155   5.324   2.312  1.0596 -0.0791 -0.6792
   60MOL0     H 8084   9.132   5.666   2.332  0.7742  1.8030 -1.4536
   60MOL0     H 8085   9.036   5.861   2.269  0.8303 -1.1298 -0.8764
   60MOL0     H 8086   7.449   6.896   2.155  2.5746 -0.3396 -1.5948
   60MOL0     H 8087   7.296   7.045   2.040  3.8320  0.6060  0.2545
   60MOL0     H 8088   7.119   7.200   1.725 -0.9815 -0.2044 -0.2128
   60MOL0     H 8089   7.006   7.388   1.637 -0.7757  1.3501  2.1129
   60MOL0     H 8090   6.862   7.484   1.467 -1.1276 -1.3418 -1.8881
   60MOL0     H 8091   6.707   7.561   1.478  1.7155  1.2537  0.0894
   60MOL0     H 8092   6.892   7.569   1.715 -0.0689 -0.3120 -1.3450
   60MOL0     H 8093   6.724   7.617   1.707 -0.2113 -0.8176 -0.1708
   60MOL0     H 8094   6.781   7.809   1.565  1.2754  1.8899  1.3340
   60MOL0     H 8095   6.921   7.730   1.484  2.3216 -1.0669  1.8983
   60MOL0     H 8096   7.033   7.754   1.710 -0.3737 -0.9996  1.9180
   60MOL0     H 8097   6.882   7.814   1.778 -1.2066 -1.3138  0.4293
   60MOL0     H 8098   6.940   8.170   1.604  0.8953 -0.6458 -0.4318
   60MOL0     H 8099   6.635   7.191   1.712 -0.4815  2.9026  1.1302
   60MOL0     H 8100   6.755   6.983   1.785  0.4228 -0.7642 -1.7343
   61MOL0     O 8101   0.499   0.440   5.969 -0.0600  0.4554  0.3562
   61MOL0     C 8102   0.539   0.484   6.079 -1.0055 -0.2252 -0.1104
   61MOL0     O 8103   0.662   0.546   6.090 -0.1323 -0.0681 -1.3925
   61MOL0     C 8104   0.722   0.589   5.974 -0.4213 -0.7110 -0.3025
   61MOL0     C 8105   0.701   0.711   5.916  0.3164 -0.6144 -0.8931
   61MOL0     C 8106   0.768   0.750   5.797 -0.6479 -0.0112  0.6041
   61MOL0     C 8107   0.878   0.674   5.744  0.3022  0.0240 -0.6658
   61MOL0     O 8108   0.946   0.718   5.640 -0.3686  1.1783  0.8345
   61MOL0     C 8109   1.016   0.846   5.655 -0.5956  0.9045 -0.6110
   61MOL0     C 8110   1.022   0.920   5.521 -1.0813  0.2153  0.3464
   61MOL0     C 8111   1.079   0.849   5.405  0.1410 -0.1423 -0.0564
   61MOL0     C 8112   1.110   0.941   5.288 -0.7177 -0.2930  0.6598
   61MOL0     C 8113   1.177   0.873   5.165  0.3327 -0.2701  0.4892
   61MOL0     C 8114   1.293   0.948   5.101 -0.5615 -0.0449 -0.1605
   61MOL0     C 8115   1.360   0.856   4.987  0.7716  0.1502  0.0117
   61MOL0     C 8116   1.474   0.919   4.909  0.2128 -0.1725 -0.9894
   61MOL0     N 8117   1.439   1.043   4.842 -0.8535 -0.4620  0.5597
   61MOL0     C 8118   1.396   1.052   4.700 -0.7534  0.7062 -0.0362
   61MOL0     C 8119   1.335   1.175   4.685  0.0357  0.3361  0.1985
   61MOL0     C 8120   1.250   1.231   4.567 -1.1165  0.0009  0.1842
   61MOL0     C 8121   1.334   1.296   4.460 -0.3095  0.1996  0.4969
   61MOL0     C 8122   1.259   1.297   4.323 -1.2451 -0.0875  0.1675
   61MOL0     C 8123   1.243   1.157   4.244 -0.5117 -1.1145 -0.2978
   61MOL0     O 8124   1.193   1.173   4.113  0.5445 -0.5688  0.6910
   61MOL0     C 8125   1.283   1.219   4.022 -0.4946  0.0320  0.8892
   61MOL0     C 8126   1.389   1.141   3.980  0.3333  0.6787 -0.3458
   61MOL0     C 8127   1.490   1.185   3.888 -0.3664  0.1060  0.2588
   61MOL0     C 8128   1.610   1.086   3.869 -0.6972 -0.2710 -0.4578
   61MOL0     C 8129   1.458   1.304   3.814 -0.8272 -0.4074 -0.1222
   61MOL0     C 8130   1.546   1.357   3.703 -0.7862 -0.0697  0.5108
   61MOL0     O 8131   1.654   1.283   3.661 -0.4474 -0.7585 -0.2164
   61MOL0     C 8132   1.747   1.348   3.580  1.0467 -1.0258  1.1301
   61MOL0     C 8133   1.768   1.300   3.447 -0.1622  0.5761 -0.0677
   61MOL0     C 8134   1.862   1.370   3.362  0.9226 -0.5454  0.2102
   61MOL0     C 8135   1.926   1.483   3.407  0.4892 -0.3756  0.2511
   61MOL0     O 8136   2.008   1.540   3.309 -0.5009 -0.0003 -0.1848
   61MOL0     C 8137   2.097   1.646   3.351  0.2324 -0.2861  0.1207
   61MOL0     C 8138   2.221   1.677   3.272 -0.6412  0.0726 -0.2352
   61MOL0     C 8139   2.326   1.578   3.313 -0.3254  0.8096  0.5010
   61MOL0     C 8140   2.452   1.618   3.245  0.2954 -0.0170 -0.9765
   61MOL0     C 8141   2.575   1.529   3.287  0.5018 -0.2323  0.5755
   61MOL0     C 8142   2.716   1.553   3.222  1.0828 -0.4087 -0.7643
   61MOL0     C 8143   2.705   1.562   3.068  0.1718 -0.0358 -1.8797
   61MOL0     C 8144   2.832   1.558   2.991 -0.1374  0.7463  0.9274
   61MOL0    Cl 8145   2.905   1.403   3.011 -0.2493 -0.2134  0.5355
   61MOL0     C 8146   1.901   1.532   3.533  0.2140 -0.1257 -0.1362
   61MOL0     C 8147   1.814   1.467   3.615  0.8688  0.6782 -0.1799
   61MOL0     O 8148   1.514   1.464   3.656 -0.5982 -0.3938  0.2524
   61MOL0     C 8149   1.335   1.382   3.860 -1.1446  0.3906 -0.0043
   61MOL0     C 8150   1.258   1.341   3.966  0.1372 -0.3848 -0.2388
   61MOL0     N 8151   1.380   1.237   4.801 -0.1376 -0.2606 -0.2379
   61MOL0     N 8152   1.432   1.164   4.894  0.9304 -1.0828  0.6514
   61MOL0     C 8153   0.906   0.553   5.807  0.5697 -0.1431 -0.8428
   61MOL0     C 8154   0.825   0.513   5.922 -0.7746 -0.2043  0.3520
   61MOL0     C 8155   0.462   0.442   6.194  1.4110  0.3656 -0.7249
   61MOL0     C 8156   0.325   0.396   6.179 -1.0643  0.0950  0.0399
   61MOL0     C 8157   0.258   0.347   6.289 -0.3611 -0.4502  0.3281
   61MOL0     C 8158   0.310   0.352   6.421 -0.4797  0.3737 -0.2384
   61MOL0     O 8159   0.236   0.296   6.523 -0.2626 -0.9796  0.1224
   61MOL0     C 8160   0.278   0.318   6.654  0.6696 -0.1195 -0.2122
   61MOL0     C 8161   0.188   0.238   6.751  0.8981  0.2110 -0.5860
   61MOL0     C 8162   0.052   0.317   6.780 -0.6730  0.0468  0.1071
   61MOL0     C 8163  -0.028   0.223   6.855  0.4398  0.2744  0.4018
   61MOL0     C 8164  -0.157   0.267   6.853 -0.5520  0.3914  0.2611
   61MOL0     C 8165  -0.269   0.303   6.842 -0.4775  0.3013 -0.1038
   61MOL0     C 8166   0.438   0.411   6.436  0.0072 -1.0072  0.9578
   61MOL0     C 8167   0.514   0.446   6.321  0.0675 -0.2061 -0.2595
   61MOL0     H 8168   0.625   0.779   5.953  2.8693  3.0003 -1.6587
   61MOL0     H 8169   0.747   0.834   5.732 -1.7988 -0.3411  0.5115
   61MOL0     H 8170   0.962   0.905   5.729 -1.6292 -2.9749  2.0507
   61MOL0     H 8171   1.121   0.842   5.686  0.8531 -0.3158 -4.9868
   61MOL0     H 8172   0.921   0.952   5.492 -1.3772 -2.5937 -2.3199
   61MOL0     H 8173   1.081   1.005   5.556  1.3820 -0.4080 -1.9142
   61MOL0     H 8174   1.166   0.785   5.425  0.7419  0.0210 -1.9353
   61MOL0     H 8175   1.008   0.775   5.366  1.6309 -2.1232  0.8296
   61MOL0     H 8176   1.011   0.969   5.250 -0.5991  0.5643  0.9613
   61MOL0     H 8177   1.174   1.026   5.315  0.0887 -0.6991  0.0692
   61MOL0     H 8178   1.225   0.784   5.207 -0.0033 -0.2090  1.0124
   61MOL0     H 8179   1.113   0.842   5.082  1.2987 -1.9897  0.3437
   61MOL0     H 8180   1.249   1.031   5.045 -1.5874  0.0206  0.7012
   61MOL0     H 8181   1.365   0.989   5.173  1.8146 -4.8976  0.6659
   61MOL0     H 8182   1.402   0.760   5.018 -4.0884 -2.5970 -0.9913
   61MOL0     H 8183   1.279   0.837   4.917 -0.8192  3.2599  0.8229
   61MOL0     H 8184   1.517   0.846   4.839 -2.8565 -3.9028  0.6658
   61MOL0     H 8185   1.551   0.930   4.985 -2.0733  0.6799  1.3300
   61MOL0     H 8186   1.400   0.970   4.629  0.7735 -0.5721  1.4432
   61MOL0     H 8187   1.185   1.149   4.536  1.3479 -1.7249 -0.7409
   61MOL0     H 8188   1.184   1.307   4.610  2.6171  2.5816  1.9337
   61MOL0     H 8189   1.436   1.256   4.456  0.3348  1.5469  2.2741
   61MOL0     H 8190   1.362   1.401   4.474  3.3450 -0.2440 -2.0004
   61MOL0     H 8191   1.325   1.362   4.265  0.2865 -0.6280  1.2660
   61MOL0     H 8192   1.166   1.352   4.341 -1.0458  0.3875 -0.2210
   61MOL0     H 8193   1.165   1.105   4.301 -1.6516 -0.0490 -0.8256
   61MOL0     H 8194   1.344   1.117   4.251  0.7265  1.7220 -0.4621
   61MOL0     H 8195   1.403   1.042   4.020  1.1262  0.5668 -0.8879
   61MOL0     H 8196   1.701   1.145   3.885 -3.2198  3.7247  0.7567
   61MOL0     H 8197   1.605   0.997   3.933 -1.0906  1.6060  2.3247
   61MOL0     H 8198   1.610   1.045   3.768  1.8513  0.6083 -0.8713
   61MOL0     H 8199   1.708   1.214   3.420  0.5679 -0.0352  0.1990
   61MOL0     H 8200   1.870   1.332   3.260 -4.1976 -0.6362 -0.4349
   61MOL0     H 8201   2.024   1.728   3.348 -0.8172 -1.2229 -2.3407
   61MOL0     H 8202   2.123   1.620   3.454 -1.0552  0.9758  0.8057
   61MOL0     H 8203   2.206   1.659   3.165 -2.8971 -0.2641  0.0771
   61MOL0     H 8204   2.257   1.778   3.293  1.9118 -1.5289  4.6470
   61MOL0     H 8205   2.296   1.479   3.278  2.1052  0.5911 -1.2252
   61MOL0     H 8206   2.339   1.574   3.421  0.4617 -1.1875  0.3762
   61MOL0     H 8207   2.437   1.620   3.137  1.5879 -2.0270 -1.2276
   61MOL0     H 8208   2.471   1.725   3.258 -0.7865  0.6294 -3.9297
   61MOL0     H 8209   2.556   1.424   3.265 -1.4380  0.2453 -0.2433
   61MOL0     H 8210   2.599   1.536   3.394  4.0272 -2.7632  0.1334
   61MOL0     H 8211   2.748   1.652   3.253 -1.7353 -0.1674  1.7677
   61MOL0     H 8212   2.782   1.468   3.243  2.5530  1.0370  0.7728
   61MOL0     H 8213   2.662   1.662   3.055 -1.1577 -0.5155 -1.3674
   61MOL0     H 8214   2.633   1.495   3.022  1.9321 -0.9671 -3.4056
   61MOL0     H 8215   2.901   1.640   3.012  1.1707  0.1359 -0.8374
   61MOL0     H 8216   2.814   1.558   2.883 -1.9384  0.0243  1.1837
   61MOL0     H 8217   1.956   1.613   3.578 -1.6140 -0.2373  2.5216
   61MOL0     H 8218   1.801   1.511   3.713  0.1613 -0.2120  0.1462
   61MOL0     H 8219   1.318   1.474   3.806 -0.6870  0.0840 -0.6846
   61MOL0     H 8220   1.187   1.416   4.000  0.4883 -1.0515  2.0893
   61MOL0     H 8221   0.996   0.495   5.792  2.3873  2.8820 -2.7161
   61MOL0     H 8222   0.846   0.415   5.964  1.8181 -0.1507 -0.6262
   61MOL0     H 8223   0.272   0.395   6.084 -3.0528  0.4444  1.0889
   61MOL0     H 8224   0.161   0.297   6.290  1.7320 -5.0144  0.3155
   61MOL0     H 8225   0.377   0.276   6.674  0.5542 -0.7272 -0.8760
   61MOL0     H 8226   0.291   0.422   6.685  2.5785 -1.2572  3.3962
   61MOL0     H 8227   0.234   0.223   6.849 -1.8713 -0.1595  0.7588
   61MOL0     H 8228   0.167   0.139   6.710 -0.5154  0.7537 -1.2374
   61MOL0     H 8229   0.005   0.354   6.689  0.1773  0.1712 -0.2947
   61MOL0     H 8230   0.081   0.401   6.844  2.7098 -0.0189 -1.0991
   61MOL0     H 8231  -0.004   0.210   6.961 -0.2399  4.0634  1.1697
   61MOL0     H 8232  -0.040   0.127   6.803  0.1121 -0.0865  1.1270
   61MOL0     H 8233  -0.374   0.323   6.841 -0.4947  0.4381 -2.6971
   61MOL0     H 8234   0.496   0.410   6.528 -2.5549 -2.7319  2.6756
   61MOL0     H 8235   0.617   0.477   6.336 -0.0223 -0.0891  0.1085
   62MOL0     O 8236   9.635   1.806  11.158 -0.2882  0.9670 -0.4020
   62MOL0     C 8237   9.513   1.833  11.148  0.6569 -0.2939  0.1939
   62MOL0     O 8238   9.441   1.900  11.246 -0.8127 -0.2089 -0.1509
   62MOL0     C 8239   9.508   1.917  11.366 -0.4885 -0.1964 -0.5599
   62MOL0     C 8240   9.602   2.013  11.389 -0.3274  0.6359  0.8320
   62MOL0     C 8241   9.663   2.034  11.517  0.4695 -0.1670 -0.4212
   62MOL0     C 8242   9.631   1.955  11.620 -0.3052 -0.1093  0.2290
   62MOL0     O 8243   9.688   1.988  11.744  0.7748  0.3281  1.2248
   62MOL0     C 8244   9.634   1.934  11.867  0.1549  0.0890  0.7542
   62MOL0     C 8245   9.508   1.997  11.922  0.7086 -0.4353 -0.5864
   62MOL0     C 8246   9.524   2.148  11.953 -0.0153  0.3145  0.5652
   62MOL0     C 8247   9.615   2.177  12.062 -0.8172 -0.4204 -0.2605
   62MOL0     C 8248   9.639   2.331  12.075  0.2630  0.1596  1.1741
   62MOL0     C 8249   9.728   2.371  12.194 -0.4497 -0.1740 -0.4115
   62MOL0     C 8250   9.735   2.522  12.220  0.5916  0.1938  0.0250
   62MOL0     C 8251   9.839   2.585  12.305 -0.6257  0.0853 -0.1526
   62MOL0     N 8252   9.810   2.548  12.449  0.9731 -0.0699  0.2466
   62MOL0     C 8253   9.699   2.577  12.525 -0.7298 -0.6782 -0.9892
   62MOL0     C 8254   9.729   2.533  12.646  0.8726 -0.3676  0.6907
   62MOL0     C 8255   9.642   2.550  12.764 -0.0088  0.3488  0.7151
   62MOL0     C 8256   9.733   2.570  12.893  0.2150 -0.1944 -0.1783
   62MOL0     C 8257   9.658   2.594  13.019  0.3194 -0.7689  0.2921
   62MOL0     C 8258   9.592   2.730  13.019  0.0035  0.3642  0.4450
   62MOL0     O 8259   9.483   2.732  13.116 -0.4246 -0.5389  0.4917
   62MOL0     C 8260   9.446   2.858  13.150 -0.0217  0.2702 -0.6451
   62MOL0     C 8261   9.483   2.980  13.090 -0.2556 -0.3276 -0.4068
   62MOL0     C 8262   9.447   3.104  13.143  0.0448 -0.1592  0.4197
   62MOL0     C 8263   9.517   3.222  13.073  0.7050 -0.5511  0.0035
   62MOL0     C 8264   9.365   3.111  13.258  0.4005  0.7202  0.3911
   62MOL0     C 8265   9.330   3.233  13.323  0.3451 -0.3143 -0.1186
   62MOL0     O 8266   9.258   3.220  13.434 -0.3635 -0.0474  0.1922
   62MOL0     C 8267   9.254   3.335  13.504 -0.4866  0.3462 -0.0437
   62MOL0     C 8268   9.346   3.366  13.612 -0.6482  0.6321  0.5898
   62MOL0     C 8269   9.336   3.484  13.682 -0.9346 -0.0693  0.3457
   62MOL0     C 8270   9.224   3.569  13.666 -0.4562  1.1828 -0.3914
   62MOL0     O 8271   9.208   3.678  13.740 -0.0788 -0.7411  0.1087
   62MOL0     C 8272   9.232   3.670  13.883 -0.7588 -0.3109  0.4497
   62MOL0     C 8273   9.118   3.729  13.964 -0.0273 -0.0379  1.4030
   62MOL0     C 8274   9.002   3.639  13.968 -0.8633 -0.1129 -0.5995
   62MOL0     C 8275   9.031   3.494  14.010  0.6046  0.9508  0.1288
   62MOL0     C 8276   8.888   3.417  14.014  0.0668  0.4615 -0.0048
   62MOL0     C 8277   8.774   3.465  14.110 -0.4899 -0.6444 -0.0724
   62MOL0     C 8278   8.833   3.498  14.249  0.2226  0.3530  0.4428
   62MOL0     C 8279   8.724   3.509  14.347  0.3538 -0.6466 -0.6106
   62MOL0    Cl 8280   8.618   3.638  14.326 -0.0314  0.6792  0.1447
   62MOL0     C 8281   9.125   3.530  13.572 -0.9915  0.0510 -0.3619
   62MOL0     C 8282   9.146   3.419  13.494 -0.2949 -0.2290 -0.8329
   62MOL0     O 8283   9.366   3.342  13.280 -0.3518 -0.0167  0.1117
   62MOL0     C 8284   9.313   2.983  13.312  0.0404 -0.0164  0.5038
   62MOL0     C 8285   9.351   2.862  13.256 -0.5098  0.2721 -0.1439
   62MOL0     N 8286   9.857   2.486  12.644 -0.0929 -1.0111 -0.1619
   62MOL0     N 8287   9.904   2.491  12.529 -0.1693 -0.8924 -0.2560
   62MOL0     C 8288   9.535   1.852  11.602  0.0325  0.0154  0.9546
   62MOL0     C 8289   9.473   1.832  11.475 -0.2413  1.0052  0.2395
   62MOL0     C 8290   9.433   1.799  11.028  0.4551  0.1817  0.3296
   62MOL0     C 8291   9.487   1.758  10.908  0.0904  0.1865 -0.0412
   62MOL0     C 8292   9.412   1.710  10.797  0.4436 -0.1081  0.6524
   62MOL0     C 8293   9.273   1.720  10.805  0.3191  0.6323  0.6792
   62MOL0     O 8294   9.201   1.669  10.691  0.4116  0.8604  0.3189
   62MOL0     C 8295   9.067   1.629  10.705  0.2382 -0.4053 -0.0533
   62MOL0     C 8296   8.968   1.741  10.674  0.0882  0.0831 -1.3261
   62MOL0     C 8297   8.835   1.656  10.655 -0.2017 -0.1013  1.0040
   62MOL0     C 8298   8.750   1.707  10.534 -0.1119 -1.0562  0.0945
   62MOL0     C 8299   8.703   1.840  10.564 -0.1152 -1.2562  0.0518
   62MOL0     C 8300   8.697   1.957  10.609 -0.3350  0.7747  0.8142
   62MOL0     C 8301   9.218   1.760  10.926  0.4945 -0.1420  0.8478
   62MOL0     C 8302   9.287   1.790  11.039 -0.9998 -0.0641  0.2009
   62MOL0     H 8303   9.624   2.070  11.300  2.2241 -1.9895 -0.3973
   62MOL0     H 8304   9.737   2.112  11.530 -2.2550  2.1072  4.3445
   62MOL0     H 8305   9.625   1.828  11.840 -0.6312  1.0428 -3.4173
   62MOL0     H 8306   9.711   1.936  11.944  1.9574 -3.3766 -0.7293
   62MOL0     H 8307   9.418   1.992  11.860 -0.6455 -0.5520  1.2912
   62MOL0     H 8308   9.478   1.947  12.015  0.6605 -2.7080 -1.7541
   62MOL0     H 8309   9.548   2.192  11.856 -0.7226  0.8854  0.6439
   62MOL0     H 8310   9.427   2.190  11.981 -0.9681 -3.4439  3.7543
   62MOL0     H 8311   9.580   2.149  12.162 -0.6771  2.3500  0.6235
   62MOL0     H 8312   9.711   2.129  12.037 -0.6897  0.5897 -1.8109
   62MOL0     H 8313   9.688   2.376  11.988 -0.2261 -0.6487  0.4595
   62MOL0     H 8314   9.547   2.391  12.074  0.3011  0.2151  0.7671
   62MOL0     H 8315   9.694   2.334  12.292 -2.7555  1.2620 -0.5920
   62MOL0     H 8316   9.821   2.325  12.160 -0.0772  0.5100 -0.3267
   62MOL0     H 8317   9.748   2.567  12.121 -0.8010  2.1047  0.6755
   62MOL0     H 8318   9.637   2.550  12.258  0.8461 -1.6641  2.2382
   62MOL0     H 8319   9.844   2.693  12.286  0.7540 -0.3777 -3.0268
   62MOL0     H 8320   9.928   2.534  12.265 -0.1115  0.2153  0.8187
   62MOL0     H 8321   9.609   2.629  12.493 -1.7907 -0.5303  1.8981
   62MOL0     H 8322   9.570   2.632  12.753  1.9971  1.8484 -3.5276
   62MOL0     H 8323   9.597   2.450  12.764 -1.3576  0.9080 -0.4451
   62MOL0     H 8324   9.801   2.652  12.871 -0.9874  0.2153 -2.7331
   62MOL0     H 8325   9.798   2.485  12.916  2.3202  1.1526 -0.8719
   62MOL0     H 8326   9.735   2.589  13.097  1.3809 -0.8273 -0.7307
   62MOL0     H 8327   9.581   2.518  13.038 -2.0971  1.8811  1.8924
   62MOL0     H 8328   9.545   2.744  12.921  0.0650 -1.6225  0.0965
   62MOL0     H 8329   9.671   2.805  13.025  1.8926 -1.4937 -0.2093
   62MOL0     H 8330   9.552   2.987  13.007  1.6992  0.0154  1.1682
   62MOL0     H 8331   9.436   3.290  13.045  2.2096  0.4580 -2.1519
   62MOL0     H 8332   9.579   3.261  13.155  0.6647 -2.2270  0.8775
   62MOL0     H 8333   9.597   3.207  12.999  1.6265  1.5151  0.4990
   62MOL0     H 8334   9.434   3.303  13.621 -1.3538 -0.3873  0.5124
   62MOL0     H 8335   9.415   3.523  13.747  0.3375  1.6026 -2.0364
   62MOL0     H 8336   9.267   3.572  13.916  2.1281 -0.2126 -1.8566
   62MOL0     H 8337   9.320   3.734  13.898 -1.6976  1.2043 -0.3054
   62MOL0     H 8338   9.162   3.738  14.064 -1.8415 -3.6122  2.6872
   62MOL0     H 8339   9.087   3.829  13.932  3.2410  1.8214  3.4948
   62MOL0     H 8340   8.967   3.626  13.865 -0.9572 -0.2973 -0.5453
   62MOL0     H 8341   8.921   3.677  14.031  0.6181 -0.1812  1.4689
   62MOL0     H 8342   9.091   3.446  13.932 -0.5043 -0.6491  0.1981
   62MOL0     H 8343   9.084   3.482  14.105 -1.3508  3.3799  1.6354
   62MOL0     H 8344   8.913   3.314  14.041 -1.8937  0.5978  2.6577
   62MOL0     H 8345   8.847   3.410  13.913  1.6234 -1.4475 -0.5824
   62MOL0     H 8346   8.734   3.556  14.066 -3.3857 -2.3317 -1.2061
   62MOL0     H 8347   8.693   3.392  14.114 -2.2853  1.3184  2.8998
   62MOL0     H 8348   8.898   3.585  14.256  1.4921 -0.6236  1.3291
   62MOL0     H 8349   8.908   3.423  14.279  1.4424  1.9190  1.4817
   62MOL0     H 8350   8.771   3.517  14.446 -0.9275 -0.3676 -0.0060
   62MOL0     H 8351   8.667   3.416  14.352 -1.6896  0.5902  0.3199
   62MOL0     H 8352   9.033   3.587  13.572 -0.3818  1.2180  2.0180
   62MOL0     H 8353   9.063   3.385  13.433 -0.6077  0.9508 -1.1004
   62MOL0     H 8354   9.251   2.965  13.400 -0.7684  0.9523  0.1595
   62MOL0     H 8355   9.337   2.764  13.298  1.4344 -0.1629 -0.4506
   62MOL0     H 8356   9.517   1.794  11.692 -0.0221  2.3359  2.5335
   62MOL0     H 8357   9.388   1.766  11.470  0.3254  0.3983 -3.1660
   62MOL0     H 8358   9.594   1.769  10.892  0.8261 -0.7958  3.3654
   62MOL0     H 8359   9.459   1.672  10.707  2.0337  7.0745 -2.2057
   62MOL0     H 8360   9.047   1.552  10.629  0.2438 -0.0205 -0.4496
   62MOL0     H 8361   9.060   1.589  10.807 -2.3568 -1.0748 -0.4123
   62MOL0     H 8362   9.008   1.784  10.582  4.6212  0.1916  0.4422
   62MOL0     H 8363   8.964   1.822  10.748 -0.1203 -0.1950 -1.0279
   62MOL0     H 8364   8.768   1.657  10.741 -0.7146 -1.8367  0.6504
   62MOL0     H 8365   8.853   1.551  10.631 -4.3104 -0.8007  0.2197
   62MOL0     H 8366   8.665   1.641  10.514 -1.6464  1.0364 -0.6125
   62MOL0     H 8367   8.817   1.707  10.447 -1.1622 -0.6492 -0.7451
   62MOL0     H 8368   8.682   2.055  10.652 -2.1940  0.2645  1.4198
   62MOL0     H 8369   9.110   1.750  10.927  0.2360  1.4700 -1.5658
   62MOL0     H 8370   9.239   1.810  11.134  2.3125  1.3245  1.7601
   63MOL0     O 8371   0.362   9.930  10.745 -0.9775  0.2118  0.0605
   63MOL0     C 8372   0.373  10.045  10.705 -0.0881 -0.4735  0.5782
   63MOL0     O 8373   0.430  10.148  10.765  0.6348  0.8666  0.4671
   63MOL0     C 8374   0.473  10.121  10.894  0.2321  0.0139  0.3977
   63MOL0     C 8375   0.594  10.055  10.918 -0.0969 -1.1527 -0.5823
   63MOL0     C 8376   0.638  10.036  11.051 -0.0600 -0.8787  0.5973
   63MOL0     C 8377   0.569  10.083  11.165 -0.9565 -0.8013  0.6603
   63MOL0     O 8378   0.623  10.071  11.287  0.6043  0.0579 -0.3959
   63MOL0     C 8379   0.720   9.969  11.320 -0.0450 -0.6434 -0.7031
   63MOL0     C 8380   0.725   9.968  11.473 -0.5846  0.1770  1.0812
   63MOL0     C 8381   0.808  10.078  11.539 -0.6641 -0.1861 -0.9506
   63MOL0     C 8382   0.947  10.109  11.473  0.5578  0.4620  0.8076
   63MOL0     C 8383   1.033   9.981  11.493 -1.2134  0.0438 -1.0997
   63MOL0     C 8384   1.177  10.016  11.475  0.1764 -1.0743  1.1503
   63MOL0     C 8385   1.277   9.903  11.481 -0.7551 -0.0801 -0.3978
   63MOL0     C 8386   1.288   9.882  11.626  0.1321  0.3421 -1.4149
   63MOL0     N 8387   1.425   9.822  11.651 -0.1435 -0.1487 -1.2855
   63MOL0     C 8388   1.464   9.695  11.618 -0.4901 -0.1522  0.6136
   63MOL0     C 8389   1.597   9.695  11.645  0.2963 -0.4325  1.1915
   63MOL0     C 8390   1.675   9.566  11.651 -0.8492 -1.1511 -0.2366
   63MOL0     C 8391   1.726   9.501  11.782  0.0325 -0.1937 -0.2742
   63MOL0     C 8392   1.635   9.536  11.897  1.9997  0.3195  0.1412
   63MOL0     C 8393   1.637   9.443  12.018 -0.2400 -0.8420 -0.3770
   63MOL0     O 8394   1.508   9.440  12.093 -0.1795 -0.6827  0.1971
   63MOL0     C 8395   1.477   9.345  12.185 -0.3354  0.3100  1.2042
   63MOL0     C 8396   1.560   9.243  12.215  0.3831 -1.5327 -0.7970
   63MOL0     C 8397   1.531   9.144  12.317  0.0818  0.2976  0.2443
   63MOL0     C 8398   1.627   9.033  12.345 -0.0631  0.0931 -0.9950
   63MOL0     C 8399   1.395   9.141  12.369 -0.2438  0.6956  0.0427
   63MOL0     C 8400   1.323   9.033  12.456 -0.5871  0.5343  0.4825
   63MOL0     O 8401   1.209   9.080  12.509  0.4095 -0.0956 -0.6097
   63MOL0     C 8402   1.165   9.008  12.619 -0.0980  0.2763 -0.1382
   63MOL0     C 8403   1.033   8.962  12.627  0.0624 -0.4755 -0.3381
   63MOL0     C 8404   0.985   8.901  12.743  0.9875 -0.1009  1.2010
   63MOL0     C 8405   1.058   8.904  12.860  1.2370  0.0675 -0.9979
   63MOL0     O 8406   1.008   8.856  12.978  1.1021  0.1837  0.2195
   63MOL0     C 8407   0.870   8.814  12.989  0.6286  0.0697  0.8326
   63MOL0     C 8408   0.824   8.828  13.140  0.3317  0.5339 -0.8733
   63MOL0     C 8409   0.696   8.745  13.168 -0.4529 -0.6925  0.2190
   63MOL0     C 8410   0.629   8.791  13.293  0.3754 -0.3482  0.2034
   63MOL0     C 8411   0.520   8.696  13.321 -0.5001  0.4833 -0.7254
   63MOL0     C 8412   0.490   8.716  13.471  0.6837  0.2720 -0.7693
   63MOL0     C 8413   0.394   8.598  13.527  0.3203 -0.9967  0.3699
   63MOL0     C 8414   0.255   8.599  13.484 -0.1530 -1.0274  0.3904
   63MOL0    Cl 8415   0.191   8.452  13.566  0.2481  0.3114 -0.0083
   63MOL0     C 8416   1.190   8.950  12.850  0.6112  0.0503 -0.7226
   63MOL0     C 8417   1.241   9.007  12.737 -0.3360 -0.7478  0.4174
   63MOL0     O 8418   1.381   8.933  12.493  0.2508  0.6353  0.1269
   63MOL0     C 8419   1.315   9.253  12.337  0.0699  1.0724  0.0332
   63MOL0     C 8420   1.356   9.344  12.244  0.5334 -0.5595  0.1334
   63MOL0     N 8421   1.639   9.819  11.685  0.9413 -0.6834  0.7105
   63MOL0     N 8422   1.533   9.895  11.692 -0.2134  0.6908 -0.1015
   63MOL0     C 8423   0.448  10.142  11.143 -1.0315 -0.1362  0.1482
   63MOL0     C 8424   0.400  10.162  11.010  1.0586 -0.0871  0.1606
   63MOL0     C 8425   0.325  10.065  10.561  0.2304 -0.7760  1.5370
   63MOL0     C 8426   0.334   9.962  10.466 -0.5874  0.1888  0.5954
   63MOL0     C 8427   0.275   9.978  10.338 -0.3331  0.7330 -0.3695
   63MOL0     C 8428   0.224  10.099  10.299  0.2001 -0.2584  0.8956
   63MOL0     O 8429   0.153  10.117  10.174  0.7046 -0.4282  0.4504
   63MOL0     C 8430   0.215  10.059  10.059  0.2849 -0.1054 -0.4735
   63MOL0     C 8431   0.164  10.100   9.917  0.0056  0.1375 -1.1018
   63MOL0     C 8432   0.230  10.008   9.814  0.2459 -0.5942 -0.4660
   63MOL0     C 8433   0.378   9.997   9.815 -0.4640  0.0814  0.1154
   63MOL0     C 8434   0.430   9.939   9.687  0.2627  0.0991 -0.0077
   63MOL0     C 8435   0.481   9.893   9.583  0.0443  0.0051  0.5149
   63MOL0     C 8436   0.217  10.195  10.398 -0.9540  0.4660 -0.4118
   63MOL0     C 8437   0.275  10.191  10.527 -0.5027 -0.6057  0.1235
   63MOL0     H 8438   0.659  10.042  10.832  2.4060 -1.4105  1.2442
   63MOL0     H 8439   0.734   9.995  11.079  0.4655  0.6120  1.0680
   63MOL0     H 8440   0.684   9.871  11.288 -0.1516 -1.8303  2.7191
   63MOL0     H 8441   0.820   9.988  11.281  0.2996 -1.1039 -0.0532
   63MOL0     H 8442   0.624   9.965  11.516 -2.4263 -0.7052 -2.7874
   63MOL0     H 8443   0.770   9.874  11.506  2.2894 -1.2932 -5.4466
   63MOL0     H 8444   0.761  10.177  11.546  0.5979  0.3221  1.5271
   63MOL0     H 8445   0.802  10.037  11.640 -1.9953  3.5065  0.6814
   63MOL0     H 8446   0.941  10.151  11.373  1.3661 -2.1355 -0.4326
   63MOL0     H 8447   1.001  10.179  11.537 -0.6251  2.2632 -0.0865
   63MOL0     H 8448   1.016   9.926  11.586  2.1916 -2.8310 -1.9812
   63MOL0     H 8449   1.001   9.907  11.419  1.7941 -2.9108  0.3127
   63MOL0     H 8450   1.180  10.072  11.381 -0.7621  0.9905  2.2943
   63MOL0     H 8451   1.198  10.095  11.548 -1.9389  0.8565 -0.2005
   63MOL0     H 8452   1.261   9.804  11.438  4.1702 -1.0347 -0.6088
   63MOL0     H 8453   1.370   9.928  11.428 -0.6867 -0.8401 -0.6416
   63MOL0     H 8454   1.217   9.802  11.648  0.0736  0.5412 -0.8691
   63MOL0     H 8455   1.264   9.968  11.690  0.0265  0.5345 -1.7102
   63MOL0     H 8456   1.396   9.623  11.574  1.0415 -0.2519 -1.7747
   63MOL0     H 8457   1.611   9.497  11.595  0.0099 -1.6397 -0.6455
   63MOL0     H 8458   1.758   9.579  11.581  0.3802  3.7156  1.7348
   63MOL0     H 8459   1.822   9.544  11.814 -1.7119  1.8056  2.7885
   63MOL0     H 8460   1.736   9.392  11.775 -0.1029 -0.2503  0.3490
   63MOL0     H 8461   1.533   9.527  11.859  2.0433 -3.6446  0.4645
   63MOL0     H 8462   1.646   9.642  11.922  0.5962  0.5061  0.0404
   63MOL0     H 8463   1.714   9.478  12.088 -1.5505  1.5817 -0.0618
   63MOL0     H 8464   1.660   9.343  11.980  0.4707 -0.5080 -0.8589
   63MOL0     H 8465   1.659   9.252  12.172  0.6320 -2.0790 -0.3593
   63MOL0     H 8466   1.656   9.035  12.451 -2.4807  2.6402 -0.2479
   63MOL0     H 8467   1.574   8.940  12.323 -2.5649  1.4018 -0.8544
   63MOL0     H 8468   1.723   9.045  12.295  0.9515  2.7289  1.2981
   63MOL0     H 8469   0.975   8.964  12.536 -0.3309 -0.6552 -0.0953
   63MOL0     H 8470   0.886   8.858  12.727  0.2458  2.5457 -2.8728
   63MOL0     H 8471   0.807   8.873  12.923  0.9083 -1.7591 -1.1948
   63MOL0     H 8472   0.857   8.709  12.959  2.0458  0.3228 -0.7718
   63MOL0     H 8473   0.907   8.794  13.201  0.7414  2.4405 -0.2873
   63MOL0     H 8474   0.803   8.932  13.169 -0.7388  0.1809 -0.3165
   63MOL0     H 8475   0.721   8.639  13.171  1.8270 -0.1926  0.4030
   63MOL0     H 8476   0.630   8.758  13.081  1.4481 -1.7205 -1.4655
   63MOL0     H 8477   0.695   8.787  13.380  1.8999  2.6368 -0.6759
   63MOL0     H 8478   0.593   8.894  13.284 -0.1221 -0.6645 -2.0641
   63MOL0     H 8479   0.554   8.593  13.305  0.6654  0.6733  0.4149
   63MOL0     H 8480   0.431   8.707  13.258 -1.7503 -0.9416  0.7055
   63MOL0     H 8481   0.583   8.705  13.528  1.8103  2.2624 -2.1154
   63MOL0     H 8482   0.446   8.816  13.481 -1.9321 -0.7640 -1.0704
   63MOL0     H 8483   0.407   8.600  13.636 -0.8737  0.3341  0.5225
   63MOL0     H 8484   0.434   8.502  13.493 -2.8734 -2.3599  0.1104
   63MOL0     H 8485   0.241   8.577  13.378  5.9814  0.0994 -1.0249
   63MOL0     H 8486   0.195   8.690  13.494  1.5038  0.1671 -0.0221
   63MOL0     H 8487   1.246   8.933  12.941  0.7882  2.0421 -0.4008
   63MOL0     H 8488   1.341   9.049  12.737 -1.0202  1.0495  2.3419
   63MOL0     H 8489   1.216   9.269  12.379  0.1864 -1.4376  1.4536
   63MOL0     H 8490   1.285   9.419  12.212 -0.1972 -0.0363  2.7529
   63MOL0     H 8491   0.394  10.178  11.229  1.2794 -1.7467  2.4094
   63MOL0     H 8492   0.306  10.211  10.986  2.5935  1.7848 -2.5138
   63MOL0     H 8493   0.359   9.860  10.493 -1.6815  0.0885  1.3210
   63MOL0     H 8494   0.269   9.891  10.273  1.8675 -1.7609  2.4435
   63MOL0     H 8495   0.320  10.088  10.056  0.4532 -0.7461 -1.4916
   63MOL0     H 8496   0.198   9.951  10.062  2.1228 -0.5461 -2.4948
   63MOL0     H 8497   0.175  10.206   9.895  3.9869  0.0624 -0.2137
   63MOL0     H 8498   0.056  10.090   9.925  0.0725  0.5948  0.8426
   63MOL0     H 8499   0.208  10.039   9.712  2.0311  0.4836 -0.5624
   63MOL0     H 8500   0.185   9.909   9.829 -0.1190 -0.4056 -0.2844
   63MOL0     H 8501   0.409   9.928   9.894 -1.8429  0.0166  0.6304
   63MOL0     H 8502   0.433  10.088   9.842  1.0089 -0.6327 -0.3666
   63MOL0     H 8503   0.535   9.854   9.499 -1.0754 -2.3869  0.8321
   63MOL0     H 8504   0.169  10.280  10.352  0.3394  0.5976 -1.5797
   63MOL0     H 8505   0.268  10.273  10.599  1.3803  2.6077 -3.0499
   64MOL0     O 8506   1.255   2.705   5.382 -0.0218 -0.1910  0.4844
   64MOL0     C 8507   1.330   2.631   5.445  0.8685  0.2963 -0.2908
   64MOL0     O 8508   1.290   2.518   5.517  0.3444  0.5819 -0.3934
   64MOL0     C 8509   1.170   2.469   5.479  0.5297  0.1172 -0.9375
   64MOL0     C 8510   1.072   2.421   5.575 -0.5268  0.0229  0.5025
   64MOL0     C 8511   0.952   2.357   5.539 -0.6215  0.5354  0.1643
   64MOL0     C 8512   0.917   2.336   5.404 -0.1831 -0.2411  0.8806
   64MOL0     O 8513   0.806   2.261   5.358 -0.0599  0.1224  0.4173
   64MOL0     C 8514   0.702   2.251   5.452  0.5331 -0.0310 -0.3973
   64MOL0     C 8515   0.576   2.187   5.378 -0.2255  0.1125 -0.5285
   64MOL0     C 8516   0.484   2.132   5.495 -0.2363 -1.0629  0.1187
   64MOL0     C 8517   0.412   2.231   5.587 -0.6218 -0.5309  0.3244
   64MOL0     C 8518   0.276   2.273   5.532 -0.1310  0.5213 -0.4495
   64MOL0     C 8519   0.211   2.378   5.629 -0.0551  0.0036  0.9979
   64MOL0     C 8520   0.078   2.428   5.570 -1.1882  0.6540  0.0331
   64MOL0     C 8521   0.002   2.538   5.652  0.3777  0.5391 -0.0403
   64MOL0     N 8522   0.089   2.645   5.688 -0.6401 -0.2224  0.7590
   64MOL0     C 8523   0.130   2.741   5.589 -0.4859  1.6309 -0.0789
   64MOL0     C 8524   0.177   2.842   5.667  0.0879 -0.6643  0.3953
   64MOL0     C 8525   0.232   2.971   5.614  0.0206 -0.2779  0.9051
   64MOL0     C 8526   0.261   2.996   5.466  0.1562  0.0225 -0.2950
   64MOL0     C 8527   0.389   3.074   5.445  0.2290 -0.0280 -0.3570
   64MOL0     C 8528   0.383   3.208   5.518 -0.8174 -0.3061 -0.8180
   64MOL0     O 8529   0.472   3.292   5.441 -0.1720  0.8475  0.3596
   64MOL0     C 8530   0.526   3.407   5.492 -0.3780  0.0499 -0.0067
   64MOL0     C 8531   0.629   3.473   5.420  0.7539 -0.1946  1.0345
   64MOL0     C 8532   0.675   3.605   5.456 -0.4981 -0.3597 -0.4744
   64MOL0     C 8533   0.782   3.660   5.371 -0.0096 -0.0763 -0.0326
   64MOL0     C 8534   0.623   3.668   5.569  0.4736  0.6704  0.9042
   64MOL0     C 8535   0.651   3.797   5.625 -0.0200  0.3732 -0.0026
   64MOL0     O 8536   0.636   3.816   5.771 -0.1956 -0.0368  0.6397
   64MOL0     C 8537   0.677   3.940   5.811  0.0679  0.4924  0.4734
   64MOL0     C 8538   0.602   4.051   5.767  0.3128  0.3073  0.4806
   64MOL0     C 8539   0.652   4.178   5.794 -0.5606  0.1647  0.0433
   64MOL0     C 8540   0.741   4.201   5.895 -0.4780 -0.2966  0.3524
   64MOL0     O 8541   0.754   4.323   5.959 -0.0809 -0.5070  0.5580
   64MOL0     C 8542   0.863   4.400   5.905 -0.4976  0.2181  1.0996
   64MOL0     C 8543   1.006   4.333   5.937  0.4156  0.1134 -0.2792
   64MOL0     C 8544   1.035   4.342   6.088 -0.3278  0.3401 -0.6610
   64MOL0     C 8545   1.137   4.235   6.132  0.1297 -0.7459  0.2611
   64MOL0     C 8546   1.134   4.236   6.289 -0.4464  0.6823 -0.0670
   64MOL0     C 8547   1.212   4.355   6.351 -0.1912  0.1690  0.4818
   64MOL0     C 8548   1.213   4.334   6.505  0.4754  0.2319 -0.9218
   64MOL0     C 8549   1.273   4.210   6.564  0.0076  1.0816  0.0207
   64MOL0    Cl 8550   1.250   4.205   6.741 -0.0322 -0.0609 -0.2566
   64MOL0     C 8551   0.792   4.092   5.967 -1.1836  0.3095  0.0737
   64MOL0     C 8552   0.773   3.962   5.916 -0.6485  0.7972  0.6023
   64MOL0     O 8553   0.681   3.890   5.545  0.7430 -0.0749 -0.9200
   64MOL0     C 8554   0.519   3.599   5.641 -0.0895  0.5071  0.0697
   64MOL0     C 8555   0.466   3.478   5.600 -0.4218  0.4434 -0.7484
   64MOL0     N 8556   0.162   2.805   5.804  0.6648 -0.8996  0.6163
   64MOL0     N 8557   0.112   2.683   5.809 -0.1833 -0.1466 -1.0050
   64MOL0     C 8558   1.017   2.373   5.313  0.0251  1.1814  0.7998
   64MOL0     C 8559   1.140   2.443   5.347  0.8489 -0.1459  0.5089
   64MOL0     C 8560   1.473   2.668   5.460  0.0214  0.8468  0.0326
   64MOL0     C 8561   1.572   2.577   5.507 -0.0791 -0.2896  0.1287
   64MOL0     C 8562   1.706   2.599   5.497  0.1917  0.4470 -0.4109
   64MOL0     C 8563   1.754   2.718   5.444 -1.5163 -0.4400  0.5823
   64MOL0     O 8564   1.893   2.730   5.432  0.5524  0.1762  0.3089
   64MOL0     C 8565   1.951   2.845   5.360  0.0550  0.0945 -0.6152
   64MOL0     C 8566   1.956   2.970   5.437 -0.1386  0.3759 -0.1042
   64MOL0     C 8567   2.035   2.966   5.573  0.5432  0.2501  0.5548
   64MOL0     C 8568   2.044   3.107   5.637 -0.2167  0.3923 -0.3272
   64MOL0     C 8569   2.105   3.202   5.540 -0.3866 -0.1609  0.1973
   64MOL0     C 8570   2.169   3.278   5.458  0.6778  0.2775  0.3732
   64MOL0     C 8571   1.657   2.816   5.413 -0.4803 -0.5970 -0.8460
   64MOL0     C 8572   1.518   2.792   5.427  0.3645 -0.4625 -0.3028
   64MOL0     H 8573   1.107   2.448   5.674  0.5302 -3.0214  1.0575
   64MOL0     H 8574   0.887   2.328   5.622 -1.1005 -0.2480 -0.4714
   64MOL0     H 8575   0.726   2.184   5.536  0.1591 -0.6246 -0.7574
   64MOL0     H 8576   0.683   2.350   5.494 -0.6178 -1.2863  2.3430
   64MOL0     H 8577   0.534   2.259   5.307 -4.4167 -1.3444  0.1961
   64MOL0     H 8578   0.615   2.099   5.327 -1.7391 -1.4557  0.8751
   64MOL0     H 8579   0.404   2.071   5.452  0.2059  0.1192 -2.5997
   64MOL0     H 8580   0.544   2.073   5.565 -1.6554 -0.6273  1.7425
   64MOL0     H 8581   0.404   2.192   5.689  1.6730  0.8483  1.1114
   64MOL0     H 8582   0.478   2.318   5.600  0.0373 -1.0411  0.4060
   64MOL0     H 8583   0.302   2.313   5.434  0.2354 -4.6193 -2.7426
   64MOL0     H 8584   0.215   2.185   5.508  3.1743 -1.6180 -1.7113
   64MOL0     H 8585   0.200   2.303   5.708  3.1346 -2.4820 -0.6618
   64MOL0     H 8586   0.278   2.460   5.657 -2.3927  3.5050 -2.5988
   64MOL0     H 8587   0.102   2.477   5.475  0.4885  0.4693  0.3384
   64MOL0     H 8588   0.011   2.345   5.544 -0.1720  0.9069 -4.1357
   64MOL0     H 8589  -0.011   2.482   5.745  0.5649  1.3896  0.5135
   64MOL0     H 8590  -0.091   2.565   5.601  0.7387  2.1177  0.0756
   64MOL0     H 8591   0.131   2.723   5.482  1.4180 -1.0563  0.2920
   64MOL0     H 8592   0.166   3.055   5.636  0.2719 -0.6364  3.3190
   64MOL0     H 8593   0.326   2.985   5.669 -0.9287 -1.3843  2.8966
   64MOL0     H 8594   0.172   3.047   5.429 -2.6254 -3.7511  0.5291
   64MOL0     H 8595   0.268   2.903   5.410  0.5455  0.2755 -0.6771
   64MOL0     H 8596   0.413   3.076   5.338 -0.0698 -0.8012 -0.4447
   64MOL0     H 8597   0.469   3.009   5.483 -3.7395 -5.7204 -0.4243
   64MOL0     H 8598   0.401   3.208   5.626  2.8053  1.0141 -1.2892
   64MOL0     H 8599   0.281   3.245   5.500 -0.4921  0.2602 -1.5698
   64MOL0     H 8600   0.655   3.418   5.330  2.8549  0.1402  1.3739
   64MOL0     H 8601   0.742   3.722   5.290 -0.5051 -0.4019 -0.0391
   64MOL0     H 8602   0.854   3.720   5.427 -0.7066 -1.3966  2.4144
   64MOL0     H 8603   0.838   3.579   5.323  2.7720  1.8159 -0.2161
   64MOL0     H 8604   0.517   4.047   5.699 -0.8459  0.4475  1.8643
   64MOL0     H 8605   0.594   4.262   5.759  2.6752  1.3927 -3.0526
   64MOL0     H 8606   0.862   4.414   5.796  0.8269 -0.9890  0.8893
   64MOL0     H 8607   0.863   4.503   5.941  3.5055  0.8257 -0.0876
   64MOL0     H 8608   1.001   4.225   5.920 -1.5490 -0.0008  0.7493
   64MOL0     H 8609   1.092   4.378   5.888 -1.0274  2.2224 -0.9892
   64MOL0     H 8610   0.948   4.314   6.148  0.2622  1.7211  0.9130
   64MOL0     H 8611   1.060   4.442   6.124 -3.1724  0.5238  1.1424
   64MOL0     H 8612   1.104   4.140   6.090 -0.3527 -0.6616  0.4475
   64MOL0     H 8613   1.238   4.266   6.100 -0.9191  0.6958 -1.9257
   64MOL0     H 8614   1.174   4.141   6.324 -1.6975  0.1337 -0.0736
   64MOL0     H 8615   1.030   4.237   6.324 -0.7401  2.1879 -0.8912
   64MOL0     H 8616   1.315   4.371   6.320 -0.0241 -0.0544  0.9149
   64MOL0     H 8617   1.159   4.448   6.327  1.7873  0.9263 -1.2192
   64MOL0     H 8618   1.108   4.340   6.534 -0.0097  0.7470 -2.6986
   64MOL0     H 8619   1.251   4.422   6.558  0.3771 -1.8342  2.9245
   64MOL0     H 8620   1.379   4.200   6.539  0.2810 -1.1280  1.7863
   64MOL0     H 8621   1.232   4.114   6.530  1.5199 -0.1179  1.4242
   64MOL0     H 8622   0.844   4.112   6.060  3.7262  0.1434 -2.2723
   64MOL0     H 8623   0.822   3.876   5.960  0.5978  0.1831 -1.8170
   64MOL0     H 8624   0.483   3.639   5.735 -1.2046 -1.4557  0.5362
   64MOL0     H 8625   0.381   3.429   5.646  2.1005 -4.3297 -0.5454
   64MOL0     H 8626   1.001   2.362   5.206 -1.6786 -0.4706  1.1630
   64MOL0     H 8627   1.212   2.476   5.273 -0.9599  2.2770 -0.3240
   64MOL0     H 8628   1.533   2.483   5.546 -2.1065  0.2219 -0.5167
   64MOL0     H 8629   1.778   2.524   5.527 -0.5269 -0.3689 -0.6858
   64MOL0     H 8630   2.058   2.832   5.344  0.7260  3.2623  0.4877
   64MOL0     H 8631   1.899   2.850   5.264 -0.4988  1.4587 -0.2647
   64MOL0     H 8632   1.855   3.007   5.457 -0.6176 -0.4760 -0.8779
   64MOL0     H 8633   2.005   3.043   5.372  0.2866  0.3200  0.1502
   64MOL0     H 8634   2.135   2.929   5.552 -0.0864 -0.3456 -1.7000
   64MOL0     H 8635   1.986   2.898   5.644  0.0619 -1.5311 -1.3783
   64MOL0     H 8636   2.112   3.117   5.722  0.7394 -0.0055 -1.0249
   64MOL0     H 8637   1.955   3.149   5.685  1.1942  3.2255  0.0085
   64MOL0     H 8638   2.215   3.346   5.389 -2.2565  0.1840 -1.8597
   64MOL0     H 8639   1.672   2.917   5.375 -3.3925  0.4203  0.4742
   64MOL0     H 8640   1.448   2.873   5.408  0.9329  1.1362  3.5153
   65MOL0     O 8641   5.374   9.787   5.135  0.7584 -0.1797 -0.4182
   65MOL0     C 8642   5.259   9.785   5.095 -0.8081 -0.0152  0.5752
   65MOL0     O 8643   5.186   9.892   5.056 -0.3044  0.0803 -0.3467
   65MOL0     C 8644   5.245  10.015   5.075  0.6939 -0.0712 -1.0768
   65MOL0     C 8645   5.327  10.062   4.970  0.7573 -0.1988  0.3264
   65MOL0     C 8646   5.376  10.195   4.984 -0.7016 -0.1495 -0.7244
   65MOL0     C 8647   5.336  10.274   5.095  0.5028 -0.1462 -0.6623
   65MOL0     O 8648   5.367  10.411   5.082  0.2599 -0.0236  0.4859
   65MOL0     C 8649   5.310  10.497   5.182 -1.2174 -0.8956  0.9821
   65MOL0     C 8650   5.335  10.649   5.157  0.2778 -0.4682 -0.0692
   65MOL0     C 8651   5.362  10.729   5.292  0.2688 -0.4263  0.0480
   65MOL0     C 8652   5.413  10.871   5.256 -0.2717 -0.7357 -0.3421
   65MOL0     C 8653   5.435  10.970   5.374 -0.0944 -0.1813 -0.2255
   65MOL0     C 8654   5.549  10.920   5.467 -0.4275  1.0871 -0.1979
   65MOL0     C 8655   5.573  11.025   5.575  0.7400  0.7805 -0.0766
   65MOL0     C 8656   5.696  10.987   5.656 -0.3916  0.6076 -0.6532
   65MOL0     N 8657   5.750  11.114   5.706 -0.0700 -0.2087  0.1305
   65MOL0     C 8658   5.712  11.183   5.823  0.5139 -1.0854 -0.4286
   65MOL0     C 8659   5.806  11.281   5.837  0.0859 -0.9488 -1.0127
   65MOL0     C 8660   5.801  11.390   5.948 -0.0400  0.0524 -0.8110
   65MOL0     C 8661   5.662  11.463   5.957 -0.8436 -0.3609 -0.1007
   65MOL0     C 8662   5.648  11.576   5.854 -0.6393  0.3241 -0.1445
   65MOL0     C 8663   5.517  11.653   5.846  1.3466  0.2646 -0.1462
   65MOL0     O 8664   5.395  11.574   5.840 -0.8024  0.1982  0.2027
   65MOL0     C 8665   5.281  11.633   5.881  0.7148 -0.4360  0.2583
   65MOL0     C 8666   5.270  11.714   5.995 -0.5419  1.0973 -0.3145
   65MOL0     C 8667   5.153  11.786   6.042  0.7992  0.9524  0.5123
   65MOL0     C 8668   5.163  11.852   6.169  0.5771 -0.0028 -0.1826
   65MOL0     C 8669   5.032  11.750   5.971 -0.7937  1.3747  0.3642
   65MOL0     C 8670   4.898  11.807   5.998 -1.0261  0.6561 -0.7715
   65MOL0     O 8671   4.809  11.785   5.902 -0.1242 -0.3928  0.9874
   65MOL0     C 8672   4.669  11.784   5.932 -0.0489 -0.2429 -0.2713
   65MOL0     C 8673   4.610  11.760   6.058 -0.2213  0.8428  0.4932
   65MOL0     C 8674   4.468  11.757   6.077 -0.6057 -0.3178  0.3368
   65MOL0     C 8675   4.394  11.777   5.951  0.2751 -0.3025 -0.6660
   65MOL0     O 8676   4.256  11.763   5.935  0.9778 -1.1710  0.2033
   65MOL0     C 8677   4.178  11.805   6.045  0.2736  0.4046 -0.7231
   65MOL0     C 8678   4.156  11.953   6.083 -0.6814  0.3528 -0.0096
   65MOL0     C 8679   4.138  12.038   5.956 -0.5133 -0.9546 -0.5755
   65MOL0     C 8680   4.106  12.182   6.000  0.6203 -0.2850  0.1375
   65MOL0     C 8681   3.951  12.189   6.034  1.2433 -0.2743 -1.2047
   65MOL0     C 8682   3.906  12.310   6.122  0.3702 -0.4165  0.6030
   65MOL0     C 8683   3.752  12.324   6.150  0.3157 -0.5645 -0.0065
   65MOL0     C 8684   3.724  12.472   6.172 -0.7377  0.2098  0.1818
   65MOL0    Cl 8685   3.546  12.483   6.204  0.0332 -0.2072  0.1034
   65MOL0     C 8686   4.461  11.801   5.828  1.0000  0.2986 -0.0390
   65MOL0     C 8687   4.594  11.814   5.820 -0.3267  0.3559 -0.4773
   65MOL0     O 8688   4.879  11.870   6.100 -0.3591  0.1922  0.1187
   65MOL0     C 8689   5.037  11.660   5.866 -0.5519  0.5453 -0.0791
   65MOL0     C 8690   5.156  11.600   5.821 -0.2718  0.3508 -0.0134
   65MOL0     N 8691   5.900  11.270   5.731  0.4132  0.4737 -0.4454
   65MOL0     N 8692   5.867  11.169   5.656  0.4153 -0.8095  0.3652
   65MOL0     C 8693   5.245  10.230   5.191 -1.4041 -0.8628 -0.6628
   65MOL0     C 8694   5.202  10.102   5.180 -0.0294  0.5286 -0.6239
   65MOL0     C 8695   5.190   9.653   5.086  0.0088  0.1290 -0.3838
   65MOL0     C 8696   5.060   9.644   5.032  0.8827  0.6861  0.5805
   65MOL0     C 8697   4.990   9.522   5.041 -0.3877 -0.2708 -0.3065
   65MOL0     C 8698   5.047   9.403   5.082 -0.5733  1.0071  0.6497
   65MOL0     O 8699   4.968   9.286   5.065  0.4066 -0.0925 -0.6688
   65MOL0     C 8700   5.018   9.153   5.063 -1.3495 -0.0312  0.3972
   65MOL0     C 8701   4.907   9.050   5.031  0.4893 -0.5040  1.2140
   65MOL0     C 8702   4.815   9.042   5.156  0.8465 -0.9311 -1.2118
   65MOL0     C 8703   4.685   8.969   5.121 -0.3447  0.4959  0.6157
   65MOL0     C 8704   4.582   9.046   5.037 -1.2395 -0.0905 -0.2834
   65MOL0     C 8705   4.497   9.101   4.978 -0.9509  0.5530  0.0680
   65MOL0     C 8706   5.179   9.415   5.114 -0.8560 -0.0533 -1.1231
   65MOL0     C 8707   5.250   9.537   5.125  1.0872  0.0242 -0.0408
   65MOL0     H 8708   5.336   9.999   4.882 -2.4090 -0.6510  0.2166
   65MOL0     H 8709   5.454  10.229   4.916 -0.5844  0.5672 -0.2466
   65MOL0     H 8710   5.201  10.498   5.180 -1.6229  5.8870  0.6389
   65MOL0     H 8711   5.345  10.459   5.278 -1.5925 -0.0306  1.4775
   65MOL0     H 8712   5.408  10.664   5.077  0.7415 -1.3996  0.1629
   65MOL0     H 8713   5.247  10.697   5.112 -0.6299 -1.5690  0.4691
   65MOL0     H 8714   5.268  10.731   5.347  1.0003 -2.8437  1.5305
   65MOL0     H 8715   5.437  10.689   5.361 -1.1481 -0.0110  1.8872
   65MOL0     H 8716   5.515  10.874   5.216  1.0784  0.4866  2.8455
   65MOL0     H 8717   5.347  10.914   5.180  0.1077 -2.1490 -1.5191
   65MOL0     H 8718   5.458  11.074   5.349  3.2929 -0.6536  0.5364
   65MOL0     H 8719   5.340  10.965   5.428 -0.6322 -1.4884 -1.2303
   65MOL0     H 8720   5.524  10.823   5.512  2.6952  0.2097 -0.0705
   65MOL0     H 8721   5.640  10.913   5.407 -0.4902  0.1895 -0.2028
   65MOL0     H 8722   5.591  11.115   5.515  2.6981  0.4017 -0.1210
   65MOL0     H 8723   5.478  11.023   5.629  1.5361  0.7839  1.3619
   65MOL0     H 8724   5.776  10.934   5.604  3.8222  4.0140  1.7390
   65MOL0     H 8725   5.664  10.927   5.742  1.6055  2.0602  1.2220
   65MOL0     H 8726   5.630  11.177   5.894  1.0663  2.2416  0.6857
   65MOL0     H 8727   5.821  11.346   6.045  2.5657  3.4932  0.4229
   65MOL0     H 8728   5.881  11.465   5.948  1.8275 -1.8053  0.9618
   65MOL0     H 8729   5.643  11.512   6.053 -3.5791 -0.8312 -0.3267
   65MOL0     H 8730   5.586  11.384   5.960 -2.3347  1.0219  0.0499
   65MOL0     H 8731   5.675  11.537   5.756  2.0379 -1.8946  1.3369
   65MOL0     H 8732   5.722  11.654   5.875 -1.9200  2.6192 -3.3136
   65MOL0     H 8733   5.503  11.715   5.756 -1.6981  1.9615  1.3282
   65MOL0     H 8734   5.515  11.733   5.920 -1.2329  0.5129 -0.3687
   65MOL0     H 8735   5.359  11.730   6.054 -0.2723 -1.8228  0.2197
   65MOL0     H 8736   5.092  11.935   6.179 -1.3592 -1.6903  0.7248
   65MOL0     H 8737   5.137  11.782   6.249  1.0601 -0.1710 -0.1691
   65MOL0     H 8738   5.265  11.891   6.180  0.2774  0.3680  1.5706
   65MOL0     H 8739   4.681  11.738   6.138  2.6003 -2.8541 -2.6468
   65MOL0     H 8740   4.417  11.748   6.173  0.1268 -0.0240  0.7644
   65MOL0     H 8741   4.076  11.769   6.024 -0.3165  2.3910 -1.4574
   65MOL0     H 8742   4.207  11.750   6.135  0.0807 -0.4930 -1.1960
   65MOL0     H 8743   4.078  11.979   6.155 -1.5416 -1.9154 -0.0465
   65MOL0     H 8744   4.251  11.990   6.120 -0.1166 -0.9403 -0.1024
   65MOL0     H 8745   4.062  11.999   5.887  0.1322 -1.8585 -0.7843
   65MOL0     H 8746   4.236  12.037   5.909  0.6723 -1.5029  1.7282
   65MOL0     H 8747   4.175  12.212   6.080  2.6291  0.8559 -1.9155
   65MOL0     H 8748   4.123  12.263   5.929  0.5169 -1.3736 -1.1634
   65MOL0     H 8749   3.920  12.101   6.090  3.5942 -0.0911  0.5568
   65MOL0     H 8750   3.898  12.199   5.939  2.6147  0.1229 -1.9637
   65MOL0     H 8751   3.961  12.293   6.215  0.2519  2.2190  1.2219
   65MOL0     H 8752   3.934  12.395   6.060 -0.2674 -0.6665 -0.0415
   65MOL0     H 8753   3.731  12.269   6.243 -1.4325  0.2690  0.1248
   65MOL0     H 8754   3.707  12.272   6.065  0.3299  1.9644 -1.6517
   65MOL0     H 8755   3.750  12.528   6.081  0.7450 -0.5866  0.0717
   65MOL0     H 8756   3.784  12.509   6.256 -2.1580  0.5783  1.0521
   65MOL0     H 8757   4.401  11.795   5.738  0.9551 -0.6994  0.0433
   65MOL0     H 8758   4.644  11.834   5.725  1.8077  0.1007  0.5305
   65MOL0     H 8759   4.950  11.642   5.803 -0.5124  1.2748 -0.3580
   65MOL0     H 8760   5.163  11.545   5.727 -0.3225  1.6020 -0.7692
   65MOL0     H 8761   5.196  10.286   5.270 -4.2940 -2.3501 -1.2563
   65MOL0     H 8762   5.135  10.062   5.256  0.7461 -0.5032 -0.4521
   65MOL0     H 8763   5.007   9.730   4.993  1.7081  0.6333 -0.7209
   65MOL0     H 8764   4.885   9.508   5.017 -0.1146 -3.6439 -0.0532
   65MOL0     H 8765   5.097   9.135   4.990 -1.2136 -0.2551  0.5994
   65MOL0     H 8766   5.070   9.132   5.157  0.0981  2.0499  0.1405
   65MOL0     H 8767   4.929   8.959   4.973 -2.1645  0.6328 -1.9111
   65MOL0     H 8768   4.840   9.099   4.960 -0.3509 -0.8275  1.7629
   65MOL0     H 8769   4.776   9.142   5.176  0.8856 -1.2320  0.5753
   65MOL0     H 8770   4.854   9.013   5.254 -3.0431 -1.7139  0.3105
   65MOL0     H 8771   4.641   8.942   5.217  0.5469  2.5817  1.6810
   65MOL0     H 8772   4.712   8.881   5.062  1.6008  1.2623  0.2916
   65MOL0     H 8773   4.423   9.151   4.919  1.2746  3.3792 -0.5296
   65MOL0     H 8774   5.231   9.327   5.152  1.3334  0.6172 -2.3450
   65MOL0     H 8775   5.354   9.536   5.156  1.0919  0.8351 -0.0144
   66MOL0     O 8776   3.975   6.944   8.137  0.1575  0.3307  0.3911
   66MOL0     C 8777   3.881   6.950   8.219  0.5612  0.2984 -0.8039
   66MOL0     O 8778   3.846   6.856   8.321 -0.2496 -0.4841  0.2601
   66MOL0     C 8779   3.939   6.755   8.354 -0.1056 -0.1256  0.0724
   66MOL0     C 8780   3.961   6.724   8.481  1.0294 -1.2940 -0.6093
   66MOL0     C 8781   4.035   6.623   8.527  0.7305  0.4065 -0.2428
   66MOL0     C 8782   4.092   6.536   8.432 -0.5088  0.0983 -0.4271
   66MOL0     O 8783   4.159   6.420   8.452  0.4477 -0.0294  0.5421
   66MOL0     C 8784   4.299   6.443   8.484 -0.5014 -0.2312  0.0338
   66MOL0     C 8785   4.376   6.314   8.439  1.1201 -0.9318 -1.2903
   66MOL0     C 8786   4.525   6.333   8.453  0.0054  0.5126  1.2832
   66MOL0     C 8787   4.596   6.206   8.413  0.4325 -0.1870  0.0816
   66MOL0     C 8788   4.567   6.100   8.523  0.0978  0.3191 -0.1989
   66MOL0     C 8789   4.500   5.983   8.453  0.4656 -0.4584 -0.0530
   66MOL0     C 8790   4.453   5.876   8.553  0.0943 -0.1939  0.0096
   66MOL0     C 8791   4.572   5.795   8.611  0.0069  0.9632  0.5394
   66MOL0     N 8792   4.538   5.705   8.727  0.3993  1.0090  0.0000
   66MOL0     C 8793   4.495   5.747   8.850 -0.1553 -0.3224 -0.2118
   66MOL0     C 8794   4.494   5.635   8.918 -0.3380 -0.1970 -0.0069
   66MOL0     C 8795   4.457   5.620   9.064  0.9319  0.6007  0.4654
   66MOL0     C 8796   4.310   5.566   9.070  0.8621  0.4023 -0.8600
   66MOL0     C 8797   4.275   5.514   9.212 -0.5923  0.8352  0.0571
   66MOL0     C 8798   4.309   5.366   9.233 -0.0192 -0.4102  0.2858
   66MOL0     O 8799   4.258   5.333   9.367 -0.3830 -0.0200  1.1392
   66MOL0     C 8800   4.343   5.321   9.474  0.0686 -0.4105 -0.2096
   66MOL0     C 8801   4.480   5.358   9.486  2.0579 -0.0746  0.3583
   66MOL0     C 8802   4.536   5.352   9.605 -0.4176 -0.0598 -0.0855
   66MOL0     C 8803   4.671   5.409   9.620  0.0306  0.3642 -0.4407
   66MOL0     C 8804   4.471   5.304   9.720 -0.1996 -0.5030  0.0258
   66MOL0     C 8805   4.534   5.273   9.848  0.1811  0.6290 -0.1037
   66MOL0     O 8806   4.448   5.246   9.947  0.5481  0.6040  0.1245
   66MOL0     C 8807   4.481   5.261  10.078 -0.6970 -0.7303 -0.0441
   66MOL0     C 8808   4.498   5.386  10.134  1.0901  0.7688  1.1558
   66MOL0     C 8809   4.542   5.404  10.262 -0.6803  0.0900  0.3011
   66MOL0     C 8810   4.575   5.291  10.336 -0.4086  0.6592  0.3311
   66MOL0     O 8811   4.594   5.314  10.470 -0.6760  1.2493  0.2710
   66MOL0     C 8812   4.525   5.233  10.579  0.4003 -0.4580 -0.6056
   66MOL0     C 8813   4.583   5.261  10.716  0.2018  0.3068 -0.1141
   66MOL0     C 8814   4.530   5.400  10.776  1.0274 -1.1202  0.4321
   66MOL0     C 8815   4.611   5.451  10.903 -0.1659 -0.4226 -0.2720
   66MOL0     C 8816   4.595   5.590  10.942  0.4853  0.9662  0.2147
   66MOL0     C 8817   4.646   5.622  11.080 -0.2003  0.6799  0.1777
   66MOL0     C 8818   4.534   5.615  11.185 -0.0472 -0.4058  0.6102
   66MOL0     C 8819   4.443   5.736  11.152  0.1079 -0.0525  0.3914
   66MOL0    Cl 8820   4.275   5.691  11.099  0.0855  0.2156 -0.4870
   66MOL0     C 8821   4.560   5.163  10.286  1.1928 -0.1824 -0.5514
   66MOL0     C 8822   4.512   5.150  10.159  0.4726  0.7287  0.3668
   66MOL0     O 8823   4.655   5.269   9.871  0.5538 -0.3307 -1.0563
   66MOL0     C 8824   4.337   5.266   9.707  0.0894  0.3057 -0.1041
   66MOL0     C 8825   4.270   5.275   9.587  0.3309 -1.2958  0.1786
   66MOL0     N 8826   4.518   5.514   8.838 -0.0346 -0.5113 -0.0418
   66MOL0     N 8827   4.552   5.567   8.725 -0.6934  0.4348  0.6025
   66MOL0     C 8828   4.074   6.573   8.293  0.1501  1.2357  0.1150
   66MOL0     C 8829   3.986   6.677   8.254  0.6216 -0.2459  0.4489
   66MOL0     C 8830   3.790   7.074   8.217 -0.9316  0.3753  0.2831
   66MOL0     C 8831   3.675   7.088   8.295  0.0085  0.0573 -0.0923
   66MOL0     C 8832   3.587   7.198   8.279  0.3989 -0.5111  0.3709
   66MOL0     C 8833   3.599   7.290   8.182 -0.0953  1.1677 -0.3762
   66MOL0     O 8834   3.521   7.402   8.174  0.1196 -0.2419  0.1635
   66MOL0     C 8835   3.388   7.417   8.230 -0.3202 -0.4601  0.8116
   66MOL0     C 8836   3.298   7.312   8.174  0.1200  0.0039 -0.2236
   66MOL0     C 8837   3.303   7.307   8.023 -0.2186 -0.6619  0.1591
   66MOL0     C 8838   3.188   7.232   7.963  0.5893 -0.1822 -0.4501
   66MOL0     C 8839   3.170   7.270   7.823  1.5725  1.8387 -1.2708
   66MOL0     C 8840   3.173   7.317   7.715  0.8019  0.9993 -0.3304
   66MOL0     C 8841   3.715   7.277   8.109 -0.9365 -0.3013 -0.3690
   66MOL0     C 8842   3.809   7.175   8.117 -0.1900 -0.5583  0.0975
   66MOL0     H 8843   3.907   6.782   8.555  1.9959  2.3508 -2.4895
   66MOL0     H 8844   4.051   6.600   8.632 -1.8470  0.9265  0.3304
   66MOL0     H 8845   4.348   6.529   8.437  2.7654 -1.6497  0.5810
   66MOL0     H 8846   4.301   6.468   8.591  2.2871  0.2674 -0.0753
   66MOL0     H 8847   4.334   6.236   8.503 -1.5065 -1.4852 -3.4992
   66MOL0     H 8848   4.346   6.304   8.335 -0.6887  0.9000 -1.0104
   66MOL0     H 8849   4.553   6.414   8.385 -0.3816  2.8985  3.7965
   66MOL0     H 8850   4.557   6.374   8.549 -0.8981  0.5031  1.6005
   66MOL0     H 8851   4.558   6.173   8.316 -1.2476 -1.1499  1.0298
   66MOL0     H 8852   4.702   6.234   8.403 -0.1169  1.3166 -2.4609
   66MOL0     H 8853   4.657   6.063   8.572 -1.2418  0.2023  2.3825
   66MOL0     H 8854   4.501   6.142   8.601  0.6983 -0.7464  0.9107
   66MOL0     H 8855   4.410   6.009   8.398 -1.0469 -2.9803  1.0674
   66MOL0     H 8856   4.567   5.923   8.390 -0.2275 -4.3522  2.5507
   66MOL0     H 8857   4.397   5.928   8.631  2.0481  1.3593  0.4614
   66MOL0     H 8858   4.396   5.793   8.511  0.0587 -1.5518  2.5310
   66MOL0     H 8859   4.662   5.855   8.632  2.0860 -1.7214 -0.1040
   66MOL0     H 8860   4.599   5.729   8.528  2.7221  1.3158  1.0411
   66MOL0     H 8861   4.471   5.849   8.880 -0.8003 -0.5081 -0.0799
   66MOL0     H 8862   4.522   5.561   9.130 -0.0621  0.7989  1.6506
   66MOL0     H 8863   4.463   5.721   9.106  3.2159  0.1416  1.4099
   66MOL0     H 8864   4.294   5.483   9.001 -2.5337  0.9362 -0.9032
   66MOL0     H 8865   4.235   5.635   9.032  2.1057  1.2627 -1.8180
   66MOL0     H 8866   4.170   5.527   9.241 -1.4382 -0.8255 -2.0639
   66MOL0     H 8867   4.337   5.572   9.281 -2.2463  3.0835 -0.2167
   66MOL0     H 8868   4.415   5.342   9.219 -0.3468 -0.6032 -2.5697
   66MOL0     H 8869   4.256   5.304   9.160  0.2206  0.9587 -1.1274
   66MOL0     H 8870   4.538   5.401   9.405  0.6382  1.2520 -0.0063
   66MOL0     H 8871   4.733   5.321   9.639 -1.5793 -0.3444  2.0042
   66MOL0     H 8872   4.710   5.463   9.533  2.7328  3.6180  2.4738
   66MOL0     H 8873   4.669   5.475   9.708  0.4162 -0.2607  0.0462
   66MOL0     H 8874   4.481   5.471  10.068  0.9219  0.1695  0.4162
   66MOL0     H 8875   4.533   5.497  10.316 -1.9286  0.8708 -1.1599
   66MOL0     H 8876   4.422   5.269  10.581 -0.0907 -1.7867  1.3411
   66MOL0     H 8877   4.530   5.123  10.576  0.7527 -0.5523  1.6617
   66MOL0     H 8878   4.547   5.183  10.784  2.0155  0.8099  1.4795
   66MOL0     H 8879   4.692   5.254  10.716  0.1944 -0.2391 -1.6873
   66MOL0     H 8880   4.426   5.392  10.809  1.5721  0.0161  2.6176
   66MOL0     H 8881   4.535   5.479  10.701  0.0709 -0.9336  0.5485
   66MOL0     H 8882   4.592   5.378  10.983  2.7753 -1.9306 -0.7885
   66MOL0     H 8883   4.717   5.435  10.880 -0.3947 -2.4675 -0.0859
   66MOL0     H 8884   4.489   5.616  10.933  0.9172  3.2785  1.0566
   66MOL0     H 8885   4.652   5.651  10.871  2.5389 -1.2830 -0.2044
   66MOL0     H 8886   4.721   5.548  11.108 -2.0640 -1.3257  0.1005
   66MOL0     H 8887   4.688   5.722  11.094 -1.8145  1.3496  0.5466
   66MOL0     H 8888   4.566   5.614  11.290  0.7444 -1.6921  0.3746
   66MOL0     H 8889   4.474   5.525  11.171  0.8078 -0.7726 -0.9460
   66MOL0     H 8890   4.491   5.808  11.085 -0.7191  0.2408  0.1005
   66MOL0     H 8891   4.445   5.799  11.241  0.0615 -0.2257  0.5157
   66MOL0     H 8892   4.552   5.077  10.352 -4.4020  1.4090  1.4194
   66MOL0     H 8893   4.504   5.051  10.115  3.1862  0.6512 -0.1566
   66MOL0     H 8894   4.287   5.222   9.794  1.1655 -3.6945 -1.2879
   66MOL0     H 8895   4.162   5.271   9.578  0.1277  2.0195  0.0106
   66MOL0     H 8896   4.108   6.510   8.211 -1.3181  0.7990 -0.1953
   66MOL0     H 8897   3.957   6.707   8.153  1.6395 -0.5714  0.0397
   66MOL0     H 8898   3.651   7.011   8.368 -2.0124  2.9928  2.6627
   66MOL0     H 8899   3.508   7.186   8.353 -0.1249 -1.1651 -0.2814
   66MOL0     H 8900   3.378   7.411   8.339 -4.4340 -0.7933  0.5954
   66MOL0     H 8901   3.355   7.515   8.193 -0.7691  0.1650  2.7294
   66MOL0     H 8902   3.202   7.353   8.207  0.6839  0.0920  1.3670
   66MOL0     H 8903   3.306   7.213   8.219 -0.6705 -0.3270 -0.7747
   66MOL0     H 8904   3.395   7.251   8.003 -0.4505 -0.9842 -0.0157
   66MOL0     H 8905   3.300   7.409   7.983  0.0083  0.7524  3.4403
   66MOL0     H 8906   3.099   7.254   8.023  1.5332  0.6415  0.7005
   66MOL0     H 8907   3.199   7.123   7.961  1.4183 -0.1277  0.3650
   66MOL0     H 8908   3.167   7.372   7.623  0.6685  0.1738 -0.8260
   66MOL0     H 8909   3.707   7.346   8.026 -1.6407  0.1710  0.0795
   66MOL0     H 8910   3.885   7.179   8.040 -1.1493  1.3673 -0.8060
   67MOL0     O 8911   2.440   7.048   8.560  0.0463 -0.9836 -0.9979
   67MOL0     C 8912   2.425   7.121   8.656  1.0972  0.1318 -0.8884
   67MOL0     O 8913   2.383   7.088   8.775  0.2962 -0.7763 -0.8932
   67MOL0     C 8914   2.377   6.951   8.803 -0.7803 -0.9681 -0.2444
   67MOL0     C 8915   2.490   6.864   8.800 -0.0820 -0.3406  0.4265
   67MOL0     C 8916   2.479   6.732   8.828 -0.0542 -0.3111 -0.0693
   67MOL0     C 8917   2.348   6.678   8.856 -0.5085  0.5748  0.2000
   67MOL0     O 8918   2.326   6.540   8.868 -0.2482 -0.7981  1.4026
   67MOL0     C 8919   2.418   6.457   8.936  0.1968 -0.4278  0.6384
   67MOL0     C 8920   2.392   6.318   8.867 -0.4008  0.2462  0.4478
   67MOL0     C 8921   2.446   6.194   8.954  0.9782  0.2313  0.8899
   67MOL0     C 8922   2.414   6.066   8.876  0.5006 -0.0677 -0.5125
   67MOL0     C 8923   2.474   5.955   8.957 -0.1259  1.2045 -0.4461
   67MOL0     C 8924   2.445   5.802   8.922 -0.5860  0.2939  0.1398
   67MOL0     C 8925   2.384   5.782   8.783  0.9170  0.5206  0.2954
   67MOL0     C 8926   2.341   5.638   8.749 -0.2031 -0.4806  0.7339
   67MOL0     N 8927   2.204   5.604   8.789 -0.6003  0.1251 -0.0676
   67MOL0     C 8928   2.162   5.553   8.914 -0.8482  0.6701  1.1999
   67MOL0     C 8929   2.028   5.543   8.909 -0.1326 -0.0162 -0.4348
   67MOL0     C 8930   1.947   5.490   9.020  0.5708  0.0928 -0.4082
   67MOL0     C 8931   1.842   5.589   9.064  0.5287 -0.2354 -0.7157
   67MOL0     C 8932   1.728   5.530   9.160 -0.4015 -0.0902 -0.1839
   67MOL0     C 8933   1.667   5.407   9.094  0.2197  0.4509  0.0576
   67MOL0     O 8934   1.544   5.390   9.158  0.2359 -0.1782 -0.5287
   67MOL0     C 8935   1.425   5.428   9.096  1.2460 -0.2275 -1.1129
   67MOL0     C 8936   1.309   5.363   9.144 -0.5736  0.4293 -0.6774
   67MOL0     C 8937   1.179   5.381   9.091 -1.1112  1.0062 -0.4665
   67MOL0     C 8938   1.067   5.309   9.168  0.0981  0.2171 -0.8927
   67MOL0     C 8939   1.160   5.473   8.994 -0.5426 -1.0502 -0.7840
   67MOL0     C 8940   1.029   5.492   8.927  0.0688  0.4020 -0.6153
   67MOL0     O 8941   1.025   5.609   8.868 -0.1416 -0.3414  0.2489
   67MOL0     C 8942   0.917   5.654   8.790  0.3778  0.3730 -0.2985
   67MOL0     C 8943   0.877   5.586   8.674 -0.8409  0.3565  1.3887
   67MOL0     C 8944   0.773   5.623   8.598  0.0942  0.0301  0.3331
   67MOL0     C 8945   0.706   5.744   8.622  0.6075  0.3246 -1.2214
   67MOL0     O 8946   0.601   5.784   8.557 -0.3912  1.2903 -0.0415
   67MOL0     C 8947   0.480   5.721   8.610 -0.3908 -0.2458  0.3152
   67MOL0     C 8948   0.355   5.765   8.527 -0.7009 -0.0063  0.5698
   67MOL0     C 8949   0.341   5.916   8.524  0.3290  1.1474 -0.0263
   67MOL0     C 8950   0.252   5.972   8.412 -1.2996 -0.6558  1.4174
   67MOL0     C 8951   0.237   6.123   8.426 -0.0886  0.1097 -0.2544
   67MOL0     C 8952   0.099   6.177   8.476 -0.2370 -1.0837  0.1835
   67MOL0     C 8953   0.100   6.325   8.518  0.5190  0.1912 -0.2258
   67MOL0     C 8954  -0.037   6.386   8.482  0.2233 -0.7096 -0.1574
   67MOL0    Cl 8955  -0.067   6.378   8.298  0.2694  0.6597  0.0723
   67MOL0     C 8956   0.754   5.824   8.731  0.1765  0.2329 -0.3936
   67MOL0     C 8957   0.853   5.778   8.823 -0.6204 -0.1688 -0.2426
   67MOL0     O 8958   0.932   5.414   8.920 -0.3074  0.0567  0.8735
   67MOL0     C 8959   1.270   5.550   8.955  0.2290  0.0271  0.2729
   67MOL0     C 8960   1.398   5.529   9.008 -0.1630 -0.0499  0.3822
   67MOL0     N 8961   1.988   5.573   8.781 -0.1522 -0.3608 -0.5199
   67MOL0     N 8962   2.090   5.594   8.716 -0.4523 -0.5423  0.4656
   67MOL0     C 8963   2.234   6.768   8.870 -0.1643  0.1845  0.4226
   67MOL0     C 8964   2.252   6.904   8.833  0.7293 -0.2035 -0.6456
   67MOL0     C 8965   2.460   7.257   8.642  0.0314 -0.2446  0.0261
   67MOL0     C 8966   2.390   7.358   8.708  0.3016  0.7803 -0.0047
   67MOL0     C 8967   2.407   7.500   8.680 -0.8228 -1.0385 -0.1978
   67MOL0     C 8968   2.495   7.529   8.568  0.0460 -0.5367  0.0658
   67MOL0     O 8969   2.520   7.660   8.543 -0.8548 -0.7070  0.3806
   67MOL0     C 8970   2.407   7.756   8.530 -0.4170  0.5414 -0.0554
   67MOL0     C 8971   2.330   7.747   8.404  0.3711 -0.0282  0.4613
   67MOL0     C 8972   2.172   7.741   8.430 -0.4917 -0.7175  0.3472
   67MOL0     C 8973   2.095   7.682   8.305  0.1103  0.2822 -0.5010
   67MOL0     C 8974   2.149   7.736   8.185 -0.1593 -0.8828 -0.5725
   67MOL0     C 8975   2.198   7.756   8.072  0.1443  0.7175 -0.2336
   67MOL0     C 8976   2.560   7.427   8.497  0.5916 -0.7183  0.0510
   67MOL0     C 8977   2.541   7.291   8.529  0.0667  0.1536  0.5728
   67MOL0     H 8978   2.579   6.922   8.779 -1.3536  1.4587 -0.3489
   67MOL0     H 8979   2.558   6.661   8.810 -1.0651 -1.3182 -0.6869
   67MOL0     H 8980   2.524   6.486   8.933  0.2914 -0.6691  1.4595
   67MOL0     H 8981   2.384   6.457   9.040  2.2958 -1.6919  1.3796
   67MOL0     H 8982   2.286   6.296   8.853 -0.3400  0.0061  0.3675
   67MOL0     H 8983   2.448   6.320   8.773 -2.4987 -1.2072 -0.9284
   67MOL0     H 8984   2.555   6.205   8.957  1.2536  1.2716 -4.1160
   67MOL0     H 8985   2.407   6.184   9.055 -0.3857 -2.1793  0.2080
   67MOL0     H 8986   2.308   6.041   8.871 -0.6947  4.2944 -1.8261
   67MOL0     H 8987   2.461   6.055   8.778 -1.3833  0.3247 -1.5097
   67MOL0     H 8988   2.581   5.975   8.951  0.5770 -1.7334  0.5936
   67MOL0     H 8989   2.450   5.958   9.063 -1.3258 -1.3344 -0.5642
   67MOL0     H 8990   2.542   5.754   8.906 -0.6328  0.6221 -1.2895
   67MOL0     H 8991   2.380   5.742   8.986  0.1834 -2.6102 -1.6090
   67MOL0     H 8992   2.292   5.841   8.779  0.0138 -0.5738  2.9075
   67MOL0     H 8993   2.459   5.815   8.710 -0.3561 -0.1984 -1.3924
   67MOL0     H 8994   2.393   5.554   8.795 -1.3967 -0.4446  2.2452
   67MOL0     H 8995   2.343   5.627   8.640  0.5260 -0.1764  0.7090
   67MOL0     H 8996   2.219   5.509   8.995 -0.6350  2.8499  2.3094
   67MOL0     H 8997   1.899   5.400   8.980  1.6974  0.0862 -1.8524
   67MOL0     H 8998   2.003   5.459   9.108 -1.2521 -1.0590  0.4095
   67MOL0     H 8999   1.786   5.634   8.981 -1.1141 -1.9721 -0.6035
   67MOL0     H 9000   1.896   5.671   9.113 -0.4261 -1.1874  2.0854
   67MOL0     H 9001   1.661   5.609   9.196  0.2035 -0.3155  1.5012
   67MOL0     H 9002   1.778   5.497   9.251 -0.0792 -1.5975 -0.8767
   67MOL0     H 9003   1.732   5.319   9.098 -0.9442 -0.5168 -1.0992
   67MOL0     H 9004   1.651   5.433   8.988 -1.3911 -2.8232 -0.6280
   67MOL0     H 9005   1.336   5.304   9.231  4.7408  1.1433 -1.5152
   67MOL0     H 9006   1.007   5.244   9.103 -1.1006  0.7443 -0.3482
   67MOL0     H 9007   1.104   5.249   9.252  1.4565  0.8866 -1.0003
   67MOL0     H 9008   0.990   5.374   9.210 -0.5692 -0.8163 -0.4674
   67MOL0     H 9009   0.933   5.502   8.634 -1.2721  1.5695 -2.2089
   67MOL0     H 9010   0.747   5.568   8.508  0.1025 -0.1951  0.4695
   67MOL0     H 9011   0.489   5.615   8.586 -2.2918  0.2449 -3.3372
   67MOL0     H 9012   0.458   5.748   8.714 -2.3997  0.4709 -0.2339
   67MOL0     H 9013   0.375   5.742   8.422 -0.3263  1.1646  0.3741
   67MOL0     H 9014   0.255   5.722   8.544  0.0068 -1.4435  1.3200
   67MOL0     H 9015   0.440   5.963   8.527  0.5476  0.6237  1.1241
   67MOL0     H 9016   0.292   5.957   8.612 -3.0893  1.0006 -1.6939
   67MOL0     H 9017   0.300   5.950   8.316  1.2745  0.0341  2.4650
   67MOL0     H 9018   0.154   5.925   8.419 -2.1886  0.4503 -1.7695
   67MOL0     H 9019   0.256   6.178   8.334 -0.3690 -0.1445 -0.4657
   67MOL0     H 9020   0.318   6.158   8.491  1.5340  0.3914 -2.3139
   67MOL0     H 9021   0.024   6.144   8.405  0.7683  0.1076 -1.4961
   67MOL0     H 9022   0.087   6.116   8.566  0.9978 -3.6673 -1.2955
   67MOL0     H 9023   0.179   6.373   8.458 -0.4176  1.1446 -0.7255
   67MOL0     H 9024   0.112   6.343   8.625 -2.0250  1.4020 -0.0806
   67MOL0     H 9025  -0.048   6.492   8.510 -0.3289  0.0702 -2.9265
   67MOL0     H 9026  -0.100   6.318   8.539  1.7023 -2.1566 -0.1774
   67MOL0     H 9027   0.704   5.919   8.745 -0.4896  0.0247 -1.2745
   67MOL0     H 9028   0.883   5.845   8.903  3.2570  1.3364 -2.5991
   67MOL0     H 9029   1.247   5.627   8.883  1.4706 -0.7717 -1.0311
   67MOL0     H 9030   1.484   5.587   8.974  0.0545 -1.9449 -2.6596
   67MOL0     H 9031   2.137   6.735   8.906  0.2913 -0.9144  0.6681
   67MOL0     H 9032   2.173   6.977   8.847  0.4851 -0.7078  0.7523
   67MOL0     H 9033   2.314   7.331   8.780 -0.7761  1.8177 -0.7209
   67MOL0     H 9034   2.346   7.576   8.728 -0.3451 -1.8442  1.7675
   67MOL0     H 9035   2.335   7.748   8.613  0.5540 -0.4071  0.7262
   67MOL0     H 9036   2.445   7.858   8.531  0.5369  0.2235 -1.4584
   67MOL0     H 9037   2.373   7.660   8.354  1.5290  1.6114 -1.5639
   67MOL0     H 9038   2.335   7.835   8.339 -1.1674 -2.0012 -2.5326
   67MOL0     H 9039   2.138   7.839   8.464  0.4942 -0.7541  1.5207
   67MOL0     H 9040   2.151   7.678   8.517 -0.7240  0.9211  1.5196
   67MOL0     H 9041   1.992   7.720   8.306 -0.1301 -0.1593 -3.0261
   67MOL0     H 9042   2.105   7.573   8.296 -1.5656  0.2627 -3.0638
   67MOL0     H 9043   2.262   7.771   7.988  0.8693  0.1605  0.2093
   67MOL0     H 9044   2.648   7.438   8.434  1.5830  3.7291  1.8639
   67MOL0     H 9045   2.593   7.215   8.472  2.6569  3.3575 -1.7611
   68MOL0     O 9046   6.198   6.818   0.849  0.1042  0.3558  0.2919
   68MOL0     C 9047   6.105   6.818   0.772  0.9038 -0.0090  0.2113
   68MOL0     O 9048   6.107   6.757   0.644  1.0860  0.0856  1.3387
   68MOL0     C 9049   6.217   6.703   0.581  0.3272 -0.2951 -0.6545
   68MOL0     C 9050   6.353   6.738   0.614 -0.2329  0.4594 -0.4907
   68MOL0     C 9051   6.458   6.683   0.530  0.5238 -0.1703  0.1653
   68MOL0     C 9052   6.434   6.603   0.410  0.1314 -0.5132  0.1054
   68MOL0     O 9053   6.525   6.556   0.315  0.0872 -0.7286  0.3883
   68MOL0     C 9054   6.659   6.615   0.338 -0.4958  1.2938  0.3853
   68MOL0     C 9055   6.745   6.611   0.209 -1.0534  0.1418  0.5029
   68MOL0     C 9056   6.697   6.720   0.108  0.1387  1.0762  0.0682
   68MOL0     C 9057   6.716   6.860   0.151  0.3314  0.0952  0.4969
   68MOL0     C 9058   6.749   6.965   0.046  0.4659  0.2311 -0.4693
   68MOL0     C 9059   6.622   6.990  -0.045 -0.5110  0.9175 -0.5761
   68MOL0     C 9060   6.661   7.105  -0.142  1.1576 -0.7690 -0.6528
   68MOL0     C 9061   6.783   7.071  -0.230  0.2391  0.4619  0.2135
   68MOL0     N 9062   6.811   7.178  -0.324 -0.2344  0.0415 -0.4759
   68MOL0     C 9063   6.731   7.266  -0.392 -0.5705 -0.6934  0.5137
   68MOL0     C 9064   6.816   7.369  -0.414 -0.0705 -0.1292 -0.1605
   68MOL0     C 9065   6.782   7.515  -0.453 -0.3700 -0.8911 -0.4224
   68MOL0     C 9066   6.840   7.552  -0.588  1.1790  0.3753  0.7280
   68MOL0     C 9067   6.765   7.683  -0.640  0.0184  0.4151 -0.1320
   68MOL0     C 9068   6.779   7.717  -0.794  0.5052 -0.6321  0.4340
   68MOL0     O 9069   6.666   7.652  -0.856  0.5086 -0.3802  0.2110
   68MOL0     C 9070   6.595   7.731  -0.948 -0.7797 -0.6880 -0.7319
   68MOL0     C 9071   6.625   7.854  -1.009 -0.8038  0.3347  0.2724
   68MOL0     C 9072   6.528   7.926  -1.092 -0.1532  1.0164 -0.1343
   68MOL0     C 9073   6.567   8.069  -1.122  0.5939 -0.2511  0.1632
   68MOL0     C 9074   6.421   7.849  -1.135 -0.2533  0.5671  0.5505
   68MOL0     C 9075   6.326   7.901  -1.236 -1.0271  0.3637 -0.7362
   68MOL0     O 9076   6.232   7.812  -1.287 -0.3938  0.6837 -1.0715
   68MOL0     C 9077   6.156   7.831  -1.393  0.3490 -0.5392  0.1606
   68MOL0     C 9078   6.031   7.763  -1.391 -0.6306  0.1049 -0.5514
   68MOL0     C 9079   5.941   7.780  -1.498 -0.7322 -0.0174 -0.1139
   68MOL0     C 9080   5.962   7.881  -1.595 -0.0138 -0.2308 -0.3753
   68MOL0     O 9081   5.864   7.884  -1.692 -0.9278 -0.1828  0.5162
   68MOL0     C 9082   5.871   7.995  -1.787  0.0676  0.4098 -0.1385
   68MOL0     C 9083   5.737   8.004  -1.868 -0.0987 -0.1002 -0.3381
   68MOL0     C 9084   5.673   7.875  -1.941 -0.6835 -1.0737 -0.0496
   68MOL0     C 9085   5.744   7.866  -2.082  1.0481  0.2468  1.2301
   68MOL0     C 9086   5.702   7.732  -2.158 -0.3075  0.0342  0.8103
   68MOL0     C 9087   5.694   7.607  -2.067 -0.8455 -0.2054  0.6815
   68MOL0     C 9088   5.641   7.481  -2.136 -0.6400 -0.5567  0.2515
   68MOL0     C 9089   5.627   7.357  -2.050  1.1818 -0.1811 -0.6123
   68MOL0    Cl 9090   5.502   7.245  -2.115  0.1861 -0.5592  0.5456
   68MOL0     C 9091   6.075   7.961  -1.594 -0.2045 -0.1845 -0.7474
   68MOL0     C 9092   6.164   7.940  -1.492  0.0798 -0.5468 -0.3475
   68MOL0     O 9093   6.327   8.021  -1.266 -0.0721 -0.0046  0.1926
   68MOL0     C 9094   6.395   7.718  -1.087 -0.0336  0.4539  0.3093
   68MOL0     C 9095   6.482   7.663  -0.994 -0.1700  1.0208 -0.0553
   68MOL0     N 9096   6.940   7.343  -0.361 -0.6947  1.1033  1.0396
   68MOL0     N 9097   6.936   7.220  -0.329  0.1986 -0.8033 -0.1575
   68MOL0     C 9098   6.300   6.590   0.376 -0.3088 -0.1475  0.1661
   68MOL0     C 9099   6.197   6.637   0.461 -0.2617 -0.7662 -0.9208
   68MOL0     C 9100   5.978   6.885   0.812  0.5081  0.1381  0.1749
   68MOL0     C 9101   5.905   6.960   0.715 -0.6430  0.2418  0.2199
   68MOL0     C 9102   5.779   7.009   0.739 -0.4042  0.9141 -0.8712
   68MOL0     C 9103   5.722   6.986   0.862 -0.4773  0.0470 -0.5113
   68MOL0     O 9104   5.596   7.018   0.904  0.6631  0.6398  0.0383
   68MOL0     C 9105   5.515   7.117   0.830 -0.1245  0.1672  0.4142
   68MOL0     C 9106   5.429   7.192   0.931 -0.3291 -0.6301  1.2719
   68MOL0     C 9107   5.341   7.084   0.995 -0.4515 -0.3465 -0.2961
   68MOL0     C 9108   5.264   7.142   1.108 -0.2587 -1.0477 -0.5746
   68MOL0     C 9109   5.161   7.039   1.151 -0.1808  0.2424  0.3976
   68MOL0     C 9110   5.073   6.953   1.169  0.1001 -0.4659  0.6785
   68MOL0     C 9111   5.794   6.921   0.959 -0.4618 -0.1558 -0.9183
   68MOL0     C 9112   5.922   6.863   0.943 -0.1746  0.6835  0.6056
   68MOL0     H 9113   6.360   6.818   0.688 -3.6325  0.5467 -0.1090
   68MOL0     H 9114   6.557   6.720   0.553  0.6363  0.4227 -1.2072
   68MOL0     H 9115   6.663   6.711   0.389  1.3748  0.4276  2.0006
   68MOL0     H 9116   6.702   6.565   0.425  2.3027  2.8121 -0.0111
   68MOL0     H 9117   6.844   6.633   0.250  0.0655 -2.3039 -0.6845
   68MOL0     H 9118   6.745   6.513   0.161  0.2297 -0.6074  1.9253
   68MOL0     H 9119   6.756   6.697   0.019 -0.7564 -1.1846 -0.0042
   68MOL0     H 9120   6.600   6.698   0.063  0.3194  0.9094 -0.2445
   68MOL0     H 9121   6.625   6.904   0.193  1.2978  3.3441 -0.5363
   68MOL0     H 9122   6.796   6.860   0.226 -1.7214 -1.3581  2.8426
   68MOL0     H 9123   6.788   7.058   0.089 -1.0368  0.2025  1.0690
   68MOL0     H 9124   6.826   6.916  -0.014 -0.7594 -0.4066 -1.5819
   68MOL0     H 9125   6.592   6.902  -0.102  1.0095  0.9436 -1.5029
   68MOL0     H 9126   6.539   7.013   0.022  2.1313  0.4055  3.2038
   68MOL0     H 9127   6.568   7.125  -0.195  1.3220  0.2530 -0.5684
   68MOL0     H 9128   6.697   7.195  -0.091 -2.6657  1.0059 -0.7657
   68MOL0     H 9129   6.758   6.990  -0.299 -2.2249  0.4554  1.0169
   68MOL0     H 9130   6.872   7.042  -0.173 -0.8371 -1.4450  1.0056
   68MOL0     H 9131   6.632   7.253  -0.435  0.7134 -3.0499 -2.0760
   68MOL0     H 9132   6.673   7.510  -0.445 -0.3861  0.3796  0.3465
   68MOL0     H 9133   6.819   7.588  -0.381 -3.0926  3.8838 -3.3055
   68MOL0     H 9134   6.826   7.469  -0.657 -2.6684  1.2257  0.2861
   68MOL0     H 9135   6.943   7.588  -0.578  0.9282  2.2113 -2.0508
   68MOL0     H 9136   6.810   7.757  -0.573  1.5687 -0.4947 -0.1449
   68MOL0     H 9137   6.658   7.665  -0.620  0.1213  0.0173  0.0785
   68MOL0     H 9138   6.863   7.663  -0.839 -1.4733 -3.7070  0.1106
   68MOL0     H 9139   6.781   7.826  -0.807 -2.9817  0.0669  3.9445
   68MOL0     H 9140   6.723   7.895  -0.989 -0.4495 -1.5074  2.8457
   68MOL0     H 9141   6.484   8.139  -1.103  1.0564  1.1963 -2.6700
   68MOL0     H 9142   6.648   8.099  -1.055  0.4616 -2.1069  1.2149
   68MOL0     H 9143   6.588   8.069  -1.229 -4.0675  0.8884 -1.0015
   68MOL0     H 9144   6.011   7.683  -1.320 -1.3137  1.8167  1.3138
   68MOL0     H 9145   5.857   7.712  -1.502 -0.1600 -0.9131  1.8709
   68MOL0     H 9146   5.884   8.090  -1.735 -2.1240  0.3896  0.5740
   68MOL0     H 9147   5.954   7.988  -1.858  0.3030  0.9384  0.0802
   68MOL0     H 9148   5.665   8.050  -1.799 -1.0625  1.6074 -2.3746
   68MOL0     H 9149   5.743   8.087  -1.939  2.6525  0.7231  0.7544
   68MOL0     H 9150   5.565   7.883  -1.958 -0.5414  0.1169 -0.5470
   68MOL0     H 9151   5.698   7.796  -1.870 -0.6358  1.2508  2.6717
   68MOL0     H 9152   5.724   7.947  -2.152  0.7698  0.1372  1.1806
   68MOL0     H 9153   5.851   7.866  -2.060  0.9566  0.5258  1.6942
   68MOL0     H 9154   5.786   7.708  -2.224  1.0233  1.7739  1.7880
   68MOL0     H 9155   5.612   7.749  -2.217  2.0522  1.0777 -2.8266
   68MOL0     H 9156   5.795   7.593  -2.027  1.5582  4.5549 -2.7261
   68MOL0     H 9157   5.630   7.634  -1.982  0.4846  0.9156  1.3745
   68MOL0     H 9158   5.718   7.453  -2.208 -0.0519 -1.8235  1.3447
   68MOL0     H 9159   5.542   7.502  -2.178 -0.2275  0.3005 -0.3293
   68MOL0     H 9160   5.597   7.399  -1.953  0.4937 -0.0207 -0.8908
   68MOL0     H 9161   5.719   7.300  -2.038  1.1395  0.1442  1.7561
   68MOL0     H 9162   6.090   8.050  -1.655 -0.2040  4.3084  4.9419
   68MOL0     H 9163   6.247   8.009  -1.484 -2.0082  2.3720 -1.8492
   68MOL0     H 9164   6.306   7.668  -1.124 -1.3293  1.9839  1.2260
   68MOL0     H 9165   6.459   7.564  -0.956  2.0066 -0.3387 -1.9912
   68MOL0     H 9166   6.273   6.539   0.284 -0.3399  1.5339 -0.7985
   68MOL0     H 9167   6.093   6.611   0.440 -0.2908 -0.1941 -1.5154
   68MOL0     H 9168   5.958   6.975   0.621 -0.6427  2.3730  0.5069
   68MOL0     H 9169   5.730   7.059   0.656  0.2942  0.4807 -1.5547
   68MOL0     H 9170   5.582   7.191   0.786 -0.8211 -0.6468 -2.2392
   68MOL0     H 9171   5.459   7.063   0.753  0.2700  0.5639 -0.1625
   68MOL0     H 9172   5.368   7.269   0.882 -1.4669 -1.7842  0.8489
   68MOL0     H 9173   5.494   7.247   1.000  0.4299  2.5639 -1.7040
   68MOL0     H 9174   5.394   6.991   1.018  1.9969  1.3248  1.3360
   68MOL0     H 9175   5.269   7.058   0.917  1.7624 -2.2128 -1.8621
   68MOL0     H 9176   5.218   7.237   1.080  0.9642 -0.1939  0.1992
   68MOL0     H 9177   5.334   7.164   1.189  0.0011 -2.4245 -0.3995
   68MOL0     H 9178   5.006   6.881   1.209 -0.6353 -2.0447 -2.9660
   68MOL0     H 9179   5.738   6.909   1.051 -1.5603  2.3264 -1.1747
   68MOL0     H 9180   5.972   6.798   1.014 -0.1775  0.5069  0.4455
   69MOL0     O 9181   2.764   0.909   4.812 -0.5683  0.0885 -0.8907
   69MOL0     C 9182   2.688   0.936   4.907  0.0968  0.4002 -0.3416
   69MOL0     O 9183   2.705   0.880   5.039  0.1180  0.0962  0.7193
   69MOL0     C 9184   2.768   0.759   5.058  0.4916  0.2632 -0.2782
   69MOL0     C 9185   2.764   0.644   4.979  0.5019 -0.1230  0.2000
   69MOL0     C 9186   2.842   0.537   4.999 -0.0306  0.4886 -0.8803
   69MOL0     C 9187   2.937   0.532   5.106  1.5506  0.4851  1.0920
   69MOL0     O 9188   3.026   0.429   5.129 -0.4109 -0.0956 -0.2697
   69MOL0     C 9189   3.029   0.314   5.045 -0.3285  0.2721 -0.2905
   69MOL0     C 9190   3.154   0.234   5.087  0.0767  0.4115  0.7051
   69MOL0     C 9191   3.147   0.191   5.230  0.7841  1.0813  0.3890
   69MOL0     C 9192   3.193   0.048   5.248  0.1485 -0.4842 -0.4352
   69MOL0     C 9193   3.191   0.011   5.395 -0.4678  0.7782  0.0445
   69MOL0     C 9194   3.249  -0.128   5.419 -0.3188 -0.3706  0.2511
   69MOL0     C 9195   3.272  -0.158   5.570 -0.1382 -0.1395 -0.1181
   69MOL0     C 9196   3.353  -0.288   5.569  0.4285  0.5573 -0.5348
   69MOL0     N 9197   3.435  -0.278   5.693  0.1474 -0.3730  0.1986
   69MOL0     C 9198   3.407  -0.277   5.822  0.0095  0.0851  0.4199
   69MOL0     C 9199   3.528  -0.276   5.885 -0.3450 -0.5652  0.7181
   69MOL0     C 9200   3.549  -0.249   6.023 -0.0410  0.2192 -0.5888
   69MOL0     C 9201   3.631  -0.120   6.029 -0.1887  0.3181  0.3192
   69MOL0     C 9202   3.673  -0.104   6.179  0.1698 -0.7512 -0.6789
   69MOL0     C 9203   3.749   0.037   6.185  0.4232  0.0829  0.2320
   69MOL0     O 9204   3.749   0.095   6.318 -0.5690 -0.0349  0.2905
   69MOL0     C 9205   3.881   0.138   6.347  0.9165  0.1919  0.4019
   69MOL0     C 9206   3.985   0.044   6.363 -0.7616  0.0753 -0.7001
   69MOL0     C 9207   4.120   0.088   6.380  0.9024 -0.4121 -0.0074
   69MOL0     C 9208   4.237  -0.001   6.361  0.4562  0.6458 -0.0767
   69MOL0     C 9209   4.143   0.225   6.401 -0.3990 -1.2413  1.4829
   69MOL0     C 9210   4.276   0.282   6.442  0.5788 -0.1938 -0.2979
   69MOL0     O 9211   4.298   0.410   6.390 -0.0900  0.0550  0.4767
   69MOL0     C 9212   4.413   0.477   6.423  0.0731  0.0877  0.5846
   69MOL0     C 9213   4.413   0.562   6.540  0.9943  0.3200  0.5139
   69MOL0     C 9214   4.520   0.642   6.559  0.2490 -0.6030 -0.6443
   69MOL0     C 9215   4.617   0.660   6.465 -1.7474  0.4424  1.1171
   69MOL0     O 9216   4.719   0.753   6.489 -0.8933 -0.2143 -0.1376
   69MOL0     C 9217   4.687   0.892   6.465  0.1494  0.2111  0.5085
   69MOL0     C 9218   4.791   0.988   6.520  1.0598 -0.1376  0.9756
   69MOL0     C 9219   4.912   1.007   6.431 -0.7383  0.0370  0.0460
   69MOL0     C 9220   5.015   1.082   6.501 -0.9425 -0.5536 -0.2174
   69MOL0     C 9221   5.152   1.118   6.431 -0.1206  0.2928 -0.3072
   69MOL0     C 9222   5.167   1.166   6.289  0.7405  0.3495 -0.0449
   69MOL0     C 9223   5.071   1.281   6.268  0.8420 -0.8218 -0.6547
   69MOL0     C 9224   5.116   1.400   6.169 -0.0584 -0.2744  0.9611
   69MOL0    Cl 9225   5.196   1.543   6.259  0.1176 -0.4594  0.2439
   69MOL0     C 9226   4.626   0.576   6.352 -1.0084  0.0914 -0.0734
   69MOL0     C 9227   4.528   0.478   6.327  0.2747  0.8856  0.8448
   69MOL0     O 9228   4.349   0.214   6.509 -0.4043 -0.3576 -0.5588
   69MOL0     C 9229   4.036   0.318   6.388 -0.0252 -0.1082 -0.0507
   69MOL0     C 9230   3.905   0.276   6.373 -0.2810 -0.0588 -0.3818
   69MOL0     N 9231   3.625  -0.282   5.788  0.3907  0.1865  0.4197
   69MOL0     N 9232   3.576  -0.276   5.672  1.0858  0.0109  0.2345
   69MOL0     C 9233   2.937   0.636   5.184 -0.2511 -0.4078  0.1566
   69MOL0     C 9234   2.849   0.756   5.167 -0.1809 -0.5778  0.3652
   69MOL0     C 9235   2.577   1.024   4.880  0.2671 -0.9510  0.2287
   69MOL0     C 9236   2.545   1.055   4.746 -0.0409 -0.5252 -0.3436
   69MOL0     C 9237   2.431   1.129   4.713 -0.5696 -0.4163 -0.8414
   69MOL0     C 9238   2.344   1.165   4.819  0.1787  0.4445  0.8105
   69MOL0     O 9239   2.228   1.221   4.780  0.8203 -0.6430  0.2026
   69MOL0     C 9240   2.115   1.132   4.766  0.3739 -0.2954  0.3662
   69MOL0     C 9241   1.992   1.210   4.696 -0.0110  0.8525  0.3032
   69MOL0     C 9242   1.875   1.109   4.715 -0.3897 -0.0021 -0.2415
   69MOL0     C 9243   1.751   1.182   4.660  0.7752 -0.6124  0.9052
   69MOL0     C 9244   1.738   1.164   4.513 -0.0920 -0.7267  0.6699
   69MOL0     C 9245   1.703   1.148   4.395 -0.5767  0.7763  0.1118
   69MOL0     C 9246   2.360   1.113   4.946 -0.5672  0.1317  0.4733
   69MOL0     C 9247   2.479   1.052   4.977 -0.5018 -0.0283 -0.0020
   69MOL0     H 9248   2.700   0.642   4.891 -0.1847  1.4401  0.6268
   69MOL0     H 9249   2.849   0.456   4.927 -1.2454 -1.4438  1.0821
   69MOL0     H 9250   2.946   0.247   5.066  0.4983 -0.4400  0.8117
   69MOL0     H 9251   3.040   0.332   4.937  1.5862 -4.7258 -1.1862
   69MOL0     H 9252   3.180   0.149   5.024  0.9946  0.3945  1.0876
   69MOL0     H 9253   3.243   0.298   5.092  0.8603 -0.7407  2.3353
   69MOL0     H 9254   3.212   0.251   5.295 -1.5679  1.1276  2.8742
   69MOL0     H 9255   3.047   0.212   5.270  0.2681  2.0133 -1.2765
   69MOL0     H 9256   3.127  -0.017   5.189 -0.9593 -0.3889  0.6565
   69MOL0     H 9257   3.292   0.030   5.205 -0.1641 -0.3565 -1.2352
   69MOL0     H 9258   3.250   0.081   5.456  1.3152  0.8137 -1.6234
   69MOL0     H 9259   3.092   0.023   5.441  0.9144  0.2056  3.5360
   69MOL0     H 9260   3.180  -0.194   5.366  0.1313 -0.7378  0.1160
   69MOL0     H 9261   3.347  -0.133   5.370  0.1045  0.4954  0.9868
   69MOL0     H 9262   3.339  -0.083   5.614  1.4122 -2.0069  0.8872
   69MOL0     H 9263   3.176  -0.164   5.622  2.0107 -0.3074  4.2877
   69MOL0     H 9264   3.404  -0.295   5.472  0.1225 -1.1470 -0.6038
   69MOL0     H 9265   3.288  -0.376   5.572  1.9470 -0.5970  2.1516
   69MOL0     H 9266   3.306  -0.271   5.859 -1.1704 -2.5060 -1.9598
   69MOL0     H 9267   3.455  -0.240   6.078  1.0782  0.3020  1.4006
   69MOL0     H 9268   3.610  -0.328   6.067  0.0182 -1.1399 -2.9137
   69MOL0     H 9269   3.564  -0.036   6.007 -1.6425 -0.8037  0.2727
   69MOL0     H 9270   3.719  -0.113   5.965 -0.6935 -0.1378 -0.4301
   69MOL0     H 9271   3.741  -0.184   6.210  2.0696  0.5718 -1.2261
   69MOL0     H 9272   3.599  -0.099   6.259  1.4409 -1.7926  0.6091
   69MOL0     H 9273   3.700   0.107   6.117  0.5087 -0.7898 -0.7390
   69MOL0     H 9274   3.852   0.028   6.149  0.3354 -0.4946  0.1165
   69MOL0     H 9275   3.978  -0.064   6.366 -0.6990  0.0657 -0.8978
   69MOL0     H 9276   4.329   0.046   6.326  0.9758 -1.6751 -2.1907
   69MOL0     H 9277   4.272  -0.036   6.458 -0.8989 -0.2040  0.1417
   69MOL0     H 9278   4.222  -0.092   6.301 -0.6376  1.0303 -0.4032
   69MOL0     H 9279   4.334   0.550   6.614 -0.0479  0.1144 -0.5815
   69MOL0     H 9280   4.538   0.696   6.652  0.4672 -2.3908  0.4001
   69MOL0     H 9281   4.665   0.905   6.358  0.3209  3.4236  0.7921
   69MOL0     H 9282   4.592   0.898   6.519 -1.3900  1.2154 -2.0941
   69MOL0     H 9283   4.739   1.083   6.537 -3.2430 -2.1360  0.4704
   69MOL0     H 9284   4.835   0.961   6.616  0.5884  1.0744  1.5534
   69MOL0     H 9285   4.876   1.066   6.347  1.7401 -0.7922 -1.7328
   69MOL0     H 9286   4.959   0.911   6.408  0.7556  0.0462  2.6235
   69MOL0     H 9287   4.984   1.181   6.535  3.1807  0.4027  1.3029
   69MOL0     H 9288   5.032   1.036   6.598 -1.0103  1.9209  1.0521
   69MOL0     H 9289   5.206   1.023   6.435 -0.0048  0.2189 -2.3448
   69MOL0     H 9290   5.203   1.190   6.496 -2.8181  1.5747  0.4916
   69MOL0     H 9291   5.266   1.212   6.280  0.9243  0.2248  1.1942
   69MOL0     H 9292   5.155   1.076   6.229  0.7787 -1.8655  3.0688
   69MOL0     H 9293   5.047   1.336   6.359  0.9402  0.4178 -1.3484
   69MOL0     H 9294   4.983   1.243   6.216  2.0908 -1.2042 -2.5954
   69MOL0     H 9295   5.030   1.424   6.106  1.0009 -1.3385 -0.9888
   69MOL0     H 9296   5.192   1.367   6.098  0.5890  1.2417  0.9222
   69MOL0     H 9297   4.723   0.572   6.302 -1.1021  1.9575 -0.4609
   69MOL0     H 9298   4.563   0.408   6.253  0.9283  1.9272  0.1512
   69MOL0     H 9299   4.058   0.424   6.393  0.6148  0.2932 -5.4503
   69MOL0     H 9300   3.834   0.356   6.359 -0.5389 -0.1888  0.1682
   69MOL0     H 9301   3.020   0.638   5.255 -0.1225 -3.7891  0.2604
   69MOL0     H 9302   2.847   0.838   5.239 -1.0336  0.5143 -0.8622
   69MOL0     H 9303   2.616   1.029   4.669  0.2297 -1.6118  0.2406
   69MOL0     H 9304   2.421   1.167   4.612  0.4345 -0.3596 -0.9218
   69MOL0     H 9305   2.127   1.035   4.718 -0.3758 -0.8562  1.2952
   69MOL0     H 9306   2.079   1.110   4.867  0.4860  1.4232  0.8116
   69MOL0     H 9307   2.011   1.221   4.589 -2.7866 -3.6042 -0.9029
   69MOL0     H 9308   1.973   1.301   4.754 -0.5316  0.6524  0.4501
   69MOL0     H 9309   1.867   1.095   4.823  0.0915 -0.1642 -0.2251
   69MOL0     H 9310   1.888   1.006   4.680  1.6704 -1.2301  3.6165
   69MOL0     H 9311   1.763   1.284   4.698 -1.0809 -0.2513  0.6405
   69MOL0     H 9312   1.660   1.146   4.710  1.2101 -0.7671  1.6047
   69MOL0     H 9313   1.687   1.128   4.291  1.4830  0.9432 -0.2649
   69MOL0     H 9314   2.285   1.116   5.024 -1.1109  1.4936 -0.0700
   69MOL0     H 9315   2.489   1.012   5.077  1.7877  1.9275  0.6530
   70MOL0     O 9316   3.851   3.132   6.122 -0.2295  0.0999  0.1253
   70MOL0     C 9317   3.966   3.164   6.076  0.2760 -0.3380 -0.3011
   70MOL0     O 9318   3.989   3.204   5.950  0.4745 -0.4683  0.0556
   70MOL0     C 9319   3.899   3.149   5.857 -0.5401  0.3654 -0.7959
   70MOL0     C 9320   3.914   3.019   5.834  0.6233 -0.0748 -0.0247
   70MOL0     C 9321   3.818   2.956   5.746  0.3235  0.8594  0.6608
   70MOL0     C 9322   3.708   3.028   5.697 -0.4924 -0.5074 -0.0817
   70MOL0     O 9323   3.621   2.962   5.609  0.5153  0.6388 -0.2252
   70MOL0     C 9324   3.625   2.824   5.596  0.3886  0.2999  0.0746
   70MOL0     C 9325   3.505   2.747   5.530 -0.2422  0.7533  0.7287
   70MOL0     C 9326   3.462   2.808   5.392  0.6391 -0.2114 -0.1290
   70MOL0     C 9327   3.571   2.783   5.282 -0.3137  0.2945 -1.1141
   70MOL0     C 9328   3.615   2.631   5.252  0.3282 -0.4212 -1.1862
   70MOL0     C 9329   3.664   2.622   5.102  0.3852  0.2023 -0.3513
   70MOL0     C 9330   3.728   2.485   5.051  0.7570 -0.8277 -1.0559
   70MOL0     C 9331   3.764   2.489   4.903 -0.5329  0.0790  0.1819
   70MOL0     N 9332   3.641   2.488   4.815  0.3835  0.7011 -1.6423
   70MOL0     C 9333   3.568   2.382   4.767  0.9634  1.1385 -0.1281
   70MOL0     C 9334   3.469   2.449   4.688 -0.3255  0.2862 -0.4134
   70MOL0     C 9335   3.385   2.365   4.598  0.5436  1.4334  0.7935
   70MOL0     C 9336   3.307   2.440   4.489  0.6459  0.6270  0.0180
   70MOL0     C 9337   3.397   2.519   4.391  0.3529 -0.5738 -1.1228
   70MOL0     C 9338   3.327   2.580   4.273  0.0523  0.1771  0.3898
   70MOL0     O 9339   3.231   2.679   4.315  0.5788 -0.6370 -0.4580
   70MOL0     C 9340   3.187   2.773   4.225 -0.5172  0.6069  0.4717
   70MOL0     C 9341   3.062   2.818   4.237  0.6330 -0.7413 -0.5786
   70MOL0     C 9342   3.005   2.909   4.149  0.9421 -0.9210 -0.4908
   70MOL0     C 9343   2.863   2.943   4.178  0.0969 -0.9914  0.3945
   70MOL0     C 9344   3.070   2.976   4.040 -0.1512 -0.7033 -0.2846
   70MOL0     C 9345   3.035   3.084   3.946  0.5017  0.2168 -0.4906
   70MOL0     O 9346   2.951   3.175   3.994 -0.1167  0.2123  0.9935
   70MOL0     C 9347   2.903   3.270   3.904 -0.2622 -0.5890 -0.2702
   70MOL0     C 9348   2.964   3.392   3.906  0.2565  0.0681 -1.1068
   70MOL0     C 9349   2.931   3.490   3.807  0.4391  0.3853 -0.4622
   70MOL0     C 9350   2.839   3.458   3.699  0.3590 -0.2235  0.0133
   70MOL0     O 9351   2.823   3.555   3.601 -0.5138 -0.5180 -0.6200
   70MOL0     C 9352   2.714   3.539   3.511 -0.2986  0.3002  0.8890
   70MOL0     C 9353   2.683   3.674   3.442 -0.1166  0.1387  0.4666
   70MOL0     C 9354   2.612   3.780   3.524  0.0891  0.3776  0.1436
   70MOL0     C 9355   2.715   3.858   3.613 -0.3329  0.6930  0.1714
   70MOL0     C 9356   2.651   3.959   3.696  0.4936  0.1847 -0.1514
   70MOL0     C 9357   2.643   3.929   3.840 -0.1449 -0.2392  0.0870
   70MOL0     C 9358   2.530   3.832   3.880  0.4445 -0.3489  0.3405
   70MOL0     C 9359   2.498   3.828   4.030  0.0742 -0.4458 -0.7081
   70MOL0    Cl 9360   2.633   3.747   4.116 -0.0969  0.0037 -0.1646
   70MOL0     C 9361   2.781   3.335   3.697  0.2779 -0.5268  0.3471
   70MOL0     C 9362   2.813   3.248   3.802  0.6802 -0.4936  0.8050
   70MOL0     O 9363   3.085   3.089   3.836 -0.8557  0.2890 -0.0649
   70MOL0     C 9364   3.204   2.922   4.032 -1.2205  0.0590  0.2246
   70MOL0     C 9365   3.263   2.824   4.120 -0.0481  0.0666 -0.4496
   70MOL0     N 9366   3.470   2.586   4.714 -0.4879 -0.1640 -0.5497
   70MOL0     N 9367   3.568   2.610   4.795  0.2964 -0.5289 -0.3109
   70MOL0     C 9368   3.706   3.160   5.723  1.0092  0.2842 -0.5922
   70MOL0     C 9369   3.795   3.219   5.807  0.7224 -0.3114  0.1046
   70MOL0     C 9370   4.088   3.183   6.161  0.3733 -0.7987  0.3158
   70MOL0     C 9371   4.078   3.161   6.304 -0.7765 -0.0041  1.3390
   70MOL0     C 9372   4.193   3.176   6.376 -0.0985 -0.8677 -0.6686
   70MOL0     C 9373   4.315   3.228   6.320 -0.2008  0.2879  0.5417
   70MOL0     O 9374   4.436   3.261   6.377  0.1094 -0.2798 -0.9177
   70MOL0     C 9375   4.462   3.242   6.512  0.3974 -0.5343  0.1499
   70MOL0     C 9376   4.433   3.361   6.594  0.4504  0.7136 -0.2873
   70MOL0     C 9377   4.560   3.426   6.626  0.3315 -0.0530 -0.0302
   70MOL0     C 9378   4.645   3.355   6.735  0.0446  0.7325 -0.3004
   70MOL0     C 9379   4.742   3.438   6.803 -0.2221 -0.2505  0.3629
   70MOL0     C 9380   4.832   3.504   6.869  0.4498  0.5667 -0.2055
   70MOL0     C 9381   4.314   3.252   6.181  0.2773  0.4567 -1.4208
   70MOL0     C 9382   4.208   3.224   6.105 -0.0230 -1.1187  0.7302
   70MOL0     H 9383   3.997   2.958   5.869  1.3504 -0.4673 -2.2906
   70MOL0     H 9384   3.840   2.850   5.735 -2.0010  0.4695 -0.8023
   70MOL0     H 9385   3.725   2.800   5.558  0.5078  0.4752  0.2752
   70MOL0     H 9386   3.622   2.786   5.698  4.2051 -1.8315 -0.4161
   70MOL0     H 9387   3.530   2.642   5.512  0.4393  1.2228 -1.3491
   70MOL0     H 9388   3.425   2.749   5.605  0.4236 -0.7634  1.5297
   70MOL0     H 9389   3.373   2.761   5.347  0.2210 -0.5351  1.0193
   70MOL0     H 9390   3.449   2.916   5.400  1.4088 -0.0798 -0.5681
   70MOL0     H 9391   3.537   2.831   5.190 -3.2899 -0.9866 -0.7976
   70MOL0     H 9392   3.668   2.825   5.312 -0.8999  2.1963 -1.7461
   70MOL0     H 9393   3.687   2.612   5.332 -2.8892  1.0952  2.3670
   70MOL0     H 9394   3.532   2.561   5.267 -0.3592  1.0492  3.4755
   70MOL0     H 9395   3.574   2.645   5.045  0.0003 -1.5835 -0.5318
   70MOL0     H 9396   3.730   2.708   5.086 -0.3534  1.5440  3.0432
   70MOL0     H 9397   3.810   2.460   5.119 -1.6135 -3.3521  1.0972
   70MOL0     H 9398   3.656   2.404   5.068 -0.6259 -0.1044 -3.0119
   70MOL0     H 9399   3.840   2.416   4.875  0.0901  0.7815 -0.0045
   70MOL0     H 9400   3.813   2.586   4.891 -1.2349  0.5038  0.6474
   70MOL0     H 9401   3.587   2.275   4.771 -1.0843  0.7493  0.3185
   70MOL0     H 9402   3.438   2.280   4.554  1.6028  2.6508 -0.3238
   70MOL0     H 9403   3.320   2.318   4.674 -0.5736  1.0954 -0.3413
   70MOL0     H 9404   3.242   2.511   4.541 -2.3233 -1.6510 -0.3079
   70MOL0     H 9405   3.236   2.389   4.423  1.2499  0.4902 -0.5446
   70MOL0     H 9406   3.482   2.451   4.377 -0.0155 -2.5521  4.0170
   70MOL0     H 9407   3.441   2.602   4.449 -5.8964  0.5824  2.9385
   70MOL0     H 9408   3.274   2.507   4.212  1.2015  1.3172 -2.1067
   70MOL0     H 9409   3.411   2.609   4.208 -2.2859 -0.6643 -3.3104
   70MOL0     H 9410   2.992   2.791   4.315 -1.9117  2.3726 -1.6041
   70MOL0     H 9411   2.836   3.048   4.158  1.2112 -1.1676 -2.7001
   70MOL0     H 9412   2.810   2.889   4.098  0.7028 -0.1193 -0.6322
   70MOL0     H 9413   2.826   2.916   4.277 -0.3914  1.4710  0.9495
   70MOL0     H 9414   3.032   3.411   3.988 -2.5601  0.4575  1.2690
   70MOL0     H 9415   2.972   3.590   3.806  1.0479  0.1343 -1.2685
   70MOL0     H 9416   2.731   3.464   3.434 -0.0448 -0.9647  2.1357
   70MOL0     H 9417   2.623   3.533   3.573  0.3667  0.9567  1.9630
   70MOL0     H 9418   2.768   3.724   3.393 -0.6294  2.7686  2.0636
   70MOL0     H 9419   2.620   3.648   3.357  0.0530  3.5908 -0.8716
   70MOL0     H 9420   2.532   3.724   3.574 -0.2535 -0.4827 -1.3123
   70MOL0     H 9421   2.566   3.853   3.458  0.1716  2.0695  1.8746
   70MOL0     H 9422   2.766   3.791   3.683  0.0334  1.1798  0.3766
   70MOL0     H 9423   2.793   3.906   3.553 -0.8636  0.6700 -0.5463
   70MOL0     H 9424   2.553   3.986   3.656  1.3814  3.0297 -0.5983
   70MOL0     H 9425   2.724   4.041   3.697 -1.5780  2.1132  0.2713
   70MOL0     H 9426   2.731   3.889   3.891 -0.4440 -1.9594 -0.6697
   70MOL0     H 9427   2.621   4.023   3.892  0.6256 -0.4299  0.7720
   70MOL0     H 9428   2.561   3.734   3.843  0.3477 -2.0628  4.3035
   70MOL0     H 9429   2.439   3.868   3.832  1.8661  1.3699 -1.1986
   70MOL0     H 9430   2.407   3.767   4.043  1.8771 -3.6642 -1.9471
   70MOL0     H 9431   2.480   3.930   4.064  0.8227  0.5143 -2.9991
   70MOL0     H 9432   2.710   3.307   3.619  0.2368  0.7345 -0.0800
   70MOL0     H 9433   2.759   3.154   3.802 -1.5710  0.7008 -0.5613
   70MOL0     H 9434   3.265   2.947   3.946 -2.6955  0.5981 -0.7140
   70MOL0     H 9435   3.368   2.798   4.109  0.1031  0.1842  0.6029
   70MOL0     H 9436   3.627   3.224   5.683 -2.1261 -1.7423  1.8909
   70MOL0     H 9437   3.788   3.325   5.832 -0.0514 -0.3850  0.2296
   70MOL0     H 9438   3.993   3.138   6.366 -1.8536  0.5786  0.1276
   70MOL0     H 9439   4.180   3.163   6.483  0.0319 -0.3984 -0.5944
   70MOL0     H 9440   4.398   3.158   6.541 -1.2383  0.6179  0.0405
   70MOL0     H 9441   4.570   3.223   6.519  1.0008  0.0511 -4.3316
   70MOL0     H 9442   4.391   3.339   6.693  2.9353 -2.1854  0.2861
   70MOL0     H 9443   4.357   3.426   6.550 -0.6579 -0.1854  0.2372
   70MOL0     H 9444   4.528   3.525   6.660 -0.0966 -1.5684  4.7623
   70MOL0     H 9445   4.624   3.438   6.538 -0.6923  1.7154 -0.5731
   70MOL0     H 9446   4.698   3.266   6.700  0.0711  1.3468 -1.9133
   70MOL0     H 9447   4.569   3.321   6.806 -0.2586  2.3769  0.1862
   70MOL0     H 9448   4.913   3.556   6.916  1.4394 -0.6991 -0.4527
   70MOL0     H 9449   4.407   3.285   6.134  3.1163 -2.9980  1.1617
   70MOL0     H 9450   4.208   3.246   5.998  2.0670  1.0407  1.0845
   71MOL0     O 9451   2.957   5.505   8.514  0.4413 -0.5114  0.0253
   71MOL0     C 9452   3.075   5.496   8.484  0.4053  0.0933  0.2372
   71MOL0     O 9453   3.169   5.427   8.551  0.2872 -0.1416 -0.2853
   71MOL0     C 9454   3.137   5.356   8.662  0.7142  0.2475  0.9034
   71MOL0     C 9455   3.209   5.361   8.784 -0.7571  0.4869  0.2531
   71MOL0     C 9456   3.177   5.293   8.894  0.1909  0.1706  0.1205
   71MOL0     C 9457   3.058   5.218   8.903 -0.5373 -0.2093  0.0186
   71MOL0     O 9458   3.004   5.153   9.009 -0.1450 -0.2680  0.0629
   71MOL0     C 9459   3.052   5.178   9.137  0.3221  0.2440 -0.2977
   71MOL0     C 9460   2.957   5.137   9.238  0.8679 -0.5719  0.3932
   71MOL0     C 9461   2.947   4.982   9.255 -0.4357 -0.2101  0.0957
   71MOL0     C 9462   2.810   4.956   9.320 -0.3540  0.2843  0.3370
   71MOL0     C 9463   2.800   4.817   9.387  0.9578 -0.7494 -0.6722
   71MOL0     C 9464   2.658   4.795   9.446 -0.1323  0.0185  0.3841
   71MOL0     C 9465   2.613   4.657   9.471  0.2033  0.1240  0.8281
   71MOL0     C 9466   2.695   4.574   9.561 -0.0805  0.1205  0.3802
   71MOL0     N 9467   2.696   4.637   9.688 -0.1831 -0.2243  0.0204
   71MOL0     C 9468   2.813   4.666   9.754 -0.5871  0.0620 -0.3280
   71MOL0     C 9469   2.771   4.682   9.875 -0.1129 -0.7695 -0.4542
   71MOL0     C 9470   2.874   4.719   9.974  0.0006  1.3322 -0.1745
   71MOL0     C 9471   2.878   4.872  10.006 -0.6385  0.0126 -0.3730
   71MOL0     C 9472   2.749   4.913  10.082 -0.7413 -0.5973 -1.0055
   71MOL0     C 9473   2.705   5.059  10.067 -0.3256 -0.3947  0.4220
   71MOL0     O 9474   2.578   5.084  10.133 -0.4111  0.3608 -0.4474
   71MOL0     C 9475   2.572   5.126  10.265 -0.2958 -0.2675 -0.2269
   71MOL0     C 9476   2.670   5.116  10.353 -0.3566  0.0382 -0.0072
   71MOL0     C 9477   2.662   5.166  10.488 -0.6479  0.0070  0.4821
   71MOL0     C 9478   2.787   5.162  10.578  1.0983 -0.0065  0.9696
   71MOL0     C 9479   2.543   5.195  10.546  0.4646 -1.2015 -0.0425
   71MOL0     C 9480   2.526   5.259  10.682  0.9467 -0.4341  0.2434
   71MOL0     O 9481   2.562   5.189  10.791 -0.1396 -0.8852  0.5797
   71MOL0     C 9482   2.518   5.223  10.915 -0.1097 -0.0472 -0.3763
   71MOL0     C 9483   2.395   5.277  10.958 -0.2497  0.8328  0.4346
   71MOL0     C 9484   2.366   5.291  11.090 -0.0394  0.2788 -0.6010
   71MOL0     C 9485   2.463   5.246  11.195  0.8200  0.7412  0.3074
   71MOL0     O 9486   2.431   5.242  11.331  0.3159 -0.2224  0.9958
   71MOL0     C 9487   2.294   5.259  11.363  0.0019 -0.8627 -0.3226
   71MOL0     C 9488   2.278   5.206  11.510 -0.1071  0.0812 -0.3753
   71MOL0     C 9489   2.317   5.310  11.618 -0.2132  0.2196  0.3517
   71MOL0     C 9490   2.225   5.442  11.605  1.7465  1.1560  0.0135
   71MOL0     C 9491   2.288   5.549  11.689  0.3650 -0.2206 -0.0688
   71MOL0     C 9492   2.238   5.682  11.647 -0.4861 -0.6200  0.3290
   71MOL0     C 9493   2.255   5.793  11.760  0.3850  0.6027  0.4480
   71MOL0     C 9494   2.232   5.935  11.706  0.0329 -0.1053 -0.5502
   71MOL0    Cl 9495   2.232   6.042  11.841 -0.4116  0.2407 -0.0832
   71MOL0     C 9496   2.580   5.188  11.150  0.3248  0.0837  0.4457
   71MOL0     C 9497   2.605   5.178  11.013  0.5260  0.5109  0.5196
   71MOL0     O 9498   2.464   5.363  10.677 -0.6554 -0.1202 -0.5355
   71MOL0     C 9499   2.430   5.200  10.462  0.0888 -0.2210 -0.3346
   71MOL0     C 9500   2.445   5.171  10.323 -0.7546  0.0386 -0.0754
   71MOL0     N 9501   2.632   4.656   9.891 -0.5340 -0.0300  1.2931
   71MOL0     N 9502   2.595   4.619   9.775 -0.6069  0.0254  0.3973
   71MOL0     C 9503   2.987   5.203   8.784 -0.7287 -0.2838  1.6112
   71MOL0     C 9504   3.026   5.264   8.667 -1.1687  0.4128  0.6488
   71MOL0     C 9505   3.106   5.585   8.364  0.9701  0.5167 -0.0715
   71MOL0     C 9506   3.004   5.641   8.288 -0.8677 -0.3723  0.6084
   71MOL0     C 9507   3.034   5.703   8.162 -1.0205  0.5392 -0.3059
   71MOL0     C 9508   3.172   5.723   8.121 -0.0858  0.5282  0.4864
   71MOL0     O 9509   3.227   5.797   8.015  0.9777  0.1926  0.3285
   71MOL0     C 9510   3.150   5.878   7.933  0.2105  0.1639  0.2972
   71MOL0     C 9511   3.153   5.823   7.790  0.3481  0.1750 -0.5454
   71MOL0     C 9512   3.015   5.785   7.741 -0.4243 -0.2329 -0.1356
   71MOL0     C 9513   3.005   5.678   7.637  0.4360 -0.3571  0.2289
   71MOL0     C 9514   2.882   5.691   7.556  0.7006  0.8611 -0.0894
   71MOL0     C 9515   2.792   5.714   7.481 -0.0767  0.3188 -0.3700
   71MOL0     C 9516   3.273   5.671   8.204 -0.5344 -0.1761  0.2435
   71MOL0     C 9517   3.238   5.594   8.315  1.0805  0.1458  0.2958
   71MOL0     H 9518   3.294   5.428   8.787  1.1057 -1.7724  2.7550
   71MOL0     H 9519   3.236   5.308   8.984 -1.7794 -0.4436  1.5709
   71MOL0     H 9520   3.144   5.123   9.157 -0.1580  0.2883  2.3621
   71MOL0     H 9521   3.063   5.287   9.144  1.1233  0.0936  1.2914
   71MOL0     H 9522   2.981   5.197   9.326 -0.3608  0.8048 -0.1620
   71MOL0     H 9523   2.861   5.175   9.200 -1.0747 -2.8544  2.6544
   71MOL0     H 9524   2.962   4.914   9.170 -1.9309 -2.5684  1.5740
   71MOL0     H 9525   3.015   4.958   9.337  0.4466 -0.9688 -0.8338
   71MOL0     H 9526   2.800   5.026   9.403 -2.1080  1.2455 -0.6307
   71MOL0     H 9527   2.727   4.961   9.249 -2.9646 -0.4295  3.1357
   71MOL0     H 9528   2.816   4.739   9.313  1.1637 -1.4040  0.0444
   71MOL0     H 9529   2.877   4.805   9.464  0.6396 -0.4519 -0.3015
   71MOL0     H 9530   2.651   4.832   9.549 -0.2084 -2.9798  1.5684
   71MOL0     H 9531   2.579   4.834   9.381  0.7535 -1.5423 -1.7641
   71MOL0     H 9532   2.519   4.674   9.524 -0.9973  0.7096 -1.3317
   71MOL0     H 9533   2.585   4.603   9.380  0.0895  0.3021  0.7546
   71MOL0     H 9534   2.794   4.559   9.518 -0.1918  0.5513 -0.0264
   71MOL0     H 9535   2.648   4.475   9.560 -0.8066  0.4631 -0.4450
   71MOL0     H 9536   2.908   4.688   9.706 -0.1456 -1.8933 -0.4228
   71MOL0     H 9537   2.842   4.655  10.057  2.4756 -1.0117 -0.8888
   71MOL0     H 9538   2.967   4.676   9.937  1.1224  3.7580 -0.3602
   71MOL0     H 9539   2.898   4.931   9.916  0.1180  1.9466  0.9985
   71MOL0     H 9540   2.956   4.879  10.082 -2.4950 -3.5767  2.1827
   71MOL0     H 9541   2.763   4.894  10.189  2.8520 -1.7862 -1.5651
   71MOL0     H 9542   2.671   4.845  10.047  0.7668 -2.6068 -0.6217
   71MOL0     H 9543   2.699   5.081   9.961 -2.0844 -1.4471  0.2704
   71MOL0     H 9544   2.778   5.126  10.115  1.3448 -1.7826 -0.0587
   71MOL0     H 9545   2.770   5.086  10.323  0.6274  2.6472  0.4486
   71MOL0     H 9546   2.879   5.186  10.524  1.0979 -1.2129  0.4076
   71MOL0     H 9547   2.780   5.238  10.657 -3.3486  1.8181 -0.8862
   71MOL0     H 9548   2.801   5.060  10.614  4.0002 -1.1424 -2.7617
   71MOL0     H 9549   2.323   5.285  10.876  2.4386 -1.5897 -2.4551
   71MOL0     H 9550   2.269   5.334  11.115  0.8444  0.7285  2.4592
   71MOL0     H 9551   2.267   5.365  11.356  1.6608  0.0394  3.7603
   71MOL0     H 9552   2.220   5.197  11.312  0.7309 -2.8243  0.9007
   71MOL0     H 9553   2.173   5.181  11.530 -0.4383  0.7527 -1.2050
   71MOL0     H 9554   2.336   5.114  11.522 -0.6010 -0.3263 -1.0137
   71MOL0     H 9555   2.422   5.338  11.607 -0.1653 -0.1981 -0.3072
   71MOL0     H 9556   2.307   5.266  11.717  1.2399 -4.1557 -1.2297
   71MOL0     H 9557   2.224   5.480  11.502 -1.1538 -0.3498 -0.6370
   71MOL0     H 9558   2.127   5.415  11.644  2.7202  0.5634  2.1951
   71MOL0     H 9559   2.397   5.547  11.680  0.3736 -2.0779 -0.0025
   71MOL0     H 9560   2.271   5.530  11.795  1.2814  0.6378  0.2470
   71MOL0     H 9561   2.291   5.725  11.562 -0.7095  5.0640  2.6202
   71MOL0     H 9562   2.132   5.673  11.620  0.1471  0.5834 -2.9681
   71MOL0     H 9563   2.359   5.797  11.793  0.3652  0.1292  0.5826
   71MOL0     H 9564   2.186   5.783  11.845  1.0035 -0.2226  0.8714
   71MOL0     H 9565   2.132   5.932  11.662  0.3989 -2.6483 -1.3168
   71MOL0     H 9566   2.309   5.973  11.638  1.5985 -0.1031  1.1322
   71MOL0     H 9567   2.646   5.131  11.215 -0.3192 -0.6410  0.4784
   71MOL0     H 9568   2.700   5.138  10.980 -0.2887 -0.3037 -0.9997
   71MOL0     H 9569   2.336   5.240  10.500  0.5254  0.8023 -0.3072
   71MOL0     H 9570   2.363   5.173  10.252 -1.8937 -0.0089  1.2087
   71MOL0     H 9571   2.899   5.140   8.779 -2.0735  1.5841 -0.6895
   71MOL0     H 9572   2.956   5.254   8.585 -1.5772 -2.4204  1.2584
   71MOL0     H 9573   2.905   5.622   8.328 -0.2533 -2.5530  1.2653
   71MOL0     H 9574   2.948   5.747   8.111 -1.2013 -1.4784 -1.8685
   71MOL0     H 9575   3.048   5.892   7.968  0.7773  0.9304  1.7122
   71MOL0     H 9576   3.203   5.973   7.922  0.7018  0.1714  2.3941
   71MOL0     H 9577   3.224   5.741   7.777  1.4608  1.4086 -2.9441
   71MOL0     H 9578   3.197   5.894   7.720  2.3259  0.1850  0.6429
   71MOL0     H 9579   2.967   5.872   7.697 -0.2649 -0.8086 -1.4851
   71MOL0     H 9580   2.952   5.753   7.825 -2.2803  2.8495 -0.1945
   71MOL0     H 9581   3.000   5.577   7.679 -3.3546 -1.2662 -1.9255
   71MOL0     H 9582   3.090   5.684   7.569 -0.7643  0.2544 -1.2862
   71MOL0     H 9583   2.722   5.755   7.411 -1.7472 -0.4161  0.8089
   71MOL0     H 9584   3.376   5.675   8.170 -0.8972  0.9813 -0.7965
   71MOL0     H 9585   3.322   5.542   8.359  0.0347 -2.5582 -0.6884
   72MOL0     O 9586   6.089   2.757   5.848 -0.2697 -0.2227  0.1245
   72MOL0     C 9587   5.983   2.820   5.865 -0.4766  0.0616 -0.0634
   72MOL0     O 9588   5.934   2.857   5.990  0.3851 -0.9431  0.2882
   72MOL0     C 9589   6.018   2.864   6.091  0.6772  0.1071 -0.7014
   72MOL0     C 9590   6.079   2.987   6.126  0.5737  0.4744 -0.2367
   72MOL0     C 9591   6.177   2.992   6.228  0.5325 -0.6325 -0.9636
   72MOL0     C 9592   6.188   2.879   6.312  0.2241  0.1636 -0.7456
   72MOL0     O 9593   6.263   2.872   6.424  0.2896  0.3010 -0.3114
   72MOL0     C 9594   6.401   2.854   6.393  0.5501  0.7160 -0.6691
   72MOL0     C 9595   6.447   2.729   6.485  0.8639 -0.5922  0.0876
   72MOL0     C 9596   6.579   2.664   6.432  0.7718  0.3876 -0.2506
   72MOL0     C 9597   6.691   2.763   6.411  0.3657  0.6856 -0.1541
   72MOL0     C 9598   6.811   2.690   6.358  0.1659  0.4869  0.7578
   72MOL0     C 9599   6.927   2.796   6.336 -0.3511  0.5322  0.2907
   72MOL0     C 9600   7.039   2.723   6.259  0.7588 -0.1949  1.2872
   72MOL0     C 9601   7.133   2.821   6.183 -0.1835 -0.5852 -0.5645
   72MOL0     N 9602   7.099   2.848   6.046  0.0284  0.1454 -0.4482
   72MOL0     C 9603   7.160   2.787   5.937 -0.2916  0.2709  0.4732
   72MOL0     C 9604   7.106   2.846   5.827  1.1270 -0.5641 -0.2299
   72MOL0     C 9605   7.139   2.803   5.686 -0.1854 -0.6188 -0.6356
   72MOL0     C 9606   7.290   2.825   5.666 -0.4103  0.1621 -1.0741
   72MOL0     C 9607   7.321   2.819   5.519  0.0297  0.0634  0.5885
   72MOL0     C 9608   7.326   2.679   5.460  0.0318  0.5887  0.1515
   72MOL0     O 9609   7.333   2.680   5.321 -0.6036  1.1458  0.9924
   72MOL0     C 9610   7.454   2.630   5.273 -0.1633 -0.1528  0.1273
   72MOL0     C 9611   7.574   2.693   5.291 -0.6450 -0.0349 -0.3707
   72MOL0     C 9612   7.694   2.631   5.281 -0.1204  0.1841  0.7008
   72MOL0     C 9613   7.817   2.717   5.292  0.0569 -0.3281  0.4805
   72MOL0     C 9614   7.701   2.492   5.250  0.8522 -0.2994  0.3928
   72MOL0     C 9615   7.828   2.412   5.243  0.6838  0.5538  0.4229
   72MOL0     O 9616   7.919   2.432   5.343 -0.6764 -0.2831 -0.0737
   72MOL0     C 9617   8.043   2.386   5.340 -0.4900  0.3405 -1.1884
   72MOL0     C 9618   8.115   2.321   5.233  0.1487 -0.1700 -0.1489
   72MOL0     C 9619   8.230   2.248   5.256 -0.2883 -1.5322 -0.3769
   72MOL0     C 9620   8.299   2.251   5.374  0.1035  0.6487 -0.7357
   72MOL0     O 9621   8.412   2.190   5.389  0.5729  0.3307  0.0072
   72MOL0     C 9622   8.521   2.274   5.421 -0.6353  1.6566  0.1044
   72MOL0     C 9623   8.654   2.201   5.369 -0.5366  0.1644  0.1818
   72MOL0     C 9624   8.637   2.132   5.233  0.4604  0.4625  0.3343
   72MOL0     C 9625   8.773   2.063   5.200  0.0601 -0.4722  0.6416
   72MOL0     C 9626   8.750   1.951   5.099 -0.3358 -0.5390 -0.3923
   72MOL0     C 9627   8.869   1.859   5.082  0.0930  0.0728  1.2580
   72MOL0     C 9628   9.005   1.902   4.998  0.4813  0.2190  0.0677
   72MOL0     C 9629   9.113   1.787   5.030 -0.3461 -0.0966 -0.3799
   72MOL0    Cl 9630   9.250   1.844   4.945 -0.2713 -0.0763  0.0853
   72MOL0     C 9631   8.244   2.329   5.480  0.2075  0.7686  0.3251
   72MOL0     C 9632   8.117   2.381   5.466  1.2132  0.0802  0.8055
   72MOL0     O 9633   7.835   2.320   5.155  0.7962 -0.4274  0.6355
   72MOL0     C 9634   7.577   2.432   5.213  0.1725 -0.1619  0.3664
   72MOL0     C 9635   7.455   2.500   5.224 -0.8313  0.3727 -0.8089
   72MOL0     N 9636   6.999   2.932   5.868 -0.5877 -0.3197 -0.9479
   72MOL0     N 9637   6.999   2.926   6.001  0.1016 -0.4120  0.2456
   72MOL0     C 9638   6.113   2.764   6.287  0.1823  0.5392 -0.1392
   72MOL0     C 9639   6.026   2.754   6.180  0.0293 -0.0348 -0.1814
   72MOL0     C 9640   5.890   2.831   5.746  0.3812  0.4606 -0.7826
   72MOL0     C 9641   5.910   2.750   5.632  0.3969  0.9034 -1.3052
   72MOL0     C 9642   5.847   2.778   5.509 -0.4872 -0.2576 -0.7301
   72MOL0     C 9643   5.746   2.875   5.501 -1.1810 -0.2871 -0.4213
   72MOL0     O 9644   5.689   2.913   5.385  0.3878  0.0231 -0.0085
   72MOL0     C 9645   5.751   2.864   5.271  0.6969  0.8441  0.8921
   72MOL0     C 9646   5.706   2.731   5.217  1.0496  0.6965  0.0263
   72MOL0     C 9647   5.569   2.742   5.134 -0.7657  0.0505  0.5322
   72MOL0     C 9648   5.503   2.602   5.103  0.0183  0.0082  0.2118
   72MOL0     C 9649   5.606   2.503   5.048  0.5007  0.0008 -0.1986
   72MOL0     C 9650   5.695   2.422   5.021 -0.0909  0.2397  0.0239
   72MOL0     C 9651   5.710   2.942   5.621 -0.1975 -0.2447  0.0615
   72MOL0     C 9652   5.780   2.930   5.745 -0.9018  0.1607 -0.2703
   72MOL0     H 9653   6.069   3.071   6.058 -0.7691  0.2917 -0.2863
   72MOL0     H 9654   6.240   3.078   6.246 -0.4639 -0.0369 -0.2786
   72MOL0     H 9655   6.418   2.852   6.285  3.0340  0.2104 -0.3172
   72MOL0     H 9656   6.441   2.946   6.435  1.1587  0.1770 -0.0473
   72MOL0     H 9657   6.441   2.758   6.590 -1.8438  1.4775 -0.5419
   72MOL0     H 9658   6.366   2.656   6.488  2.0841 -2.2347 -2.5230
   72MOL0     H 9659   6.614   2.585   6.499  0.0566  0.7742  0.5949
   72MOL0     H 9660   6.550   2.621   6.335 -3.3610  1.3491  0.3883
   72MOL0     H 9661   6.667   2.833   6.331  2.4586 -0.3163 -1.7771
   72MOL0     H 9662   6.715   2.819   6.502  1.3231 -0.2893  0.2257
   72MOL0     H 9663   6.852   2.620   6.432  0.9801  1.3701  1.1535
   72MOL0     H 9664   6.778   2.630   6.273  3.5076 -0.5598  0.0499
   72MOL0     H 9665   6.891   2.877   6.271  0.5131 -1.4479 -2.8501
   72MOL0     H 9666   6.978   2.844   6.421  1.3081 -0.1270 -0.2961
   72MOL0     H 9667   7.105   2.667   6.326 -0.1364 -0.8949  1.5990
   72MOL0     H 9668   6.994   2.648   6.193  0.1842  1.0408  0.2085
   72MOL0     H 9669   7.230   2.772   6.192 -0.4550 -1.2940 -1.4333
   72MOL0     H 9670   7.125   2.910   6.247 -2.4019 -2.1282  1.4650
   72MOL0     H 9671   7.230   2.704   5.930 -1.1709 -0.3591 -2.3186
   72MOL0     H 9672   7.112   2.697   5.689  3.1035 -1.5832 -1.3112
   72MOL0     H 9673   7.084   2.853   5.605 -1.0171  0.6385  0.6624
   72MOL0     H 9674   7.342   2.755   5.731 -1.5665 -0.5557 -0.8983
   72MOL0     H 9675   7.336   2.918   5.700  4.3800 -2.7542  1.6251
   72MOL0     H 9676   7.424   2.853   5.511 -0.2691  0.8965  0.2118
   72MOL0     H 9677   7.247   2.877   5.464 -0.3677 -1.6469 -0.7820
   72MOL0     H 9678   7.237   2.632   5.502 -1.8013  2.5062 -1.3299
   72MOL0     H 9679   7.401   2.616   5.508  0.3758  0.0419 -1.0631
   72MOL0     H 9680   7.568   2.797   5.324  1.5276  0.4007 -1.1682
   72MOL0     H 9681   7.889   2.706   5.373  1.7859  3.2616 -0.3856
   72MOL0     H 9682   7.871   2.705   5.198 -1.5988 -1.2046 -0.4075
   72MOL0     H 9683   7.783   2.821   5.300  0.4129 -0.1021 -0.7819
   72MOL0     H 9684   8.061   2.312   5.139  0.5799 -1.7979 -0.2676
   72MOL0     H 9685   8.281   2.190   5.179  0.8747 -1.5362  0.3638
   72MOL0     H 9686   8.514   2.368   5.365 -1.8126 -0.0969 -2.9178
   72MOL0     H 9687   8.541   2.291   5.527 -0.4582  0.5286  0.2626
   72MOL0     H 9688   8.728   2.281   5.361 -1.0273  0.5048 -1.0383
   72MOL0     H 9689   8.685   2.127   5.444  3.1916 -1.5709 -2.7503
   72MOL0     H 9690   8.610   2.207   5.158  0.5703 -0.5988 -0.7921
   72MOL0     H 9691   8.557   2.057   5.237 -0.0929  0.8601 -1.8139
   72MOL0     H 9692   8.834   2.141   5.154 -0.8799  0.2274  0.5441
   72MOL0     H 9693   8.840   2.044   5.284  1.4915  0.5252 -0.2215
   72MOL0     H 9694   8.713   1.986   5.003  0.4824 -0.6972 -0.7772
   72MOL0     H 9695   8.674   1.885   5.140  0.6980 -1.4928  0.0577
   72MOL0     H 9696   8.886   1.813   5.180 -0.1952  0.7189  1.6171
   72MOL0     H 9697   8.835   1.761   5.045 -4.0658  0.0211  4.4940
   72MOL0     H 9698   9.028   2.006   5.023 -2.9139  1.5957 -1.8340
   72MOL0     H 9699   8.980   1.908   4.891  2.0950  0.8202 -0.3063
   72MOL0     H 9700   9.083   1.690   4.990  0.6030  0.1473 -1.7689
   72MOL0     H 9701   9.136   1.792   5.136  0.1039 -0.5074 -0.4567
   72MOL0     H 9702   8.294   2.323   5.576 -0.0214 -2.6753  0.3541
   72MOL0     H 9703   8.066   2.428   5.550  0.6557 -1.2218  1.2168
   72MOL0     H 9704   7.575   2.332   5.170  0.0365 -0.2001  0.4586
   72MOL0     H 9705   7.364   2.445   5.206 -2.8793  2.7633  1.3714
   72MOL0     H 9706   6.121   2.678   6.353 -2.7437  0.1497 -0.1805
   72MOL0     H 9707   5.991   2.658   6.141 -1.5686  0.5536 -0.2600
   72MOL0     H 9708   5.990   2.679   5.646 -0.4267  0.3499  1.1121
   72MOL0     H 9709   5.862   2.705   5.430 -2.9310 -2.4545  0.6761
   72MOL0     H 9710   5.739   2.933   5.187 -0.7350  1.1310  1.2978
   72MOL0     H 9711   5.859   2.850   5.281  0.4900 -0.4844  1.5429
   72MOL0     H 9712   5.692   2.667   5.305 -1.4014 -0.5279 -1.1570
   72MOL0     H 9713   5.783   2.690   5.151  0.5543  2.0668 -1.4764
   72MOL0     H 9714   5.593   2.802   5.045  2.9680 -0.8394  0.7623
   72MOL0     H 9715   5.502   2.788   5.207  0.8182 -1.0124  2.7452
   72MOL0     H 9716   5.422   2.602   5.029 -1.4421 -0.0193  1.7543
   72MOL0     H 9717   5.448   2.561   5.188 -0.2262 -0.9470 -0.3874
   72MOL0     H 9718   5.771   2.348   5.012  1.4868  1.9008 -1.0947
   72MOL0     H 9719   5.635   3.020   5.621  3.4008  3.7763 -3.6243
   72MOL0     H 9720   5.763   2.986   5.836 -0.8331 -0.4935  0.1468
   73MOL0     O 9721  10.425   7.946   0.492 -0.0294  0.1094  0.7372
   73MOL0     C 9722  10.412   8.009   0.387  0.2483  0.6921  0.5019
   73MOL0     O 9723  10.379   8.140   0.373 -0.5251  0.4584  0.0485
   73MOL0     C 9724  10.349   8.198   0.488  0.3387 -0.2172 -0.0863
   73MOL0     C 9725  10.232   8.181   0.558  0.9644  0.4885 -0.8123
   73MOL0     C 9726  10.193   8.258   0.662 -0.2077  0.8381 -0.0071
   73MOL0     C 9727  10.274   8.365   0.710 -0.4611  1.6595  0.3638
   73MOL0     O 9728  10.231   8.428   0.819  0.4304  0.9505  0.3400
   73MOL0     C 9729  10.265   8.570   0.807 -0.4354  0.2809 -0.5899
   73MOL0     C 9730  10.180   8.645   0.900 -0.3184 -0.2131 -0.4636
   73MOL0     C 9731  10.210   8.596   1.048  0.0621  0.0740 -0.0125
   73MOL0     C 9732  10.185   8.700   1.157  0.3033  1.1415 -0.4862
   73MOL0     C 9733  10.143   8.648   1.292  0.5225  0.3122 -0.7671
   73MOL0     C 9734  10.042   8.743   1.354 -0.2210 -0.4041 -0.5230
   73MOL0     C 9735  10.113   8.859   1.428  0.1264  0.5004  1.0437
   73MOL0     C 9736  10.164   8.811   1.561  0.3409  0.8470 -0.4282
   73MOL0     N 9737  10.061   8.769   1.651  0.7007  0.8474  0.1621
   73MOL0     C 9738   9.964   8.860   1.702  0.0704  0.6268 -1.1523
   73MOL0     C 9739   9.895   8.780   1.788 -0.5154 -0.7251 -0.5573
   73MOL0     C 9740   9.779   8.791   1.885 -0.0478  0.8644 -0.4302
   73MOL0     C 9741   9.678   8.900   1.834 -0.2360 -0.8923 -0.0126
   73MOL0     C 9742   9.569   8.911   1.943 -0.2299 -0.0734  0.2074
   73MOL0     C 9743   9.433   8.963   1.894 -0.8412 -0.4015 -0.2981
   73MOL0     O 9744   9.350   8.948   2.006 -0.0262 -0.2270 -0.2929
   73MOL0     C 9745   9.222   8.995   2.000 -0.3827  0.0038  0.3074
   73MOL0     C 9746   9.145   8.982   2.115  0.1264 -0.1505 -0.1370
   73MOL0     C 9747   9.018   9.030   2.127 -0.7805 -0.1740  0.2541
   73MOL0     C 9748   8.943   8.998   2.255  0.3922  0.6969 -0.3375
   73MOL0     C 9749   8.972   9.117   2.022  0.1056  0.5171 -0.2529
   73MOL0     C 9750   8.840   9.179   2.029  0.0669 -0.5845  0.9101
   73MOL0     O 9751   8.746   9.144   1.941 -0.4681 -0.5430  1.0501
   73MOL0     C 9752   8.614   9.160   1.970  0.1364  0.1703  0.6095
   73MOL0     C 9753   8.532   9.195   1.863 -0.5292 -0.3713  0.2341
   73MOL0     C 9754   8.388   9.208   1.881 -0.5125 -0.6028 -0.0658
   73MOL0     C 9755   8.334   9.193   2.006 -0.5990 -0.3924 -0.4818
   73MOL0     O 9756   8.196   9.198   2.026 -0.1783  0.1441  0.0221
   73MOL0     C 9757   8.158   9.298   2.119 -0.6178  0.1717 -0.0776
   73MOL0     C 9758   8.007   9.307   2.131  0.0503 -0.1906 -0.2753
   73MOL0     C 9759   7.921   9.183   2.135  0.3366 -0.0180 -0.0445
   73MOL0     C 9760   7.791   9.190   2.049 -0.5838 -0.2559  0.0416
   73MOL0     C 9761   7.685   9.127   2.123  0.7514  0.6959  0.4640
   73MOL0     C 9762   7.555   9.117   2.039 -0.4759  0.2572 -0.5790
   73MOL0     C 9763   7.486   9.251   2.054 -0.9722  0.2377  0.1472
   73MOL0     C 9764   7.361   9.255   1.967 -0.9178  1.2553 -0.0543
   73MOL0    Cl 9765   7.240   9.118   1.976  0.1902  0.1452  0.2695
   73MOL0     C 9766   8.420   9.151   2.111  0.6289  0.3212 -0.1173
   73MOL0     C 9767   8.559   9.130   2.090  0.5513 -0.0694  0.4781
   73MOL0     O 9768   8.824   9.260   2.116 -0.0746  0.2535 -0.0154
   73MOL0     C 9769   9.039   9.123   1.902 -0.0582 -0.9113  0.2301
   73MOL0     C 9770   9.159   9.054   1.887  0.2265  1.2407  0.5526
   73MOL0     N 9771   9.949   8.655   1.792  0.3306 -0.1097  0.1096
   73MOL0     N 9772  10.049   8.652   1.708  0.3882 -0.0852  0.6743
   73MOL0     C 9773  10.405   8.370   0.648  0.0720 -0.1390 -0.3413
   73MOL0     C 9774  10.445   8.289   0.542  0.2670  0.0445  0.7081
   73MOL0     C 9775  10.442   7.933   0.261 -0.4215  0.2857 -0.7239
   73MOL0     C 9776  10.377   7.964   0.145 -0.3118 -0.5087  0.3318
   73MOL0     C 9777  10.426   7.917   0.021 -0.7768 -1.5105 -0.1259
   73MOL0     C 9778  10.540   7.838   0.018 -0.2757  1.0681  0.6551
   73MOL0     O 9779  10.593   7.783  -0.096  0.8396 -0.2980 -0.6847
   73MOL0     C 9780  10.554   7.847  -0.219  0.0415 -0.7318  0.5178
   73MOL0     C 9781  10.690   7.888  -0.281 -0.6206 -0.4860 -0.3005
   73MOL0     C 9782  10.771   7.974  -0.189  0.6360 -0.3775 -0.6572
   73MOL0     C 9783  10.888   8.033  -0.248 -0.1181 -0.5135  0.1485
   73MOL0     C 9784  10.943   8.146  -0.167 -0.3661  0.4265  0.2846
   73MOL0     C 9785  10.969   8.229  -0.085 -0.7330 -0.2643 -0.3867
   73MOL0     C 9786  10.603   7.803   0.141  0.3203 -0.8101 -0.9564
   73MOL0     C 9787  10.555   7.849   0.265 -0.3454  0.7799 -0.8498
   73MOL0     H 9788  10.163   8.104   0.526  1.2478 -0.7399  1.3363
   73MOL0     H 9789  10.100   8.233   0.712  1.3918  0.4616  3.0086
   73MOL0     H 9790  10.367   8.590   0.841  0.1415  0.7509 -2.4982
   73MOL0     H 9791  10.269   8.608   0.704  3.0114  1.5174 -0.1421
   73MOL0     H 9792  10.197   8.753   0.891 -1.1521  0.0371  0.7714
   73MOL0     H 9793  10.080   8.607   0.876  0.7362 -3.4958 -0.2198
   73MOL0     H 9794  10.162   8.500   1.067 -2.5154  0.6768 -2.7457
   73MOL0     H 9795  10.315   8.565   1.052 -0.5357 -2.1284 -0.5109
   73MOL0     H 9796  10.265   8.774   1.159  0.2340  1.3336 -2.4312
   73MOL0     H 9797  10.092   8.745   1.123  0.4130  1.8401  0.1364
   73MOL0     H 9798  10.109   8.545   1.281  0.0336  0.5435 -1.5263
   73MOL0     H 9799  10.218   8.637   1.370 -1.8357 -0.0644  1.5907
   73MOL0     H 9800   9.968   8.786   1.286 -0.4922  1.0791  0.6625
   73MOL0     H 9801   9.984   8.686   1.428  2.0588 -1.9259  0.2031
   73MOL0     H 9802  10.198   8.889   1.365 -0.5708 -0.1342 -0.2461
   73MOL0     H 9803  10.053   8.949   1.444 -1.2763  0.1286 -1.4842
   73MOL0     H 9804  10.219   8.893   1.608  0.1042  1.4036 -1.0871
   73MOL0     H 9805  10.234   8.728   1.550 -0.3281  0.5653 -3.4421
   73MOL0     H 9806   9.958   8.968   1.696  2.7820  1.4583  4.6136
   73MOL0     H 9807   9.723   8.697   1.894  0.2721  0.8173  1.5102
   73MOL0     H 9808   9.801   8.826   1.986 -1.2766  1.5491 -0.3809
   73MOL0     H 9809   9.636   8.866   1.739 -0.0659  0.7548 -0.7047
   73MOL0     H 9810   9.723   8.997   1.811  0.1218 -1.4061 -1.6168
   73MOL0     H 9811   9.601   8.981   2.020  1.6573  0.7509 -1.2571
   73MOL0     H 9812   9.555   8.812   1.988 -3.2288  1.0011  1.9242
   73MOL0     H 9813   9.403   8.893   1.815  1.9610 -3.7521  1.2869
   73MOL0     H 9814   9.441   9.069   1.868 -0.7492 -0.6466 -1.3260
   73MOL0     H 9815   9.177   8.921   2.200 -2.7443 -0.0822  1.1194
   73MOL0     H 9816   8.929   9.086   2.318  0.0276 -0.9671  2.0590
   73MOL0     H 9817   8.845   8.953   2.235 -0.3268  2.0702 -0.0474
   73MOL0     H 9818   8.994   8.918   2.311 -1.5481 -0.8376 -0.6376
   73MOL0     H 9819   8.575   9.220   1.766 -0.2129 -0.7305  0.2802
   73MOL0     H 9820   8.334   9.228   1.789 -2.4356  2.9262  1.6475
   73MOL0     H 9821   8.204   9.287   2.218 -0.0381  1.8883 -0.1177
   73MOL0     H 9822   8.179   9.395   2.074  0.7445 -0.5591 -1.0913
   73MOL0     H 9823   7.994   9.368   2.221  3.2645 -0.4947  0.5222
   73MOL0     H 9824   7.974   9.368   2.047 -0.7280 -1.0963 -0.6556
   73MOL0     H 9825   7.898   9.145   2.234  1.2330  0.8290  0.5092
   73MOL0     H 9826   7.985   9.101   2.099  5.0451  2.9420  0.6495
   73MOL0     H 9827   7.760   9.294   2.040 -2.3729 -0.7399  0.2201
   73MOL0     H 9828   7.808   9.148   1.949  0.7800  3.0285 -1.2570
   73MOL0     H 9829   7.661   9.188   2.210  3.2984 -0.3653  2.0366
   73MOL0     H 9830   7.708   9.026   2.158  0.0169  0.4305  0.2025
   73MOL0     H 9831   7.585   9.104   1.935  1.1094 -1.7165  0.0505
   73MOL0     H 9832   7.496   9.031   2.074  1.0824  0.1016  1.8495
   73MOL0     H 9833   7.551   9.337   2.032  0.7566  0.2337  4.3513
   73MOL0     H 9834   7.463   9.261   2.161  3.3903 -1.9388  1.5542
   73MOL0     H 9835   7.400   9.271   1.866  0.2936 -2.9180 -0.4527
   73MOL0     H 9836   7.300   9.341   1.994 -1.5328  0.6879  0.4122
   73MOL0     H 9837   8.383   9.131   2.211  3.8423 -0.2400  1.0914
   73MOL0     H 9838   8.622   9.094   2.169  0.7627 -2.2403 -0.6003
   73MOL0     H 9839   9.002   9.186   1.821 -0.4915  1.2721  2.0253
   73MOL0     H 9840   9.203   9.055   1.788 -0.3550 -0.6126  0.2431
   73MOL0     H 9841  10.475   8.429   0.706 -1.9865  0.1943  1.9827
   73MOL0     H 9842  10.541   8.297   0.492 -0.0719  1.5204  0.2211
   73MOL0     H 9843  10.291   8.030   0.137 -1.3999 -1.8433  0.4531
   73MOL0     H 9844  10.365   7.952  -0.061 -1.9301 -1.9047  0.5359
   73MOL0     H 9845  10.501   7.787  -0.294 -0.4820  1.4072 -0.9223
   73MOL0     H 9846  10.498   7.941  -0.204 -3.2292 -1.8820 -2.8757
   73MOL0     H 9847  10.677   7.947  -0.372  0.9117 -2.1350 -1.6796
   73MOL0     H 9848  10.756   7.802  -0.295 -0.4852 -1.0969  3.2572
   73MOL0     H 9849  10.795   7.916  -0.099 -0.3954  1.1789  0.6649
   73MOL0     H 9850  10.705   8.051  -0.148 -0.0934 -1.0274 -0.5730
   73MOL0     H 9851  10.864   8.073  -0.347 -1.6165  0.2691  0.8002
   73MOL0     H 9852  10.959   7.950  -0.236  1.6563  1.1008  1.2868
   73MOL0     H 9853  10.993   8.300  -0.008  3.2617  0.9820 -2.5173
   73MOL0     H 9854  10.695   7.746   0.133  0.2870 -0.8566 -1.0212
   73MOL0     H 9855  10.617   7.828   0.351 -0.6712  1.6357 -0.3930
   74MOL0     O 9856   3.321   8.676   3.225 -0.0181  0.4482 -0.7269
   74MOL0     C 9857   3.283   8.785   3.186  1.1772 -0.6933  1.0259
   74MOL0     O 9858   3.365   8.890   3.140 -0.0080  0.2758 -1.0601
   74MOL0     C 9859   3.501   8.868   3.147 -0.9773  0.3836  0.3822
   74MOL0     C 9860   3.571   8.883   3.268  0.6893 -0.3926  0.4868
   74MOL0     C 9861   3.712   8.870   3.269  0.4239 -0.0228  0.1785
   74MOL0     C 9862   3.779   8.858   3.146 -0.1707 -0.1631 -0.6699
   74MOL0     O 9863   3.914   8.856   3.147  0.8890  0.2832 -0.4482
   74MOL0     C 9864   3.996   8.878   3.037 -0.4027  1.7284 -0.2532
   74MOL0     C 9865   4.143   8.873   3.083  0.5946 -0.5178  0.7872
   74MOL0     C 9866   4.180   9.018   3.108  0.7053 -0.5887 -0.2505
   74MOL0     C 9867   4.318   9.020   3.169  1.1238  0.1875  0.6126
   74MOL0     C 9868   4.344   9.172   3.209 -0.0593 -0.2331  0.8569
   74MOL0     C 9869   4.484   9.183   3.270  0.5922  0.5097  1.0913
   74MOL0     C 9870   4.525   9.329   3.265  0.2173  0.5790  0.0438
   74MOL0     C 9871   4.427   9.427   3.332 -0.6673 -0.1270 -0.0901
   74MOL0     N 9872   4.475   9.566   3.334 -0.2174  0.1162  1.2299
   74MOL0     C 9873   4.536   9.633   3.438  0.3497  1.1551  0.0024
   74MOL0     C 9874   4.534   9.765   3.406 -0.3151  0.5796 -0.2404
   74MOL0     C 9875   4.597   9.875   3.486 -0.6264 -0.1107 -0.5647
   74MOL0     C 9876   4.627   9.845   3.628  0.0439  0.7401 -0.7762
   74MOL0     C 9877   4.700   9.965   3.705 -1.1804  0.0466  0.5911
   74MOL0     C 9878   4.616  10.085   3.728 -0.1061  0.9729  0.1885
   74MOL0     O 9879   4.703  10.173   3.797 -0.0701  0.8438  0.8341
   74MOL0     C 9880   4.652  10.299   3.803 -0.3353 -0.1117 -0.7073
   74MOL0     C 9881   4.519  10.331   3.786  0.3560 -0.6264  0.4557
   74MOL0     C 9882   4.468  10.464   3.819  0.8835  0.2704  0.4574
   74MOL0     C 9883   4.333  10.521   3.758 -0.8651 -0.7991  1.1686
   74MOL0     C 9884   4.558  10.555   3.881 -0.5936 -1.6427 -1.1371
   74MOL0     C 9885   4.514  10.699   3.907  0.7326 -0.6167  0.2066
   74MOL0     O 9886   4.499  10.741   4.033 -0.2230  0.6660 -0.0813
   74MOL0     C 9887   4.524  10.873   4.072  0.5791  0.3120 -0.0960
   74MOL0     C 9888   4.589  10.962   3.981 -0.0510  0.5334 -0.1354
   74MOL0     C 9889   4.622  11.093   4.014 -0.7220 -0.4849 -1.1929
   74MOL0     C 9890   4.588  11.142   4.141 -0.9627  0.2593  0.0872
   74MOL0     O 9891   4.646  11.263   4.165  0.2323 -0.3680 -0.3601
   74MOL0     C 9892   4.695  11.275   4.299  0.7053  1.0849 -0.4389
   74MOL0     C 9893   4.795  11.388   4.307 -0.0520  0.1026 -0.8470
   74MOL0     C 9894   4.734  11.540   4.280 -0.5156 -0.1623 -0.1248
   74MOL0     C 9895   4.847  11.645   4.314 -0.9082 -0.5089 -0.5142
   74MOL0     C 9896   4.823  11.783   4.237  0.1219  1.2958  0.1875
   74MOL0     C 9897   4.700  11.848   4.279  0.5035 -0.2164 -0.2312
   74MOL0     C 9898   4.690  11.985   4.222  0.1765  0.5747  0.3177
   74MOL0     C 9899   4.539  12.021   4.192  0.2714 -0.6132  0.1277
   74MOL0    Cl 9900   4.427  11.981   4.332  0.1359  0.1038  0.2092
   74MOL0     C 9901   4.511  11.057   4.228  0.1394  0.0576 -0.5166
   74MOL0     C 9902   4.466  10.930   4.192 -0.4242  0.3363  1.0802
   74MOL0     O 9903   4.466  10.757   3.810 -0.4501 -0.0070 -0.0162
   74MOL0     C 9904   4.684  10.520   3.902 -1.4923  0.9198 -0.2971
   74MOL0     C 9905   4.733  10.398   3.864 -0.7877 -0.5076  1.3319
   74MOL0     N 9906   4.471   9.786   3.286 -0.2620  0.0381  0.2383
   74MOL0     N 9907   4.427   9.667   3.244  0.0349 -0.4832 -0.4441
   74MOL0     C 9908   3.704   8.846   3.025 -0.1550  0.6176 -1.0005
   74MOL0     C 9909   3.567   8.851   3.026  0.9013 -0.4822  0.7868
   74MOL0     C 9910   3.137   8.823   3.213  0.2074 -0.3805 -1.1032
   74MOL0     C 9911   3.079   8.940   3.159 -0.4883  0.4710  0.3055
   74MOL0     C 9912   2.946   8.979   3.196 -0.5219 -0.3283  0.2667
   74MOL0     C 9913   2.865   8.904   3.274  0.0274 -0.0031 -0.2171
   74MOL0     O 9914   2.733   8.943   3.304 -0.3078  0.4378  0.6435
   74MOL0     C 9915   2.644   8.912   3.197  0.1118  1.1383  1.2271
   74MOL0     C 9916   2.505   8.835   3.242 -0.1573 -0.4057 -1.5179
   74MOL0     C 9917   2.439   8.769   3.123  0.5685  1.1354 -0.1496
   74MOL0     C 9918   2.302   8.719   3.169 -0.3255 -0.0316  0.0216
   74MOL0     C 9919   2.221   8.686   3.052  0.4529 -0.2079 -0.0347
   74MOL0     C 9920   2.146   8.670   2.965  0.2241  0.0340  0.9214
   74MOL0     C 9921   2.926   8.793   3.338  0.5446  0.6601 -0.0096
   74MOL0     C 9922   3.057   8.754   3.303 -0.9772  0.8086 -0.3258
   74MOL0     H 9923   3.523   8.908   3.362  1.3751  0.0848  0.7157
   74MOL0     H 9924   3.770   8.895   3.357  0.8677  1.7126 -0.5530
   74MOL0     H 9925   3.990   8.788   2.975  1.0974  1.6345 -0.3077
   74MOL0     H 9926   3.963   8.967   2.982 -0.8965  1.9776  0.4376
   74MOL0     H 9927   4.160   8.809   3.171 -1.3598  1.5371  2.7800
   74MOL0     H 9928   4.206   8.837   3.001 -0.3428 -1.2099  0.3535
   74MOL0     H 9929   4.177   9.073   3.013 -5.6801 -0.1456 -0.2127
   74MOL0     H 9930   4.110   9.055   3.183  1.6131 -1.8693  1.2755
   74MOL0     H 9931   4.311   8.958   3.259 -2.3279 -0.0458  0.2981
   74MOL0     H 9932   4.403   8.998   3.104  3.0099  5.5254  0.8091
   74MOL0     H 9933   4.328   9.244   3.129 -0.5569  2.0073  2.8472
   74MOL0     H 9934   4.276   9.182   3.294 -1.0171 -0.9568  0.1938
   74MOL0     H 9935   4.473   9.146   3.372 -0.8604  0.0378  0.8014
   74MOL0     H 9936   4.552   9.123   3.209 -1.8359 -2.4023  0.9950
   74MOL0     H 9937   4.624   9.330   3.310 -0.0360 -0.2935  0.6593
   74MOL0     H 9938   4.537   9.356   3.160  2.6426  4.0672  1.0558
   74MOL0     H 9939   4.416   9.382   3.431  0.0052  1.4845  0.7616
   74MOL0     H 9940   4.334   9.422   3.274  0.0733  1.5769 -1.5566
   74MOL0     H 9941   4.575   9.595   3.532 -0.6329 -0.3994 -0.1802
   74MOL0     H 9942   4.695   9.886   3.438  0.2209 -1.5543  0.7064
   74MOL0     H 9943   4.542   9.969   3.481 -0.1669  0.1073 -2.3277
   74MOL0     H 9944   4.699   9.763   3.637 -0.0795  0.8351  2.2304
   74MOL0     H 9945   4.531   9.816   3.672  1.2776 -0.0918  1.5327
   74MOL0     H 9946   4.789   9.992   3.647 -1.4457  0.1676  0.2422
   74MOL0     H 9947   4.732   9.920   3.800 -0.5888 -0.3764  0.2005
   74MOL0     H 9948   4.524  10.067   3.784  0.0075  3.7993  1.4345
   74MOL0     H 9949   4.585  10.122   3.630 -1.3040  2.8056  1.2119
   74MOL0     H 9950   4.458  10.259   3.732 -0.6644 -1.0380  2.0946
   74MOL0     H 9951   4.353  10.579   3.668  1.1702 -1.5392  1.1043
   74MOL0     H 9952   4.259  10.443   3.735 -0.7168 -0.4875 -0.5160
   74MOL0     H 9953   4.269  10.568   3.834 -1.4062 -0.9146  0.7882
   74MOL0     H 9954   4.626  10.931   3.883  1.6677  0.2586  0.5677
   74MOL0     H 9955   4.680  11.153   3.944  1.2634 -2.8449 -1.7072
   74MOL0     H 9956   4.613  11.295   4.368  1.5667 -1.0146  1.3043
   74MOL0     H 9957   4.740  11.180   4.328 -1.6073  0.1198  0.1318
   74MOL0     H 9958   4.858  11.377   4.396 -1.0406 -0.6719 -0.2062
   74MOL0     H 9959   4.875  11.365   4.237  1.3078 -1.7623  1.1654
   74MOL0     H 9960   4.640  11.558   4.333 -0.9366 -2.4340 -0.0264
   74MOL0     H 9961   4.714  11.554   4.174  2.2705 -1.3636 -0.9116
   74MOL0     H 9962   4.850  11.673   4.420  0.4920  0.4282 -0.7807
   74MOL0     H 9963   4.943  11.619   4.270  0.3576 -2.8129  3.1909
   74MOL0     H 9964   4.823  11.766   4.129  4.3960 -0.9938  0.3167
   74MOL0     H 9965   4.910  11.846   4.255  0.9491  0.0403  0.7146
   74MOL0     H 9966   4.614  11.781   4.263 -0.2249 -0.0940  2.5280
   74MOL0     H 9967   4.700  11.853   4.389  2.2008 -1.0451 -0.1670
   74MOL0     H 9968   4.745  11.995   4.128  3.3567 -3.1290  1.5046
   74MOL0     H 9969   4.722  12.053   4.301 -0.8458 -0.3547  1.5758
   74MOL0     H 9970   4.497  11.970   4.104 -0.0679 -0.9273  0.4701
   74MOL0     H 9971   4.533  12.126   4.162 -1.7461 -1.3002 -2.2171
   74MOL0     H 9972   4.476  11.119   4.311  1.6021  2.3043 -1.4661
   74MOL0     H 9973   4.394  10.869   4.246  1.9356 -1.6956  2.1287
   74MOL0     H 9974   4.761  10.573   3.956  0.2507 -0.2730 -1.5202
   74MOL0     H 9975   4.838  10.386   3.889 -0.8034 -1.0994  1.1387
   74MOL0     H 9976   3.736   8.839   2.921  1.1659 -1.7071 -0.5166
   74MOL0     H 9977   3.511   8.850   2.934 -3.8116  0.6243  3.2987
   74MOL0     H 9978   3.134   9.004   3.092 -3.2027  2.3906 -0.2346
   74MOL0     H 9979   2.895   9.067   3.158  0.2420  1.5387  3.2285
   74MOL0     H 9980   2.614   9.002   3.143 -0.6154 -0.5217 -1.2758
   74MOL0     H 9981   2.697   8.848   3.126 -1.3056 -0.0488  1.1796
   74MOL0     H 9982   2.430   8.908   3.275  0.3898  0.2698 -1.7388
   74MOL0     H 9983   2.518   8.771   3.330  1.4355  2.0018  0.1317
   74MOL0     H 9984   2.496   8.682   3.091 -2.3426 -0.3150 -1.7721
   74MOL0     H 9985   2.409   8.835   3.041 -0.4629 -0.7264 -1.3200
   74MOL0     H 9986   2.251   8.808   3.208  1.5622  1.5314 -0.9038
   74MOL0     H 9987   2.307   8.637   3.241 -0.7372  1.7492  2.1924
   74MOL0     H 9988   2.062   8.668   2.898 -1.5110  2.5457  2.8326
   74MOL0     H 9989   2.873   8.734   3.413  1.4667 -0.0056  0.1451
   74MOL0     H 9990   3.091   8.662   3.351 -1.2480  1.4061  1.0594
   75MOL0     O 9991   7.695   1.259  11.425 -0.5199 -0.2347 -0.4786
   75MOL0     C 9992   7.659   1.270  11.301 -0.2519  0.5789 -0.6183
   75MOL0     O 9993   7.595   1.381  11.241 -0.3166 -0.1984  0.3228
   75MOL0     C 9994   7.546   1.487  11.319 -0.0199 -0.1097 -0.7400
   75MOL0     C 9995   7.463   1.464  11.431 -0.9028  0.2373 -0.3273
   75MOL0     C 9996   7.397   1.565  11.500  0.0563 -0.0702 -0.3984
   75MOL0     C 9997   7.383   1.689  11.442  0.2439 -1.1354 -0.0120
   75MOL0     O 9998   7.325   1.781  11.520 -0.6838  0.5208 -0.1659
   75MOL0     C 9999   7.265   1.886  11.449 -0.2540  0.5237  0.1489
   75MOL0     C10000   7.166   1.949  11.553 -0.3036 -0.0120  0.3633
   75MOL0     C10001   7.023   1.890  11.545 -0.2777 -0.0143  0.6284
   75MOL0     C10002   7.003   1.756  11.619  0.3519  0.3806  0.0388
   75MOL0     C10003   6.934   1.768  11.756 -0.2522 -0.9328 -0.4911
   75MOL0     C10004   6.796   1.839  11.769  0.5570 -0.6233 -0.0558
   75MOL0     C10005   6.750   1.837  11.920 -0.6068  0.0272  0.8293
   75MOL0     C10006   6.705   1.693  11.966 -0.4198 -0.2108 -0.2544
   75MOL0     N10007   6.628   1.705  12.092  0.4791 -0.7369  0.4029
   75MOL0     C10008   6.668   1.695  12.224 -1.3664  0.7352  0.4747
   75MOL0     C10009   6.559   1.702  12.296 -0.7818  1.2204  0.1689
   75MOL0     C10010   6.545   1.726  12.444  0.2179  0.5868 -0.2917
   75MOL0     C10011   6.550   1.880  12.476  0.9086  0.0627 -1.0435
   75MOL0     C10012   6.689   1.938  12.455  0.2574 -0.3563  0.2081
   75MOL0     C10013   6.702   2.078  12.532  0.5248  0.3385  0.1945
   75MOL0     O10014   6.633   2.168  12.441  0.4036 -0.7242 -0.5769
   75MOL0     C10015   6.700   2.231  12.334 -1.3487  0.6258  0.6236
   75MOL0     C10016   6.815   2.188  12.270 -0.4697 -0.4204  0.2408
   75MOL0     C10017   6.875   2.260  12.167 -0.1737  0.4571 -1.2348
   75MOL0     C10018   7.006   2.200  12.110 -1.3214  0.0578 -0.1992
   75MOL0     C10019   6.816   2.381  12.133 -0.7270 -0.0796  0.1853
   75MOL0     C10020   6.881   2.479  12.045 -0.3121  0.7914 -0.6166
   75MOL0     O10021   6.869   2.609  12.090 -0.5118  0.3500 -0.5595
   75MOL0     C10022   6.962   2.703  12.052 -0.2401 -0.8644  0.1358
   75MOL0     C10023   6.922   2.835  12.076  0.2528  0.2296 -0.5443
   75MOL0     C10024   7.005   2.942  12.037 -0.1172 -0.0608  0.1812
   75MOL0     C10025   7.125   2.923  11.978  0.0150  0.5981 -0.3160
   75MOL0     O10026   7.202   3.030  11.955 -0.6491  0.0288  0.1218
   75MOL0     C10027   7.199   3.088  11.824  0.5816  1.0829 -0.7878
   75MOL0     C10028   7.184   3.240  11.827  0.3052  0.5112  1.0526
   75MOL0     C10029   7.288   3.309  11.924 -0.4216 -0.2531  0.3021
   75MOL0     C10030   7.275   3.462  11.940 -0.0115  0.2149 -0.3487
   75MOL0     C10031   7.345   3.540  11.823  0.2919 -0.4033 -0.0692
   75MOL0     C10032   7.345   3.697  11.837  0.1120  0.1678  0.1297
   75MOL0     C10033   7.394   3.772  11.713 -0.0998  1.1732 -0.2673
   75MOL0     C10034   7.439   3.917  11.742 -1.0381 -0.0143 -0.8166
   75MOL0    Cl10035   7.308   4.009  11.830 -0.4028  0.5127 -0.4888
   75MOL0     C10036   7.174   2.790  11.959 -0.5373  0.2518  0.6564
   75MOL0     C10037   7.085   2.681  11.987 -0.2305  0.5489 -0.0400
   75MOL0     O10038   6.931   2.434  11.942 -0.2755 -0.3025 -0.3640
   75MOL0     C10039   6.702   2.427  12.199 -0.0431 -0.2802  0.7480
   75MOL0     C10040   6.653   2.359  12.306  1.3079 -0.1842  0.0377
   75MOL0     N10041   6.453   1.701  12.208 -0.3756 -0.2838 -0.3862
   75MOL0     N10042   6.489   1.714  12.089 -0.0816  0.4896  0.0091
   75MOL0     C10043   7.469   1.720  11.333 -0.4569 -0.2891 -0.2933
   75MOL0     C10044   7.551   1.618  11.277  0.6673 -0.2915 -0.2054
   75MOL0     C10045   7.675   1.157  11.209  1.1276 -1.6412 -1.2252
   75MOL0     C10046   7.723   1.165  11.077  0.5389  0.2541  0.5322
   75MOL0     C10047   7.738   1.043  11.002 -0.9866  0.3083 -0.0670
   75MOL0     C10048   7.704   0.924  11.056  0.1305  0.1912 -0.7440
   75MOL0     O10049   7.733   0.813  10.983 -0.4107  0.3891 -0.8924
   75MOL0     C10050   7.612   0.763  10.923  0.4280 -1.9061 -0.5855
   75MOL0     C10051   7.627   0.723  10.780  0.2238 -0.3271 -0.0576
   75MOL0     C10052   7.679   0.820  10.680  0.0752 -0.5168  0.2701
   75MOL0     C10053   7.665   0.771  10.533  0.4298  0.2763  0.2786
   75MOL0     C10054   7.550   0.679  10.492 -1.1288 -0.1964  0.1490
   75MOL0     C10055   7.474   0.596  10.451 -0.1577 -0.0359  0.0380
   75MOL0     C10056   7.666   0.912  11.189 -0.1720 -0.0406 -0.2023
   75MOL0     C10057   7.647   1.030  11.268  0.6938 -1.2579 -0.5432
   75MOL0     H10058   7.452   1.366  11.477  0.0888  0.2897  0.0439
   75MOL0     H10059   7.349   1.544  11.595 -0.7488 -2.8068 -1.3317
   75MOL0     H10060   7.343   1.956  11.418 -1.4714  1.3364 -1.2326
   75MOL0     H10061   7.214   1.846  11.361 -0.1112  1.1757 -0.2383
   75MOL0     H10062   7.210   1.945  11.653  0.0278  2.9688  0.4488
   75MOL0     H10063   7.163   2.055  11.523  0.1120 -0.2971 -0.7318
   75MOL0     H10064   6.959   1.957  11.603  0.9238 -0.0944  2.0949
   75MOL0     H10065   7.000   1.890  11.438  0.5996  2.4281  0.3736
   75MOL0     H10066   6.962   1.683  11.548  1.3840 -1.0276  0.8514
   75MOL0     H10067   7.098   1.710  11.648  0.5869  1.0950  0.4061
   75MOL0     H10068   6.924   1.660  11.775  2.5777 -1.4515 -1.4136
   75MOL0     H10069   6.998   1.816  11.830 -1.2514  1.6056 -1.1792
   75MOL0     H10070   6.800   1.945  11.743  1.0103 -0.7167 -0.3871
   75MOL0     H10071   6.720   1.795  11.704 -1.3191  3.5851 -1.0382
   75MOL0     H10072   6.824   1.872  11.993 -1.7604  2.3256  0.9908
   75MOL0     H10073   6.666   1.908  11.925 -3.0230 -2.6340  0.5915
   75MOL0     H10074   6.799   1.638  11.975  0.4474 -0.4010 -6.1765
   75MOL0     H10075   6.647   1.638  11.891 -2.8712  0.0186  1.3633
   75MOL0     H10076   6.773   1.706  12.250 -1.2101  1.4533 -0.4188
   75MOL0     H10077   6.452   1.681  12.479  0.4777  1.6860  1.9906
   75MOL0     H10078   6.625   1.683  12.506 -0.9542 -0.7297  0.3510
   75MOL0     H10079   6.500   1.883  12.573 -0.2814  4.1814 -1.5646
   75MOL0     H10080   6.474   1.928  12.413 -2.7238 -0.2449  2.7146
   75MOL0     H10081   6.710   1.941  12.347  2.5738  2.1230  0.6258
   75MOL0     H10082   6.758   1.867  12.501 -1.4637 -1.9052  0.5085
   75MOL0     H10083   6.808   2.101  12.547  0.2504  3.0821 -1.4966
   75MOL0     H10084   6.652   2.084  12.629  2.6222  0.0050  1.3562
   75MOL0     H10085   6.864   2.098  12.305  0.4572 -0.2787 -0.6061
   75MOL0     H10086   6.995   2.160  12.008  0.9640  0.4805 -0.6775
   75MOL0     H10087   7.087   2.273  12.117 -0.7264 -0.4615 -1.2978
   75MOL0     H10088   7.044   2.115  12.168 -0.4055  0.7561  0.2490
   75MOL0     H10089   6.823   2.857  12.113  0.0056  0.5385 -1.3664
   75MOL0     H10090   6.978   3.045  12.059  0.2004  0.0073  0.2595
   75MOL0     H10091   7.286   3.056  11.767  0.2841 -3.9125  1.0511
   75MOL0     H10092   7.110   3.053  11.771  1.0699  0.8579 -1.4574
   75MOL0     H10093   7.189   3.271  11.723 -3.4697 -1.1605  0.2086
   75MOL0     H10094   7.087   3.272  11.866  0.6797  3.7811 -0.4114
   75MOL0     H10095   7.386   3.281  11.883 -0.8658 -1.0110 -0.2838
   75MOL0     H10096   7.286   3.261  12.022 -3.7822  2.5178  1.8057
   75MOL0     H10097   7.169   3.487  11.936 -0.4640 -1.3341  0.9740
   75MOL0     H10098   7.320   3.489  12.036  3.6652 -3.6272 -0.7010
   75MOL0     H10099   7.303   3.514  11.726  3.0713 -1.9960 -0.9745
   75MOL0     H10100   7.451   3.513  11.830 -0.1656 -1.8723  2.3239
   75MOL0     H10101   7.244   3.736  11.856 -0.1115  1.4210 -3.0408
   75MOL0     H10102   7.406   3.707  11.927 -0.6950 -1.4641  0.8949
   75MOL0     H10103   7.308   3.772  11.645  0.4524  3.0841 -1.0531
   75MOL0     H10104   7.482   3.725  11.668 -0.4947 -1.8824  1.8746
   75MOL0     H10105   7.457   3.959  11.643  1.8568  1.2086  0.1307
   75MOL0     H10106   7.530   3.926  11.801 -0.2553 -1.8396 -1.6748
   75MOL0     H10107   7.269   2.781  11.907 -1.5660  1.1178 -1.4821
   75MOL0     H10108   7.117   2.578  11.974  0.1090  0.5678  0.5957
   75MOL0     H10109   6.651   2.519  12.171 -0.7124 -0.6743  0.6670
   75MOL0     H10110   6.562   2.394  12.354  1.5335 -0.3133  0.5629
   75MOL0     H10111   7.459   1.819  11.290 -1.3686  1.2853  3.1778
   75MOL0     H10112   7.605   1.657  11.192  3.4393  2.6542  2.6113
   75MOL0     H10113   7.745   1.265  11.041 -0.8298  0.4122  0.0733
   75MOL0     H10114   7.765   1.062  10.898  0.2887  2.1694  0.5546
   75MOL0     H10115   7.569   0.677  10.975 -2.3241 -0.4338 -0.2639
   75MOL0     H10116   7.530   0.835  10.936  0.4125 -1.6442 -2.0185
   75MOL0     H10117   7.523   0.690  10.768 -0.5144  2.5022 -2.7202
   75MOL0     H10118   7.701   0.643  10.780  2.8785  1.7653 -4.6246
   75MOL0     H10119   7.781   0.860  10.690  0.8768 -1.6382 -2.5769
   75MOL0     H10120   7.618   0.909  10.700 -2.1232 -2.0186  0.5665
   75MOL0     H10121   7.758   0.723  10.501  1.5134  1.3402  1.6793
   75MOL0     H10122   7.639   0.865  10.483 -0.4269  2.3591  4.1925
   75MOL0     H10123   7.404   0.522  10.417  0.2135  0.1561 -1.2306
   75MOL0     H10124   7.632   0.819  11.233 -0.2351  0.4716  0.8618
   75MOL0     H10125   7.622   1.032  11.374 -0.0129  4.6610 -0.4984
   76MOL0     O10126   1.905   5.739   0.198  0.3144 -0.6609  0.7672
   76MOL0     C10127   1.790   5.791   0.189 -1.1585  0.4744 -1.0246
   76MOL0     O10128   1.722   5.841   0.295  0.3366 -0.4664  0.3269
   76MOL0     C10129   1.795   5.855   0.414  0.4459  0.3423  0.0424
   76MOL0     C10130   1.768   5.794   0.536  0.0451  0.2789  0.6920
   76MOL0     C10131   1.859   5.813   0.640 -1.0310  0.5283 -0.3897
   76MOL0     C10132   1.971   5.895   0.626 -0.4262  0.3409  0.3747
   76MOL0     O10133   2.052   5.916   0.732  0.6519 -0.2502 -0.6911
   76MOL0     C10134   2.185   5.881   0.694 -1.4066 -0.2241 -0.8180
   76MOL0     C10135   2.284   5.981   0.753  0.0066  0.7061 -0.2309
   76MOL0     C10136   2.427   5.938   0.709  0.3024  0.6984 -0.0458
   76MOL0     C10137   2.546   6.043   0.721 -0.2296  0.6636 -0.2716
   76MOL0     C10138   2.651   6.028   0.620 -0.1703  0.0371  0.9701
   76MOL0     C10139   2.619   6.054   0.480 -0.4581  0.5865  0.3667
   76MOL0     C10140   2.747   6.099   0.398 -0.1651 -0.0074  0.9048
   76MOL0     C10141   2.738   6.051   0.256  0.0751  0.4221 -0.2572
   76MOL0     N10142   2.860   6.079   0.184  0.3787 -0.4176  0.2721
   76MOL0     C10143   2.969   6.012   0.224  0.2553  0.2501  0.3781
   76MOL0     C10144   3.068   6.095   0.185  0.5229 -0.2831 -0.7260
   76MOL0     C10145   3.211   6.048   0.191 -0.0575  0.0418 -0.1672
   76MOL0     C10146   3.283   6.106   0.298 -0.8309  0.2855  0.1500
   76MOL0     C10147   3.224   6.079   0.430  0.0727 -1.3075 -0.2221
   76MOL0     C10148   3.219   5.935   0.473  1.0341 -0.2700  0.2332
   76MOL0     O10149   3.342   5.861   0.482 -0.7118  0.7142 -0.4796
   76MOL0     C10150   3.317   5.740   0.428  0.7425 -0.0746 -0.6567
   76MOL0     C10151   3.248   5.635   0.489  0.1475 -1.1768 -0.1526
   76MOL0     C10152   3.242   5.511   0.434  0.2108  1.2354 -0.4160
   76MOL0     C10153   3.180   5.397   0.510  0.3451  0.2236  0.9254
   76MOL0     C10154   3.307   5.494   0.303 -0.0186 -0.2550 -0.5551
   76MOL0     C10155   3.279   5.370   0.223 -0.3704 -0.4430  0.4453
   76MOL0     O10156   3.205   5.260   0.267  0.0856  0.5339 -0.0130
   76MOL0     C10157   3.235   5.130   0.236  0.0520 -0.4450  0.4915
   76MOL0     C10158   3.325   5.069   0.319  0.3511  0.4269  0.8083
   76MOL0     C10159   3.386   4.949   0.273 -0.8862  0.1443  0.8434
   76MOL0     C10160   3.344   4.890   0.147 -0.9611  0.7791 -0.8413
   76MOL0     O10161   3.375   4.763   0.112 -1.2090 -0.1021 -0.2964
   76MOL0     C10162   3.503   4.717   0.158  1.5481  0.8630  0.7087
   76MOL0     C10163   3.533   4.604   0.067 -0.6131 -0.1077  0.8604
   76MOL0     C10164   3.665   4.542   0.109 -0.2174  1.0135 -0.6925
   76MOL0     C10165   3.657   4.453   0.226  0.2006 -1.2126 -0.2175
   76MOL0     C10166   3.764   4.340   0.238  1.1170 -0.4471  0.6816
   76MOL0     C10167   3.742   4.233   0.133  0.1580 -0.2294  0.4749
   76MOL0     C10168   3.821   4.099   0.167  0.8054 -0.2167  0.2843
   76MOL0     C10169   3.753   3.982   0.088  0.4247 -0.7245 -0.2871
   76MOL0    Cl10170   3.802   3.998  -0.072  0.1271  0.0783  0.3855
   76MOL0     C10171   3.240   4.951   0.078 -0.5180 -0.0057 -0.0771
   76MOL0     C10172   3.200   5.084   0.115  0.1527  0.7521  0.2979
   76MOL0     O10173   3.354   5.368   0.126  0.2890  0.3921 -1.1229
   76MOL0     C10174   3.381   5.592   0.242 -0.8779 -0.1982  0.3335
   76MOL0     C10175   3.376   5.719   0.308  0.0135  0.8126 -0.0014
   76MOL0     N10176   3.016   6.208   0.138  0.6989  0.5863  0.4927
   76MOL0     N10177   2.886   6.196   0.132  0.0287 -0.1416 -0.0699
   76MOL0     C10178   1.983   5.965   0.515  1.8176 -0.8631  0.5989
   76MOL0     C10179   1.904   5.945   0.413  0.2219 -0.2112 -0.6279
   76MOL0     C10180   1.726   5.797   0.055  0.1212 -0.5329 -0.3552
   76MOL0     C10181   1.784   5.757  -0.064  0.4437  0.2760  1.2606
   76MOL0     C10182   1.727   5.778  -0.186  0.1830 -0.3725  1.3117
   76MOL0     C10183   1.601   5.834  -0.195  0.2005 -0.0026 -1.1606
   76MOL0     O10184   1.563   5.851  -0.329  0.6954  0.1636  0.5889
   76MOL0     C10185   1.425   5.897  -0.353 -1.0385  0.4825 -0.1764
   76MOL0     C10186   1.335   5.765  -0.351  0.6717 -0.6054  0.2596
   76MOL0     C10187   1.393   5.630  -0.405  0.2031 -0.1400  0.3455
   76MOL0     C10188   1.437   5.641  -0.550 -0.3695 -0.2648 -0.0471
   76MOL0     C10189   1.329   5.697  -0.640 -0.3588  0.2947 -0.8201
   76MOL0     C10190   1.235   5.760  -0.690  0.1883  0.4491  0.8718
   76MOL0     C10191   1.538   5.868  -0.080  0.1568 -0.3887 -0.2763
   76MOL0     C10192   1.596   5.851   0.045  0.5951 -0.6214 -0.5668
   76MOL0     H10193   1.675   5.737   0.531  1.7053 -2.4972 -1.4334
   76MOL0     H10194   1.860   5.756   0.732  1.2336  1.7262  0.3931
   76MOL0     H10195   2.209   5.788   0.748 -0.6490  1.0982  1.2361
   76MOL0     H10196   2.211   5.872   0.588  2.6170 -4.4905  0.1898
   76MOL0     H10197   2.255   6.077   0.710  0.7232 -0.8577 -4.8436
   76MOL0     H10198   2.282   5.986   0.862 -4.8230  1.3417 -0.1118
   76MOL0     H10199   2.468   5.866   0.780  2.1830 -0.3308 -2.0404
   76MOL0     H10200   2.428   5.896   0.608  0.6632 -2.1618  1.0491
   76MOL0     H10201   2.501   6.141   0.703  1.6838  1.7430  0.5595
   76MOL0     H10202   2.594   6.029   0.818 -2.8811 -0.9671  0.9193
   76MOL0     H10203   2.730   6.099   0.645  1.1123 -0.7881 -0.5339
   76MOL0     H10204   2.696   5.928   0.632 -2.6883 -0.9528  3.0530
   76MOL0     H10205   2.565   5.972   0.432  0.3818 -0.1534  0.6629
   76MOL0     H10206   2.549   6.138   0.475 -1.4862 -0.1682  1.6648
   76MOL0     H10207   2.750   6.209   0.400  0.0205 -0.0216  2.1795
   76MOL0     H10208   2.836   6.060   0.448  0.7576  1.6762  0.6598
   76MOL0     H10209   2.656   6.103   0.205  0.4439  2.1649  0.8325
   76MOL0     H10210   2.715   5.944   0.264  0.8372  0.2853  0.2551
   76MOL0     H10211   2.985   5.910   0.257  0.8134 -0.6753 -2.4316
   76MOL0     H10212   3.211   5.940   0.206  3.3554  0.1950  2.1602
   76MOL0     H10213   3.265   6.062   0.097  0.3501 -1.9590 -0.2614
   76MOL0     H10214   3.292   6.214   0.283 -3.6028  0.7452  1.1504
   76MOL0     H10215   3.387   6.072   0.292 -0.0441  1.6046  3.7092
   76MOL0     H10216   3.123   6.118   0.443  0.4735 -0.6137  0.9473
   76MOL0     H10217   3.288   6.130   0.502 -0.0951 -0.5230 -0.6169
   76MOL0     H10218   3.147   5.885   0.407  0.4421  2.1065 -1.0306
   76MOL0     H10219   3.173   5.948   0.572  0.6149  0.1794 -0.0197
   76MOL0     H10220   3.211   5.656   0.589  1.2034 -1.2287  0.2734
   76MOL0     H10221   3.247   5.310   0.507 -1.8278 -1.5271 -0.8270
   76MOL0     H10222   3.160   5.425   0.614  0.1946 -0.6993  1.1568
   76MOL0     H10223   3.094   5.348   0.463  1.1220 -2.1878  1.8799
   76MOL0     H10224   3.357   5.109   0.415 -3.9855  0.2791  2.5256
   76MOL0     H10225   3.462   4.898   0.332  0.4647 -2.4339 -2.7897
   76MOL0     H10226   3.586   4.788   0.151  1.5474  0.7035 -1.9053
   76MOL0     H10227   3.492   4.676   0.259 -2.2173 -0.1306  0.0523
   76MOL0     H10228   3.447   4.538   0.048 -0.9712  0.8682 -1.1165
   76MOL0     H10229   3.554   4.649  -0.030 -0.9828 -0.3201  0.6784
   76MOL0     H10230   3.743   4.618   0.118  0.2442  0.5493 -0.7537
   76MOL0     H10231   3.694   4.471   0.031 -3.4542 -1.6650  0.3062
   76MOL0     H10232   3.661   4.516   0.315 -2.0235 -0.8560 -0.3108
   76MOL0     H10233   3.555   4.412   0.229 -0.7712  1.1215  0.9675
   76MOL0     H10234   3.752   4.300   0.339 -1.2596 -1.7240 -0.0190
   76MOL0     H10235   3.861   4.390   0.235  1.4448 -0.8391  2.7679
   76MOL0     H10236   3.637   4.205   0.120  1.1356 -3.5808 -1.4469
   76MOL0     H10237   3.774   4.260   0.032 -1.4132  0.2498  0.0827
   76MOL0     H10238   3.816   4.070   0.272 -0.2100  0.5669  0.4707
   76MOL0     H10239   3.923   4.127   0.140 -0.2370  2.3575 -1.3762
   76MOL0     H10240   3.647   3.970   0.108  0.5263 -5.3784 -1.2806
   76MOL0     H10241   3.791   3.888   0.129 -3.6440 -1.6418  1.8970
   76MOL0     H10242   3.204   4.914  -0.017 -2.9464  2.9376 -0.4473
   76MOL0     H10243   3.138   5.142   0.048  2.2654  4.0862  0.9645
   76MOL0     H10244   3.410   5.583   0.138 -1.2543  1.0108  0.1048
   76MOL0     H10245   3.433   5.805   0.273 -0.0711 -0.0833 -2.5455
   76MOL0     H10246   2.060   6.040   0.498  1.5036  0.0743  2.9059
   76MOL0     H10247   1.919   6.005   0.323 -2.9882 -1.8893 -2.4734
   76MOL0     H10248   1.885   5.717  -0.064  0.4510  0.0491 -2.3301
   76MOL0     H10249   1.787   5.769  -0.275  0.0711 -0.5541  1.2547
   76MOL0     H10250   1.395   5.966  -0.273 -2.6242 -0.3866  0.0147
   76MOL0     H10251   1.421   5.961  -0.442 -1.8935  0.0840 -0.4298
   76MOL0     H10252   1.244   5.786  -0.408 -0.4116 -3.1701  0.8808
   76MOL0     H10253   1.304   5.749  -0.247  1.4145 -2.6924  0.2132
   76MOL0     H10254   1.320   5.550  -0.389 -0.2296  0.3593  0.9149
   76MOL0     H10255   1.481   5.598  -0.350 -1.4780 -1.2934  2.5357
   76MOL0     H10256   1.456   5.538  -0.581 -0.1189 -0.3270  0.3101
   76MOL0     H10257   1.535   5.689  -0.548 -0.2892 -0.4571  0.7762
   76MOL0     H10258   1.161   5.818  -0.741 -0.7106  0.8827  2.5936
   76MOL0     H10259   1.432   5.890  -0.088  0.0369 -1.1415 -0.8475
   76MOL0     H10260   1.549   5.896   0.132  0.0528 -0.8188 -0.7481
   77MOL0     O10261   4.474   8.469   7.516 -0.4227  0.3024 -0.4233
   77MOL0     C10262   4.487   8.351   7.550 -0.1162  0.3511 -0.6639
   77MOL0     O10263   4.393   8.255   7.549  0.3019 -0.3931 -0.5422
   77MOL0     C10264   4.263   8.287   7.511  0.0724 -0.2717 -1.2319
   77MOL0     C10265   4.151   8.266   7.590  1.0036 -0.1398 -0.3122
   77MOL0     C10266   4.024   8.283   7.541  0.6216 -1.6580 -0.6406
   77MOL0     C10267   4.002   8.328   7.417 -0.2131 -0.0516  0.7114
   77MOL0     O10268   3.868   8.330   7.382 -0.3039  0.2394  0.3926
   77MOL0     C10269   3.850   8.329   7.236 -0.2387 -0.6148  0.3386
   77MOL0     C10270   3.701   8.345   7.186 -0.4058  0.6176  0.1213
   77MOL0     C10271   3.650   8.485   7.228  0.1022  0.7213  0.0702
   77MOL0     C10272   3.503   8.508   7.178 -0.5537  0.2976  0.2170
   77MOL0     C10273   3.428   8.637   7.236 -0.5149 -0.0168  0.8797
   77MOL0     C10274   3.344   8.594   7.358  0.7982 -0.2844  0.0799
   77MOL0     C10275   3.335   8.715   7.456  1.2078  0.1365 -0.1614
   77MOL0     C10276   3.300   8.651   7.592 -0.5047 -0.2392  0.8240
   77MOL0     N10277   3.233   8.752   7.659 -1.1744 -0.1285 -0.4814
   77MOL0     C10278   3.104   8.796   7.633  0.1457 -0.1611  0.3956
   77MOL0     C10279   3.078   8.887   7.728 -0.9963  0.0077  0.1070
   77MOL0     C10280   2.957   8.965   7.763 -0.4048 -0.9540 -0.7830
   77MOL0     C10281   2.959   9.035   7.903 -0.5359  0.3492 -0.0151
   77MOL0     C10282   2.986   8.935   8.024 -0.9058 -1.1042  0.0247
   77MOL0     C10283   2.966   9.021   8.153  0.3472 -0.0133 -0.5726
   77MOL0     O10284   2.833   8.998   8.187  0.3719 -0.2321  0.4355
   77MOL0     C10285   2.799   8.875   8.256 -0.8826  0.3742  0.4804
   77MOL0     C10286   2.678   8.846   8.311 -0.0336 -0.1919  0.4865
   77MOL0     C10287   2.650   8.726   8.375  1.1558  0.0496 -0.1860
   77MOL0     C10288   2.497   8.695   8.409 -0.7610 -0.3978  0.1745
   77MOL0     C10289   2.747   8.623   8.387  1.0098  0.1950 -0.8811
   77MOL0     C10290   2.727   8.487   8.448  0.3350  0.5631  0.4616
   77MOL0     O10291   2.847   8.423   8.480  0.3226  0.2286  0.5327
   77MOL0     C10292   2.853   8.304   8.551  0.0339  0.0944  0.7125
   77MOL0     C10293   2.941   8.203   8.510 -0.1111 -0.1348  0.4721
   77MOL0     C10294   2.972   8.093   8.600  1.1281  1.4050 -0.8226
   77MOL0     C10295   2.903   8.092   8.723 -0.4956  0.3258  0.1649
   77MOL0     O10296   2.944   8.000   8.808  0.5999 -0.8710 -0.3953
   77MOL0     C10297   2.956   8.033   8.942  0.8326 -0.3246 -1.4391
   77MOL0     C10298   3.000   7.906   9.021 -0.5407 -0.4262  0.1033
   77MOL0     C10299   3.151   7.892   8.987  0.1676  0.8521  0.3338
   77MOL0     C10300   3.205   7.746   9.001 -0.3715 -0.5539  0.9759
   77MOL0     C10301   3.357   7.742   8.978  0.2230 -0.2843 -0.1531
   77MOL0     C10302   3.387   7.752   8.824 -0.0839  0.3046 -0.3056
   77MOL0     C10303   3.356   7.615   8.758 -0.6121  0.3860  0.5616
   77MOL0     C10304   3.423   7.602   8.623  0.2535 -0.2403 -0.8275
   77MOL0    Cl10305   3.410   7.743   8.519  0.1374  0.0237 -0.3897
   77MOL0     C10306   2.811   8.194   8.751  0.7283  1.1648  0.1593
   77MOL0     C10307   2.781   8.296   8.664 -0.2385 -0.6355  1.0612
   77MOL0     O10308   2.613   8.450   8.473 -0.0281 -0.0368 -0.1422
   77MOL0     C10309   2.873   8.652   8.346 -0.6171  0.2342  0.0768
   77MOL0     C10310   2.899   8.770   8.274 -0.6197  0.3448 -0.1941
   77MOL0     N10311   3.193   8.899   7.810 -0.9572  0.1734 -0.5004
   77MOL0     N10312   3.284   8.835   7.751  0.2172 -0.6527 -0.3901
   77MOL0     C10313   4.115   8.349   7.333  0.0706 -0.2303 -0.0144
   77MOL0     C10314   4.246   8.330   7.383  0.6270  0.1249 -0.3860
   77MOL0     C10315   4.622   8.291   7.534 -0.0610  0.5075  0.7197
   77MOL0     C10316   4.657   8.161   7.579 -0.8700  0.8905  0.5947
   77MOL0     C10317   4.789   8.123   7.572  0.0829  0.5432 -0.5359
   77MOL0     C10318   4.890   8.196   7.517  0.3604 -0.0052  0.2028
   77MOL0     O10319   5.023   8.161   7.523  0.5756 -0.5502  0.1694
   77MOL0     C10320   5.076   8.125   7.405  0.4701 -0.6864  0.4673
   77MOL0     C10321   5.228   8.128   7.407  0.3822  0.3628 -0.2328
   77MOL0     C10322   5.297   8.246   7.479 -0.4985  1.1221  0.0170
   77MOL0     C10323   5.261   8.382   7.444 -0.1069  0.6679  0.5111
   77MOL0     C10324   5.236   8.409   7.296 -0.2605 -0.4810 -0.5780
   77MOL0     C10325   5.233   8.427   7.176 -1.7068 -0.6485  1.6704
   77MOL0     C10326   4.861   8.323   7.480 -1.0602 -0.3935  0.8504
   77MOL0     C10327   4.730   8.371   7.488  0.5726 -0.2542  0.2415
   77MOL0     H10328   4.168   8.212   7.682 -2.4014 -3.8550 -1.5670
   77MOL0     H10329   3.947   8.263   7.615 -1.5664  2.2844 -1.5830
   77MOL0     H10330   3.897   8.414   7.187 -1.2612  0.4938  1.2212
   77MOL0     H10331   3.895   8.239   7.193  0.3609 -1.0380  1.7799
   77MOL0     H10332   3.685   8.339   7.078 -2.6905  1.3471  0.3558
   77MOL0     H10333   3.632   8.272   7.229  0.3192 -0.1042  0.0779
   77MOL0     H10334   3.654   8.497   7.337 -1.7953 -2.2060  0.5805
   77MOL0     H10335   3.710   8.565   7.185  0.0020 -0.1308 -1.7257
   77MOL0     H10336   3.502   8.519   7.069 -1.5667  0.9923  0.2788
   77MOL0     H10337   3.441   8.421   7.202 -1.3326  1.7236  4.1364
   77MOL0     H10338   3.504   8.712   7.259 -0.4328  0.5172 -0.9272
   77MOL0     H10339   3.363   8.674   7.156  2.4536 -0.4563 -1.9389
   77MOL0     H10340   3.244   8.562   7.326  0.4310  2.4554 -1.8555
   77MOL0     H10341   3.397   8.513   7.409  0.6665 -0.0836  0.5347
   77MOL0     H10342   3.425   8.776   7.468  0.6982  0.3523  6.1095
   77MOL0     H10343   3.253   8.778   7.419  1.0304 -0.7821 -1.3928
   77MOL0     H10344   3.387   8.614   7.648 -1.0355 -0.5934  1.4180
   77MOL0     H10345   3.237   8.562   7.581 -2.0199  0.9085 -0.0364
   77MOL0     H10346   3.044   8.758   7.551 -0.4947  0.9028  0.3590
   77MOL0     H10347   2.953   9.044   7.688 -1.4163 -0.0612  0.1566
   77MOL0     H10348   2.864   8.907   7.761 -0.6414 -0.6703  0.4679
   77MOL0     H10349   2.870   9.095   7.925  0.2727  2.4387 -1.9719
   77MOL0     H10350   3.034   9.115   7.900 -0.4177  0.2048 -1.2049
   77MOL0     H10351   3.090   8.904   8.018 -0.0642  1.5465 -0.5078
   77MOL0     H10352   2.922   8.850   7.999 -2.0220 -0.2427 -0.1317
   77MOL0     H10353   2.975   9.128   8.136 -0.0029  0.3380  1.2899
   77MOL0     H10354   3.039   9.000   8.232 -0.6054 -2.4216 -0.2472
   77MOL0     H10355   2.613   8.929   8.283  4.1147  2.3695 -2.6787
   77MOL0     H10356   2.442   8.786   8.386 -0.2667 -0.5759 -1.9786
   77MOL0     H10357   2.471   8.614   8.341  0.2022  1.1099 -2.1090
   77MOL0     H10358   2.474   8.667   8.512 -2.0384  2.5182  0.7952
   77MOL0     H10359   2.988   8.210   8.412  1.2641  0.6800  1.1500
   77MOL0     H10360   3.027   8.008   8.561  0.6188  0.8889 -0.4287
   77MOL0     H10361   3.025   8.114   8.969  3.0843 -2.2855 -0.9275
   77MOL0     H10362   2.862   8.071   8.982  1.6767  0.6265 -0.2812
   77MOL0     H10363   2.989   7.943   9.123 -1.2662  0.9510 -0.4519
   77MOL0     H10364   2.945   7.814   9.002  2.8483 -2.5793 -0.2682
   77MOL0     H10365   3.211   7.965   9.042 -3.1008  3.2314  1.0799
   77MOL0     H10366   3.168   7.907   8.880  2.8647 -1.1543  0.3784
   77MOL0     H10367   3.183   7.727   9.106 -1.6261  4.3641  1.8670
   77MOL0     H10368   3.153   7.684   8.927 -1.5458  1.1965  0.2666
   77MOL0     H10369   3.396   7.649   9.020  0.7734  0.5975  1.3836
   77MOL0     H10370   3.407   7.824   9.030  1.1847  1.3886 -3.4327
   77MOL0     H10371   3.330   7.832   8.775  1.9459  1.7560 -0.4504
   77MOL0     H10372   3.491   7.781   8.808  0.6384 -0.0294  3.1005
   77MOL0     H10373   3.251   7.586   8.748 -1.4072  2.8250  1.0576
   77MOL0     H10374   3.410   7.544   8.821  1.8408  0.5972 -1.1842
   77MOL0     H10375   3.393   7.514   8.566 -0.4201  0.3253 -1.3803
   77MOL0     H10376   3.528   7.583   8.644 -0.0315 -0.4671  0.4998
   77MOL0     H10377   2.763   8.192   8.848  2.3858 -1.1356  1.0208
   77MOL0     H10378   2.718   8.378   8.695 -1.1703 -0.6875 -0.5942
   77MOL0     H10379   2.945   8.570   8.344  0.3653  1.0843 -1.4773
   77MOL0     H10380   3.005   8.787   8.254 -0.6059  0.2721 -0.1842
   77MOL0     H10381   4.107   8.372   7.228 -0.7257  1.4445  0.3769
   77MOL0     H10382   4.331   8.340   7.315 -0.2195  0.2105 -1.4505
   77MOL0     H10383   4.580   8.095   7.620  1.4131 -0.5785  2.9002
   77MOL0     H10384   4.808   8.026   7.617 -3.2472 -0.0548 -0.1726
   77MOL0     H10385   5.041   8.029   7.369  2.0584 -2.3141  2.9572
   77MOL0     H10386   5.031   8.189   7.329 -2.1996 -1.2258  1.5026
   77MOL0     H10387   5.272   8.119   7.307  2.9039  1.6277  0.7053
   77MOL0     H10388   5.260   8.040   7.463 -0.8749  0.5130  0.7775
   77MOL0     H10389   5.405   8.249   7.462 -0.1029  1.5715  2.2311
   77MOL0     H10390   5.275   8.234   7.585 -1.0546  0.7746 -0.1355
   77MOL0     H10391   5.329   8.456   7.488  1.2615 -0.4991  0.4333
   77MOL0     H10392   5.165   8.402   7.492  1.7375  6.2157  2.6922
   77MOL0     H10393   5.213   8.458   7.076  0.1412 -0.2095  1.4067
   77MOL0     H10394   4.931   8.395   7.438 -2.0412  0.4530  0.6192
   77MOL0     H10395   4.712   8.461   7.429 -3.9040 -1.3185 -0.3901
   78MOL0     O10396   5.019   1.242   8.123  0.8597  0.5577  0.3204
   78MOL0     C10397   5.121   1.256   8.178  0.3102 -0.9364  0.2258
   78MOL0     O10398   5.144   1.215   8.305 -0.6382  0.2996 -0.3559
   78MOL0     C10399   5.042   1.146   8.357  0.0625  0.3669 -0.3973
   78MOL0     C10400   5.031   1.008   8.346  0.3459 -0.0711 -0.5276
   78MOL0     C10401   4.943   0.932   8.423  0.5265  0.3179 -0.0961
   78MOL0     C10402   4.857   1.005   8.511  0.1710 -0.3102  0.7119
   78MOL0     O10403   4.757   0.937   8.574 -0.3323  0.1203 -0.1279
   78MOL0     C10404   4.767   0.919   8.718 -0.7040 -0.3908  0.4662
   78MOL0     C10405   4.628   0.865   8.772 -0.5968 -0.3541 -0.5396
   78MOL0     C10406   4.613   0.716   8.758 -0.1720  0.0086 -1.1610
   78MOL0     C10407   4.576   0.666   8.618  0.0510 -0.3554 -0.1374
   78MOL0     C10408   4.578   0.510   8.620 -1.1291 -0.5380 -0.1743
   78MOL0     C10409   4.457   0.449   8.674 -0.4422  0.4834  0.1235
   78MOL0     C10410   4.427   0.311   8.613  0.5764  0.9789 -0.2170
   78MOL0     C10411   4.326   0.221   8.690  0.8019 -0.4981 -0.8013
   78MOL0     N10412   4.203   0.293   8.739  0.5235 -0.1515  0.6606
   78MOL0     C10413   4.205   0.371   8.859  0.2262 -0.5969  0.7154
   78MOL0     C10414   4.100   0.456   8.842  0.6030  0.6888 -1.0749
   78MOL0     C10415   4.047   0.542   8.953 -0.3418  0.8316 -0.2422
   78MOL0     C10416   3.932   0.626   8.897 -0.8929  0.1876  0.0273
   78MOL0     C10417   3.994   0.744   8.816 -0.0825  0.0848  0.3660
   78MOL0     C10418   3.897   0.833   8.740 -0.5371 -0.1247 -0.4826
   78MOL0     O10419   3.954   0.958   8.703 -0.8965 -0.0348  0.1294
   78MOL0     C10420   3.858   1.018   8.627  0.2072  0.3740 -0.6563
   78MOL0     C10421   3.859   0.999   8.487  0.2947  0.5035 -1.0806
   78MOL0     C10422   3.762   1.057   8.400  0.3880  0.2901 -1.0490
   78MOL0     C10423   3.775   1.035   8.256  0.6546  1.3936 -0.1863
   78MOL0     C10424   3.658   1.139   8.458  0.4982  0.2657  0.1037
   78MOL0     C10425   3.544   1.199   8.386  0.2929  0.9085  0.3573
   78MOL0     O10426   3.493   1.312   8.449  0.1341 -0.0800 -0.0251
   78MOL0     C10427   3.416   1.402   8.369  0.2735  0.2404  0.5094
   78MOL0     C10428   3.277   1.382   8.341 -0.5625  0.3754 -0.3881
   78MOL0     C10429   3.215   1.464   8.240 -0.5331  0.6471 -0.6424
   78MOL0     C10430   3.274   1.572   8.174 -0.2752  1.2772  0.1656
   78MOL0     O10431   3.203   1.665   8.106  0.6291  0.6231 -0.6931
   78MOL0     C10432   3.268   1.767   8.030 -0.2634 -1.1137 -1.0621
   78MOL0     C10433   3.152   1.859   7.969 -0.5414 -0.6604  0.9576
   78MOL0     C10434   3.212   1.932   7.835  0.2509  0.6377  0.1061
   78MOL0     C10435   3.140   1.887   7.703  0.2297  0.3574  0.5732
   78MOL0     C10436   3.216   1.946   7.582 -0.4537 -0.4144  0.5580
   78MOL0     C10437   3.134   1.923   7.453 -0.0295 -0.5038  0.0747
   78MOL0     C10438   3.223   1.958   7.333  0.2890  0.0852  0.4648
   78MOL0     C10439   3.128   1.985   7.214 -0.8299  0.5954 -0.1014
   78MOL0    Cl10440   3.026   1.835   7.178  0.0695  0.2758 -0.0668
   78MOL0     C10441   3.413   1.592   8.206  0.1178  0.2064 -0.5749
   78MOL0     C10442   3.476   1.505   8.307  0.0757 -0.7782  0.1355
   78MOL0     O10443   3.507   1.160   8.274 -0.6347 -1.1055  0.0783
   78MOL0     C10444   3.667   1.164   8.599 -0.7223 -0.0838  0.1680
   78MOL0     C10445   3.761   1.106   8.680 -0.9376 -0.3579 -0.7676
   78MOL0     N10446   4.024   0.415   8.730  0.3554  0.1676 -0.0232
   78MOL0     N10447   4.098   0.328   8.667  0.0338  0.5488  0.6999
   78MOL0     C10448   4.859   1.140   8.519  0.0483  0.5819  0.3034
   78MOL0     C10449   4.955   1.213   8.447 -0.6240 -1.0554 -0.0254
   78MOL0     C10450   5.219   1.346   8.101 -0.6118  1.0773 -1.1957
   78MOL0     C10451   5.176   1.403   7.980 -1.4972 -0.5762  0.4296
   78MOL0     C10452   5.261   1.490   7.918  0.4509  0.4384 -0.6923
   78MOL0     C10453   5.385   1.519   7.967 -0.5389  0.2268 -0.3430
   78MOL0     O10454   5.467   1.607   7.911 -0.7453  0.7377  0.1952
   78MOL0     C10455   5.452   1.648   7.770  0.4583 -0.1139  0.7940
   78MOL0     C10456   5.371   1.771   7.774 -0.1232  0.0762 -0.1608
   78MOL0     C10457   5.362   1.848   7.636 -1.1133  0.5822 -0.1553
   78MOL0     C10458   5.308   1.992   7.630  0.7680  0.6253 -0.5272
   78MOL0     C10459   5.361   2.064   7.504 -0.0774 -0.4937 -1.1317
   78MOL0     C10460   5.397   2.137   7.411 -0.7487 -0.8606  0.8829
   78MOL0     C10461   5.427   1.444   8.065  0.6194 -0.3915  0.0517
   78MOL0     C10462   5.349   1.371   8.147  0.6516  0.3157  0.1978
   78MOL0     H10463   5.094   0.942   8.287  1.2268 -0.1416  0.4702
   78MOL0     H10464   4.942   0.823   8.419  0.7756 -0.0576  4.5289
   78MOL0     H10465   4.856   0.869   8.758 -0.1519 -0.9011 -1.3281
   78MOL0     H10466   4.792   1.016   8.762  0.5265 -0.0464 -0.9312
   78MOL0     H10467   4.613   0.885   8.879  2.4579  0.0694 -0.0966
   78MOL0     H10468   4.560   0.931   8.718  0.2699 -0.3713 -1.6720
   78MOL0     H10469   4.700   0.664   8.798 -1.6430 -1.4276  0.3777
   78MOL0     H10470   4.530   0.700   8.828  2.1316  2.6152  2.4879
   78MOL0     H10471   4.478   0.701   8.583 -0.7219 -2.6015 -0.4439
   78MOL0     H10472   4.647   0.691   8.539 -0.1084 -3.2272 -1.3231
   78MOL0     H10473   4.598   0.479   8.517 -0.9402  0.3816 -0.4208
   78MOL0     H10474   4.674   0.487   8.669 -1.4482 -0.6891  0.3864
   78MOL0     H10475   4.472   0.424   8.779 -1.1601 -0.5647 -0.0116
   78MOL0     H10476   4.376   0.521   8.662  0.9152  2.2647  1.1832
   78MOL0     H10477   4.379   0.326   8.516  1.7721  0.3419 -0.9423
   78MOL0     H10478   4.511   0.244   8.590  1.1463  0.8747  1.9689
   78MOL0     H10479   4.373   0.186   8.782 -1.9101  0.5396  1.0962
   78MOL0     H10480   4.296   0.143   8.620 -3.1813  1.7946 -1.9563
   78MOL0     H10481   4.290   0.383   8.926  0.4846  1.5644  0.0667
   78MOL0     H10482   4.014   0.488   9.042 -2.3925  0.6117 -1.0686
   78MOL0     H10483   4.128   0.612   8.978  0.1413 -0.4264  1.9281
   78MOL0     H10484   3.884   0.687   8.974  2.9605  1.8619  1.3442
   78MOL0     H10485   3.858   0.558   8.855 -0.4516 -0.2234 -0.1046
   78MOL0     H10486   4.064   0.699   8.745 -0.0844 -0.0096  0.4238
   78MOL0     H10487   4.037   0.812   8.890  1.4539  0.0452 -0.4518
   78MOL0     H10488   3.812   0.871   8.797  2.1201  1.9193  2.5346
   78MOL0     H10489   3.862   0.776   8.654  0.5403  0.1859 -1.1553
   78MOL0     H10490   3.932   0.925   8.456  2.0451 -0.4787  4.4257
   78MOL0     H10491   3.699   0.959   8.234  1.0799  0.1010  2.4470
   78MOL0     H10492   3.772   1.126   8.194 -0.1458  0.3824 -1.7013
   78MOL0     H10493   3.869   0.982   8.240 -0.8693 -2.3558  2.1476
   78MOL0     H10494   3.214   1.304   8.383  0.2297 -0.2522 -0.3294
   78MOL0     H10495   3.111   1.438   8.224  0.4640 -2.3219 -3.4695
   78MOL0     H10496   3.326   1.842   8.085 -0.4321  0.3437 -2.7577
   78MOL0     H10497   3.328   1.719   7.952 -1.5553  0.7858 -3.4022
   78MOL0     H10498   3.063   1.802   7.941 -0.0447 -1.8262  1.6514
   78MOL0     H10499   3.126   1.940   8.037 -1.5308 -0.7152  0.6530
   78MOL0     H10500   3.321   1.921   7.837  0.5222  2.9354  0.5113
   78MOL0     H10501   3.191   2.040   7.836  1.0999  1.0495 -4.2031
   78MOL0     H10502   3.125   1.780   7.684  0.6812  0.7245 -2.2257
   78MOL0     H10503   3.043   1.937   7.694 -0.4555 -0.9802  0.2763
   78MOL0     H10504   3.312   1.893   7.574  0.6263  1.1874  2.0407
   78MOL0     H10505   3.239   2.052   7.596 -1.9582  0.0964 -0.5972
   78MOL0     H10506   3.099   1.819   7.446 -1.8505  0.0852  0.1542
   78MOL0     H10507   3.044   1.983   7.462  0.8999  0.7261  1.5246
   78MOL0     H10508   3.292   1.879   7.304 -2.5009 -2.4963  0.3987
   78MOL0     H10509   3.277   2.054   7.334  0.3667  0.1304 -2.0124
   78MOL0     H10510   3.193   2.009   7.129 -0.5625 -1.2698 -0.4654
   78MOL0     H10511   3.058   2.066   7.237 -2.4712  0.2525 -3.2760
   78MOL0     H10512   3.479   1.671   8.170  4.1080 -2.8877 -0.8458
   78MOL0     H10513   3.582   1.522   8.325 -0.3099 -1.4112  3.5151
   78MOL0     H10514   3.588   1.221   8.646  2.2046  2.3929  2.5099
   78MOL0     H10515   3.766   1.121   8.787  6.8437  0.2377 -0.6487
   78MOL0     H10516   4.801   1.186   8.598  1.9370  2.3407  0.7600
   78MOL0     H10517   4.958   1.320   8.465  1.0948 -1.0596 -0.1000
   78MOL0     H10518   5.084   1.405   7.924 -0.4184 -2.5468 -1.6052
   78MOL0     H10519   5.228   1.537   7.826  0.3932 -1.6634 -1.7861
   78MOL0     H10520   5.545   1.674   7.717  0.9042 -0.3211  1.4597
   78MOL0     H10521   5.404   1.574   7.706  1.0541  2.6419 -3.1732
   78MOL0     H10522   5.413   1.846   7.842  0.8984  0.9704 -1.7041
   78MOL0     H10523   5.271   1.747   7.810  0.5989 -2.4366  0.3442
   78MOL0     H10524   5.298   1.777   7.582  2.0724 -0.7508 -2.4676
   78MOL0     H10525   5.458   1.841   7.585 -1.1617  1.6711 -0.4352
   78MOL0     H10526   5.356   2.045   7.713  0.0433  0.8478 -0.2507
   78MOL0     H10527   5.199   1.990   7.625  0.8402 -1.1348 -2.8698
   78MOL0     H10528   5.427   2.194   7.326 -2.3147 -0.3197  0.6565
   78MOL0     H10529   5.529   1.457   8.101  1.2216  0.6069 -1.8428
   78MOL0     H10530   5.384   1.311   8.231 -0.2699 -3.2666 -1.7874
   79MOL0     O10531   5.381   6.212   3.425 -0.2974 -0.1775 -0.3674
   79MOL0     C10532   5.447   6.256   3.525 -0.0534  0.3973  0.8686
   79MOL0     O10533   5.396   6.333   3.620  1.0650 -0.3589 -0.3321
   79MOL0     C10534   5.262   6.373   3.610 -0.4499 -1.4315 -0.1579
   79MOL0     C10535   5.212   6.429   3.494 -0.4308  0.9106  0.1758
   79MOL0     C10536   5.082   6.477   3.495  0.1882 -0.0293 -0.6247
   79MOL0     C10537   4.996   6.444   3.606  0.0427  0.0023  0.5674
   79MOL0     O10538   4.859   6.470   3.585 -0.2501 -0.4183  0.1706
   79MOL0     C10539   4.772   6.390   3.667 -0.5476 -0.2860  0.5612
   79MOL0     C10540   4.623   6.402   3.606  0.0449 -0.3118 -0.3059
   79MOL0     C10541   4.599   6.293   3.501  0.2522 -0.3977 -0.1329
   79MOL0     C10542   4.656   6.333   3.371  0.6976  0.4765 -0.0899
   79MOL0     C10543   4.636   6.237   3.246 -0.0535  0.1088 -0.1005
   79MOL0     C10544   4.731   6.125   3.255 -0.3072 -0.2117 -0.1153
   79MOL0     C10545   4.697   6.020   3.145  0.7388  0.5432 -0.3236
   79MOL0     C10546   4.601   6.051   3.028 -0.0546 -0.8034  0.5842
   79MOL0     N10547   4.576   5.943   2.933 -0.2565 -0.2526 -0.7550
   79MOL0     C10548   4.457   5.880   2.910  0.2409 -0.3498 -0.1633
   79MOL0     C10549   4.485   5.789   2.817 -0.9690 -0.1077  0.1370
   79MOL0     C10550   4.382   5.683   2.763  0.7294  0.8018  0.3205
   79MOL0     C10551   4.267   5.738   2.686 -0.2876  0.1521  0.1824
   79MOL0     C10552   4.296   5.823   2.556 -0.2931 -0.2847 -0.5425
   79MOL0     C10553   4.363   5.749   2.443  0.0809  0.5491  0.3310
   79MOL0     O10554   4.422   5.843   2.343  0.2972  0.3236 -1.3498
   79MOL0     C10555   4.550   5.896   2.355  0.4946 -0.3375  0.6883
   79MOL0     C10556   4.610   5.921   2.235 -0.5580  0.4115 -0.6708
   79MOL0     C10557   4.723   5.997   2.230 -0.0209  0.0445 -0.2869
   79MOL0     C10558   4.762   6.035   2.092 -0.6010  0.6154  0.0859
   79MOL0     C10559   4.791   6.041   2.347 -0.2403  0.4379 -0.4716
   79MOL0     C10560   4.905   6.119   2.345 -0.4691 -0.9623  0.0669
   79MOL0     O10561   4.998   6.125   2.235  0.2562 -0.9428 -0.2361
   79MOL0     C10562   5.102   6.213   2.223  0.4498 -0.6561  0.6510
   79MOL0     C10563   5.103   6.334   2.291 -0.1658 -0.4738  0.0771
   79MOL0     C10564   5.212   6.422   2.279 -0.1622 -0.1348  0.8756
   79MOL0     C10565   5.315   6.391   2.185 -0.8049  0.5029 -0.2629
   79MOL0     O10566   5.429   6.470   2.146  0.9650 -0.3740 -0.0189
   79MOL0     C10567   5.472   6.574   2.239 -0.2856  0.4376  0.7235
   79MOL0     C10568   5.574   6.517   2.345  0.1524  0.0605  0.5982
   79MOL0     C10569   5.688   6.444   2.266  0.7110  0.3742  0.7028
   79MOL0     C10570   5.777   6.380   2.377  0.2745 -0.5180  0.2593
   79MOL0     C10571   5.912   6.356   2.322  0.6160 -0.4031  0.0321
   79MOL0     C10572   6.020   6.301   2.429 -0.3662 -0.0136  0.3757
   79MOL0     C10573   5.954   6.197   2.527 -0.7733 -0.5547  0.1143
   79MOL0     C10574   6.057   6.120   2.605  0.8395 -0.7942 -0.7150
   79MOL0    Cl10575   5.963   6.026   2.738  0.2681 -0.1457  0.0571
   79MOL0     C10576   5.309   6.273   2.114  0.9572  0.3804 -0.4214
   79MOL0     C10577   5.203   6.189   2.132  1.1454 -0.2107  0.1850
   79MOL0     O10578   4.925   6.169   2.453  0.0212 -0.7542  0.1759
   79MOL0     C10579   4.735   6.001   2.475 -0.1086  0.9113  0.5450
   79MOL0     C10580   4.618   5.927   2.475 -1.0302  0.2579 -0.6200
   79MOL0     N10581   4.629   5.783   2.801 -0.0288  0.4837 -0.0237
   79MOL0     N10582   4.677   5.878   2.871  0.3002  0.1057  0.9549
   79MOL0     C10583   5.049   6.376   3.719 -0.4857 -0.5759  0.2663
   79MOL0     C10584   5.184   6.344   3.728  0.8839  1.5968  0.2489
   79MOL0     C10585   5.575   6.204   3.557  0.1404  0.1316  0.3067
   79MOL0     C10586   5.682   6.287   3.591 -0.5257 -0.9783  0.6745
   79MOL0     C10587   5.803   6.228   3.640 -0.0900  0.3433 -0.4148
   79MOL0     C10588   5.813   6.091   3.646 -0.5493  0.6690  1.2790
   79MOL0     O10589   5.936   6.046   3.676  0.9379  0.7966  0.2952
   79MOL0     C10590   5.955   5.901   3.686 -0.1848 -0.5544  0.3638
   79MOL0     C10591   6.100   5.878   3.730 -0.9374 -0.4472 -0.7902
   79MOL0     C10592   6.125   5.936   3.866  1.0105  0.5392  0.6751
   79MOL0     C10593   6.270   5.926   3.890 -0.1015  0.0911  0.0554
   79MOL0     C10594   6.322   5.989   4.011 -0.0198  0.3803 -0.0757
   79MOL0     C10595   6.355   6.054   4.102  0.1037 -0.5377 -0.1810
   79MOL0     C10596   5.704   6.007   3.599 -0.2872  0.3144 -0.4402
   79MOL0     C10597   5.587   6.061   3.553 -0.4165 -0.7078  0.4832
   79MOL0     H10598   5.272   6.434   3.403  0.5670 -0.9345  0.6841
   79MOL0     H10599   5.039   6.532   3.412 -4.0619  0.9150  1.8749
   79MOL0     H10600   4.790   6.284   3.650  0.3051 -0.0712  0.0498
   79MOL0     H10601   4.780   6.436   3.766  0.2710  5.6272 -1.7988
   79MOL0     H10602   4.547   6.380   3.682  2.9624 -1.2544  2.5693
   79MOL0     H10603   4.603   6.502   3.567 -0.9839 -0.3643  0.0702
   79MOL0     H10604   4.635   6.198   3.540 -2.4596 -0.8076  1.6428
   79MOL0     H10605   4.493   6.276   3.481  0.7380 -0.7969 -2.5812
   79MOL0     H10606   4.608   6.426   3.337 -1.2127 -0.7438 -0.9225
   79MOL0     H10607   4.760   6.351   3.396  0.2088  1.7676  1.1630
   79MOL0     H10608   4.532   6.204   3.258  0.1990 -1.2799 -1.4505
   79MOL0     H10609   4.647   6.297   3.155 -2.3118  1.9065  0.7065
   79MOL0     H10610   4.824   6.178   3.230 -2.4412  2.0180 -4.5178
   79MOL0     H10611   4.727   6.077   3.353 -2.8517 -3.5041 -1.6552
   79MOL0     H10612   4.781   5.971   3.096 -1.0509 -2.4543 -0.6425
   79MOL0     H10613   4.652   5.942   3.207 -0.5243 -2.3323 -4.4544
   79MOL0     H10614   4.651   6.129   2.969 -2.7775  0.7740  0.2149
   79MOL0     H10615   4.505   6.098   3.048 -0.9812 -0.6613 -3.3817
   79MOL0     H10616   4.364   5.909   2.958  0.5309  0.7029 -0.2082
   79MOL0     H10617   4.434   5.605   2.707  0.6542 -1.1603  2.7834
   79MOL0     H10618   4.353   5.611   2.840  1.3040  1.5864  1.3059
   79MOL0     H10619   4.212   5.796   2.760  1.2684 -1.7074  3.0165
   79MOL0     H10620   4.201   5.654   2.663 -0.2696  0.0795  0.3892
   79MOL0     H10621   4.360   5.907   2.582 -2.2592  1.2473 -0.3897
   79MOL0     H10622   4.209   5.870   2.510  0.7102 -0.3947 -2.6550
   79MOL0     H10623   4.291   5.690   2.387 -0.3945  1.0889  0.3575
   79MOL0     H10624   4.441   5.683   2.482 -0.1522 -1.1727 -1.9384
   79MOL0     H10625   4.561   5.882   2.146 -2.9857  1.6836  0.0215
   79MOL0     H10626   4.670   6.051   2.036 -1.3765 -0.3014  1.0607
   79MOL0     H10627   4.815   6.129   2.076  1.4035 -0.6804 -1.4381
   79MOL0     H10628   4.829   5.962   2.045 -0.3000  0.8439  0.1525
   79MOL0     H10629   5.010   6.358   2.342 -2.0670 -0.9148 -2.9146
   79MOL0     H10630   5.210   6.528   2.304  2.4017  0.4706 -1.1034
   79MOL0     H10631   5.520   6.650   2.177 -1.5946  1.0475  0.4134
   79MOL0     H10632   5.391   6.633   2.284  0.7793  2.8094 -0.2945
   79MOL0     H10633   5.619   6.601   2.398  3.3283  0.0784 -1.8531
   79MOL0     H10634   5.517   6.459   2.418 -0.8793 -1.1999 -1.1259
   79MOL0     H10635   5.754   6.518   2.220  0.9956  0.3408  1.0584
   79MOL0     H10636   5.658   6.365   2.196  1.7414  0.0397  0.6140
   79MOL0     H10637   5.768   6.442   2.467 -2.9467  0.4671 -0.6187
   79MOL0     H10638   5.731   6.283   2.398  1.5196 -1.6822 -2.0066
   79MOL0     H10639   5.948   6.451   2.283  1.0682 -0.0608  1.2387
   79MOL0     H10640   5.902   6.281   2.243 -3.6644 -1.9766  1.7465
   79MOL0     H10641   6.097   6.254   2.366 -1.7957 -3.5920  1.0786
   79MOL0     H10642   6.061   6.385   2.485 -3.1891  3.2773 -2.0089
   79MOL0     H10643   5.881   6.126   2.487 -1.7406 -1.1505  2.6788
   79MOL0     H10644   5.899   6.250   2.606  0.1483 -0.3118  0.6001
   79MOL0     H10645   6.142   6.174   2.647 -3.3032  3.0129  4.2097
   79MOL0     H10646   6.089   6.046   2.532 -2.1651 -1.5665 -1.4075
   79MOL0     H10647   5.389   6.239   2.050  1.6004  0.8473  0.1197
   79MOL0     H10648   5.184   6.097   2.078  1.6130  0.6829 -1.5873
   79MOL0     H10649   4.752   6.040   2.575 -1.7002  0.2925  1.0872
   79MOL0     H10650   4.585   5.905   2.576  0.1861  1.1862  0.0045
   79MOL0     H10651   4.983   6.377   3.805 -1.7583  2.0944 -0.6247
   79MOL0     H10652   5.230   6.284   3.806  1.4023  0.4969 -0.8681
   79MOL0     H10653   5.675   6.395   3.593 -1.1612 -1.0085  0.2388
   79MOL0     H10654   5.877   6.300   3.675  0.7338 -1.4455  1.7270
   79MOL0     H10655   5.894   5.852   3.762  1.8646 -3.1091  0.5062
   79MOL0     H10656   5.917   5.855   3.594 -0.7938  1.6228 -0.5478
   79MOL0     H10657   6.167   5.933   3.664  1.5967  1.9783  3.3230
   79MOL0     H10658   6.126   5.772   3.719 -1.8650 -0.5592 -2.0813
   79MOL0     H10659   6.073   5.870   3.937  0.3062 -1.5067 -1.5924
   79MOL0     H10660   6.095   6.041   3.869 -0.4040  0.1480  2.8280
   79MOL0     H10661   6.320   5.983   3.811  0.0423  0.5830  0.4973
   79MOL0     H10662   6.315   5.826   3.880 -0.9060 -0.1237 -1.7648
   79MOL0     H10663   6.393   6.122   4.176  0.4277  0.8483 -1.5700
   79MOL0     H10664   5.709   5.899   3.603 -1.5013  0.1151 -2.5854
   79MOL0     H10665   5.504   6.000   3.519  0.1681 -0.7131 -1.0277
   80MOL0     O10666   1.989   0.509   7.555 -0.9326 -0.6137 -0.3263
   80MOL0     C10667   1.940   0.399   7.567 -0.1171 -0.0920  0.6396
   80MOL0     O10668   1.922   0.303   7.465  0.2540 -0.2970 -0.4156
   80MOL0     C10669   1.963   0.347   7.338  0.7016  0.2563  0.2318
   80MOL0     C10670   1.879   0.435   7.264 -0.2559  0.5655  0.3263
   80MOL0     C10671   1.911   0.471   7.131 -1.2363 -1.0586 -0.1530
   80MOL0     C10672   2.028   0.420   7.071 -0.3042 -0.8996 -0.5323
   80MOL0     O10673   2.070   0.438   6.939  0.0956 -0.3522  1.2392
   80MOL0     C10674   2.030   0.544   6.857 -0.5822 -0.5132 -0.3381
   80MOL0     C10675   1.948   0.497   6.736 -0.6704  0.4853 -0.4183
   80MOL0     C10676   1.831   0.593   6.711 -0.2646  0.9768  0.0172
   80MOL0     C10677   1.751   0.529   6.594 -0.1434  0.7928  0.4890
   80MOL0     C10678   1.823   0.553   6.457 -0.0999 -0.7785 -0.1589
   80MOL0     C10679   1.713   0.543   6.347  0.1640 -1.6050 -0.2062
   80MOL0     C10680   1.771   0.476   6.227 -0.4325 -0.7842  0.8049
   80MOL0     C10681   1.669   0.518   6.108 -0.8863  0.2310  0.2651
   80MOL0     N10682   1.761   0.514   5.987  0.5411 -0.3443 -0.4981
   80MOL0     C10683   1.823   0.402   5.938 -0.3136 -0.2612 -0.3788
   80MOL0     C10684   1.897   0.446   5.828  0.1764  0.5936 -0.5339
   80MOL0     C10685   1.991   0.364   5.746 -0.6415 -0.2907 -0.8598
   80MOL0     C10686   1.969   0.219   5.720  1.1162  0.5377 -0.4722
   80MOL0     C10687   2.090   0.163   5.634  0.1681  0.3673  0.6767
   80MOL0     C10688   2.049   0.036   5.556 -0.3055  0.8576 -0.5512
   80MOL0     O10689   2.152   0.018   5.455 -0.4276  0.1066  0.1075
   80MOL0     C10690   2.120  -0.054   5.347  0.3400  0.3904  0.5674
   80MOL0     C10691   2.039  -0.169   5.336 -0.0523 -1.4263  0.0240
   80MOL0     C10692   2.024  -0.225   5.205 -0.1916  0.0528 -0.5681
   80MOL0     C10693   1.955  -0.349   5.197 -0.0501 -0.0316 -0.5643
   80MOL0     C10694   2.081  -0.170   5.095  0.8003 -0.1658  0.1113
   80MOL0     C10695   2.055  -0.209   4.954  0.7582  0.2000 -1.0831
   80MOL0     O10696   2.152  -0.178   4.870 -0.3958  0.0979  0.2734
   80MOL0     C10697   2.145  -0.215   4.734 -0.5373 -0.0704  0.7359
   80MOL0     C10698   2.044  -0.158   4.663 -0.7191 -0.3931 -0.2029
   80MOL0     C10699   2.034  -0.186   4.533  0.6038  0.4580  1.6694
   80MOL0     C10700   2.111  -0.295   4.474 -0.0353 -1.0954 -0.6719
   80MOL0     O10701   2.090  -0.322   4.340 -0.0571  0.0612  0.8410
   80MOL0     C10702   2.077  -0.458   4.309  0.4570  1.1868  0.3852
   80MOL0     C10703   2.004  -0.474   4.166 -0.2448 -0.1185  0.0248
   80MOL0     C10704   2.111  -0.451   4.055  0.1074 -0.1686  0.0429
   80MOL0     C10705   2.055  -0.432   3.912 -0.4397  0.2598 -0.2863
   80MOL0     C10706   1.972  -0.296   3.903 -0.2750  0.3523  1.4069
   80MOL0     C10707   1.942  -0.273   3.745 -0.5880 -0.8726 -0.1806
   80MOL0     C10708   1.814  -0.351   3.700 -0.8878 -0.4508  0.4807
   80MOL0     C10709   1.831  -0.365   3.546 -0.9551 -0.6159  0.4916
   80MOL0    Cl10710   1.695  -0.345   3.446 -0.0789 -0.0721  0.3476
   80MOL0     C10711   2.206  -0.364   4.554 -0.3676 -0.8903  0.8023
   80MOL0     C10712   2.212  -0.324   4.683 -0.1150  0.2033 -0.3987
   80MOL0     O10713   1.949  -0.278   4.930 -0.4052  0.4969  0.3978
   80MOL0     C10714   2.173  -0.066   5.111 -0.5975  0.8488  0.3699
   80MOL0     C10715   2.190  -0.011   5.237 -0.6779  0.2904  0.5005
   80MOL0     N10716   1.881   0.582   5.825  0.3361  0.1655 -0.6593
   80MOL0     N10717   1.794   0.625   5.916  0.5650 -0.9273 -0.2981
   80MOL0     C10718   2.108   0.334   7.140 -0.6357  0.4255 -0.0412
   80MOL0     C10719   2.076   0.300   7.271 -0.1141  0.2630  0.4409
   80MOL0     C10720   1.865   0.360   7.697 -0.3825  0.1391  1.2010
   80MOL0     C10721   1.804   0.234   7.716 -0.2921 -0.3446 -0.6613
   80MOL0     C10722   1.737   0.202   7.839  0.4797  0.6562 -0.3851
   80MOL0     C10723   1.730   0.292   7.942  0.1354  0.5963 -0.0347
   80MOL0     O10724   1.653   0.267   8.057 -0.4073  0.4582 -0.0994
   80MOL0     C10725   1.730   0.276   8.180  0.8228 -0.2321  0.2990
   80MOL0     C10726   1.857   0.196   8.179  0.7525 -0.7365  0.3330
   80MOL0     C10727   1.927   0.232   8.307  0.9184  0.3829  0.0431
   80MOL0     C10728   1.876   0.151   8.438 -0.5533 -0.2692 -0.0784
   80MOL0     C10729   1.783   0.220   8.521  0.5483  1.0832 -0.2373
   80MOL0     C10730   1.696   0.297   8.566 -0.5816  0.2413  0.0684
   80MOL0     C10731   1.781   0.421   7.918 -0.6512  1.3029  0.6128
   80MOL0     C10732   1.841   0.459   7.795  0.2412 -0.0753 -0.5159
   80MOL0     H10733   1.782   0.459   7.307 -1.7181  0.7469 -2.7680
   80MOL0     H10734   1.862   0.551   7.078  4.1267  3.4208  0.6873
   80MOL0     H10735   1.985   0.623   6.918 -1.5175 -0.7122 -0.7505
   80MOL0     H10736   2.120   0.596   6.823 -1.6440  1.0665 -0.8522
   80MOL0     H10737   2.008   0.496   6.645 -1.7078 -2.1026 -1.1419
   80MOL0     H10738   1.908   0.400   6.767 -1.5251  0.1936 -2.3351
   80MOL0     H10739   1.762   0.596   6.796 -1.0876 -3.2051 -0.2835
   80MOL0     H10740   1.870   0.692   6.684  0.6481  0.1829 -1.7472
   80MOL0     H10741   1.749   0.420   6.604  0.2027  0.7864  0.4865
   80MOL0     H10742   1.647   0.562   6.598 -0.4796 -0.3058  1.5290
   80MOL0     H10743   1.872   0.651   6.465 -0.3636 -0.5808 -0.9550
   80MOL0     H10744   1.896   0.471   6.448 -0.8939 -2.3080  4.3321
   80MOL0     H10745   1.626   0.491   6.388 -1.3049 -0.5097 -1.8245
   80MOL0     H10746   1.687   0.647   6.324 -0.6843 -1.7669 -0.0134
   80MOL0     H10747   1.874   0.506   6.201 -0.6704 -1.8600 -1.6071
   80MOL0     H10748   1.770   0.368   6.238  2.1702 -1.1359 -1.2705
   80MOL0     H10749   1.619   0.613   6.125 -0.2326  0.6587 -0.1463
   80MOL0     H10750   1.591   0.443   6.092 -1.6687  1.4782 -2.3068
   80MOL0     H10751   1.828   0.301   5.978  2.2078 -1.0854 -2.4622
   80MOL0     H10752   1.989   0.425   5.655 -1.3699 -0.5796 -1.0359
   80MOL0     H10753   2.093   0.367   5.787 -1.3735 -3.4006  1.5443
   80MOL0     H10754   1.872   0.196   5.676  1.3619 -3.3493  0.6335
   80MOL0     H10755   1.967   0.167   5.816  3.5394  1.9257  0.4274
   80MOL0     H10756   2.177   0.141   5.696  1.1595 -0.8076 -1.0580
   80MOL0     H10757   2.109   0.249   5.569 -2.5136 -0.7121 -1.7367
   80MOL0     H10758   1.960   0.073   5.506 -1.9340 -1.2585  0.6467
   80MOL0     H10759   2.039  -0.061   5.605  2.6722 -1.0196 -3.2376
   80MOL0     H10760   1.991  -0.205   5.427  1.7545  0.5234  1.8694
   80MOL0     H10761   2.013  -0.408   5.125 -0.6679  0.0673 -1.1495
   80MOL0     H10762   1.949  -0.408   5.289 -0.2326 -2.6669 -2.1651
   80MOL0     H10763   1.848  -0.341   5.175  0.1801  0.9582 -1.3924
   80MOL0     H10764   1.983  -0.085   4.715  4.1296  1.5807  3.4804
   80MOL0     H10765   1.963  -0.127   4.475 -1.1621 -0.9633  2.3003
   80MOL0     H10766   2.177  -0.500   4.322  0.8220  2.5314  2.3487
   80MOL0     H10767   2.017  -0.495   4.392  0.2336  2.9335  1.0571
   80MOL0     H10768   1.961  -0.571   4.141  0.7790  0.3919 -4.6259
   80MOL0     H10769   1.918  -0.407   4.155 -0.8405 -0.7560  0.7105
   80MOL0     H10770   2.162  -0.547   4.049  2.1858  0.9056 -0.1808
   80MOL0     H10771   2.181  -0.369   4.074 -0.3799  0.2342  0.1458
   80MOL0     H10772   2.147  -0.426   3.853  0.3837  0.5341  0.9759
   80MOL0     H10773   1.989  -0.512   3.878  1.4886 -0.9617 -1.3281
   80MOL0     H10774   2.040  -0.217   3.938 -1.7285  1.0690  2.7476
   80MOL0     H10775   1.874  -0.300   3.952 -2.0630 -3.3845 -1.9180
   80MOL0     H10776   1.936  -0.169   3.713  3.1328 -0.0120  1.3910
   80MOL0     H10777   2.019  -0.330   3.692  1.5495 -0.1516  1.9553
   80MOL0     H10778   1.725  -0.289   3.718 -0.4545 -0.0069  1.1447
   80MOL0     H10779   1.809  -0.456   3.730 -0.1422 -2.2347 -4.7064
   80MOL0     H10780   1.886  -0.458   3.531  0.3018 -0.0013  1.1794
   80MOL0     H10781   1.896  -0.287   3.505 -2.3720 -0.8893 -2.5773
   80MOL0     H10782   2.273  -0.438   4.511 -1.2886 -2.1299  1.4556
   80MOL0     H10783   2.272  -0.380   4.753  1.9761  0.3402 -1.9708
   80MOL0     H10784   2.230  -0.035   5.024 -2.3866 -3.2734 -2.6257
   80MOL0     H10785   2.238   0.087   5.242 -1.5187  0.6340  2.8545
   80MOL0     H10786   2.190   0.290   7.085 -0.3356 -1.1206  1.5707
   80MOL0     H10787   2.145   0.234   7.322  0.6153 -0.5956 -1.5464
   80MOL0     H10788   1.804   0.162   7.635 -1.3700  3.1925 -4.1159
   80MOL0     H10789   1.682   0.110   7.857  0.2828  0.2316 -2.8022
   80MOL0     H10790   1.738   0.380   8.214 -2.8721  0.3786 -0.2629
   80MOL0     H10791   1.667   0.243   8.262 -0.0069  0.4817 -0.0371
   80MOL0     H10792   1.924   0.206   8.094 -0.5264 -1.1509 -0.7747
   80MOL0     H10793   1.828   0.091   8.194 -0.9434 -0.1676  1.3726
   80MOL0     H10794   1.938   0.336   8.338  2.3685 -0.6078  3.2762
   80MOL0     H10795   2.031   0.207   8.281  0.4822  0.8683 -2.4165
   80MOL0     H10796   1.970   0.116   8.481 -0.9958 -2.2373 -0.6173
   80MOL0     H10797   1.833   0.052   8.421 -0.3048 -0.6792  1.5301
   80MOL0     H10798   1.626   0.372   8.596 -0.7913  0.0281  0.1167
   80MOL0     H10799   1.766   0.499   7.991 -1.9324  1.2727  0.4141
   80MOL0     H10800   1.884   0.556   7.773  1.4831  0.2572  2.8801
   81MOL0     O10801   5.024   0.725   4.526  0.6579 -0.0648  0.0389
   81MOL0     C10802   4.987   0.816   4.445 -0.0214 -0.3399  0.2330
   81MOL0     O10803   5.071   0.900   4.377  0.6798 -0.2850  0.6028
   81MOL0     C10804   5.206   0.883   4.409  0.8188  0.6824 -0.1079
   81MOL0     C10805   5.275   0.758   4.397  0.2885  0.2116 -0.2501
   81MOL0     C10806   5.412   0.745   4.425  0.7640  0.4323 -0.4965
   81MOL0     C10807   5.479   0.864   4.461 -0.2700  0.5594 -0.2136
   81MOL0     O10808   5.606   0.864   4.500  0.2712  0.2452  0.4129
   81MOL0     C10809   5.640   0.831   4.636 -0.3968  0.3589 -0.1690
   81MOL0     C10810   5.786   0.872   4.674 -0.2646 -0.6010  0.0983
   81MOL0     C10811   5.895   0.866   4.560  0.8410 -0.4736  0.1168
   81MOL0     C10812   5.914   0.719   4.527 -0.3356  0.5312 -0.2114
   81MOL0     C10813   6.012   0.696   4.403  0.7010 -0.1031  0.8884
   81MOL0     C10814   6.031   0.541   4.390 -0.3374 -0.0208 -0.7945
   81MOL0     C10815   5.916   0.483   4.309  0.3433 -0.0674  0.5272
   81MOL0     C10816   5.897   0.327   4.307  0.2288  0.1974 -0.1314
   81MOL0     N10817   5.808   0.290   4.202 -1.6569 -0.6982  0.3130
   81MOL0     C10818   5.671   0.305   4.206 -0.2843  0.8832 -0.2655
   81MOL0     C10819   5.629   0.231   4.097  0.0430 -0.8196 -1.0356
   81MOL0     C10820   5.484   0.241   4.048  0.6488 -0.2894 -0.3910
   81MOL0     C10821   5.383   0.285   4.163  0.0208 -0.9825  1.1867
   81MOL0     C10822   5.241   0.291   4.123  0.0839  0.2252  0.8845
   81MOL0     C10823   5.181   0.149   4.108 -0.2049  0.5845 -0.4465
   81MOL0     O10824   5.046   0.124   4.062 -0.2286  0.3302  0.2050
   81MOL0     C10825   5.018   0.096   3.931  0.3152  0.5035 -0.4332
   81MOL0     C10826   4.899   0.018   3.909  0.0323 -0.0017 -1.1183
   81MOL0     C10827   4.856  -0.019   3.784  0.9097 -0.0067  1.0241
   81MOL0     C10828   4.730  -0.110   3.773 -0.2868  0.0569  0.8425
   81MOL0     C10829   4.925   0.040   3.676 -0.2543 -0.3156  0.5076
   81MOL0     C10830   4.895   0.006   3.533 -1.4340  0.1791  0.3691
   81MOL0     O10831   5.003  -0.014   3.453  0.9350  0.3519  0.0795
   81MOL0     C10832   4.990  -0.085   3.333 -1.0990 -0.1586  0.0193
   81MOL0     C10833   4.889  -0.052   3.239  0.8673  0.0128  0.3838
   81MOL0     C10834   4.875  -0.114   3.120  0.3048  0.3153  0.0446
   81MOL0     C10835   4.956  -0.228   3.088 -0.2385  0.7411 -0.7682
   81MOL0     O10836   4.941  -0.309   2.973 -0.1778 -1.1799  0.2512
   81MOL0     C10837   4.804  -0.344   2.957  0.8067  0.2593  0.1994
   81MOL0     C10838   4.816  -0.493   2.925  0.6914 -0.6854  0.0874
   81MOL0     C10839   4.699  -0.560   2.852  1.3419  0.8959 -0.2525
   81MOL0     C10840   4.699  -0.525   2.709 -0.1411  0.1447  0.3452
   81MOL0     C10841   4.575  -0.572   2.657  0.8665  0.6811  0.3383
   81MOL0     C10842   4.564  -0.536   2.505 -0.1482 -0.0962  0.8375
   81MOL0     C10843   4.425  -0.563   2.444  0.6351 -0.1630  0.0701
   81MOL0     C10844   4.404  -0.498   2.309  0.1101 -0.2063 -0.1953
   81MOL0    Cl10845   4.289  -0.601   2.219  0.2971  0.6191 -0.4773
   81MOL0     C10846   5.061  -0.263   3.182  0.2186  0.1179  0.6613
   81MOL0     C10847   5.080  -0.188   3.297  0.1534 -0.3290  1.0644
   81MOL0     O10848   4.778  -0.019   3.502  0.5045 -0.2286  0.1370
   81MOL0     C10849   5.043   0.112   3.694 -0.5860 -0.6974  0.1267
   81MOL0     C10850   5.087   0.143   3.822 -0.6467 -0.2156 -0.0564
   81MOL0     N10851   5.729   0.180   4.024 -0.0697 -0.1796 -0.6032
   81MOL0     N10852   5.835   0.217   4.092  0.3459  0.2619  0.5689
   81MOL0     C10853   5.415   0.983   4.468  1.1330 -1.0751 -0.2672
   81MOL0     C10854   5.278   0.995   4.436  0.0851 -0.2606 -0.2552
   81MOL0     C10855   4.843   0.837   4.414  0.7425 -0.1725  0.1291
   81MOL0     C10856   4.795   0.948   4.343  0.1106  0.7509 -0.4156
   81MOL0     C10857   4.660   0.958   4.307 -0.5917  1.2470  0.2385
   81MOL0     C10858   4.566   0.859   4.346 -0.1407 -0.5039 -0.5797
   81MOL0     O10859   4.443   0.866   4.297  0.1242 -0.1759 -1.0001
   81MOL0     C10860   4.344   0.805   4.383 -0.2739  0.0122 -0.3043
   81MOL0     C10861   4.321   0.883   4.510  0.0031  0.2207  0.7637
   81MOL0     C10862   4.220   0.992   4.491 -0.3753 -0.7383 -0.0951
   81MOL0     C10863   4.174   1.084   4.603 -0.3115  0.7373  0.7409
   81MOL0     C10864   4.132   1.211   4.550 -0.1114 -0.0871 -0.1399
   81MOL0     C10865   4.109   1.319   4.517  0.3579 -0.2625  0.4426
   81MOL0     C10866   4.617   0.748   4.423  0.5897  0.1428 -0.2371
   81MOL0     C10867   4.753   0.736   4.450 -0.2877 -0.3970  0.0320
   81MOL0     H10868   5.222   0.666   4.375 -1.0869  0.3470  2.1015
   81MOL0     H10869   5.456   0.646   4.421  0.6656  0.2405  1.8242
   81MOL0     H10870   5.564   0.845   4.714 -0.5661 -5.4075  1.1661
   81MOL0     H10871   5.644   0.722   4.633  1.7531  0.3080  1.6087
   81MOL0     H10872   5.779   0.978   4.701  0.9240 -1.0513  2.4410
   81MOL0     H10873   5.822   0.817   4.761  3.3263  0.0083 -0.8085
   81MOL0     H10874   5.858   0.923   4.475 -3.5045 -1.1066  1.3282
   81MOL0     H10875   5.995   0.899   4.592  1.8644 -3.3500  0.2397
   81MOL0     H10876   5.971   0.681   4.612  1.4942  1.6090 -0.8998
   81MOL0     H10877   5.813   0.678   4.526 -0.3661  0.4546  1.6495
   81MOL0     H10878   5.983   0.730   4.303 -0.2170  0.2045  1.2462
   81MOL0     H10879   6.102   0.752   4.427  1.6896 -1.8400  1.4550
   81MOL0     H10880   6.125   0.506   4.346  0.4425 -1.2137  1.6508
   81MOL0     H10881   6.011   0.495   4.487 -0.5977  2.3309  0.3208
   81MOL0     H10882   5.824   0.530   4.343 -0.9663 -2.0015 -0.1829
   81MOL0     H10883   5.933   0.510   4.204 -1.8433 -0.7779 -0.0633
   81MOL0     H10884   5.843   0.298   4.397 -0.4653  2.4607  0.2509
   81MOL0     H10885   5.998   0.286   4.301  0.4711  0.1240  2.9678
   81MOL0     H10886   5.620   0.363   4.283  2.0930  2.0777  0.5078
   81MOL0     H10887   5.486   0.305   3.960  5.3116 -1.1240 -1.1343
   81MOL0     H10888   5.455   0.146   4.003 -0.7897 -0.0664 -0.0009
   81MOL0     H10889   5.403   0.388   4.193  0.5737 -0.0196 -2.0898
   81MOL0     H10890   5.382   0.226   4.255 -4.0903 -1.2625  1.1597
   81MOL0     H10891   5.239   0.337   4.024  0.2792 -0.1525  0.7024
   81MOL0     H10892   5.192   0.354   4.198  0.6117  0.2463  1.2159
   81MOL0     H10893   5.173   0.118   4.213  0.1350  1.4707 -0.1455
   81MOL0     H10894   5.254   0.092   4.050  0.7921  4.6135 -3.5352
   81MOL0     H10895   4.847  -0.011   4.000  1.3781  0.7923 -0.0655
   81MOL0     H10896   4.760  -0.171   3.687  1.3777  0.3567  1.1808
   81MOL0     H10897   4.709  -0.177   3.857 -0.6245 -3.7792 -2.0158
   81MOL0     H10898   4.637  -0.057   3.749  0.7060  0.9175 -1.3186
   81MOL0     H10899   4.809   0.012   3.275 -0.5892 -3.0191  3.0232
   81MOL0     H10900   4.804  -0.077   3.047 -1.5162  1.6257  2.3486
   81MOL0     H10901   4.736  -0.336   3.042 -0.8046 -0.7276 -0.9366
   81MOL0     H10902   4.756  -0.283   2.879 -0.1495  0.4890  0.9552
   81MOL0     H10903   4.901  -0.511   2.858  1.1285  2.1181 -0.2171
   81MOL0     H10904   4.839  -0.538   3.022 -1.7136  3.2984  2.7782
   81MOL0     H10905   4.605  -0.528   2.898  1.2537 -0.4004  0.5140
   81MOL0     H10906   4.704  -0.669   2.861  0.4926  0.9893  5.4393
   81MOL0     H10907   4.693  -0.417   2.694 -3.0196 -0.1364 -1.3025
   81MOL0     H10908   4.790  -0.564   2.663  1.2336  1.1301  2.1199
   81MOL0     H10909   4.482  -0.539   2.705  0.9931 -0.3936  1.3796
   81MOL0     H10910   4.569  -0.681   2.672  3.1023  0.5685  0.7935
   81MOL0     H10911   4.577  -0.430   2.485 -0.1640 -0.5105 -1.7475
   81MOL0     H10912   4.640  -0.588   2.446 -1.5704  0.5242 -1.6843
   81MOL0     H10913   4.347  -0.529   2.513 -1.0662  1.2950 -2.3878
   81MOL0     H10914   4.405  -0.668   2.421 -1.3137  0.1438  0.1481
   81MOL0     H10915   4.490  -0.499   2.241  0.3116  1.8170 -0.0353
   81MOL0     H10916   4.370  -0.394   2.310  3.5025  1.0434 -0.9770
   81MOL0     H10917   5.135  -0.339   3.159  1.8741  1.3988  1.4910
   81MOL0     H10918   5.162  -0.204   3.365  2.4945 -5.0267 -2.3045
   81MOL0     H10919   5.111   0.129   3.611  0.1078  2.5795  1.2194
   81MOL0     H10920   5.174   0.203   3.843  0.5031 -2.4587  2.0711
   81MOL0     H10921   5.467   1.067   4.511 -0.6067 -0.8966  1.6618
   81MOL0     H10922   5.232   1.092   4.450 -1.6491 -1.0090 -0.5139
   81MOL0     H10923   4.867   1.017   4.300  2.2983 -1.7516 -1.0483
   81MOL0     H10924   4.641   1.046   4.247 -0.1030 -1.4955 -4.3941
   81MOL0     H10925   4.246   0.798   4.335 -0.1536 -3.0399 -0.2480
   81MOL0     H10926   4.372   0.702   4.404  1.1980  0.6257  0.9583
   81MOL0     H10927   4.411   0.935   4.544  0.7770  0.2021 -1.0869
   81MOL0     H10928   4.291   0.818   4.592  3.7114 -3.2080 -0.2134
   81MOL0     H10929   4.135   0.947   4.439 -0.1928 -0.1951 -0.8830
   81MOL0     H10930   4.273   1.058   4.422 -0.2638 -0.3167  0.3866
   81MOL0     H10931   4.249   1.098   4.681  2.3479 -3.7259 -0.6539
   81MOL0     H10932   4.090   1.037   4.655 -0.0705 -0.8535 -0.2256
   81MOL0     H10933   4.111   1.420   4.481  0.0504  0.1977  1.6778
   81MOL0     H10934   4.571   0.654   4.453  4.8004 -1.6469  1.4780
   81MOL0     H10935   4.788   0.647   4.501  0.8670  0.1102  0.1768
   82MOL0     O10936  11.090   5.125  11.388 -0.4485  0.3152  0.9842
   82MOL0     C10937  11.133   5.076  11.289  0.8729 -0.4002 -0.4470
   82MOL0     O10938  11.215   4.965  11.292 -0.3381 -0.5953  0.2938
   82MOL0     C10939  11.239   4.887  11.403 -0.6256 -0.3605 -0.3136
   82MOL0     C10940  11.160   4.867  11.522 -0.0047 -0.0094  0.6364
   82MOL0     C10941  11.206   4.784  11.629  0.0673  0.9025  0.6962
   82MOL0     C10942  11.335   4.720  11.614  0.9458 -0.0432 -0.0179
   82MOL0     O10943  11.392   4.638  11.715 -0.0055  0.0066 -0.2225
   82MOL0     C10944  11.316   4.613  11.838  0.9150  0.7446 -0.7449
   82MOL0     C10945  11.417   4.557  11.944 -0.2187  0.4855  0.6445
   82MOL0     C10946  11.480   4.676  12.014 -0.9143 -0.2680 -0.6800
   82MOL0     C10947  11.599   4.630  12.093  0.5739  0.6965 -0.6360
   82MOL0     C10948  11.634   4.714  12.208 -0.5389 -0.6394 -0.7455
   82MOL0     C10949  11.763   4.664  12.278 -0.0198 -0.5259  0.0780
   82MOL0     C10950  11.782   4.759  12.398  0.1877 -0.0365 -1.1360
   82MOL0     C10951  11.731   4.705  12.533  0.1711 -0.1200  0.1682
   82MOL0     N10952  11.775   4.766  12.653 -0.7843 -0.4002 -0.6701
   82MOL0     C10953  11.907   4.773  12.705 -0.2693 -0.6476  0.3625
   82MOL0     C10954  11.908   4.872  12.797  1.1067  0.9451 -0.5985
   82MOL0     C10955  12.035   4.922  12.856  0.3003 -0.6657 -0.5194
   82MOL0     C10956  12.077   4.840  12.981  0.0844  0.3357  0.0422
   82MOL0     C10957  12.052   4.892  13.120  0.1968 -1.2247  0.4265
   82MOL0     C10958  12.142   5.010  13.153 -0.2432  0.1922 -0.1954
   82MOL0     O10959  12.275   4.958  13.169 -0.9320 -0.2062 -0.5149
   82MOL0     C10960  12.363   5.036  13.241 -0.1483  0.2913 -0.4327
   82MOL0     C10961  12.452   4.968  13.310 -0.9526 -0.1932 -0.5988
   82MOL0     C10962  12.570   5.025  13.370  0.2808 -0.8174  0.9238
   82MOL0     C10963  12.679   4.942  13.426  0.2824  0.3858 -0.5839
   82MOL0     C10964  12.581   5.170  13.367 -0.6236  0.8742 -0.6282
   82MOL0     C10965  12.698   5.249  13.415 -0.6200  1.8447 -0.4977
   82MOL0     O10966  12.745   5.353  13.344 -0.1276 -0.2443  0.6320
   82MOL0     C10967  12.853   5.425  13.403  0.1583  0.3282  0.2254
   82MOL0     C10968  12.992   5.383  13.381  0.4987  0.4389 -0.2751
   82MOL0     C10969  13.089   5.466  13.437  0.1720 -0.8366  0.0777
   82MOL0     C10970  13.051   5.593  13.506  0.7197  0.9827 -0.4669
   82MOL0     O10971  13.159   5.674  13.545  0.3097  0.4326 -0.5317
   82MOL0     C10972  13.139   5.814  13.564  0.8751 -0.4463  0.5728
   82MOL0     C10973  13.229   5.899  13.472  0.2514 -0.2192 -0.1664
   82MOL0     C10974  13.208   5.859  13.330  0.1031 -0.0742  0.3893
   82MOL0     C10975  13.292   5.943  13.240  0.3244 -0.1209  0.7673
   82MOL0     C10976  13.309   5.865  13.108  0.9704  0.4708  0.3852
   82MOL0     C10977  13.374   5.954  13.001 -0.2263 -0.2766  0.6063
   82MOL0     C10978  13.399   5.888  12.866 -0.9910  0.2506 -0.5227
   82MOL0     C10979  13.472   5.977  12.778  0.7632  0.1892 -0.4019
   82MOL0    Cl10980  13.368   6.113  12.731 -0.4392 -0.9017  0.4051
   82MOL0     C10981  12.915   5.620  13.528 -1.1411  0.2106 -0.6879
   82MOL0     C10982  12.818   5.530  13.482 -0.2392 -0.5075  0.0039
   82MOL0     O10983  12.757   5.209  13.522  0.0398 -0.7052 -0.3991
   82MOL0     C10984  12.476   5.243  13.293  0.8870 -0.6969  0.0173
   82MOL0     C10985  12.370   5.172  13.232  0.5903  0.7531  0.4922
   82MOL0     N10986  11.775   4.900  12.827 -0.0414  0.5421 -0.1249
   82MOL0     N10987  11.702   4.846  12.738  0.0924  0.3439  0.6462
   82MOL0     C10988  11.414   4.748  11.508 -0.6531 -0.1974  0.7200
   82MOL0     C10989  11.371   4.834  11.405 -0.2036 -0.1998 -0.0094
   82MOL0     C10990  11.083   5.136  11.162 -0.0291  0.0988 -0.5805
   82MOL0     C10991  11.083   5.061  11.042 -0.1848  0.1448  0.6532
   82MOL0     C10992  11.033   5.122  10.922  0.1980  0.1414 -0.5202
   82MOL0     C10993  10.973   5.250  10.926 -0.1807  0.8738  0.5610
   82MOL0     O10994  10.907   5.311  10.820  0.6236 -0.1804 -0.6401
   82MOL0     C10995  10.933   5.258  10.687  0.2071  0.1355 -0.0122
   82MOL0     C10996  10.930   5.378  10.592  0.3074 -0.6299 -0.7963
   82MOL0     C10997  11.037   5.480  10.613 -0.8332  0.3811  0.1462
   82MOL0     C10998  11.046   5.590  10.502 -0.0251  0.1713 -0.2376
   82MOL0     C10999  11.080   5.534  10.371 -0.8084  0.4515 -0.4145
   82MOL0     C11000  11.100   5.467  10.270 -0.1494 -0.6772  0.3918
   82MOL0     C11001  10.988   5.324  11.038 -0.1964  0.2339  0.5051
   82MOL0     C11002  11.034   5.275  11.159 -0.1193 -1.0371 -0.6984
   82MOL0     H11003  11.065   4.920  11.515  0.0423  0.0254  0.2326
   82MOL0     H11004  11.144   4.763  11.716 -2.4287  0.4589 -1.0962
   82MOL0     H11005  11.265   4.699  11.881 -0.2567 -0.7572  1.0410
   82MOL0     H11006  11.240   4.537  11.816  0.9378  0.7350 -0.7889
   82MOL0     H11007  11.358   4.500  12.015 -0.5133  0.5276  0.4364
   82MOL0     H11008  11.484   4.493  11.886  0.5459  0.1346  1.8779
   82MOL0     H11009  11.494   4.767  11.955  0.2814  2.3199  3.1807
   82MOL0     H11010  11.407   4.717  12.085  1.6001  2.9237  0.3321
   82MOL0     H11011  11.587   4.533  12.142  2.0508  0.9527  0.2958
   82MOL0     H11012  11.687   4.628  12.028  2.9379  0.6127  2.3596
   82MOL0     H11013  11.632   4.816  12.168  1.0140 -0.5729 -0.6930
   82MOL0     H11014  11.554   4.723  12.283 -2.3489 -1.0775 -2.5525
   82MOL0     H11015  11.758   4.559  12.309  1.0542 -2.0608 -4.2832
   82MOL0     H11016  11.846   4.671  12.207 -1.2169 -1.9436 -1.5286
   82MOL0     H11017  11.888   4.772  12.421 -0.4002 -1.6371  3.2635
   82MOL0     H11018  11.753   4.864  12.380 -0.1091 -0.4703 -3.6914
   82MOL0     H11019  11.765   4.601  12.530 -0.9408 -0.4649 -1.7710
   82MOL0     H11020  11.622   4.707  12.526  0.1878  1.1423 -0.0001
   82MOL0     H11021  11.990   4.713  12.669  0.8869  0.9954  0.2161
   82MOL0     H11022  12.111   4.945  12.781 -3.8764  3.8803 -3.9692
   82MOL0     H11023  12.018   5.025  12.889  2.3830  0.3416 -2.3307
   82MOL0     H11024  12.176   4.796  12.966 -2.2694 -5.0267 -2.1339
   82MOL0     H11025  12.027   4.743  12.976  1.0531 -0.1295 -0.9238
   82MOL0     H11026  12.060   4.815  13.197 -0.7182 -0.7250  1.0434
   82MOL0     H11027  11.944   4.907  13.114 -0.6087 -5.4782  1.1507
   82MOL0     H11028  12.100   5.036  13.251 -1.1055 -2.5630  0.2428
   82MOL0     H11029  12.128   5.097  13.088  0.7100  0.6235  0.1695
   82MOL0     H11030  12.446   4.863  13.338 -0.0667 -0.2552 -0.6143
   82MOL0     H11031  12.677   4.841  13.385  2.1338  0.1797 -0.2234
   82MOL0     H11032  12.775   4.984  13.394  1.9064 -3.3737 -1.1585
   82MOL0     H11033  12.684   4.937  13.535  1.7596  1.5719 -0.5732
   82MOL0     H11034  13.004   5.295  13.319 -0.8089 -1.9366  2.6318
   82MOL0     H11035  13.196   5.458  13.420  0.1289  0.4016 -1.0101
   82MOL0     H11036  13.033   5.837  13.546  0.9672  1.8945  2.5951
   82MOL0     H11037  13.177   5.834  13.664  2.8326 -2.5397  0.3204
   82MOL0     H11038  13.218   6.007  13.485  3.3743  0.0782  0.6725
   82MOL0     H11039  13.331   5.878  13.506  1.0545  2.7978 -0.4743
   82MOL0     H11040  13.101   5.868  13.310 -0.1653  0.2192  1.8451
   82MOL0     H11041  13.236   5.755  13.310 -3.1897 -1.1682  0.8692
   82MOL0     H11042  13.248   6.041  13.221 -1.0228 -0.9925 -0.9433
   82MOL0     H11043  13.386   5.948  13.296 -0.5457  0.6396  2.2065
   82MOL0     H11044  13.210   5.831  13.075  0.0793  1.0523  2.3418
   82MOL0     H11045  13.378   5.782  13.126  1.9817  1.5489  1.6329
   82MOL0     H11046  13.323   6.050  12.993 -0.3053 -0.4495 -1.4795
   82MOL0     H11047  13.472   5.978  13.044  0.6481 -1.1740 -0.8058
   82MOL0     H11048  13.300   5.867  12.822 -1.2976  2.6512 -1.0973
   82MOL0     H11049  13.461   5.800  12.886  3.3954  2.3730 -3.3428
   82MOL0     H11050  13.500   5.903  12.703  3.4058 -1.4827  2.0412
   82MOL0     H11051  13.569   6.008  12.817  0.0954  0.6672  0.9521
   82MOL0     H11052  12.891   5.709  13.585 -0.5558 -0.6943  1.0474
   82MOL0     H11053  12.717   5.551  13.515 -0.1755 -1.9969  1.2392
   82MOL0     H11054  12.482   5.351  13.289 -2.4657 -0.3990  0.2335
   82MOL0     H11055  12.298   5.227  13.173 -0.3197 -2.9522 -2.2121
   82MOL0     H11056  11.513   4.704  11.500 -1.6279 -2.2212 -2.0830
   82MOL0     H11057  11.442   4.866  11.329  0.2872  0.4964  0.7191
   82MOL0     H11058  11.125   4.962  11.030  1.4504  1.1100 -3.2538
   82MOL0     H11059  11.035   5.061  10.832 -0.2419 -1.7080  0.6653
   82MOL0     H11060  11.029   5.206  10.684  0.4287  0.5571 -0.3887
   82MOL0     H11061  10.861   5.179  10.662  0.3322  0.3644 -1.1663
   82MOL0     H11062  10.837   5.436  10.598 -0.0128 -1.3321  2.1443
   82MOL0     H11063  10.917   5.347  10.487 -2.9731 -0.4077 -0.5654
   82MOL0     H11064  11.128   5.421  10.625 -0.7996  0.6161  1.1081
   82MOL0     H11065  11.018   5.512  10.716 -0.1358 -1.1203  0.7743
   82MOL0     H11066  11.126   5.659  10.531  1.8034 -1.8098 -0.3267
   82MOL0     H11067  10.944   5.631  10.495 -0.7292 -1.2156  1.1659
   82MOL0     H11068  11.124   5.414  10.181  1.0536  0.5452 -0.0577
   82MOL0     H11069  10.949   5.426  11.040 -2.2843 -0.4770 -1.0768
   82MOL0     H11070  11.028   5.327  11.254 -2.8494 -0.4609 -1.0895
   83MOL0     O11071   0.485   9.901   3.997  0.3725 -0.3603  0.0347
   83MOL0     C11072   0.546   9.923   4.097 -0.5090  0.4814 -0.2678
   83MOL0     O11073   0.544   9.853   4.212  0.0763 -0.0291  0.2948
   83MOL0     C11074   0.490   9.728   4.204 -0.5632  0.2019 -0.1194
   83MOL0     C11075   0.550   9.628   4.283 -0.2107  0.2327  0.3422
   83MOL0     C11076   0.491   9.503   4.295  0.3562  0.1839  0.0576
   83MOL0     C11077   0.368   9.471   4.224 -0.0604  0.2111 -0.4594
   83MOL0     O11078   0.295   9.360   4.246 -0.6274 -0.8670 -0.0413
   83MOL0     C11079   0.283   9.322   4.383  0.2681 -0.8574  0.4531
   83MOL0     C11080   0.161   9.238   4.410  0.6813  0.3445  0.4762
   83MOL0     C11081   0.139   9.214   4.553 -0.0388  0.0171 -0.3424
   83MOL0     C11082   0.246   9.117   4.606 -0.3754  0.1568  0.0151
   83MOL0     C11083   0.242   9.089   4.749  0.2517 -0.3916 -0.2855
   83MOL0     C11084   0.380   9.073   4.810  0.3305 -1.3461 -0.1077
   83MOL0     C11085   0.384   9.041   4.957 -0.9088  0.1162 -0.0149
   83MOL0     C11086   0.293   8.931   4.996 -0.2194  0.9745  0.3129
   83MOL0     N11087   0.316   8.893   5.137 -0.6753  0.7448  0.2705
   83MOL0     C11088   0.247   8.969   5.234 -0.9275  0.9452 -0.1787
   83MOL0     C11089   0.284   8.916   5.353  0.0001  0.6220 -0.0651
   83MOL0     C11090   0.246   8.973   5.486  0.5565 -0.9373 -0.4731
   83MOL0     C11091   0.094   8.975   5.512  0.9500 -0.2706 -0.1568
   83MOL0     C11092   0.007   8.854   5.485  0.5642  0.2846 -0.6027
   83MOL0     C11093  -0.126   8.853   5.555  0.1515  0.4853  0.5305
   83MOL0     O11094  -0.222   8.758   5.514  0.4467 -0.2977 -0.4431
   83MOL0     C11095  -0.225   8.620   5.550 -1.3952  0.2549 -0.6734
   83MOL0     C11096  -0.304   8.542   5.480 -0.6629  0.4247  0.1491
   83MOL0     C11097  -0.300   8.395   5.504 -0.5551 -0.4113  0.0773
   83MOL0     C11098  -0.394   8.313   5.434  0.0410 -0.3236  0.6412
   83MOL0     C11099  -0.196   8.336   5.592  0.2098 -0.0491 -0.1446
   83MOL0     C11100  -0.183   8.191   5.619 -1.0520 -0.6577 -0.3446
   83MOL0     O11101  -0.293   8.116   5.659  0.1459 -0.0208 -0.8621
   83MOL0     C11102  -0.279   7.983   5.716 -0.8372 -0.7809 -0.2924
   83MOL0     C11103  -0.153   7.923   5.755  0.4197  0.6806  0.3070
   83MOL0     C11104  -0.152   7.802   5.830 -0.4324  0.2139  0.6070
   83MOL0     C11105  -0.277   7.735   5.855 -0.2651  0.1519 -0.4332
   83MOL0     O11106  -0.296   7.612   5.925  0.0964  0.3324  0.1082
   83MOL0     C11107  -0.179   7.566   5.991 -0.1446 -0.1992  0.6919
   83MOL0     C11108  -0.177   7.644   6.128  0.0688  0.2357  0.1926
   83MOL0     C11109  -0.069   7.585   6.226 -0.2301  0.2815 -0.0473
   83MOL0     C11110  -0.134   7.489   6.316  0.4576  0.0427 -0.4206
   83MOL0     C11111  -0.218   7.547   6.434  0.0852 -0.3184 -0.5102
   83MOL0     C11112  -0.290   7.447   6.530 -0.2454 -0.3413 -0.8383
   83MOL0     C11113  -0.181   7.374   6.628 -0.6719  0.6870 -0.2204
   83MOL0     C11114  -0.240   7.296   6.739 -0.3189  0.0841  0.4075
   83MOL0    Cl11115  -0.093   7.229   6.817 -0.0486  0.3391  0.1598
   83MOL0     C11116  -0.389   7.791   5.809 -0.2526  0.4899  1.1280
   83MOL0     C11117  -0.393   7.909   5.744 -0.0143 -0.1658  1.2154
   83MOL0     O11118  -0.078   8.140   5.581  0.1410  0.0556  0.2543
   83MOL0     C11119  -0.101   8.429   5.638 -0.3941  0.3032 -0.2307
   83MOL0     C11120  -0.117   8.566   5.622  0.8196 -0.3950  1.3182
   83MOL0     N11121   0.367   8.807   5.328 -0.1547  0.2318  1.2724
   83MOL0     N11122   0.379   8.782   5.202  0.3382  0.0579 -0.6078
   83MOL0     C11123   0.318   9.568   4.138 -0.8375  0.4635 -0.2589
   83MOL0     C11124   0.372   9.697   4.134 -0.1023 -1.0059  0.0450
   83MOL0     C11125   0.597  10.057   4.098 -0.1570 -0.0244  0.0340
   83MOL0     C11126   0.605  10.141   3.990 -0.4912 -0.3376  0.6193
   83MOL0     C11127   0.663  10.268   4.002  0.5341 -0.3602  0.2907
   83MOL0     C11128   0.713  10.305   4.122 -0.8164 -1.9346 -0.6889
   83MOL0     O11129   0.785  10.422   4.143 -0.1967 -0.1747  0.9061
   83MOL0     C11130   0.703  10.530   4.193  0.0662  0.8686 -0.0817
   83MOL0     C11131   0.766  10.661   4.229  0.6577  0.4884  0.3298
   83MOL0     C11132   0.853  10.722   4.111  0.3083 -0.0577 -0.3624
   83MOL0     C11133   0.770  10.756   3.980 -0.2881  0.9601 -0.3021
   83MOL0     C11134   0.700  10.888   3.995 -0.1640  0.1875  0.0537
   83MOL0     C11135   0.636  10.991   3.996  0.3080 -0.0114  1.1981
   83MOL0     C11136   0.712  10.225   4.233  0.2045  0.4001  0.0893
   83MOL0     C11137   0.653  10.102   4.225  0.6663  0.1046 -0.2549
   83MOL0     H11138   0.641   9.663   4.330 -0.5160 -3.3714  4.2028
   83MOL0     H11139   0.524   9.424   4.362  0.2930 -0.1969 -0.3545
   83MOL0     H11140   0.379   9.275   4.407  1.9938  3.0190  1.9868
   83MOL0     H11141   0.288   9.416   4.438  0.6524 -1.5215  1.5807
   83MOL0     H11142   0.074   9.282   4.362  0.4549 -2.6207 -2.1284
   83MOL0     H11143   0.172   9.143   4.356 -0.6268  0.9842 -0.9795
   83MOL0     H11144   0.131   9.306   4.611  0.7163  1.0524 -1.8025
   83MOL0     H11145   0.042   9.165   4.558 -0.2833  0.2404 -2.0547
   83MOL0     H11146   0.255   9.031   4.539 -3.2757  1.5328 -2.3841
   83MOL0     H11147   0.343   9.165   4.595  0.9427 -2.3845 -0.2342
   83MOL0     H11148   0.187   9.175   4.790 -1.3604 -1.8282  0.6933
   83MOL0     H11149   0.178   9.002   4.765 -1.3210  0.9679  1.2013
   83MOL0     H11150   0.421   8.989   4.754  2.0836  1.5208 -3.6106
   83MOL0     H11151   0.444   9.158   4.785 -0.5030 -0.0695  1.8454
   83MOL0     H11152   0.485   9.017   4.991 -2.0619 -1.7362  2.4211
   83MOL0     H11153   0.357   9.123   5.024  0.1866 -2.1537  3.5258
   83MOL0     H11154   0.319   8.845   4.933  0.2454  1.6375 -0.4150
   83MOL0     H11155   0.189   8.962   4.983 -0.5635  0.7133  2.1255
   83MOL0     H11156   0.193   9.063   5.226  0.9536  2.4093  2.4998
   83MOL0     H11157   0.290   8.920   5.572 -2.4670 -1.9801  0.5781
   83MOL0     H11158   0.266   9.080   5.495 -1.1684 -0.4539 -1.8145
   83MOL0     H11159   0.056   9.047   5.438 -3.2402  0.4832  2.3739
   83MOL0     H11160   0.082   9.011   5.615  0.1692  1.7135 -0.8946
   83MOL0     H11161   0.055   8.766   5.530 -2.9585 -0.4868  2.0784
   83MOL0     H11162  -0.003   8.832   5.378 -1.9287 -3.3214  0.1585
   83MOL0     H11163  -0.159   8.958   5.555  0.8595  0.7144  0.0440
   83MOL0     H11164  -0.106   8.837   5.661  2.4546 -0.9176 -0.0614
   83MOL0     H11165  -0.368   8.604   5.418 -1.0695 -1.0459 -0.9629
   83MOL0     H11166  -0.469   8.376   5.386  0.6867 -0.1444 -0.1692
   83MOL0     H11167  -0.351   8.249   5.356 -4.1296 -2.3892 -0.2374
   83MOL0     H11168  -0.439   8.244   5.506  1.2936 -0.5468  1.2402
   83MOL0     H11169  -0.053   7.961   5.739  0.1409  0.2440 -3.1154
   83MOL0     H11170  -0.056   7.769   5.868 -0.7381 -0.7125  0.6109
   83MOL0     H11171  -0.204   7.461   6.010 -0.2553 -0.8212 -2.3656
   83MOL0     H11172  -0.087   7.580   5.933 -0.6602  1.3971  0.2070
   83MOL0     H11173  -0.143   7.745   6.105  0.2446  0.5824  1.8587
   83MOL0     H11174  -0.274   7.641   6.177 -0.4401  0.4878 -0.7822
   83MOL0     H11175  -0.034   7.673   6.281  2.5095  0.4218 -1.8814
   83MOL0     H11176   0.011   7.528   6.180  0.0996  0.4364  0.3256
   83MOL0     H11177  -0.206   7.433   6.257 -0.5261  1.4854 -0.6510
   83MOL0     H11178  -0.056   7.429   6.364 -0.2188  0.5456  1.4063
   83MOL0     H11179  -0.300   7.598   6.382  2.0899  1.8556 -1.7123
   83MOL0     H11180  -0.159   7.615   6.495  0.7993 -1.9747  0.7306
   83MOL0     H11181  -0.367   7.500   6.586 -0.0256 -1.8107  0.9723
   83MOL0     H11182  -0.335   7.360   6.481 -0.9018 -1.9117  2.2754
   83MOL0     H11183  -0.111   7.454   6.654  0.6785 -0.6217  0.2806
   83MOL0     H11184  -0.122   7.303   6.569  1.8355  1.3915  1.3163
   83MOL0     H11185  -0.303   7.217   6.698 -0.0867  0.2079 -0.1957
   83MOL0     H11186  -0.298   7.361   6.806  0.4726 -1.2100  2.4638
   83MOL0     H11187  -0.483   7.741   5.831 -1.3420  1.3329 -1.3011
   83MOL0     H11188  -0.486   7.937   5.695  1.0859 -0.1926 -0.9928
   83MOL0     H11189  -0.007   8.397   5.681 -0.9234 -2.0258 -0.6457
   83MOL0     H11190  -0.033   8.629   5.651 -1.0925  3.4589 -0.7832
   83MOL0     H11191   0.238   9.540   4.070 -1.5649  4.1637 -1.1860
   83MOL0     H11192   0.321   9.779   4.085  0.9116  1.5941  3.0844
   83MOL0     H11193   0.573  10.110   3.891  0.4726 -1.3895  0.6135
   83MOL0     H11194   0.680  10.341   3.923 -0.5994 -0.1610  0.2085
   83MOL0     H11195   0.618  10.543   4.125 -0.0217 -2.1634 -0.7262
   83MOL0     H11196   0.654  10.495   4.285 -1.5927  0.2364 -1.1497
   83MOL0     H11197   0.817  10.637   4.323 -0.9080 -3.8843  0.3235
   83MOL0     H11198   0.684  10.732   4.244  0.9172  0.7157  0.6652
   83MOL0     H11199   0.941  10.658   4.098  0.1190 -0.1668 -1.1354
   83MOL0     H11200   0.894  10.817   4.146 -2.5001  0.6662  1.2963
   83MOL0     H11201   0.710  10.671   3.944  0.3799  1.1558 -1.9379
   83MOL0     H11202   0.850  10.757   3.906  2.5328 -2.0573  2.3428
   83MOL0     H11203   0.574  11.076   3.977  1.6190  1.3626  2.7226
   83MOL0     H11204   0.762  10.243   4.329  1.5170  0.0589 -0.5014
   83MOL0     H11205   0.648  10.046   4.317 -0.6795  1.0211  0.2538
   84MOL0     O11206   6.309   5.980   9.399  1.0049 -0.4099  0.1544
   84MOL0     C11207   6.320   5.938   9.286  0.3665 -0.1348  0.3013
   84MOL0     O11208   6.229   5.860   9.223  0.3536 -0.6691  0.8696
   84MOL0     C11209   6.137   5.795   9.297 -0.6440 -0.0598 -0.2640
   84MOL0     C11210   6.176   5.712   9.404  0.5572  0.2480  0.2846
   84MOL0     C11211   6.066   5.653   9.478  0.2132  0.4116  0.1253
   84MOL0     C11212   5.931   5.672   9.448 -0.6920  0.0276 -0.1920
   84MOL0     O11213   5.837   5.604   9.524  0.3748 -1.0962 -0.4587
   84MOL0     C11214   5.740   5.681   9.592  0.2565  0.0925 -0.8740
   84MOL0     C11215   5.765   5.667   9.746 -0.0819  0.1709  0.5047
   84MOL0     C11216   5.865   5.772   9.800 -0.4286 -0.2150 -1.0303
   84MOL0     C11217   5.799   5.909   9.809 -0.1362 -1.2262 -0.8398
   84MOL0     C11218   5.892   6.016   9.854 -0.5018 -0.3503  0.1771
   84MOL0     C11219   6.008   6.044   9.755 -0.4862 -0.0515  0.3980
   84MOL0     C11220   5.961   6.065   9.614  0.3495  0.5598 -0.0671
   84MOL0     C11221   5.854   6.181   9.585 -0.5893  0.0798 -1.0359
   84MOL0     N11222   5.778   6.154   9.461  0.2707 -0.3076 -0.5722
   84MOL0     C11223   5.829   6.132   9.334  0.1620 -0.3037  0.2368
   84MOL0     C11224   5.728   6.076   9.263  0.4074 -0.5022  0.0239
   84MOL0     C11225   5.733   6.064   9.116  0.5833  0.1217  1.2048
   84MOL0     C11226   5.624   6.158   9.054 -0.5208 -0.1043  0.3768
   84MOL0     C11227   5.587   6.103   8.919  0.7340  0.9786 -1.3266
   84MOL0     C11228   5.613   6.203   8.803  0.0731 -1.1969 -0.1667
   84MOL0     O11229   5.751   6.210   8.794  0.2808  0.5384  0.3787
   84MOL0     C11230   5.811   6.264   8.678  0.0337 -0.3227  0.6464
   84MOL0     C11231   5.950   6.277   8.658  0.5283  0.2622 -0.9075
   84MOL0     C11232   6.003   6.333   8.543  0.2657 -0.0063  0.2132
   84MOL0     C11233   6.156   6.323   8.527  0.1525  0.1311 -0.5291
   84MOL0     C11234   5.921   6.379   8.430  0.7451  0.6386 -0.1364
   84MOL0     C11235   5.966   6.442   8.304 -0.6600 -0.2750  0.5175
   84MOL0     O11236   5.894   6.549   8.255 -0.5271 -0.3903  0.3968
   84MOL0     C11237   5.962   6.647   8.187 -0.2389 -0.8903  0.4510
   84MOL0     C11238   5.951   6.780   8.223 -0.0357  0.2086  0.4944
   84MOL0     C11239   6.038   6.876   8.170  0.2943 -0.2526  0.0701
   84MOL0     C11240   6.119   6.847   8.060  0.0498  0.4362  0.2049
   84MOL0     O11241   6.215   6.937   8.024  0.9364 -1.1962 -0.4938
   84MOL0     C11242   6.348   6.892   8.027  0.2832 -0.6291 -0.3389
   84MOL0     C11243   6.438   7.010   8.015 -1.1772  0.1720 -0.7158
   84MOL0     C11244   6.583   6.974   8.027 -0.7302 -0.2071  0.6206
   84MOL0     C11245   6.673   7.096   7.997 -1.3492 -0.1985  0.5769
   84MOL0     C11246   6.814   7.043   7.965  0.1040  0.4769 -0.2708
   84MOL0     C11247   6.890   7.163   7.928  0.2067  0.6218 -0.3424
   84MOL0     C11248   6.965   7.238   8.045  0.0252 -0.6194  0.0816
   84MOL0     C11249   7.024   7.374   8.002 -0.7600 -0.2324 -0.4889
   84MOL0    Cl11250   7.195   7.370   8.063  0.2160  0.3433 -0.6533
   84MOL0     C11251   6.135   6.711   8.014  0.0604 -0.2055  0.4091
   84MOL0     C11252   6.048   6.617   8.071 -0.0717 -0.1154 -0.4554
   84MOL0     O11253   6.068   6.390   8.260 -0.4108 -0.7649  0.1029
   84MOL0     C11254   5.789   6.366   8.446  0.6633  0.1683 -0.7301
   84MOL0     C11255   5.735   6.312   8.563 -0.2644 -0.1934  1.0982
   84MOL0     N11256   5.622   6.055   9.347  0.5260 -0.9747  0.7685
   84MOL0     N11257   5.652   6.100   9.461 -1.1852 -0.5296  0.8210
   84MOL0     C11258   5.903   5.740   9.331  0.0111 -0.8609 -0.1092
   84MOL0     C11259   5.994   5.806   9.259 -0.4934  0.4592  0.3430
   84MOL0     C11260   6.442   5.977   9.202  0.3605 -0.7947  0.5185
   84MOL0     C11261   6.479   5.900   9.097  0.2976  0.8649  0.3802
   84MOL0     C11262   6.588   5.927   9.011 -0.8349 -0.2769  0.8652
   84MOL0     C11263   6.673   6.042   9.036  0.3596 -0.1643 -0.0779
   84MOL0     O11264   6.773   6.091   8.959 -0.2029 -0.6927 -0.6016
   84MOL0     C11265   6.786   6.055   8.820  0.2010 -0.7531 -0.5926
   84MOL0     C11266   6.875   6.170   8.750  0.0608  0.0621 -0.4780
   84MOL0     C11267   7.032   6.167   8.765  0.4941 -0.0205  0.1898
   84MOL0     C11268   7.097   6.219   8.638  0.0054  0.2752 -0.5847
   84MOL0     C11269   7.085   6.131   8.520  0.1364  0.6862 -0.4144
   84MOL0     C11270   7.074   6.058   8.422 -0.7682  0.7509 -0.6532
   84MOL0     C11271   6.632   6.118   9.144 -0.4376  0.1141 -0.5123
   84MOL0     C11272   6.519   6.091   9.227  0.2593 -0.2476 -0.1158
   84MOL0     H11273   6.282   5.718   9.423  1.6858  1.7002 -4.7896
   84MOL0     H11274   6.076   5.604   9.574  0.9633  1.7225  0.7511
   84MOL0     H11275   5.739   5.782   9.551 -1.9180  0.8473  0.8798
   84MOL0     H11276   5.645   5.636   9.562  0.3361 -0.9033  0.2808
   84MOL0     H11277   5.674   5.686   9.803 -0.1086 -2.3672  1.4402
   84MOL0     H11278   5.808   5.568   9.767 -0.0868 -0.4231 -1.9538
   84MOL0     H11279   5.902   5.745   9.899  1.6096  3.5172 -0.5867
   84MOL0     H11280   5.957   5.774   9.741 -0.1166 -0.1059 -0.5393
   84MOL0     H11281   5.766   5.925   9.706  2.3904 -1.7923 -1.8245
   84MOL0     H11282   5.715   5.902   9.879  0.0703  1.2544 -0.2563
   84MOL0     H11283   5.841   6.112   9.865  1.2831  0.5752  0.7540
   84MOL0     H11284   5.927   5.992   9.955  1.2573  0.9619 -0.0658
   84MOL0     H11285   6.065   6.132   9.784 -1.7584  0.3994  1.6629
   84MOL0     H11286   6.079   5.961   9.756 -0.1546  0.2161 -0.5447
   84MOL0     H11287   6.054   6.091   9.563  0.0710  0.4875 -0.6218
   84MOL0     H11288   5.930   5.973   9.562 -0.7327  0.8354  0.0741
   84MOL0     H11289   5.902   6.279   9.592  0.7451 -0.6286  0.3626
   84MOL0     H11290   5.779   6.184   9.664  0.6935 -0.1776  0.2495
   84MOL0     H11291   5.924   6.170   9.297  1.8228 -2.3175  2.1611
   84MOL0     H11292   5.822   6.098   9.062  1.0749 -2.6696  0.0809
   84MOL0     H11293   5.732   5.956   9.096  1.6890  0.1381  1.0210
   84MOL0     H11294   5.665   6.260   9.049  2.9581 -1.3506  0.6205
   84MOL0     H11295   5.539   6.160   9.122 -0.0927  3.0710  0.9747
   84MOL0     H11296   5.481   6.080   8.919  1.0457 -1.3662  2.7807
   84MOL0     H11297   5.626   6.001   8.907  0.4492  0.7558 -0.3919
   84MOL0     H11298   5.571   6.303   8.819 -0.3855 -1.2106 -1.1865
   84MOL0     H11299   5.560   6.163   8.716  0.4168 -2.5409  0.2251
   84MOL0     H11300   6.016   6.258   8.742  2.8586  0.7149 -2.5513
   84MOL0     H11301   6.206   6.326   8.624  1.3764  2.7972 -1.1724
   84MOL0     H11302   6.171   6.230   8.471  3.3216 -0.0291  0.3913
   84MOL0     H11303   6.189   6.404   8.462 -3.6265  1.3685 -1.1275
   84MOL0     H11304   5.884   6.800   8.306 -1.1683 -0.4713 -0.2378
   84MOL0     H11305   6.035   6.976   8.213  1.3299  0.7715 -2.0801
   84MOL0     H11306   6.372   6.839   8.120  1.1829  1.7917  0.9000
   84MOL0     H11307   6.371   6.834   7.937  2.0608 -3.3115  1.6784
   84MOL0     H11308   6.434   7.045   7.912  1.2544 -0.9821 -1.2594
   84MOL0     H11309   6.418   7.093   8.084  4.5127  1.8758 -0.6493
   84MOL0     H11310   6.608   6.902   7.950 -0.0189  2.8800 -2.2502
   84MOL0     H11311   6.606   6.931   8.125 -2.2745 -0.9859  0.6689
   84MOL0     H11312   6.637   7.138   7.903  2.2303  0.8613 -0.4538
   84MOL0     H11313   6.682   7.171   8.076  0.7899 -0.3207  0.5012
   84MOL0     H11314   6.811   6.975   7.878 -0.3770 -1.1802  0.9857
   84MOL0     H11315   6.853   6.971   8.038 -0.2159 -1.0086 -1.4919
   84MOL0     H11316   6.964   7.125   7.857  1.3067 -0.1835  1.1620
   84MOL0     H11317   6.842   7.239   7.865  2.8839  2.7067 -0.0706
   84MOL0     H11318   7.051   7.175   8.071  0.8830 -1.3725 -3.9242
   84MOL0     H11319   6.899   7.250   8.132  0.1988  0.0006  0.1264
   84MOL0     H11320   6.977   7.460   8.050  3.3125  1.2765  1.2067
   84MOL0     H11321   7.014   7.382   7.893  1.8231  3.3104 -0.6502
   84MOL0     H11322   6.200   6.687   7.931  1.2012  0.3186  1.1255
   84MOL0     H11323   6.070   6.513   8.047  1.2608  0.1290 -0.3561
   84MOL0     H11324   5.719   6.395   8.369 -1.4361  0.2739  1.1143
   84MOL0     H11325   5.627   6.321   8.555 -0.0549  2.6007  0.2662
   84MOL0     H11326   5.802   5.745   9.291 -0.8025  0.2674  1.9315
   84MOL0     H11327   5.962   5.879   9.185  0.9863  1.0853  0.2797
   84MOL0     H11328   6.421   5.811   9.076 -0.8892  1.9737 -1.2557
   84MOL0     H11329   6.596   5.865   8.923 -2.0808  0.3417  0.2966
   84MOL0     H11330   6.844   5.962   8.817 -0.2221 -1.1014  1.0705
   84MOL0     H11331   6.686   6.041   8.778 -0.3541  0.4874  0.2609
   84MOL0     H11332   6.819   6.261   8.772  0.4930  0.1126  0.4947
   84MOL0     H11333   6.853   6.156   8.644  1.2507  0.3040 -0.7685
   84MOL0     H11334   7.056   6.061   8.770 -1.0805 -0.5245 -1.7412
   84MOL0     H11335   7.073   6.218   8.853 -1.4062 -0.6371  1.4956
   84MOL0     H11336   7.202   6.241   8.661  0.7146 -2.1686 -1.1528
   84MOL0     H11337   7.054   6.314   8.607  1.9257  0.4047 -3.1741
   84MOL0     H11338   7.082   5.988   8.340  0.1640 -1.1901  1.0017
   84MOL0     H11339   6.686   6.209   9.170  3.1706 -2.0643  0.2891
   84MOL0     H11340   6.494   6.172   9.296 -1.2327  0.3260 -1.2625
   85MOL0     O11341   0.662   7.204   2.502  0.7615 -0.5169 -0.2528
   85MOL0     C11342   0.596   7.203   2.394 -0.3432  0.5100 -0.7397
   85MOL0     O11343   0.526   7.307   2.332  0.0388  0.4223  0.2081
   85MOL0     C11344   0.505   7.421   2.418 -0.0670 -0.5016  0.9225
   85MOL0     C11345   0.465   7.412   2.547  0.1940 -0.2676 -0.8521
   85MOL0     C11346   0.436   7.529   2.633 -0.1643  0.0149  1.0282
   85MOL0     C11347   0.447   7.663   2.573  0.0591  0.3942 -0.2469
   85MOL0     O11348   0.405   7.769   2.643 -0.2432  0.0112  0.6298
   85MOL0     C11349   0.501   7.793   2.742 -0.0817  0.2813 -0.3019
   85MOL0     C11350   0.411   7.881   2.833  0.4858 -0.2509 -0.3803
   85MOL0     C11351   0.313   7.794   2.925 -0.7189  0.0106  1.1615
   85MOL0     C11352   0.217   7.873   3.014  0.2249 -1.1423 -0.0124
   85MOL0     C11353   0.120   7.965   2.940 -1.0242 -0.7543  1.2456
   85MOL0     C11354   0.024   8.014   3.047 -0.7630 -0.3460 -0.1383
   85MOL0     C11355  -0.072   8.125   2.982  0.4689  0.3611  0.1292
   85MOL0     C11356  -0.135   8.209   3.090  0.1636  0.0872 -0.3855
   85MOL0     N11357  -0.167   8.344   3.036 -0.4125 -0.2914 -0.0108
   85MOL0     C11358  -0.246   8.363   2.932  0.4672 -0.1886  0.4139
   85MOL0     C11359  -0.243   8.500   2.917  0.3463 -0.1963 -0.8671
   85MOL0     C11360  -0.292   8.584   2.811  0.1149  0.0718 -0.0941
   85MOL0     C11361  -0.439   8.592   2.794  0.7601  0.2242  0.0871
   85MOL0     C11362  -0.497   8.482   2.693  0.2151 -0.2741 -0.1453
   85MOL0     C11363  -0.651   8.456   2.697  0.5073  0.5852 -0.4569
   85MOL0     O11364  -0.728   8.567   2.751 -0.2092 -0.1971  0.0811
   85MOL0     C11365  -0.745   8.680   2.674  0.7709  1.1237  0.8701
   85MOL0     C11366  -0.719   8.699   2.539 -0.5162  0.1135 -0.8633
   85MOL0     C11367  -0.767   8.807   2.461 -0.1861 -1.2615 -0.1321
   85MOL0     C11368  -0.752   8.801   2.315  0.0222 -0.1068  0.5553
   85MOL0     C11369  -0.837   8.909   2.530 -0.9369  0.6106 -1.0933
   85MOL0     C11370  -0.895   9.033   2.474  0.0435  0.5256  0.2221
   85MOL0     O11371  -1.012   9.076   2.544 -0.0643  0.4887  0.5713
   85MOL0     C11372  -1.054   9.210   2.548 -0.3842 -0.5216 -0.6658
   85MOL0     C11373  -1.189   9.237   2.583 -0.1592  0.4743 -0.0568
   85MOL0     C11374  -1.244   9.361   2.594 -0.5202 -0.6077 -0.5115
   85MOL0     C11375  -1.165   9.469   2.548  0.4489  0.9934  0.3213
   85MOL0     O11376  -1.234   9.591   2.544  0.3224  0.5979 -0.4569
   85MOL0     C11377  -1.152   9.713   2.532  0.5717  0.7541 -0.5645
   85MOL0     C11378  -1.250   9.827   2.516  0.5124  0.0330 -0.3436
   85MOL0     C11379  -1.311   9.881   2.636 -0.5960 -0.1437 -0.0844
   85MOL0     C11380  -1.207   9.970   2.713 -0.3130  0.8073  0.3554
   85MOL0     C11381  -1.275  10.033   2.836 -0.0483  0.3748  0.0269
   85MOL0     C11382  -1.185  10.144   2.900 -0.1962 -0.3849 -0.7437
   85MOL0     C11383  -1.244  10.197   3.025 -0.5499 -0.8548 -0.4708
   85MOL0     C11384  -1.164  10.318   3.083  1.0154 -0.0875  0.6575
   85MOL0    Cl11385  -0.993  10.287   3.103  0.2388 -0.0228  0.0306
   85MOL0     C11386  -1.034   9.448   2.511  0.3835  0.6567  0.7205
   85MOL0     C11387  -0.984   9.317   2.508  0.1689  0.3028  0.2724
   85MOL0     O11388  -0.829   9.097   2.392  0.3279 -0.3793  0.7155
   85MOL0     C11389  -0.847   8.898   2.671 -0.3197 -0.3313  0.7305
   85MOL0     C11390  -0.805   8.783   2.743  0.5307  0.2442 -0.1216
   85MOL0     N11391  -0.149   8.555   3.008 -0.5965  0.3739 -0.2465
   85MOL0     N11392  -0.109   8.459   3.083 -0.9916 -0.0953  1.3051
   85MOL0     C11393   0.488   7.671   2.432  0.6586  1.1518  0.0867
   85MOL0     C11394   0.517   7.546   2.364 -0.0025  0.3449  1.1961
   85MOL0     C11395   0.585   7.062   2.328  0.1945 -0.4895  0.1127
   85MOL0     C11396   0.484   7.028   2.244  0.1805  0.6415  0.0806
   85MOL0     C11397   0.472   6.901   2.184 -0.0146  0.1187  0.6565
   85MOL0     C11398   0.565   6.797   2.217 -0.9452 -0.3060  0.5742
   85MOL0     O11399   0.538   6.667   2.173 -0.4234 -0.8061  0.4815
   85MOL0     C11400   0.624   6.558   2.216  0.2720 -0.5542  0.6443
   85MOL0     C11401   0.590   6.420   2.151  0.2175 -0.5525  0.7587
   85MOL0     C11402   0.449   6.372   2.196  0.0564  0.4387 -0.1212
   85MOL0     C11403   0.432   6.238   2.143 -0.1566 -0.3442  0.0452
   85MOL0     C11404   0.318   6.177   2.209  0.5134  0.5622 -0.3473
   85MOL0     C11405   0.226   6.133   2.276  0.4398 -0.4110  0.4064
   85MOL0     C11406   0.672   6.839   2.302 -0.3109 -0.3440  0.2218
   85MOL0     C11407   0.677   6.968   2.361 -0.5034 -0.7849  0.5249
   85MOL0     H11408   0.447   7.314   2.590  2.7218  0.1243  1.4075
   85MOL0     H11409   0.422   7.509   2.739  1.1228 -3.5098  0.6505
   85MOL0     H11410   0.536   7.706   2.798  3.5583  1.5709 -0.3331
   85MOL0     H11411   0.594   7.845   2.718 -0.7704  0.8254 -1.9772
   85MOL0     H11412   0.477   7.944   2.893  2.1732  1.3434 -3.6408
   85MOL0     H11413   0.352   7.953   2.775  0.3408  0.6433  0.8354
   85MOL0     H11414   0.251   7.725   2.866 -0.5681  2.0171 -1.5798
   85MOL0     H11415   0.373   7.734   2.993 -1.1070 -1.0874  0.5552
   85MOL0     H11416   0.152   7.797   3.058 -2.0901  0.4525 -0.5287
   85MOL0     H11417   0.273   7.923   3.094  1.2306 -1.8587 -0.2384
   85MOL0     H11418   0.167   8.055   2.900  0.5764 -0.6921  3.1093
   85MOL0     H11419   0.067   7.909   2.862 -1.5610  1.0814  0.2397
   85MOL0     H11420  -0.033   7.928   3.084  1.0089 -1.1923  0.7553
   85MOL0     H11421   0.088   8.046   3.130  1.9721  0.1973 -2.2808
   85MOL0     H11422  -0.006   8.176   2.911  2.7302 -2.8716 -0.2811
   85MOL0     H11423  -0.143   8.073   2.917  2.8010 -2.4362 -0.3905
   85MOL0     H11424  -0.067   8.232   3.173 -0.0709  1.6471 -0.5997
   85MOL0     H11425  -0.218   8.156   3.138 -0.3533 -0.4853 -1.8428
   85MOL0     H11426  -0.294   8.284   2.876  1.9506 -0.4676 -0.5315
   85MOL0     H11427  -0.264   8.686   2.837 -3.0441  1.5556 -1.9257
   85MOL0     H11428  -0.254   8.554   2.713 -1.2778  1.1375 -1.0005
   85MOL0     H11429  -0.471   8.696   2.781 -1.5377 -0.0162  2.7351
   85MOL0     H11430  -0.481   8.576   2.894 -0.9044  1.4876 -0.3639
   85MOL0     H11431  -0.447   8.388   2.717  1.3145 -0.1941 -1.9448
   85MOL0     H11432  -0.464   8.497   2.590 -1.2675 -2.2860 -0.9715
   85MOL0     H11433  -0.679   8.369   2.758 -2.6329  0.2205 -2.2473
   85MOL0     H11434  -0.683   8.432   2.595 -2.6764 -1.5291  0.8759
   85MOL0     H11435  -0.690   8.615   2.477 -0.5748 -0.6309  0.0935
   85MOL0     H11436  -0.653   8.830   2.279 -0.9215  3.5074  0.5084
   85MOL0     H11437  -0.772   8.695   2.296  0.0576 -0.2530  1.3030
   85MOL0     H11438  -0.829   8.865   2.273  1.8121  2.0525  0.3842
   85MOL0     H11439  -1.249   9.150   2.603  0.9124 -1.0174 -2.8191
   85MOL0     H11440  -1.351   9.381   2.598 -0.5154  2.2716 -5.6626
   85MOL0     H11441  -1.085   9.723   2.618 -1.2769  0.2996  0.9819
   85MOL0     H11442  -1.092   9.704   2.440  0.2295 -0.0769 -0.7131
   85MOL0     H11443  -1.205   9.903   2.452  0.4338  0.6382  0.3024
   85MOL0     H11444  -1.340   9.786   2.471  0.6094 -1.3256  0.6403
   85MOL0     H11445  -1.333   9.794   2.698  4.9241 -2.3751 -0.6961
   85MOL0     H11446  -1.402   9.937   2.610 -2.3362 -2.8724 -0.3049
   85MOL0     H11447  -1.117   9.908   2.729 -0.9471  0.0472  1.0780
   85MOL0     H11448  -1.175  10.055   2.652  2.5474 -1.9818 -2.4507
   85MOL0     H11449  -1.298   9.948   2.901  1.3602  0.8009  1.1430
   85MOL0     H11450  -1.372  10.078   2.813 -1.6537 -1.9053  1.8737
   85MOL0     H11451  -1.093  10.091   2.924 -0.5164 -0.1316  1.1598
   85MOL0     H11452  -1.173  10.233   2.837  0.6170  0.6180  0.7950
   85MOL0     H11453  -1.242  10.116   3.098 -2.6097 -1.3612 -0.9188
   85MOL0     H11454  -1.353  10.206   3.016 -0.4514  1.0748 -0.0588
   85MOL0     H11455  -1.212  10.336   3.180 -0.9259  1.5810 -0.5522
   85MOL0     H11456  -1.174  10.403   3.016  0.1083 -1.1742 -0.6362
   85MOL0     H11457  -0.982   9.534   2.469 -1.5665  1.2438 -0.6011
   85MOL0     H11458  -0.887   9.299   2.463 -0.5709 -1.7299 -0.6239
   85MOL0     H11459  -0.883   8.984   2.727 -4.0222  0.4102 -2.3585
   85MOL0     H11460  -0.827   8.781   2.849  2.1240  0.6177  0.2493
   85MOL0     H11461   0.488   7.765   2.379  1.5037  1.4918  0.6501
   85MOL0     H11462   0.542   7.547   2.259  1.2001 -1.8638  1.4010
   85MOL0     H11463   0.403   7.094   2.213 -0.3800 -0.1083 -0.0764
   85MOL0     H11464   0.384   6.883   2.122  0.8374  1.2515 -0.9616
   85MOL0     H11465   0.727   6.586   2.193  0.1334  1.3696  2.1163
   85MOL0     H11466   0.624   6.543   2.325 -1.0414  0.1502  0.7709
   85MOL0     H11467   0.663   6.343   2.177  1.3143 -0.0458 -0.7174
   85MOL0     H11468   0.604   6.427   2.043  2.8134  0.2516  1.0946
   85MOL0     H11469   0.382   6.446   2.153  2.1223  1.4771 -1.7408
   85MOL0     H11470   0.440   6.365   2.305 -6.8413  1.4356 -0.1889
   85MOL0     H11471   0.521   6.176   2.158 -0.5320 -0.7565  0.6438
   85MOL0     H11472   0.403   6.249   2.038 -0.4009  1.2064  0.2475
   85MOL0     H11473   0.140   6.085   2.317 -2.2317  1.9410 -2.0258
   85MOL0     H11474   0.751   6.768   2.323 -1.4300 -1.6434  0.1272
   85MOL0     H11475   0.758   6.991   2.429 -0.3856 -2.3471  0.9517
   86MOL0     O11476   8.404   0.436   7.897 -0.2833  0.1644 -0.6365
   86MOL0     C11477   8.473   0.343   7.929 -0.3765  0.0558  0.1705
   86MOL0     O11478   8.585   0.350   8.010 -0.4035 -0.8839  0.2434
   86MOL0     C11479   8.699   0.397   7.954 -0.2781  0.5395  1.2254
   86MOL0     C11480   8.794   0.421   8.045 -1.0737 -0.6473  0.2534
   86MOL0     C11481   8.922   0.454   8.001  0.8965 -0.3456 -0.0520
   86MOL0     C11482   8.957   0.460   7.872 -0.5839  0.4316  0.5013
   86MOL0     O11483   9.092   0.473   7.829  0.7288  0.6508 -0.5908
   86MOL0     C11484   9.171   0.576   7.889  0.3914 -0.4970 -0.3317
   86MOL0     C11485   9.306   0.519   7.923 -1.0459  0.0038  1.0242
   86MOL0     C11486   9.323   0.388   8.013 -0.3798 -0.3915  0.2703
   86MOL0     C11487   9.460   0.388   8.061 -0.3638 -0.2470 -0.0682
   86MOL0     C11488   9.471   0.427   8.214 -0.6686  0.8748 -0.3804
   86MOL0     C11489   9.607   0.467   8.254 -0.8157  1.4568 -0.8961
   86MOL0     C11490   9.706   0.350   8.240 -0.6309  0.5456  0.6016
   86MOL0     C11491   9.727   0.275   8.374  0.8505 -0.0648 -0.0065
   86MOL0     N11492   9.604   0.205   8.430 -0.2757  0.1914 -0.4595
   86MOL0     C11493   9.548   0.086   8.389  0.1706 -0.1602 -0.5956
   86MOL0     C11494   9.444   0.062   8.472 -0.3457  0.1155 -0.5672
   86MOL0     C11495   9.355  -0.065   8.464  0.0534  0.1117 -0.4801
   86MOL0     C11496   9.336  -0.142   8.603  0.2824 -0.0243  0.4121
   86MOL0     C11497   9.223  -0.244   8.590  0.2908  0.8534 -0.6689
   86MOL0     C11498   9.223  -0.340   8.716 -0.8779 -0.3557 -0.6213
   86MOL0     O11499   9.160  -0.254   8.817  0.0366 -0.3677 -0.4455
   86MOL0     C11500   9.150  -0.300   8.942 -0.0253 -0.2249 -0.2621
   86MOL0     C11501   9.198  -0.429   8.987  0.8217  0.5975 -0.2320
   86MOL0     C11502   9.180  -0.474   9.122  0.0402  0.2854 -0.1503
   86MOL0     C11503   9.200  -0.621   9.154  0.7271  0.4550  0.1046
   86MOL0     C11504   9.140  -0.380   9.217 -0.1508 -1.2622  0.8013
   86MOL0     C11505   9.150  -0.400   9.360  0.1585  0.1429 -0.1363
   86MOL0     O11506   9.046  -0.364   9.448  0.1172  0.5434  0.2493
   86MOL0     C11507   9.093  -0.339   9.569 -0.5167  0.3750  0.2995
   86MOL0     C11508   9.004  -0.379   9.673 -0.2075  0.4974 -0.1946
   86MOL0     C11509   9.018  -0.341   9.807  0.6990  0.4161  1.0467
   86MOL0     C11510   9.123  -0.257   9.847 -0.5117 -0.3875 -0.1082
   86MOL0     O11511   9.138  -0.201   9.977 -0.5389  1.2795  0.1908
   86MOL0     C11512   9.068  -0.264  10.081 -0.1661  0.3697 -0.2872
   86MOL0     C11513   9.136  -0.221  10.219  0.4735 -0.3159 -0.8008
   86MOL0     C11514   9.159  -0.068  10.227 -0.8000 -0.1438  0.6753
   86MOL0     C11515   9.217  -0.010  10.362  0.5843 -0.2138 -1.5491
   86MOL0     C11516   9.088   0.014  10.446  1.0444  1.1878  0.0590
   86MOL0     C11517   9.113   0.038  10.601 -0.0767 -0.2586 -1.2252
   86MOL0     C11518   8.981   0.036  10.679 -0.3621  0.3614 -0.0884
   86MOL0     C11519   8.989   0.076  10.829 -0.7824 -0.3708 -0.8080
   86MOL0    Cl11520   9.080   0.228  10.872  0.3279  0.1645 -0.6538
   86MOL0     C11521   9.214  -0.212   9.745 -0.6966  0.3218 -0.0152
   86MOL0     C11522   9.208  -0.268   9.614  0.7878 -0.0269  1.3851
   86MOL0     O11523   9.264  -0.449   9.383 -0.2266  0.5478  0.8608
   86MOL0     C11524   9.098  -0.249   9.171  0.3251  0.5624  0.4268
   86MOL0     C11525   9.104  -0.212   9.036  0.6363 -0.4682 -0.6207
   86MOL0     N11526   9.448   0.163   8.562 -0.7012  0.2943 -0.0955
   86MOL0     N11527   9.537   0.251   8.530 -0.7154  0.5687  0.2146
   86MOL0     C11528   8.862   0.445   7.778 -1.3357 -0.3120  0.3724
   86MOL0     C11529   8.732   0.405   7.813 -0.0860  0.8189  0.2423
   86MOL0     C11530   8.444   0.207   7.865 -0.0869 -0.3398  0.2054
   86MOL0     C11531   8.547   0.106   7.845  1.4015 -0.1729  0.4935
   86MOL0     C11532   8.522  -0.024   7.790 -0.6327 -0.2221  0.2071
   86MOL0     C11533   8.396  -0.053   7.737 -0.1114 -0.2263  1.0439
   86MOL0     O11534   8.378  -0.183   7.684 -0.7439  0.5480 -0.8495
   86MOL0     C11535   8.250  -0.218   7.640  0.1089  0.2429  0.5335
   86MOL0     C11536   8.188  -0.319   7.730  1.0523 -0.2400 -1.0322
   86MOL0     C11537   8.157  -0.259   7.867  0.1610 -0.9881 -0.0564
   86MOL0     C11538   8.115  -0.364   7.965 -0.8412 -0.4414 -0.7595
   86MOL0     C11539   8.053  -0.315   8.088 -1.0979 -0.1468 -0.0325
   86MOL0     C11540   7.993  -0.270   8.185 -0.6670 -0.6481  0.2515
   86MOL0     C11541   8.295   0.040   7.755 -0.8613 -0.7241 -0.3333
   86MOL0     C11542   8.326   0.171   7.811  0.1443 -0.2760 -1.0237
   86MOL0     H11543   8.769   0.397   8.148 -1.8306 -0.7538  0.0544
   86MOL0     H11544   9.002   0.456   8.074  1.5493 -1.1553 -0.7134
   86MOL0     H11545   9.177   0.661   7.820  1.8905  0.7719  1.2511
   86MOL0     H11546   9.134   0.617   7.983 -0.7911  0.0277 -1.0099
   86MOL0     H11547   9.368   0.520   7.833 -1.5166  1.9728  0.6715
   86MOL0     H11548   9.338   0.606   7.981 -1.4143  1.9775 -1.5180
   86MOL0     H11549   9.244   0.380   8.088  1.2045  3.0927  2.6124
   86MOL0     H11550   9.335   0.303   7.945  1.0863  1.0784 -1.4292
   86MOL0     H11551   9.513   0.293   8.054  3.4291  1.2358  3.5380
   86MOL0     H11552   9.529   0.459   8.013  1.5725 -0.2195  2.5139
   86MOL0     H11553   9.406   0.513   8.235  0.1523  1.2084  0.9153
   86MOL0     H11554   9.434   0.349   8.282 -2.2021  1.0820 -0.9458
   86MOL0     H11555   9.638   0.551   8.191 -0.5997  2.4439  0.4537
   86MOL0     H11556   9.599   0.502   8.358 -3.7957 -0.1768 -0.4648
   86MOL0     H11557   9.676   0.279   8.163 -1.2232  1.6860 -0.2532
   86MOL0     H11558   9.806   0.379   8.209  0.1019 -0.8392  1.5565
   86MOL0     H11559   9.768   0.340   8.452  3.1432 -1.0259 -0.3407
   86MOL0     H11560   9.801   0.198   8.353 -2.3115 -2.5002 -3.6921
   86MOL0     H11561   9.584   0.023   8.308  0.5772 -0.7755  0.0564
   86MOL0     H11562   9.251  -0.046   8.436 -0.0838 -0.9338 -0.7065
   86MOL0     H11563   9.394  -0.130   8.385  3.2264 -0.7262  1.5640
   86MOL0     H11564   9.312  -0.078   8.688 -0.8699 -0.3875  0.3791
   86MOL0     H11565   9.427  -0.191   8.638 -0.8685 -2.4431  0.2098
   86MOL0     H11566   9.231  -0.312   8.505 -2.3976 -0.4610  0.0162
   86MOL0     H11567   9.127  -0.191   8.588  0.3130  0.8961 -0.6309
   86MOL0     H11568   9.325  -0.373   8.736 -0.6781  0.4493 -0.2400
   86MOL0     H11569   9.172  -0.435   8.699 -1.9903  0.0223  0.4426
   86MOL0     H11570   9.240  -0.492   8.910 -0.4338 -1.8723  0.9956
   86MOL0     H11571   9.307  -0.639   9.142  0.0632 -2.6371 -2.5582
   86MOL0     H11572   9.159  -0.658   9.248  0.2922 -1.6111 -0.8297
   86MOL0     H11573   9.148  -0.675   9.074 -0.7006  1.8512  0.0406
   86MOL0     H11574   8.926  -0.446   9.639  0.1904  0.8395 -1.8761
   86MOL0     H11575   8.938  -0.373   9.873 -1.8828  1.9578 -1.1262
   86MOL0     H11576   8.965  -0.228  10.074  0.1324  1.0546 -1.3376
   86MOL0     H11577   9.059  -0.372  10.063  1.0249  0.0887  0.7049
   86MOL0     H11578   9.074  -0.244  10.307  1.9474 -0.2612  0.2970
   86MOL0     H11579   9.228  -0.279  10.230 -0.8050 -2.8125 -2.3552
   86MOL0     H11580   9.061  -0.024  10.207 -0.6259 -0.1056 -0.1308
   86MOL0     H11581   9.228  -0.047  10.144 -0.7656 -2.6358 -0.0051
   86MOL0     H11582   9.285  -0.079  10.412  0.5129  0.9301  0.2124
   86MOL0     H11583   9.268   0.086  10.356 -0.0523  0.0883 -2.2445
   86MOL0     H11584   9.030  -0.079  10.442  2.5186  0.2694 -1.8311
   86MOL0     H11585   9.028   0.091  10.397 -1.0585  1.1657  2.3814
   86MOL0     H11586   9.183  -0.035  10.643  0.3593  1.3310  0.9651
   86MOL0     H11587   9.147   0.142  10.610 -0.3625 -0.2937  0.7283
   86MOL0     H11588   8.946  -0.067  10.674 -2.4116  0.9958  0.1235
   86MOL0     H11589   8.912   0.101  10.624 -0.5965 -1.5176 -2.1465
   86MOL0     H11590   9.043  -0.003  10.882 -2.7556  0.3666  2.6153
   86MOL0     H11591   8.898   0.084  10.889  1.0135  2.3597  1.8519
   86MOL0     H11592   9.293  -0.141   9.769  0.9064 -1.3718 -0.0497
   86MOL0     H11593   9.290  -0.242   9.549  0.1239  0.5964  0.7806
   86MOL0     H11594   9.067  -0.176   9.245 -0.9343 -1.9492  2.5477
   86MOL0     H11595   9.067  -0.114   9.006  1.6905 -0.5468 -2.3106
   86MOL0     H11596   8.873   0.453   7.671 -1.8878  3.4630  0.4447
   86MOL0     H11597   8.660   0.394   7.732 -0.4924  1.3185  0.5250
   86MOL0     H11598   8.649   0.123   7.879  2.6340  0.8541 -3.2336
   86MOL0     H11599   8.597  -0.102   7.778 -0.5286  0.2163 -2.7228
   86MOL0     H11600   8.178  -0.139   7.620 -1.9259 -1.7881 -0.6977
   86MOL0     H11601   8.255  -0.272   7.545 -1.4618  1.7068 -0.4321
   86MOL0     H11602   8.255  -0.403   7.751 -1.8311 -2.0919  1.7774
   86MOL0     H11603   8.107  -0.365   7.671  1.8418 -0.4835 -1.9452
   86MOL0     H11604   8.085  -0.177   7.858  1.9524  0.5437 -1.1445
   86MOL0     H11605   8.253  -0.223   7.906  0.3864 -1.4606 -0.1530
   86MOL0     H11606   8.206  -0.422   7.983 -0.0996  0.3687 -1.7871
   86MOL0     H11607   8.042  -0.434   7.926 -3.5524  0.2888  2.5204
   86MOL0     H11608   7.930  -0.220   8.255 -0.2989  2.4704 -1.4882
   86MOL0     H11609   8.194   0.033   7.717 -1.4668 -0.2075  1.1296
   86MOL0     H11610   8.251   0.245   7.839 -0.2940 -0.2281 -2.2573
   87MOL0     O11611   4.514   6.681   6.758  0.1858 -0.4817  0.9469
   87MOL0     C11612   4.604   6.631   6.823  1.1068 -0.3509 -1.3439
   87MOL0     O11613   4.642   6.692   6.942 -0.2398 -0.4167  0.4928
   87MOL0     C11614   4.570   6.803   6.985  0.1183 -0.3494 -0.3377
   87MOL0     C11615   4.431   6.815   6.980 -0.6495  0.4688  0.2927
   87MOL0     C11616   4.368   6.926   7.047 -0.1831  0.1672  1.0585
   87MOL0     C11617   4.446   7.025   7.116  0.7381  0.1351 -0.0677
   87MOL0     O11618   4.387   7.138   7.177 -0.1952 -0.0843  0.5307
   87MOL0     C11619   4.427   7.253   7.089 -0.0483  0.8915  0.0234
   87MOL0     C11620   4.324   7.291   6.981 -0.1614 -0.9727 -1.0869
   87MOL0     C11621   4.179   7.292   7.026 -0.3008  0.1978  0.1010
   87MOL0     C11622   4.150   7.396   7.130  0.0728  0.1090 -0.1265
   87MOL0     C11623   3.994   7.424   7.146 -0.3141 -0.2098  0.0677
   87MOL0     C11624   3.918   7.494   7.028 -0.3101 -0.1878 -0.6191
   87MOL0     C11625   3.990   7.614   6.978 -0.6580 -0.0547  0.8381
   87MOL0     C11626   4.027   7.728   7.073 -0.0850  0.4412  0.7396
   87MOL0     N11627   4.116   7.823   7.015 -0.1224  0.0646 -0.4697
   87MOL0     C11628   4.066   7.898   6.914  0.3666 -0.4589 -0.2563
   87MOL0     C11629   4.181   7.948   6.859  0.0494 -0.1869  0.5344
   87MOL0     C11630   4.191   8.054   6.755 -0.5981  0.6877  0.6341
   87MOL0     C11631   4.236   8.186   6.813  0.1165 -0.3429 -0.1802
   87MOL0     C11632   4.249   8.290   6.698  0.0881  0.1645 -0.2588
   87MOL0     C11633   4.373   8.268   6.602  0.2546  0.4590 -1.0726
   87MOL0     O11634   4.496   8.298   6.683 -0.1277  0.5281 -0.8089
   87MOL0     C11635   4.615   8.268   6.628 -0.4563  0.1130 -0.3541
   87MOL0     C11636   4.641   8.239   6.495 -0.4145 -0.8146 -0.1497
   87MOL0     C11637   4.776   8.228   6.445  0.6382  0.3052 -0.6418
   87MOL0     C11638   4.777   8.218   6.298  0.2047 -0.4039  0.3894
   87MOL0     C11639   4.886   8.249   6.535 -1.0789  0.0808 -0.2379
   87MOL0     C11640   5.027   8.255   6.485  0.3061 -0.3761 -0.2773
   87MOL0     O11641   5.044   8.264   6.351  0.0922 -0.7105 -0.5590
   87MOL0     C11642   5.170   8.300   6.312  0.3732 -0.4390 -1.2826
   87MOL0     C11643   5.183   8.437   6.265  0.1564  1.0391 -0.3152
   87MOL0     C11644   5.305   8.484   6.225 -0.3645 -0.8053 -0.4963
   87MOL0     C11645   5.418   8.405   6.237 -0.7227 -0.1517 -0.3764
   87MOL0     O11646   5.544   8.434   6.179 -0.2293 -0.1922 -0.0546
   87MOL0     C11647   5.563   8.572   6.152 -0.4168  0.3075 -0.6712
   87MOL0     C11648   5.719   8.604   6.169  0.2518 -0.0644  0.6536
   87MOL0     C11649   5.736   8.755   6.169  0.2834  0.1190  0.1851
   87MOL0     C11650   5.704   8.821   6.306 -0.4110  1.1470  1.5170
   87MOL0     C11651   5.755   8.971   6.264 -0.5214  0.2839 -0.3157
   87MOL0     C11652   5.739   9.077   6.383 -0.1570 -0.9077 -0.5567
   87MOL0     C11653   5.831   9.075   6.507  0.0436  0.2694 -0.7336
   87MOL0     C11654   5.982   9.085   6.467 -0.3596 -0.1384  0.6308
   87MOL0    Cl11655   6.066   9.127   6.619  0.2006 -0.4637 -0.0981
   87MOL0     C11656   5.408   8.277   6.282  0.4848 -0.3731  0.1470
   87MOL0     C11657   5.288   8.232   6.325 -0.3197 -0.2952  0.3034
   87MOL0     O11658   5.119   8.229   6.567  1.4302  0.7387  0.1407
   87MOL0     C11659   4.855   8.270   6.675 -0.0758 -0.1705  0.0050
   87MOL0     C11660   4.719   8.277   6.715  0.0590 -0.7227  0.1981
   87MOL0     N11661   4.293   7.890   6.912  0.6855 -1.0838  0.0062
   87MOL0     N11662   4.257   7.811   7.007 -0.1181 -0.4295 -0.9554
   87MOL0     C11663   4.587   7.012   7.121 -0.0476  0.5288  0.2799
   87MOL0     C11664   4.647   6.895   7.060 -0.4636  1.1720 -0.7299
   87MOL0     C11665   4.676   6.509   6.780  0.7604  0.4913  0.5664
   87MOL0     C11666   4.604   6.399   6.725 -0.2691 -0.1536  0.3858
   87MOL0     C11667   4.665   6.279   6.691 -0.4441 -0.1009  0.1450
   87MOL0     C11668   4.801   6.266   6.722 -1.1619  0.5689 -0.5154
   87MOL0     O11669   4.881   6.155   6.691 -0.1736 -0.0612  0.2839
   87MOL0     C11670   4.818   6.038   6.632 -0.7041  0.4548 -0.4672
   87MOL0     C11671   4.914   5.917   6.654  0.3875 -0.1302 -0.2882
   87MOL0     C11672   4.961   5.846   6.528 -0.7544 -0.5573 -0.5070
   87MOL0     C11673   5.077   5.916   6.459 -0.9281 -0.2602  0.7426
   87MOL0     C11674   5.149   5.834   6.354 -0.8043 -0.5067 -0.0906
   87MOL0     C11675   5.227   5.775   6.280  0.0243 -1.2136 -0.1987
   87MOL0     C11676   4.874   6.375   6.773  0.4399  0.4096 -1.4719
   87MOL0     C11677   4.814   6.501   6.799  0.6196 -1.1703  0.5098
   87MOL0     H11678   4.368   6.741   6.931 -0.3230 -0.6591  1.5158
   87MOL0     H11679   4.260   6.926   7.045 -0.2366 -2.1083  0.1300
   87MOL0     H11680   4.437   7.339   7.156 -1.5236  0.4149  0.9035
   87MOL0     H11681   4.523   7.237   7.038  1.4541 -0.2412  2.9959
   87MOL0     H11682   4.362   7.389   6.950 -0.1690 -0.0547  1.5371
   87MOL0     H11683   4.320   7.221   6.897  0.6337  0.9977 -2.8741
   87MOL0     H11684   4.115   7.312   6.939 -1.5019 -0.8744  0.6988
   87MOL0     H11685   4.135   7.200   7.064 -1.6964  0.7980 -0.0084
   87MOL0     H11686   4.186   7.355   7.225 -2.4671 -0.3909  0.7071
   87MOL0     H11687   4.212   7.482   7.104  0.1709 -1.1259 -5.0793
   87MOL0     H11688   3.948   7.330   7.177 -2.5535 -0.0856 -2.4679
   87MOL0     H11689   3.985   7.497   7.226 -0.8698 -0.6691  0.4305
   87MOL0     H11690   3.908   7.420   6.949 -0.8256 -4.7235  3.2375
   87MOL0     H11691   3.820   7.530   7.062  0.2413  1.1687 -0.3724
   87MOL0     H11692   4.072   7.598   6.908 -3.1044 -1.1260 -1.9822
   87MOL0     H11693   3.905   7.659   6.926  0.1072  0.7925  0.3077
   87MOL0     H11694   4.072   7.698   7.168 -1.5030 -0.2936  1.2022
   87MOL0     H11695   3.939   7.782   7.109 -1.2393 -2.4364  2.5692
   87MOL0     H11696   3.962   7.921   6.895  0.4467 -0.8498 -1.2411
   87MOL0     H11697   4.258   8.017   6.677 -0.9411 -2.6766  1.7826
   87MOL0     H11698   4.104   8.073   6.690 -0.4409 -1.2092 -0.1998
   87MOL0     H11699   4.335   8.187   6.860  0.5130 -0.6124 -0.9871
   87MOL0     H11700   4.151   8.206   6.878 -0.8372  1.5043 -1.9045
   87MOL0     H11701   4.261   8.391   6.738 -3.1268 -0.4109  2.6590
   87MOL0     H11702   4.159   8.283   6.635 -0.5695  2.7176  0.3010
   87MOL0     H11703   4.366   8.344   6.524  0.7175  3.2207  1.3828
   87MOL0     H11704   4.364   8.165   6.566 -0.2130 -1.0833  2.9307
   87MOL0     H11705   4.567   8.210   6.420  1.8590 -0.5974 -2.6211
   87MOL0     H11706   4.779   8.315   6.248  0.1900 -0.6145 -0.0308
   87MOL0     H11707   4.867   8.163   6.270  2.2464  3.7014 -2.0313
   87MOL0     H11708   4.692   8.179   6.241 -1.7047  1.6388  1.6791
   87MOL0     H11709   5.092   8.491   6.240 -0.2314  0.1842 -0.7979
   87MOL0     H11710   5.313   8.583   6.181  2.8418 -0.6915  0.1321
   87MOL0     H11711   5.544   8.594   6.046  0.0688  3.7907 -0.1699
   87MOL0     H11712   5.508   8.636   6.223  2.0127 -0.9382  2.5585
   87MOL0     H11713   5.750   8.561   6.265 -2.9710 -0.4918  1.6299
   87MOL0     H11714   5.781   8.562   6.089  2.6401  1.6611  1.4864
   87MOL0     H11715   5.661   8.793   6.099  0.7891 -1.1845 -1.1164
   87MOL0     H11716   5.837   8.778   6.132  0.7907 -0.4211  1.1897
   87MOL0     H11717   5.597   8.820   6.330 -0.0045  0.2452  3.4766
   87MOL0     H11718   5.760   8.786   6.393  0.9276  0.9545  0.6176
   87MOL0     H11719   5.684   9.000   6.186 -2.1856  0.1417  1.0841
   87MOL0     H11720   5.858   8.967   6.229 -0.6622  0.2421 -0.7308
   87MOL0     H11721   5.739   9.178   6.341 -1.0966 -1.1213 -1.0968
   87MOL0     H11722   5.639   9.056   6.422  1.0693 -1.5942  2.4493
   87MOL0     H11723   5.819   8.985   6.567  0.4287 -1.1029 -2.6174
   87MOL0     H11724   5.797   9.153   6.575  1.2531 -0.8913  1.3261
   87MOL0     H11725   5.999   9.166   6.395  0.2796 -0.4604  0.4120
   87MOL0     H11726   6.024   8.997   6.417  0.0290 -0.5877  1.7195
   87MOL0     H11727   5.507   8.232   6.284  0.8270  0.1018 -2.5227
   87MOL0     H11728   5.283   8.133   6.371 -2.2078 -0.9934 -1.2405
   87MOL0     H11729   4.937   8.299   6.740 -1.7124  2.9270  0.9049
   87MOL0     H11730   4.695   8.292   6.820  1.2348  0.2229  0.3460
   87MOL0     H11731   4.641   7.079   7.187 -1.1593 -2.1547  4.2782
   87MOL0     H11732   4.752   6.875   7.079 -0.8289  0.5351  0.7776
   87MOL0     H11733   4.502   6.403   6.690 -0.0928  1.5486 -0.0193
   87MOL0     H11734   4.606   6.198   6.650  1.1832 -0.7303 -1.0617
   87MOL0     H11735   4.721   6.020   6.680 -0.4418  0.4295  0.0556
   87MOL0     H11736   4.786   6.065   6.531 -1.2514  1.0228 -0.1506
   87MOL0     H11737   4.860   5.841   6.711 -0.4413 -0.8052 -1.9065
   87MOL0     H11738   5.002   5.952   6.708  1.0674 -1.5669 -0.4237
   87MOL0     H11739   4.885   5.846   6.450 -0.6719  1.8179 -0.6424
   87MOL0     H11740   4.990   5.748   6.568  0.1953  0.1437  0.5713
   87MOL0     H11741   5.147   5.957   6.532 -1.2444  2.0771 -0.1723
   87MOL0     H11742   5.041   6.007   6.410  1.5026 -0.7160 -2.1343
   87MOL0     H11743   5.291   5.722   6.213  1.3819  5.3392 -5.0633
   87MOL0     H11744   4.980   6.364   6.790  0.8456  3.2097 -1.6646
   87MOL0     H11745   4.866   6.584   6.845  0.8442  0.2377 -2.0955
   88MOL0     O11746   2.950   1.478   7.533 -0.5531  0.2106  0.0618
   88MOL0     C11747   2.985   1.439   7.648  1.1196  1.2340  1.1114
   88MOL0     O11748   3.059   1.335   7.673 -0.7440 -0.8518  0.3029
   88MOL0     C11749   3.070   1.230   7.587  0.5607 -1.2509  0.1865
   88MOL0     C11750   3.187   1.154   7.607  0.0326  0.1560  0.3474
   88MOL0     C11751   3.203   1.032   7.538  0.5121 -0.1851 -0.1032
   88MOL0     C11752   3.108   0.981   7.452  0.8880  0.0695 -0.4856
   88MOL0     O11753   3.140   0.858   7.390 -0.9584  0.3242 -0.5020
   88MOL0     C11754   3.036   0.813   7.310 -0.4621 -0.2038 -0.1593
   88MOL0     C11755   3.051   0.671   7.261 -1.2347 -0.4135 -0.6595
   88MOL0     C11756   3.052   0.566   7.367 -1.4990  0.1482 -0.5400
   88MOL0     C11757   2.912   0.543   7.432  0.3717  0.2295  0.4021
   88MOL0     C11758   2.844   0.436   7.341 -0.8092 -0.6399  0.0206
   88MOL0     C11759   2.698   0.441   7.345 -0.5508 -0.4558 -0.1460
   88MOL0     C11760   2.621   0.347   7.248  0.6264  0.5651 -1.2022
   88MOL0     C11761   2.466   0.338   7.271  0.1874 -1.0171  0.5923
   88MOL0     N11762   2.418   0.239   7.362  0.5416  0.2140  0.9947
   88MOL0     C11763   2.361   0.258   7.487 -0.3301  0.3321 -0.0532
   88MOL0     C11764   2.378   0.132   7.544 -0.3992 -0.3473  0.0361
   88MOL0     C11765   2.360   0.112   7.697  0.2176  0.0233 -0.6624
   88MOL0     C11766   2.220   0.066   7.736  1.1123  0.5285  0.6144
   88MOL0     C11767   2.155   0.141   7.853 -0.5258 -1.0295 -1.0081
   88MOL0     C11768   2.189   0.078   7.985 -0.4377 -0.2683 -0.5133
   88MOL0     O11769   2.111  -0.045   8.008 -0.7147  0.3837  0.8060
   88MOL0     C11770   2.113  -0.095   8.134 -0.4342 -0.4275 -0.0383
   88MOL0     C11771   2.179  -0.037   8.243 -0.6710 -0.1913 -0.0391
   88MOL0     C11772   2.175  -0.103   8.369  0.6105 -0.9096 -0.2992
   88MOL0     C11773   2.222  -0.034   8.491  0.2499 -1.0132 -0.2846
   88MOL0     C11774   2.109  -0.225   8.380  0.5192  0.3797  0.7627
   88MOL0     C11775   2.115  -0.320   8.496 -0.7568 -0.7276 -0.1344
   88MOL0     O11776   2.119  -0.449   8.460 -0.5972  0.5067 -0.6994
   88MOL0     C11777   2.129  -0.535   8.564  0.9756  0.4422  1.0693
   88MOL0     C11778   2.012  -0.603   8.587  0.0206  0.2246  0.0870
   88MOL0     C11779   2.010  -0.681   8.701  0.4201 -0.5054 -1.2199
   88MOL0     C11780   2.119  -0.687   8.785  1.1266 -0.4491 -0.2396
   88MOL0     O11781   2.114  -0.763   8.902  1.0412  0.2428  0.1860
   88MOL0     C11782   2.033  -0.693   9.002 -0.5641 -0.0321 -0.1408
   88MOL0     C11783   1.882  -0.687   8.971  0.3939  0.2336  0.9596
   88MOL0     C11784   1.825  -0.686   9.110 -0.2502  0.5903 -0.2046
   88MOL0     C11785   1.681  -0.645   9.127  0.3682 -0.9537 -0.4988
   88MOL0     C11786   1.575  -0.720   9.058  0.8367  0.0305 -0.4434
   88MOL0     C11787   1.439  -0.661   9.103  0.3095  0.0903  0.5817
   88MOL0     C11788   1.334  -0.728   9.024  1.1813  0.4176 -0.1874
   88MOL0     C11789   1.206  -0.643   9.027  0.3752  0.4039 -0.3914
   88MOL0    Cl11790   1.130  -0.651   9.193 -0.2689 -0.5035  0.2779
   88MOL0     C11791   2.228  -0.610   8.763 -0.4733 -0.6157 -0.0668
   88MOL0     C11792   2.236  -0.531   8.648  1.6404 -0.1974 -1.1895
   88MOL0     O11793   2.107  -0.273   8.613 -0.4413  0.7369 -0.4353
   88MOL0     C11794   2.045  -0.280   8.264 -0.3862 -0.3594 -0.5042
   88MOL0     C11795   2.038  -0.204   8.152 -0.4386 -0.7579 -0.9151
   88MOL0     N11796   2.406   0.045   7.439 -0.4287  0.9195  0.2244
   88MOL0     N11797   2.428   0.112   7.327 -0.8587  0.4064 -0.1168
   88MOL0     C11798   2.994   1.057   7.433 -0.0286  0.4446  0.7096
   88MOL0     C11799   2.970   1.169   7.511  0.5707  0.1283  0.2788
   88MOL0     C11800   2.939   1.516   7.767  0.5557 -1.2188 -0.8709
   88MOL0     C11801   2.853   1.630   7.753 -0.7417 -0.2716  0.3074
   88MOL0     C11802   2.797   1.694   7.862  0.2672  0.2091  0.8558
   88MOL0     C11803   2.830   1.656   7.988 -0.0084 -0.1514  0.5810
   88MOL0     O11804   2.769   1.728   8.090  0.0553  0.2252 -0.2105
   88MOL0     C11805   2.762   1.684   8.223 -0.1207 -0.4659  0.0337
   88MOL0     C11806   2.815   1.807   8.301 -0.0219  0.1346  0.2084
   88MOL0     C11807   2.959   1.865   8.263  1.1946  0.3125 -0.2016
   88MOL0     C11808   2.989   1.975   8.362  0.5192 -1.1237 -0.0399
   88MOL0     C11809   3.107   2.046   8.330 -0.1274 -0.5594  0.1816
   88MOL0     C11810   3.201   2.120   8.304 -0.1256 -0.1746  0.2775
   88MOL0     C11811   2.924   1.555   8.003  0.3343 -0.1884 -0.8169
   88MOL0     C11812   2.983   1.483   7.895 -0.7475  0.2787 -0.1997
   88MOL0     H11813   3.266   1.177   7.678  1.3601 -1.1810 -0.6496
   88MOL0     H11814   3.283   0.960   7.555 -0.3763 -0.3357  5.2565
   88MOL0     H11815   2.939   0.810   7.360  0.1236 -1.5945  0.9802
   88MOL0     H11816   3.021   0.875   7.222  1.5937  0.8219  0.1529
   88MOL0     H11817   2.968   0.654   7.191 -2.7491 -1.1632  1.2486
   88MOL0     H11818   3.154   0.658   7.227 -0.2886 -0.2328  1.9664
   88MOL0     H11819   3.091   0.468   7.339  0.5650 -0.6494  4.0760
   88MOL0     H11820   3.122   0.603   7.443 -0.7998  0.6210 -1.3930
   88MOL0     H11821   2.913   0.519   7.539  0.4903 -1.9580 -0.0270
   88MOL0     H11822   2.848   0.630   7.418  1.1477  1.5201  3.9102
   88MOL0     H11823   2.872   0.454   7.237 -1.5798  1.6855  0.1574
   88MOL0     H11824   2.881   0.341   7.379 -0.4365 -0.4993  0.0062
   88MOL0     H11825   2.669   0.414   7.447 -1.0720 -3.4257 -0.9721
   88MOL0     H11826   2.667   0.544   7.327  0.0697  0.0053  1.3462
   88MOL0     H11827   2.642   0.380   7.145  3.9326  1.5765 -0.2998
   88MOL0     H11828   2.656   0.244   7.236  2.2477  0.9781 -0.2521
   88MOL0     H11829   2.426   0.321   7.171 -3.3091  2.3762  1.1724
   88MOL0     H11830   2.420   0.431   7.305 -1.9257 -2.0921  0.8343
   88MOL0     H11831   2.348   0.354   7.536  0.4147 -0.0140  0.8592
   88MOL0     H11832   2.428   0.029   7.719  1.0782  0.3268 -2.0474
   88MOL0     H11833   2.390   0.206   7.744  0.4222  0.1022 -0.9420
   88MOL0     H11834   2.226  -0.042   7.752  1.7658  0.2242 -1.4028
   88MOL0     H11835   2.155   0.081   7.649  0.4404  2.1230  1.3591
   88MOL0     H11836   2.048   0.131   7.832 -1.2270  0.3260  1.5228
   88MOL0     H11837   2.183   0.247   7.859  1.1382 -1.3815 -1.8975
   88MOL0     H11838   2.167   0.151   8.063  0.5193 -3.3972  2.9755
   88MOL0     H11839   2.296   0.055   7.986 -0.2798  0.4538 -0.3147
   88MOL0     H11840   2.249   0.045   8.228 -2.1616  1.2386  0.5215
   88MOL0     H11841   2.322  -0.074   8.512  0.9172  0.6424 -0.0989
   88MOL0     H11842   2.240   0.072   8.467 -1.4659 -0.2135  1.6940
   88MOL0     H11843   2.147  -0.043   8.570 -2.2359 -0.3195 -2.4290
   88MOL0     H11844   1.936  -0.616   8.510  1.5133  0.5824 -1.4819
   88MOL0     H11845   1.917  -0.734   8.718 -1.2816  2.0305 -1.9984
   88MOL0     H11846   2.057  -0.741   9.097  2.3252  0.1336 -0.7004
   88MOL0     H11847   2.078  -0.595   9.024 -0.2052  0.7651 -3.7995
   88MOL0     H11848   1.858  -0.600   8.909  0.3322 -1.7036 -1.9328
   88MOL0     H11849   1.840  -0.770   8.914  0.3439  1.5191 -0.9637
   88MOL0     H11850   1.881  -0.615   9.172 -2.5218 -1.0203  4.0742
   88MOL0     H11851   1.827  -0.784   9.158 -1.3394  0.3906 -0.5274
   88MOL0     H11852   1.667  -0.655   9.235  1.0197  2.9483  0.1093
   88MOL0     H11853   1.661  -0.541   9.099  0.1517 -1.4617 -2.3020
   88MOL0     H11854   1.577  -0.822   9.098 -2.0219  1.0463  2.8429
   88MOL0     H11855   1.580  -0.720   8.949  2.0145  0.1406 -0.4031
   88MOL0     H11856   1.427  -0.683   9.209  1.8195  2.6257  1.3660
   88MOL0     H11857   1.447  -0.556   9.073 -0.9594 -0.4859 -2.0488
   88MOL0     H11858   1.312  -0.827   9.065 -0.1162  0.7941  0.0693
   88MOL0     H11859   1.364  -0.751   8.922 -1.6399  1.9597 -1.4821
   88MOL0     H11860   1.151  -0.691   8.946  0.4560  1.0186 -0.8149
   88MOL0     H11861   1.236  -0.540   9.007  5.5894 -0.9256 -0.8894
   88MOL0     H11862   2.313  -0.608   8.831 -0.2235 -1.4574 -0.3392
   88MOL0     H11863   2.322  -0.468   8.631  1.6309  0.8611  2.0240
   88MOL0     H11864   1.995  -0.375   8.280  0.8977 -1.0475 -0.4825
   88MOL0     H11865   2.000  -0.249   8.060  1.2031 -2.3956 -0.8399
   88MOL0     H11866   2.916   1.021   7.366  2.0500  1.6911 -2.6293
   88MOL0     H11867   2.877   1.225   7.505  1.6467  1.9839  0.0629
   88MOL0     H11868   2.841   1.685   7.660 -0.0477 -0.4807  0.0953
   88MOL0     H11869   2.709   1.754   7.843 -2.2463 -3.3900  0.0131
   88MOL0     H11870   2.662   1.652   8.255  0.7755 -3.7223 -0.0117
   88MOL0     H11871   2.825   1.595   8.236 -0.4133 -0.7488 -0.4814
   88MOL0     H11872   2.809   1.766   8.402 -1.8005  0.9179  0.4708
   88MOL0     H11873   2.755   1.897   8.287  4.6337  3.4723 -0.7485
   88MOL0     H11874   2.956   1.917   8.166 -0.8751  1.7341  0.5493
   88MOL0     H11875   3.027   1.780   8.271  0.7310 -0.1043 -0.5918
   88MOL0     H11876   2.992   1.938   8.465 -0.7884  1.7850  1.1575
   88MOL0     H11877   2.905   2.045   8.355  3.6913  3.0160 -0.6864
   88MOL0     H11878   3.280   2.188   8.277  3.1431 -3.5579  0.5190
   88MOL0     H11879   2.968   1.531   8.099  2.1573 -2.1313 -2.0445
   88MOL0     H11880   3.050   1.402   7.922  0.8457  1.2330 -1.1554
   89MOL0     O11881   3.045   7.389   2.594 -0.0154  0.2322 -0.5717
   89MOL0     C11882   3.097   7.290   2.555  0.0220  0.1313 -0.5917
   89MOL0     O11883   3.187   7.223   2.633  0.9754  0.6634  0.8367
   89MOL0     C11884   3.234   7.105   2.588 -0.0094  0.2143 -0.8774
   89MOL0     C11885   3.371   7.099   2.581  0.3225  0.2916  0.3733
   89MOL0     C11886   3.428   6.983   2.531 -0.1560 -1.8760  0.6718
   89MOL0     C11887   3.347   6.873   2.498  0.9408 -0.3941  1.8061
   89MOL0     O11888   3.399   6.758   2.459 -0.6013  0.2117  0.6301
   89MOL0     C11889   3.531   6.748   2.395  0.8048  0.0578  0.4976
   89MOL0     C11890   3.558   6.620   2.318 -1.3420  0.9074  0.0567
   89MOL0     C11891   3.617   6.503   2.398  0.0015 -0.4104 -0.0585
   89MOL0     C11892   3.504   6.425   2.470  0.8692 -0.5358  0.3995
   89MOL0     C11893   3.555   6.311   2.561  0.5228 -0.1919 -0.4385
   89MOL0     C11894   3.441   6.236   2.636  0.6099 -0.1565  0.0106
   89MOL0     C11895   3.487   6.099   2.691 -1.1242 -0.4178 -0.6695
   89MOL0     C11896   3.469   5.989   2.594 -0.0100 -0.3142  0.4966
   89MOL0     N11897   3.536   5.867   2.625 -0.1662 -0.3072  0.8676
   89MOL0     C11898   3.487   5.748   2.613  0.1665 -0.4927  0.1337
   89MOL0     C11899   3.577   5.655   2.639 -1.0123 -0.2021  0.8537
   89MOL0     C11900   3.553   5.507   2.656  0.8544 -0.2057  0.0262
   89MOL0     C11901   3.675   5.417   2.659 -0.6402 -0.1884 -0.8453
   89MOL0     C11902   3.742   5.413   2.520  0.7727  1.1703  0.0806
   89MOL0     C11903   3.647   5.382   2.401  0.2563 -0.2095 -0.3393
   89MOL0     O11904   3.579   5.254   2.416  0.2454 -0.7119  0.2109
   89MOL0     C11905   3.494   5.220   2.321  0.2995  0.1321 -0.2458
   89MOL0     C11906   3.445   5.307   2.218 -0.9795  0.7899 -0.5245
   89MOL0     C11907   3.360   5.251   2.116  0.3882  0.2590  0.8742
   89MOL0     C11908   3.307   5.352   2.016 -0.6591 -0.0614  0.4587
   89MOL0     C11909   3.321   5.116   2.106  1.4248 -0.0622  0.4957
   89MOL0     C11910   3.246   5.059   1.989 -0.1277 -0.7026 -0.4883
   89MOL0     O11911   3.200   5.138   1.891 -0.1023  0.5117 -0.0801
   89MOL0     C11912   3.112   5.089   1.794 -0.0923  0.5886 -0.2455
   89MOL0     C11913   3.013   4.993   1.816  0.5906  0.1872 -0.6633
   89MOL0     C11914   2.929   4.946   1.720  0.6122  0.1818  0.4680
   89MOL0     C11915   2.935   4.997   1.597 -0.2211  0.5844 -0.1517
   89MOL0     O11916   2.854   4.941   1.509  0.0487  0.0564 -0.7850
   89MOL0     C11917   2.854   4.958   1.370 -0.0927 -0.0744  0.5577
   89MOL0     C11918   2.748   4.891   1.281 -1.1559  0.5411  0.0124
   89MOL0     C11919   2.763   4.932   1.131  0.9660 -0.0079  0.1172
   89MOL0     C11920   2.722   4.820   1.034 -0.8636 -1.1515 -0.8106
   89MOL0     C11921   2.718   4.867   0.889  0.8187  1.0869  0.7765
   89MOL0     C11922   2.649   4.763   0.792 -0.3647  0.3821  0.6437
   89MOL0     C11923   2.732   4.636   0.778 -0.2035 -0.5727 -1.3529
   89MOL0     C11924   2.676   4.538   0.670  0.1204  0.0069  0.0828
   89MOL0    Cl11925   2.648   4.608   0.508 -0.6236  0.3312  0.2037
   89MOL0     C11926   3.038   5.090   1.571 -0.1157  0.2739  0.7186
   89MOL0     C11927   3.117   5.144   1.666 -0.0592  0.1968 -0.2887
   89MOL0     O11928   3.244   4.939   1.987  0.0178  0.0870  0.9098
   89MOL0     C11929   3.374   5.037   2.207 -0.6242 -0.5566  0.3646
   89MOL0     C11930   3.459   5.086   2.314 -0.1936  0.1764  0.4238
   89MOL0     N11931   3.696   5.713   2.661  0.4045 -0.5106 -0.4194
   89MOL0     N11932   3.663   5.846   2.656  0.9497  0.2659 -0.4231
   89MOL0     C11933   3.211   6.883   2.521  0.1626 -0.5351 -0.3811
   89MOL0     C11934   3.152   6.996   2.566  0.2500 -0.1447 -0.9631
   89MOL0     C11935   3.094   7.253   2.405 -0.3623 -0.4382  0.0489
   89MOL0     C11936   3.203   7.249   2.319  0.6600  0.1123 -0.2978
   89MOL0     C11937   3.195   7.229   2.177 -0.3572 -0.8853 -0.0912
   89MOL0     C11938   3.067   7.180   2.124 -0.1386  0.2849  0.6347
   89MOL0     O11939   3.050   7.184   1.980 -0.5541  0.1118 -0.4975
   89MOL0     C11940   2.925   7.181   1.914 -0.2119 -0.2408 -0.2842
   89MOL0     C11941   2.953   7.214   1.771 -0.3798  0.1319 -0.5971
   89MOL0     C11942   2.827   7.246   1.703 -0.0105 -0.3932 -0.6977
   89MOL0     C11943   2.831   7.217   1.561 -0.4807  0.2334 -0.1700
   89MOL0     C11944   2.883   7.336   1.484  0.2415 -0.3088  0.2081
   89MOL0     C11945   2.921   7.414   1.401  0.4586 -0.2351  1.2232
   89MOL0     C11946   2.961   7.176   2.212 -0.2460  0.3331 -0.1778
   89MOL0     C11947   2.971   7.210   2.349 -0.8461  0.7397 -0.2908
   89MOL0     H11948   3.439   7.182   2.599  0.2970  0.5880 -0.8219
   89MOL0     H11949   3.536   6.978   2.526 -0.0741 -1.5552  1.7360
   89MOL0     H11950   3.546   6.826   2.320 -1.7812 -0.2978 -0.4815
   89MOL0     H11951   3.604   6.748   2.477  0.5173  0.6801  0.7559
   89MOL0     H11952   3.465   6.578   2.280 -1.0941 -0.3355  0.7751
   89MOL0     H11953   3.632   6.637   2.240 -0.7853 -1.2101  0.0743
   89MOL0     H11954   3.657   6.441   2.317 -0.1132 -1.0896  0.4010
   89MOL0     H11955   3.703   6.532   2.459  1.4410 -1.9588 -1.2400
   89MOL0     H11956   3.444   6.496   2.528  1.6964  0.0817  0.5237
   89MOL0     H11957   3.439   6.388   2.390  3.3199 -1.8072 -1.1266
   89MOL0     H11958   3.595   6.237   2.492  0.7051 -1.5064  1.0250
   89MOL0     H11959   3.635   6.342   2.629  0.0474 -0.3476  0.1942
   89MOL0     H11960   3.419   6.296   2.725  0.0477 -2.0504  1.2163
   89MOL0     H11961   3.347   6.236   2.579 -1.4113 -3.1020  2.9988
   89MOL0     H11962   3.590   6.113   2.724 -1.8602  0.8507  1.2808
   89MOL0     H11963   3.438   6.076   2.786 -0.5736  3.3740  0.7371
   89MOL0     H11964   3.506   6.013   2.494  1.0412 -1.1414  0.6707
   89MOL0     H11965   3.362   5.970   2.584 -0.2030  1.3203 -0.9801
   89MOL0     H11966   3.385   5.725   2.584  0.3189 -0.9455 -0.0646
   89MOL0     H11967   3.500   5.496   2.751 -0.7496 -1.7418 -0.9833
   89MOL0     H11968   3.483   5.476   2.577 -1.4165  0.3380  1.7280
   89MOL0     H11969   3.651   5.314   2.687 -1.7513 -0.1301 -1.5034
   89MOL0     H11970   3.749   5.462   2.725 -1.6909  0.6807 -0.2321
   89MOL0     H11971   3.833   5.353   2.514  1.4403  1.9309  1.8126
   89MOL0     H11972   3.780   5.514   2.501  2.6951 -0.0154 -3.2766
   89MOL0     H11973   3.704   5.370   2.308 -1.5557 -4.2683 -1.1769
   89MOL0     H11974   3.573   5.462   2.386 -3.6573 -3.7439 -2.0364
   89MOL0     H11975   3.470   5.413   2.216 -0.0472  0.5625 -1.8205
   89MOL0     H11976   3.198   5.361   2.012 -0.9086 -2.5460 -2.7136
   89MOL0     H11977   3.351   5.451   2.029 -4.8415  1.8334  1.8304
   89MOL0     H11978   3.335   5.331   1.912  1.3658  0.2128  0.9225
   89MOL0     H11979   3.005   4.940   1.911  0.6273  0.0853 -0.7175
   89MOL0     H11980   2.864   4.861   1.741  1.7883 -1.1031 -0.8892
   89MOL0     H11981   2.841   5.064   1.346 -2.1231 -0.6953 -1.4569
   89MOL0     H11982   2.949   4.928   1.325 -2.0716 -0.0996 -4.2313
   89MOL0     H11983   2.758   4.782   1.292 -3.7935  0.3320  1.1752
   89MOL0     H11984   2.653   4.928   1.320 -0.8658 -0.5806  1.9246
   89MOL0     H11985   2.867   4.959   1.116  1.2910  0.7457  3.0014
   89MOL0     H11986   2.703   5.022   1.114  1.3184 -0.1097 -1.8734
   89MOL0     H11987   2.798   4.745   1.055  1.6147  0.8630 -2.0325
   89MOL0     H11988   2.627   4.771   1.060 -0.8141 -0.9689 -0.2867
   89MOL0     H11989   2.815   4.894   0.846  1.7950 -4.7246 -1.4488
   89MOL0     H11990   2.651   4.953   0.876  0.5154  1.1220  2.3425
   89MOL0     H11991   2.547   4.733   0.816 -0.7807 -1.1384 -2.5420
   89MOL0     H11992   2.648   4.810   0.694 -0.6040 -3.7805 -1.5714
   89MOL0     H11993   2.741   4.575   0.868  0.7648  2.9202  1.1378
   89MOL0     H11994   2.829   4.670   0.741 -0.6316  0.3123 -1.7021
   89MOL0     H11995   2.585   4.506   0.721  1.4405 -0.3669  2.3776
   89MOL0     H11996   2.739   4.453   0.640  2.9451  3.2942 -4.6115
   89MOL0     H11997   3.044   5.115   1.466  4.9995 -0.5579  0.5641
   89MOL0     H11998   3.192   5.217   1.638  0.0895  0.3074  0.3870
   89MOL0     H11999   3.371   4.929   2.210  1.8009 -0.6820  0.7234
   89MOL0     H12000   3.478   5.003   2.382 -3.8045 -0.7541  0.5178
   89MOL0     H12001   3.150   6.796   2.502  0.3068 -0.4089 -1.5062
   89MOL0     H12002   3.047   6.990   2.596  0.7270  0.9513  1.1379
   89MOL0     H12003   3.301   7.269   2.361  0.3908  0.7217  0.0464
   89MOL0     H12004   3.283   7.243   2.116 -1.4770  1.7519 -1.2291
   89MOL0     H12005   2.882   7.081   1.916 -0.3816 -0.2448  3.7405
   89MOL0     H12006   2.849   7.253   1.948  2.3795  4.0689 -2.6876
   89MOL0     H12007   3.014   7.134   1.729  0.3336 -1.7884  3.5467
   89MOL0     H12008   3.009   7.308   1.767 -1.6453  0.9269 -0.0953
   89MOL0     H12009   2.812   7.352   1.725  3.7896  0.0583  0.4486
   89MOL0     H12010   2.746   7.189   1.749  0.8418  0.1101  1.5750
   89MOL0     H12011   2.729   7.186   1.537  0.1241 -0.3941 -2.1102
   89MOL0     H12012   2.905   7.138   1.543  0.9015  1.4102  0.1171
   89MOL0     H12013   2.970   7.472   1.326  1.1928 -4.0426 -1.5392
   89MOL0     H12014   2.858   7.158   2.181 -1.2267  2.3687  1.6651
   89MOL0     H12015   2.887   7.211   2.418  2.0579 -0.5885  3.6291
   90MOL0     O12016   0.049   9.317   5.038 -0.7389  0.5496  0.5738
   90MOL0     C12017  -0.040   9.387   5.058  0.5925 -0.2159  0.0490
   90MOL0     O12018  -0.048   9.471   5.171 -0.1568  0.0423 -0.4079
   90MOL0     C12019   0.061   9.503   5.242  0.1105  0.5253 -0.8510
   90MOL0     C12020   0.141   9.609   5.208 -0.0869  0.6738 -0.2848
   90MOL0     C12021   0.264   9.637   5.272  0.2953 -0.3973 -0.1852
   90MOL0     C12022   0.291   9.570   5.389 -0.5175 -0.1159 -0.3930
   90MOL0     O12023   0.407   9.581   5.471  0.4284 -0.8264 -0.9569
   90MOL0     C12024   0.498   9.694   5.435  0.7997  0.1171  0.5501
   90MOL0     C12025   0.595   9.722   5.547  0.1894  0.5642 -0.8176
   90MOL0     C12026   0.526   9.773   5.680 -0.2793 -0.1465  0.5384
   90MOL0     C12027   0.585   9.703   5.801  0.5853 -0.6712  0.0340
   90MOL0     C12028   0.522   9.768   5.931 -0.1577 -0.3095 -0.5292
   90MOL0     C12029   0.540   9.691   6.066 -1.1584 -0.0271 -0.2485
   90MOL0     C12030   0.510   9.785   6.184  0.2271 -0.6740 -0.5630
   90MOL0     C12031   0.512   9.700   6.315  0.7128 -0.8249  0.0907
   90MOL0     N12032   0.493   9.776   6.434 -0.0074 -0.8608  0.2253
   90MOL0     C12033   0.566   9.745   6.542  0.7312  0.6324 -0.5414
   90MOL0     C12034   0.537   9.846   6.628  0.4715 -0.7866 -0.7561
   90MOL0     C12035   0.601   9.877   6.765 -0.5712  0.5885 -0.4253
   90MOL0     C12036   0.494   9.886   6.873 -0.9711  0.5314  0.2793
   90MOL0     C12037   0.473   9.759   6.961  0.1653  0.4743  0.8732
   90MOL0     C12038   0.410   9.797   7.094 -0.2812  1.3240  0.4112
   90MOL0     O12039   0.286   9.860   7.070 -0.4404  0.1391 -0.3219
   90MOL0     C12040   0.227   9.938   7.160  0.3206 -0.0172 -0.3546
   90MOL0     C12041   0.258   9.927   7.292 -0.2649  0.6676 -0.0238
   90MOL0     C12042   0.199  10.011   7.387  0.4733 -0.0313 -0.0629
   90MOL0     C12043   0.252  10.001   7.525  0.8057  0.5379 -0.6128
   90MOL0     C12044   0.094  10.114   7.342 -0.7460  0.5352  0.4757
   90MOL0     C12045   0.044  10.225   7.429  0.0157  0.1356 -0.4478
   90MOL0     O12046   0.001  10.333   7.363  0.0557  0.1965 -0.4730
   90MOL0     C12047  -0.026  10.448   7.437 -0.2735 -1.3293 -0.1758
   90MOL0     C12048   0.023  10.569   7.387  0.4635 -0.0821 -0.6798
   90MOL0     C12049  -0.001  10.691   7.448  1.0294 -0.1216  0.6507
   90MOL0     C12050  -0.080  10.697   7.568 -0.0743  0.3143 -0.5210
   90MOL0     O12051  -0.108  10.820   7.631 -0.4581 -0.0684  0.5354
   90MOL0     C12052  -0.243  10.840   7.665  0.9428 -0.1476  1.3586
   90MOL0     C12053  -0.272  10.825   7.814  0.1344 -0.0240  1.2531
   90MOL0     C12054  -0.308  10.960   7.877  0.2127  0.2395 -1.0658
   90MOL0     C12055  -0.360  10.942   8.015  0.2502 -0.1009 -0.0867
   90MOL0     C12056  -0.394  11.081   8.069 -0.2625 -0.4044 -0.6558
   90MOL0     C12057  -0.461  11.070   8.210  0.2364  0.3800  0.2094
   90MOL0     C12058  -0.511  11.211   8.253  0.6626 -0.1260  0.3336
   90MOL0     C12059  -0.595  11.193   8.384 -0.0443 -0.1644 -0.7852
   90MOL0    Cl12060  -0.756  11.154   8.340  0.4424  0.0558  0.5824
   90MOL0     C12061  -0.129  10.577   7.621 -0.6252  0.2853  0.9469
   90MOL0     C12062  -0.108  10.457   7.546 -1.1775  0.8365  0.0018
   90MOL0     O12063   0.047  10.212   7.548 -0.2326  0.9950  0.5060
   90MOL0     C12064   0.053  10.100   7.210  0.0171 -0.2815 -0.0114
   90MOL0     C12065   0.123  10.009   7.122  0.7571 -0.4609  0.8274
   90MOL0     N12066   0.438   9.926   6.573  0.0221  0.4624 -0.1456
   90MOL0     N12067   0.416   9.881   6.454  0.5922  0.3330 -0.2434
   90MOL0     C12068   0.211   9.462   5.428  0.2785 -0.6436  0.2370
   90MOL0     C12069   0.096   9.431   5.360  0.6701 -0.2044  0.2358
   90MOL0     C12070  -0.159   9.382   4.967 -0.0533  0.6952  0.3697
   90MOL0     C12071  -0.273   9.456   4.995  0.8206  0.3106  0.0513
   90MOL0     C12072  -0.384   9.451   4.906 -0.3931  0.7731 -0.5879
   90MOL0     C12073  -0.387   9.371   4.797  1.2761  0.1117 -0.9210
   90MOL0     O12074  -0.512   9.372   4.734 -0.8268  0.1123 -0.1232
   90MOL0     C12075  -0.554   9.279   4.634 -0.1735 -0.7439 -0.2725
   90MOL0     C12076  -0.591   9.144   4.687 -0.2140  0.2535  0.3325
   90MOL0     C12077  -0.728   9.141   4.756  0.9737  0.4328 -0.1221
   90MOL0     C12078  -0.757   8.991   4.772  0.0083  0.3650 -0.6608
   90MOL0     C12079  -0.898   8.972   4.821 -1.0492  0.0322  0.0305
   90MOL0     C12080  -1.011   8.944   4.845  0.3346  0.4895  0.1679
   90MOL0     C12081  -0.279   9.293   4.764 -0.1754  0.2538  0.1833
   90MOL0     C12082  -0.165   9.301   4.846  0.1581  0.9811 -0.3273
   90MOL0     H12083   0.096   9.664   5.127 -4.0224  0.8132  1.7644
   90MOL0     H12084   0.320   9.714   5.220 -0.7415  0.8885  0.5489
   90MOL0     H12085   0.546   9.662   5.343 -0.2342  0.7942 -0.2483
   90MOL0     H12086   0.448   9.787   5.408  1.5744  0.4435  0.2299
   90MOL0     H12087   0.668   9.643   5.565  2.4273  2.1240 -2.3800
   90MOL0     H12088   0.666   9.801   5.519  1.7561 -0.6663 -0.4134
   90MOL0     H12089   0.559   9.877   5.691  4.1674 -1.2291 -0.4417
   90MOL0     H12090   0.418   9.758   5.670 -0.3683  1.7669 -2.4593
   90MOL0     H12091   0.548   9.604   5.773  1.2696 -0.2756 -2.5760
   90MOL0     H12092   0.694   9.710   5.812  1.2916 -0.3271 -4.9730
   90MOL0     H12093   0.581   9.857   5.954 -3.8178  2.5385 -1.2261
   90MOL0     H12094   0.417   9.790   5.912 -0.2761 -0.4821 -0.1038
   90MOL0     H12095   0.471   9.607   6.074 -1.1939 -0.1497 -1.6802
   90MOL0     H12096   0.636   9.641   6.083 -0.1088  0.5197 -3.8958
   90MOL0     H12097   0.588   9.861   6.189 -0.1740 -0.2925  0.1359
   90MOL0     H12098   0.416   9.841   6.174  0.6935  0.2515  0.0962
   90MOL0     H12099   0.612   9.657   6.306  0.9870 -0.1557 -0.1403
   90MOL0     H12100   0.440   9.620   6.301 -2.2780  1.9257 -1.6228
   90MOL0     H12101   0.639   9.665   6.550  0.1058  0.1661  0.8522
   90MOL0     H12102   0.661   9.787   6.782  0.2195  0.9552 -1.2412
   90MOL0     H12103   0.657   9.970   6.756 -0.7007  0.7543  0.3900
   90MOL0     H12104   0.397   9.923   6.837 -1.0805  2.5364  2.4779
   90MOL0     H12105   0.531   9.955   6.948 -0.2268  0.2507  0.1766
   90MOL0     H12106   0.570   9.716   6.987  1.4810  2.9903  0.4878
   90MOL0     H12107   0.411   9.684   6.912 -0.8656 -0.0386  2.8665
   90MOL0     H12108   0.487   9.844   7.157  0.6260 -1.5123  1.6281
   90MOL0     H12109   0.390   9.698   7.136 -1.4696  0.9803 -0.9096
   90MOL0     H12110   0.333   9.858   7.328 -0.3952  0.4614 -0.1502
   90MOL0     H12111   0.276  10.102   7.560  4.2600  0.1885 -1.5935
   90MOL0     H12112   0.174   9.954   7.585  1.0908  0.7675 -0.0539
   90MOL0     H12113   0.345   9.943   7.522  1.0756  0.9028 -4.3595
   90MOL0     H12114   0.104  10.558   7.315  2.7918 -0.4301  1.8484
   90MOL0     H12115   0.028  10.792   7.421  1.1101  0.3113  2.2216
   90MOL0     H12116  -0.263  10.942   7.633 -0.3338 -0.9250 -0.5108
   90MOL0     H12117  -0.301  10.771   7.603  2.3581 -0.7964  0.7178
   90MOL0     H12118  -0.350  10.751   7.835  0.4252  0.4665  4.6171
   90MOL0     H12119  -0.194  10.781   7.876 -1.7582  0.0266  3.8180
   90MOL0     H12120  -0.356  11.033   7.811 -0.3733  0.5644 -0.2933
   90MOL0     H12121  -0.212  11.009   7.894 -0.8576  2.6713 -1.5960
   90MOL0     H12122  -0.455  10.890   8.024 -0.2477  0.5394 -1.4405
   90MOL0     H12123  -0.286  10.882   8.069  0.2760 -0.8329 -0.9256
   90MOL0     H12124  -0.459  11.135   8.000  0.4225  4.6319  2.1476
   90MOL0     H12125  -0.298  11.134   8.077 -0.5392  0.0136 -0.0095
   90MOL0     H12126  -0.546  11.004   8.191  0.1308 -0.7132  3.7888
   90MOL0     H12127  -0.402  11.018   8.286 -1.9232 -0.2985  1.5050
   90MOL0     H12128  -0.570  11.261   8.175  1.5986 -1.3527 -1.2216
   90MOL0     H12129  -0.426  11.279   8.261 -0.1457  0.7041  2.4814
   90MOL0     H12130  -0.593  11.290   8.435  1.5927 -0.2976 -0.5430
   90MOL0     H12131  -0.550  11.120   8.452 -1.0000 -0.8008 -0.8285
   90MOL0     H12132  -0.205  10.577   7.699 -0.3314 -3.0885  1.4061
   90MOL0     H12133  -0.137  10.362   7.589 -0.4759  1.7612  2.6748
   90MOL0     H12134  -0.019  10.174   7.175 -0.3182  0.6805  2.5186
   90MOL0     H12135   0.090  10.021   7.019  0.0573  1.9458  1.2654
   90MOL0     H12136   0.240   9.397   5.510  3.8748 -1.4277 -1.4829
   90MOL0     H12137   0.046   9.344   5.400  0.1705  0.2117  0.5393
   90MOL0     H12138  -0.293   9.507   5.089 -0.0898  1.4809 -0.7462
   90MOL0     H12139  -0.481   9.488   4.935  0.2724  1.5851  0.7349
   90MOL0     H12140  -0.644   9.325   4.592  1.8876  3.2469 -0.7800
   90MOL0     H12141  -0.478   9.277   4.556 -0.9066  2.3150 -1.2112
   90MOL0     H12142  -0.518   9.145   4.769 -1.9036  0.9502  1.9008
   90MOL0     H12143  -0.573   9.077   4.602 -0.3485 -0.7578  1.0784
   90MOL0     H12144  -0.807   9.177   4.690 -1.3786 -1.7690  1.2809
   90MOL0     H12145  -0.723   9.197   4.850 -0.5688  2.6340 -1.2868
   90MOL0     H12146  -0.693   8.956   4.853 -0.4004  0.2067 -0.4007
   90MOL0     H12147  -0.731   8.933   4.684  0.6379 -0.5334  0.1032
   90MOL0     H12148  -1.116   8.929   4.851  0.3641  0.1503 -0.0737
   90MOL0     H12149  -0.274   9.228   4.677 -2.0170 -0.6144  0.6928
   90MOL0     H12150  -0.067   9.258   4.832 -0.3905 -1.3460  2.0898
   91MOL0     O12151  11.196  10.353   1.139  0.6039  0.1687  0.9161
   91MOL0     C12152  11.147  10.470   1.135 -0.0891  0.1485  0.2702
   91MOL0     O12153  11.054  10.515   1.039  0.1138  0.5723  0.4047
   91MOL0     C12154  10.975  10.430   0.963 -0.2322  0.2292 -0.6015
   91MOL0     C12155  10.928  10.306   0.999  0.4194 -0.1242 -0.0578
   91MOL0     C12156  10.846  10.222   0.921  0.6682 -0.6907 -0.9748
   91MOL0     C12157  10.810  10.269   0.789 -1.0830  0.1579  0.2916
   91MOL0     O12158  10.745  10.206   0.695 -0.1991  0.5447 -0.0303
   91MOL0     C12159  10.716  10.068   0.704  0.5696  0.3707  0.2286
   91MOL0     C12160  10.625  10.034   0.585  0.1903 -0.5855 -0.5817
   91MOL0     C12161  10.562   9.899   0.604  0.4843 -0.3212  0.2199
   91MOL0     C12162  10.473   9.862   0.489  0.2242 -0.0168 -0.4076
   91MOL0     C12163  10.329   9.920   0.493  0.2724 -0.6042 -0.1540
   91MOL0     C12164  10.269   9.851   0.373  0.7809 -0.2675  1.2319
   91MOL0     C12165  10.141   9.930   0.356 -0.1360  0.4955  0.6512
   91MOL0     C12166  10.053   9.904   0.239  0.5812  0.3141 -0.6399
   91MOL0     N12167  10.029   9.764   0.212  0.5402  0.3447  0.8145
   91MOL0     C12168   9.968   9.668   0.298 -1.1122 -0.4798 -0.2784
   91MOL0     C12169   9.986   9.552   0.233 -1.0551 -0.5600  0.4034
   91MOL0     C12170   9.915   9.430   0.271  0.2583 -0.6116  0.2717
   91MOL0     C12171   9.778   9.440   0.338  0.0842 -0.5271 -0.5328
   91MOL0     C12172   9.714   9.300   0.342 -0.2957 -0.8317 -0.4008
   91MOL0     C12173   9.749   9.219   0.462 -0.1808  0.5470 -0.5506
   91MOL0     O12174   9.686   9.283   0.582 -0.3113  0.0791  0.6948
   91MOL0     C12175   9.562   9.240   0.618  0.9056 -0.2620 -0.1768
   91MOL0     C12176   9.505   9.309   0.724 -0.2688  0.2873  0.4184
   91MOL0     C12177   9.382   9.267   0.776  0.3936 -0.0478 -0.7709
   91MOL0     C12178   9.340   9.366   0.885 -0.3923  0.3124 -0.4648
   91MOL0     C12179   9.315   9.153   0.724  1.0703  0.4362  0.2072
   91MOL0     C12180   9.195   9.078   0.776  0.1709  0.4094  0.9356
   91MOL0     O12181   9.114   9.022   0.684  0.2000 -0.2432 -0.3227
   91MOL0     C12182   9.069   8.892   0.707 -0.1766 -0.3222  0.5323
   91MOL0     C12183   8.965   8.848   0.626 -0.4075 -0.6645 -0.0504
   91MOL0     C12184   8.922   8.712   0.628 -0.1862  0.7210 -0.5864
   91MOL0     C12185   8.968   8.616   0.727 -0.1032  0.3548 -0.1247
   91MOL0     O12186   8.903   8.489   0.731  0.8213 -0.8078 -0.8864
   91MOL0     C12187   8.799   8.471   0.825 -0.1857  0.0183  0.2138
   91MOL0     C12188   8.853   8.464   0.975 -0.4272  0.6347 -0.3281
   91MOL0     C12189   8.735   8.465   1.068  0.0380  0.0699  0.2807
   91MOL0     C12190   8.779   8.473   1.212 -0.2358 -0.4168 -0.6941
   91MOL0     C12191   8.653   8.463   1.298 -0.8421 -0.6238 -0.2247
   91MOL0     C12192   8.686   8.495   1.446  0.0574  0.3334  0.1189
   91MOL0     C12193   8.553   8.537   1.508 -0.1419 -0.6040  0.7329
   91MOL0     C12194   8.567   8.538   1.660  0.2889  0.1101 -0.1285
   91MOL0    Cl12195   8.561   8.379   1.717 -0.2478 -0.3576  0.0562
   91MOL0     C12196   9.074   8.663   0.809 -0.2879  0.0705  0.7764
   91MOL0     C12197   9.127   8.798   0.799 -0.8162 -0.8535  0.7502
   91MOL0     O12198   9.168   9.094   0.892 -0.3164 -0.8349 -0.0710
   91MOL0     C12199   9.366   9.093   0.615 -0.1101  0.2803  0.7010
   91MOL0     C12200   9.486   9.135   0.555  0.6789 -0.2775 -0.0051
   91MOL0     N12201  10.057   9.574   0.111 -0.5357 -0.2087 -0.3961
   91MOL0     N12202  10.078   9.705   0.097 -0.0973  0.1156 -0.6187
   91MOL0     C12203  10.854  10.401   0.753  0.1781  0.3244 -0.6702
   91MOL0     C12204  10.932  10.476   0.841 -0.7269  0.0968 -0.3961
   91MOL0     C12205  11.207  10.567   1.232 -0.2425  0.4478  0.3786
   91MOL0     C12206  11.146  10.687   1.244 -0.7835  0.3899  0.3698
   91MOL0     C12207  11.196  10.775   1.339  0.2356  0.2800  0.0892
   91MOL0     C12208  11.321  10.756   1.403  0.4794  0.6243 -0.0871
   91MOL0     O12209  11.380  10.845   1.487 -0.5036  0.5834 -0.3795
   91MOL0     C12210  11.290  10.855   1.605  0.1667  0.2308 -0.5080
   91MOL0     C12211  11.344  10.977   1.705 -0.1750  0.9595 -0.1014
   91MOL0     C12212  11.317  11.118   1.637 -0.1669 -0.9238 -0.9005
   91MOL0     C12213  11.372  11.232   1.727 -0.2680  0.3530  0.0300
   91MOL0     C12214  11.513  11.214   1.781  0.7753  0.1953 -0.2501
   91MOL0     C12215  11.617  11.201   1.832 -0.1190  0.5466  0.3000
   91MOL0     C12216  11.383  10.633   1.385 -0.6644 -0.4658 -0.1417
   91MOL0     C12217  11.326  10.534   1.302 -0.3231 -0.9259  1.1347
   91MOL0     H12218  10.964  10.269   1.094 -0.5670 -0.3405  0.2438
   91MOL0     H12219  10.821  10.126   0.963  1.1127  0.5654  2.4573
   91MOL0     H12220  10.804  10.005   0.714 -0.4220 -1.4467 -1.6208
   91MOL0     H12221  10.662  10.044   0.795 -0.6017 -1.0826 -0.8028
   91MOL0     H12222  10.536  10.099   0.588 -1.8109 -3.2066  1.0027
   91MOL0     H12223  10.680  10.030   0.491  1.1545 -5.7506 -0.0705
   91MOL0     H12224  10.638   9.821   0.617 -1.9515 -2.9822 -0.4161
   91MOL0     H12225  10.500   9.912   0.693  0.3180  1.5382 -0.1289
   91MOL0     H12226  10.523   9.896   0.397  0.0726  0.6566 -0.2498
   91MOL0     H12227  10.468   9.753   0.482 -3.5895  0.0580 -0.9766
   91MOL0     H12228  10.271   9.899   0.583  1.4726 -1.4757  0.4404
   91MOL0     H12229  10.352  10.026   0.474 -0.2253 -0.2551  1.0979
   91MOL0     H12230  10.334   9.860   0.285 -1.4895 -1.6822 -0.7256
   91MOL0     H12231  10.241   9.747   0.390 -0.5571 -0.0003  0.7714
   91MOL0     H12232  10.076   9.912   0.442 -3.4861 -2.3060 -2.1305
   91MOL0     H12233  10.179  10.030   0.336 -0.0751 -0.3238 -4.7706
   91MOL0     H12234  10.096   9.957   0.154  2.0944  1.1428  0.5931
   91MOL0     H12235   9.953   9.942   0.262 -0.0213 -1.0412 -0.9024
   91MOL0     H12236   9.914   9.687   0.390  0.0185 -2.5960  0.9047
   91MOL0     H12237   9.903   9.387   0.171  0.2705  2.5719 -1.2213
   91MOL0     H12238   9.980   9.368   0.333  1.7794  2.7222  2.2729
   91MOL0     H12239   9.716   9.507   0.277  2.4144  0.6269 -1.8169
   91MOL0     H12240   9.785   9.483   0.438 -0.0041 -1.3263 -0.1791
   91MOL0     H12241   9.733   9.237   0.255  1.4118 -0.1734 -0.5455
   91MOL0     H12242   9.606   9.316   0.334 -0.0002  3.3534  1.3170
   91MOL0     H12243   9.858   9.219   0.470 -0.2871  0.1952  1.1135
   91MOL0     H12244   9.727   9.116   0.432 -0.4988  0.2515  0.6590
   91MOL0     H12245   9.563   9.391   0.765 -0.3023 -0.9685  3.2374
   91MOL0     H12246   9.250   9.334   0.939 -1.3332 -1.3405 -2.8227
   91MOL0     H12247   9.423   9.386   0.953  1.2143 -0.4994 -2.1041
   91MOL0     H12248   9.321   9.464   0.841  1.8335  1.4338  0.9076
   91MOL0     H12249   8.933   8.907   0.541  2.0324 -2.7573 -2.6130
   91MOL0     H12250   8.847   8.684   0.556 -0.3282 -3.1178  0.8395
   91MOL0     H12251   8.729   8.554   0.810 -0.4469 -0.3179 -0.4489
   91MOL0     H12252   8.745   8.379   0.801  1.8183 -0.9912 -0.6750
   91MOL0     H12253   8.917   8.377   0.989 -0.9019  0.5564  1.7647
   91MOL0     H12254   8.924   8.543   1.002  0.5765 -1.0993  2.5981
   91MOL0     H12255   8.693   8.365   1.058  3.0552 -1.3901  1.0019
   91MOL0     H12256   8.664   8.540   1.034  0.0544  0.5919  1.3385
   91MOL0     H12257   8.858   8.400   1.233  0.8151  0.3383 -1.8716
   91MOL0     H12258   8.816   8.572   1.240 -1.7077 -0.2979  1.0246
   91MOL0     H12259   8.602   8.367   1.297 -2.9974  0.4499 -1.6527
   91MOL0     H12260   8.575   8.533   1.267  0.4637  2.4164  2.6550
   91MOL0     H12261   8.736   8.409   1.492 -1.5782 -0.5428  0.3318
   91MOL0     H12262   8.750   8.582   1.457  0.5661  0.0034 -0.1778
   91MOL0     H12263   8.470   8.467   1.490 -0.9232 -0.3509  3.0306
   91MOL0     H12264   8.524   8.637   1.474 -1.7820 -1.5577 -0.8783
   91MOL0     H12265   8.477   8.589   1.695  0.6585 -0.2799  1.4768
   91MOL0     H12266   8.662   8.580   1.694  0.0721 -3.0098  5.6023
   91MOL0     H12267   9.129   8.589   0.867 -2.8887 -1.6648  1.1712
   91MOL0     H12268   9.206   8.821   0.869  0.4979 -2.7636 -0.0155
   91MOL0     H12269   9.315   9.008   0.570  0.1061  0.9969 -0.9861
   91MOL0     H12270   9.523   9.073   0.474  0.4843  1.9839 -1.9362
   91MOL0     H12271  10.830  10.445   0.657  1.3134  0.2690 -1.0032
   91MOL0     H12272  10.959  10.578   0.814 -3.3203  0.5238 -1.6641
   91MOL0     H12273  11.060  10.702   1.179  1.5027 -2.0068 -3.6395
   91MOL0     H12274  11.142  10.869   1.346 -0.2175  0.1710 -1.5874
   91MOL0     H12275  11.187  10.875   1.575 -0.6597 -2.6244  0.1332
   91MOL0     H12276  11.279  10.760   1.657 -3.1796  0.4854 -0.5114
   91MOL0     H12277  11.452  10.966   1.716  0.4980  3.6010 -2.9094
   91MOL0     H12278  11.295  10.976   1.803  4.3898  2.2719  2.4736
   91MOL0     H12279  11.210  11.140   1.626  0.2717  1.4187 -0.9809
   91MOL0     H12280  11.365  11.121   1.539 -1.5592 -1.2398 -1.6265
   91MOL0     H12281  11.297  11.239   1.807  1.0035  0.2821  1.2539
   91MOL0     H12282  11.370  11.319   1.660  2.6440 -1.4839 -2.7224
   91MOL0     H12283  11.708  11.167   1.877  0.3923 -1.4494 -2.0509
   91MOL0     H12284  11.470  10.603   1.442 -0.0933 -1.8498 -1.6572
   91MOL0     H12285  11.371  10.435   1.305  2.3275  0.2149  2.0629
   92MOL0     O12286   5.243   7.682  10.333 -0.3817 -0.7311 -0.4762
   92MOL0     C12287   5.341   7.627  10.294 -1.0994  0.7393  0.3394
   92MOL0     O12288   5.443   7.673  10.221 -0.0141 -0.4740  0.9093
   92MOL0     C12289   5.423   7.786  10.134  0.1137 -0.8938 -1.2151
   92MOL0     C12290   5.352   7.904  10.153  0.2246  0.0973  0.6015
   92MOL0     C12291   5.354   8.010  10.055 -0.1169  0.6104 -0.1228
   92MOL0     C12292   5.427   7.996   9.932  1.1183  0.2608 -0.4740
   92MOL0     O12293   5.415   8.082   9.827  0.4012 -0.4387  0.8476
   92MOL0     C12294   5.275   8.108   9.806 -0.5693 -0.1751 -0.0806
   92MOL0     C12295   5.257   8.173   9.677 -1.1893 -0.4424 -0.3217
   92MOL0     C12296   5.345   8.298   9.653 -0.3999  1.0935 -0.1992
   92MOL0     C12297   5.321   8.380   9.523 -0.4036 -0.1866  0.3928
   92MOL0     C12298   5.413   8.504   9.518  0.2977 -0.8994 -0.0004
   92MOL0     C12299   5.372   8.591   9.394  0.5521  0.0789  0.4119
   92MOL0     C12300   5.475   8.704   9.374 -0.0959  0.2468  0.6625
   92MOL0     C12301   5.613   8.647   9.328 -0.4700 -0.5000 -1.0327
   92MOL0     N12302   5.715   8.752   9.303  0.5651 -0.1571 -0.5005
   92MOL0     C12303   5.699   8.869   9.241  0.4623  0.1326  0.4058
   92MOL0     C12304   5.815   8.925   9.216 -0.4752  0.3239 -0.5154
   92MOL0     C12305   5.837   9.056   9.138 -0.3242  0.3002  0.9531
   92MOL0     C12306   5.971   9.063   9.037 -0.2360  0.2150 -0.1789
   92MOL0     C12307   6.042   9.202   9.030 -0.1816 -0.1268  0.2666
   92MOL0     C12308   5.973   9.281   8.919  0.1591  0.5205  0.2501
   92MOL0     O12309   5.830   9.283   8.930 -0.8275 -0.5967 -0.1738
   92MOL0     C12310   5.774   9.383   8.853  0.8083  0.5915  0.5007
   92MOL0     C12311   5.656   9.437   8.899 -0.0382  0.4023  1.1036
   92MOL0     C12312   5.603   9.556   8.847  0.7177  0.6087 -0.4292
   92MOL0     C12313   5.482   9.618   8.924  0.2879  0.0414 -0.5998
   92MOL0     C12314   5.672   9.620   8.748  0.0175  0.4643 -0.8613
   92MOL0     C12315   5.614   9.749   8.689 -0.7283 -0.7560  0.4946
   92MOL0     O12316   5.487   9.802   8.713 -1.0819  0.6126 -0.6242
   92MOL0     C12317   5.470   9.935   8.694  0.4032 -0.3332 -0.3343
   92MOL0     C12318   5.432   9.987   8.563  0.4288 -0.1321 -0.1478
   92MOL0     C12319   5.410  10.123   8.547 -0.3022 -0.9348  0.3592
   92MOL0     C12320   5.406  10.208   8.663  0.4033 -0.0486 -0.4196
   92MOL0     O12321   5.379  10.346   8.651  0.6011  0.1981 -0.0097
   92MOL0     C12322   5.267  10.391   8.728 -0.6343  1.0101  0.6067
   92MOL0     C12323   5.256  10.533   8.719  0.6084 -0.4817 -0.5317
   92MOL0     C12324   5.199  10.570   8.586 -0.1399 -0.4699 -1.1893
   92MOL0     C12325   5.087  10.671   8.607  0.0332 -0.3233 -0.5762
   92MOL0     C12326   4.950  10.634   8.677 -0.1698 -0.6606 -0.3219
   92MOL0     C12327   4.862  10.767   8.678 -0.6079  0.3229 -0.8917
   92MOL0     C12328   4.738  10.736   8.758  0.3298  0.1136  0.6269
   92MOL0     C12329   4.630  10.837   8.754 -0.1196 -0.9516 -0.5273
   92MOL0    Cl12330   4.600  10.881   8.586 -0.6534  0.5120  0.2064
   92MOL0     C12331   5.454  10.156   8.784 -0.5699 -0.6956  0.3583
   92MOL0     C12332   5.489  10.025   8.795  0.0182 -0.0785  0.2660
   92MOL0     O12333   5.698   9.815   8.626 -0.3856 -0.4969 -0.0718
   92MOL0     C12334   5.787   9.561   8.690 -0.0292  0.4491 -0.2902
   92MOL0     C12335   5.842   9.440   8.742  0.3461  0.0143 -0.3021
   92MOL0     N12336   5.904   8.830   9.249 -0.4415 -0.1021 -0.3396
   92MOL0     N12337   5.851   8.729   9.292  0.2436  0.4442 -0.2879
   92MOL0     C12338   5.505   7.890   9.921 -0.3803  0.0550 -0.4804
   92MOL0     C12339   5.505   7.794  10.024 -0.8387  1.1466  0.1374
   92MOL0     C12340   5.368   7.501  10.366 -0.3191  0.0367  0.7980
   92MOL0     C12341   5.280   7.466  10.472 -1.6194 -0.1547  0.8024
   92MOL0     C12342   5.295   7.354  10.547 -0.3764  1.0425  1.1388
   92MOL0     C12343   5.405   7.269  10.521  0.4103 -0.8356  0.9998
   92MOL0     O12344   5.440   7.165  10.592 -0.0070 -0.2708  0.3372
   92MOL0     C12345   5.369   7.129  10.710 -0.3065 -0.0617  0.1179
   92MOL0     C12346   5.424   7.003  10.775  0.1912  0.3636 -0.3907
   92MOL0     C12347   5.423   6.857  10.704 -0.4392 -0.2294  0.2699
   92MOL0     C12348   5.500   6.849  10.567 -0.2502  0.5856  0.0723
   92MOL0     C12349   5.626   6.773  10.596 -0.2183  0.9014  0.8115
   92MOL0     C12350   5.724   6.724  10.644 -1.1683  0.2556  0.2766
   92MOL0     C12351   5.485   7.296  10.410 -0.3214  0.2677 -0.1065
   92MOL0     C12352   5.476   7.417  10.339  0.2324 -0.4569  0.3933
   92MOL0     H12353   5.303   7.931  10.245  2.1181  1.7213  1.2061
   92MOL0     H12354   5.309   8.108  10.071  4.4238  2.6387  2.4292
   92MOL0     H12355   5.221   8.013   9.804  0.7876 -1.1381 -5.1761
   92MOL0     H12356   5.247   8.188   9.876  3.6854  0.2061  1.5515
   92MOL0     H12357   5.270   8.101   9.596  0.0640 -0.0422 -0.5115
   92MOL0     H12358   5.155   8.210   9.676 -1.1200 -0.1205  1.1753
   92MOL0     H12359   5.324   8.367   9.736 -1.5697  1.2570 -0.6205
   92MOL0     H12360   5.451   8.270   9.651 -0.5994  0.2963 -3.2499
   92MOL0     H12361   5.355   8.317   9.440 -0.5921 -0.3615  0.4466
   92MOL0     H12362   5.214   8.398   9.508 -0.1216  0.3454 -1.2005
   92MOL0     H12363   5.384   8.551   9.612 -1.2902 -3.2546  0.7882
   92MOL0     H12364   5.520   8.482   9.525  1.1359  2.2928 -1.0549
   92MOL0     H12365   5.370   8.524   9.307 -2.2338 -0.6367  0.9212
   92MOL0     H12366   5.275   8.635   9.416 -0.2213 -0.6164 -1.4001
   92MOL0     H12367   5.431   8.764   9.294 -2.9153  1.7640  3.1508
   92MOL0     H12368   5.501   8.765   9.460 -0.9646  1.3940  0.1347
   92MOL0     H12369   5.598   8.601   9.230  1.4199 -1.0125 -1.1268
   92MOL0     H12370   5.659   8.572   9.393 -0.0859  1.6291  1.2886
   92MOL0     H12371   5.602   8.905   9.209  0.9007  0.1637 -0.9710
   92MOL0     H12372   5.756   9.056   9.064 -1.9649 -2.1784  2.5899
   92MOL0     H12373   5.829   9.145   9.201  0.1899  1.4844 -0.5955
   92MOL0     H12374   5.930   9.034   8.940 -1.0706 -0.7490  0.4315
   92MOL0     H12375   6.049   8.991   9.063 -0.2125 -0.9817 -3.2325
   92MOL0     H12376   6.148   9.191   9.005 -0.3412 -2.6615  0.4468
   92MOL0     H12377   6.028   9.241   9.132 -1.1120  2.9187 -0.9156
   92MOL0     H12378   5.998   9.228   8.827 -0.8367 -2.5624  1.5912
   92MOL0     H12379   6.017   9.380   8.907  2.1013 -0.3137  0.1348
   92MOL0     H12380   5.624   9.383   8.988  2.0051 -1.3379  0.8717
   92MOL0     H12381   5.469   9.547   9.006  0.9472  1.2305  0.5525
   92MOL0     H12382   5.504   9.722   8.948  1.2486 -0.3452  0.2842
   92MOL0     H12383   5.391   9.601   8.865  0.3372  0.6698 -0.8610
   92MOL0     H12384   5.423   9.912   8.486  3.3138 -1.0932  0.3355
   92MOL0     H12385   5.388  10.158   8.446 -3.1336  0.9521  1.5184
   92MOL0     H12386   5.178  10.341   8.689 -0.1330  0.3550  0.2979
   92MOL0     H12387   5.287  10.355   8.830  1.0657  0.0459 -0.0305
   92MOL0     H12388   5.193  10.574   8.798  1.2652  4.3208 -2.1777
   92MOL0     H12389   5.353  10.583   8.733  1.4502 -2.2124  0.1968
   92MOL0     H12390   5.169  10.484   8.525  1.5652  0.5914 -3.6592
   92MOL0     H12391   5.276  10.611   8.521 -1.5139  1.4902 -1.6705
   92MOL0     H12392   5.139  10.757   8.649  1.8561 -0.9157 -1.5194
   92MOL0     H12393   5.058  10.702   8.506 -0.2848 -0.4736 -0.5343
   92MOL0     H12394   4.959  10.596   8.779 -0.0758  0.5263  0.1230
   92MOL0     H12395   4.900  10.555   8.620 -3.1230  0.8626 -0.0501
   92MOL0     H12396   4.924  10.838   8.733 -0.1361 -1.8137  1.5665
   92MOL0     H12397   4.842  10.806   8.578 -1.3812  2.7699  0.1389
   92MOL0     H12398   4.769  10.726   8.863 -0.3820 -1.4918  0.7041
   92MOL0     H12399   4.704  10.642   8.715  3.1221  0.1232 -1.9469
   92MOL0     H12400   4.676  10.919   8.810 -1.8542  0.1256 -0.6339
   92MOL0     H12401   4.537  10.811   8.805 -0.0791 -3.5602 -1.5993
   92MOL0     H12402   5.459  10.223   8.869  1.0256  1.3840 -1.2802
   92MOL0     H12403   5.514   9.978   8.889 -4.5116 -3.3256  0.2169
   92MOL0     H12404   5.826   9.604   8.598 -1.6461 -0.9559 -1.6993
   92MOL0     H12405   5.937   9.410   8.700  0.9209  1.7632 -0.3453
   92MOL0     H12406   5.556   7.889   9.825 -2.2392  1.6444 -1.5452
   92MOL0     H12407   5.559   7.700  10.014 -3.5811 -0.4149 -1.0613
   92MOL0     H12408   5.199   7.537  10.488 -2.1454 -0.3765 -0.6710
   92MOL0     H12409   5.239   7.338  10.639 -1.7346  1.3768  0.4005
   92MOL0     H12410   5.383   7.211  10.781  1.2215 -0.2192  0.0321
   92MOL0     H12411   5.263   7.113  10.686 -0.1155  0.9318 -1.5530
   92MOL0     H12412   5.367   6.993  10.868 -1.9274 -0.7827 -1.7430
   92MOL0     H12413   5.526   7.025  10.810  0.0746 -2.0411  1.7108
   92MOL0     H12414   5.316   6.835  10.692 -0.4174 -0.4211  0.4382
   92MOL0     H12415   5.475   6.790  10.773 -0.2676  0.6292  1.0033
   92MOL0     H12416   5.512   6.952  10.530 -0.9301 -0.1750 -2.4831
   92MOL0     H12417   5.438   6.790  10.499 -1.7050  2.2149 -0.0828
   92MOL0     H12418   5.811   6.679  10.688 -0.8842  0.8179  0.2933
   92MOL0     H12419   5.562   7.219  10.407 -0.7334 -0.1736  0.4719
   92MOL0     H12420   5.549   7.445  10.264  1.1282  0.5208  1.5830
   93MOL0     O12421   9.484   8.980  11.386 -0.2360 -0.7558  0.4116
   93MOL0     C12422   9.570   8.986  11.475  0.3682  0.3348  0.7345
   93MOL0     O12423   9.670   9.075  11.487 -0.6216 -0.7669  0.0034
   93MOL0     C12424   9.679   9.178  11.394  0.9360  0.2377  0.0162
   93MOL0     C12425   9.670   9.307  11.448  0.4286  0.9836 -0.5354
   93MOL0     C12426   9.682   9.419  11.375 -0.0849  0.6178  1.1675
   93MOL0     C12427   9.689   9.402  11.234  0.2882 -0.6797 -1.2067
   93MOL0     O12428   9.701   9.513  11.153 -0.1502  0.2159 -0.9165
   93MOL0     C12429   9.575   9.562  11.117 -0.4755  0.3559 -0.1921
   93MOL0     C12430   9.574   9.713  11.120  0.4750 -0.1912 -0.1602
   93MOL0     C12431   9.456   9.774  11.046 -0.2894 -0.6542  0.2562
   93MOL0     C12432   9.473   9.929  11.069  1.1438 -1.3158  0.1087
   93MOL0     C12433   9.426   9.973  11.199  0.4625  0.2370 -1.1752
   93MOL0     C12434   9.403  10.122  11.199  0.0279 -0.5999 -0.8518
   93MOL0     C12435   9.332  10.176  11.325 -1.2437 -0.0741 -1.0046
   93MOL0     C12436   9.337  10.328  11.315  0.7641 -1.0194 -0.3677
   93MOL0     N12437   9.247  10.390  11.419  1.2018  0.9204 -0.1059
   93MOL0     C12438   9.109  10.406  11.411 -0.8678 -1.1371  0.8420
   93MOL0     C12439   9.075  10.466  11.531  0.0455 -0.1481 -1.1665
   93MOL0     C12440   8.944  10.526  11.557 -0.4764 -0.3259  0.3504
   93MOL0     C12441   8.949  10.681  11.583  0.2318  0.2717 -0.6921
   93MOL0     C12442   8.982  10.735  11.724 -0.2052  0.4525  0.4336
   93MOL0     C12443   8.885  10.685  11.836  0.3720  0.5926  0.4706
   93MOL0     O12444   8.920  10.758  11.949  0.6196 -0.5333 -0.5501
   93MOL0     C12445   8.893  10.707  12.071  0.4981 -0.1593 -0.6214
   93MOL0     C12446   8.965  10.739  12.182 -0.6856 -0.6077 -0.2190
   93MOL0     C12447   8.933  10.696  12.309 -1.2896 -0.6363 -0.0583
   93MOL0     C12448   9.028  10.741  12.409 -0.9112  0.2954  0.0171
   93MOL0     C12449   8.829  10.607  12.331  0.2483  0.4396 -0.0553
   93MOL0     C12450   8.792  10.539  12.467 -0.3087 -0.7706  0.0570
   93MOL0     O12451   8.663  10.479  12.479  0.4862 -0.4219  0.6082
   93MOL0     C12452   8.614  10.429  12.596 -0.4653 -0.2351  0.3931
   93MOL0     C12453   8.472  10.433  12.604  0.4099  0.0884 -1.2843
   93MOL0     C12454   8.402  10.389  12.712  0.0911  0.7535  0.8147
   93MOL0     C12455   8.476  10.306  12.801 -0.9542 -0.0625 -0.1794
   93MOL0     O12456   8.418  10.242  12.902  0.3799  0.6312  0.4032
   93MOL0     C12457   8.294  10.292  12.946  0.7504  0.0421  0.3243
   93MOL0     C12458   8.232  10.214  13.063 -0.4342  0.8683 -0.1812
   93MOL0     C12459   8.149  10.281  13.170  0.5276 -0.0423  0.9971
   93MOL0     C12460   8.000  10.281  13.138 -0.5397 -0.2107  0.8515
   93MOL0     C12461   7.900  10.328  13.241  0.0625  0.4242  0.4970
   93MOL0     C12462   7.882  10.216  13.346 -0.1670  0.3334 -0.7407
   93MOL0     C12463   7.786  10.264  13.454  1.3064 -0.1434 -0.7177
   93MOL0     C12464   7.737  10.141  13.536 -0.6936 -1.2274 -0.0145
   93MOL0    Cl12465   7.652  10.011  13.446  0.1703  0.0435  0.0591
   93MOL0     C12466   8.613  10.301  12.803  0.0131  0.6590  0.5497
   93MOL0     C12467   8.683  10.364  12.699 -0.2531 -0.5524 -0.2558
   93MOL0     O12468   8.866  10.577  12.561  0.4758 -0.3712 -0.5944
   93MOL0     C12469   8.743  10.587  12.222  0.1977 -0.2876  0.1320
   93MOL0     C12470   8.771  10.632  12.093  0.1022  0.4892 -0.4739
   93MOL0     N12471   9.183  10.488  11.612 -0.1570  0.5968  0.0529
   93MOL0     N12472   9.284  10.442  11.544  0.1857 -0.0643 -0.3637
   93MOL0     C12473   9.705   9.274  11.177  0.3102  0.1161 -0.4894
   93MOL0     C12474   9.706   9.162  11.258 -0.9976  0.7971  0.5760
   93MOL0     C12475   9.540   8.899  11.596  0.6681  0.3959  0.4508
   93MOL0     C12476   9.458   8.786  11.582  0.5253  0.1919  0.6702
   93MOL0     C12477   9.422   8.711  11.692 -0.1069  0.8285 -0.5557
   93MOL0     C12478   9.485   8.736  11.816  0.1948 -0.1073 -0.3468
   93MOL0     O12479   9.441   8.660  11.920 -0.5921 -0.0715 -0.5029
   93MOL0     C12480   9.315   8.599  11.930  0.7969 -0.0809 -0.1209
   93MOL0     C12481   9.282   8.602  12.079  0.6126 -0.4959  0.5228
   93MOL0     C12482   9.393   8.534  12.172  0.8984 -0.2945  1.1305
   93MOL0     C12483   9.413   8.384  12.149  0.2356 -0.5230  0.1380
   93MOL0     C12484   9.290   8.310  12.150  0.3929 -0.0783  0.0721
   93MOL0     C12485   9.185   8.239  12.150  0.0995  0.0527  0.1490
   93MOL0     C12486   9.570   8.845  11.828  1.2254 -0.5827 -0.2844
   93MOL0     C12487   9.598   8.927  11.721  0.9405  0.8020 -0.0084
   93MOL0     H12488   9.656   9.311  11.556 -0.2139 -0.1354 -0.5589
   93MOL0     H12489   9.675   9.517  11.421  2.3881 -0.1293  3.4033
   93MOL0     H12490   9.550   9.545  11.012 -0.1528  1.9334 -0.5573
   93MOL0     H12491   9.505   9.526  11.192  0.2185  1.8782  1.2542
   93MOL0     H12492   9.581   9.745  11.224  3.0279 -2.0577  0.3558
   93MOL0     H12493   9.663   9.755  11.072 -0.4943  1.6310 -0.4708
   93MOL0     H12494   9.460   9.755  10.938 -0.3718  1.4224 -0.1646
   93MOL0     H12495   9.357   9.749  11.085 -0.2580  0.4572  1.1005
   93MOL0     H12496   9.578   9.959  11.057  0.9778 -0.6497  0.2498
   93MOL0     H12497   9.426   9.977  10.983  1.4543 -0.3719  0.4495
   93MOL0     H12498   9.334   9.919  11.222  1.6308 -1.6539 -0.7558
   93MOL0     H12499   9.488   9.950  11.286 -2.5918 -0.2241  1.0423
   93MOL0     H12500   9.492  10.181  11.176 -0.8750  0.2487 -2.3635
   93MOL0     H12501   9.341  10.158  11.116  1.0406  1.0841 -0.9108
   93MOL0     H12502   9.229  10.140  11.326 -2.2536  2.3533  2.0239
   93MOL0     H12503   9.386  10.147  11.416 -2.7056 -1.0261 -0.4218
   93MOL0     H12504   9.307  10.361  11.215 -2.5505  2.6803  1.5687
   93MOL0     H12505   9.439  10.357  11.343  0.4799 -0.4465  0.1244
   93MOL0     H12506   9.050  10.391  11.322  2.7094 -1.7510 -1.6110
   93MOL0     H12507   8.889  10.505  11.464 -1.8333 -1.9428  1.4685
   93MOL0     H12508   8.902  10.473  11.643 -0.4565 -1.2161 -0.1845
   93MOL0     H12509   8.856  10.729  11.554  1.1572  1.2624 -2.1386
   93MOL0     H12510   9.028  10.715  11.515 -1.1706  4.0802 -0.6452
   93MOL0     H12511   8.980  10.840  11.693  0.7615  0.1428 -0.7396
   93MOL0     H12512   9.082  10.699  11.749  0.5883  2.2523  0.0206
   93MOL0     H12513   8.891  10.577  11.854  3.4581  0.3349 -1.3776
   93MOL0     H12514   8.778  10.704  11.818  0.4179 -0.1898 -0.7399
   93MOL0     H12515   9.054  10.795  12.154  0.1180 -2.3457 -1.3249
   93MOL0     H12516   9.072  10.652  12.456  1.7893  0.5690 -1.7473
   93MOL0     H12517   9.111  10.798  12.366 -0.0508 -1.1023 -0.2405
   93MOL0     H12518   8.987  10.791  12.497  2.4405  0.7280  1.4800
   93MOL0     H12519   8.420  10.481  12.522 -0.1558  0.9187 -0.4528
   93MOL0     H12520   8.295  10.407  12.715 -0.0472 -0.0711  3.0543
   93MOL0     H12521   8.300  10.396  12.981 -2.9253  0.4272  0.1940
   93MOL0     H12522   8.219  10.288  12.867  0.1967 -0.6161  0.8665
   93MOL0     H12523   8.176  10.129  13.021  0.2477 -0.0615  0.7256
   93MOL0     H12524   8.317  10.162  13.108 -2.2136 -3.4260 -1.2613
   93MOL0     H12525   8.181  10.383  13.193 -0.3459  0.3959  0.3431
   93MOL0     H12526   8.162  10.228  13.264 -0.3515 -3.1264 -0.4979
   93MOL0     H12527   7.992  10.342  13.047 -0.8336 -0.8739  0.4262
   93MOL0     H12528   7.973  10.183  13.097  0.5478  0.0217 -0.5109
   93MOL0     H12529   7.803  10.341  13.191 -0.1532 -0.3502  0.7000
   93MOL0     H12530   7.935  10.424  13.280 -1.4375 -0.2138  3.7032
   93MOL0     H12531   7.837  10.128  13.301 -1.8357  0.9751 -0.4166
   93MOL0     H12532   7.978  10.197  13.395 -0.4622  1.0970  0.1738
   93MOL0     H12533   7.700  10.308  13.402  0.6567  0.3524  0.7241
   93MOL0     H12534   7.834  10.345  13.509 -1.2117  1.6300 -0.9459
   93MOL0     H12535   7.665  10.178  13.610 -2.6026 -0.4717 -2.1486
   93MOL0     H12536   7.811  10.094  13.601 -0.8656 -1.0647  0.3054
   93MOL0     H12537   8.667  10.252  12.883  0.0491  2.9717  2.0514
   93MOL0     H12538   8.790  10.348  12.701 -0.3441 -1.1655  1.2736
   93MOL0     H12539   8.649  10.534  12.236 -0.3481  1.2261  2.8469
   93MOL0     H12540   8.692  10.620  12.019  1.1674 -1.9709 -1.3405
   93MOL0     H12541   9.713   9.280  11.069 -0.0198  2.4343 -0.4466
   93MOL0     H12542   9.715   9.062  11.215  1.2273  0.8190  0.8662
   93MOL0     H12543   9.414   8.745  11.491  0.0547 -3.7757  2.4504
   93MOL0     H12544   9.367   8.619  11.678  2.9439 -1.8087  2.7306
   93MOL0     H12545   9.235   8.643  11.871 -1.1394 -3.8451 -0.6149
   93MOL0     H12546   9.319   8.495  11.898 -2.4552  0.3857 -2.4925
   93MOL0     H12547   9.184   8.559  12.102  0.4187 -0.0531  0.5148
   93MOL0     H12548   9.294   8.705  12.112  0.7172 -1.2700  3.1957
   93MOL0     H12549   9.351   8.531  12.273 -1.8739 -1.8502  0.0311
   93MOL0     H12550   9.490   8.585  12.169  0.9585 -0.4371 -1.6207
   93MOL0     H12551   9.474   8.341  12.230  2.1213  1.2867 -0.2217
   93MOL0     H12552   9.461   8.368  12.053 -1.2929 -1.0456 -0.5681
   93MOL0     H12553   9.102   8.173  12.139 -0.5570  0.7390  0.8671
   93MOL0     H12554   9.606   8.871  11.927 -0.8075  0.4911  0.2389
   93MOL0     H12555   9.659   9.016  11.729  0.5022  0.9680  2.2032
   94MOL0     O12556   9.487   4.213   6.393  0.2504  0.4162 -0.1548
   94MOL0     C12557   9.424   4.198   6.282  0.0025 -0.9926  0.1879
   94MOL0     O12558   9.491   4.211   6.160  0.5660  0.0177  0.2477
   94MOL0     C12559   9.630   4.219   6.179  0.0578 -0.2674 -0.0140
   94MOL0     C12560   9.698   4.100   6.196  0.5562 -0.0237  0.7172
   94MOL0     C12561   9.840   4.107   6.208 -0.1740 -0.0087  0.3159
   94MOL0     C12562   9.911   4.229   6.189 -0.0125 -0.8581  0.1470
   94MOL0     O12563  10.045   4.246   6.182  0.3129  0.1649 -0.2088
   94MOL0     C12564  10.122   4.194   6.291 -0.5593  0.9025  0.2381
   94MOL0     C12565  10.261   4.183   6.226 -0.9714  2.1093 -1.4262
   94MOL0     C12566  10.326   4.316   6.192  0.0389 -0.1111 -0.1627
   94MOL0     C12567  10.479   4.305   6.151 -0.6776 -0.3451  1.0895
   94MOL0     C12568  10.537   4.443   6.118  0.5602 -0.8101 -0.3775
   94MOL0     C12569  10.564   4.534   6.234 -0.1821 -0.9491  0.1869
   94MOL0     C12570  10.638   4.669   6.216 -0.3465  0.8901  0.5088
   94MOL0     C12571  10.680   4.732   6.365 -0.6579 -0.1366  0.1081
   94MOL0     N12572  10.563   4.759   6.442  0.7758 -0.6735  0.0627
   94MOL0     C12573  10.502   4.663   6.518  0.3464  0.3850  0.0028
   94MOL0     C12574  10.403   4.734   6.570  0.3227  0.3149  0.0053
   94MOL0     C12575  10.301   4.675   6.659 -0.4774  1.8048  0.6159
   94MOL0     C12576  10.225   4.777   6.743  0.3022 -0.5093 -0.1487
   94MOL0     C12577  10.296   4.777   6.886  0.2045 -0.7574  0.2332
   94MOL0     C12578  10.248   4.887   6.978  0.0411  0.3632  0.3241
   94MOL0     O12579  10.109   4.918   6.965 -0.2674  0.1068  0.5019
   94MOL0     C12580  10.041   4.898   7.080  0.3177 -0.0084 -0.5792
   94MOL0     C12581   9.935   4.980   7.119  0.3098 -0.2013  0.3427
   94MOL0     C12582   9.857   4.968   7.235 -0.2912  0.7525  1.3651
   94MOL0     C12583   9.760   5.089   7.260 -0.3121  0.0184 -0.0017
   94MOL0     C12584   9.874   4.857   7.312  0.0089 -0.6670  0.0694
   94MOL0     C12585   9.784   4.823   7.433  0.4330 -0.7850  0.2613
   94MOL0     O12586   9.853   4.744   7.523 -0.3944 -0.1138  0.2007
   94MOL0     C12587   9.784   4.714   7.636  1.0837 -0.8426 -0.0851
   94MOL0     C12588   9.664   4.641   7.639  0.9055  0.7640 -0.7469
   94MOL0     C12589   9.600   4.607   7.756 -1.1857 -1.0132  0.1357
   94MOL0     C12590   9.651   4.652   7.877  0.0669 -0.1785 -0.8816
   94MOL0     O12591   9.589   4.626   7.997  0.2776 -0.6400 -1.2307
   94MOL0     C12592   9.463   4.559   8.032 -0.4582 -0.1081  0.2422
   94MOL0     C12593   9.484   4.404   8.049  0.3645 -0.1079  0.4877
   94MOL0     C12594   9.358   4.335   8.092  0.0038  0.9010 -0.3930
   94MOL0     C12595   9.318   4.363   8.236 -0.3705 -0.4338 -0.4869
   94MOL0     C12596   9.242   4.244   8.293 -0.7389  0.7822 -0.9518
   94MOL0     C12597   9.195   4.255   8.441  1.0035  1.1471  0.4306
   94MOL0     C12598   9.042   4.248   8.436 -0.8035  0.6384  0.1187
   94MOL0     C12599   8.978   4.376   8.384  0.6215 -0.4947  0.5249
   94MOL0    Cl12600   8.802   4.380   8.435 -0.3212 -0.0727  0.2159
   94MOL0     C12601   9.767   4.725   7.880 -0.2361 -0.7318 -1.2743
   94MOL0     C12602   9.832   4.759   7.766  0.0511 -0.2709  0.2332
   94MOL0     O12603   9.677   4.883   7.450  0.1333  0.2711  0.5807
   94MOL0     C12604   9.979   4.765   7.274  0.0827 -0.4222 -1.1547
   94MOL0     C12605  10.055   4.784   7.162 -0.3912  0.9286 -0.1496
   94MOL0     N12606  10.401   4.870   6.523  0.6223 -0.2933  0.1382
   94MOL0     N12607  10.494   4.882   6.435  0.0284  0.5709 -0.5117
   94MOL0     C12608   9.840   4.346   6.150 -1.1346  0.2464  0.6367
   94MOL0     C12609   9.695   4.339   6.158 -1.4273  0.3549 -0.6529
   94MOL0     C12610   9.278   4.199   6.280  0.7327  0.7811 -0.6138
   94MOL0     C12611   9.206   4.176   6.406 -0.1649 -0.0504  0.4152
   94MOL0     C12612   9.074   4.174   6.414 -0.3075  0.2904 -0.5508
   94MOL0     C12613   8.989   4.210   6.296 -0.6734 -0.0397 -0.4699
   94MOL0     O12614   8.852   4.216   6.287 -0.4683 -0.5346 -0.4521
   94MOL0     C12615   8.781   4.137   6.375 -0.3917 -0.2702 -0.4524
   94MOL0     C12616   8.637   4.125   6.340  1.0928  0.4834 -0.2934
   94MOL0     C12617   8.603   3.991   6.269  0.2008  0.4251  0.1733
   94MOL0     C12618   8.473   3.986   6.185 -0.2401 -0.5620  0.5883
   94MOL0     C12619   8.354   4.006   6.256  0.1874  0.0963 -0.0611
   94MOL0     C12620   8.250   4.017   6.323 -0.5287  0.8321 -0.6778
   94MOL0     C12621   9.060   4.254   6.184  0.3362  0.5558 -0.6656
   94MOL0     C12622   9.201   4.241   6.175  0.3226  0.1554 -0.0367
   94MOL0     H12623   9.654   4.002   6.212 -0.1906  0.6574  3.4064
   94MOL0     H12624   9.899   4.016   6.212  1.7278  1.1131 -0.7702
   94MOL0     H12625  10.135   4.258   6.378 -0.0820  1.2758 -0.1022
   94MOL0     H12626  10.094   4.093   6.322 -0.9108  0.7801 -0.4660
   94MOL0     H12627  10.332   4.134   6.293 -0.4736  1.8609 -2.1253
   94MOL0     H12628  10.254   4.118   6.138 -0.7372 -1.6363  1.0650
   94MOL0     H12629  10.275   4.371   6.112  0.7553  0.6431 -0.1211
   94MOL0     H12630  10.314   4.377   6.282 -2.2989 -0.0680 -0.4506
   94MOL0     H12631  10.541   4.252   6.224  1.0008 -0.0726 -0.0695
   94MOL0     H12632  10.477   4.237   6.065 -0.0430 -0.0913  0.8648
   94MOL0     H12633  10.627   4.424   6.058  0.1128  1.0720 -1.7521
   94MOL0     H12634  10.478   4.504   6.048  1.1503  0.0812 -0.1075
   94MOL0     H12635  10.471   4.553   6.288 -0.6376 -2.8784  0.1843
   94MOL0     H12636  10.629   4.479   6.303  0.3365  0.0741  0.5277
   94MOL0     H12637  10.734   4.642   6.171 -0.8509  0.5692 -0.3902
   94MOL0     H12638  10.586   4.738   6.150  1.6097  1.0411 -0.9681
   94MOL0     H12639  10.727   4.830   6.352 -0.1078 -0.4370 -0.1869
   94MOL0     H12640  10.736   4.660   6.425 -2.8323 -0.8498  1.3696
   94MOL0     H12641  10.549   4.568   6.539  1.8265  0.8583 -1.0161
   94MOL0     H12642  10.233   4.624   6.591 -0.0427  0.1451  1.3780
   94MOL0     H12643  10.348   4.603   6.726  2.1647 -0.2153 -3.0277
   94MOL0     H12644  10.120   4.750   6.757  0.7341 -1.9787  0.3938
   94MOL0     H12645  10.211   4.880   6.707 -2.8852 -0.0926  1.8958
   94MOL0     H12646  10.405   4.782   6.877  0.1836 -2.5880 -1.6996
   94MOL0     H12647  10.266   4.687   6.940 -2.8485  0.0134  0.0420
   94MOL0     H12648  10.300   4.977   6.944 -3.1345  1.0315 -3.4915
   94MOL0     H12649  10.288   4.859   7.077  3.7145  0.7768 -0.8782
   94MOL0     H12650   9.921   5.070   7.060 -3.7359 -0.7433  0.1568
   94MOL0     H12651   9.726   5.084   7.364  1.8629  0.2068  0.7683
   94MOL0     H12652   9.813   5.183   7.244  0.8698 -0.9092 -1.8603
   94MOL0     H12653   9.670   5.083   7.198  1.0774 -2.2826 -2.0118
   94MOL0     H12654   9.623   4.607   7.544  4.0759 -2.8151 -1.1011
   94MOL0     H12655   9.507   4.552   7.759 -1.8025  0.0001 -0.3327
   94MOL0     H12656   9.399   4.589   8.115 -0.3362  3.9860 -0.9636
   94MOL0     H12657   9.400   4.570   7.943  1.7323  0.0634 -1.3713
   94MOL0     H12658   9.513   4.367   7.950  1.9817  2.3347 -0.0171
   94MOL0     H12659   9.565   4.378   8.118  1.9822 -1.0626 -1.6550
   94MOL0     H12660   9.372   4.226   8.092  0.9674  1.0069  1.0182
   94MOL0     H12661   9.274   4.337   8.022 -0.2085 -4.8847 -0.7961
   94MOL0     H12662   9.414   4.371   8.287  0.6536  0.6296 -2.4578
   94MOL0     H12663   9.267   4.460   8.234  0.2342 -0.1230 -0.8858
   94MOL0     H12664   9.307   4.158   8.283 -2.0467 -0.4065  0.2603
   94MOL0     H12665   9.154   4.223   8.232 -0.7768 -0.1247 -0.6005
   94MOL0     H12666   9.235   4.163   8.484  0.8151  1.5459  1.4825
   94MOL0     H12667   9.235   4.344   8.491  1.8501 -0.5134  2.9095
   94MOL0     H12668   9.003   4.225   8.535 -1.0903 -1.4878 -0.4353
   94MOL0     H12669   9.012   4.165   8.372  2.2151  0.9166 -1.8670
   94MOL0     H12670   8.994   4.389   8.276 -2.0168  1.8040  0.2995
   94MOL0     H12671   9.028   4.463   8.430  0.7886 -0.7566  0.8470
   94MOL0     H12672   9.807   4.749   7.978 -0.4814 -2.7214 -0.6297
   94MOL0     H12673   9.907   4.837   7.770 -0.7352  0.5234 -0.1506
   94MOL0     H12674  10.000   4.681   7.340  0.7332 -1.1371 -2.2372
   94MOL0     H12675  10.126   4.708   7.131 -1.3190  0.7448 -1.9482
   94MOL0     H12676   9.899   4.436   6.138 -1.1401  0.7259  3.6280
   94MOL0     H12677   9.644   4.431   6.131 -0.0954  1.0815 -0.7732
   94MOL0     H12678   9.261   4.164   6.499 -0.7431  1.3704  0.9599
   94MOL0     H12679   9.025   4.148   6.507  2.4189  0.1779  0.9729
   94MOL0     H12680   8.817   4.034   6.367  5.2960  1.3963 -0.6331
   94MOL0     H12681   8.799   4.172   6.477 -1.8845 -1.6187  0.3050
   94MOL0     H12682   8.613   4.210   6.275  3.7125  1.9152  0.4684
   94MOL0     H12683   8.582   4.143   6.432  0.8757  1.1890 -0.5528
   94MOL0     H12684   8.599   3.912   6.344 -2.0215  0.7039  0.4039
   94MOL0     H12685   8.682   3.960   6.200  1.4917 -2.3976  2.7009
   94MOL0     H12686   8.462   3.884   6.147 -2.4402 -0.6275  1.2596
   94MOL0     H12687   8.454   4.069   6.116 -6.0897 -2.3028 -0.4757
   94MOL0     H12688   8.160   4.043   6.376 -0.2803 -2.0536  1.4059
   94MOL0     H12689   8.999   4.286   6.099 -1.8386 -2.3000 -0.3616
   94MOL0     H12690   9.240   4.254   6.075 -1.7243 -3.6630 -1.5339
   95MOL0     O12691   9.770   4.795   1.666  0.6669  0.1166 -0.3926
   95MOL0     C12692   9.753   4.715   1.566  0.3605  0.1389  0.1621
   95MOL0     O12693   9.647   4.628   1.549 -0.0515  0.6695  0.3361
   95MOL0     C12694   9.532   4.640   1.627 -0.1892  0.1862 -0.5153
   95MOL0     C12695   9.417   4.689   1.575 -0.5695 -0.3803  0.7304
   95MOL0     C12696   9.310   4.721   1.666 -0.2167 -0.1065 -0.9982
   95MOL0     C12697   9.319   4.703   1.805  0.6698 -0.4244  0.3281
   95MOL0     O12698   9.204   4.724   1.883 -0.2962 -0.0332 -0.5331
   95MOL0     C12699   9.232   4.756   2.020  0.4977  0.2149 -0.4839
   95MOL0     C12700   9.133   4.860   2.094 -0.6112  0.0191 -0.3927
   95MOL0     C12701   9.142   5.007   2.060 -0.1834  0.0104  0.0076
   95MOL0     C12702   9.123   5.033   1.903  0.5404  0.5440 -0.0868
   95MOL0     C12703   8.989   4.974   1.844 -0.0234 -0.4777  0.7175
   95MOL0     C12704   8.863   5.041   1.913  0.9696 -0.5897 -0.3986
   95MOL0     C12705   8.852   5.208   1.919  0.3571  0.8679 -0.2841
   95MOL0     C12706   8.780   5.267   2.044 -0.5475 -0.3013 -0.0422
   95MOL0     N12707   8.824   5.400   2.069  0.3283 -0.4698 -0.3213
   95MOL0     C12708   8.755   5.527   2.039  0.0258  1.1048 -0.3416
   95MOL0     C12709   8.836   5.627   2.071 -0.5007  0.3693  0.2104
   95MOL0     C12710   8.805   5.775   2.064 -0.2256 -0.6643 -0.5362
   95MOL0     C12711   8.651   5.796   2.083  0.9276  0.1252 -0.8106
   95MOL0     C12712   8.614   5.941   2.123  0.3481 -0.1617  0.3720
   95MOL0     C12713   8.481   5.928   2.211  0.0164 -0.1616  0.0239
   95MOL0     O12714   8.374   5.861   2.153 -0.0221  0.0429 -0.7047
   95MOL0     C12715   8.261   5.830   2.222 -1.1541  0.2749  0.0467
   95MOL0     C12716   8.167   5.740   2.173  0.2974 -0.3258 -0.2981
   95MOL0     C12717   8.052   5.702   2.241  0.0036  0.1969 -0.1702
   95MOL0     C12718   7.956   5.617   2.172  0.2152 -0.1451 -0.5534
   95MOL0     C12719   8.027   5.747   2.373  0.4606  0.3214 -0.3160
   95MOL0     C12720   7.923   5.706   2.471  1.0156 -0.7017  1.0691
   95MOL0     O12721   7.847   5.597   2.438 -0.2959  0.0494 -0.4720
   95MOL0     C12722   7.763   5.554   2.534  0.7048 -0.0839  0.5479
   95MOL0     C12723   7.792   5.440   2.613  1.2293 -0.1067 -0.4063
   95MOL0     C12724   7.691   5.386   2.700 -0.1928  0.6001 -0.4767
   95MOL0     C12725   7.575   5.468   2.730  0.3425  0.2405 -0.8019
   95MOL0     O12726   7.489   5.442   2.835  0.0797  0.2128 -0.4634
   95MOL0     C12727   7.525   5.337   2.931 -0.4284 -0.2943  0.6299
   95MOL0     C12728   7.419   5.329   3.037  0.0490 -0.2094  0.5332
   95MOL0     C12729   7.312   5.236   2.996  0.0100 -0.0689 -0.1556
   95MOL0     C12730   7.194   5.265   3.087  0.4516  0.8066  0.1059
   95MOL0     C12731   7.078   5.175   3.033  0.5106  0.6333  0.8251
   95MOL0     C12732   6.951   5.177   3.120  0.1564 -1.0949 -0.2577
   95MOL0     C12733   6.907   5.308   3.179 -0.8361 -0.3714 -0.4947
   95MOL0     C12734   6.763   5.302   3.241 -0.1976  0.2033  0.2157
   95MOL0    Cl12735   6.635   5.267   3.124 -0.1082  0.2587  0.5911
   95MOL0     C12736   7.554   5.582   2.657  0.7034 -0.4196 -0.4325
   95MOL0     C12737   7.641   5.623   2.556  0.0765  0.1847 -0.8274
   95MOL0     O12738   7.914   5.759   2.582  0.5622 -0.3625 -0.2586
   95MOL0     C12739   8.127   5.832   2.428  0.1778  0.7310  1.1532
   95MOL0     C12740   8.236   5.865   2.361 -0.0092 -0.8920  0.5359
   95MOL0     N12741   8.956   5.570   2.112 -0.6636  0.9501  0.5327
   95MOL0     N12742   8.953   5.438   2.099 -0.5688  0.4798 -0.4382
   95MOL0     C12743   9.421   4.623   1.842 -0.6269  1.0577  0.0787
   95MOL0     C12744   9.540   4.607   1.767  0.5668  0.1183 -0.2547
   95MOL0     C12745   9.857   4.708   1.453  0.5174  0.8361  0.3530
   95MOL0     C12746   9.852   4.588   1.365 -0.9222  0.4212 -0.0820
   95MOL0     C12747   9.954   4.587   1.266  0.1342 -0.1803  0.5454
   95MOL0     C12748  10.036   4.699   1.244  1.0031 -0.4089 -1.5825
   95MOL0     O12749  10.133   4.712   1.148  0.0763 -0.0622  0.2487
   95MOL0     C12750  10.117   4.622   1.035  0.8794 -1.5021  0.0700
   95MOL0     C12751  10.206   4.682   0.916 -0.9577 -0.4626  0.4791
   95MOL0     C12752  10.176   4.836   0.904 -0.0055  0.1124 -0.0061
   95MOL0     C12753  10.154   4.904   0.769 -0.1811  0.1794  1.1176
   95MOL0     C12754  10.026   4.852   0.706 -0.1300 -0.2938  0.4356
   95MOL0     C12755   9.935   4.810   0.638 -0.0604  0.5691  0.3913
   95MOL0     C12756  10.025   4.807   1.330 -0.1878  0.6336  0.3917
   95MOL0     C12757   9.935   4.828   1.432 -0.5113  1.0911 -0.6287
   95MOL0     H12758   9.416   4.699   1.467  0.2114 -2.9505  0.4196
   95MOL0     H12759   9.214   4.745   1.620 -0.1415 -0.0076 -1.1047
   95MOL0     H12760   9.222   4.672   2.090  2.4838  2.4804  2.7626
   95MOL0     H12761   9.332   4.793   2.042 -0.3150  1.0131  2.1733
   95MOL0     H12762   9.032   4.821   2.077 -1.6728  1.2255  2.5080
   95MOL0     H12763   9.152   4.855   2.201 -0.4432  0.6611 -0.3875
   95MOL0     H12764   9.058   5.054   2.111  2.1341 -0.9614  5.3410
   95MOL0     H12765   9.229   5.062   2.097 -1.6313  4.0165 -1.8963
   95MOL0     H12766   9.134   5.139   1.881 -0.0129  0.8199  0.8747
   95MOL0     H12767   9.204   4.981   1.852  0.5865 -1.4250  1.8332
   95MOL0     H12768   8.995   4.981   1.735 -2.1990  2.5496  0.6800
   95MOL0     H12769   8.976   4.867   1.863 -2.3070 -1.0380 -3.0301
   95MOL0     H12770   8.782   5.011   1.847 -4.1405  3.9840  2.9120
   95MOL0     H12771   8.855   4.998   2.013 -0.6535  2.3792  0.8905
   95MOL0     H12772   8.949   5.257   1.906  0.3240  0.4366 -2.6400
   95MOL0     H12773   8.796   5.230   1.828 -0.7371 -0.7591 -0.0537
   95MOL0     H12774   8.810   5.190   2.116  0.4017 -1.5861 -1.7373
   95MOL0     H12775   8.672   5.256   2.048 -0.5314 -0.3080  0.4175
   95MOL0     H12776   8.655   5.538   1.998  0.7155  2.0016 -1.8534
   95MOL0     H12777   8.843   5.814   2.159 -2.2135 -2.2154  1.0235
   95MOL0     H12778   8.854   5.816   1.976 -1.8718 -1.0512 -1.6801
   95MOL0     H12779   8.628   5.727   2.165 -0.7541 -0.4222 -1.7080
   95MOL0     H12780   8.592   5.765   1.997  0.2058  0.8527 -0.5980
   95MOL0     H12781   8.597   5.995   2.029  1.0592 -0.4632  0.0642
   95MOL0     H12782   8.693   5.992   2.178 -0.9025  2.2133  0.0864
   95MOL0     H12783   8.449   6.024   2.252 -2.1725 -0.2034 -1.3957
   95MOL0     H12784   8.496   5.873   2.304 -0.6445 -0.2445  0.0889
   95MOL0     H12785   8.190   5.713   2.071  1.6117 -1.2811  0.2158
   95MOL0     H12786   7.922   5.531   2.231  1.1789 -0.3846 -0.3391
   95MOL0     H12787   7.862   5.670   2.152 -0.0181  0.4550  1.7615
   95MOL0     H12788   8.005   5.575   2.084  1.5765 -0.2601  0.2448
   95MOL0     H12789   7.885   5.386   2.598  1.9787  1.1432 -0.3924
   95MOL0     H12790   7.714   5.293   2.750  0.9017  0.2670 -1.5494
   95MOL0     H12791   7.538   5.237   2.887 -0.1325  0.0922 -0.1819
   95MOL0     H12792   7.622   5.371   2.970  0.2228  1.0643 -1.9618
   95MOL0     H12793   7.467   5.273   3.117  0.8582 -2.6795 -1.5249
   95MOL0     H12794   7.391   5.432   3.063  2.0276  0.8879 -1.2792
   95MOL0     H12795   7.341   5.132   3.009  0.6599 -0.2352 -2.5003
   95MOL0     H12796   7.280   5.253   2.893  0.6259  3.4291  0.1081
   95MOL0     H12797   7.217   5.249   3.193 -0.3447 -0.1346  0.1477
   95MOL0     H12798   7.174   5.372   3.076 -1.2507  0.5149  0.1616
   95MOL0     H12799   7.115   5.075   3.009 -1.0527 -0.6419  3.2947
   95MOL0     H12800   7.044   5.224   2.941  2.8212 -0.9378 -0.9821
   95MOL0     H12801   6.868   5.130   3.068 -0.9534  0.9028 -0.4166
   95MOL0     H12802   6.989   5.111   3.198 -0.4995 -4.5113 -2.6364
   95MOL0     H12803   6.904   5.384   3.101  2.0145 -1.4432 -1.7902
   95MOL0     H12804   6.977   5.337   3.258  0.6302 -1.6369 -1.2762
   95MOL0     H12805   6.741   5.398   3.288  0.0887  1.2821 -1.7253
   95MOL0     H12806   6.763   5.216   3.309  2.4706 -2.1086 -2.3845
   95MOL0     H12807   7.479   5.656   2.681  2.8571  2.5975 -2.2852
   95MOL0     H12808   7.617   5.696   2.480 -3.2337 -0.6803 -0.7600
   95MOL0     H12809   8.115   5.868   2.529 -0.4417  1.4760  0.8212
   95MOL0     H12810   8.305   5.938   2.402  0.0294 -0.9137  0.5085
   95MOL0     H12811   9.418   4.590   1.945 -2.2474  0.7334 -0.0398
   95MOL0     H12812   9.629   4.570   1.817  0.1151  0.2774  0.7002
   95MOL0     H12813   9.782   4.507   1.381 -0.6060  0.6748  3.3356
   95MOL0     H12814   9.948   4.500   1.202 -2.2096 -0.6339  1.2963
   95MOL0     H12815  10.163   4.529   1.069  1.0619 -0.8427  1.7278
   95MOL0     H12816  10.011   4.617   1.006  1.5117 -0.2205 -2.7865
   95MOL0     H12817  10.191   4.635   0.818  1.1492  1.2955 -0.7897
   95MOL0     H12818  10.313   4.667   0.931 -0.7645 -0.9882 -1.1851
   95MOL0     H12819  10.253   4.890   0.959  1.0040  0.3761 -1.6136
   95MOL0     H12820  10.090   4.867   0.964 -0.2761  0.4449 -0.5590
   95MOL0     H12821  10.232   4.900   0.692 -2.8134 -1.6679 -1.6735
   95MOL0     H12822  10.132   5.009   0.792 -0.6465  0.0882  1.0844
   95MOL0     H12823   9.860   4.774   0.571 -2.1851  2.3601  1.6573
   95MOL0     H12824  10.101   4.883   1.318  1.7848 -0.9427  2.1633
   95MOL0     H12825   9.920   4.914   1.496 -1.6536  1.0257 -0.7933
   96MOL0     O12826   5.610   4.056   1.024 -0.6392 -0.3392  0.3396
   96MOL0     C12827   5.593   4.137   0.935 -0.6808 -0.2762  0.0903
   96MOL0     O12828   5.543   4.112   0.816 -0.3135  0.1913 -0.9222
   96MOL0     C12829   5.524   3.977   0.796 -1.1440  1.1465 -0.5808
   96MOL0     C12830   5.394   3.937   0.774 -0.1968  1.2759 -0.5957
   96MOL0     C12831   5.363   3.808   0.734 -0.2359  0.3767 -0.4186
   96MOL0     C12832   5.468   3.712   0.709  0.5864 -0.8437 -1.6252
   96MOL0     O12833   5.422   3.591   0.667  0.5589  0.5527 -0.3951
   96MOL0     C12834   5.518   3.492   0.627  0.1582 -0.0378  0.5159
   96MOL0     C12835   5.455   3.395   0.525 -0.3009  0.0463  0.4541
   96MOL0     C12836   5.403   3.472   0.407  0.5475 -0.2990  0.2327
   96MOL0     C12837   5.343   3.380   0.296 -0.0634 -0.5758  0.2886
   96MOL0     C12838   5.332   3.459   0.168 -0.7579  0.2201 -0.6124
   96MOL0     C12839   5.458   3.461   0.075 -0.8210 -0.8043 -0.4680
   96MOL0     C12840   5.439   3.521  -0.061 -1.2002  0.0955  0.4831
   96MOL0     C12841   5.402   3.674  -0.050 -0.2491  1.0607  0.2591
   96MOL0     N12842   5.418   3.749  -0.170 -1.0390 -0.1567 -0.0228
   96MOL0     C12843   5.411   3.714  -0.303  0.5507 -0.3265  0.1362
   96MOL0     C12844   5.450   3.830  -0.370 -0.8012  0.2191  0.8966
   96MOL0     C12845   5.479   3.834  -0.515 -0.2116 -0.7512 -0.2130
   96MOL0     C12846   5.624   3.845  -0.556  0.2447  0.1624  0.0532
   96MOL0     C12847   5.708   3.737  -0.489 -0.0983  1.0830 -0.2116
   96MOL0     C12848   5.683   3.589  -0.533  0.6247 -0.6488 -0.5311
   96MOL0     O12849   5.798   3.510  -0.499 -0.5132  0.2953  0.0234
   96MOL0     C12850   5.796   3.428  -0.389  0.0226 -0.1661  0.2637
   96MOL0     C12851   5.899   3.429  -0.301 -0.0879 -1.2716  0.1277
   96MOL0     C12852   5.909   3.342  -0.189 -0.4391  0.9017 -0.5920
   96MOL0     C12853   6.029   3.349  -0.102  0.4211  0.1344 -0.8449
   96MOL0     C12854   5.799   3.244  -0.179 -0.1672 -0.4392 -0.8556
   96MOL0     C12855   5.786   3.161  -0.057 -0.5410  0.1703 -0.1346
   96MOL0     O12856   5.657   3.122  -0.020 -0.6755 -0.4653 -0.4341
   96MOL0     C12857   5.639   3.032   0.082 -0.0716 -0.1668  0.1637
   96MOL0     C12858   5.648   2.898   0.054  0.2086 -0.3408  0.2296
   96MOL0     C12859   5.628   2.806   0.160 -0.1974  0.6819  1.1969
   96MOL0     C12860   5.608   2.852   0.292 -0.9532  0.0134  0.7067
   96MOL0     O12861   5.582   2.754   0.387  0.3245  0.1281  0.2723
   96MOL0     C12862   5.610   2.610   0.370  0.6709  0.2009 -0.1365
   96MOL0     C12863   5.759   2.573   0.368  0.7066 -0.6463 -0.3746
   96MOL0     C12864   5.837   2.605   0.497 -0.1721  0.8825  0.3673
   96MOL0     C12865   5.987   2.578   0.494  0.6045  0.0364 -0.1070
   96MOL0     C12866   6.053   2.551   0.630 -0.4441  0.1613  0.0274
   96MOL0     C12867   6.193   2.482   0.611  0.8271 -0.9173  0.1015
   96MOL0     C12868   6.246   2.435   0.748 -0.3840  0.1370 -0.1332
   96MOL0     C12869   6.184   2.309   0.811  0.0673 -0.6926  0.0840
   96MOL0    Cl12870   6.042   2.361   0.915  0.1388  0.1037 -0.1243
   96MOL0     C12871   5.598   2.984   0.322 -0.3735 -0.0887 -0.8140
   96MOL0     C12872   5.615   3.075   0.211  0.0715 -0.5058 -0.7834
   96MOL0     O12873   5.890   3.121   0.009  0.2669  0.2358  0.3459
   96MOL0     C12874   5.692   3.255  -0.269  0.1996 -0.7001 -0.0649
   96MOL0     C12875   5.691   3.344  -0.373  0.8608  0.0321  0.0291
   96MOL0     N12876   5.485   3.928  -0.276 -0.6247  0.7711 -0.8795
   96MOL0     N12877   5.474   3.876  -0.160  0.0614  0.4320  0.0092
   96MOL0     C12878   5.601   3.754   0.717 -0.4708 -0.4728 -0.9011
   96MOL0     C12879   5.635   3.886   0.771 -0.1347  0.1893  0.0423
   96MOL0     C12880   5.644   4.280   0.961 -0.2485  0.5706  0.4657
   96MOL0     C12881   5.649   4.375   0.862 -0.1902 -0.2919 -0.5288
   96MOL0     C12882   5.700   4.499   0.892  0.0849  1.2937  0.6391
   96MOL0     C12883   5.796   4.520   0.997 -0.2110  0.6639  0.1695
   96MOL0     O12884   5.863   4.636   1.015 -0.3666  0.1912 -0.0067
   96MOL0     C12885   5.912   4.698   0.898  0.4993  0.1979  0.1304
   96MOL0     C12886   5.995   4.816   0.940  0.2671 -0.6622 -0.1065
   96MOL0     C12887   6.017   4.892   0.813  0.1561  0.4213  0.1388
   96MOL0     C12888   6.092   5.030   0.825  0.0935  0.4194 -0.0989
   96MOL0     C12889   6.233   5.000   0.840  0.1619 -0.1257  0.4122
   96MOL0     C12890   6.356   4.976   0.840  0.3090  0.1168  0.8082
   96MOL0     C12891   5.791   4.417   1.099 -0.3215 -0.1762  0.1187
   96MOL0     C12892   5.712   4.300   1.082 -0.3901 -0.7351 -0.3476
   96MOL0     H12893   5.318   4.014   0.788 -1.8489 -0.0133 -1.9977
   96MOL0     H12894   5.262   3.768   0.737 -0.5626  1.2335  0.7717
   96MOL0     H12895   5.614   3.528   0.589  1.3057 -2.2643  1.1358
   96MOL0     H12896   5.556   3.438   0.714 -2.4888  0.4689  2.1041
   96MOL0     H12897   5.534   3.330   0.487 -0.7067 -0.1309 -0.1114
   96MOL0     H12898   5.371   3.336   0.563 -1.0138 -1.7193 -3.3711
   96MOL0     H12899   5.322   3.541   0.433  0.1019 -1.3601  1.8381
   96MOL0     H12900   5.487   3.530   0.367  1.1469 -0.7387  0.8384
   96MOL0     H12901   5.398   3.286   0.288 -0.8895 -0.9249 -2.8905
   96MOL0     H12902   5.239   3.363   0.328 -3.1996  6.0682 -3.9652
   96MOL0     H12903   5.245   3.420   0.115 -1.1338  2.5646 -1.8608
   96MOL0     H12904   5.310   3.563   0.195 -0.0526  0.4777 -0.9878
   96MOL0     H12905   5.530   3.517   0.135 -1.7221 -2.6430  2.6055
   96MOL0     H12906   5.491   3.361   0.046  0.2347 -0.2930 -1.0711
   96MOL0     H12907   5.519   3.504  -0.133 -1.4305 -0.6191  0.3839
   96MOL0     H12908   5.353   3.477  -0.113  1.0214 -2.9067 -0.9274
   96MOL0     H12909   5.448   3.716   0.039 -0.7566  0.5991  0.7462
   96MOL0     H12910   5.294   3.677  -0.034 -0.6718 -0.8781 -1.6964
   96MOL0     H12911   5.378   3.628  -0.361 -0.4091  0.7338 -0.9554
   96MOL0     H12912   5.429   3.741  -0.545 -1.8456 -0.1675  0.6193
   96MOL0     H12913   5.423   3.913  -0.566 -0.7714  0.4451  2.1093
   96MOL0     H12914   5.661   3.945  -0.529  0.0005  0.9373 -2.2551
   96MOL0     H12915   5.634   3.823  -0.663  0.4386  0.9088 -0.0908
   96MOL0     H12916   5.717   3.739  -0.380 -0.3686  0.7835 -0.1824
   96MOL0     H12917   5.809   3.766  -0.518  1.1506 -0.6449  2.0541
   96MOL0     H12918   5.652   3.593  -0.637  2.5755  1.5066 -1.1233
   96MOL0     H12919   5.602   3.536  -0.482  0.6744 -0.4144 -0.2055
   96MOL0     H12920   5.987   3.488  -0.322  0.3517 -0.7405  3.0999
   96MOL0     H12921   6.009   3.368   0.005 -0.5261  1.0541 -1.1615
   96MOL0     H12922   6.090   3.259  -0.105  0.8267  0.3709 -0.1375
   96MOL0     H12923   6.102   3.426  -0.127  0.7261  0.9461  2.1620
   96MOL0     H12924   5.667   2.866  -0.048 -1.5226 -2.0505  0.3874
   96MOL0     H12925   5.654   2.704   0.134  0.8073 -1.0495  7.4133
   96MOL0     H12926   5.581   2.555   0.459 -0.2831  1.7811  0.5800
   96MOL0     H12927   5.564   2.567   0.281 -0.9757  0.1765  0.6760
   96MOL0     H12928   5.772   2.466   0.352 -0.1888 -0.6389 -1.2528
   96MOL0     H12929   5.804   2.629   0.285 -0.3175  1.4519  0.3907
   96MOL0     H12930   5.785   2.550   0.575 -2.0287  3.5766  1.1775
   96MOL0     H12931   5.825   2.711   0.524  1.1481  0.5897  2.2760
   96MOL0     H12932   5.995   2.490   0.429 -3.0020 -0.4271 -0.1061
   96MOL0     H12933   6.036   2.656   0.436 -2.7486  1.0592 -1.8335
   96MOL0     H12934   5.976   2.484   0.669 -2.8569  1.0821 -2.8315
   96MOL0     H12935   6.061   2.640   0.694  1.8441 -2.6288  4.0873
   96MOL0     H12936   6.181   2.395   0.545 -0.9905  1.1422 -2.4916
   96MOL0     H12937   6.251   2.552   0.551 -2.8072 -0.6857 -3.6315
   96MOL0     H12938   6.255   2.517   0.820  0.5100 -0.6370  0.6507
   96MOL0     H12939   6.351   2.414   0.725 -0.3309  0.8177 -0.5482
   96MOL0     H12940   6.248   2.263   0.887 -1.5653 -0.5374  1.6257
   96MOL0     H12941   6.149   2.242   0.731  0.8307  0.1464 -0.9775
   96MOL0     H12942   5.559   3.019   0.417  0.0050 -1.7215 -0.0174
   96MOL0     H12943   5.607   3.182   0.229  2.3665 -0.0857 -1.9500
   96MOL0     H12944   5.600   3.199  -0.253 -2.2183  2.3240 -2.2429
   96MOL0     H12945   5.607   3.340  -0.442 -0.6747 -0.3610  1.8480
   96MOL0     H12946   5.692   3.704   0.686  0.5384 -0.4167  1.7904
   96MOL0     H12947   5.732   3.923   0.802 -0.7598  2.2698 -0.3088
   96MOL0     H12948   5.606   4.369   0.763 -4.4186 -2.4033  1.1928
   96MOL0     H12949   5.690   4.562   0.804 -0.5353 -2.7017 -2.4520
   96MOL0     H12950   5.972   4.629   0.838 -0.3482  0.7525 -1.3874
   96MOL0     H12951   5.823   4.716   0.837  0.1440 -1.9328 -0.0639
   96MOL0     H12952   6.083   4.780   0.994  0.7218  3.3734  2.2201
   96MOL0     H12953   5.960   4.878   1.023  1.1018  0.9056 -0.8770
   96MOL0     H12954   5.918   4.928   0.781 -0.2598  0.1513  1.0846
   96MOL0     H12955   6.055   4.827   0.734  1.5362  2.3347 -0.8829
   96MOL0     H12956   6.060   5.092   0.909  0.7336 -1.7593  1.8554
   96MOL0     H12957   6.090   5.088   0.732  2.0423 -0.9825 -1.0903
   96MOL0     H12958   6.461   4.958   0.846  0.9082  2.4260 -1.1794
   96MOL0     H12959   5.850   4.442   1.187  0.7253  0.1231 -0.6570
   96MOL0     H12960   5.695   4.228   1.161 -1.7699 -0.6623 -0.5485
   97MOL0     O12961   3.955   5.497   6.665  0.0536 -0.0238 -0.0328
   97MOL0     C12962   3.986   5.472   6.552  0.2236 -0.7031 -0.4821
   97MOL0     O12963   3.955   5.365   6.486 -0.6539  0.4331 -0.0387
   97MOL0     C12964   3.878   5.269   6.553 -0.2920  0.5740 -0.2834
   97MOL0     C12965   3.745   5.272   6.560  0.9077 -0.3134 -1.0010
   97MOL0     C12966   3.674   5.165   6.626  0.3291 -0.2035 -0.5780
   97MOL0     C12967   3.724   5.044   6.663  0.1126 -1.2232 -0.1646
   97MOL0     O12968   3.660   4.934   6.693  0.3958 -0.5013 -0.0934
   97MOL0     C12969   3.619   4.924   6.831 -0.2483 -0.2784 -0.1423
   97MOL0     C12970   3.500   4.819   6.836 -0.3727  0.6951  0.2283
   97MOL0     C12971   3.381   4.880   6.761  0.4265  0.0666  0.7762
   97MOL0     C12972   3.271   4.760   6.742  1.0516 -0.4571 -0.1817
   97MOL0     C12973   3.133   4.798   6.674 -0.0355 -0.3970 -0.5548
   97MOL0     C12974   3.022   4.696   6.692  0.4231  0.6358 -0.0264
   97MOL0     C12975   2.894   4.731   6.611 -0.4265  0.5834 -0.3899
   97MOL0     C12976   2.765   4.722   6.706 -0.4859  0.0627  0.2578
   97MOL0     N12977   2.661   4.747   6.607 -0.1923  0.7105 -0.5172
   97MOL0     C12978   2.555   4.830   6.628  0.3656  0.7883  0.0425
   97MOL0     C12979   2.449   4.779   6.554 -0.9307 -0.2092  0.2620
   97MOL0     C12980   2.310   4.825   6.544  0.7432 -0.7783  0.2566
   97MOL0     C12981   2.311   4.973   6.492 -0.2009  0.0365 -0.0183
   97MOL0     C12982   2.325   4.998   6.338  0.6302 -0.2927 -0.0716
   97MOL0     C12983   2.233   4.911   6.255  0.1835 -0.0813 -0.8838
   97MOL0     O12984   2.246   4.936   6.115  0.0600 -0.2220  0.0216
   97MOL0     C12985   2.371   4.901   6.065  0.4729  0.5798  0.9899
   97MOL0     C12986   2.471   4.815   6.116  0.1341 -0.2603  0.6269
   97MOL0     C12987   2.594   4.802   6.047  1.3549  0.8355  0.5527
   97MOL0     C12988   2.708   4.722   6.121 -0.3388 -0.6085  0.0228
   97MOL0     C12989   2.596   4.847   5.911  1.0589  0.8517 -0.9331
   97MOL0     C12990   2.713   4.841   5.820  0.6598  0.3766  0.5789
   97MOL0     O12991   2.698   4.901   5.690 -0.1805 -0.2755 -0.9505
   97MOL0     C12992   2.813   4.874   5.615  0.1172 -0.3393  0.0649
   97MOL0     C12993   2.819   4.767   5.530 -0.1386 -0.3265 -0.0895
   97MOL0     C12994   2.931   4.757   5.442 -0.1692 -0.1740 -0.6146
   97MOL0     C12995   3.033   4.845   5.436 -0.1136  0.0560 -0.2607
   97MOL0     O12996   3.131   4.816   5.342 -0.1265 -0.1037 -0.4524
   97MOL0     C12997   3.256   4.881   5.349 -0.0175 -0.2729  0.2194
   97MOL0     C12998   3.361   4.801   5.289 -0.3050 -0.2169  0.9585
   97MOL0     C12999   3.351   4.770   5.132  0.2177 -0.2680  0.7005
   97MOL0     C13000   3.463   4.692   5.068  0.3489  0.5739  0.3122
   97MOL0     C13001   3.432   4.643   4.926 -0.6121  0.5183 -0.9938
   97MOL0     C13002   3.420   4.753   4.827  0.7468  0.0936  1.0821
   97MOL0     C13003   3.379   4.701   4.691 -0.1015 -0.3439 -0.1592
   97MOL0     C13004   3.346   4.814   4.588  0.5346  0.7537  0.9194
   97MOL0    Cl13005   3.465   4.930   4.556  0.6884 -0.4175 -0.2546
   97MOL0     C13006   3.028   4.951   5.528  1.2618 -1.0085 -1.1446
   97MOL0     C13007   2.912   4.970   5.611 -0.4978 -0.9424  1.3175
   97MOL0     O13008   2.814   4.788   5.861  0.0037 -0.2248 -0.5642
   97MOL0     C13009   2.486   4.917   5.863 -0.4577  0.0820  0.1637
   97MOL0     C13010   2.378   4.942   5.937  0.4191 -0.7351  0.3166
   97MOL0     N13011   2.501   4.670   6.487  0.8172  0.7498 -0.9179
   97MOL0     N13012   2.620   4.652   6.524  0.7119 -0.4674  0.3417
   97MOL0     C13013   3.857   5.031   6.623  0.0927  0.0075 -1.8791
   97MOL0     C13014   3.934   5.140   6.576 -0.5273 -0.6119  1.2398
   97MOL0     C13015   4.069   5.574   6.486 -0.4856 -1.7291  0.1865
   97MOL0     C13016   4.087   5.700   6.543  0.3925 -0.5452 -0.4263
   97MOL0     C13017   4.146   5.800   6.460  0.1761 -1.0007  0.2148
   97MOL0     C13018   4.176   5.786   6.325  0.1935  0.1320 -0.0835
   97MOL0     O13019   4.238   5.884   6.254 -0.3902  0.2448 -0.0119
   97MOL0     C13020   4.152   5.947   6.160 -0.8575 -0.1553 -0.4409
   97MOL0     C13021   4.186   5.896   6.016  0.2186 -0.8932  0.0246
   97MOL0     C13022   4.322   5.919   5.946 -0.8506 -0.8690  0.3479
   97MOL0     C13023   4.409   6.026   6.010 -0.6781  0.0284 -0.6740
   97MOL0     C13024   4.543   6.055   5.956  0.3207  0.2004 -0.0004
   97MOL0     C13025   4.647   6.092   5.914  0.6937  0.1179 -0.2834
   97MOL0     C13026   4.144   5.658   6.268  0.3101 -0.9093  0.1209
   97MOL0     C13027   4.099   5.549   6.344 -0.4705  0.1233 -0.0733
   97MOL0     H13028   3.713   5.370   6.525  1.0261 -0.3535 -1.2210
   97MOL0     H13029   3.570   5.181   6.652  1.5907  3.0713  3.4921
   97MOL0     H13030   3.703   4.885   6.888 -1.1184  1.5150  2.6045
   97MOL0     H13031   3.593   5.021   6.876  0.6839 -0.1182  0.0773
   97MOL0     H13032   3.523   4.721   6.792 -0.9571 -0.0795  1.5588
   97MOL0     H13033   3.469   4.811   6.941 -3.5452  2.4024 -0.4842
   97MOL0     H13034   3.335   4.964   6.814  0.7594  1.6816 -1.3580
   97MOL0     H13035   3.412   4.917   6.662 -0.1331  2.8868  1.5553
   97MOL0     H13036   3.316   4.685   6.676 -3.0073 -0.9119 -2.7948
   97MOL0     H13037   3.260   4.707   6.837 -3.7560 -1.8571 -1.2500
   97MOL0     H13038   3.115   4.900   6.710  1.4875 -0.6586  1.0913
   97MOL0     H13039   3.170   4.816   6.572  0.8588 -0.1938 -0.2065
   97MOL0     H13040   3.056   4.603   6.645  0.2691  0.5553  0.0221
   97MOL0     H13041   2.997   4.673   6.796 -0.8322 -4.6182 -1.1820
   97MOL0     H13042   2.913   4.828   6.563  0.0669 -0.1788 -1.8251
   97MOL0     H13043   2.885   4.659   6.529  0.6770  1.8024 -1.6359
   97MOL0     H13044   2.761   4.811   6.769  0.0123  0.7024 -0.5923
   97MOL0     H13045   2.759   4.631   6.767  1.5187 -1.6432 -1.8904
   97MOL0     H13046   2.559   4.913   6.698  0.0200  1.8957 -1.2104
   97MOL0     H13047   2.253   4.760   6.477  0.4058  0.6959 -0.9157
   97MOL0     H13048   2.256   4.816   6.639  0.5274 -0.1773  0.1919
   97MOL0     H13049   2.381   5.034   6.550 -1.4598  2.9037 -1.2922
   97MOL0     H13050   2.221   5.022   6.531 -0.6495 -0.9971  0.2891
   97MOL0     H13051   2.427   4.976   6.304  1.3017 -1.6136  2.5084
   97MOL0     H13052   2.300   5.101   6.312  1.0924 -0.2785 -0.4690
   97MOL0     H13053   2.129   4.930   6.283 -0.1051 -1.6511 -0.8037
   97MOL0     H13054   2.256   4.810   6.291  2.5646  1.0719  1.0680
   97MOL0     H13055   2.468   4.764   6.212  2.1039 -0.3802  0.6692
   97MOL0     H13056   2.797   4.786   6.121 -0.6836 -0.0448 -1.8878
   97MOL0     H13057   2.683   4.709   6.226 -3.5411  2.5670 -0.1413
   97MOL0     H13058   2.743   4.630   6.073 -0.2154 -0.1552 -0.7774
   97MOL0     H13059   2.734   4.700   5.519  0.5378 -1.1423 -0.4610
   97MOL0     H13060   2.937   4.668   5.380 -0.2008  0.5185 -1.6332
   97MOL0     H13061   3.242   4.971   5.288 -0.6785 -0.1207  0.5938
   97MOL0     H13062   3.271   4.893   5.456 -0.2431  0.0672  0.2124
   97MOL0     H13063   3.454   4.854   5.311 -1.1724  2.0551 -0.4928
   97MOL0     H13064   3.344   4.701   5.331 -0.5929 -0.3846  0.4513
   97MOL0     H13065   3.320   4.857   5.073 -1.7702 -1.9228 -0.8612
   97MOL0     H13066   3.260   4.710   5.144 -0.5564  1.1211  2.2399
   97MOL0     H13067   3.543   4.766   5.061 -1.0535  1.9487 -2.9154
   97MOL0     H13068   3.495   4.609   5.133 -1.7399  0.2315  0.9856
   97MOL0     H13069   3.344   4.579   4.928 -0.0560 -0.3277 -2.1561
   97MOL0     H13070   3.514   4.576   4.899  0.1700  2.1827 -3.0003
   97MOL0     H13071   3.343   4.828   4.848  2.4671  2.2746  0.0081
   97MOL0     H13072   3.513   4.811   4.829  1.3454 -0.8535  2.6595
   97MOL0     H13073   3.291   4.638   4.704 -0.0021 -0.1867  1.4307
   97MOL0     H13074   3.462   4.649   4.641  1.6622  0.4837  1.7345
   97MOL0     H13075   3.265   4.873   4.631  0.4914  2.2115 -1.0175
   97MOL0     H13076   3.306   4.764   4.499  1.8029 -0.7071  1.1349
   97MOL0     H13077   3.094   5.037   5.523 -0.8177  0.5861 -4.4956
   97MOL0     H13078   2.907   5.061   5.671  2.1174  1.2365 -1.4534
   97MOL0     H13079   2.486   4.953   5.760 -1.2388 -3.2348 -1.1037
   97MOL0     H13080   2.284   4.992   5.915  2.0149  3.5699  2.2213
   97MOL0     H13081   3.910   4.937   6.631  1.8339  1.0868  1.1370
   97MOL0     H13082   4.039   5.126   6.555 -0.4743  1.2727  0.1322
   97MOL0     H13083   4.054   5.731   6.642 -0.7671 -1.9800 -0.3347
   97MOL0     H13084   4.164   5.897   6.506  0.1408 -0.9534  0.1281
   97MOL0     H13085   4.045   5.936   6.182 -0.8030 -0.7393 -0.4581
   97MOL0     H13086   4.154   6.055   6.177  1.2444 -0.0821 -0.9916
   97MOL0     H13087   4.112   5.947   5.953  1.0118  0.7014  0.3158
   97MOL0     H13088   4.163   5.790   6.004  1.1178 -1.1130  0.1889
   97MOL0     H13089   4.311   5.952   5.843 -1.1797 -0.5442  0.4827
   97MOL0     H13090   4.377   5.826   5.961 -1.7460 -1.4371  0.2214
   97MOL0     H13091   4.426   6.019   6.117 -2.2614 -0.0189 -0.3994
   97MOL0     H13092   4.340   6.111   6.006 -1.3831 -0.4511  0.7416
   97MOL0     H13093   4.730   6.141   5.867  0.4830  1.7318  0.9517
   97MOL0     H13094   4.175   5.657   6.164  1.2456 -0.7801  0.3885
   97MOL0     H13095   4.103   5.455   6.290 -0.1891 -0.9777  1.7978
   98MOL0     O13096   7.785   6.855   8.784  0.1021  0.6744 -0.7668
   98MOL0     C13097   7.850   6.958   8.809  0.0235 -0.1081 -0.5150
   98MOL0     O13098   7.963   6.968   8.888  0.1191  0.2855  0.0301
   98MOL0     C13099   8.029   6.866   8.953 -0.5499  0.8665  1.7601
   98MOL0     C13100   7.996   6.730   8.961  0.2629  0.1391  0.3222
   98MOL0     C13101   8.077   6.635   9.031  0.0486 -0.6893 -0.2373
   98MOL0     C13102   8.201   6.678   9.073  0.6319  0.4822  1.1621
   98MOL0     O13103   8.286   6.590   9.135  0.2807 -0.3988 -0.3385
   98MOL0     C13104   8.226   6.516   9.234 -0.6610  0.2098 -0.4447
   98MOL0     C13105   8.334   6.462   9.313 -1.0716  0.3763  0.1540
   98MOL0     C13106   8.269   6.380   9.439 -0.9989 -0.7103  0.7552
   98MOL0     C13107   8.354   6.349   9.564 -0.3100  0.0166  0.9628
   98MOL0     C13108   8.274   6.272   9.672  0.2710  1.1031 -0.9583
   98MOL0     C13109   8.375   6.256   9.780 -0.6954  0.3698  0.1610
   98MOL0     C13110   8.329   6.172   9.898 -0.4520 -0.0740 -0.2771
   98MOL0     C13111   8.428   6.195  10.014  0.4876  0.0584 -0.1503
   98MOL0     N13112   8.406   6.092  10.114  1.1101 -0.9353 -0.0311
   98MOL0     C13113   8.414   5.963  10.076  0.2657 -0.3721 -0.0105
   98MOL0     C13114   8.370   5.893  10.180  0.7987  0.1493 -0.3060
   98MOL0     C13115   8.362   5.739  10.178 -0.4238 -1.1571  0.7108
   98MOL0     C13116   8.238   5.691  10.093  1.4556  0.2988 -0.2676
   98MOL0     C13117   8.105   5.721  10.177  0.5168  0.2831 -0.3802
   98MOL0     C13118   7.978   5.629  10.139 -0.4040  0.2817  0.8294
   98MOL0     O13119   8.005   5.492  10.173 -0.4509  0.2824 -0.8130
   98MOL0     C13120   7.909   5.395  10.146  0.4698 -0.2443 -0.7907
   98MOL0     C13121   7.944   5.265  10.187 -1.2048 -0.5407  0.6467
   98MOL0     C13122   7.858   5.161  10.172 -0.0442  0.7990 -0.2284
   98MOL0     C13123   7.901   5.036  10.231  0.1954 -1.0403  0.8865
   98MOL0     C13124   7.743   5.183  10.089 -0.5160 -0.0151  0.1312
   98MOL0     C13125   7.643   5.083  10.043 -0.4888  0.6393  0.3867
   98MOL0     O13126   7.519   5.125  10.032  0.3505  0.1838 -0.3119
   98MOL0     C13127   7.420   5.032   9.996  0.4474 -1.0417 -0.3855
   98MOL0     C13128   7.339   4.952  10.089  0.0601 -0.0120  0.0078
   98MOL0     C13129   7.243   4.868  10.029 -0.6764 -0.7895  0.0348
   98MOL0     C13130   7.214   4.868   9.890  0.2439 -0.2805  0.4351
   98MOL0     O13131   7.118   4.796   9.835  0.0883  0.0596  0.6927
   98MOL0     C13132   7.007   4.750   9.920  1.0774  1.2864  0.2859
   98MOL0     C13133   7.037   4.610   9.947  0.1468  0.8027  0.0674
   98MOL0     C13134   7.031   4.509   9.835 -0.1318  0.2165 -0.0824
   98MOL0     C13135   7.155   4.492   9.745  0.3577 -0.1127 -1.1936
   98MOL0     C13136   7.155   4.364   9.654 -0.1863  0.2150 -0.6751
   98MOL0     C13137   7.023   4.334   9.576  0.3870  0.3026 -0.8747
   98MOL0     C13138   7.011   4.440   9.461  0.9307  0.7068 -0.4148
   98MOL0     C13139   6.909   4.382   9.367 -0.2032  0.2417 -0.0696
   98MOL0    Cl13140   6.865   4.482   9.227 -0.2851  0.2110  0.3729
   98MOL0     C13141   7.300   4.949   9.804  0.3763  0.9080 -0.2270
   98MOL0     C13142   7.387   5.040   9.859  0.6417 -0.4407  0.5239
   98MOL0     O13143   7.679   4.966  10.022 -0.2949 -0.5749  0.8961
   98MOL0     C13144   7.715   5.313  10.042  0.1971  0.0861  0.0308
   98MOL0     C13145   7.793   5.419  10.085  0.9092 -0.1316  0.1018
   98MOL0     N13146   8.329   5.983  10.279  0.2276 -0.0347 -1.3280
   98MOL0     N13147   8.339   6.105  10.231  0.9555 -0.1039 -0.6678
   98MOL0     C13148   8.250   6.811   9.053 -0.2190  0.2064 -0.5851
   98MOL0     C13149   8.155   6.896   9.004  0.2846 -0.5295 -0.3123
   98MOL0     C13150   7.795   7.089   8.766 -0.9280  0.1522 -0.9285
   98MOL0     C13151   7.680   7.091   8.686 -0.0129 -0.0330  0.3598
   98MOL0     C13152   7.635   7.209   8.647 -0.8034  0.5098 -0.1316
   98MOL0     C13153   7.690   7.331   8.697 -0.3342  0.5816  1.2861
   98MOL0     O13154   7.641   7.457   8.656 -0.0917  0.3071 -0.4116
   98MOL0     C13155   7.503   7.468   8.653  0.2938  0.2389 -0.7541
   98MOL0     C13156   7.438   7.508   8.516  0.3073  1.1579 -0.6056
   98MOL0     C13157   7.483   7.652   8.476 -0.5534  0.2559 -1.0136
   98MOL0     C13158   7.410   7.703   8.355 -0.3634 -0.3882  1.1659
   98MOL0     C13159   7.271   7.652   8.329  0.9947 -0.0936 -0.1019
   98MOL0     C13160   7.169   7.590   8.325 -0.0715  0.6508  1.1217
   98MOL0     C13161   7.800   7.328   8.773 -0.1813  0.3837 -0.0646
   98MOL0     C13162   7.855   7.211   8.818  0.1796 -0.0714  0.5025
   98MOL0     H13163   7.896   6.703   8.929 -1.7768  3.3497  3.2531
   98MOL0     H13164   8.054   6.529   9.042 -1.1507 -0.1807  3.4588
   98MOL0     H13165   8.165   6.577   9.302  0.1008 -1.8279  2.2432
   98MOL0     H13166   8.170   6.437   9.183 -0.8523  0.8923 -1.3278
   98MOL0     H13167   8.392   6.394   9.251  1.1143  1.1954  1.1880
   98MOL0     H13168   8.403   6.544   9.337  0.7046 -0.7528 -0.8909
   98MOL0     H13169   8.184   6.435   9.481  0.6553  1.1415  1.8325
   98MOL0     H13170   8.240   6.281   9.400  1.6850 -2.6144  3.1961
   98MOL0     H13171   8.441   6.298   9.523 -1.5231 -2.0826  0.8560
   98MOL0     H13172   8.392   6.442   9.607 -3.0226  1.7357 -0.0806
   98MOL0     H13173   8.199   6.332   9.723  0.0017 -0.2127  0.2628
   98MOL0     H13174   8.234   6.179   9.630  1.7215  0.2867 -0.6356
   98MOL0     H13175   8.470   6.228   9.734 -0.4924  2.2273 -0.6510
   98MOL0     H13176   8.405   6.355   9.818  1.0999 -1.0605  2.8051
   98MOL0     H13177   8.227   6.196   9.930  0.0549  4.1158 -1.2444
   98MOL0     H13178   8.341   6.072   9.855  1.3527 -0.2270  0.5100
   98MOL0     H13179   8.393   6.294  10.044 -2.0537 -1.0728  0.9144
   98MOL0     H13180   8.530   6.204   9.974 -0.0882  0.0562 -1.6721
   98MOL0     H13181   8.454   5.935   9.979 -0.4210  2.1166 -1.0864
   98MOL0     H13182   8.456   5.695  10.144  1.3865  2.4511  0.5085
   98MOL0     H13183   8.352   5.702  10.281 -0.2880  4.3994  3.1119
   98MOL0     H13184   8.247   5.586  10.067  3.9535 -1.1296  4.8643
   98MOL0     H13185   8.225   5.754  10.005  1.5776  2.2539  1.0340
   98MOL0     H13186   8.082   5.828  10.181 -1.0289 -0.0025 -0.9396
   98MOL0     H13187   8.125   5.688  10.279 -2.5034 -0.1527  0.1635
   98MOL0     H13188   7.969   5.655  10.033  1.7275  1.2778  0.8298
   98MOL0     H13189   7.893   5.662  10.199 -0.5747 -0.4485  0.9913
   98MOL0     H13190   8.043   5.242  10.225 -0.6760 -0.4009 -0.5943
   98MOL0     H13191   8.000   5.023  10.187 -0.3874 -0.6581 -0.6287
   98MOL0     H13192   7.894   5.040  10.340 -5.7620  0.9727  0.8138
   98MOL0     H13193   7.840   4.948  10.205 -2.1201  0.4153  1.1517
   98MOL0     H13194   7.351   4.954  10.197  1.3310  2.7597 -0.1174
   98MOL0     H13195   7.182   4.805  10.093 -0.6563 -0.8606 -0.0161
   98MOL0     H13196   6.991   4.820  10.002  0.2739  3.3705 -1.5616
   98MOL0     H13197   6.916   4.744   9.860  1.0179  2.8257  0.1978
   98MOL0     H13198   7.127   4.581  10.002 -0.0060  3.4038  1.8747
   98MOL0     H13199   6.958   4.589  10.021 -1.2908  3.7149 -0.4810
   98MOL0     H13200   6.944   4.537   9.774  0.6450  1.9970 -0.4500
   98MOL0     H13201   7.006   4.411   9.877  0.4909  0.1312  0.0922
   98MOL0     H13202   7.182   4.582   9.689  3.0028 -0.2414 -0.2540
   98MOL0     H13203   7.249   4.490   9.801 -0.9434 -0.1163  1.0996
   98MOL0     H13204   7.197   4.274   9.698  2.3830  2.2072  1.2902
   98MOL0     H13205   7.222   4.394   9.572 -1.6542 -2.7410 -3.1501
   98MOL0     H13206   7.027   4.225   9.563  0.4720 -0.0832  1.7132
   98MOL0     H13207   6.933   4.348   9.636 -0.1918  1.1764 -1.9157
   98MOL0     H13208   7.104   4.463   9.410  0.4620 -0.4552 -1.8747
   98MOL0     H13209   6.975   4.533   9.506  0.2795  1.1005 -1.6996
   98MOL0     H13210   6.821   4.349   9.424  1.1529 -0.2561  1.8029
   98MOL0     H13211   6.948   4.287   9.329  0.1968 -1.5572  4.2947
   98MOL0     H13212   7.292   4.937   9.697  2.2708 -1.4518 -0.1920
   98MOL0     H13213   7.446   5.103   9.794 -2.0103  2.8880  1.0717
   98MOL0     H13214   7.634   5.336   9.973 -0.5217  0.4502  0.9860
   98MOL0     H13215   7.767   5.523  10.067  2.5548 -0.1791 -3.2390
   98MOL0     H13216   8.350   6.847   9.076 -0.5982  0.9551 -0.0699
   98MOL0     H13217   8.165   7.004   8.993 -1.8873 -0.4172 -1.8635
   98MOL0     H13218   7.629   7.005   8.643  0.5077  0.2453 -0.8578
   98MOL0     H13219   7.556   7.205   8.573 -0.4782  2.3918 -0.6412
   98MOL0     H13220   7.455   7.375   8.685 -4.2611  1.8101 -2.3520
   98MOL0     H13221   7.481   7.549   8.723  1.5627  2.2477 -2.5412
   98MOL0     H13222   7.330   7.513   8.535  0.1466 -1.9390 -0.2696
   98MOL0     H13223   7.437   7.433   8.437 -1.4860 -0.9118  1.2395
   98MOL0     H13224   7.590   7.650   8.452  0.5647  3.2943  2.6650
   98MOL0     H13225   7.465   7.722   8.558 -0.4369  1.0035 -1.6090
   98MOL0     H13226   7.466   7.664   8.270 -0.8307 -1.5274  1.3640
   98MOL0     H13227   7.408   7.812   8.346 -0.0315 -0.4872 -0.4990
   98MOL0     H13228   7.101   7.511   8.298 -2.7796  3.3408 -0.5824
   98MOL0     H13229   7.845   7.422   8.803 -3.5263  1.8581  0.7961
   98MOL0     H13230   7.934   7.204   8.892 -1.5033 -3.5967  2.2226
   99MOL0     O13231   0.579   6.789   5.069 -0.0037 -0.5308 -0.4083
   99MOL0     C13232   0.652   6.746   5.160 -0.4381 -0.3677  0.5850
   99MOL0     O13233   0.729   6.636   5.149  0.5202  0.3394 -0.5518
   99MOL0     C13234   0.745   6.578   5.026  0.2513 -0.2103  1.3033
   99MOL0     C13235   0.696   6.448   5.007 -0.1768  0.5563  0.0783
   99MOL0     C13236   0.714   6.384   4.888 -1.1489  0.3925  0.7796
   99MOL0     C13237   0.770   6.446   4.779  0.3708 -0.6221  0.6064
   99MOL0     O13238   0.758   6.367   4.662 -0.2780 -1.0027  0.4797
   99MOL0     C13239   0.826   6.424   4.546  0.7806  0.4989  0.0765
   99MOL0     C13240   0.749   6.525   4.474  0.4428  0.2111 -1.1317
   99MOL0     C13241   0.601   6.490   4.478 -0.6201 -0.4173  0.6081
   99MOL0     C13242   0.530   6.564   4.354  0.8466  0.6349  0.3454
   99MOL0     C13243   0.381   6.516   4.337  0.4074 -0.0712  0.0883
   99MOL0     C13244   0.366   6.371   4.301  0.8638  0.0720  0.4989
   99MOL0     C13245   0.413   6.361   4.151 -0.6709 -0.9884 -0.6232
   99MOL0     C13246   0.336   6.252   4.077  0.2610  0.3553  0.7999
   99MOL0     N13247   0.212   6.310   4.018  1.2672  0.0595 -1.2039
   99MOL0     C13248   0.144   6.436   4.025 -0.0841 -0.3882 -0.8851
   99MOL0     C13249   0.030   6.432   3.958  0.4460  0.1424  0.8537
   99MOL0     C13250  -0.072   6.545   3.951 -0.1585  0.8879 -0.4610
   99MOL0     C13251  -0.213   6.488   3.912 -0.7059  0.2612  0.1724
   99MOL0     C13252  -0.285   6.608   3.846  0.3705  0.3823 -0.0068
   99MOL0     C13253  -0.379   6.566   3.737  0.4132 -0.6749 -0.1628
   99MOL0     O13254  -0.502   6.531   3.795 -0.4466  0.6845  0.4544
   99MOL0     C13255  -0.579   6.481   3.694  0.4619 -0.0273 -1.1554
   99MOL0     C13256  -0.621   6.559   3.592 -0.9271  0.0232 -0.1560
   99MOL0     C13257  -0.707   6.515   3.489  0.8025  0.3901  0.9536
   99MOL0     C13258  -0.733   6.610   3.370  0.1675 -0.3115 -0.2909
   99MOL0     C13259  -0.777   6.389   3.496 -0.6037  0.9247  0.6081
   99MOL0     C13260  -0.866   6.316   3.392 -0.6534  0.3634 -0.1368
   99MOL0     O13261  -0.961   6.222   3.437 -0.4825  0.6350 -0.3608
   99MOL0     C13262  -1.044   6.165   3.337 -0.2686 -0.7210  0.6115
   99MOL0     C13263  -1.188   6.179   3.342  0.3501 -0.1288 -1.3432
   99MOL0     C13264  -1.274   6.107   3.255 -1.2255 -0.5083 -0.1804
   99MOL0     C13265  -1.216   6.020   3.160 -0.4894 -0.1031  0.2463
   99MOL0     O13266  -1.301   5.947   3.078  0.3617 -0.4912 -0.1348
   99MOL0     C13267  -1.263   5.909   2.942  0.6046  1.0583 -0.2556
   99MOL0     C13268  -1.363   5.801   2.882 -0.8372 -0.1071 -0.3417
   99MOL0     C13269  -1.507   5.836   2.908  1.0634  0.0812  0.7513
   99MOL0     C13270  -1.590   5.707   2.872  0.7336 -0.1654  0.6568
   99MOL0     C13271  -1.746   5.716   2.863 -0.0826 -0.2972  0.5784
   99MOL0     C13272  -1.790   5.824   2.770 -0.0316 -0.2596 -1.0496
   99MOL0     C13273  -1.937   5.850   2.772 -0.0216  1.1031 -0.2905
   99MOL0     C13274  -2.015   5.748   2.695 -0.3596  0.6076 -1.5080
   99MOL0    Cl13275  -2.155   5.828   2.622  0.0926 -0.2338  0.1701
   99MOL0     C13276  -1.073   6.009   3.152 -0.0749  0.2602  0.3802
   99MOL0     C13277  -0.997   6.077   3.241  0.7106 -0.6489  1.1295
   99MOL0     O13278  -0.844   6.346   3.279 -1.1452 -0.1989 -0.3868
   99MOL0     C13279  -0.745   6.316   3.614  1.0337 -0.0008 -0.5662
   99MOL0     C13280  -0.646   6.351   3.707 -0.6922  0.7930 -0.1800
   99MOL0     N13281   0.029   6.307   3.895 -0.2947  0.3122  0.0076
   99MOL0     N13282   0.134   6.238   3.926 -0.2222 -0.6440  0.1342
   99MOL0     C13283   0.819   6.579   4.790  0.1154  0.4009 -0.3938
   99MOL0     C13284   0.811   6.642   4.916  1.0711  0.7584 -0.7002
   99MOL0     C13285   0.651   6.804   5.289  1.2494 -0.2063 -0.4876
   99MOL0     C13286   0.734   6.764   5.391 -0.4666  0.4712 -0.4124
   99MOL0     C13287   0.746   6.830   5.513  0.2984 -0.2134 -0.5616
   99MOL0     C13288   0.681   6.957   5.524 -0.4916  1.7265 -0.3601
   99MOL0     O13289   0.699   7.047   5.626  0.1477  0.8801  0.7307
   99MOL0     C13290   0.767   7.010   5.750 -0.1148  0.1637  1.2458
   99MOL0     C13291   0.917   7.039   5.749 -0.3435 -0.9189 -0.0769
   99MOL0     C13292   0.950   7.188   5.749  0.3683 -0.0720 -0.6487
   99MOL0     C13293   1.093   7.232   5.736  0.5332  0.6194 -1.0893
   99MOL0     C13294   1.093   7.380   5.747 -1.2602 -0.3251  0.6870
   99MOL0     C13295   1.109   7.499   5.768 -0.2362  0.2860 -0.5671
   99MOL0     C13296   0.582   6.988   5.429 -0.1876  0.1151 -0.2160
   99MOL0     C13297   0.557   6.907   5.323  0.4537 -0.3546 -0.2947
   99MOL0     H13298   0.667   6.392   5.096 -0.7738  0.3907 -0.2176
   99MOL0     H13299   0.684   6.280   4.886 -1.0151  0.3535  0.7966
   99MOL0     H13300   0.931   6.445   4.565  1.0184  0.3992 -1.0504
   99MOL0     H13301   0.835   6.347   4.469  1.8506  0.1718  0.5047
   99MOL0     H13302   0.778   6.622   4.515 -3.0736  0.3478  1.5175
   99MOL0     H13303   0.779   6.523   4.369 -2.4750  3.1822 -2.1782
   99MOL0     H13304   0.580   6.383   4.485 -4.0655  0.1875  1.1200
   99MOL0     H13305   0.543   6.533   4.560  0.8039  1.1894  0.8250
   99MOL0     H13306   0.529   6.673   4.358  0.8341  0.6458  0.0942
   99MOL0     H13307   0.588   6.544   4.263  0.9670  3.3980 -0.2648
   99MOL0     H13308   0.324   6.533   4.428 -2.3583 -0.4444 -1.4438
   99MOL0     H13309   0.328   6.584   4.269 -0.5021  1.4701  2.2294
   99MOL0     H13310   0.410   6.304   4.375 -3.6341 -0.5125  3.0222
   99MOL0     H13311   0.258   6.358   4.317  1.0084 -2.8321 -0.3567
   99MOL0     H13312   0.397   6.452   4.093  1.1178  1.5140  2.4765
   99MOL0     H13313   0.520   6.340   4.144 -1.0037 -2.4811 -1.7104
   99MOL0     H13314   0.320   6.162   4.137 -0.3921  1.3238  2.1164
   99MOL0     H13315   0.400   6.216   3.996  0.5813  0.4363  1.0151
   99MOL0     H13316   0.186   6.523   4.075 -1.1650 -0.2979 -0.0877
   99MOL0     H13317  -0.079   6.594   4.048  0.5750 -2.2137  1.2569
   99MOL0     H13318  -0.034   6.620   3.880  0.7468  2.7192  1.8305
   99MOL0     H13319  -0.267   6.447   3.997  0.6302  1.4120  1.6324
   99MOL0     H13320  -0.190   6.409   3.839  0.8778  0.1706  0.7253
   99MOL0     H13321  -0.214   6.681   3.805 -0.0089  1.3292  1.0005
   99MOL0     H13322  -0.355   6.654   3.915  0.8985  2.3037 -0.6911
   99MOL0     H13323  -0.345   6.471   3.694  0.8467 -0.8756  0.5974
   99MOL0     H13324  -0.382   6.644   3.661  0.0423 -1.0030 -0.4875
   99MOL0     H13325  -0.595   6.664   3.590  0.2530 -0.2631 -0.3971
   99MOL0     H13326  -0.656   6.596   3.295  0.5798  2.6016 -0.5270
   99MOL0     H13327  -0.835   6.604   3.331  0.3758  0.6680 -1.0332
   99MOL0     H13328  -0.723   6.713   3.406 -1.2571  0.0683 -0.9004
   99MOL0     H13329  -1.214   6.242   3.427 -1.7426 -1.6064 -0.8161
   99MOL0     H13330  -1.380   6.117   3.277 -0.7461 -1.7779  3.3011
   99MOL0     H13331  -1.281   6.003   2.889  1.6144  1.1363 -0.4655
   99MOL0     H13332  -1.161   5.874   2.923 -0.5672 -2.4923 -0.7597
   99MOL0     H13333  -1.344   5.799   2.775  1.2549  0.8993 -0.0386
   99MOL0     H13334  -1.334   5.704   2.924  0.7586  1.7322  3.3186
   99MOL0     H13335  -1.532   5.922   2.846  1.4820 -0.3522 -0.0304
   99MOL0     H13336  -1.535   5.860   3.011  0.4122 -0.3997  0.6972
   99MOL0     H13337  -1.548   5.664   2.781 -0.5629 -1.6989  0.7250
   99MOL0     H13338  -1.555   5.646   2.956  0.2259  1.2567  1.9565
   99MOL0     H13339  -1.799   5.742   2.956 -3.7038 -0.8573 -1.1324
   99MOL0     H13340  -1.792   5.627   2.819  1.9297  0.6884 -4.1014
   99MOL0     H13341  -1.737   5.917   2.794  1.2504 -1.4856  1.1769
   99MOL0     H13342  -1.768   5.799   2.665 -1.4281 -1.0134 -1.1762
   99MOL0     H13343  -1.961   5.950   2.734  2.2160  1.9770  0.4399
   99MOL0     H13344  -1.965   5.851   2.878  1.8270  1.5360  0.2282
   99MOL0     H13345  -2.046   5.668   2.762  1.0397  0.7643 -0.6387
   99MOL0     H13346  -1.958   5.723   2.605  1.1128 -1.0253 -0.1874
   99MOL0     H13347  -1.032   5.938   3.081  0.4351 -0.7988  1.6954
   99MOL0     H13348  -0.891   6.063   3.224  0.1086 -1.1268 -3.9835
   99MOL0     H13349  -0.800   6.224   3.632  0.8491  0.3399  0.6687
   99MOL0     H13350  -0.624   6.288   3.792  0.7972  1.4548 -0.0566
   99MOL0     H13351   0.868   6.642   4.716  1.8469 -0.3329  0.0878
   99MOL0     H13352   0.856   6.740   4.932  2.7723 -0.0779 -0.0672
   99MOL0     H13353   0.810   6.692   5.363 -0.0091  1.5098 -1.9240
   99MOL0     H13354   0.813   6.791   5.589 -0.8015  2.8184  2.1931
   99MOL0     H13355   0.717   7.066   5.830  2.0545 -0.1879  2.9415
   99MOL0     H13356   0.761   6.904   5.776  0.2304 -0.5192 -1.1932
   99MOL0     H13357   0.969   7.008   5.658  0.2392  0.4692 -0.2314
   99MOL0     H13358   0.968   6.993   5.835 -0.2530  1.7670  1.3911
   99MOL0     H13359   0.923   7.232   5.845 -0.1174  0.8426 -1.1787
   99MOL0     H13360   0.885   7.228   5.670 -3.7650 -2.4510  1.2333
   99MOL0     H13361   1.126   7.193   5.639  1.6345 -4.3680  0.9737
   99MOL0     H13362   1.161   7.196   5.814 -1.5091 -3.8708 -1.0615
   99MOL0     H13363   1.143   7.600   5.778  3.0627 -0.6364 -1.1088
   99MOL0     H13364   0.529   7.083   5.429  0.8879  0.7289  0.1973
   99MOL0     H13365   0.491   6.951   5.249 -0.6592  1.1309  1.4759
  100MOL0     O13366   1.342   2.958   1.164 -0.4021  0.3020  0.5303
  100MOL0     C13367   1.240   2.963   1.232 -0.3575 -0.3341 -0.9363
  100MOL0     O13368   1.125   2.933   1.180  0.2648 -0.3338 -0.4684
  100MOL0     C13369   1.129   2.861   1.061 -0.2413  0.0066 -0.0595
  100MOL0     C13370   1.113   2.723   1.064 -0.6194  0.0504  0.7444
  100MOL0     C13371   1.088   2.651   0.947  1.7807  0.8206  0.1551
  100MOL0     C13372   1.102   2.721   0.822  0.0146  0.9196  0.4710
  100MOL0     O13373   1.085   2.665   0.697  0.3940  0.3745 -0.2205
  100MOL0     C13374   1.099   2.519   0.689 -0.0954  0.2898  0.8178
  100MOL0     C13375   1.124   2.494   0.547 -0.0388 -0.5171  0.8474
  100MOL0     C13376   1.009   2.524   0.446 -0.0582 -0.0936 -0.0572
  100MOL0     C13377   0.903   2.417   0.431 -0.2289 -0.2013  0.0776
  100MOL0     C13378   0.776   2.473   0.368 -0.4163  0.7365  0.5457
  100MOL0     C13379   0.668   2.531   0.457 -0.7847  0.7112 -0.1894
  100MOL0     C13380   0.539   2.570   0.374 -0.2424  0.6486  0.0944
  100MOL0     C13381   0.427   2.593   0.478  0.7301 -0.5129  0.6881
  100MOL0     N13382   0.344   2.714   0.440 -0.4081  0.3809 -0.5719
  100MOL0     C13383   0.386   2.851   0.468  0.0227 -0.2715 -0.0717
  100MOL0     C13384   0.278   2.920   0.429 -0.1456 -0.0910 -0.3242
  100MOL0     C13385   0.275   3.068   0.451 -0.1946  0.0262 -0.8135
  100MOL0     C13386   0.190   3.106   0.571 -0.5728  0.1770 -0.2809
  100MOL0     C13387   0.253   3.234   0.630  0.3884 -0.7678 -0.2138
  100MOL0     C13388   0.379   3.210   0.713  0.6627  0.4876  0.3408
  100MOL0     O13389   0.358   3.291   0.830  0.2159 -0.8735 -0.2978
  100MOL0     C13390   0.460   3.292   0.924  0.1639  0.6956 -0.3328
  100MOL0     C13391   0.574   3.210   0.927  0.5062  0.7300  0.3264
  100MOL0     C13392   0.651   3.187   1.040 -0.6532 -0.2677  0.4887
  100MOL0     C13393   0.768   3.086   1.015 -0.7598 -0.6911 -1.0992
  100MOL0     C13394   0.619   3.254   1.151 -0.4360  0.6682 -0.1411
  100MOL0     C13395   0.705   3.250   1.274  0.5579  0.3105 -1.2642
  100MOL0     O13396   0.700   3.354   1.359  0.1945 -0.0326  0.0440
  100MOL0     C13397   0.708   3.341   1.491 -0.3086  0.5376 -0.0857
  100MOL0     C13398   0.620   3.416   1.556 -0.6730  0.3060 -0.7225
  100MOL0     C13399   0.617   3.415   1.695  0.5811 -0.9716 -0.1220
  100MOL0     C13400   0.720   3.363   1.770  1.0992  0.5207 -0.1630
  100MOL0     O13401   0.724   3.380   1.910 -0.3384 -0.0956 -0.2584
  100MOL0     C13402   0.755   3.518   1.935 -0.8170 -0.6227 -0.1451
  100MOL0     C13403   0.730   3.534   2.087  0.5183 -0.4009 -0.0819
  100MOL0     C13404   0.765   3.672   2.135 -0.3740 -0.2800  0.3421
  100MOL0     C13405   0.657   3.729   2.228  0.7179  0.2432 -0.8259
  100MOL0     C13406   0.699   3.857   2.318 -0.6142  0.2320  0.3685
  100MOL0     C13407   0.813   3.835   2.415  0.0908  0.1737 -0.4030
  100MOL0     C13408   0.816   3.945   2.524 -0.1354 -0.2377  0.3971
  100MOL0     C13409   0.833   4.092   2.482 -0.6420 -1.0117  0.3549
  100MOL0    Cl13410   0.967   4.110   2.371  0.1057 -0.5706 -0.1515
  100MOL0     C13411   0.799   3.276   1.707 -0.4978 -0.2361 -0.9459
  100MOL0     C13412   0.800   3.271   1.569 -0.4600 -0.1235 -0.7864
  100MOL0     O13413   0.770   3.149   1.301 -0.2319  0.0707  0.2447
  100MOL0     C13414   0.514   3.342   1.154  0.0453 -0.8172  0.0693
  100MOL0     C13415   0.442   3.367   1.036  0.0625  1.9556 -0.3011
  100MOL0     N13416   0.172   2.842   0.377  0.1495  0.7405  0.4103
  100MOL0     N13417   0.225   2.721   0.371 -0.0222 -0.1802  0.9701
  100MOL0     C13418   1.131   2.858   0.810 -0.0185  1.1330 -0.3119
  100MOL0     C13419   1.146   2.924   0.940 -1.2792  0.7850 -0.5281
  100MOL0     C13420   1.247   3.021   1.376  0.9773  0.1658 -0.3147
  100MOL0     C13421   1.138   3.094   1.423 -0.1770 -0.8500 -0.0050
  100MOL0     C13422   1.148   3.140   1.558 -0.0457  0.2032 -0.4922
  100MOL0     C13423   1.257   3.128   1.646 -0.2259  0.5989  0.1808
  100MOL0     O13424   1.270   3.180   1.774 -0.0441  0.7710 -0.0567
  100MOL0     C13425   1.141   3.209   1.848  0.4143  0.5563 -0.2177
  100MOL0     C13426   1.166   3.234   1.996 -0.2523 -0.5478  0.1841
  100MOL0     C13427   1.045   3.310   2.053  0.4776  0.6820  0.8084
  100MOL0     C13428   1.035   3.309   2.209 -0.8354 -0.0759  0.0118
  100MOL0     C13429   1.146   3.388   2.269  0.8284  0.1101  1.4820
  100MOL0     C13430   1.236   3.447   2.323  0.7613  0.0891  0.0739
  100MOL0     C13431   1.360   3.051   1.586  0.5601 -0.3827 -0.4397
  100MOL0     C13432   1.365   3.011   1.453  0.3785  1.3081 -0.5540
  100MOL0     H13433   1.088   2.677   1.159  0.1786  0.0975  0.9831
  100MOL0     H13434   1.060   2.547   0.943  2.9817  0.4721  0.4433
  100MOL0     H13435   1.179   2.483   0.755  1.3448 -0.2106 -1.1044
  100MOL0     H13436   1.003   2.470   0.705 -1.4283  2.8907  1.3589
  100MOL0     H13437   1.215   2.541   0.509 -0.0101 -2.0192 -1.1449
  100MOL0     H13438   1.139   2.386   0.535 -1.9656 -0.6133 -1.6931
  100MOL0     H13439   0.959   2.618   0.467  1.0374  0.2930  0.9750
  100MOL0     H13440   1.063   2.538   0.352  2.3261  0.3698  1.2870
  100MOL0     H13441   0.950   2.332   0.380  0.6689 -0.1506  0.7936
  100MOL0     H13442   0.886   2.367   0.527  1.0929 -2.2349 -0.6729
  100MOL0     H13443   0.797   2.556   0.300  1.2231  0.5231  0.7517
  100MOL0     H13444   0.736   2.394   0.304  0.3357  1.4118 -0.7912
  100MOL0     H13445   0.639   2.447   0.520  0.9715 -1.1487 -1.7194
  100MOL0     H13446   0.711   2.611   0.519 -0.9922  0.1842  0.6499
  100MOL0     H13447   0.549   2.657   0.308  2.8069  0.5299  0.2538
  100MOL0     H13448   0.513   2.487   0.308 -0.9157  1.8800 -1.2232
  100MOL0     H13449   0.469   2.610   0.578  1.6896  1.7667 -0.0383
  100MOL0     H13450   0.364   2.504   0.480 -1.1047  0.6954 -0.3148
  100MOL0     H13451   0.477   2.892   0.511  2.0864 -4.6555  0.2608
  100MOL0     H13452   0.379   3.104   0.449  0.1988 -0.6112  2.5530
  100MOL0     H13453   0.228   3.117   0.365 -0.7811 -2.1979 -1.8165
  100MOL0     H13454   0.190   3.027   0.647 -0.7569  2.1340  1.8802
  100MOL0     H13455   0.087   3.111   0.533 -0.9576 -3.9910 -0.1850
  100MOL0     H13456   0.183   3.294   0.688  3.2210  2.2041  0.4430
  100MOL0     H13457   0.283   3.311   0.558  0.4813  0.9353  1.5841
  100MOL0     H13458   0.475   3.222   0.661  1.2496 -0.5216  1.1399
  100MOL0     H13459   0.380   3.106   0.748  0.0185 -0.7611 -2.9875
  100MOL0     H13460   0.598   3.158   0.835 -1.5852  1.5165 -0.7233
  100MOL0     H13461   0.800   3.081   0.911 -0.4403 -0.0412 -1.0335
  100MOL0     H13462   0.857   3.122   1.068  0.6397 -1.9716 -2.4786
  100MOL0     H13463   0.752   2.982   1.047  1.1737 -0.0669  2.3877
  100MOL0     H13464   0.539   3.455   1.495 -1.3237 -0.3731 -0.3153
  100MOL0     H13465   0.546   3.483   1.741  2.6549  3.6540 -3.0549
  100MOL0     H13466   0.857   3.544   1.904 -0.4582 -1.9440 -0.1513
  100MOL0     H13467   0.682   3.584   1.888 -0.7748  0.0534  0.7030
  100MOL0     H13468   0.626   3.510   2.111 -0.1154  1.0131 -1.2212
  100MOL0     H13469   0.783   3.460   2.147 -0.7054 -0.0035  1.5449
  100MOL0     H13470   0.780   3.734   2.046  2.1730 -1.5458 -0.2016
  100MOL0     H13471   0.861   3.674   2.187 -0.0885 -3.7265  0.2094
  100MOL0     H13472   0.566   3.756   2.173 -1.0418 -0.8578  1.3850
  100MOL0     H13473   0.630   3.651   2.299  1.3068 -1.1408 -2.0737
  100MOL0     H13474   0.613   3.893   2.376 -1.1734  0.7800 -0.7681
  100MOL0     H13475   0.734   3.935   2.250 -0.1896  1.8456  2.3516
  100MOL0     H13476   0.801   3.745   2.477  3.0948 -0.2605 -0.3392
  100MOL0     H13477   0.909   3.825   2.363 -0.8188 -3.1547 -1.7540
  100MOL0     H13478   0.893   3.923   2.599 -0.9171 -2.8244  0.5100
  100MOL0     H13479   0.729   3.946   2.591 -1.3983 -5.2270 -0.7537
  100MOL0     H13480   0.845   4.146   2.576  2.7288 -1.8185  0.5205
  100MOL0     H13481   0.737   4.123   2.439  0.5212  1.2064 -0.7988
  100MOL0     H13482   0.874   3.224   1.765  1.1378  3.5489  0.6277
  100MOL0     H13483   0.869   3.201   1.524 -1.4852 -1.9276  0.3104
  100MOL0     H13484   0.480   3.395   1.243 -2.1439  0.9911 -1.7171
  100MOL0     H13485   0.363   3.442   1.036  1.1423  3.1381  0.1360
  100MOL0     H13486   1.136   2.902   0.711  1.4603  0.3115 -0.6243
  100MOL0     H13487   1.174   3.029   0.936  1.2629  0.2318  0.4876
  100MOL0     H13488   1.043   3.083   1.371  0.1688  0.1157 -0.8727
  100MOL0     H13489   1.063   3.190   1.604 -0.4768 -1.8438  1.0765
  100MOL0     H13490   1.098   3.299   1.803  1.1112  1.2524  0.4765
  100MOL0     H13491   1.068   3.128   1.849  2.0030 -1.1662  4.3211
  100MOL0     H13492   1.260   3.285   2.017 -0.2889 -0.1271 -0.6319
  100MOL0     H13493   1.190   3.132   2.028  1.4223 -1.4008 -3.2791
  100MOL0     H13494   0.951   3.266   2.019  0.8711  0.8225 -0.4983
  100MOL0     H13495   1.045   3.403   1.996  0.2564 -0.6326 -1.4476
  100MOL0     H13496   1.041   3.209   2.253  1.1784 -0.2726 -0.6106
  100MOL0     H13497   0.944   3.361   2.238  0.5385  2.1835  0.5686
  100MOL0     H13498   1.325   3.485   2.370 -1.1058 -1.4036  5.4580
  100MOL0     H13499   1.450   3.036   1.643  2.1010  0.8132 -2.4425
  100MOL0     H13500   1.440   2.939   1.420  0.2757 -0.2615  2.2994
  101MOL0     O13501  10.895   2.110   8.749  1.0576  0.4338 -0.3608
  101MOL0     C13502  10.792   2.046   8.736  0.0671 -0.3114 -0.1868
  101MOL0     O13503  10.783   1.916   8.690 -0.2251 -0.9235  0.0963
  101MOL0     C13504  10.891   1.835   8.657  0.3112  0.1982 -0.2497
  101MOL0     C13505  11.016   1.875   8.613  0.0882  0.1796  1.3259
  101MOL0     C13506  11.117   1.784   8.594 -0.7310  0.2136  0.1692
  101MOL0     C13507  11.101   1.652   8.614 -0.2382  0.6316 -1.1012
  101MOL0     O13508  11.203   1.556   8.624 -0.3769  0.9038 -0.5851
  101MOL0     C13509  11.302   1.576   8.519  0.2746  0.4925  0.1290
  101MOL0     C13510  11.384   1.452   8.490  0.0496 -0.0704  0.1748
  101MOL0     C13511  11.485   1.485   8.388 -0.6306 -1.2505  0.7842
  101MOL0     C13512  11.582   1.376   8.346  0.7943  0.6504 -0.7349
  101MOL0     C13513  11.639   1.426   8.215  0.1451  0.7716  0.4076
  101MOL0     C13514  11.754   1.332   8.179 -0.4092 -0.8573  0.1548
  101MOL0     C13515  11.868   1.320   8.274 -0.8706 -0.0201  0.5087
  101MOL0     C13516  11.918   1.453   8.329  0.7333 -0.7256 -0.2371
  101MOL0     N13517  11.993   1.528   8.226 -0.2873  0.2025  0.2901
  101MOL0     C13518  12.134   1.533   8.213  0.3735  0.0686 -0.4707
  101MOL0     C13519  12.159   1.617   8.115  0.3984 -0.3260  0.1454
  101MOL0     C13520  12.292   1.663   8.059 -0.7375 -0.7839 -0.2806
  101MOL0     C13521  12.321   1.653   7.898  0.4498 -0.4436 -0.8951
  101MOL0     C13522  12.266   1.769   7.814 -0.2011  0.1207  0.1605
  101MOL0     C13523  12.254   1.912   7.869 -0.6722  0.2743 -0.5515
  101MOL0     O13524  12.191   2.002   7.767 -0.2950 -0.7652  0.2639
  101MOL0     C13525  12.050   2.023   7.777 -1.3881  0.2622 -0.0510
  101MOL0     C13526  11.962   1.922   7.822 -0.0985 -1.1797  0.6690
  101MOL0     C13527  11.829   1.947   7.841  0.2012  0.4006 -0.3265
  101MOL0     C13528  11.756   1.831   7.902 -0.1779 -0.2397 -0.6424
  101MOL0     C13529  11.773   2.076   7.797 -0.4001  1.0846 -1.5873
  101MOL0     C13530  11.639   2.119   7.826 -0.0492  1.0557  0.6946
  101MOL0     O13531  11.566   2.194   7.734  0.1095 -0.1691  0.4480
  101MOL0     C13532  11.457   2.271   7.771  0.7015  0.7739  0.1320
  101MOL0     C13533  11.466   2.409   7.767  0.4528 -0.5421  0.2472
  101MOL0     C13534  11.366   2.485   7.827  0.2090 -0.0618 -0.0718
  101MOL0     C13535  11.245   2.423   7.864  0.0316 -0.5530 -0.6337
  101MOL0     O13536  11.161   2.508   7.930  0.8121 -0.5411  0.1967
  101MOL0     C13537  11.019   2.476   7.923  0.4785  0.5022 -0.4571
  101MOL0     C13538  10.942   2.592   7.972 -0.1047  0.4147 -0.1307
  101MOL0     C13539  10.789   2.564   7.985 -0.5674  0.6885  0.9620
  101MOL0     C13540  10.708   2.688   7.993 -0.6427  0.1424 -0.0729
  101MOL0     C13541  10.548   2.660   7.992 -0.2799  0.3695  0.6722
  101MOL0     C13542  10.471   2.786   7.973 -0.1191  0.0923  0.6112
  101MOL0     C13543  10.319   2.755   7.967 -0.7015 -0.5534  0.0298
  101MOL0     C13544  10.262   2.723   7.823  0.5499 -0.0743  0.2955
  101MOL0    Cl13545  10.071   2.687   7.838 -0.0085 -0.1957 -0.0364
  101MOL0     C13546  11.237   2.284   7.869 -0.3394  0.1354 -0.1514
  101MOL0     C13547  11.346   2.208   7.834  0.0477  0.1324  0.3771
  101MOL0     O13548  11.598   2.087   7.939  0.1884 -0.1588  0.5908
  101MOL0     C13549  11.863   2.170   7.744  0.1417 -0.5051 -0.8936
  101MOL0     C13550  11.996   2.136   7.734 -0.7245 -1.0488  0.3715
  101MOL0     N13551  12.038   1.665   8.067  0.7087  0.3561  0.7837
  101MOL0     N13552  11.939   1.607   8.132  0.5615 -0.7888 -1.7470
  101MOL0     C13553  10.975   1.611   8.637 -1.1562  0.4079 -0.3281
  101MOL0     C13554  10.873   1.700   8.664  0.4863 -0.4971  0.1401
  101MOL0     C13555  10.662   2.111   8.778 -0.9590 -0.0529  0.4980
  101MOL0     C13556  10.530   2.047   8.760 -0.8897  0.9773  0.0031
  101MOL0     C13557  10.424   2.110   8.810  0.5409  0.0260  0.3018
  101MOL0     C13558  10.419   2.230   8.871  0.1930 -1.2601 -0.5277
  101MOL0     O13559  10.306   2.289   8.906  0.8360  0.1350  0.1832
  101MOL0     C13560  10.252   2.361   8.803 -0.1746  1.9478  0.6885
  101MOL0     C13561  10.101   2.358   8.807  0.0749  1.0142 -0.2701
  101MOL0     C13562  10.052   2.212   8.779  0.2000  0.6405 -0.7256
  101MOL0     C13563   9.907   2.227   8.813 -0.1298 -0.6169  0.1632
  101MOL0     C13564   9.818   2.172   8.712 -0.7091  0.0097  0.6318
  101MOL0     C13565   9.744   2.122   8.641 -0.3302  0.1802  0.6157
  101MOL0     C13566  10.537   2.299   8.883  0.2649  0.1277  0.3893
  101MOL0     C13567  10.661   2.238   8.832  1.4177 -0.9723  0.2225
  101MOL0     H13568  11.036   1.974   8.573  2.3882 -0.7496 -0.0105
  101MOL0     H13569  11.214   1.817   8.557 -0.9162  0.4515 -0.1018
  101MOL0     H13570  11.243   1.604   8.431 -3.1236 -1.5325  1.5388
  101MOL0     H13571  11.366   1.660   8.545 -1.5757  0.9036  4.1437
  101MOL0     H13572  11.443   1.437   8.581 -0.2662  1.5897  0.6787
  101MOL0     H13573  11.326   1.364   8.460 -0.3755  0.7195 -1.4159
  101MOL0     H13574  11.425   1.513   8.301  2.0910  1.1959 -0.4741
  101MOL0     H13575  11.550   1.564   8.425  0.5947 -2.6880  1.8316
  101MOL0     H13576  11.655   1.357   8.425 -1.4790 -1.3597  1.0315
  101MOL0     H13577  11.518   1.289   8.326 -1.7476  2.2654 -0.1213
  101MOL0     H13578  11.563   1.431   8.137  0.8609 -2.4289 -0.6303
  101MOL0     H13579  11.679   1.528   8.221 -2.2869  2.0321 -2.3657
  101MOL0     H13580  11.705   1.234   8.171 -3.7052  0.7920 -2.1534
  101MOL0     H13581  11.782   1.365   8.078 -1.4330  0.8908  0.3971
  101MOL0     H13582  11.845   1.248   8.353 -2.8709  1.1851  1.0893
  101MOL0     H13583  11.946   1.280   8.209 -3.5885 -4.1471 -0.5774
  101MOL0     H13584  11.983   1.431   8.414 -0.6159 -2.6035  0.3751
  101MOL0     H13585  11.833   1.507   8.371  2.6089  1.7274  0.6962
  101MOL0     H13586  12.204   1.480   8.276 -2.1809 -3.9534 -0.6151
  101MOL0     H13587  12.311   1.764   8.096  3.3662 -0.2728 -3.0467
  101MOL0     H13588  12.372   1.600   8.097 -1.2883 -0.2409  1.8821
  101MOL0     H13589  12.285   1.558   7.857  1.2311 -0.3577 -1.7976
  101MOL0     H13590  12.429   1.650   7.883  0.6120  0.1363  0.0706
  101MOL0     H13591  12.162   1.739   7.798  0.0430 -2.6711  2.8320
  101MOL0     H13592  12.319   1.766   7.718 -1.8064  0.4547 -0.7650
  101MOL0     H13593  12.346   1.957   7.907 -2.5267  0.7557  4.1435
  101MOL0     H13594  12.189   1.910   7.957 -1.4820 -0.6539 -1.1466
  101MOL0     H13595  11.999   1.824   7.850  0.4592 -1.0336  0.4649
  101MOL0     H13596  11.763   1.742   7.840 -2.2437 -0.9520  0.0484
  101MOL0     H13597  11.790   1.822   8.005 -2.5200  0.8868  0.3210
  101MOL0     H13598  11.648   1.852   7.893 -0.3836 -1.1969 -0.4679
  101MOL0     H13599  11.557   2.441   7.718 -0.9043  0.2996 -1.8303
  101MOL0     H13600  11.359   2.593   7.830 -2.3385 -0.0759 -1.9065
  101MOL0     H13601  10.992   2.469   7.817  0.3061 -4.3782 -0.3303
  101MOL0     H13602  10.987   2.392   7.985  0.7364  2.2263  2.1592
  101MOL0     H13603  10.971   2.634   8.068 -0.7983  3.5879 -1.1989
  101MOL0     H13604  10.964   2.674   7.903  0.6086  1.5556  1.4246
  101MOL0     H13605  10.773   2.490   8.063  1.2037 -1.0587 -0.2230
  101MOL0     H13606  10.771   2.502   7.896  1.9977 -0.1799  0.9700
  101MOL0     H13607  10.728   2.752   8.080  0.5801  2.6105 -2.0291
  101MOL0     H13608  10.748   2.755   7.917  3.2750 -1.4746  0.2854
  101MOL0     H13609  10.519   2.606   8.083 -0.8164 -2.2562 -0.9443
  101MOL0     H13610  10.526   2.584   7.917 -0.6260 -0.6578  1.7714
  101MOL0     H13611  10.490   2.844   8.064  1.6272 -0.8463  0.8909
  101MOL0     H13612  10.517   2.831   7.885  0.7563 -2.2724 -0.2371
  101MOL0     H13613  10.276   2.847   8.008 -2.6553 -2.1579  1.8453
  101MOL0     H13614  10.282   2.676   8.033 -1.8381 -0.0664  0.0056
  101MOL0     H13615  10.320   2.639   7.783  1.7662 -0.0169  1.8389
  101MOL0     H13616  10.274   2.813   7.763  1.8371  1.5661  2.8094
  101MOL0     H13617  11.137   2.248   7.887 -2.2242  1.2312 -6.3564
  101MOL0     H13618  11.334   2.103   7.858  4.5928 -0.8089 -0.5197
  101MOL0     H13619  11.838   2.273   7.719  0.3294 -0.3869 -0.5996
  101MOL0     H13620  12.063   2.208   7.689 -0.7568 -1.1685  0.1358
  101MOL0     H13621  10.954   1.510   8.673 -0.4646  1.1085  2.2642
  101MOL0     H13622  10.776   1.670   8.702 -0.0920 -2.0745 -2.3262
  101MOL0     H13623  10.524   1.941   8.740 -2.5341  1.3140 -1.4479
  101MOL0     H13624  10.334   2.050   8.801  0.2187  0.0355  2.8050
  101MOL0     H13625  10.291   2.463   8.800 -3.3592  3.2736  0.3662
  101MOL0     H13626  10.264   2.310   8.707 -1.0282 -0.8129  1.9409
  101MOL0     H13627  10.051   2.426   8.737 -0.5566  2.4480  1.4790
  101MOL0     H13628  10.068   2.383   8.909 -0.9062  0.1705 -0.3664
  101MOL0     H13629  10.097   2.148   8.856  1.3621  3.5939  1.2642
  101MOL0     H13630  10.067   2.180   8.676  2.3978  0.7301 -0.4924
  101MOL0     H13631   9.868   2.330   8.819  3.1524  0.7273  0.6561
  101MOL0     H13632   9.890   2.179   8.910  1.1988 -1.4801 -0.0199
  101MOL0     H13633   9.689   2.080   8.559  2.1441  1.1337 -1.6833
  101MOL0     H13634  10.525   2.400   8.918 -0.5044 -1.2479  4.6255
  101MOL0     H13635  10.749   2.298   8.855 -0.2597  1.7363 -0.0036
  102MOL0     O13636   1.162   0.944   7.065 -0.3555 -0.1425 -0.0548
  102MOL0     C13637   1.041   0.958   7.069  0.4270  0.4781 -0.0953
  102MOL0     O13638   0.961   1.073   7.037 -0.1148  0.3232  0.6463
  102MOL0     C13639   1.021   1.191   6.993  0.3260  0.6315  0.4322
  102MOL0     C13640   1.088   1.272   7.084 -0.5155  0.4237  0.2064
  102MOL0     C13641   1.142   1.403   7.049  0.4282  0.5037 -0.2704
  102MOL0     C13642   1.104   1.466   6.927 -0.4388  0.1500 -0.3105
  102MOL0     O13643   1.146   1.591   6.899  0.7652  0.2705 -0.6437
  102MOL0     C13644   1.112   1.653   6.777 -0.7423  0.5469  0.5453
  102MOL0     C13645   1.157   1.801   6.797 -0.1311  0.8944 -0.0960
  102MOL0     C13646   1.151   1.850   6.943 -0.5174  0.8762  0.6422
  102MOL0     C13647   1.143   1.999   6.955  0.9904 -0.1881  0.4062
  102MOL0     C13648   1.185   2.056   7.089 -0.4042 -0.1214 -0.9157
  102MOL0     C13649   1.318   2.133   7.090  0.0344  0.3068  1.0236
  102MOL0     C13650   1.359   2.169   7.238 -0.0359 -0.3931  0.4606
  102MOL0     C13651   1.503   2.207   7.244  0.7886  0.1697  0.3614
  102MOL0     N13652   1.546   2.238   7.377  0.5339 -0.2160  0.2830
  102MOL0     C13653   1.554   2.143   7.473  0.2931  0.7199 -0.2667
  102MOL0     C13654   1.606   2.201   7.583 -0.2857 -0.5659 -1.1311
  102MOL0     C13655   1.668   2.116   7.696 -0.1723 -0.7885  1.0790
  102MOL0     C13656   1.805   2.034   7.673 -0.1727 -0.1835  0.5181
  102MOL0     C13657   1.896   2.002   7.790 -0.7775  0.2952 -0.3985
  102MOL0     C13658   1.994   1.888   7.758 -0.2770  0.3607  0.4961
  102MOL0     O13659   2.102   1.891   7.853 -0.3635  0.6672  0.0854
  102MOL0     C13660   2.102   1.816   7.967 -0.0861 -1.1296  0.2135
  102MOL0     C13661   2.201   1.849   8.057 -0.1910 -0.2847 -0.5961
  102MOL0     C13662   2.229   1.778   8.171  0.5236 -0.4719  0.3434
  102MOL0     C13663   2.341   1.826   8.259 -1.0765 -0.0564 -0.1522
  102MOL0     C13664   2.161   1.660   8.201 -0.4296 -0.7929 -0.0213
  102MOL0     C13665   2.193   1.573   8.327 -1.0315  0.5961  0.9963
  102MOL0     O13666   2.157   1.438   8.302 -0.0952  0.4624 -0.8697
  102MOL0     C13667   2.178   1.348   8.397 -0.6932  0.1745 -0.5850
  102MOL0     C13668   2.141   1.361   8.535  0.2051  0.3914 -0.4078
  102MOL0     C13669   2.168   1.254   8.623  0.8340  0.3210  0.4251
  102MOL0     C13670   2.229   1.140   8.580 -0.1724 -0.2526  0.7843
  102MOL0     O13671   2.242   1.030   8.657 -0.2855 -0.1158  0.7395
  102MOL0     C13672   2.308   1.038   8.779 -0.1203 -0.4642 -0.2533
  102MOL0     C13673   2.372   0.904   8.823  0.6342 -0.1847 -0.4066
  102MOL0     C13674   2.295   0.769   8.842 -0.1627  0.0157  0.3563
  102MOL0     C13675   2.392   0.650   8.854  0.0165 -0.3848 -0.2562
  102MOL0     C13676   2.428   0.594   8.996  1.2090  0.0423 -0.7346
  102MOL0     C13677   2.455   0.449   9.001  0.0466  0.7191 -0.1992
  102MOL0     C13678   2.353   0.347   8.961 -0.7714  0.6984 -0.6024
  102MOL0     C13679   2.395   0.204   8.977  0.6338 -0.1630 -0.6252
  102MOL0    Cl13680   2.541   0.177   8.896  0.1959 -0.6527 -0.0710
  102MOL0     C13681   2.270   1.132   8.444  0.1753 -0.3726 -0.3430
  102MOL0     C13682   2.237   1.230   8.350  0.0987 -0.4137 -0.0136
  102MOL0     O13683   2.240   1.617   8.431  0.0607 -0.2978  0.3487
  102MOL0     C13684   2.081   1.610   8.104 -0.0441  0.3965  0.4197
  102MOL0     C13685   2.043   1.689   7.993  1.4101 -0.1644  0.3896
  102MOL0     N13686   1.612   2.342   7.550 -0.3204 -0.3426 -0.1090
  102MOL0     N13687   1.569   2.355   7.429 -0.2477  0.0253  0.3610
  102MOL0     C13688   1.032   1.383   6.838  1.0562  0.6367  0.6230
  102MOL0     C13689   0.993   1.251   6.871 -0.3942 -0.4731 -0.1161
  102MOL0     C13690   0.971   0.837   7.113 -0.6238  0.0154 -0.5258
  102MOL0     C13691   1.036   0.710   7.100  0.6504 -0.6276  0.5362
  102MOL0     C13692   0.971   0.593   7.156 -0.0011 -0.2310 -0.2100
  102MOL0     C13693   0.842   0.602   7.223 -0.5359  1.1609  0.5586
  102MOL0     O13694   0.773   0.496   7.286  0.1393 -0.4692 -0.2633
  102MOL0     C13695   0.841   0.371   7.300  0.0036  0.1804  0.8057
  102MOL0     C13696   0.956   0.365   7.399 -0.5527 -0.5621  0.3785
  102MOL0     C13697   0.920   0.421   7.532  0.1313 -1.1073 -1.1594
  102MOL0     C13698   0.851   0.329   7.635 -0.8230  0.8087 -0.0633
  102MOL0     C13699   0.883   0.384   7.767 -0.8753 -0.3170  0.4284
  102MOL0     C13700   0.900   0.432   7.881 -0.7626  0.8932  0.2052
  102MOL0     C13701   0.791   0.725   7.237 -0.2861 -0.0518 -0.3199
  102MOL0     C13702   0.849   0.845   7.185  0.0293  0.6764  0.5258
  102MOL0     H13703   1.094   1.237   7.187 -2.6411  2.2342  1.0378
  102MOL0     H13704   1.206   1.462   7.115  2.0464  2.1878 -3.1501
  102MOL0     H13705   1.172   1.623   6.690  1.4791  2.0838  1.4457
  102MOL0     H13706   1.004   1.637   6.767 -0.5014  0.0287 -1.8495
  102MOL0     H13707   1.260   1.809   6.759 -0.8390 -2.0834 -3.1671
  102MOL0     H13708   1.101   1.863   6.727 -0.6595 -2.1251 -2.5229
  102MOL0     H13709   1.074   1.808   7.008  0.0482 -0.0674  0.7198
  102MOL0     H13710   1.249   1.821   6.983  0.4889 -1.1783 -2.8736
  102MOL0     H13711   1.215   2.038   6.882 -1.8535  2.0981 -1.3905
  102MOL0     H13712   1.037   2.020   6.940  0.1621 -3.5677  0.6779
  102MOL0     H13713   1.098   2.116   7.116  0.2389  0.3695  0.1766
  102MOL0     H13714   1.197   1.970   7.156 -0.3830 -0.8964 -1.8910
  102MOL0     H13715   1.390   2.061   7.052 -0.0185  1.7870 -2.1601
  102MOL0     H13716   1.309   2.228   7.037 -1.4558 -0.8023 -0.8534
  102MOL0     H13717   1.301   2.258   7.264  0.2762  0.6513 -2.0924
  102MOL0     H13718   1.330   2.085   7.302 -1.8760  0.3903  0.7152
  102MOL0     H13719   1.532   2.287   7.176  0.7811  0.2638  0.4703
  102MOL0     H13720   1.567   2.123   7.215  2.0710 -0.1047  3.5488
  102MOL0     H13721   1.521   2.040   7.472  0.5238  0.6196  0.8882
  102MOL0     H13722   1.686   2.187   7.777  3.0660 -1.3441  0.9758
  102MOL0     H13723   1.589   2.053   7.738 -0.4764 -2.5643 -1.8545
  102MOL0     H13724   1.870   2.076   7.596 -0.4303 -2.9312 -1.3404
  102MOL0     H13725   1.775   1.940   7.625 -0.2271 -0.0718  0.3290
  102MOL0     H13726   1.832   1.957   7.867  0.5322  3.1508  2.6152
  102MOL0     H13727   1.937   2.098   7.822 -1.4899  0.0762  1.2788
  102MOL0     H13728   2.038   1.908   7.660 -4.5232  3.3362 -1.0980
  102MOL0     H13729   1.930   1.799   7.755 -1.9326  1.5099 -0.1678
  102MOL0     H13730   2.268   1.932   8.035 -2.3096  1.8988  0.7226
  102MOL0     H13731   2.421   1.873   8.200 -2.0807  3.1143  0.8423
  102MOL0     H13732   2.307   1.904   8.327  0.9147 -1.3389  2.5129
  102MOL0     H13733   2.389   1.739   8.306 -0.1638  1.0137  0.9792
  102MOL0     H13734   2.093   1.453   8.565  1.3103  0.3822  1.5212
  102MOL0     H13735   2.143   1.272   8.727 -0.7512 -1.1206  0.3373
  102MOL0     H13736   2.388   1.109   8.758 -0.2176 -0.2328  0.1388
  102MOL0     H13737   2.239   1.067   8.859 -3.6741 -1.0538 -2.8929
  102MOL0     H13738   2.440   0.887   8.740 -0.1683 -2.5743 -0.6524
  102MOL0     H13739   2.424   0.920   8.918  0.3485 -0.2279 -0.2394
  102MOL0     H13740   2.233   0.750   8.754  1.4593 -0.3678 -0.7706
  102MOL0     H13741   2.224   0.781   8.924 -4.2406 -3.5717 -2.2224
  102MOL0     H13742   2.343   0.569   8.799  1.3287 -0.8311 -0.8133
  102MOL0     H13743   2.485   0.670   8.801 -0.1314  0.3467 -0.2472
  102MOL0     H13744   2.346   0.605   9.066 -0.3714 -0.4446 -2.4346
  102MOL0     H13745   2.522   0.637   9.032 -0.3804  2.9485  0.2144
  102MOL0     H13746   2.548   0.427   8.949 -0.2245  0.1558 -0.4486
  102MOL0     H13747   2.481   0.442   9.107  1.3205 -3.2984 -0.6129
  102MOL0     H13748   2.320   0.354   8.857  0.6476  1.1445 -1.0459
  102MOL0     H13749   2.269   0.351   9.031 -0.0083 -0.6391  0.4273
  102MOL0     H13750   2.323   0.132   8.937 -1.5180 -1.1298  4.3038
  102MOL0     H13751   2.401   0.187   9.085  2.5295 -1.0871 -0.8321
  102MOL0     H13752   2.344   1.060   8.409 -0.5611 -0.3499 -2.0720
  102MOL0     H13753   2.271   1.228   8.247  0.7185 -1.5419  0.1937
  102MOL0     H13754   2.043   1.509   8.114 -0.9695  0.4395 -1.9418
  102MOL0     H13755   1.964   1.648   7.931  0.1673 -2.1209  3.0425
  102MOL0     H13756   0.983   1.430   6.753 -1.5184  2.1933  2.8133
  102MOL0     H13757   0.928   1.209   6.795 -0.0869  0.0822 -0.6938
  102MOL0     H13758   1.130   0.715   7.046 -0.2630 -1.0915 -1.1736
  102MOL0     H13759   1.008   0.491   7.148  0.6648 -0.0090 -0.0007
  102MOL0     H13760   0.770   0.300   7.343  2.6014 -1.4816  2.6957
  102MOL0     H13761   0.867   0.325   7.204 -1.2772  0.7378  0.1764
  102MOL0     H13762   1.043   0.415   7.355 -0.9443 -1.0776 -1.0363
  102MOL0     H13763   0.990   0.261   7.405  0.6322 -0.4121 -2.3862
  102MOL0     H13764   0.857   0.508   7.514  0.5660  0.1265  2.3888
  102MOL0     H13765   1.016   0.449   7.578  0.7208 -2.8458 -1.2742
  102MOL0     H13766   0.900   0.231   7.626 -1.9726  0.0416  1.5042
  102MOL0     H13767   0.746   0.310   7.610 -0.2471  0.2932 -2.3719
  102MOL0     H13768   0.906   0.489   7.971  1.1651 -1.6530  1.8404
  102MOL0     H13769   0.696   0.729   7.289 -1.1211  0.8399 -1.8284
  102MOL0     H13770   0.804   0.936   7.220  0.6295  0.5024  1.8191
  103MOL0     O13771   6.404   0.752   4.118  0.2723  0.5373 -0.6182
  103MOL0     C13772   6.369   0.673   4.033 -0.6827  0.4229 -0.3661
  103MOL0     O13773   6.373   0.702   3.900  0.2219 -0.3158 -0.1339
  103MOL0     C13774   6.427   0.828   3.852  0.4469  2.0504 -0.4370
  103MOL0     C13775   6.558   0.851   3.836 -0.3121  0.2146 -0.1316
  103MOL0     C13776   6.608   0.981   3.797 -0.0707 -1.4901 -0.2855
  103MOL0     C13777   6.520   1.092   3.788 -0.6425  0.4295  0.0274
  103MOL0     O13778   6.572   1.219   3.756  1.0850  0.2865 -0.0719
  103MOL0     C13779   6.493   1.338   3.768 -0.8063  0.2626 -0.8196
  103MOL0     C13780   6.595   1.447   3.744 -0.3816 -0.1385  1.0924
  103MOL0     C13781   6.658   1.517   3.876  0.6122 -1.0558 -0.3695
  103MOL0     C13782   6.795   1.575   3.836  0.3267 -0.0910  1.0738
  103MOL0     C13783   6.880   1.605   3.952 -0.3989 -0.1038  0.1783
  103MOL0     C13784   7.009   1.684   3.927  0.1523  0.6088 -0.0497
  103MOL0     C13785   7.126   1.597   3.881 -0.2501  0.5932  0.8907
  103MOL0     C13786   7.269   1.653   3.873  0.3244 -0.3836  1.1971
  103MOL0     N13787   7.330   1.676   3.995  0.0769 -0.2016 -0.8218
  103MOL0     C13788   7.355   1.588   4.101 -0.3906 -0.0711  0.6701
  103MOL0     C13789   7.449   1.650   4.183  0.7382  0.5076 -0.5147
  103MOL0     C13790   7.495   1.596   4.321 -0.4553  0.9898  0.7894
  103MOL0     C13791   7.557   1.705   4.414  0.7908  0.3282  0.4922
  103MOL0     C13792   7.714   1.688   4.410 -0.5687 -0.0013  0.9579
  103MOL0     C13793   7.762   1.608   4.530 -0.4462  0.6127  0.2636
  103MOL0     O13794   7.684   1.476   4.524  0.2120 -0.3197  0.3596
  103MOL0     C13795   7.690   1.399   4.636 -0.2685  1.0881 -0.0504
  103MOL0     C13796   7.585   1.313   4.670  0.0138 -0.3159 -0.1914
  103MOL0     C13797   7.581   1.254   4.790  0.4121  0.3367 -0.8465
  103MOL0     C13798   7.457   1.171   4.811  0.4013 -0.4652 -0.9961
  103MOL0     C13799   7.691   1.272   4.885  0.7489  1.1173 -0.0077
  103MOL0     C13800   7.695   1.208   5.019 -1.2268  0.2555 -0.3567
  103MOL0     O13801   7.727   1.271   5.133 -0.3714  0.3145  0.0279
  103MOL0     C13802   7.727   1.405   5.145 -0.1125  0.6728 -0.6634
  103MOL0     C13803   7.843   1.475   5.181 -0.5494  0.0679 -0.7169
  103MOL0     C13804   7.831   1.604   5.230 -0.7549 -0.1188 -0.0058
  103MOL0     C13805   7.709   1.675   5.239 -0.1519  0.0026  1.3960
  103MOL0     O13806   7.694   1.806   5.267 -0.4136  0.8168  1.0578
  103MOL0     C13807   7.796   1.863   5.359  0.3361  1.2623  1.2477
  103MOL0     C13808   7.781   2.009   5.388  0.6447  0.3262 -0.2332
  103MOL0     C13809   7.663   2.037   5.479  0.4723  0.5432 -0.0392
  103MOL0     C13810   7.596   2.176   5.467  0.0221 -0.1734 -0.5223
  103MOL0     C13811   7.467   2.188   5.552  1.1639 -0.0313 -0.4383
  103MOL0     C13812   7.424   2.331   5.580  0.0694 -1.3111  0.6633
  103MOL0     C13813   7.307   2.339   5.665 -0.4376 -1.0067  0.0792
  103MOL0     C13814   7.172   2.313   5.599 -0.3185 -1.2078  0.8914
  103MOL0    Cl13815   7.157   2.378   5.434  0.3341 -0.6718  0.0092
  103MOL0     C13816   7.592   1.611   5.191  0.3761 -0.0093 -0.2722
  103MOL0     C13817   7.605   1.475   5.152 -0.4568  0.7109 -0.6363
  103MOL0     O13818   7.684   1.084   5.019 -0.4193 -0.6543  0.0558
  103MOL0     C13819   7.805   1.337   4.844 -0.8503  1.0443  0.9229
  103MOL0     C13820   7.798   1.410   4.723 -0.1662  0.0049 -0.1821
  103MOL0     N13821   7.497   1.762   4.120  0.8407  0.8660  0.8321
  103MOL0     N13822   7.409   1.784   4.016  0.1938 -0.4758  0.0879
  103MOL0     C13823   6.382   1.058   3.806  0.3136  0.2978  0.1822
  103MOL0     C13824   6.335   0.928   3.832 -0.2939 -0.4235  0.1938
  103MOL0     C13825   6.316   0.538   4.064 -0.8088  0.6750 -0.3249
  103MOL0     C13826   6.391   0.462   4.156  0.3151 -0.3807  0.1431
  103MOL0     C13827   6.353   0.328   4.202  0.6944 -0.3073  0.6803
  103MOL0     C13828   6.246   0.266   4.143  0.0856  0.4609  0.2609
  103MOL0     O13829   6.213   0.146   4.193  0.2820 -0.3197 -0.2413
  103MOL0     C13830   6.147   0.055   4.106  0.2931 -0.1061 -0.1206
  103MOL0     C13831   6.178  -0.080   4.165  0.1725 -0.4118 -0.8203
  103MOL0     C13832   6.154  -0.189   4.054  0.4447  0.1785  0.2264
  103MOL0     C13833   6.183  -0.336   4.112  0.2221  0.7098 -0.5845
  103MOL0     C13834   6.087  -0.383   4.215 -0.5957  0.9694 -0.0121
  103MOL0     C13835   6.029  -0.421   4.311 -0.5624  0.1395  0.5429
  103MOL0     C13836   6.178   0.338   4.042 -0.1735 -0.1906  0.0318
  103MOL0     C13837   6.208   0.471   4.010  0.2220  0.2772  0.4079
  103MOL0     H13838   6.615   0.760   3.853  0.4262  0.6363 -0.2930
  103MOL0     H13839   6.713   1.007   3.797  0.1452 -2.1226  1.9545
  103MOL0     H13840   6.419   1.336   3.687  0.7133 -1.3772 -2.2601
  103MOL0     H13841   6.454   1.361   3.867 -0.7139  1.5157 -1.0514
  103MOL0     H13842   6.682   1.417   3.685  0.8801 -0.9273  3.2414
  103MOL0     H13843   6.545   1.524   3.684  2.0449  1.0718  0.5198
  103MOL0     H13844   6.594   1.601   3.905 -1.2098 -1.3828 -3.1033
  103MOL0     H13845   6.677   1.440   3.951 -0.6402  0.5156  1.6957
  103MOL0     H13846   6.849   1.500   3.777 -4.3538 -3.2112  0.2364
  103MOL0     H13847   6.798   1.670   3.781  3.8192 -0.9438 -0.4959
  103MOL0     H13848   6.829   1.673   4.022 -1.7177  3.0522 -3.5261
  103MOL0     H13849   6.910   1.511   4.000  2.7839  0.4043 -0.6085
  103MOL0     H13850   6.987   1.758   3.849 -0.7574  0.7865  0.3607
  103MOL0     H13851   7.040   1.742   4.014  2.4056 -0.0266 -0.3606
  103MOL0     H13852   7.128   1.511   3.949  0.1217 -0.6407 -0.6364
  103MOL0     H13853   7.098   1.548   3.787 -1.7262 -2.0075  2.5541
  103MOL0     H13854   7.277   1.745   3.814  1.9360  0.0926  2.1279
  103MOL0     H13855   7.324   1.575   3.820  0.1352 -0.0387  0.4635
  103MOL0     H13856   7.305   1.500   4.140  0.6718 -0.4185  1.3058
  103MOL0     H13857   7.396   1.574   4.363  0.0565  1.9705  2.5865
  103MOL0     H13858   7.550   1.502   4.315 -3.7928 -1.1060 -0.1277
  103MOL0     H13859   7.509   1.695   4.512 -2.0486  3.4610 -0.3826
  103MOL0     H13860   7.526   1.802   4.374 -0.0438 -0.4725 -0.9169
  103MOL0     H13861   7.768   1.784   4.409 -2.0389  0.8474  0.3016
  103MOL0     H13862   7.739   1.645   4.313  1.8967  1.6175  0.7634
  103MOL0     H13863   7.749   1.664   4.624 -0.4055  0.2775  0.4700
  103MOL0     H13864   7.870   1.591   4.532 -0.7447 -1.4288  0.9526
  103MOL0     H13865   7.499   1.316   4.604  0.7346 -3.4074 -1.4507
  103MOL0     H13866   7.476   1.075   4.763  2.1689 -0.8913  0.4365
  103MOL0     H13867   7.440   1.167   4.919  0.7500  2.8089 -0.7082
  103MOL0     H13868   7.371   1.221   4.765  0.5366 -1.9646 -3.0250
  103MOL0     H13869   7.934   1.415   5.188 -2.6133 -3.4988 -1.5654
  103MOL0     H13870   7.919   1.653   5.271 -2.0985  1.9521  0.5594
  103MOL0     H13871   7.793   1.816   5.457 -0.7778  1.6576  1.4224
  103MOL0     H13872   7.893   1.850   5.311 -0.3841  1.5419 -0.3558
  103MOL0     H13873   7.881   2.037   5.423  1.0106  0.3060 -1.2374
  103MOL0     H13874   7.768   2.070   5.298  0.4053  2.7053  1.3270
  103MOL0     H13875   7.689   2.021   5.584 -1.7754  0.2925  0.5424
  103MOL0     H13876   7.594   1.953   5.461  0.2901  1.0370 -1.8206
  103MOL0     H13877   7.676   2.243   5.501 -1.1554 -0.8011  4.1735
  103MOL0     H13878   7.570   2.177   5.361  1.3309  2.3459 -0.9085
  103MOL0     H13879   7.494   2.148   5.650  0.4839  0.8845  0.1299
  103MOL0     H13880   7.399   2.126   5.493  0.6853  1.8356 -1.9336
  103MOL0     H13881   7.507   2.378   5.634  0.3164  0.2692 -1.0112
  103MOL0     H13882   7.422   2.386   5.485 -2.9973  0.5894  1.6686
  103MOL0     H13883   7.306   2.439   5.708 -0.7549  0.1874 -2.5122
  103MOL0     H13884   7.307   2.263   5.744 -1.5007 -2.2487 -1.0493
  103MOL0     H13885   7.080   2.339   5.652  1.2803  2.0083  2.3499
  103MOL0     H13886   7.169   2.205   5.579 -1.8141 -1.3315  1.6509
  103MOL0     H13887   7.497   1.663   5.198  0.0626 -0.3284 -1.8006
  103MOL0     H13888   7.522   1.409   5.126  0.6990 -2.9038  3.6247
  103MOL0     H13889   7.898   1.336   4.899  0.8771 -3.7513 -1.4608
  103MOL0     H13890   7.891   1.461   4.705 -0.7965  1.1620 -0.2470
  103MOL0     H13891   6.313   1.141   3.809  1.4083  1.2609 -0.5914
  103MOL0     H13892   6.229   0.911   3.843  0.1286 -4.2441 -0.5252
  103MOL0     H13893   6.475   0.513   4.201 -0.0906  0.2965  0.1474
  103MOL0     H13894   6.403   0.274   4.282  0.9436 -1.2816 -0.1164
  103MOL0     H13895   6.039   0.062   4.117  0.3872 -1.4575  2.2459
  103MOL0     H13896   6.184   0.072   4.004  2.6752  1.4298  0.9058
  103MOL0     H13897   6.111  -0.096   4.249  0.3935 -0.1715 -0.5940
  103MOL0     H13898   6.283  -0.079   4.197 -0.2536  0.3122  0.6347
  103MOL0     H13899   6.223  -0.177   3.970 -1.0313 -2.9696 -1.5980
  103MOL0     H13900   6.053  -0.175   4.016 -0.4100 -1.9690  1.5354
  103MOL0     H13901   6.281  -0.331   4.162  2.3496 -0.5487 -4.2471
  103MOL0     H13902   6.202  -0.409   4.033 -4.4470  0.1934 -1.5196
  103MOL0     H13903   5.963  -0.450   4.390  0.5709 -1.4625  0.9405
  103MOL0     H13904   6.098   0.301   3.978 -0.4262 -1.7591  1.2138
  103MOL0     H13905   6.163   0.502   3.916  0.8015 -0.2656 -0.0657
  104MOL0     O13906   0.157   3.460   8.728  0.6017  0.1728 -0.1285
  104MOL0     C13907   0.089   3.369   8.692 -0.3238 -0.1665 -0.7952
  104MOL0     O13908   0.138   3.255   8.638  0.5857 -0.1334 -0.7057
  104MOL0     C13909   0.272   3.246   8.630  0.0241 -0.2413 -0.8921
  104MOL0     C13910   0.358   3.189   8.739  1.1433 -0.4249  1.0355
  104MOL0     C13911   0.498   3.178   8.719 -0.0795  0.2413 -0.6980
  104MOL0     C13912   0.544   3.222   8.591 -0.8246 -0.2184 -0.1435
  104MOL0     O13913   0.678   3.211   8.554 -0.2709 -0.3657 -0.3015
  104MOL0     C13914   0.763   3.103   8.595  0.4689  0.6162  0.1398
  104MOL0     C13915   0.897   3.121   8.524  0.8036 -0.1427  0.5725
  104MOL0     C13916   1.008   3.029   8.564  0.3979 -1.9420 -0.5884
  104MOL0     C13917   0.975   2.885   8.545 -0.0774  0.4131 -0.2087
  104MOL0     C13918   0.946   2.846   8.410 -0.2393  0.5284 -0.1065
  104MOL0     C13919   0.912   2.687   8.409  0.5765  0.8487  0.6700
  104MOL0     C13920   0.858   2.644   8.274 -0.5433  0.3825  0.0774
  104MOL0     C13921   0.885   2.493   8.258  0.7576 -0.8764 -0.0026
  104MOL0     N13922   0.776   2.427   8.175 -1.0195 -1.2423 -0.8756
  104MOL0     C13923   0.671   2.370   8.233  0.1924  0.1064 -0.9287
  104MOL0     C13924   0.627   2.284   8.137  0.4348  0.1668 -0.3123
  104MOL0     C13925   0.499   2.208   8.155  0.2632 -0.1234  1.4603
  104MOL0     C13926   0.393   2.311   8.128  0.8476 -0.9441  0.0722
  104MOL0     C13927   0.260   2.244   8.146  0.6847  0.0922 -0.1112
  104MOL0     C13928   0.136   2.331   8.102 -0.3784 -0.6184 -0.1230
  104MOL0     O13929   0.135   2.466   8.141 -0.8739  0.4010 -0.4179
  104MOL0     C13930   0.018   2.539   8.168 -0.3830 -0.3429  0.1525
  104MOL0     C13931   0.039   2.662   8.220 -0.8628  0.5778  1.0541
  104MOL0     C13932  -0.059   2.752   8.261  0.1820  0.2958 -0.5887
  104MOL0     C13933  -0.019   2.884   8.330  0.6385  0.5896  0.5799
  104MOL0     C13934  -0.201   2.711   8.258  0.5479  1.3624  0.8146
  104MOL0     C13935  -0.324   2.779   8.295  0.9685 -0.0736  0.2129
  104MOL0     O13936  -0.432   2.697   8.305 -0.5923  0.5301 -0.9633
  104MOL0     C13937  -0.561   2.736   8.335  0.1729 -0.0601 -0.8697
  104MOL0     C13938  -0.639   2.638   8.398 -0.0372 -0.4999 -0.0887
  104MOL0     C13939  -0.782   2.656   8.390 -0.2619 -0.3911  0.3591
  104MOL0     C13940  -0.844   2.782   8.362  0.2725 -0.3959 -0.9613
  104MOL0     O13941  -0.982   2.799   8.368  0.2616 -0.2866  0.1443
  104MOL0     C13942  -1.032   2.906   8.455 -0.9594  0.3379 -0.4968
  104MOL0     C13943  -1.188   2.908   8.466  1.2443 -0.4133  0.0793
  104MOL0     C13944  -1.263   2.927   8.329  0.5502 -0.3990 -0.4732
  104MOL0     C13945  -1.413   2.898   8.346  0.4130  0.1649  0.7306
  104MOL0     C13946  -1.485   2.888   8.214 -0.0856  0.2357 -0.7315
  104MOL0     C13947  -1.635   2.850   8.237 -0.4837 -0.8980  1.4260
  104MOL0     C13948  -1.698   2.828   8.093 -0.8568  0.2258  0.2266
  104MOL0     C13949  -1.853   2.831   8.102 -0.2363 -0.3461 -0.0857
  104MOL0    Cl13950  -1.923   2.981   8.156 -0.4696 -0.1212 -0.1954
  104MOL0     C13951  -0.759   2.882   8.327 -0.0626  0.0388  0.7633
  104MOL0     C13952  -0.622   2.860   8.308 -0.0164 -0.8043 -1.3286
  104MOL0     O13953  -0.329   2.903   8.311 -0.2506 -0.5476  0.1633
  104MOL0     C13954  -0.219   2.587   8.191  0.1294  0.4406  0.4396
  104MOL0     C13955  -0.114   2.508   8.140  0.0059 -0.2110  0.1101
  104MOL0     N13956   0.703   2.299   8.022  0.5445 -0.3028 -0.6142
  104MOL0     N13957   0.801   2.375   8.054 -0.6089 -0.2952  0.0009
  104MOL0     C13958   0.459   3.274   8.489 -0.1835  0.5241 -0.2249
  104MOL0     C13959   0.327   3.281   8.507 -0.4157  0.6058 -0.0423
  104MOL0     C13960  -0.049   3.379   8.741 -0.6258 -0.2658  1.1083
  104MOL0     C13961  -0.095   3.476   8.826 -0.3085 -0.4294  1.0408
  104MOL0     C13962  -0.232   3.492   8.859 -0.6798  0.4315  0.3234
  104MOL0     C13963  -0.327   3.400   8.807  0.0771  0.5387 -0.8209
  104MOL0     O13964  -0.471   3.415   8.827  0.5511  0.4658 -0.0761
  104MOL0     C13965  -0.533   3.545   8.851 -0.5762  0.8537  0.4280
  104MOL0     C13966  -0.681   3.532   8.901  0.6315  0.2980 -1.0221
  104MOL0     C13967  -0.682   3.482   9.040  0.5647  0.5360  0.1072
  104MOL0     C13968  -0.820   3.465   9.100 -0.4130  1.2700  0.0357
  104MOL0     C13969  -0.801   3.435   9.237 -0.4874  0.2943 -0.0683
  104MOL0     C13970  -0.796   3.395   9.351 -0.4256  0.2920  1.3098
  104MOL0     C13971  -0.273   3.289   8.729  1.0907  0.4715 -0.3140
  104MOL0     C13972  -0.135   3.288   8.701  0.2431  0.2226  0.3482
  104MOL0     H13973   0.322   3.147   8.832  0.5181 -1.7668  0.2269
  104MOL0     H13974   0.579   3.145   8.783  1.6821  1.7167 -2.0689
  104MOL0     H13975   0.775   3.109   8.703 -0.3028  0.3188  0.2491
  104MOL0     H13976   0.710   3.015   8.556 -1.8689  3.0862 -2.8767
  104MOL0     H13977   0.886   3.133   8.416 -0.2343  1.9871  0.8638
  104MOL0     H13978   0.940   3.217   8.555 -0.2396  1.0525 -1.4268
  104MOL0     H13979   1.096   3.046   8.503 -1.5271  1.6053 -2.7268
  104MOL0     H13980   1.032   3.053   8.668 -2.1230 -0.2614 -0.2986
  104MOL0     H13981   1.053   2.822   8.588 -0.0821  1.3768  1.2579
  104MOL0     H13982   0.887   2.863   8.606  1.1583 -4.5327  0.2214
  104MOL0     H13983   0.867   2.914   8.378 -1.2704 -1.4709 -2.0913
  104MOL0     H13984   1.036   2.856   8.348 -0.6700  0.9447 -0.6845
  104MOL0     H13985   1.003   2.631   8.432 -0.1441 -0.0418  1.4017
  104MOL0     H13986   0.853   2.673   8.500  1.5173  0.7846  1.2902
  104MOL0     H13987   0.753   2.675   8.277 -0.0445  2.7354 -2.7899
  104MOL0     H13988   0.907   2.698   8.193  0.9816 -3.5992 -1.9081
  104MOL0     H13989   0.871   2.450   8.358  4.9155 -2.5230  0.0726
  104MOL0     H13990   0.984   2.476   8.214  3.4382  0.5946  4.7165
  104MOL0     H13991   0.624   2.398   8.327 -0.0584  0.4874 -1.1683
  104MOL0     H13992   0.493   2.131   8.077 -0.8404  1.9020 -0.5726
  104MOL0     H13993   0.494   2.161   8.253 -0.7605 -1.2311  0.9087
  104MOL0     H13994   0.415   2.367   8.037  1.4076 -0.7783  0.3058
  104MOL0     H13995   0.401   2.388   8.205 -0.8661 -0.1215 -0.5240
  104MOL0     H13996   0.244   2.219   8.251  1.8363  3.1337  0.8877
  104MOL0     H13997   0.266   2.146   8.098 -0.5505 -0.5533  1.0147
  104MOL0     H13998   0.043   2.289   8.142 -0.1815  0.6837  1.8869
  104MOL0     H13999   0.138   2.330   7.993  4.3579 -1.0934 -0.2201
  104MOL0     H14000   0.144   2.681   8.240  0.8966 -4.9814 -0.9738
  104MOL0     H14001  -0.041   2.956   8.250 -3.5609 -0.2258  0.7752
  104MOL0     H14002  -0.072   2.901   8.424  1.5206 -0.2264  1.2477
  104MOL0     H14003   0.089   2.897   8.346  0.8644  2.1215 -1.6827
  104MOL0     H14004  -0.589   2.549   8.434  1.4647  0.4128  0.1644
  104MOL0     H14005  -0.844   2.570   8.413 -0.4490 -0.8799 -1.7570
  104MOL0     H14006  -0.982   2.880   8.549  3.1058  3.8039 -1.3942
  104MOL0     H14007  -0.999   3.004   8.421  1.3902  0.5692  2.1005
  104MOL0     H14008  -1.202   2.807   8.506 -0.4515  0.6391  2.3492
  104MOL0     H14009  -1.221   2.980   8.541  1.1219  0.4680 -0.8049
  104MOL0     H14010  -1.228   2.862   8.248 -1.8445 -1.1743 -0.9481
  104MOL0     H14011  -1.235   3.026   8.293  0.9976 -0.7604 -1.1368
  104MOL0     H14012  -1.424   2.807   8.405  0.4154  0.3359  0.9998
  104MOL0     H14013  -1.452   2.982   8.406  2.6462  2.6078 -1.0000
  104MOL0     H14014  -1.443   2.804   8.157 -1.4025 -1.3768  0.5834
  104MOL0     H14015  -1.471   2.976   8.150 -0.2056  1.0523  0.3395
  104MOL0     H14016  -1.653   2.762   8.298  1.9999 -2.0227  0.6891
  104MOL0     H14017  -1.683   2.941   8.275  0.0485  0.2730 -0.5375
  104MOL0     H14018  -1.673   2.729   8.054 -0.6451  0.3675  0.0039
  104MOL0     H14019  -1.642   2.883   8.017  2.8760 -1.7200  1.3627
  104MOL0     H14020  -1.886   2.741   8.155 -1.0433 -0.9845 -1.6203
  104MOL0     H14021  -1.890   2.828   7.999  0.5257 -1.3131 -0.3519
  104MOL0     H14022  -0.787   2.987   8.321 -2.8691 -0.5880  1.4551
  104MOL0     H14023  -0.575   2.950   8.270 -2.4766 -0.6283 -4.3506
  104MOL0     H14024  -0.319   2.547   8.175  0.4277 -1.6631  3.1790
  104MOL0     H14025  -0.129   2.420   8.079  1.4798 -1.2906  1.2250
  104MOL0     H14026   0.496   3.312   8.394 -0.9451  0.6886 -0.4628
  104MOL0     H14027   0.270   3.314   8.420 -2.5108 -2.3629  0.0546
  104MOL0     H14028  -0.017   3.534   8.875  0.4895 -1.3871  0.9544
  104MOL0     H14029  -0.251   3.566   8.936 -0.6073 -1.2920  2.0809
  104MOL0     H14030  -0.481   3.602   8.929 -0.0752  0.5865  0.2909
  104MOL0     H14031  -0.531   3.595   8.754  2.9126  1.4037  0.6676
  104MOL0     H14032  -0.744   3.460   8.848 -3.6537  1.2522  2.2577
  104MOL0     H14033  -0.729   3.630   8.901  1.1540  0.5692 -1.9743
  104MOL0     H14034  -0.634   3.563   9.095 -0.4744  2.3110 -1.4838
  104MOL0     H14035  -0.622   3.390   9.042  0.7915  0.6973  0.7827
  104MOL0     H14036  -0.869   3.377   9.059  0.0683  1.5340 -1.1499
  104MOL0     H14037  -0.882   3.548   9.066  1.9297  1.5152 -4.3318
  104MOL0     H14038  -0.788   3.374   9.456 -0.6928  0.3875  1.3495
  104MOL0     H14039  -0.345   3.220   8.687  0.5003  0.1256  1.2136
  104MOL0     H14040  -0.105   3.201   8.643 -0.2548  0.6083 -0.4976
  105MOL0     O14041   8.620   1.027   3.513 -0.1932  0.0818 -0.2941
  105MOL0     C14042   8.645   0.909   3.497  0.2100 -0.5788  0.1551
  105MOL0     O14043   8.563   0.809   3.531  0.2157  0.5367  0.1626
  105MOL0     C14044   8.433   0.819   3.566  0.1209 -1.0245  1.0219
  105MOL0     C14045   8.402   0.757   3.688 -0.3405  0.5191 -0.0565
  105MOL0     C14046   8.273   0.773   3.751  0.6022 -0.2604  1.2052
  105MOL0     C14047   8.176   0.833   3.673 -0.5866  0.4678 -0.6317
  105MOL0     O14048   8.053   0.852   3.726 -0.8679  0.2907 -0.1328
  105MOL0     C14049   7.938   0.858   3.639 -0.7838 -0.7649  0.2605
  105MOL0     C14050   7.809   0.829   3.721  0.2500  0.3007 -0.4278
  105MOL0     C14051   7.801   0.673   3.751  0.8715 -0.0419  0.1867
  105MOL0     C14052   7.665   0.635   3.809 -0.0778  0.1370 -0.8144
  105MOL0     C14053   7.650   0.491   3.837  1.0518  0.7647 -0.5635
  105MOL0     C14054   7.538   0.461   3.944 -0.0319 -0.6938  0.6779
  105MOL0     C14055   7.391   0.496   3.904 -0.5129  0.1400  0.1970
  105MOL0     C14056   7.285   0.450   4.003  0.7265 -0.4691 -0.6341
  105MOL0     N14057   7.277   0.304   4.033 -0.3821 -0.3918 -0.7000
  105MOL0     C14058   7.254   0.262   4.164  0.4091  0.4513  0.4633
  105MOL0     C14059   7.261   0.126   4.155 -0.5065 -0.1930 -0.0363
  105MOL0     C14060   7.236   0.020   4.257 -0.2496  0.1248 -0.0542
  105MOL0     C14061   7.258   0.078   4.396 -0.7482  0.6578  0.6403
  105MOL0     C14062   7.234  -0.041   4.489  0.3871  0.1589  1.1804
  105MOL0     C14063   7.307  -0.017   4.614 -0.1467 -0.5624 -0.1032
  105MOL0     O14064   7.255   0.107   4.655  0.9609 -0.7541 -0.5295
  105MOL0     C14065   7.315   0.193   4.744 -0.3545 -0.0884 -0.3943
  105MOL0     C14066   7.448   0.215   4.747  0.0954 -0.2978  0.3079
  105MOL0     C14067   7.498   0.283   4.861 -0.4411  0.0005  0.4919
  105MOL0     C14068   7.658   0.298   4.868  0.0427 -0.3804 -0.4293
  105MOL0     C14069   7.419   0.337   4.965  0.2524  0.0743  0.4358
  105MOL0     C14070   7.473   0.428   5.066  0.8878 -0.2042 -0.2339
  105MOL0     O14071   7.419   0.405   5.193  0.3338 -0.3444  0.6371
  105MOL0     C14072   7.474   0.467   5.302  0.5111 -0.2929  0.3982
  105MOL0     C14073   7.381   0.498   5.401  0.4736 -0.0508 -0.3591
  105MOL0     C14074   7.422   0.530   5.529  0.7191 -0.2401  0.2292
  105MOL0     C14075   7.555   0.560   5.551 -1.2614  0.7728  0.0843
  105MOL0     O14076   7.595   0.617   5.671 -0.1054  0.1333 -0.7284
  105MOL0     C14077   7.703   0.542   5.737 -0.2838  0.3061 -0.8869
  105MOL0     C14078   7.723   0.602   5.876  0.1411  1.2068 -0.0021
  105MOL0     C14079   7.839   0.535   5.956 -0.1247 -1.2646  0.2518
  105MOL0     C14080   7.791   0.394   5.999  0.5320  0.8933 -0.6005
  105MOL0     C14081   7.911   0.324   6.061  0.5135 -0.4414  0.3896
  105MOL0     C14082   7.879   0.183   6.115 -0.5018 -0.1589  0.1775
  105MOL0     C14083   7.999   0.128   6.203 -0.1916 -0.6066 -0.3639
  105MOL0     C14084   7.976  -0.024   6.232 -0.6471 -0.4250 -0.6574
  105MOL0    Cl14085   7.992  -0.129   6.086  0.1193  0.2528 -0.7204
  105MOL0     C14086   7.651   0.537   5.455  0.5906  0.2767 -1.2486
  105MOL0     C14087   7.610   0.488   5.331 -0.0980  0.0905  0.1537
  105MOL0     O14088   7.556   0.513   5.033 -0.1233  0.6372 -0.5029
  105MOL0     C14089   7.283   0.324   4.956  0.9204  1.1181  0.0413
  105MOL0     C14090   7.235   0.254   4.842  0.4598 -0.4622  1.5348
  105MOL0     N14091   7.275   0.095   4.021  0.3474 -0.2305  0.5708
  105MOL0     N14092   7.286   0.197   3.947  0.4490 -0.1415  0.2931
  105MOL0     C14093   8.203   0.890   3.550 -0.0399 -0.6675  0.2070
  105MOL0     C14094   8.332   0.877   3.498  1.0275  0.5678  0.1150
  105MOL0     C14095   8.785   0.884   3.454  0.6818 -0.4906 -0.3868
  105MOL0     C14096   8.838   0.758   3.451  0.7977 -0.1614 -0.5137
  105MOL0     C14097   8.971   0.740   3.430  0.2509 -0.6094  0.3087
  105MOL0     C14098   9.064   0.834   3.407  0.4485  0.3492 -0.9452
  105MOL0     O14099   9.197   0.794   3.398 -1.1545 -0.6827  0.5041
  105MOL0     C14100   9.308   0.895   3.389 -0.6841 -0.2581 -0.4906
  105MOL0     C14101   9.438   0.819   3.371 -1.5714  0.2001 -0.1441
  105MOL0     C14102   9.446   0.730   3.248  0.9113  0.1833  0.0129
  105MOL0     C14103   9.579   0.665   3.243 -0.3949 -0.2841 -0.7800
  105MOL0     C14104   9.687   0.757   3.220 -0.3174  0.1337  0.5705
  105MOL0     C14105   9.771   0.829   3.183  1.0201 -1.2398 -0.5725
  105MOL0     C14106   9.008   0.965   3.408  0.1033  1.1624  0.3530
  105MOL0     C14107   8.870   0.993   3.432  0.7008 -0.0581  0.4889
  105MOL0     H14108   8.484   0.715   3.745 -2.9065 -0.5280  3.2056
  105MOL0     H14109   8.233   0.729   3.842 -0.9669  0.5579  0.9252
  105MOL0     H14110   7.930   0.955   3.588  2.2626  0.2912  1.5274
  105MOL0     H14111   7.943   0.778   3.565  1.7200 -1.1947  0.8111
  105MOL0     H14112   7.809   0.899   3.805  1.2261  1.2419 -1.1635
  105MOL0     H14113   7.721   0.853   3.661 -0.7047 -2.0076 -0.0445
  105MOL0     H14114   7.819   0.629   3.652  0.5073  1.0684 -0.3976
  105MOL0     H14115   7.890   0.640   3.805  2.2603  0.6472 -1.5555
  105MOL0     H14116   7.661   0.686   3.906  3.5992 -0.2073 -0.3434
  105MOL0     H14117   7.583   0.668   3.744 -2.2577  1.6066  2.4001
  105MOL0     H14118   7.633   0.427   3.750 -1.2468 -1.2597  1.2569
  105MOL0     H14119   7.743   0.460   3.887 -0.7993  0.0266  2.6943
  105MOL0     H14120   7.547   0.353   3.958  0.8660 -1.0119 -1.8431
  105MOL0     H14121   7.559   0.511   4.039 -3.0232 -0.0744  1.0871
  105MOL0     H14122   7.388   0.604   3.890  2.9531  0.0362 -3.0676
  105MOL0     H14123   7.366   0.444   3.811 -2.9682  1.8215 -0.1670
  105MOL0     H14124   7.194   0.494   3.961  0.8359  0.4523  0.0614
  105MOL0     H14125   7.314   0.501   4.095  4.0336  2.1282 -2.8625
  105MOL0     H14126   7.221   0.319   4.250  1.3818  0.6753  0.7071
  105MOL0     H14127   7.137  -0.018   4.233  0.1631  0.0072 -1.6927
  105MOL0     H14128   7.315  -0.053   4.237  0.2505  0.9940 -1.4602
  105MOL0     H14129   7.184   0.157   4.414  2.2030  3.7663 -0.0250
  105MOL0     H14130   7.355   0.125   4.413  0.2868 -1.3206  0.4189
  105MOL0     H14131   7.265  -0.138   4.448 -0.0100  1.2123 -1.8944
  105MOL0     H14132   7.128  -0.064   4.506  0.2199 -2.0454 -1.9172
  105MOL0     H14133   7.415  -0.013   4.594 -0.3028 -4.1965 -2.7500
  105MOL0     H14134   7.292  -0.095   4.689  2.4951  0.1704  1.3067
  105MOL0     H14135   7.510   0.159   4.678  2.1472 -0.8671  2.4948
  105MOL0     H14136   7.709   0.241   4.789  0.1635  1.1744 -1.5212
  105MOL0     H14137   7.678   0.402   4.840  1.1023 -0.4198  0.1213
  105MOL0     H14138   7.692   0.265   4.967  2.2589  0.1741 -0.9570
  105MOL0     H14139   7.276   0.475   5.392  0.3368  0.0946  0.6833
  105MOL0     H14140   7.345   0.534   5.605  2.3321 -3.2771  2.2152
  105MOL0     H14141   7.680   0.435   5.730 -0.3459  0.3811 -2.0601
  105MOL0     H14142   7.795   0.560   5.681 -0.4038  2.5054 -0.4555
  105MOL0     H14143   7.743   0.709   5.880 -1.9227  1.6152  1.3315
  105MOL0     H14144   7.628   0.578   5.926 -2.1402  3.7584 -2.7279
  105MOL0     H14145   7.858   0.594   6.046  0.2899 -1.1409  0.0829
  105MOL0     H14146   7.930   0.528   5.895 -1.4956 -0.1733 -2.0821
  105MOL0     H14147   7.713   0.398   6.076 -1.1018  0.7523 -2.1708
  105MOL0     H14148   7.743   0.331   5.923  0.4045 -2.7318  2.2437
  105MOL0     H14149   7.936   0.383   6.149  1.4940  2.0992 -1.4747
  105MOL0     H14150   7.994   0.327   5.990 -1.7193 -2.4719 -2.5986
  105MOL0     H14151   7.785   0.183   6.170 -1.8365 -2.4968 -1.8784
  105MOL0     H14152   7.877   0.119   6.026  1.6809  1.4851 -1.1469
  105MOL0     H14153   8.003   0.191   6.293 -1.6456  0.5534 -1.0678
  105MOL0     H14154   8.089   0.139   6.142 -1.4324  0.0240 -2.1759
  105MOL0     H14155   7.874  -0.041   6.268 -0.9510  2.7407  0.3245
  105MOL0     H14156   8.048  -0.073   6.299 -0.3547 -4.3082 -3.4989
  105MOL0     H14157   7.755   0.553   5.481  0.2150 -2.9813  3.4074
  105MOL0     H14158   7.689   0.445   5.270 -0.0912 -1.5252  1.2293
  105MOL0     H14159   7.213   0.380   5.017 -1.4103 -1.7845  0.2443
  105MOL0     H14160   7.132   0.256   4.808  1.1444  0.7171 -0.6540
  105MOL0     H14161   8.143   0.958   3.490  1.9432 -0.0294 -1.1571
  105MOL0     H14162   8.359   0.910   3.399  0.2911  1.3813  0.1826
  105MOL0     H14163   8.773   0.675   3.478  1.8125  0.1329  3.5281
  105MOL0     H14164   9.012   0.641   3.444 -0.4235 -1.1959 -1.5713
  105MOL0     H14165   9.291   0.959   3.301 -1.4125 -0.6994 -0.6717
  105MOL0     H14166   9.309   0.947   3.485 -0.4014  0.7492 -1.0175
  105MOL0     H14167   9.442   0.762   3.464  0.3229  3.2481  1.8511
  105MOL0     H14168   9.518   0.892   3.359  0.8748 -1.9200  1.9928
  105MOL0     H14169   9.440   0.798   3.163  1.5083  2.1588  1.4928
  105MOL0     H14170   9.365   0.656   3.248  0.6391  0.4000 -2.4268
  105MOL0     H14171   9.572   0.593   3.161  0.9841  0.8110 -1.9174
  105MOL0     H14172   9.598   0.620   3.340 -1.5812 -0.1451 -0.4678
  105MOL0     H14173   9.832   0.907   3.142  2.3745  0.2704  3.7679
  105MOL0     H14174   9.078   1.045   3.384  3.6564 -2.0083 -0.9276
  105MOL0     H14175   8.831   1.093   3.414 -1.0864 -0.7888 -0.0289
  106MOL0     O14176   5.140  10.039   0.972  0.2167  0.1802 -0.4138
  106MOL0     C14177   5.256  10.020   0.945  0.3977 -0.2230 -0.7601
  106MOL0     O14178   5.345   9.957   1.022  0.2803 -0.5260  0.6973
  106MOL0     C14179   5.311   9.902   1.137  0.8558  0.4314 -0.6165
  106MOL0     C14180   5.186   9.840   1.174  0.6386 -0.3031  0.1936
  106MOL0     C14181   5.160   9.798   1.307  0.6019 -0.3493  0.7474
  106MOL0     C14182   5.256   9.809   1.406 -0.5179 -0.1570  0.3923
  106MOL0     O14183   5.242   9.760   1.538  0.2228 -0.3760  0.0023
  106MOL0     C14184   5.108   9.752   1.587  0.6699  0.0447  0.3394
  106MOL0     C14185   5.095   9.787   1.742  0.5696  0.1514  0.0342
  106MOL0     C14186   5.132   9.930   1.758 -0.1993 -0.8500 -0.7218
  106MOL0     C14187   5.092   9.972   1.910  0.0084  0.6255  0.1781
  106MOL0     C14188   5.139  10.115   1.936  1.0513 -0.8764  0.6664
  106MOL0     C14189   5.082  10.171   2.065  0.3874  0.2412  0.1986
  106MOL0     C14190   4.930  10.164   2.067  0.2869 -0.6436 -0.4057
  106MOL0     C14191   4.864  10.245   1.948 -0.0526 -0.1363  0.2872
  106MOL0     N14192   4.723  10.269   1.960 -0.9389 -0.5363  0.3402
  106MOL0     C14193   4.650  10.335   1.858  0.7145 -0.1390 -0.7418
  106MOL0     C14194   4.526  10.332   1.907  0.3372  0.8333 -1.1650
  106MOL0     C14195   4.406  10.418   1.859 -0.5467  0.0251 -0.3286
  106MOL0     C14196   4.276  10.337   1.859  0.5462 -0.4124  0.2268
  106MOL0     C14197   4.267  10.235   1.746  0.4485 -0.0590  0.3895
  106MOL0     C14198   4.133  10.186   1.705 -0.2140  0.4592 -0.6592
  106MOL0     O14199   4.123  10.182   1.563  0.0888 -0.3262 -0.7777
  106MOL0     C14200   4.209  10.094   1.499  0.6767  0.1144 -0.1495
  106MOL0     C14201   4.230  10.121   1.361 -0.2508  0.2856  0.5736
  106MOL0     C14202   4.296  10.032   1.280 -0.9932 -0.2515 -0.6867
  106MOL0     C14203   4.312  10.059   1.130  0.3143  0.4471  0.6509
  106MOL0     C14204   4.377   9.933   1.338  0.1510  0.1497 -0.1864
  106MOL0     C14205   4.467   9.834   1.271  0.6824  0.0096 -0.1635
  106MOL0     O14206   4.577   9.783   1.339  0.4957 -0.3870 -0.2704
  106MOL0     C14207   4.680   9.709   1.280  0.0144  0.3810  0.0214
  106MOL0     C14208   4.739   9.746   1.162  0.2105  0.3250  0.2110
  106MOL0     C14209   4.839   9.667   1.109 -0.2895  0.2168 -0.4541
  106MOL0     C14210   4.915   9.572   1.185  0.4611 -1.6334  0.3845
  106MOL0     O14211   5.027   9.496   1.143  0.2800 -0.0603 -0.2555
  106MOL0     C14212   4.998   9.408   1.024  0.1828  0.1525 -0.5017
  106MOL0     C14213   5.112   9.300   0.997  0.0868 -0.3678 -0.3589
  106MOL0     C14214   5.252   9.357   0.988 -0.0627 -0.2861  0.4192
  106MOL0     C14215   5.285   9.440   0.863  0.7387  0.5783  0.2667
  106MOL0     C14216   5.413   9.522   0.883 -0.3392 -0.9104  0.4195
  106MOL0     C14217   5.465   9.564   0.743  0.9972  0.3877  0.4430
  106MOL0     C14218   5.593   9.642   0.745  0.3424  0.4622 -1.1059
  106MOL0     C14219   5.639   9.650   0.602 -0.0452 -0.8028 -0.1313
  106MOL0    Cl14220   5.766   9.774   0.595 -0.2264 -0.0883 -0.0881
  106MOL0     C14221   4.861   9.539   1.310 -1.2348 -0.0492  0.0127
  106MOL0     C14222   4.737   9.598   1.351 -0.2086 -0.6061  0.3154
  106MOL0     O14223   4.426   9.789   1.168  0.1939 -0.1408 -0.1593
  106MOL0     C14224   4.367   9.924   1.472  0.0159  0.2575 -1.3081
  106MOL0     C14225   4.286   9.996   1.558 -0.0988  0.3872 -0.2277
  106MOL0     N14226   4.514  10.268   2.025  0.0875  0.0386 -0.5514
  106MOL0     N14227   4.636  10.233   2.063 -0.2695  0.3363  0.8832
  106MOL0     C14228   5.379   9.857   1.368 -0.7136  0.0077 -0.5901
  106MOL0     C14229   5.407   9.918   1.246  0.7980  0.8818  1.0278
  106MOL0     C14230   5.304  10.079   0.811 -0.2202  0.0892  0.1828
  106MOL0     C14231   5.427  10.039   0.755 -1.3980  0.9295 -0.3785
  106MOL0     C14232   5.453  10.059   0.621  0.0661 -0.5034 -0.1994
  106MOL0     C14233   5.371  10.126   0.534 -0.0368 -0.0522  0.6443
  106MOL0     O14234   5.418  10.136   0.403  0.1924 -0.9418 -0.7605
  106MOL0     C14235   5.342  10.236   0.325  0.2663  0.1049 -1.0964
  106MOL0     C14236   5.411  10.211   0.189  0.6103 -0.8905  0.2773
  106MOL0     C14237   5.555  10.271   0.155  0.5099 -0.6067  0.2078
  106MOL0     C14238   5.580  10.407   0.228 -0.2884 -0.4125 -0.1151
  106MOL0     C14239   5.499  10.518   0.178 -0.5856 -0.0741  0.7453
  106MOL0     C14240   5.440  10.625   0.149  0.0815 -0.7483  0.1867
  106MOL0     C14241   5.255  10.181   0.593  0.2900 -0.2376  0.5975
  106MOL0     C14242   5.225  10.153   0.725  0.1688  0.4012 -0.0376
  106MOL0     H14243   5.109   9.821   1.100 -0.3866 -2.6793  1.7710
  106MOL0     H14244   5.059   9.764   1.329  0.4085 -1.8390 -1.9561
  106MOL0     H14245   5.054   9.826   1.528  2.9265  0.3737 -1.4674
  106MOL0     H14246   5.067   9.654   1.560  0.3857  0.0552  0.7259
  106MOL0     H14247   4.990   9.771   1.769  0.3008  1.0738 -0.4206
  106MOL0     H14248   5.146   9.709   1.799 -0.3562 -1.7019 -1.5486
  106MOL0     H14249   5.239   9.949   1.759 -0.0150 -1.7907  1.1699
  106MOL0     H14250   5.067   9.994   1.697 -0.4345  0.1158  0.4900
  106MOL0     H14251   4.984   9.963   1.919  0.2700 -0.8778  2.4445
  106MOL0     H14252   5.144   9.905   1.979 -0.7681  0.7623  0.9073
  106MOL0     H14253   5.246  10.119   1.955  0.8621 -0.5703  1.7776
  106MOL0     H14254   5.114  10.172   1.846  1.8366 -1.8308 -0.1683
  106MOL0     H14255   5.121  10.106   2.144  0.9188  2.0720  1.4990
  106MOL0     H14256   5.102  10.277   2.081 -0.5615  0.1334  2.5962
  106MOL0     H14257   4.906  10.058   2.060  2.1982 -1.0066 -4.5863
  106MOL0     H14258   4.893  10.210   2.159  1.1453  0.5840 -0.6405
  106MOL0     H14259   4.879  10.188   1.855 -2.9597 -1.7332  0.6981
  106MOL0     H14260   4.913  10.341   1.931 -0.1283 -0.0767  0.4048
  106MOL0     H14261   4.671  10.392   1.768 -1.4632  2.4289  0.2422
  106MOL0     H14262   4.401  10.507   1.921 -1.0940 -0.7488  0.7854
  106MOL0     H14263   4.434  10.449   1.758  2.9439 -3.4635 -0.7087
  106MOL0     H14264   4.202  10.417   1.847 -0.2744 -1.4899 -2.9137
  106MOL0     H14265   4.263  10.292   1.958 -0.0745 -0.0266  0.3280
  106MOL0     H14266   4.325  10.146   1.771 -1.7246 -1.6126  0.2147
  106MOL0     H14267   4.314  10.289   1.663 -1.4940  1.8995  0.4540
  106MOL0     H14268   4.053  10.250   1.744 -3.8000 -1.3547 -4.2174
  106MOL0     H14269   4.107  10.092   1.754 -4.3086  2.1834  0.9413
  106MOL0     H14270   4.174  10.205   1.322 -1.0069  0.0297  1.0766
  106MOL0     H14271   4.270  10.158   1.105  0.9690  0.8446  1.1025
  106MOL0     H14272   4.414  10.056   1.090  0.9306 -1.6899  2.1872
  106MOL0     H14273   4.246   9.990   1.076 -2.0699  2.2674  1.0372
  106MOL0     H14274   4.686   9.822   1.106  3.7582  1.9715 -1.2054
  106MOL0     H14275   4.875   9.707   1.015 -0.0525  1.9096  0.3165
  106MOL0     H14276   4.905   9.357   1.047 -1.5103  3.2569  0.1604
  106MOL0     H14277   4.978   9.476   0.941 -1.6598 -0.3862 -0.5291
  106MOL0     H14278   5.105   9.235   1.084  0.4878  0.5676  0.3967
  106MOL0     H14279   5.091   9.244   0.906 -0.4832 -1.9605  0.7208
  106MOL0     H14280   5.321   9.273   0.974 -0.3344 -0.3260 -0.7406
  106MOL0     H14281   5.267   9.415   1.079 -0.8763  3.8682 -1.8485
  106MOL0     H14282   5.315   9.370   0.785  0.1939  0.5951  0.0323
  106MOL0     H14283   5.197   9.497   0.831 -0.8557 -1.4296  0.8281
  106MOL0     H14284   5.497   9.465   0.925  0.8372  0.0560 -0.5172
  106MOL0     H14285   5.396   9.614   0.939  0.1913  0.1807 -1.1309
  106MOL0     H14286   5.475   9.483   0.670  0.9904 -0.5713  1.4869
  106MOL0     H14287   5.395   9.631   0.692 -0.9267 -1.0323  1.0884
  106MOL0     H14288   5.661   9.588   0.811 -1.7710 -1.6685 -0.5648
  106MOL0     H14289   5.579   9.741   0.790  2.0040  0.3493 -0.2665
  106MOL0     H14290   5.562   9.678   0.530 -0.2045 -0.9862 -0.0319
  106MOL0     H14291   5.675   9.549   0.579  0.6592 -0.7381  0.6244
  106MOL0     H14292   4.921   9.468   1.365  1.2668  2.7310  1.1449
  106MOL0     H14293   4.683   9.562   1.438 -0.4406  2.1479  1.4139
  106MOL0     H14294   4.421   9.861   1.542 -0.7660  3.9491  3.1171
  106MOL0     H14295   4.287   9.966   1.662 -0.4647 -1.5234 -0.7262
  106MOL0     H14296   5.459   9.868   1.441  0.8636  0.2585 -2.2645
  106MOL0     H14297   5.508   9.956   1.234  1.7147 -1.5354  0.5275
  106MOL0     H14298   5.494   9.978   0.813 -0.7558  0.8350 -1.2026
  106MOL0     H14299   5.550  10.022   0.589  1.8132  2.2825  1.4788
  106MOL0     H14300   5.235  10.218   0.318 -0.7540  3.3004  2.6819
  106MOL0     H14301   5.349  10.339   0.361 -0.0250 -0.1870 -0.2001
  106MOL0     H14302   5.336  10.250   0.119 -0.8867 -1.1445  1.6696
  106MOL0     H14303   5.407  10.104   0.167  0.1373 -0.7999 -0.1085
  106MOL0     H14304   5.575  10.274   0.048  0.0294  1.3957  0.1416
  106MOL0     H14305   5.629  10.204   0.200 -2.5333 -3.2749  1.6046
  106MOL0     H14306   5.688  10.414   0.214 -0.1475  0.0564  1.0801
  106MOL0     H14307   5.562  10.416   0.336 -3.0290  2.7011 -0.6675
  106MOL0     H14308   5.389  10.718   0.132  1.3713 -0.2494 -1.1813
  106MOL0     H14309   5.190  10.234   0.525 -1.6873 -2.5652  0.5288
  106MOL0     H14310   5.130  10.195   0.754  0.6404  2.2137 -0.9404
  107MOL0     O14311   3.008  11.132   2.623 -0.7561 -0.2236  0.0125
  107MOL0     C14312   2.968  11.208   2.541  0.3846  0.2132 -0.4353
  107MOL0     O14313   2.969  11.188   2.404 -0.2563 -0.1946  0.0070
  107MOL0     C14314   2.991  11.070   2.339 -0.0476 -0.4060 -0.4544
  107MOL0     C14315   3.056  10.954   2.393 -0.6874 -0.0722 -0.4423
  107MOL0     C14316   3.082  10.836   2.310 -0.0916 -0.4764  0.2024
  107MOL0     C14317   3.052  10.834   2.173  0.2539  0.0627  0.0839
  107MOL0     O14318   3.087  10.725   2.094 -0.2454  0.1470  0.0524
  107MOL0     C14319   3.078  10.734   1.947 -0.5555 -0.6739 -0.3509
  107MOL0     C14320   3.096  10.604   1.874 -1.0848 -0.1713  0.2807
  107MOL0     C14321   2.986  10.494   1.904 -0.3419 -0.8772  0.0985
  107MOL0     C14322   2.851  10.533   1.871  0.2509  0.4173  0.2504
  107MOL0     C14323   2.752  10.411   1.874  0.7273  0.4179  0.7434
  107MOL0     C14324   2.610  10.429   1.799 -1.1632  1.2302 -0.4681
  107MOL0     C14325   2.536  10.534   1.879  0.6830 -0.1538 -0.3584
  107MOL0     C14326   2.398  10.557   1.832  0.4106 -0.7075  0.2357
  107MOL0     N14327   2.306  10.442   1.848  0.5887 -0.4629 -0.1869
  107MOL0     C14328   2.278  10.375   1.962 -1.4084 -0.1152 -1.3227
  107MOL0     C14329   2.186  10.285   1.923  0.2134 -0.4426 -0.8238
  107MOL0     C14330   2.120  10.195   2.023 -0.2411  0.9069 -0.3500
  107MOL0     C14331   2.214  10.096   2.092  0.0336 -0.6361 -0.2712
  107MOL0     C14332   2.263   9.993   1.983  0.1161 -0.0688 -0.1549
  107MOL0     C14333   2.365   9.879   2.037  0.7433 -0.6441  0.0279
  107MOL0     O14334   2.391   9.814   1.919  0.2285  0.6838 -0.2222
  107MOL0     C14335   2.298   9.723   1.882 -0.5253  0.7916  0.6161
  107MOL0     C14336   2.178   9.682   1.943 -0.5970  0.6997 -0.3064
  107MOL0     C14337   2.112   9.569   1.905  0.9044  0.3285  0.1839
  107MOL0     C14338   2.002   9.510   1.991 -0.7988  0.2498 -0.8736
  107MOL0     C14339   2.160   9.503   1.797  0.7905  0.5580 -0.0906
  107MOL0     C14340   2.086   9.383   1.749  0.4433 -0.5544  0.1889
  107MOL0     O14341   2.127   9.248   1.743  0.0909  0.2817 -0.5296
  107MOL0     C14342   2.263   9.240   1.768 -0.0902  0.1246 -0.5304
  107MOL0     C14343   2.335   9.193   1.659  0.2113 -0.7684 -0.0734
  107MOL0     C14344   2.464   9.143   1.686 -0.5904  0.1273  0.8458
  107MOL0     C14345   2.523   9.142   1.813 -0.4799 -0.1922 -0.1014
  107MOL0     O14346   2.645   9.094   1.835  0.3072  0.1960  0.5284
  107MOL0     C14347   2.670   8.963   1.786 -0.8331  0.6572 -0.0353
  107MOL0     C14348   2.697   8.862   1.903  0.6123 -0.3823  0.2475
  107MOL0     C14349   2.584   8.804   1.977 -0.0869  0.1483 -0.2983
  107MOL0     C14350   2.465   8.785   1.884 -0.6649 -0.2781 -0.1081
  107MOL0     C14351   2.387   8.669   1.931  0.0620  0.2588 -0.1365
  107MOL0     C14352   2.233   8.670   1.887 -0.6535  0.4027 -0.1172
  107MOL0     C14353   2.156   8.757   1.990  0.4687 -0.3558  0.9061
  107MOL0     C14354   2.019   8.804   1.937  0.5878 -0.2412 -0.1276
  107MOL0    Cl14355   1.952   8.910   2.059 -0.0975  0.1973 -0.2394
  107MOL0     C14356   2.448   9.181   1.924 -0.2337 -0.8058 -1.6022
  107MOL0     C14357   2.318   9.235   1.899  0.4372  0.5166  0.1604
  107MOL0     O14358   1.977   9.415   1.700 -1.3584 -0.1040 -0.5956
  107MOL0     C14359   2.247   9.551   1.713 -1.3127 -1.1134  0.8855
  107MOL0     C14360   2.326   9.663   1.759 -0.9094  0.6274 -0.8856
  107MOL0     N14361   2.170  10.285   1.788  0.6835 -0.1361 -0.2175
  107MOL0     N14362   2.242  10.383   1.742  0.8861  0.3691 -0.3234
  107MOL0     C14363   2.989  10.956   2.130 -0.2239 -0.3121 -0.8786
  107MOL0     C14364   2.963  11.067   2.204  0.3623 -0.6765 -0.7263
  107MOL0     C14365   2.912  11.344   2.582 -0.0039  0.0164  0.2328
  107MOL0     C14366   2.800  11.391   2.512  0.0675  0.2960  0.2250
  107MOL0     C14367   2.743  11.510   2.551 -0.2011  0.0962 -0.2225
  107MOL0     C14368   2.778  11.566   2.671 -0.0329 -0.7284 -0.6954
  107MOL0     O14369   2.699  11.676   2.709 -0.8693  0.2882 -0.4767
  107MOL0     C14370   2.732  11.771   2.806  0.7702  0.3505 -0.8948
  107MOL0     C14371   2.825  11.885   2.749  0.4867  0.6464 -0.0022
  107MOL0     C14372   2.879  11.985   2.852  0.5150  0.4048  0.1714
  107MOL0     C14373   2.761  12.038   2.942 -0.4747 -0.3260  0.4940
  107MOL0     C14374   2.662  12.124   2.874 -0.0134  1.0417 -0.7553
  107MOL0     C14375   2.574  12.197   2.831 -0.7649  0.4621  0.9694
  107MOL0     C14376   2.890  11.523   2.746 -0.6040  1.2537  0.4906
  107MOL0     C14377   2.962  11.417   2.694 -0.4014 -0.3663 -0.4311
  107MOL0     H14378   3.095  10.954   2.495 -1.6433 -0.0918 -0.0705
  107MOL0     H14379   3.142  10.761   2.360  2.7985  2.4727  1.5092
  107MOL0     H14380   2.982  10.777   1.915 -0.5600 -0.2823  0.1644
  107MOL0     H14381   3.153  10.808   1.916 -1.1930  1.3240  2.4123
  107MOL0     H14382   3.101  10.628   1.767 -1.2898  0.8492  0.4864
  107MOL0     H14383   3.197  10.569   1.897 -0.4510 -1.6905 -3.8679
  107MOL0     H14384   3.010  10.411   1.836 -3.4239  0.0760 -2.4086
  107MOL0     H14385   2.991  10.464   2.009 -1.6896 -2.5646 -0.2687
  107MOL0     H14386   2.812  10.626   1.914  0.2096  1.3827 -1.7715
  107MOL0     H14387   2.851  10.573   1.769  1.4689  0.9527  0.4368
  107MOL0     H14388   2.802  10.326   1.826 -0.1875 -0.3872  1.1835
  107MOL0     H14389   2.732  10.376   1.975 -0.4685 -0.9031  0.0959
  107MOL0     H14390   2.606  10.429   1.690 -3.5244 -0.5254 -0.4783
  107MOL0     H14391   2.549  10.338   1.811 -3.0868  2.4668 -0.3699
  107MOL0     H14392   2.547  10.518   1.987  3.9937 -1.2768 -0.7243
  107MOL0     H14393   2.583  10.630   1.856 -0.1443  0.3621  0.0893
  107MOL0     H14394   2.403  10.580   1.725  1.2340  1.1364  0.6338
  107MOL0     H14395   2.354  10.641   1.887 -2.6304 -0.6847 -1.9347
  107MOL0     H14396   2.327  10.388   2.057 -1.2128  1.2447 -1.5868
  107MOL0     H14397   2.075  10.256   2.102 -1.4305  1.4678 -1.4320
  107MOL0     H14398   2.038  10.139   1.978  0.2640 -1.8258  1.8198
  107MOL0     H14399   2.152  10.032   2.157 -0.3282 -4.4474 -3.9281
  107MOL0     H14400   2.295  10.147   2.145 -0.8730 -1.3730  1.9760
  107MOL0     H14401   2.313  10.045   1.901  2.4539  0.4033  1.4642
  107MOL0     H14402   2.167   9.952   1.951 -1.6401  0.7693  3.5550
  107MOL0     H14403   2.330   9.827   2.127 -0.2438 -0.9139 -0.4986
  107MOL0     H14404   2.457   9.932   2.064  0.2456  0.7962 -0.9832
  107MOL0     H14405   2.149   9.720   2.040  1.9257  2.5111 -0.1745
  107MOL0     H14406   1.975   9.583   2.067 -0.5973 -1.2297  0.6896
  107MOL0     H14407   1.912   9.499   1.930  0.8872 -0.8199 -3.3563
  107MOL0     H14408   2.023   9.420   2.050  2.6919  0.8843 -0.9354
  107MOL0     H14409   2.295   9.199   1.559  1.8248  0.4632 -0.6950
  107MOL0     H14410   2.525   9.102   1.607  0.5718  3.1093  0.0737
  107MOL0     H14411   2.614   8.911   1.707 -0.8266 -0.3907  0.6291
  107MOL0     H14412   2.757   8.981   1.723  0.3519 -1.3545  0.9615
  107MOL0     H14413   2.766   8.787   1.863 -0.7343 -0.6065 -1.8040
  107MOL0     H14414   2.759   8.911   1.979 -1.4631  2.2973  0.3639
  107MOL0     H14415   2.558   8.875   2.057 -0.3608  2.1347 -2.0557
  107MOL0     H14416   2.617   8.706   2.011 -0.6088 -0.1194 -0.5582
  107MOL0     H14417   2.401   8.874   1.888  0.5858  0.6292  0.4799
  107MOL0     H14418   2.499   8.759   1.783 -1.9600 -1.8111 -0.1768
  107MOL0     H14419   2.390   8.640   2.036 -3.4218 -1.0542 -0.2731
  107MOL0     H14420   2.418   8.591   1.860 -2.0915 -0.8386  0.0512
  107MOL0     H14421   2.221   8.719   1.790 -4.7818 -1.5479 -0.8209
  107MOL0     H14422   2.212   8.563   1.877  1.3348 -0.3826  2.9222
  107MOL0     H14423   2.217   8.838   2.030 -1.2774  1.0494  0.8204
  107MOL0     H14424   2.141   8.689   2.074 -1.0783 -1.5337 -0.2702
  107MOL0     H14425   1.949   8.721   1.922 -2.5180  2.3406 -1.0557
  107MOL0     H14426   2.023   8.870   1.850 -4.8646  3.0727  1.6540
  107MOL0     H14427   2.499   9.177   2.020 -1.4861 -2.2307 -0.9581
  107MOL0     H14428   2.254   9.267   1.980 -1.0905  0.2512 -0.8902
  107MOL0     H14429   2.277   9.507   1.619 -1.8000  0.3625  0.0113
  107MOL0     H14430   2.419   9.686   1.710  0.3752 -2.3509 -0.0532
  107MOL0     H14431   2.951  10.970   2.030 -0.7291 -1.2111 -0.8254
  107MOL0     H14432   2.915  11.155   2.160  2.7665 -0.0277 -2.2354
  107MOL0     H14433   2.746  11.354   2.425 -0.2358  1.3243 -0.0440
  107MOL0     H14434   2.654  11.554   2.506 -0.5096 -2.3117 -2.1549
  107MOL0     H14435   2.630  11.808   2.825  0.2244 -1.4172 -0.1598
  107MOL0     H14436   2.765  11.723   2.899 -1.9818  2.9894  1.7046
  107MOL0     H14437   2.765  11.951   2.686 -1.7350  0.5055  1.8252
  107MOL0     H14438   2.913  11.833   2.709  0.1953 -0.8857  1.2334
  107MOL0     H14439   2.921  12.070   2.799 -1.6850  0.6495 -1.3645
  107MOL0     H14440   2.957  11.934   2.909  0.0220  0.3194  0.7800
  107MOL0     H14441   2.806  12.105   3.016  0.9487  1.9068 -2.1890
  107MOL0     H14442   2.720  11.955   3.000 -2.2861  1.4227  1.8582
  107MOL0     H14443   2.514  12.276   2.790 -2.2843 -1.5412 -0.9436
  107MOL0     H14444   2.917  11.572   2.839  0.0988  4.4413 -1.2454
  107MOL0     H14445   3.043  11.371   2.749  1.6152  1.5940 -1.5975
  108MOL0     O14446   5.254   6.779   4.717 -0.3272  0.0882 -0.6143
  108MOL0     C14447   5.341   6.696   4.703  0.9579  0.2680  0.4992
  108MOL0     O14448   5.454   6.690   4.777  0.1865  0.7343 -0.3495
  108MOL0     C14449   5.472   6.763   4.891 -0.4394 -0.2049 -0.5118
  108MOL0     C14450   5.601   6.770   4.932 -0.4745 -0.0613 -0.0062
  108MOL0     C14451   5.632   6.843   5.050  0.1971  1.7332 -0.6944
  108MOL0     C14452   5.536   6.910   5.132  0.3854  0.8972 -0.5667
  108MOL0     O14453   5.590   6.989   5.244 -0.1831  0.0248  0.0877
  108MOL0     C14454   5.493   7.083   5.299 -0.5659  0.2515  0.4242
  108MOL0     C14455   5.521   7.177   5.414 -0.3400 -0.0553  0.8500
  108MOL0     C14456   5.625   7.280   5.398  0.2011 -0.3255  0.0573
  108MOL0     C14457   5.766   7.234   5.446 -1.3749  0.0396  0.2542
  108MOL0     C14458   5.883   7.338   5.427 -0.0384 -0.0613  0.5343
  108MOL0     C14459   6.012   7.307   5.507 -0.7364  1.0072  0.1770
  108MOL0     C14460   6.118   7.410   5.484 -0.1915 -0.8218 -1.6439
  108MOL0     C14461   6.236   7.371   5.588  0.3189  1.4267  0.0224
  108MOL0     N14462   6.338   7.469   5.586  0.5298 -0.2622  0.4002
  108MOL0     C14463   6.414   7.486   5.473  0.2589 -0.4619  0.0653
  108MOL0     C14464   6.468   7.606   5.489 -0.3193 -0.4796 -0.7116
  108MOL0     C14465   6.541   7.685   5.383 -0.4951 -0.5507 -0.7975
  108MOL0     C14466   6.450   7.769   5.286 -0.0359 -1.0581  0.0775
  108MOL0     C14467   6.533   7.855   5.191  0.6664 -0.5025  1.2472
  108MOL0     C14468   6.507   8.008   5.188 -0.5659  0.8553  0.6995
  108MOL0     O14469   6.364   8.029   5.185 -0.1158 -0.2963 -0.5379
  108MOL0     C14470   6.311   8.084   5.076 -0.0283 -0.7869 -0.0218
  108MOL0     C14471   6.361   8.098   4.949 -0.5231 -0.5446 -0.1904
  108MOL0     C14472   6.288   8.150   4.847 -0.2861 -0.7245  0.4467
  108MOL0     C14473   6.363   8.175   4.715 -0.1170 -0.2041  0.0703
  108MOL0     C14474   6.161   8.204   4.871  0.7817  0.8164 -0.9002
  108MOL0     C14475   6.088   8.253   4.753  0.5823  0.6376  1.1482
  108MOL0     O14476   6.087   8.175   4.632 -0.1215  0.5248  0.0617
  108MOL0     C14477   5.987   8.207   4.542  0.2972  1.2451  0.0856
  108MOL0     C14478   5.859   8.167   4.565  0.6004  1.1551  0.7251
  108MOL0     C14479   5.748   8.193   4.477 -0.5545  0.0379  0.3874
  108MOL0     C14480   5.774   8.239   4.350  0.2030  0.3680 -0.0467
  108MOL0     O14481   5.683   8.262   4.252 -0.5368 -0.5775  0.2496
  108MOL0     C14482   5.550   8.329   4.291 -1.1198 -0.0872  0.6618
  108MOL0     C14483   5.431   8.247   4.267  0.5522  0.0892  0.2675
  108MOL0     C14484   5.314   8.342   4.278 -0.2545 -0.0734  0.2284
  108MOL0     C14485   5.176   8.283   4.232  0.2513 -0.3214  0.1818
  108MOL0     C14486   5.059   8.353   4.312 -0.0777 -0.2719 -0.2541
  108MOL0     C14487   4.922   8.266   4.302  0.5658 -0.3336 -0.4688
  108MOL0     C14488   4.860   8.278   4.162  0.8278  0.2783 -0.1603
  108MOL0     C14489   4.706   8.253   4.167  0.4976  0.0596 -0.2205
  108MOL0    Cl14490   4.615   8.310   4.025 -0.4358 -0.1248  0.0708
  108MOL0     C14491   5.912   8.281   4.323 -0.3546  0.0405  0.2175
  108MOL0     C14492   6.018   8.276   4.424 -0.1459  1.2089  0.0809
  108MOL0     O14493   6.020   8.348   4.767 -0.3619  0.6232 -0.5137
  108MOL0     C14494   6.104   8.199   5.000  0.3785 -0.8058  0.7109
  108MOL0     C14495   6.183   8.133   5.093  0.0509  0.3234 -0.0987
  108MOL0     N14496   6.434   7.655   5.620 -0.1464  0.5564 -0.2681
  108MOL0     N14497   6.356   7.568   5.676  0.7033  0.6941 -0.0073
  108MOL0     C14498   5.409   6.903   5.082  0.1239 -0.2132 -0.7502
  108MOL0     C14499   5.376   6.814   4.969  0.4236 -0.8226 -0.2379
  108MOL0     C14500   5.325   6.592   4.599  0.7156  0.4743 -0.4223
  108MOL0     C14501   5.199   6.537   4.564 -0.4550 -0.2665  0.5505
  108MOL0     C14502   5.184   6.435   4.465 -0.2657  0.9811 -0.6585
  108MOL0     C14503   5.287   6.367   4.407 -0.6175 -0.7220  0.2509
  108MOL0     O14504   5.263   6.266   4.315 -0.5227 -0.3564  0.6064
  108MOL0     C14505   5.135   6.243   4.246 -0.3174 -0.0047  0.0139
  108MOL0     C14506   5.140   6.113   4.148 -0.3013 -1.1388 -0.4363
  108MOL0     C14507   5.003   6.080   4.098 -0.5158  0.1182 -0.0588
  108MOL0     C14508   5.005   5.943   4.025 -1.1177 -0.5774 -0.3047
  108MOL0     C14509   5.087   5.952   3.904  0.0706  0.9900 -0.2169
  108MOL0     C14510   5.166   5.982   3.817  0.3694 -0.0813  0.8782
  108MOL0     C14511   5.412   6.415   4.448  0.0372  0.1344  0.5650
  108MOL0     C14512   5.433   6.528   4.524 -0.2626 -0.7906 -0.3463
  108MOL0     H14513   5.688   6.736   4.876  1.3103  4.8011 -0.7404
  108MOL0     H14514   5.733   6.853   5.088 -0.2602  0.9133  0.7964
  108MOL0     H14515   5.436   7.125   5.215 -0.9330 -0.2265  0.4331
  108MOL0     H14516   5.419   7.024   5.353 -1.6465  2.2282  1.2173
  108MOL0     H14517   5.427   7.228   5.432  0.2460  2.1751 -1.7246
  108MOL0     H14518   5.557   7.123   5.502  3.6365  0.3917 -0.2967
  108MOL0     H14519   5.631   7.319   5.296 -3.4530  1.4909  0.3719
  108MOL0     H14520   5.595   7.365   5.460 -1.8983 -1.6566  0.9899
  108MOL0     H14521   5.764   7.207   5.552  1.5885 -0.7767  0.1937
  108MOL0     H14522   5.790   7.146   5.387  2.1079  0.4453  0.8782
  108MOL0     H14523   5.913   7.343   5.322  0.8435  1.6682  0.8288
  108MOL0     H14524   5.846   7.438   5.451  0.8736  0.6878 -1.0114
  108MOL0     H14525   5.998   7.285   5.614 -1.1108 -0.3003 -0.1116
  108MOL0     H14526   6.052   7.209   5.478 -0.7192  1.0814 -0.0435
  108MOL0     H14527   6.159   7.425   5.384  1.9569  3.9857 -0.3438
  108MOL0     H14528   6.094   7.514   5.508  0.7613 -0.6418 -1.4066
  108MOL0     H14529   6.270   7.272   5.555 -2.5391 -0.1846  1.5205
  108MOL0     H14530   6.204   7.370   5.692  1.4696 -4.2883  0.6882
  108MOL0     H14531   6.427   7.434   5.379 -0.4213  0.4978 -0.5834
  108MOL0     H14532   6.610   7.752   5.435 -1.5348  1.0697 -1.4156
  108MOL0     H14533   6.595   7.609   5.326 -0.2184 -1.7328  0.9956
  108MOL0     H14534   6.387   7.837   5.344 -0.2305 -0.7995 -0.4227
  108MOL0     H14535   6.385   7.699   5.232 -0.6874  0.1438 -0.7537
  108MOL0     H14536   6.511   7.816   5.091 -0.8857 -1.1563  1.8246
  108MOL0     H14537   6.642   7.845   5.204  1.0887 -0.9346 -1.8451
  108MOL0     H14538   6.563   8.048   5.103  0.0563 -0.8386  0.2703
  108MOL0     H14539   6.543   8.044   5.285 -1.2505  0.5411  1.0761
  108MOL0     H14540   6.465   8.078   4.926 -0.1811 -1.7055  2.1066
  108MOL0     H14541   6.467   8.143   4.726 -0.4231 -2.1878 -1.9839
  108MOL0     H14542   6.314   8.119   4.635 -1.7970 -0.3230  1.1438
  108MOL0     H14543   6.360   8.282   4.689  0.7132  0.0749  1.0674
  108MOL0     H14544   5.829   8.111   4.653  0.8631 -0.5600 -0.2397
  108MOL0     H14545   5.649   8.148   4.486 -1.6592  2.5597  1.7206
  108MOL0     H14546   5.546   8.384   4.385 -0.0836  0.3580  0.4579
  108MOL0     H14547   5.552   8.408   4.214  2.8183 -1.2276 -0.6741
  108MOL0     H14548   5.442   8.199   4.169 -0.5910  1.3241 -0.4964
  108MOL0     H14549   5.424   8.159   4.333  0.6018 -0.2796 -0.2121
  108MOL0     H14550   5.334   8.423   4.207  1.0962 -0.9428 -0.4248
  108MOL0     H14551   5.304   8.375   4.382  1.9507 -0.2125  0.5232
  108MOL0     H14552   5.161   8.273   4.124  2.9958 -2.0491 -0.1232
  108MOL0     H14553   5.167   8.177   4.257 -2.6383 -0.1790  0.1645
  108MOL0     H14554   5.050   8.454   4.271  0.2180  0.1134  0.6247
  108MOL0     H14555   5.085   8.358   4.418  1.5816 -2.0689 -0.5204
  108MOL0     H14556   4.940   8.158   4.305  0.7046 -0.5590 -4.4392
  108MOL0     H14557   4.850   8.303   4.376 -0.6012  0.2118 -1.8281
  108MOL0     H14558   4.915   8.211   4.095 -0.2650  1.0934 -1.9353
  108MOL0     H14559   4.878   8.380   4.128 -0.7825  0.2287 -1.2340
  108MOL0     H14560   4.658   8.273   4.264  2.3862  0.6311  0.6495
  108MOL0     H14561   4.691   8.144   4.175  1.4487 -0.0556  0.1137
  108MOL0     H14562   5.925   8.329   4.227  0.8055  0.5247  0.5987
  108MOL0     H14563   6.123   8.300   4.413 -0.1177  1.6371  1.1518
  108MOL0     H14564   6.006   8.238   5.022 -0.5612 -2.6527 -0.0164
  108MOL0     H14565   6.128   8.117   5.185 -0.5327 -0.8879 -0.6478
  108MOL0     H14566   5.321   6.950   5.124  1.6872  1.1916  1.0502
  108MOL0     H14567   5.269   6.798   4.959 -0.1590  2.2486  0.0148
  108MOL0     H14568   5.109   6.580   4.607 -0.2080 -0.2069  1.0214
  108MOL0     H14569   5.081   6.404   4.454 -0.4425  0.9877  0.7742
  108MOL0     H14570   5.053   6.228   4.317 -0.8440  0.5702 -0.4686
  108MOL0     H14571   5.110   6.333   4.190 -2.9094  0.7801  2.1930
  108MOL0     H14572   5.172   6.023   4.201 -4.1708 -1.9163  0.9205
  108MOL0     H14573   5.205   6.138   4.064 -0.1642 -1.3748 -0.4017
  108MOL0     H14574   4.971   6.156   4.026 -1.7560  0.8140  1.1913
  108MOL0     H14575   4.935   6.092   4.183  0.2383 -0.5985  0.6634
  108MOL0     H14576   4.905   5.913   3.995  0.6413 -4.6171 -2.9757
  108MOL0     H14577   5.028   5.861   4.094 -2.7671  1.0038  2.2886
  108MOL0     H14578   5.237   6.014   3.743 -0.4467  0.2116  0.2115
  108MOL0     H14579   5.494   6.360   4.402  0.7328  0.1089  1.8105
  108MOL0     H14580   5.538   6.556   4.530 -0.7193  0.7531  1.9044
  109MOL0     O14581   5.685   8.046   0.510  0.0452  0.1883 -0.3980
  109MOL0     C14582   5.708   8.118   0.409 -0.7806 -0.1449  0.5923
  109MOL0     O14583   5.644   8.118   0.294  0.3202 -0.2393 -0.3135
  109MOL0     C14584   5.554   8.011   0.283 -0.8071  0.5141 -0.1536
  109MOL0     C14585   5.617   7.897   0.232  0.7208 -1.1098 -0.2811
  109MOL0     C14586   5.551   7.782   0.200 -0.2492 -0.1537  0.0862
  109MOL0     C14587   5.412   7.770   0.226  0.0895  0.3640  0.2025
  109MOL0     O14588   5.336   7.662   0.219  0.3166 -0.1544 -0.6238
  109MOL0     C14589   5.390   7.537   0.157 -0.4988  0.1933 -0.3320
  109MOL0     C14590   5.274   7.442   0.157  0.5864  0.5889  0.1564
  109MOL0     C14591   5.174   7.472   0.056  0.7941  1.1031 -0.2589
  109MOL0     C14592   5.091   7.352   0.007 -0.6266  0.4499 -0.8054
  109MOL0     C14593   4.983   7.294   0.108 -0.5525 -0.1214  0.5715
  109MOL0     C14594   4.899   7.182   0.044  0.1683  0.2436 -0.3730
  109MOL0     C14595   4.770   7.140   0.115 -0.2505  0.9989 -0.4820
  109MOL0     C14596   4.705   7.016   0.052  0.3900  1.0966  0.2551
  109MOL0     N14597   4.790   6.907  -0.008  0.0831 -1.0127  0.0099
  109MOL0     C14598   4.813   6.906  -0.149  0.2335 -0.0958 -1.1619
  109MOL0     C14599   4.846   6.772  -0.158 -0.1041 -0.0582  0.7939
  109MOL0     C14600   4.869   6.720  -0.293 -0.0116 -1.0446 -0.2824
  109MOL0     C14601   5.003   6.768  -0.349  0.4729  0.0791 -0.2270
  109MOL0     C14602   5.000   6.751  -0.498 -0.3258  0.8263 -0.3221
  109MOL0     C14603   5.119   6.837  -0.578 -0.8101  0.3035 -0.8386
  109MOL0     O14604   5.071   6.957  -0.654 -0.1745  0.5536  0.2011
  109MOL0     C14605   5.003   7.051  -0.580  1.5731 -0.6104  0.8667
  109MOL0     C14606   5.066   7.153  -0.519 -0.6301  0.1753 -0.8085
  109MOL0     C14607   4.995   7.240  -0.440 -0.1725 -1.7418 -0.2315
  109MOL0     C14608   5.090   7.336  -0.371  0.6821  0.3366 -0.5939
  109MOL0     C14609   4.847   7.232  -0.435  1.0524  0.6248 -0.1385
  109MOL0     C14610   4.767   7.316  -0.344  0.9107 -0.8785 -0.4016
  109MOL0     O14611   4.630   7.288  -0.334 -1.0152 -0.6996  1.3654
  109MOL0     C14612   4.555   7.318  -0.223 -0.4496  0.5938 -0.4879
  109MOL0     C14613   4.444   7.240  -0.223  0.5500 -0.0303 -0.6091
  109MOL0     C14614   4.361   7.244  -0.110  0.7426 -0.2127 -0.6360
  109MOL0     C14615   4.381   7.333  -0.003 -0.7468  0.8581 -0.0731
  109MOL0     O14616   4.307   7.328   0.111 -0.6315 -0.0361  0.0789
  109MOL0     C14617   4.187   7.253   0.135 -0.8458 -0.7753  1.1305
  109MOL0     C14618   4.110   7.323   0.248 -0.3746  0.0020  1.1217
  109MOL0     C14619   4.184   7.302   0.380  0.1999 -0.0504 -0.0982
  109MOL0     C14620   4.095   7.365   0.488  0.4239 -0.5149  0.6264
  109MOL0     C14621   4.136   7.328   0.624 -0.2896  0.0542  0.2342
  109MOL0     C14622   4.037   7.366   0.737  0.4687  0.5352 -0.0845
  109MOL0     C14623   4.106   7.346   0.876  0.5831 -1.1170 -0.3835
  109MOL0     C14624   4.103   7.201   0.921  0.0176  0.8119 -1.2413
  109MOL0    Cl14625   3.928   7.139   0.923 -0.0393 -0.1875  0.0513
  109MOL0     C14626   4.488   7.418  -0.009 -0.0538 -0.3082 -1.0082
  109MOL0     C14627   4.578   7.406  -0.121 -0.8172 -0.2061 -0.3947
  109MOL0     O14628   4.826   7.409  -0.278 -0.2763 -0.3724  0.1680
  109MOL0     C14629   4.789   7.127  -0.497  1.0341  0.5837  0.1717
  109MOL0     C14630   4.863   7.041  -0.580  0.6935  0.1433 -0.2483
  109MOL0     N14631   4.860   6.712  -0.034  0.1336 -0.1230  0.8478
  109MOL0     N14632   4.824   6.795   0.060  0.5293 -1.0206  0.7347
  109MOL0     C14633   5.347   7.878   0.283 -0.2955  0.3599 -1.4834
  109MOL0     C14634   5.418   7.999   0.316  0.4773  0.1340  0.3793
  109MOL0     C14635   5.807   8.227   0.421  0.2432 -0.8131 -0.1442
  109MOL0     C14636   5.886   8.247   0.536 -1.1764  0.0683 -0.2275
  109MOL0     C14637   5.973   8.352   0.553 -0.4357  0.1760 -0.2548
  109MOL0     C14638   5.991   8.443   0.452 -0.4679 -0.4905 -0.1939
  109MOL0     O14639   6.088   8.538   0.453  0.6819  0.1123  0.5714
  109MOL0     C14640   6.081   8.635   0.554  0.3390 -0.6865 -0.2585
  109MOL0     C14641   6.188   8.731   0.538 -0.6760  0.3123 -0.4283
  109MOL0     C14642   6.322   8.668   0.566 -0.5875 -0.3624 -0.4268
  109MOL0     C14643   6.434   8.764   0.525  0.1165 -0.2017 -0.2910
  109MOL0     C14644   6.567   8.713   0.553  0.3978  0.7942 -0.7386
  109MOL0     C14645   6.679   8.682   0.563  0.3043  0.4631  0.0299
  109MOL0     C14646   5.904   8.432   0.343  0.3447  0.3046  0.5466
  109MOL0     C14647   5.818   8.324   0.315 -0.9748 -1.0526 -0.1498
  109MOL0     H14648   5.723   7.900   0.210  1.4095 -2.5358  2.4983
  109MOL0     H14649   5.614   7.714   0.142  2.2939  2.4586 -0.4737
  109MOL0     H14650   5.428   7.564   0.058 -1.1399 -1.1004 -0.9637
  109MOL0     H14651   5.466   7.495   0.223 -4.0356 -3.5311  1.8617
  109MOL0     H14652   5.314   7.340   0.150  2.4180  1.3166 -0.6582
  109MOL0     H14653   5.221   7.453   0.252  1.0231 -1.0842  0.6326
  109MOL0     H14654   5.100   7.550   0.075 -0.4813  0.2043 -1.3402
  109MOL0     H14655   5.233   7.504  -0.030  5.6679 -1.3557  1.7665
  109MOL0     H14656   5.048   7.383  -0.089  0.5679  1.2814 -1.0883
  109MOL0     H14657   5.168   7.276  -0.010 -1.3946  0.1906 -3.5920
  109MOL0     H14658   5.033   7.273   0.203 -2.2849  1.2489  1.8452
  109MOL0     H14659   4.918   7.376   0.137 -0.3321  0.2959 -0.0962
  109MOL0     H14660   4.850   7.203  -0.052  1.5894  2.3808 -0.7045
  109MOL0     H14661   4.968   7.101   0.018 -0.1383 -0.9642  2.2752
  109MOL0     H14662   4.798   7.099   0.212 -0.5348  0.6762 -0.5368
  109MOL0     H14663   4.703   7.226   0.130 -0.4204  0.2998  4.1695
  109MOL0     H14664   4.644   7.046  -0.033  0.2247 -2.0210 -0.8368
  109MOL0     H14665   4.649   6.955   0.124  1.7085 -3.0298 -1.9210
  109MOL0     H14666   4.813   6.985  -0.223  2.2110 -0.0590 -1.1905
  109MOL0     H14667   4.866   6.610  -0.290 -0.0643 -1.1311 -2.1636
  109MOL0     H14668   4.783   6.757  -0.349 -0.4998 -1.2141  0.3412
  109MOL0     H14669   5.087   6.718  -0.300 -0.3647 -2.3305 -1.1183
  109MOL0     H14670   5.006   6.877  -0.337 -1.4666  0.0374  1.1991
  109MOL0     H14671   4.908   6.784  -0.548  0.3021  3.4269  0.0931
  109MOL0     H14672   5.015   6.644  -0.515  1.7744  0.9406  0.5625
  109MOL0     H14673   5.179   6.777  -0.646 -2.7180 -3.1687  0.2912
  109MOL0     H14674   5.193   6.871  -0.506 -1.3161 -1.5786  0.6521
  109MOL0     H14675   5.174   7.148  -0.530 -0.2521  0.9390  1.7916
  109MOL0     H14676   5.143   7.302  -0.281  1.2224  3.2243  0.2601
  109MOL0     H14677   5.161   7.376  -0.444  0.9066  1.1850  0.0786
  109MOL0     H14678   5.046   7.426  -0.328  1.8763 -0.3429  2.2921
  109MOL0     H14679   4.422   7.165  -0.298  2.7859  1.4172 -2.8528
  109MOL0     H14680   4.279   7.174  -0.097 -0.2851  1.2816  1.4841
  109MOL0     H14681   4.128   7.246   0.044 -1.9715  0.9921  1.6843
  109MOL0     H14682   4.228   7.155   0.164 -0.7301 -1.0949 -0.0458
  109MOL0     H14683   4.091   7.427   0.222 -0.2877  0.7962  3.9462
  109MOL0     H14684   4.011   7.278   0.257 -1.0284  1.7067  3.1933
  109MOL0     H14685   4.289   7.333   0.375  0.4240 -0.9557 -2.7581
  109MOL0     H14686   4.200   7.196   0.400  0.9717 -0.2538 -1.6562
  109MOL0     H14687   4.088   7.473   0.476  2.9016 -0.0895  2.2525
  109MOL0     H14688   3.998   7.315   0.479 -0.9720  2.3514 -2.5650
  109MOL0     H14689   4.228   7.385   0.636 -1.7238  2.2776  1.2119
  109MOL0     H14690   4.145   7.218   0.625  1.0773  0.1213 -1.2747
  109MOL0     H14691   4.012   7.472   0.729  4.3224  1.6787  0.7207
  109MOL0     H14692   3.954   7.295   0.728  0.2386  0.6356  1.1235
  109MOL0     H14693   4.057   7.412   0.949 -1.9049 -1.0625 -1.9978
  109MOL0     H14694   4.208   7.386   0.877  0.0413  0.6034  3.0223
  109MOL0     H14695   4.143   7.193   1.022 -1.9108  1.1464 -0.4120
  109MOL0     H14696   4.162   7.137   0.855  0.1902 -1.6497  1.1457
  109MOL0     H14697   4.530   7.478   0.071  3.3416  0.0008 -2.8510
  109MOL0     H14698   4.657   7.479  -0.110 -2.3131  1.2935  0.9064
  109MOL0     H14699   4.682   7.108  -0.489  0.6397  2.3944 -0.3945
  109MOL0     H14700   4.820   6.953  -0.628 -0.8510 -0.2398  1.6989
  109MOL0     H14701   5.250   7.866   0.328  0.7960 -2.5900  0.4370
  109MOL0     H14702   5.361   8.084   0.354 -1.5420 -0.2310 -1.5956
  109MOL0     H14703   5.891   8.167   0.610 -0.6549 -0.6010 -0.9664
  109MOL0     H14704   6.040   8.367   0.637 -1.1273 -0.6072  0.4465
  109MOL0     H14705   5.988   8.692   0.561  1.7909  1.6431  2.5061
  109MOL0     H14706   6.080   8.585   0.651 -1.2527  1.4503  0.9031
  109MOL0     H14707   6.168   8.817   0.602 -0.7208 -0.0108 -0.0084
  109MOL0     H14708   6.201   8.758   0.433  0.9116 -0.6364 -0.5204
  109MOL0     H14709   6.345   8.573   0.515  0.8006  0.0775 -0.6668
  109MOL0     H14710   6.325   8.649   0.674  1.2732  0.2115 -0.3407
  109MOL0     H14711   6.419   8.863   0.570 -2.8664 -0.7440  0.1049
  109MOL0     H14712   6.435   8.777   0.416  0.6179  1.0395 -0.1534
  109MOL0     H14713   6.783   8.658   0.573  0.8061  0.5857 -3.6159
  109MOL0     H14714   5.918   8.498   0.258  2.9434  1.6533  1.8836
  109MOL0     H14715   5.755   8.320   0.226 -1.6044 -1.1559  0.2937
  110MOL0     O14716   7.608   6.815  10.091  0.4569  0.6310  0.3867
  110MOL0     C14717   7.623   6.817   9.970  0.0793  0.5114  0.3842
  110MOL0     O14718   7.586   6.914   9.878  0.5027 -0.5519  0.1064
  110MOL0     C14719   7.531   7.025   9.943 -0.3905 -0.6300  0.9339
  110MOL0     C14720   7.614   7.109  10.017 -0.0500  0.4229  1.0179
  110MOL0     C14721   7.564   7.232  10.061 -0.9779 -0.1957 -0.3546
  110MOL0     C14722   7.434   7.270  10.025 -1.1538 -0.6633  0.0205
  110MOL0     O14723   7.386   7.396  10.028 -0.0277  0.0664  0.5277
  110MOL0     C14724   7.389   7.458  10.158 -0.3041  0.0603 -0.0046
  110MOL0     C14725   7.281   7.560  10.162  0.0583  0.3192  0.0221
  110MOL0     C14726   7.295   7.663  10.273 -0.3351 -0.5311  0.5211
  110MOL0     C14727   7.234   7.630  10.419  0.2373  0.3037  0.7115
  110MOL0     C14728   7.075   7.617  10.434 -0.0789  0.1137  0.9248
  110MOL0     C14729   7.024   7.469  10.435  0.6501 -0.1166  0.6899
  110MOL0     C14730   6.871   7.454  10.443 -0.5637 -0.1965  0.2693
  110MOL0     C14731   6.772   7.467  10.319  0.6195  1.1905  0.2733
  110MOL0     N14732   6.807   7.369  10.215  0.0264  0.1467 -0.1023
  110MOL0     C14733   6.770   7.237  10.215  0.7449  1.0883 -0.2432
  110MOL0     C14734   6.838   7.173  10.110 -0.7680 -0.3757 -0.5057
  110MOL0     C14735   6.827   7.031  10.078 -0.4976 -0.0463  0.4851
  110MOL0     C14736   6.811   7.000   9.927  0.4573  0.4035 -0.1527
  110MOL0     C14737   6.953   6.999   9.863 -0.0280  0.8035 -0.7526
  110MOL0     C14738   6.940   6.965   9.714  0.1754 -0.0967  0.4470
  110MOL0     O14739   6.895   6.830   9.688 -0.5813 -0.3415 -0.1705
  110MOL0     C14740   6.992   6.732   9.701 -0.4938 -0.1958  0.5010
  110MOL0     C14741   7.129   6.757   9.698  0.0289  0.4350 -0.1815
  110MOL0     C14742   7.228   6.654   9.685  0.4934 -0.1408  0.0548
  110MOL0     C14743   7.373   6.692   9.673  0.4640  0.1739  0.2365
  110MOL0     C14744   7.177   6.526   9.686  0.3026  0.0691  0.1075
  110MOL0     C14745   7.261   6.405   9.637  0.4968  0.9985 -0.6073
  110MOL0     O14746   7.219   6.285   9.691  0.3695 -0.4721 -0.1171
  110MOL0     C14747   7.286   6.168   9.665  1.1019  0.5314 -0.9165
  110MOL0     C14748   7.199   6.068   9.638  0.2219 -0.2235 -0.1965
  110MOL0     C14749   7.252   5.950   9.587 -0.5024 -0.7082 -0.0359
  110MOL0     C14750   7.394   5.933   9.572 -0.9114 -0.4557  0.2033
  110MOL0     O14751   7.431   5.813   9.517  0.8133 -0.1496 -0.1971
  110MOL0     C14752   7.548   5.749   9.562  0.2564  0.0828  0.7963
  110MOL0     C14753   7.555   5.621   9.490  0.7700  0.4571  1.0514
  110MOL0     C14754   7.437   5.528   9.517 -0.4557  0.3641 -0.9903
  110MOL0     C14755   7.457   5.391   9.448 -0.6026  0.3755 -0.1358
  110MOL0     C14756   7.473   5.411   9.303  0.0678  0.2995 -0.0014
  110MOL0     C14757   7.459   5.284   9.221 -0.4106  0.4866 -0.1294
  110MOL0     C14758   7.470   5.297   9.072 -0.4174  0.1529 -0.1286
  110MOL0     C14759   7.607   5.347   9.021 -0.5271  0.1980 -0.4459
  110MOL0    Cl14760   7.594   5.359   8.849 -0.6124  0.7780  0.1383
  110MOL0     C14761   7.478   6.037   9.602  0.8965 -0.2611  0.0975
  110MOL0     C14762   7.422   6.158   9.662 -1.1698  0.1625  0.2500
  110MOL0     O14763   7.356   6.416   9.569 -0.1762 -1.3862  0.1400
  110MOL0     C14764   7.035   6.503   9.695 -0.6985 -0.2449 -0.0383
  110MOL0     C14765   6.944   6.605   9.708  0.4105  0.7060  0.1604
  110MOL0     N14766   6.916   7.274  10.049 -0.4754  0.1844  0.3017
  110MOL0     N14767   6.878   7.384  10.105 -0.9127  0.3880  0.9146
  110MOL0     C14768   7.346   7.182   9.964  0.3381 -0.0636 -0.1541
  110MOL0     C14769   7.389   7.059   9.927 -0.6640 -0.3942 -0.5720
  110MOL0     C14770   7.653   6.684   9.901  1.0270  0.7346 -0.0365
  110MOL0     C14771   7.657   6.573   9.978  0.6700  1.5027  0.2355
  110MOL0     C14772   7.672   6.446   9.920  0.9690 -0.4606  0.4664
  110MOL0     C14773   7.705   6.423   9.790  0.1040  0.9555 -0.3685
  110MOL0     O14774   7.722   6.285   9.756  0.0964  0.1757  0.1178
  110MOL0     C14775   7.793   6.267   9.633 -0.7458  0.1924  0.1739
  110MOL0     C14776   7.871   6.133   9.630  1.3072  0.5390  0.3684
  110MOL0     C14777   7.934   6.095   9.769 -0.2685 -0.6867  0.2910
  110MOL0     C14778   8.019   5.974   9.753 -0.2248 -0.2906 -0.5090
  110MOL0     C14779   7.939   5.857   9.771 -0.6685  0.6081  0.1348
  110MOL0     C14780   7.868   5.756   9.799 -0.6746  0.1286 -0.0244
  110MOL0     C14781   7.713   6.538   9.703 -0.8301  0.4085  0.3872
  110MOL0     C14782   7.681   6.668   9.759 -0.3879 -0.5106 -0.4652
  110MOL0     H14783   7.717   7.082  10.032  1.5787  2.4426 -4.1542
  110MOL0     H14784   7.632   7.300  10.111  0.5331 -0.1736 -2.2881
  110MOL0     H14785   7.364   7.377  10.227 -2.0956  0.2874 -0.3394
  110MOL0     H14786   7.486   7.503  10.179  0.1611 -0.0923 -1.6576
  110MOL0     H14787   7.261   7.619  10.072 -1.0433  0.9500  0.6466
  110MOL0     H14788   7.194   7.499  10.188  0.1798  0.4124  0.6655
  110MOL0     H14789   7.394   7.709  10.281 -0.6827  0.4464 -0.4569
  110MOL0     H14790   7.232   7.746  10.239  1.3120  0.6196  0.1138
  110MOL0     H14791   7.271   7.529  10.441  2.8279  1.4200  1.8733
  110MOL0     H14792   7.252   7.710  10.491 -4.7338  0.5155  2.0931
  110MOL0     H14793   7.049   7.675  10.522  1.9661  2.6559 -0.0349
  110MOL0     H14794   7.023   7.673  10.356 -0.0416 -0.6819  0.3108
  110MOL0     H14795   7.060   7.438  10.336 -2.3335  3.2489 -1.6811
  110MOL0     H14796   7.075   7.409  10.511 -0.3341  1.3415  2.5841
  110MOL0     H14797   6.838   7.361  10.490 -2.2437 -0.0050 -0.4286
  110MOL0     H14798   6.832   7.534  10.507  0.3910  1.0496 -0.6662
  110MOL0     H14799   6.790   7.563  10.269  3.0174  0.1408 -1.0702
  110MOL0     H14800   6.665   7.464  10.340  0.4193 -0.7481 -0.7990
  110MOL0     H14801   6.698   7.191  10.283 -1.7613  4.1982 -0.5383
  110MOL0     H14802   6.908   6.974  10.125 -0.2413  1.8161  2.4301
  110MOL0     H14803   6.732   6.996  10.119  0.0081 -3.5605 -0.9426
  110MOL0     H14804   6.742   7.074   9.884  0.9606  3.0272  3.1612
  110MOL0     H14805   6.764   6.902   9.914  0.6286  0.3375 -0.2731
  110MOL0     H14806   7.007   6.922   9.918 -2.6756 -0.7793 -0.1589
  110MOL0     H14807   7.002   7.097   9.869  2.2883 -0.2711 -1.1581
  110MOL0     H14808   7.028   6.985   9.653 -1.6550 -3.4186 -3.7328
  110MOL0     H14809   6.851   7.017   9.678  0.9151  2.4380  1.9679
  110MOL0     H14810   7.171   6.856   9.694 -2.3111  1.4808 -1.0663
  110MOL0     H14811   7.393   6.732   9.573 -1.8185  0.9226  0.0163
  110MOL0     H14812   7.401   6.777   9.735 -0.0664 -0.0575  0.8043
  110MOL0     H14813   7.433   6.603   9.694 -1.3964 -1.0913  0.4321
  110MOL0     H14814   7.098   6.076   9.679  1.0107 -0.3258  1.8554
  110MOL0     H14815   7.195   5.860   9.570  1.2963 -1.7632 -0.7952
  110MOL0     H14816   7.633   5.816   9.548 -0.0113  0.4627  0.9501
  110MOL0     H14817   7.529   5.729   9.668 -0.9363 -0.3981  0.5082
  110MOL0     H14818   7.555   5.653   9.386 -1.9783  0.1865  0.8821
  110MOL0     H14819   7.648   5.570   9.518  0.9504 -0.4239 -0.9609
  110MOL0     H14820   7.336   5.568   9.507 -0.7144  1.5637  3.7615
  110MOL0     H14821   7.444   5.497   9.622  0.5863  0.1396 -1.1170
  110MOL0     H14822   7.553   5.349   9.478  0.5045  2.1173 -1.1143
  110MOL0     H14823   7.376   5.322   9.474  1.2991 -1.9030  0.0153
  110MOL0     H14824   7.570   5.455   9.276  0.4977 -0.7262 -0.1664
  110MOL0     H14825   7.402   5.484   9.263 -0.5997 -2.3433 -4.2262
  110MOL0     H14826   7.542   5.216   9.247  2.2611  2.2309 -3.3366
  110MOL0     H14827   7.374   5.223   9.254 -0.5648  1.0730  0.5817
  110MOL0     H14828   7.389   5.361   9.035 -2.3361  1.4210  5.3177
  110MOL0     H14829   7.469   5.197   9.028 -0.3387 -1.3712  3.0351
  110MOL0     H14830   7.680   5.275   9.060 -0.6647 -0.5009 -1.4274
  110MOL0     H14831   7.621   5.449   9.057  1.5202  1.7349 -4.7705
  110MOL0     H14832   7.586   6.035   9.587  1.0711  1.5332  0.8666
  110MOL0     H14833   7.486   6.234   9.705 -0.2859 -2.5617  4.2383
  110MOL0     H14834   6.997   6.402   9.678  1.7297 -0.8381 -2.8236
  110MOL0     H14835   6.836   6.597   9.701  0.1091  0.8206  3.1832
  110MOL0     H14836   7.244   7.207   9.937 -0.2506 -1.1495  0.9827
  110MOL0     H14837   7.331   6.983   9.876  1.2368 -2.4340  0.1607
  110MOL0     H14838   7.655   6.574  10.087  2.0906  3.7672  0.2943
  110MOL0     H14839   7.679   6.357   9.982  1.2023 -0.2373  0.7654
  110MOL0     H14840   7.717   6.280   9.555 -0.0549  0.8944 -0.3971
  110MOL0     H14841   7.875   6.339   9.626  0.4278 -0.9955  1.3664
  110MOL0     H14842   7.942   6.145   9.548  0.3357 -0.6048 -0.6794
  110MOL0     H14843   7.801   6.050   9.617  1.7709 -0.6737  4.3242
  110MOL0     H14844   7.859   6.087   9.848  0.7947 -1.8675  1.2222
  110MOL0     H14845   8.000   6.178   9.797 -0.1957 -0.4691 -0.4992
  110MOL0     H14846   8.095   5.964   9.831  1.9977 -1.9336 -2.7133
  110MOL0     H14847   8.071   5.976   9.657 -1.6866 -2.2457 -1.4135
  110MOL0     H14848   7.815   5.667   9.824  0.4084 -0.2000  1.2565
  110MOL0     H14849   7.754   6.533   9.603 -1.2718  3.3779 -0.0281
  110MOL0     H14850   7.680   6.751   9.689 -1.0075  1.7789  2.0779
  111MOL0     O14851   0.014   9.403   2.753 -0.4086 -0.6062 -0.1680
  111MOL0     C14852  -0.051   9.490   2.798 -1.0970 -1.1661  0.3693
  111MOL0     O14853  -0.098   9.506   2.929  0.3485 -0.3685  0.3740
  111MOL0     C14854  -0.059   9.423   3.026  0.7858  0.4494  0.6673
  111MOL0     C14855  -0.158   9.371   3.120 -0.4454  0.5212 -0.7480
  111MOL0     C14856  -0.110   9.298   3.240 -0.0974  0.6761  1.1830
  111MOL0     C14857   0.027   9.261   3.243  0.9754 -0.2563 -0.4372
  111MOL0     O14858   0.088   9.174   3.327  0.2893  0.4265 -0.8362
  111MOL0     C14859   0.024   9.158   3.450  0.4286  0.6307 -0.3505
  111MOL0     C14860   0.065   9.283   3.545 -0.5551 -0.4061  0.3749
  111MOL0     C14861   0.028   9.270   3.695 -0.0893  0.6474  0.5738
  111MOL0     C14862   0.031   9.397   3.783  0.2471  0.1855  1.0878
  111MOL0     C14863   0.028   9.354   3.936 -0.2240 -0.1380  0.4800
  111MOL0     C14864  -0.078   9.257   3.965  0.1736  0.6197 -0.7803
  111MOL0     C14865  -0.108   9.229   4.119  1.2603 -0.2063 -0.5158
  111MOL0     C14866  -0.247   9.157   4.125  1.0418 -0.4642 -0.3351
  111MOL0     N14867  -0.257   9.096   4.263  0.3991  0.5149  0.0285
  111MOL0     C14868  -0.177   8.995   4.311 -0.4271 -0.0592 -0.4545
  111MOL0     C14869  -0.219   8.975   4.436 -0.7109  0.3906  0.6861
  111MOL0     C14870  -0.176   8.871   4.536  0.5542  0.1193  1.1226
  111MOL0     C14871  -0.024   8.857   4.546 -0.9076  0.1836  0.3215
  111MOL0     C14872   0.001   8.710   4.592 -0.3174  0.7080 -0.4752
  111MOL0     C14873   0.141   8.718   4.669  0.3183  0.0634 -0.4812
  111MOL0     O14874   0.115   8.724   4.806 -0.1926 -0.1968 -0.3685
  111MOL0     C14875   0.049   8.615   4.866 -0.4787 -0.6898 -0.8419
  111MOL0     C14876  -0.007   8.628   4.996  0.2126 -0.1705  0.2765
  111MOL0     C14877  -0.083   8.533   5.064  0.0659  0.3628  1.0859
  111MOL0     C14878  -0.146   8.586   5.186 -0.8688  0.0951 -0.8213
  111MOL0     C14879  -0.096   8.407   5.011 -0.2351  0.5051  0.3429
  111MOL0     C14880  -0.163   8.294   5.077  0.3428  0.3194 -0.4559
  111MOL0     O14881  -0.124   8.166   5.048  0.1367 -0.9942  0.2808
  111MOL0     C14882  -0.189   8.065   5.111  1.4029  0.7501  0.0632
  111MOL0     C14883  -0.177   8.041   5.250  0.3965 -0.8491  0.1330
  111MOL0     C14884  -0.219   7.923   5.312 -0.5441  0.1385  0.0699
  111MOL0     C14885  -0.292   7.827   5.225  0.0557  0.6567 -0.1268
  111MOL0     O14886  -0.352   7.714   5.271 -0.5618  0.7661 -0.2497
  111MOL0     C14887  -0.323   7.673   5.408 -0.0637 -0.2481 -0.6628
  111MOL0     C14888  -0.400   7.551   5.433  0.0640 -0.9199 -0.4985
  111MOL0     C14889  -0.344   7.436   5.356 -0.3720 -0.4100  0.0331
  111MOL0     C14890  -0.357   7.306   5.429  0.5082  0.5017  0.1888
  111MOL0     C14891  -0.498   7.284   5.483  0.5751 -0.5632  0.4284
  111MOL0     C14892  -0.533   7.132   5.510 -0.1545  0.1301  0.4395
  111MOL0     C14893  -0.454   7.067   5.631  0.1869 -0.4736 -0.1052
  111MOL0     C14894  -0.526   7.098   5.764 -0.0212 -1.1417 -0.1386
  111MOL0    Cl14895  -0.555   7.270   5.805 -0.0161  0.0512 -0.0627
  111MOL0     C14896  -0.314   7.858   5.092 -0.6815  0.3874  0.4095
  111MOL0     C14897  -0.260   7.975   5.032 -0.2073  0.3084  0.2358
  111MOL0     O14898  -0.259   8.329   5.149 -0.2944  0.4545 -0.1050
  111MOL0     C14899  -0.036   8.386   4.888 -0.6813 -0.0400  0.2145
  111MOL0     C14900   0.032   8.485   4.813  0.1752 -0.0990  0.3675
  111MOL0     N14901  -0.320   9.060   4.459 -0.1177  0.2562  0.6512
  111MOL0     N14902  -0.351   9.134   4.356  0.2944 -0.6528  0.0586
  111MOL0     C14903   0.117   9.314   3.149  0.5035 -0.2122 -0.6182
  111MOL0     C14904   0.077   9.391   3.044  0.8580  1.3139  0.7175
  111MOL0     C14905  -0.111   9.583   2.696 -0.1016 -0.3784 -0.1385
  111MOL0     C14906  -0.221   9.670   2.719 -0.8378  0.2198  0.2065
  111MOL0     C14907  -0.269   9.750   2.614 -0.3492  0.1508  0.1112
  111MOL0     C14908  -0.206   9.754   2.496  0.0440 -0.4546  0.0284
  111MOL0     O14909  -0.243   9.829   2.389  0.0803 -0.4737 -0.2405
  111MOL0     C14910  -0.168   9.935   2.329 -0.1582  0.7091  0.2931
  111MOL0     C14911  -0.102   9.893   2.200 -0.3007  0.2285 -0.6072
  111MOL0     C14912  -0.061  10.010   2.113 -0.5347 -0.6997  0.1515
  111MOL0     C14913  -0.040   9.982   1.966 -0.7655 -0.0834  0.4880
  111MOL0     C14914   0.078   9.903   1.935  0.5439 -0.0226  0.1718
  111MOL0     C14915   0.177   9.832   1.915  1.1356  0.8812 -0.5604
  111MOL0     C14916  -0.098   9.671   2.471 -0.4500  0.3843  0.1482
  111MOL0     C14917  -0.048   9.574   2.571  0.3186 -0.5104 -0.5494
  111MOL0     H14918  -0.262   9.402   3.123 -0.2121  1.2761 -0.1137
  111MOL0     H14919  -0.186   9.262   3.308 -0.6208 -1.3356 -0.3652
  111MOL0     H14920  -0.085   9.152   3.444  0.2544  0.1746  1.9900
  111MOL0     H14921   0.050   9.064   3.500  2.8534  1.9045  0.9796
  111MOL0     H14922   0.171   9.301   3.526 -0.2467 -3.1708 -1.0023
  111MOL0     H14923   0.018   9.374   3.506  0.0228 -0.3202 -0.1173
  111MOL0     H14924  -0.068   9.219   3.682  0.9853 -1.7181  1.4264
  111MOL0     H14925   0.091   9.191   3.735 -0.7692 -0.5246 -0.5984
  111MOL0     H14926   0.122   9.451   3.758 -1.4566  1.6059 -3.0009
  111MOL0     H14927  -0.057   9.457   3.758  2.0226  2.6066  0.2560
  111MOL0     H14928   0.126   9.309   3.953  0.1695  0.5141 -0.0202
  111MOL0     H14929   0.041   9.448   3.991  1.6810 -0.3899  0.5377
  111MOL0     H14930  -0.165   9.298   3.915  0.0769 -0.0530 -1.1805
  111MOL0     H14931  -0.066   9.158   3.920  2.1465  0.9709 -1.0952
  111MOL0     H14932  -0.034   9.154   4.146 -0.2834 -2.2226 -1.6114
  111MOL0     H14933  -0.096   9.306   4.195 -1.6072  0.6288 -0.7733
  111MOL0     H14934  -0.250   9.073   4.055 -0.3792  0.5548 -1.5334
  111MOL0     H14935  -0.320   9.233   4.100  2.3266  0.6015 -0.9597
  111MOL0     H14936  -0.108   8.927   4.263 -0.0061 -0.7140  1.0003
  111MOL0     H14937  -0.215   8.900   4.633  2.0018  1.8366  1.2407
  111MOL0     H14938  -0.212   8.775   4.499  1.0522  0.1311  0.5832
  111MOL0     H14939   0.010   8.932   4.617  0.4786  0.4727 -0.6176
  111MOL0     H14940   0.033   8.874   4.454  1.4012  1.4619  1.8997
  111MOL0     H14941   0.016   8.637   4.512  0.7907 -2.2728  2.2539
  111MOL0     H14942  -0.080   8.680   4.659  0.1748 -1.6231 -0.8573
  111MOL0     H14943   0.197   8.804   4.633 -0.8645  0.3805 -1.6165
  111MOL0     H14944   0.198   8.627   4.645 -1.5578 -0.9411 -1.3634
  111MOL0     H14945   0.004   8.721   5.052 -0.3672 -0.6647  1.2602
  111MOL0     H14946  -0.111   8.685   5.219  2.6353 -1.0037 -0.8711
  111MOL0     H14947  -0.254   8.597   5.172 -0.4862  1.4156 -3.3990
  111MOL0     H14948  -0.128   8.520   5.271  0.4824  2.0840  0.5305
  111MOL0     H14949  -0.116   8.116   5.299 -3.2801  2.0486  0.7118
  111MOL0     H14950  -0.192   7.891   5.412  0.7214 -4.1297 -1.4175
  111MOL0     H14951  -0.216   7.659   5.425 -0.1675  2.1700  3.2064
  111MOL0     H14952  -0.358   7.750   5.478 -1.3496 -2.1277  0.8789
  111MOL0     H14953  -0.395   7.541   5.542 -0.4962 -1.9966 -0.5569
  111MOL0     H14954  -0.503   7.570   5.403 -0.0142  0.2581  0.4164
  111MOL0     H14955  -0.235   7.438   5.343 -0.3129 -2.3834 -0.1512
  111MOL0     H14956  -0.397   7.433   5.260  0.6092 -3.2575 -0.5098
  111MOL0     H14957  -0.335   7.230   5.353 -2.4659 -1.4831  1.0971
  111MOL0     H14958  -0.288   7.307   5.513 -0.2247  3.1620  0.8434
  111MOL0     H14959  -0.565   7.320   5.404 -3.9991 -0.5554  3.9298
  111MOL0     H14960  -0.524   7.341   5.572  2.7293 -0.8682  1.2891
  111MOL0     H14961  -0.641   7.119   5.520 -0.3684 -0.6469 -2.1227
  111MOL0     H14962  -0.503   7.082   5.418 -0.8969 -0.6129  0.5949
  111MOL0     H14963  -0.347   7.090   5.635  0.3786 -1.3827  2.6145
  111MOL0     H14964  -0.465   6.961   5.608 -0.1516 -0.0536 -2.0068
  111MOL0     H14965  -0.489   7.043   5.851  0.1003  0.0952  0.6255
  111MOL0     H14966  -0.631   7.068   5.767 -0.1102 -1.2608 -2.6854
  111MOL0     H14967  -0.374   7.793   5.028  1.1353 -0.2427 -0.7161
  111MOL0     H14968  -0.275   8.005   4.929 -1.7997  0.6648  0.5492
  111MOL0     H14969  -0.051   8.287   4.845 -2.7268 -0.1073  0.9570
  111MOL0     H14970   0.062   8.453   4.713 -3.5343  2.0960 -1.6735
  111MOL0     H14971   0.220   9.285   3.168  1.2845  2.7944  0.2265
  111MOL0     H14972   0.153   9.427   2.976  1.3636  0.9678  1.0913
  111MOL0     H14973  -0.253   9.685   2.822  1.6175  3.1233  0.6823
  111MOL0     H14974  -0.355   9.816   2.624 -0.7318 -0.0645 -1.5070
  111MOL0     H14975  -0.241  10.012   2.301 -0.7980 -0.0379 -0.1268
  111MOL0     H14976  -0.096   9.988   2.393  1.5815 -0.9112 -0.2175
  111MOL0     H14977  -0.177   9.840   2.141 -1.7359  0.4699  0.9252
  111MOL0     H14978  -0.018   9.825   2.218 -1.9195 -1.7089 -0.0512
  111MOL0     H14979   0.026  10.045   2.169 -2.2470 -0.8415  3.0917
  111MOL0     H14980  -0.136  10.088   2.127  0.4523  0.1772  0.6545
  111MOL0     H14981  -0.018  10.071   1.906 -3.4837  1.0021  0.9821
  111MOL0     H14982  -0.131   9.939   1.925 -0.7406  0.5279 -0.2354
  111MOL0     H14983   0.257   9.765   1.891  0.8590  0.6697 -0.9194
  111MOL0     H14984  -0.049   9.653   2.376  0.7275 -0.9415  0.9689
  111MOL0     H14985   0.038   9.515   2.542  0.3939  0.6118 -2.8134
  112MOL0     O14986   8.857   1.330   0.591 -0.1832 -0.3481  0.3513
  112MOL0     C14987   8.833   1.211   0.589 -2.0702 -0.2331  0.1531
  112MOL0     O14988   8.930   1.113   0.569  0.4765  1.3675  0.3727
  112MOL0     C14989   9.061   1.148   0.601  0.1123  0.2392  0.3178
  112MOL0     C14990   9.107   1.150   0.728 -0.0506  0.4370 -0.5936
  112MOL0     C14991   9.243   1.179   0.756  0.9609 -0.1371  0.8082
  112MOL0     C14992   9.324   1.230   0.654 -0.4240  0.7002 -0.9413
  112MOL0     O14993   9.459   1.267   0.680 -0.6325  0.6445 -0.0574
  112MOL0     C14994   9.466   1.357   0.796 -0.9957 -0.7283  0.0890
  112MOL0     C14995   9.594   1.438   0.804 -0.3615 -0.6235 -0.5795
  112MOL0     C14996   9.630   1.493   0.663  0.4860 -0.7628  0.4651
  112MOL0     C14997   9.728   1.612   0.657  0.4137 -0.5694 -1.2897
  112MOL0     C14998   9.879   1.565   0.627 -0.2020  0.6166  0.6161
  112MOL0     C14999   9.984   1.671   0.651 -0.2226  0.2303  0.8674
  112MOL0     C15000   9.982   1.788   0.548 -0.0465  0.0562 -0.0256
  112MOL0     C15001  10.114   1.871   0.561  0.6658 -0.3767 -0.2057
  112MOL0     N15002  10.110   1.943   0.689  0.6918 -0.6033  0.9771
  112MOL0     C15003  10.010   2.028   0.740  0.4318  0.8487  0.7731
  112MOL0     C15004  10.069   2.082   0.841  0.0914 -0.3876  0.0998
  112MOL0     C15005   9.995   2.162   0.940  1.2527  0.0373  0.2516
  112MOL0     C15006  10.052   2.160   1.087 -0.0669 -0.6442  0.3901
  112MOL0     C15007  10.171   2.256   1.093 -0.5745  0.9508  0.7122
  112MOL0     C15008  10.224   2.264   1.232 -1.1020 -0.2305  0.1860
  112MOL0     O15009  10.130   2.274   1.347  0.2460  0.4978 -0.0570
  112MOL0     C15010  10.090   2.393   1.404 -0.1736  0.5808 -0.2616
  112MOL0     C15011  10.029   2.373   1.521 -0.8075  0.6756  0.0079
  112MOL0     C15012   9.984   2.485   1.588  1.5241 -0.3580 -0.6273
  112MOL0     C15013   9.909   2.463   1.718 -1.1707  0.2676  0.1974
  112MOL0     C15014  10.016   2.621   1.551  0.5635 -0.0208  1.3075
  112MOL0     C15015   9.994   2.749   1.629 -0.1503 -0.4564  0.5254
  112MOL0     O15016   9.905   2.745   1.729  0.3001  0.0038 -0.3634
  112MOL0     C15017   9.880   2.867   1.787  1.0141  0.1641 -1.4440
  112MOL0     C15018   9.765   2.935   1.760  0.1325  0.1632 -0.1037
  112MOL0     C15019   9.739   3.053   1.813 -0.3546 -0.7680 -0.3270
  112MOL0     C15020   9.811   3.107   1.918  0.8166 -0.4611 -0.6119
  112MOL0     O15021   9.804   3.235   1.970  0.0574 -0.2165  0.7917
  112MOL0     C15022   9.723   3.321   1.897 -0.0869  0.1220 -0.1025
  112MOL0     C15023   9.740   3.461   1.965 -0.2356 -0.5232  0.3181
  112MOL0     C15024   9.725   3.569   1.861 -0.5780 -0.6578 -0.1788
  112MOL0     C15025   9.578   3.608   1.836 -0.2558 -0.5416 -0.0960
  112MOL0     C15026   9.558   3.654   1.689  0.6850 -0.5536  0.0444
  112MOL0     C15027   9.433   3.750   1.674  0.9690  0.0805 -0.7209
  112MOL0     C15028   9.456   3.819   1.540 -0.6709  0.0149  0.3890
  112MOL0     C15029   9.328   3.886   1.504 -0.0704  0.6993  0.0469
  112MOL0    Cl15030   9.211   3.760   1.433  0.5005  0.2762  0.0158
  112MOL0     C15031   9.918   3.036   1.954 -0.3469 -0.6083 -0.4404
  112MOL0     C15032   9.947   2.909   1.906  0.2499 -0.3455 -0.3437
  112MOL0     O15033  10.046   2.853   1.587  0.0402  0.4242  0.9728
  112MOL0     C15034  10.091   2.631   1.431  0.1201 -0.9295  0.4036
  112MOL0     C15035  10.122   2.519   1.358  0.7165  0.6840 -1.3815
  112MOL0     N15036  10.198   2.046   0.848 -0.1809 -0.6662 -0.3372
  112MOL0     N15037  10.223   1.950   0.760  0.6804 -0.8269  0.4480
  112MOL0     C15038   9.279   1.232   0.520 -0.6767  0.4858 -0.0610
  112MOL0     C15039   9.147   1.198   0.498  0.1673  0.9377 -0.2419
  112MOL0     C15040   8.694   1.159   0.617 -0.5281 -0.0081 -0.2662
  112MOL0     C15041   8.667   1.025   0.662 -0.0868 -0.2261 -0.0224
  112MOL0     C15042   8.535   0.988   0.699 -0.0313 -0.0939  0.0742
  112MOL0     C15043   8.436   1.092   0.681 -1.0313  0.4426 -0.9816
  112MOL0     O15044   8.307   1.064   0.702  0.2294  0.0430 -0.5974
  112MOL0     C15045   8.263   1.055   0.830  0.0079  0.7321  0.3712
  112MOL0     C15046   8.228   1.180   0.904  0.4890 -0.3592  0.1118
  112MOL0     C15047   8.112   1.268   0.870  0.5121 -0.0348 -0.0042
  112MOL0     C15048   7.966   1.212   0.900 -0.4600 -0.2365 -0.8570
  112MOL0     C15049   7.953   1.139   1.023  0.3791 -0.5210  0.2317
  112MOL0     C15050   7.953   1.088   1.129  0.6407  0.0405 -0.9158
  112MOL0     C15051   8.469   1.211   0.627  0.5930 -0.3227 -0.7793
  112MOL0     C15052   8.592   1.252   0.588  0.9751  0.0074 -0.4056
  112MOL0     H15053   9.045   1.109   0.808  0.5676  0.9095  0.1477
  112MOL0     H15054   9.279   1.160   0.856 -0.8302  1.8023  1.8969
  112MOL0     H15055   9.387   1.432   0.797  1.8017  2.5965  2.9406
  112MOL0     H15056   9.469   1.299   0.889  1.6307 -3.0968 -1.3225
  112MOL0     H15057   9.581   1.521   0.874 -3.3147 -0.6099 -1.0259
  112MOL0     H15058   9.675   1.376   0.843  1.1418  1.3572 -0.4171
  112MOL0     H15059   9.678   1.420   0.597  2.4857  2.5814 -2.0701
  112MOL0     H15060   9.536   1.526   0.618 -0.1130 -1.0171  1.4843
  112MOL0     H15061   9.679   1.682   0.589 -2.6519 -0.7454  0.5562
  112MOL0     H15062   9.734   1.659   0.756 -2.3671 -1.1970 -0.7533
  112MOL0     H15063   9.907   1.489   0.701  2.1877  0.8876  0.0589
  112MOL0     H15064   9.889   1.525   0.525  1.3084  1.6930  0.3089
  112MOL0     H15065   9.967   1.705   0.754  0.3243 -3.4485  2.3146
  112MOL0     H15066  10.084   1.626   0.652 -0.7342 -0.9153  1.0644
  112MOL0     H15067   9.983   1.745   0.447 -3.1487 -1.1805  0.3601
  112MOL0     H15068   9.891   1.849   0.556 -0.2767 -0.2538 -0.2514
  112MOL0     H15069  10.132   1.947   0.484  3.2035  1.0650  1.6247
  112MOL0     H15070  10.203   1.806   0.563  1.8270  1.0223 -2.4455
  112MOL0     H15071   9.905   2.042   0.717 -1.1406  0.7520  6.4795
  112MOL0     H15072   9.981   2.263   0.901  0.2225  0.4125  1.5118
  112MOL0     H15073   9.891   2.132   0.954  1.4270 -0.2014  1.0796
  112MOL0     H15074  10.089   2.061   1.115  0.7308 -0.2575  0.7196
  112MOL0     H15075   9.962   2.183   1.145 -2.6942 -2.1073 -2.7706
  112MOL0     H15076  10.132   2.352   1.058 -0.3376  0.4716 -0.9775
  112MOL0     H15077  10.258   2.226   1.033  0.6940  1.7558  2.1025
  112MOL0     H15078  10.297   2.345   1.236 -1.0578 -0.1149 -1.8696
  112MOL0     H15079  10.287   2.176   1.248 -1.7852 -0.4851  1.7011
  112MOL0     H15080  10.006   2.269   1.542  0.1623  0.0487 -1.8339
  112MOL0     H15081   9.898   2.355   1.732  2.2358 -0.5333 -2.0984
  112MOL0     H15082   9.975   2.507   1.794  0.1906  0.8801 -1.2729
  112MOL0     H15083   9.813   2.514   1.712  0.9883  4.8277 -0.0041
  112MOL0     H15084   9.703   2.906   1.675 -1.1173  0.3370  0.7102
  112MOL0     H15085   9.652   3.105   1.774  2.1722  0.7391 -4.6465
  112MOL0     H15086   9.742   3.329   1.790  1.1517  0.9242  0.1462
  112MOL0     H15087   9.621   3.283   1.902 -1.7838  4.0391 -1.3626
  112MOL0     H15088   9.667   3.470   2.046  0.4858  3.2885  0.7401
  112MOL0     H15089   9.840   3.458   2.008 -0.0956 -0.3660  0.0026
  112MOL0     H15090   9.790   3.533   1.779  2.9150  3.2708  0.5082
  112MOL0     H15091   9.773   3.654   1.910 -1.1272 -1.3974  1.7327
  112MOL0     H15092   9.513   3.526   1.870  0.7380 -1.1795  0.3228
  112MOL0     H15093   9.545   3.683   1.908 -1.1942 -2.4024  1.5161
  112MOL0     H15094   9.539   3.561   1.634 -1.4258 -0.1761  0.0580
  112MOL0     H15095   9.652   3.686   1.644  1.3072  0.5616  2.0069
  112MOL0     H15096   9.340   3.693   1.686  0.3866  0.8645 -1.3845
  112MOL0     H15097   9.418   3.821   1.755 -0.5107 -0.8717 -0.1213
  112MOL0     H15098   9.494   3.746   1.467 -3.6515  2.2846 -3.8938
  112MOL0     H15099   9.540   3.887   1.550  0.7826 -1.7068  0.3454
  112MOL0     H15100   9.330   3.963   1.426 -0.5035  0.1219 -0.5488
  112MOL0     H15101   9.276   3.938   1.585  0.0421  0.2806  0.3888
  112MOL0     H15102   9.987   3.085   2.023 -4.7199  4.1140  1.1871
  112MOL0     H15103  10.022   2.845   1.951  1.1840 -1.0868 -2.7765
  112MOL0     H15104  10.119   2.725   1.385 -5.2236 -0.1367 -1.9675
  112MOL0     H15105  10.181   2.522   1.266  1.8531  1.2718 -0.6612
  112MOL0     H15106   9.336   1.271   0.436 -5.5828  1.3352 -3.4442
  112MOL0     H15107   9.104   1.197   0.398 -0.7834 -2.6623  0.0859
  112MOL0     H15108   8.741   0.952   0.692 -0.4211  0.7684  3.6789
  112MOL0     H15109   8.514   0.898   0.756  1.7042  1.3274  3.2313
  112MOL0     H15110   8.172   0.994   0.825 -2.2589  3.7395  1.4608
  112MOL0     H15111   8.332   1.000   0.894 -0.1125  1.4649  1.1546
  112MOL0     H15112   8.309   1.252   0.892  1.2582 -1.1735  0.2407
  112MOL0     H15113   8.225   1.160   1.011  1.3029 -1.0633  0.0180
  112MOL0     H15114   8.121   1.319   0.773  4.0185  1.7412  1.0766
  112MOL0     H15115   8.122   1.349   0.943  0.3505 -1.3816  1.5531
  112MOL0     H15116   7.944   1.141   0.820  1.0326 -1.1024 -0.5345
  112MOL0     H15117   7.899   1.299   0.903  1.7358  1.5577 -0.7778
  112MOL0     H15118   7.964   1.044   1.226 -0.4694 -1.6512 -1.5196
  112MOL0     H15119   8.387   1.279   0.609 -2.9259 -3.7720  0.5960
  112MOL0     H15120   8.617   1.349   0.547  1.0967  0.8911  1.6409
  113MOL0     O15121   4.637   7.119   1.944  0.1475  0.3230 -0.3928
  113MOL0     C15122   4.625   7.132   2.064  0.3151 -0.4058 -0.1300
  113MOL0     O15123   4.677   7.047   2.157 -0.0429 -0.4878  0.1387
  113MOL0     C15124   4.758   6.938   2.105 -0.1275 -0.7648  0.0769
  113MOL0     C15125   4.731   6.811   2.160  0.0153  0.4263 -0.2579
  113MOL0     C15126   4.813   6.703   2.134  0.2517 -0.0975  0.7055
  113MOL0     C15127   4.921   6.725   2.048  0.1945  0.4768  0.3221
  113MOL0     O15128   5.013   6.633   2.022 -0.1526 -0.0799 -0.3581
  113MOL0     C15129   4.952   6.508   1.980 -0.6954  0.4356 -1.0028
  113MOL0     C15130   5.054   6.413   1.927 -0.2743 -0.6192 -0.0538
  113MOL0     C15131   4.995   6.287   1.878 -0.1920  0.7537 -0.3786
  113MOL0     C15132   5.090   6.190   1.815 -0.0835  0.7824  0.3679
  113MOL0     C15133   5.039   6.045   1.801  0.0230 -0.6242 -0.2571
  113MOL0     C15134   5.154   5.953   1.754  0.4285 -0.3114 -1.3908
  113MOL0     C15135   5.099   5.810   1.724 -0.9323 -0.3848  0.0683
  113MOL0     C15136   5.208   5.702   1.731 -0.4931 -0.4417 -0.2525
  113MOL0     N15137   5.149   5.576   1.670  0.5482  0.2873 -0.1583
  113MOL0     C15138   5.118   5.468   1.747  0.4178  0.8397 -0.2492
  113MOL0     C15139   5.086   5.366   1.664 -0.0988  0.4104 -0.4796
  113MOL0     C15140   5.017   5.235   1.682  0.2472 -0.9394  0.4562
  113MOL0     C15141   5.038   5.152   1.811 -1.2020 -0.7282 -0.2108
  113MOL0     C15142   4.956   5.195   1.929  0.5773  2.0482 -0.3680
  113MOL0     C15143   4.982   5.112   2.059 -0.5089 -0.2649 -0.0486
  113MOL0     O15144   4.870   5.145   2.142  0.1199  0.0489  0.7162
  113MOL0     C15145   4.886   5.099   2.272  0.3945  0.7025 -0.0176
  113MOL0     C15146   4.977   4.997   2.317  0.6517 -0.4506  0.3266
  113MOL0     C15147   4.960   4.944   2.441 -0.1300  0.7168 -0.4901
  113MOL0     C15148   5.071   4.850   2.492 -0.5423 -0.0227  0.8816
  113MOL0     C15149   4.861   5.002   2.528 -0.4056  0.4969  0.1276
  113MOL0     C15150   4.853   4.954   2.661  0.4200  0.7654  0.0257
  113MOL0     O15151   4.740   4.886   2.714 -0.0788 -0.3401 -0.4730
  113MOL0     C15152   4.654   4.829   2.624 -0.3089 -0.2461 -0.8365
  113MOL0     C15153   4.520   4.860   2.651  0.1302  0.2987 -0.2944
  113MOL0     C15154   4.420   4.790   2.599  0.4472 -0.5530 -0.1508
  113MOL0     C15155   4.439   4.709   2.490  0.9736  1.0360 -1.0055
  113MOL0     O15156   4.322   4.663   2.422 -0.1075  0.0121  0.3840
  113MOL0     C15157   4.335   4.650   2.281 -0.3195  0.5022  0.6338
  113MOL0     C15158   4.197   4.692   2.235 -0.2195  0.0173  1.2615
  113MOL0     C15159   4.178   4.656   2.088  0.0515 -0.8019  0.1085
  113MOL0     C15160   4.099   4.758   2.001  0.1987  0.0412  0.6351
  113MOL0     C15161   4.131   4.748   1.853 -0.3800 -0.3638  1.0940
  113MOL0     C15162   4.026   4.825   1.775 -0.2565 -0.8666  0.4356
  113MOL0     C15163   4.030   4.802   1.629  1.0558 -0.3578 -0.8114
  113MOL0     C15164   3.939   4.893   1.556 -0.2687 -0.1860 -0.4368
  113MOL0    Cl15165   3.774   4.861   1.618 -0.0553 -0.2920 -0.3952
  113MOL0     C15166   4.569   4.674   2.463 -1.0381 -0.3954 -0.2099
  113MOL0     C15167   4.680   4.740   2.526 -0.1358 -0.3320  0.7432
  113MOL0     O15168   4.946   5.004   2.723  0.0869  0.2273  0.0200
  113MOL0     C15169   4.763   5.081   2.478 -0.2928 -1.6184 -0.0035
  113MOL0     C15170   4.773   5.139   2.350 -0.9396 -0.3281 -0.3456
  113MOL0     N15171   5.081   5.420   1.537  0.8466 -0.0178  0.0226
  113MOL0     N15172   5.144   5.540   1.541 -0.2286 -1.0197  0.2425
  113MOL0     C15173   4.948   6.847   1.993  0.1647  0.5962  0.5749
  113MOL0     C15174   4.864   6.945   2.013  0.0389 -0.2468 -0.0825
  113MOL0     C15175   4.548   7.247   2.108 -0.3448  0.2762 -0.5032
  113MOL0     C15176   4.528   7.282   2.248  0.3966  0.0036  0.3388
  113MOL0     C15177   4.455   7.396   2.289 -0.3138  0.3408  0.0947
  113MOL0     C15178   4.403   7.476   2.187  0.4712  0.1867  0.4820
  113MOL0     O15179   4.333   7.593   2.206 -0.1392  0.4331  0.0343
  113MOL0     C15180   4.270   7.595   2.336  0.2945  0.6063  0.2170
  113MOL0     C15181   4.194   7.726   2.335 -0.1268 -0.1238  0.7526
  113MOL0     C15182   4.280   7.857   2.306  0.2901  0.5445  0.3733
  113MOL0     C15183   4.417   7.857   2.375  0.4919 -0.0242 -1.2221
  113MOL0     C15184   4.394   7.849   2.526 -0.6519 -0.8019  0.9645
  113MOL0     C15185   4.377   7.842   2.643 -0.0882 -0.0148  0.6324
  113MOL0     C15186   4.429   7.453   2.052 -0.2936 -0.5369 -0.7030
  113MOL0     C15187   4.520   7.345   2.015  0.2936 -0.4752  0.0100
  113MOL0     H15188   4.652   6.806   2.235  1.5093  2.4104  1.5811
  113MOL0     H15189   4.794   6.608   2.183 -0.3812 -0.9011 -1.0298
  113MOL0     H15190   4.903   6.465   2.067  0.3670  0.3721 -0.4117
  113MOL0     H15191   4.888   6.524   1.893  0.3165  1.2119 -1.6383
  113MOL0     H15192   5.106   6.467   1.847 -0.3399 -1.3791 -0.6231
  113MOL0     H15193   5.119   6.406   2.014  0.0667 -2.6292 -0.4164
  113MOL0     H15194   4.950   6.229   1.959 -2.4276  1.1849 -1.2343
  113MOL0     H15195   4.911   6.309   1.811  0.3080  1.4733 -0.7934
  113MOL0     H15196   5.114   6.227   1.715 -2.1038  1.1305 -0.0453
  113MOL0     H15197   5.180   6.182   1.876 -0.2296  1.5118  0.6808
  113MOL0     H15198   4.993   6.006   1.892 -3.3056 -3.2658 -2.8490
  113MOL0     H15199   4.956   6.036   1.731 -0.8110  3.2805 -0.0244
  113MOL0     H15200   5.192   5.991   1.659 -0.0650 -2.1912 -2.3752
  113MOL0     H15201   5.241   5.946   1.821 -0.3734 -1.1435 -0.4086
  113MOL0     H15202   5.024   5.778   1.798 -0.9298 -1.0113 -0.1907
  113MOL0     H15203   5.060   5.824   1.623  0.7412 -0.3947 -0.6010
  113MOL0     H15204   5.233   5.693   1.837  0.9729  0.9247 -0.4459
  113MOL0     H15205   5.302   5.727   1.681  0.7171 -3.3430  0.3007
  113MOL0     H15206   5.111   5.453   1.854 -1.3005 -2.8240 -0.6865
  113MOL0     H15207   4.909   5.250   1.678  0.1875 -1.3732  0.3926
  113MOL0     H15208   5.052   5.173   1.599  0.7262 -0.7393  0.5075
  113MOL0     H15209   5.143   5.160   1.841 -1.4569 -2.5980  1.3594
  113MOL0     H15210   5.018   5.049   1.780 -0.3567 -0.3658 -2.1251
  113MOL0     H15211   4.851   5.178   1.901  0.8479 -3.2303  0.8158
  113MOL0     H15212   4.979   5.298   1.958  1.8238  1.4824  0.7368
  113MOL0     H15213   5.077   5.133   2.108 -2.2602 -0.5495  3.8732
  113MOL0     H15214   4.991   5.007   2.028 -0.5713 -1.0236  2.3019
  113MOL0     H15215   5.055   4.961   2.250  1.2900  0.9696  0.2664
  113MOL0     H15216   5.112   4.797   2.405  2.1628  1.0606  1.3836
  113MOL0     H15217   5.161   4.898   2.532 -1.1133 -0.1375  2.3327
  113MOL0     H15218   5.033   4.772   2.559 -0.6746 -0.6076  0.1396
  113MOL0     H15219   4.505   4.937   2.726  2.3446  2.4498 -1.9024
  113MOL0     H15220   4.319   4.814   2.629 -0.6244 -2.8795 -1.5464
  113MOL0     H15221   4.406   4.721   2.239 -0.9066 -0.4680 -2.3176
  113MOL0     H15222   4.364   4.555   2.235 -1.3134  0.1104  0.7775
  113MOL0     H15223   4.121   4.636   2.290 -0.4795 -1.8877 -0.8829
  113MOL0     H15224   4.178   4.799   2.252 -2.4100 -0.0112 -0.5131
  113MOL0     H15225   4.127   4.559   2.084 -0.1721 -0.6486 -0.9463
  113MOL0     H15226   4.277   4.635   2.046  0.2138  0.0143  0.0662
  113MOL0     H15227   3.994   4.728   2.000  0.3602 -0.5465 -0.1874
  113MOL0     H15228   4.106   4.862   2.033 -1.4581  0.9573 -1.7557
  113MOL0     H15229   4.127   4.643   1.824  0.1017  0.0488 -0.5851
  113MOL0     H15230   4.232   4.788   1.839 -0.5440 -0.8755 -2.6524
  113MOL0     H15231   3.930   4.788   1.812 -0.1312  0.5771  2.4283
  113MOL0     H15232   4.009   4.929   1.805 -2.4139 -1.3910  1.2869
  113MOL0     H15233   3.992   4.700   1.615 -1.7682  0.4521  0.3698
  113MOL0     H15234   4.132   4.799   1.588  1.8983 -0.7944  1.1568
  113MOL0     H15235   3.952   4.876   1.448  3.0528 -1.2247  0.0224
  113MOL0     H15236   3.957   5.001   1.560  0.5896 -0.3334 -0.1069
  113MOL0     H15237   4.593   4.596   2.391  3.4623 -0.9196  1.5121
  113MOL0     H15238   4.781   4.723   2.491 -0.9228 -0.5989 -1.5804
  113MOL0     H15239   4.676   5.116   2.533  1.3247  2.5250  0.2956
  113MOL0     H15240   4.695   5.188   2.293 -1.3098 -0.5435 -0.0228
  113MOL0     H15241   5.035   6.854   1.929  0.0714 -2.5343 -0.0576
  113MOL0     H15242   4.877   7.050   1.990 -5.2386  0.8066  0.6109
  113MOL0     H15243   4.556   7.210   2.325  1.2044 -1.2965 -1.1293
  113MOL0     H15244   4.420   7.408   2.391  1.1532 -2.2476  0.9785
  113MOL0     H15245   4.194   7.517   2.345  0.5991  0.2665 -0.1298
  113MOL0     H15246   4.324   7.599   2.431  2.4498  0.9843 -0.9793
  113MOL0     H15247   4.141   7.749   2.428 -2.6811 -2.2354 -0.0778
  113MOL0     H15248   4.110   7.703   2.269  0.7435  1.1869 -0.9151
  113MOL0     H15249   4.216   7.937   2.345 -0.8521 -1.0233  1.8878
  113MOL0     H15250   4.298   7.875   2.200  1.2792 -0.5616  0.3317
  113MOL0     H15251   4.471   7.952   2.368  1.2841 -0.2313  1.0044
  113MOL0     H15252   4.489   7.785   2.335 -0.4710 -1.0111 -1.2105
  113MOL0     H15253   4.354   7.832   2.748 -0.4276  0.7677  0.6373
  113MOL0     H15254   4.385   7.523   1.982 -0.3098  3.6300  3.0599
  113MOL0     H15255   4.537   7.327   1.910  1.2103 -2.0911  0.3920
  114MOL0     O15256  10.498   8.043   7.192  0.5495 -0.0669  0.2355
  114MOL0     C15257  10.547   8.098   7.292 -0.6836  0.6110 -0.3898
  114MOL0     O15258  10.480   8.151   7.397 -0.9566 -1.5440 -0.7544
  114MOL0     C15259  10.351   8.110   7.422  0.4075  1.0355 -0.1783
  114MOL0     C15260  10.245   8.153   7.342 -0.4383  0.5005 -0.2060
  114MOL0     C15261  10.111   8.145   7.377  0.1599 -0.4797  0.0072
  114MOL0     C15262  10.075   8.074   7.492 -0.4951  0.4159  0.3768
  114MOL0     O15263   9.951   8.081   7.533 -0.1535 -0.2813  0.5347
  114MOL0     C15264   9.900   7.982   7.623  0.2291  0.6345 -0.0594
  114MOL0     C15265   9.818   7.878   7.554 -0.5788 -0.1334 -0.0416
  114MOL0     C15266   9.897   7.795   7.453 -1.3816 -0.0230  0.0287
  114MOL0     C15267   9.811   7.703   7.367  0.1141  0.1290 -1.1277
  114MOL0     C15268   9.898   7.580   7.341  0.3543  0.9217 -0.8111
  114MOL0     C15269   9.829   7.474   7.260  0.2366 -0.0058  1.1968
  114MOL0     C15270   9.938   7.370   7.234  0.4034 -0.6403 -0.2344
  114MOL0     C15271   9.886   7.255   7.148 -0.2528 -0.4659  0.3537
  114MOL0     N15272   9.778   7.181   7.222 -0.4574  0.5403 -1.8122
  114MOL0     C15273   9.669   7.146   7.161 -0.3098  0.0367  0.4948
  114MOL0     C15274   9.603   7.067   7.247  0.0665  0.0369  0.5756
  114MOL0     C15275   9.465   7.001   7.211 -0.5165  0.3393 -0.0570
  114MOL0     C15276   9.351   7.091   7.149  0.6704  0.8577 -0.5924
  114MOL0     C15277   9.323   7.202   7.258  0.0969 -0.8403 -0.7743
  114MOL0     C15278   9.408   7.329   7.259 -0.3883  0.1502 -0.3590
  114MOL0     O15279   9.352   7.445   7.326  0.3086  0.3654  0.0479
  114MOL0     C15280   9.412   7.567   7.326 -1.1669  0.3155  0.0532
  114MOL0     C15281   9.375   7.668   7.411 -0.0395 -0.0757  0.1548
  114MOL0     C15282   9.419   7.802   7.395 -0.5141 -0.2665 -0.3839
  114MOL0     C15283   9.397   7.901   7.504  0.5980  0.5022  1.4598
  114MOL0     C15284   9.504   7.843   7.285  0.4134  0.3718 -0.3327
  114MOL0     C15285   9.557   7.975   7.262 -0.2998 -0.5313  0.2720
  114MOL0     O15286   9.547   8.080   7.353  0.2614  0.3440 -0.3412
  114MOL0     C15287   9.584   8.207   7.311  1.3843 -0.3516  0.6151
  114MOL0     C15288   9.692   8.272   7.374 -0.0175  0.1255 -0.6357
  114MOL0     C15289   9.730   8.403   7.337 -0.4747 -0.1597 -0.1578
  114MOL0     C15290   9.664   8.468   7.233  0.6608  0.9908 -0.4044
  114MOL0     O15291   9.701   8.587   7.175 -0.6222  0.3203 -0.5128
  114MOL0     C15292   9.838   8.599   7.162 -0.8006  0.3950  0.0203
  114MOL0     C15293   9.847   8.738   7.084 -0.4872  0.9134 -0.3262
  114MOL0     C15294   9.791   8.727   6.941  0.2435  0.7639  0.7994
  114MOL0     C15295   9.796   8.852   6.865 -0.7177  0.6528 -0.1881
  114MOL0     C15296   9.692   8.947   6.923 -0.4812  0.1353  0.0224
  114MOL0     C15297   9.672   9.068   6.842  0.7896 -0.1673  0.6957
  114MOL0     C15298   9.573   9.155   6.919 -0.6072 -0.2100  0.2813
  114MOL0     C15299   9.529   9.290   6.859 -1.1510 -0.0439 -0.7866
  114MOL0    Cl15300   9.444   9.268   6.709  0.6127  0.2333  0.2515
  114MOL0     C15301   9.547   8.409   7.180  0.5031 -0.8103 -0.0583
  114MOL0     C15302   9.510   8.274   7.212 -0.0441 -0.2709 -1.0273
  114MOL0     O15303   9.603   7.991   7.153 -0.3222 -0.2652  0.9734
  114MOL0     C15304   9.542   7.735   7.204 -0.2777 -0.7544  0.2924
  114MOL0     C15305   9.495   7.607   7.220  0.1698  0.0198  0.2447
  114MOL0     N15306   9.685   7.040   7.362  0.1571 -0.3515  0.7715
  114MOL0     N15307   9.783   7.121   7.343 -0.2548 -0.7828 -0.2608
  114MOL0     C15308  10.181   8.025   7.572 -1.7160 -0.1153  0.0030
  114MOL0     C15309  10.313   8.040   7.538  0.4511  0.3751  0.0318
  114MOL0     C15310  10.692   8.125   7.295  0.6073 -0.6606 -0.3079
  114MOL0     C15311  10.763   8.219   7.381  0.2869 -0.4371 -0.0774
  114MOL0     C15312  10.901   8.237   7.371  0.4355 -0.8370  0.0666
  114MOL0     C15313  10.978   8.164   7.281  0.5078 -0.4526  0.3956
  114MOL0     O15314  11.118   8.190   7.284 -0.3688  0.1386 -0.4148
  114MOL0     C15315  11.157   8.263   7.167  0.6412  0.5897  0.3439
  114MOL0     C15316  11.244   8.165   7.084 -0.4500  0.7411 -0.8974
  114MOL0     C15317  11.271   8.253   6.954  0.1705  0.2715  0.2326
  114MOL0     C15318  11.365   8.181   6.850 -1.1206 -0.2501 -0.0350
  114MOL0     C15319  11.499   8.153   6.909 -0.0308  0.0991 -0.0535
  114MOL0     C15320  11.618   8.137   6.937  1.8249 -0.9692 -0.3514
  114MOL0     C15321  10.914   8.069   7.207 -0.2199  0.0437 -0.5008
  114MOL0     C15322  10.782   8.053   7.209  0.9302 -0.1368  1.0564
  114MOL0     H15323  10.282   8.205   7.254  2.7265  1.8294  1.7434
  114MOL0     H15324  10.043   8.203   7.315  0.7081  1.2098  0.9335
  114MOL0     H15325   9.986   7.944   7.679  2.3036  2.1551 -2.0044
  114MOL0     H15326   9.842   8.027   7.704 -1.1842 -0.7114 -0.2871
  114MOL0     H15327   9.774   7.813   7.630 -4.5353  2.6715  0.3659
  114MOL0     H15328   9.734   7.922   7.501  0.7901  1.5184 -0.9302
  114MOL0     H15329   9.952   7.855   7.380  1.2636  0.0582  1.9044
  114MOL0     H15330   9.966   7.732   7.512 -1.9321  0.9025  1.7307
  114MOL0     H15331   9.715   7.672   7.410  1.7034 -3.1839  0.4425
  114MOL0     H15332   9.789   7.757   7.275 -0.7412  2.7285  0.4961
  114MOL0     H15333   9.980   7.619   7.281  1.0183  0.4195 -0.2538
  114MOL0     H15334   9.946   7.536   7.429  0.8415  1.5394 -0.7610
  114MOL0     H15335   9.752   7.426   7.320 -0.2444 -0.6167  0.1218
  114MOL0     H15336   9.793   7.515   7.166 -1.1681 -3.8762 -0.1674
  114MOL0     H15337  10.022   7.416   7.183 -1.1487  1.0201 -1.4311
  114MOL0     H15338   9.968   7.330   7.332  1.5295 -4.6793 -2.0072
  114MOL0     H15339   9.964   7.182   7.123 -1.8029 -1.3066 -2.4714
  114MOL0     H15340   9.854   7.297   7.052  0.9342  5.0056  2.0081
  114MOL0     H15341   9.631   7.176   7.064  1.0428  1.6511  0.4205
  114MOL0     H15342   9.501   6.922   7.145  2.2407  1.9773 -0.6999
  114MOL0     H15343   9.423   6.953   7.299  2.2875 -1.6221  0.3395
  114MOL0     H15344   9.263   7.029   7.131  0.1949  1.3809 -0.0989
  114MOL0     H15345   9.383   7.140   7.057 -1.7962 -1.3439 -2.7966
  114MOL0     H15346   9.329   7.152   7.356  0.1079 -1.5835 -1.1444
  114MOL0     H15347   9.222   7.242   7.254  1.0024  2.0489  1.7584
  114MOL0     H15348   9.418   7.345   7.151  0.0693  1.9289 -0.0830
  114MOL0     H15349   9.511   7.308   7.288 -0.4964 -0.3420 -0.3230
  114MOL0     H15350   9.311   7.640   7.494  1.6244  3.6026  2.9366
  114MOL0     H15351   9.486   7.927   7.562  0.1173  4.6659  0.6697
  114MOL0     H15352   9.339   7.986   7.467 -0.3517 -0.8853 -0.4009
  114MOL0     H15353   9.330   7.849   7.574  0.0508 -3.0108 -1.3607
  114MOL0     H15354   9.746   8.225   7.455 -0.7826  1.1292  0.4927
  114MOL0     H15355   9.820   8.443   7.383 -0.5986  1.0624 -0.9244
  114MOL0     H15356   9.895   8.607   7.256 -0.1108 -0.6527 -0.2797
  114MOL0     H15357   9.883   8.524   7.096 -3.4510 -0.9495 -0.3655
  114MOL0     H15358   9.790   8.812   7.141 -2.9467  2.4001 -4.3215
  114MOL0     H15359   9.954   8.760   7.079  0.0746 -1.7919 -2.6279
  114MOL0     H15360   9.689   8.687   6.939  0.9225 -1.0737 -0.0529
  114MOL0     H15361   9.846   8.649   6.888 -1.0015 -0.0407  0.6412
  114MOL0     H15362   9.896   8.895   6.857 -0.4302 -0.2127 -1.5146
  114MOL0     H15363   9.762   8.820   6.766 -0.6294 -0.1656  0.0361
  114MOL0     H15364   9.734   8.982   7.017  3.0205  3.2188 -2.3877
  114MOL0     H15365   9.605   8.885   6.944  1.1098 -2.3537 -0.2906
  114MOL0     H15366   9.772   9.110   6.836  1.5056 -1.8751 -0.3200
  114MOL0     H15367   9.624   9.039   6.748  0.5794  3.2430 -0.3772
  114MOL0     H15368   9.609   9.179   7.020  0.0357 -2.6057  0.6758
  114MOL0     H15369   9.487   9.091   6.941 -0.5941  0.6969  3.4506
  114MOL0     H15370   9.619   9.352   6.850 -1.1312  0.1892  0.7453
  114MOL0     H15371   9.456   9.346   6.918  0.5369  2.0251 -0.5516
  114MOL0     H15372   9.484   8.471   7.117 -0.0929  0.7656  1.9962
  114MOL0     H15373   9.424   8.212   7.189  0.9835 -0.5428 -4.7262
  114MOL0     H15374   9.596   7.753   7.111 -0.3588 -0.1214  0.3635
  114MOL0     H15375   9.518   7.540   7.138 -0.6856 -0.4786  0.4082
  114MOL0     H15376  10.164   7.997   7.676 -1.6982  1.8104  0.5658
  114MOL0     H15377  10.404   8.012   7.590  0.4591  0.3122 -0.0145
  114MOL0     H15378  10.722   8.288   7.453 -1.8206 -2.3706  0.7032
  114MOL0     H15379  10.952   8.320   7.419  0.2915 -1.5152  1.4439
  114MOL0     H15380  11.069   8.285   7.107 -1.5219 -3.6710  1.5619
  114MOL0     H15381  11.202   8.356   7.203 -1.9552  0.9297  3.1099
  114MOL0     H15382  11.189   8.076   7.052 -0.9560  1.2365 -1.4442
  114MOL0     H15383  11.333   8.144   7.143 -2.3353  0.0697  1.8936
  114MOL0     H15384  11.304   8.349   6.994  1.0792 -1.6059  4.6202
  114MOL0     H15385  11.178   8.279   6.903 -0.1418  0.8559  1.0723
  114MOL0     H15386  11.384   8.246   6.764  1.5778  2.0339  2.1169
  114MOL0     H15387  11.324   8.083   6.823 -0.0749 -0.9611  0.9194
  114MOL0     H15388  11.719   8.132   6.973  3.0920 -2.9327 -3.7465
  114MOL0     H15389  10.980   8.012   7.143 -1.8181  0.1941 -2.3645
  114MOL0     H15390  10.747   7.968   7.151  4.5892 -0.2892 -1.2910
  115MOL0     O15391   0.893   7.002   5.057  0.2320 -0.3348 -0.1091
  115MOL0     C15392   0.867   7.038   5.171  0.0709 -0.4217 -0.0090
  115MOL0     O15393   0.945   7.009   5.282  0.6646 -0.0393 -0.3130
  115MOL0     C15394   1.059   6.932   5.273 -0.2829 -1.0233  0.5375
  115MOL0     C15395   1.075   6.822   5.177 -0.3662 -0.1562  0.4324
  115MOL0     C15396   1.188   6.745   5.181  0.0602 -0.4203  0.1469
  115MOL0     C15397   1.302   6.775   5.260 -0.1603 -0.5026 -0.6235
  115MOL0     O15398   1.421   6.701   5.284 -0.0595 -0.7832  0.5601
  115MOL0     C15399   1.508   6.687   5.170 -0.9344 -0.7239 -0.1390
  115MOL0     C15400   1.570   6.830   5.141  0.2108  0.6882  0.2543
  115MOL0     C15401   1.602   6.849   4.992 -0.3591 -0.5034  0.0709
  115MOL0     C15402   1.478   6.861   4.911  0.6481 -0.8722  0.7155
  115MOL0     C15403   1.510   6.889   4.758 -0.7510  1.0482 -0.2398
  115MOL0     C15404   1.566   6.763   4.684  0.4278 -0.1402  0.0158
  115MOL0     C15405   1.540   6.763   4.539  0.8593  0.3625 -0.3270
  115MOL0     C15406   1.550   6.625   4.468  0.5399  0.2908  0.1918
  115MOL0     N15407   1.618   6.510   4.525  0.1511 -0.0702 -0.4066
  115MOL0     C15408   1.569   6.382   4.515 -0.2618  0.1753 -0.9772
  115MOL0     C15409   1.656   6.310   4.581 -0.6636 -0.0052 -0.0581
  115MOL0     C15410   1.664   6.157   4.616 -1.0500 -0.9437 -0.1135
  115MOL0     C15411   1.629   6.057   4.499  0.0062  0.1958  0.1584
  115MOL0     C15412   1.497   6.072   4.419  0.0532 -0.1193 -1.4469
  115MOL0     C15413   1.486   5.978   4.305 -0.6393  0.8345 -0.9748
  115MOL0     O15414   1.411   5.866   4.348  0.3585  0.1316  0.2774
  115MOL0     C15415   1.423   5.748   4.278  0.5017 -0.6305  1.0654
  115MOL0     C15416   1.313   5.697   4.212  0.9206 -0.4038 -1.0365
  115MOL0     C15417   1.305   5.562   4.158  0.4541  0.1620  0.4366
  115MOL0     C15418   1.176   5.520   4.088 -0.0952  0.7131  0.1303
  115MOL0     C15419   1.419   5.481   4.179  0.8923  0.9786  0.3367
  115MOL0     C15420   1.425   5.333   4.141  0.5242 -0.6551 -0.5941
  115MOL0     O15421   1.492   5.258   4.238 -0.0518 -0.1623  0.1023
  115MOL0     C15422   1.470   5.122   4.225  0.8769 -0.3228  0.5117
  115MOL0     C15423   1.519   5.059   4.109  0.4838 -0.3545  0.0319
  115MOL0     C15424   1.502   4.917   4.104  0.5383  0.1343  0.3280
  115MOL0     C15425   1.459   4.834   4.205  0.1685  0.9275  0.0955
  115MOL0     O15426   1.466   4.697   4.187 -0.4608  0.2477 -0.8583
  115MOL0     C15427   1.371   4.612   4.255 -0.6827 -0.3485 -0.0512
  115MOL0     C15428   1.384   4.474   4.203 -0.2846  0.1264 -0.3558
  115MOL0     C15429   1.266   4.380   4.233  0.7922  0.0909  0.0766
  115MOL0     C15430   1.294   4.280   4.346  0.5795 -0.7316 -0.4125
  115MOL0     C15431   1.152   4.218   4.383 -0.4136 -0.2290 -0.3191
  115MOL0     C15432   1.154   4.104   4.473 -0.5667 -0.9919 -0.7131
  115MOL0     C15433   1.021   4.042   4.468 -0.1737 -0.1480 -0.7336
  115MOL0     C15434   1.004   3.922   4.569 -0.7907  0.0415  0.2078
  115MOL0    Cl15435   0.830   3.854   4.559  0.4514  0.0092  0.1296
  115MOL0     C15436   1.412   4.894   4.324 -0.7783 -0.7878 -0.3204
  115MOL0     C15437   1.409   5.039   4.327  0.4047 -0.2302 -0.2565
  115MOL0     O15438   1.365   5.292   4.036  0.0590 -0.3722 -0.2119
  115MOL0     C15439   1.522   5.531   4.260  0.2386  0.1388  0.2587
  115MOL0     C15440   1.529   5.662   4.294 -0.2684  0.0030 -1.3290
  115MOL0     N15441   1.754   6.388   4.638  0.3626 -0.9077 -0.3865
  115MOL0     N15442   1.733   6.515   4.598 -1.0695  0.6497  0.9291
  115MOL0     C15443   1.298   6.891   5.324  1.1907 -0.1952 -0.6160
  115MOL0     C15444   1.174   6.965   5.348 -0.6215 -0.1889 -0.1079
  115MOL0     C15445   0.745   7.127   5.174  0.6892  0.4935 -0.6540
  115MOL0     C15446   0.753   7.235   5.254  0.0857 -0.9023 -1.0673
  115MOL0     C15447   0.645   7.331   5.273  0.8144  0.6161 -0.2316
  115MOL0     C15448   0.533   7.305   5.197 -0.1363 -0.1778 -0.2023
  115MOL0     O15449   0.431   7.396   5.217 -0.4216 -0.9369 -0.8784
  115MOL0     C15450   0.464   7.531   5.175  0.2847 -0.0041 -0.2255
  115MOL0     C15451   0.491   7.534   5.014 -0.4679  0.5758 -1.1894
  115MOL0     C15452   0.372   7.506   4.927  0.5262 -1.2742  0.1499
  115MOL0     C15453   0.397   7.578   4.792 -0.3728 -0.2136  0.0180
  115MOL0     C15454   0.281   7.564   4.703 -0.3130  0.0143  0.6193
  115MOL0     C15455   0.178   7.525   4.648  0.4681  0.0467 -0.1476
  115MOL0     C15456   0.523   7.209   5.100 -0.2514 -0.5232  0.5305
  115MOL0     C15457   0.628   7.112   5.086  0.4050  0.0589  0.5456
  115MOL0     H15458   0.991   6.783   5.120 -2.4281  0.8284  2.6040
  115MOL0     H15459   1.203   6.658   5.117  1.2731 -0.5076  0.5100
  115MOL0     H15460   1.585   6.614   5.199 -0.4049 -0.0422  0.1994
  115MOL0     H15461   1.453   6.659   5.080 -1.4073 -1.7337  0.4402
  115MOL0     H15462   1.517   6.921   5.172  2.4885  2.8313 -1.6131
  115MOL0     H15463   1.664   6.835   5.196  0.7397  1.9843 -0.6923
  115MOL0     H15464   1.665   6.938   4.984  0.2879 -0.9494  0.0959
  115MOL0     H15465   1.672   6.770   4.961 -0.0413 -0.9555  1.8236
  115MOL0     H15466   1.419   6.768   4.909 -0.4660 -0.1882 -1.1718
  115MOL0     H15467   1.404   6.934   4.945 -2.1010 -2.4340 -1.4431
  115MOL0     H15468   1.412   6.901   4.711 -2.1838  2.5508  2.7574
  115MOL0     H15469   1.589   6.963   4.742  0.8826 -0.8518 -1.2991
  115MOL0     H15470   1.672   6.771   4.708 -0.1164  3.5081  1.8242
  115MOL0     H15471   1.515   6.676   4.727  1.3162  0.1984  1.8490
  115MOL0     H15472   1.444   6.812   4.520  1.4243  0.7182 -2.5226
  115MOL0     H15473   1.614   6.837   4.508  0.3575  0.5539 -1.1110
  115MOL0     H15474   1.584   6.650   4.367  1.3204  1.7197  0.7776
  115MOL0     H15475   1.448   6.587   4.458  0.9814 -1.3655  1.5692
  115MOL0     H15476   1.483   6.347   4.459 -0.8247 -1.7977  1.0082
  115MOL0     H15477   1.766   6.129   4.645 -0.2172  0.0856 -1.9016
  115MOL0     H15478   1.594   6.145   4.699  0.2379 -0.1849  1.1234
  115MOL0     H15479   1.649   5.952   4.523 -2.7795 -0.7869 -1.4622
  115MOL0     H15480   1.710   6.078   4.428 -0.2774  3.1996  0.5726
  115MOL0     H15481   1.495   6.169   4.367  2.1309  0.3154 -0.8399
  115MOL0     H15482   1.411   6.063   4.486  0.0233  0.8858 -1.3223
  115MOL0     H15483   1.588   5.954   4.275  0.1684  1.5125  1.0329
  115MOL0     H15484   1.436   6.020   4.217 -3.5016  0.3564  0.3074
  115MOL0     H15485   1.221   5.754   4.204 -0.3872 -2.4453 -1.4330
  115MOL0     H15486   1.192   5.455   4.002  0.5972  2.7610 -1.3822
  115MOL0     H15487   1.102   5.467   4.149 -1.2772  1.2678 -0.7771
  115MOL0     H15488   1.128   5.611   4.049 -1.3790 -0.9294 -2.3584
  115MOL0     H15489   1.563   5.113   4.025 -0.0540  2.9426  1.7092
  115MOL0     H15490   1.540   4.870   4.014  0.1313  3.2086 -1.5904
  115MOL0     H15491   1.395   4.612   4.362  1.2116 -0.2692 -0.4372
  115MOL0     H15492   1.266   4.640   4.240 -1.0240 -1.2929  0.4935
  115MOL0     H15493   1.394   4.490   4.095 -0.8008 -0.4861 -0.5044
  115MOL0     H15494   1.478   4.446   4.251 -1.2779 -1.3398  0.8263
  115MOL0     H15495   1.233   4.332   4.140  2.5773 -0.9198 -0.0788
  115MOL0     H15496   1.176   4.437   4.256  0.9155  1.4325 -2.3634
  115MOL0     H15497   1.364   4.206   4.305 -0.6183 -1.5256 -1.0749
  115MOL0     H15498   1.331   4.334   4.434  0.1887  2.5435 -2.0970
  115MOL0     H15499   1.092   4.204   4.293  2.3608  1.7490 -2.6306
  115MOL0     H15500   1.102   4.302   4.435  1.1231  0.3555  0.2747
  115MOL0     H15501   1.232   4.034   4.443  2.5727  0.8381  2.4672
  115MOL0     H15502   1.157   4.128   4.580 -3.4076 -4.3761  0.3607
  115MOL0     H15503   1.001   4.016   4.364 -0.1587  1.0228 -1.0442
  115MOL0     H15504   0.952   4.121   4.498  1.1872  0.5766  0.6424
  115MOL0     H15505   1.027   3.956   4.670 -0.2523  2.2369 -0.5865
  115MOL0     H15506   1.079   3.845   4.548  1.0724  2.1405 -1.4534
  115MOL0     H15507   1.379   4.829   4.404 -3.2465 -3.1796 -3.0796
  115MOL0     H15508   1.374   5.089   4.416 -0.3175  0.8424 -1.1017
  115MOL0     H15509   1.603   5.467   4.292  0.1750 -2.2335 -3.7594
  115MOL0     H15510   1.607   5.706   4.355 -0.8687 -1.9524  0.9964
  115MOL0     H15511   1.386   6.919   5.381  1.0979 -1.3831  0.1444
  115MOL0     H15512   1.191   7.053   5.410  2.8898 -0.0749 -1.0376
  115MOL0     H15513   0.847   7.244   5.307 -1.2805 -0.0391  1.3384
  115MOL0     H15514   0.644   7.415   5.342 -2.4336  1.1052 -0.7231
  115MOL0     H15515   0.388   7.607   5.197  1.8724  1.1075  1.7586
  115MOL0     H15516   0.562   7.559   5.215 -0.0995 -1.4797  1.8688
  115MOL0     H15517   0.583   7.486   4.981 -0.2631  1.9584 -2.7949
  115MOL0     H15518   0.505   7.642   5.004 -0.1855  0.5065 -1.5722
  115MOL0     H15519   0.276   7.535   4.968 -0.0191 -2.7711 -0.0024
  115MOL0     H15520   0.378   7.398   4.910  2.2976 -0.8788 -2.4145
  115MOL0     H15521   0.483   7.542   4.734  1.3945  1.2330  1.6272
  115MOL0     H15522   0.417   7.680   4.826  0.6507 -0.8400  1.3848
  115MOL0     H15523   0.077   7.518   4.611  0.4473 -2.1239  0.1818
  115MOL0     H15524   0.430   7.200   5.046 -0.3964 -3.6825  1.1137
  115MOL0     H15525   0.631   7.026   5.020 -1.8394 -1.4767  2.2642
  116MOL0     O15526   0.834   6.387   1.786  0.5826 -0.2757  0.1862
  116MOL0     C15527   0.849   6.368   1.908 -0.0543  0.3861  0.9665
  116MOL0     O15528   0.884   6.458   1.994 -0.3879  0.2202  0.3643
  116MOL0     C15529   0.910   6.586   1.952 -0.5128  0.6463  0.4167
  116MOL0     C15530   1.044   6.622   1.930  0.4549  0.4913  0.5697
  116MOL0     C15531   1.076   6.759   1.888 -1.1166 -0.1189  0.4164
  116MOL0     C15532   0.978   6.856   1.863 -0.5535  0.1792 -0.0120
  116MOL0     O15533   1.000   6.982   1.823  0.8526  1.1802 -0.4340
  116MOL0     C15534   1.128   7.017   1.777  0.0121  0.6903  0.1253
  116MOL0     C15535   1.137   7.158   1.749 -0.2153 -0.1538 -1.5159
  116MOL0     C15536   1.041   7.196   1.633 -0.3064 -0.1315 -0.4995
  116MOL0     C15537   1.025   7.348   1.630 -0.3753 -0.6247  0.7520
  116MOL0     C15538   0.912   7.389   1.532  0.2922 -0.0067 -0.4856
  116MOL0     C15539   0.857   7.532   1.562  0.3892  0.0956 -0.1059
  116MOL0     C15540   0.775   7.584   1.442  0.2939  1.3118  0.8234
  116MOL0     C15541   0.674   7.692   1.479  0.0115  0.7386 -0.6594
  116MOL0     N15542   0.714   7.833   1.462  0.0900 -0.7344 -0.1822
  116MOL0     C15543   0.833   7.892   1.492 -0.6521  0.0563  0.1374
  116MOL0     C15544   0.824   8.021   1.449 -0.0169 -0.1121  0.8501
  116MOL0     C15545   0.933   8.116   1.446  0.5667 -0.6702  0.1375
  116MOL0     C15546   0.947   8.226   1.555  0.3370 -0.5695 -0.5263
  116MOL0     C15547   0.849   8.342   1.513 -0.1037 -0.4390 -0.5312
  116MOL0     C15548   0.715   8.323   1.586 -0.6031  1.2430  0.3681
  116MOL0     O15549   0.624   8.401   1.520 -0.1555  0.2890  0.2519
  116MOL0     C15550   0.502   8.346   1.512  0.2218  0.7819  0.2194
  116MOL0     C15551   0.459   8.275   1.406  0.3115  0.1692 -0.5582
  116MOL0     C15552   0.326   8.226   1.407  0.1451 -0.2312  0.8898
  116MOL0     C15553   0.266   8.152   1.288  0.1363 -0.0756 -1.1342
  116MOL0     C15554   0.240   8.244   1.522 -0.3949  0.6209 -0.5191
  116MOL0     C15555   0.096   8.204   1.534  0.5856 -0.6065  0.3678
  116MOL0     O15556  -0.000   8.306   1.550 -1.4770  0.1390  0.0293
  116MOL0     C15557  -0.136   8.278   1.564  0.1714  0.4381 -0.0471
  116MOL0     C15558  -0.193   8.173   1.626 -0.1037  0.8978  0.7139
  116MOL0     C15559  -0.330   8.166   1.651  0.1848 -0.2855 -0.4933
  116MOL0     C15560  -0.414   8.267   1.600  0.2422  1.1848 -0.1698
  116MOL0     O15561  -0.548   8.260   1.600 -0.3078 -0.8622  0.1118
  116MOL0     C15562  -0.608   8.161   1.688  0.7231 -0.1380 -0.6156
  116MOL0     C15563  -0.751   8.190   1.664  0.0265  0.7795  0.5153
  116MOL0     C15564  -0.816   8.181   1.526  0.3298 -0.2617  0.0990
  116MOL0     C15565  -0.897   8.055   1.507  0.0650 -0.8501  0.3634
  116MOL0     C15566  -0.925   8.029   1.356 -0.2209  0.4271 -0.9197
  116MOL0     C15567  -1.008   8.141   1.284  0.0169 -0.2758  0.2716
  116MOL0     C15568  -1.051   8.103   1.141  0.5777  0.0571  0.5205
  116MOL0     C15569  -1.132   8.221   1.081 -0.2333  0.3585  0.4533
  116MOL0    Cl15570  -1.021   8.328   0.999 -0.0858 -0.2892 -0.3887
  116MOL0     C15571  -0.356   8.370   1.544  0.8217  0.5844 -0.0832
  116MOL0     C15572  -0.220   8.385   1.525 -0.0800  0.2616  0.0722
  116MOL0     O15573   0.074   8.084   1.540 -0.1572  0.2084  0.0491
  116MOL0     C15574   0.289   8.329   1.622  0.0552  0.3028  0.0464
  116MOL0     C15575   0.416   8.380   1.617  0.3483  0.3624  0.6072
  116MOL0     N15576   0.704   8.039   1.392 -0.1409  0.0927  0.8790
  116MOL0     N15577   0.635   7.933   1.411 -0.1092 -0.3653  0.0812
  116MOL0     C15578   0.846   6.810   1.892 -1.5801 -1.4754 -0.6211
  116MOL0     C15579   0.813   6.681   1.928 -0.7406  0.5727  0.7435
  116MOL0     C15580   0.818   6.237   1.955 -0.2370  0.0130 -0.2215
  116MOL0     C15581   0.733   6.149   1.873 -0.2416  0.6113  0.5620
  116MOL0     C15582   0.689   6.032   1.926 -0.0055 -0.8141 -1.0752
  116MOL0     C15583   0.733   5.985   2.053 -0.5251  0.0427  0.4786
  116MOL0     O15584   0.692   5.856   2.088 -0.5323 -0.2369  0.0460
  116MOL0     C15585   0.677   5.827   2.224 -0.0101 -0.0134  0.4713
  116MOL0     C15586   0.584   5.925   2.286 -0.4273 -0.1112  0.0429
  116MOL0     C15587   0.560   5.901   2.428  1.0454  0.3786 -0.1936
  116MOL0     C15588   0.650   5.973   2.528  0.0329 -0.6875  0.0381
  116MOL0     C15589   0.642   6.125   2.517  0.1154  0.8520 -0.1601
  116MOL0     C15590   0.629   6.244   2.523 -0.3053 -0.2047  0.5384
  116MOL0     C15591   0.832   6.062   2.128 -0.5687  0.6644  0.5228
  116MOL0     C15592   0.868   6.182   2.077  0.1230  0.2934 -0.1021
  116MOL0     H15593   1.123   6.548   1.935 -1.1338 -1.3510 -0.3614
  116MOL0     H15594   1.184   6.768   1.877 -0.6776 -4.5790 -0.9264
  116MOL0     H15595   1.207   6.992   1.848 -0.3324 -0.3637  0.1540
  116MOL0     H15596   1.146   6.968   1.680 -0.2903  3.5933 -1.5233
  116MOL0     H15597   1.124   7.221   1.837  2.9918  1.9092 -2.3570
  116MOL0     H15598   1.239   7.179   1.717 -1.0932  2.1596 -3.0733
  116MOL0     H15599   1.073   7.178   1.530 -3.3283 -0.6142 -1.4474
  116MOL0     H15600   0.941   7.153   1.644 -0.2464 -0.4630 -1.2622
  116MOL0     H15601   1.014   7.389   1.731  1.8448  1.3896  0.2670
  116MOL0     H15602   1.118   7.384   1.585 -2.3349  3.9545 -0.1956
  116MOL0     H15603   0.948   7.380   1.429 -1.5632 -2.9845 -1.0105
  116MOL0     H15604   0.825   7.324   1.548  1.8255 -1.7252  1.5074
  116MOL0     H15605   0.801   7.524   1.656  1.5178 -0.9285  0.5303
  116MOL0     H15606   0.940   7.604   1.562 -0.6708  1.3440 -0.3298
  116MOL0     H15607   0.828   7.601   1.348  0.4758 -2.0684  0.1978
  116MOL0     H15608   0.718   7.498   1.404  2.0475  0.6803 -0.5059
  116MOL0     H15609   0.639   7.690   1.582 -1.0363 -1.3014 -1.0049
  116MOL0     H15610   0.588   7.676   1.413 -1.5067  0.4157  1.3081
  116MOL0     H15611   0.921   7.846   1.535  0.5635 -0.2058 -2.4634
  116MOL0     H15612   1.029   8.062   1.443  0.0195 -1.7712  1.2206
  116MOL0     H15613   0.929   8.164   1.348  0.0268 -1.4016 -0.2074
  116MOL0     H15614   1.050   8.265   1.558  1.3292 -3.0538  1.3787
  116MOL0     H15615   0.922   8.184   1.653  1.0142 -1.1018 -0.5665
  116MOL0     H15616   0.832   8.360   1.407  0.5678 -0.7561 -0.7034
  116MOL0     H15617   0.891   8.436   1.551 -2.5772  0.4255  0.2509
  116MOL0     H15618   0.727   8.350   1.692  1.8004  0.2481  0.4184
  116MOL0     H15619   0.674   8.222   1.589  2.6001 -0.1741  0.0428
  116MOL0     H15620   0.527   8.250   1.325  0.2738 -3.3622  0.3681
  116MOL0     H15621   0.229   8.060   1.334 -0.2307 -0.0340 -1.3433
  116MOL0     H15622   0.181   8.207   1.247 -1.6840 -1.4965  0.5963
  116MOL0     H15623   0.342   8.119   1.216  0.1084  1.2215 -1.7961
  116MOL0     H15624  -0.134   8.089   1.661  0.2768 -0.4742 -2.7605
  116MOL0     H15625  -0.373   8.080   1.701 -1.6988  0.9323  0.0856
  116MOL0     H15626  -0.588   8.057   1.660 -4.3589 -2.1109  1.6778
  116MOL0     H15627  -0.591   8.164   1.796 -1.8779 -1.0858 -0.0904
  116MOL0     H15628  -0.784   8.104   1.723  2.6226 -0.3148  0.5489
  116MOL0     H15629  -0.773   8.285   1.712 -3.5085  1.6590 -2.4212
  116MOL0     H15630  -0.737   8.177   1.451  0.6858  0.7264  0.4047
  116MOL0     H15631  -0.882   8.265   1.504 -1.9163 -1.7483  0.8070
  116MOL0     H15632  -0.836   7.974   1.548 -0.3944 -1.9520 -1.0703
  116MOL0     H15633  -0.991   8.047   1.564 -2.1259  2.4233 -2.3942
  116MOL0     H15634  -0.969   7.930   1.339  2.0371 -0.7130 -0.4123
  116MOL0     H15635  -0.825   8.022   1.312  0.1526  0.9786 -0.1669
  116MOL0     H15636  -1.103   8.159   1.337 -0.2859 -1.8361  0.3057
  116MOL0     H15637  -0.951   8.234   1.287  1.1347 -0.9526  0.3322
  116MOL0     H15638  -1.112   8.013   1.154 -0.8831  1.1967  2.0458
  116MOL0     H15639  -0.963   8.073   1.084 -0.4710 -0.8276 -0.6986
  116MOL0     H15640  -1.186   8.274   1.160  0.7549  0.4506  1.0880
  116MOL0     H15641  -1.191   8.184   0.997  0.3263  0.7966 -0.1465
  116MOL0     H15642  -0.415   8.459   1.525  0.0933  0.0406 -0.3885
  116MOL0     H15643  -0.179   8.482   1.499 -0.9629  0.8708  0.8642
  116MOL0     H15644   0.227   8.347   1.709  1.3395  2.1022  0.6448
  116MOL0     H15645   0.454   8.446   1.695  0.5974  0.4188  0.4368
  116MOL0     H15646   0.767   6.883   1.876  2.0755  3.0746 -0.0255
  116MOL0     H15647   0.709   6.659   1.952 -0.8819 -0.4270 -0.6811
  116MOL0     H15648   0.688   6.180   1.779 -0.7652 -3.6475 -0.8439
  116MOL0     H15649   0.621   5.971   1.867 -1.5296  0.7692 -1.0413
  116MOL0     H15650   0.631   5.729   2.236  1.0881 -0.9782 -2.4122
  116MOL0     H15651   0.770   5.837   2.281 -1.1091 -2.3251  2.8537
  116MOL0     H15652   0.489   5.918   2.232 -0.6962  1.2347  0.2962
  116MOL0     H15653   0.609   6.031   2.278  2.2689 -0.6755  0.2295
  116MOL0     H15654   0.558   5.793   2.448 -1.9493  0.8141  3.0204
  116MOL0     H15655   0.456   5.929   2.447  0.2635 -3.5557  2.5749
  116MOL0     H15656   0.751   5.933   2.515  0.0930 -0.9765  1.2454
  116MOL0     H15657   0.619   5.946   2.630  0.0229 -0.0123  0.2171
  116MOL0     H15658   0.617   6.346   2.553 -1.8012 -0.6749  1.6739
  116MOL0     H15659   0.871   6.037   2.226 -2.0610 -2.5441  0.4200
  116MOL0     H15660   0.946   6.245   2.117  0.5416 -0.0257 -0.4019
  117MOL0     O15661   1.179   8.172   6.996  0.1189  0.1595 -0.0117
  117MOL0     C15662   1.301   8.166   7.031  0.5377 -0.1143 -0.3495
  117MOL0     O15663   1.410   8.201   6.956 -0.1165  0.8336  0.5622
  117MOL0     C15664   1.409   8.215   6.817  0.3719 -0.1642 -1.2631
  117MOL0     C15665   1.299   8.205   6.721  0.0889 -0.5659  0.2468
  117MOL0     C15666   1.324   8.221   6.582 -0.0414  1.1153 -0.3367
  117MOL0     C15667   1.453   8.243   6.543  0.2356 -0.1781  0.3653
  117MOL0     O15668   1.460   8.276   6.411 -0.2354 -0.5692  0.7368
  117MOL0     C15669   1.549   8.385   6.377 -0.0566 -0.8235 -0.0076
  117MOL0     C15670   1.527   8.526   6.447  0.0009  0.2426 -0.6378
  117MOL0     C15671   1.381   8.564   6.438  0.5972 -0.4130  0.0324
  117MOL0     C15672   1.325   8.573   6.292  0.4698 -0.2940 -0.2732
  117MOL0     C15673   1.199   8.671   6.265  0.1573 -0.5163 -0.4540
  117MOL0     C15674   1.194   8.718   6.127 -0.4244 -0.7575  0.9591
  117MOL0     C15675   1.075   8.798   6.095  0.5647  0.3175  0.7842
  117MOL0     C15676   1.087   8.910   5.993 -0.3164 -0.0827 -0.3206
  117MOL0     N15677   1.119   8.877   5.854 -0.2598  0.0872  0.4580
  117MOL0     C15678   1.030   8.847   5.756 -1.0891 -0.6021  0.5975
  117MOL0     C15679   1.103   8.820   5.642 -0.6432  0.1344 -0.1328
  117MOL0     C15680   1.044   8.809   5.497 -0.3123  0.0011 -0.3694
  117MOL0     C15681   1.020   8.951   5.453 -0.1786 -0.5666  1.1422
  117MOL0     C15682   0.977   8.939   5.306 -0.5886  0.4459  0.4738
  117MOL0     C15683   1.002   9.068   5.238 -0.3218 -0.6365  0.3946
  117MOL0     O15684   0.917   9.170   5.300 -0.0372 -0.5952 -0.6965
  117MOL0     C15685   0.894   9.279   5.222  0.7868  0.2790 -0.1201
  117MOL0     C15686   0.896   9.300   5.083 -0.0108 -0.6269  1.2359
  117MOL0     C15687   0.871   9.430   5.030 -0.0603 -0.7188  0.7982
  117MOL0     C15688   0.895   9.435   4.869  0.4490 -0.1933  0.1712
  117MOL0     C15689   0.824   9.527   5.117 -0.1213  0.2334  0.4952
  117MOL0     C15690   0.791   9.666   5.082  0.2097 -0.8679  0.1075
  117MOL0     O15691   0.760   9.756   5.183  0.1056 -1.0576 -0.4015
  117MOL0     C15692   0.717   9.885   5.146  0.4520  0.4056  0.0934
  117MOL0     C15693   0.794  10.002   5.123 -0.2228 -0.1957 -0.2818
  117MOL0     C15694   0.734  10.125   5.103 -0.0568  0.1652  0.1360
  117MOL0     C15695   0.592  10.129   5.078  1.0252 -0.4800 -0.6249
  117MOL0     O15696   0.521  10.253   5.062  0.3518 -0.4639  0.4601
  117MOL0     C15697   0.604  10.366   5.033  0.1428 -0.4914 -0.1590
  117MOL0     C15698   0.512  10.487   5.026 -1.1155 -0.3927  0.0602
  117MOL0     C15699   0.431  10.497   5.156  0.7346  0.5206  0.6263
  117MOL0     C15700   0.370  10.628   5.183 -0.3830  0.3460 -0.6007
  117MOL0     C15701   0.299  10.615   5.316  0.4096 -1.1148 -0.0739
  117MOL0     C15702   0.233  10.750   5.359  0.1130  0.7646 -0.2759
  117MOL0     C15703   0.339  10.858   5.386  0.0311 -0.6094  0.3210
  117MOL0     C15704   0.266  10.989   5.425 -0.5952  0.2542  0.2848
  117MOL0    Cl15705   0.410  11.095   5.458  0.1904 -0.3627  0.4003
  117MOL0     C15706   0.515  10.014   5.093 -0.4501  0.4152 -0.0572
  117MOL0     C15707   0.575   9.888   5.122  0.0622 -0.6949  0.1745
  117MOL0     O15708   0.811   9.700   4.959 -0.1268 -0.2295 -0.5066
  117MOL0     C15709   0.800   9.503   5.249  0.1369  0.5911  0.0658
  117MOL0     C15710   0.847   9.382   5.299  0.6508 -0.6375 -0.7850
  117MOL0     N15711   1.236   8.839   5.681  0.9697 -0.0619 -0.1327
  117MOL0     N15712   1.247   8.867   5.809 -0.3567  0.9777  0.5878
  117MOL0     C15713   1.556   8.254   6.639 -0.4133 -0.5245  0.4714
  117MOL0     C15714   1.535   8.241   6.770  0.6493  0.8433 -0.5636
  117MOL0     C15715   1.325   8.129   7.164  0.7747 -0.4440  0.5062
  117MOL0     C15716   1.462   8.111   7.208  0.1299  0.1004  0.2654
  117MOL0     C15717   1.496   8.072   7.340 -0.6752 -0.1746 -1.1830
  117MOL0     C15718   1.396   8.062   7.439 -1.2211  0.3872 -0.0389
  117MOL0     O15719   1.423   8.022   7.569  0.6131 -0.5205 -0.9435
  117MOL0     C15720   1.559   8.028   7.624 -0.0428 -0.2236  0.0224
  117MOL0     C15721   1.589   8.171   7.664 -0.4398  0.5637 -0.4665
  117MOL0     C15722   1.521   8.198   7.802  0.4302 -0.0701  0.2877
  117MOL0     C15723   1.540   8.346   7.850 -0.1261 -0.5179  0.3668
  117MOL0     C15724   1.580   8.340   7.986  0.4977 -0.4694  0.4847
  117MOL0     C15725   1.617   8.354   8.099 -0.3383  0.7961  0.3893
  117MOL0     C15726   1.262   8.087   7.399  0.3862 -0.2993  0.2515
  117MOL0     C15727   1.226   8.124   7.268  0.3600 -0.4059  0.3702
  117MOL0     H15728   1.201   8.196   6.766  1.1407  2.3148  3.5578
  117MOL0     H15729   1.236   8.218   6.518 -0.3194 -2.7256 -0.0209
  117MOL0     H15730   1.655   8.357   6.388 -0.1729 -0.6798  1.8530
  117MOL0     H15731   1.537   8.407   6.271 -2.6490  4.0009  0.9927
  117MOL0     H15732   1.562   8.527   6.551 -0.5348 -0.2177 -0.4462
  117MOL0     H15733   1.598   8.599   6.408 -1.6044  1.2941 -1.6758
  117MOL0     H15734   1.314   8.499   6.494 -0.5266 -1.0413 -1.9321
  117MOL0     H15735   1.388   8.665   6.479  0.0828 -0.4738  0.2715
  117MOL0     H15736   1.392   8.620   6.221 -2.0091  2.2084 -1.1193
  117MOL0     H15737   1.301   8.473   6.254 -0.9340  0.2069 -0.7755
  117MOL0     H15738   1.107   8.620   6.294  0.1310  0.7667  2.0586
  117MOL0     H15739   1.198   8.749   6.342 -1.9234 -3.8361  3.2695
  117MOL0     H15740   1.284   8.762   6.083  2.3855 -5.0460  1.7955
  117MOL0     H15741   1.192   8.623   6.073 -0.9833 -0.6254  0.7437
  117MOL0     H15742   0.998   8.729   6.059  0.1848 -0.6609  3.2741
  117MOL0     H15743   1.048   8.848   6.189  1.1538  0.9492  0.6284
  117MOL0     H15744   1.176   8.968   6.020  2.1682 -3.2071 -1.2269
  117MOL0     H15745   0.995   8.969   5.998 -1.1608 -1.1864 -1.9011
  117MOL0     H15746   0.922   8.850   5.766 -1.3948 -1.7804 -1.7268
  117MOL0     H15747   1.122   8.763   5.437  1.9981  3.2113 -0.0854
  117MOL0     H15748   0.950   8.754   5.503 -0.5227  0.3752  5.2408
  117MOL0     H15749   1.108   9.015   5.462  0.2980 -1.5683  6.1281
  117MOL0     H15750   0.944   8.993   5.520 -2.8475  1.0903 -2.5575
  117MOL0     H15751   0.870   8.919   5.300 -1.0033  2.4575  0.2619
  117MOL0     H15752   1.029   8.865   5.244 -1.2778 -2.5239  3.2126
  117MOL0     H15753   0.991   9.065   5.129 -0.1797  0.4088  0.3375
  117MOL0     H15754   1.110   9.084   5.232 -0.3359 -1.0862 -3.4770
  117MOL0     H15755   0.922   9.215   5.021 -0.7776 -0.5238  0.7585
  117MOL0     H15756   0.812   9.483   4.817  0.5141 -0.8178 -0.5248
  117MOL0     H15757   0.989   9.481   4.838  1.1438 -0.5596  1.6328
  117MOL0     H15758   0.884   9.331   4.836 -1.1418 -1.0692  3.1327
  117MOL0     H15759   0.902   9.992   5.120 -0.1202  0.8588 -0.3757
  117MOL0     H15760   0.799  10.211   5.112  0.6881 -0.4190  0.4832
  117MOL0     H15761   0.677  10.396   5.108  1.3006 -3.1418 -0.1265
  117MOL0     H15762   0.663  10.356   4.941 -1.0713  2.4236 -1.4157
  117MOL0     H15763   0.573  10.577   5.018 -0.5088 -0.3466  3.7679
  117MOL0     H15764   0.442  10.482   4.941  1.0120 -1.1758 -1.7370
  117MOL0     H15765   0.484  10.459   5.244  1.1995  1.7074  0.8801
  117MOL0     H15766   0.353  10.419   5.152 -0.7284  1.9240  0.7684
  117MOL0     H15767   0.447  10.705   5.176  1.7457 -1.4010  1.6476
  117MOL0     H15768   0.302  10.648   5.100 -0.1260  4.1464 -0.0494
  117MOL0     H15769   0.359  10.579   5.400 -1.0295 -0.1012  1.4747
  117MOL0     H15770   0.220  10.543   5.293  1.0733 -2.0926  0.6227
  117MOL0     H15771   0.167  10.795   5.284 -0.0460  2.8865  1.0682
  117MOL0     H15772   0.177  10.732   5.451 -0.2290  0.5275 -0.5298
  117MOL0     H15773   0.391  10.891   5.295  1.1524 -2.1197  0.3795
  117MOL0     H15774   0.395  10.829   5.475 -0.0131  1.5100  1.0972
  117MOL0     H15775   0.199  10.969   5.510  0.1941  0.1178  0.8948
  117MOL0     H15776   0.213  11.023   5.336  0.2908 -1.2711 -0.8811
  117MOL0     H15777   0.407  10.012   5.081 -0.4945 -4.1413 -0.7104
  117MOL0     H15778   0.521   9.794   5.130  0.6713 -1.3186 -2.1491
  117MOL0     H15779   0.753   9.567   5.322 -0.8341  1.0293 -0.9170
  117MOL0     H15780   0.847   9.366   5.406 -2.4745 -0.8215 -0.7144
  117MOL0     H15781   1.657   8.270   6.602 -0.3388  1.9744  1.5428
  117MOL0     H15782   1.615   8.255   6.843 -0.9153  0.9860  1.2001
  117MOL0     H15783   1.533   8.123   7.127 -3.2437  1.3493 -2.8050
  117MOL0     H15784   1.595   8.033   7.365 -0.2521  0.5303 -1.7218
  117MOL0     H15785   1.558   7.959   7.709 -1.7633 -0.7456 -0.3958
  117MOL0     H15786   1.637   7.999   7.553 -2.8037  0.3506 -3.5181
  117MOL0     H15787   1.567   8.247   7.587 -0.4647  0.4008 -0.6208
  117MOL0     H15788   1.697   8.171   7.678 -0.4316  0.2296 -0.5354
  117MOL0     H15789   1.552   8.129   7.881  0.0000  0.0472  0.5650
  117MOL0     H15790   1.415   8.174   7.791  0.0634  2.1346 -1.9832
  117MOL0     H15791   1.455   8.414   7.839 -0.1688 -0.7111 -0.5751
  117MOL0     H15792   1.628   8.383   7.797 -0.1591  1.9089  1.8764
  117MOL0     H15793   1.661   8.367   8.196 -0.3869  1.4853  0.3284
  117MOL0     H15794   1.187   8.084   7.478  1.3557 -1.3847  1.1608
  117MOL0     H15795   1.122   8.147   7.249  0.5376 -0.9384 -1.3987
  118MOL0     O15796   0.797   3.103   4.981  0.2093  0.8995 -0.3547
  118MOL0     C15797   0.882   3.019   4.974  0.2004  1.0849 -0.5921
  118MOL0     O15798   1.012   3.044   4.963 -0.2071 -0.2478  0.2040
  118MOL0     C15799   1.061   3.176   4.979  0.5996  0.0895  0.5861
  118MOL0     C15800   1.029   3.266   5.087  0.6227  0.2012 -0.8174
  118MOL0     C15801   1.087   3.393   5.106  0.2333  0.5346  0.6558
  118MOL0     C15802   1.182   3.440   5.019 -0.0416 -0.7972  0.2833
  118MOL0     O15803   1.245   3.561   5.043  0.0387 -0.5053  0.6607
  118MOL0     C15804   1.291   3.642   4.925 -0.0171  0.9599  0.1144
  118MOL0     C15805   1.230   3.782   4.956 -0.5181  0.8506 -0.8284
  118MOL0     C15806   1.208   3.856   4.826 -0.2726 -0.0670 -0.6357
  118MOL0     C15807   1.342   3.901   4.775 -0.2146 -0.0253  0.1588
  118MOL0     C15808   1.375   4.040   4.827 -0.4146 -0.2144 -0.1516
  118MOL0     C15809   1.518   4.076   4.800 -0.7246  0.2532 -0.2145
  118MOL0     C15810   1.555   4.124   4.652 -0.6252 -0.1450 -0.5453
  118MOL0     C15811   1.709   4.141   4.646  0.1517 -0.2125 -0.1818
  118MOL0     N15812   1.740   4.223   4.527 -0.0750  0.0645 -0.2276
  118MOL0     C15813   1.760   4.358   4.518  0.5901 -0.0445 -0.2549
  118MOL0     C15814   1.763   4.389   4.383  0.4801  0.1290 -1.1423
  118MOL0     C15815   1.780   4.516   4.302 -0.0252  0.4615  0.1577
  118MOL0     C15816   1.776   4.639   4.391 -0.1445 -1.2361  0.4093
  118MOL0     C15817   1.829   4.764   4.316  0.1811  0.7135 -0.1805
  118MOL0     C15818   1.797   4.899   4.369 -0.1207  0.7127  0.2139
  118MOL0     O15819   1.869   5.000   4.293  0.4752  1.0108 -0.3695
  118MOL0     C15820   1.864   5.123   4.347 -0.7336  0.0304  1.2440
  118MOL0     C15821   1.990   5.186   4.350  0.4066  0.3590 -0.4148
  118MOL0     C15822   1.996   5.308   4.413  0.4842  0.2397 -1.0357
  118MOL0     C15823   2.125   5.382   4.405 -0.2704 -0.7200 -0.2085
  118MOL0     C15824   1.879   5.359   4.477 -0.1886 -0.3404 -0.1305
  118MOL0     C15825   1.868   5.490   4.534 -0.2032  0.5274  0.3727
  118MOL0     O15826   1.929   5.503   4.649 -0.3118  0.0762 -0.4937
  118MOL0     C15827   1.934   5.624   4.716  0.8752 -1.1309 -0.8952
  118MOL0     C15828   1.892   5.621   4.852  0.8522 -0.5359  0.8961
  118MOL0     C15829   1.887   5.740   4.919  0.1577  0.0885 -0.1750
  118MOL0     C15830   1.922   5.862   4.860 -0.1036 -0.3249  0.2729
  118MOL0     O15831   1.913   5.989   4.913 -0.1284 -0.2407 -0.3097
  118MOL0     C15832   1.981   5.998   5.037  0.0537 -0.2187 -0.8048
  118MOL0     C15833   2.048   6.137   5.056  0.5065 -0.1517 -0.3335
  118MOL0     C15834   2.125   6.156   5.175 -0.1277 -1.0813  0.4037
  118MOL0     C15835   2.049   6.128   5.304 -0.3843  0.1447  0.3034
  118MOL0     C15836   2.144   6.132   5.430  0.3548 -0.8731  0.6114
  118MOL0     C15837   2.057   6.110   5.559 -0.8887 -0.1918  0.5573
  118MOL0     C15838   2.141   6.145   5.681  0.4777 -1.0014  0.1548
  118MOL0     C15839   2.071   6.111   5.807  0.2686  1.1933 -1.7409
  118MOL0    Cl15840   1.899   6.168   5.820 -0.3275  0.0761 -0.1450
  118MOL0     C15841   1.965   5.863   4.726 -0.4011 -1.4089 -0.2944
  118MOL0     C15842   1.963   5.743   4.656  0.2850  0.4067 -0.2627
  118MOL0     O15843   1.804   5.568   4.477  0.0034 -1.3029  0.4638
  118MOL0     C15844   1.754   5.292   4.474 -0.3735 -0.0874 -0.7616
  118MOL0     C15845   1.751   5.173   4.405 -0.0248 -0.7908 -0.2777
  118MOL0     N15846   1.754   4.264   4.319  0.3859  0.3606 -0.2576
  118MOL0     N15847   1.737   4.170   4.397 -0.4583  1.2062 -1.3640
  118MOL0     C15848   1.218   3.353   4.911  0.6375 -0.3511  0.1893
  118MOL0     C15849   1.162   3.226   4.890  0.2124  0.4197  0.4749
  118MOL0     C15850   0.853   2.875   4.975  0.1600  0.9016 -0.2682
  118MOL0     C15851   0.954   2.767   4.980  0.1407  0.4609  0.0467
  118MOL0     C15852   0.904   2.628   4.976 -0.0912 -1.3852  0.9723
  118MOL0     C15853   0.768   2.593   4.964  0.1611 -0.7680 -0.8362
  118MOL0     O15854   0.759   2.457   4.968  0.5507 -0.9664  0.1025
  118MOL0     C15855   0.680   2.392   4.868  0.6318  0.4824  0.5940
  118MOL0     C15856   0.744   2.259   4.820  0.4709 -0.8568  0.5322
  118MOL0     C15857   0.728   2.135   4.902  0.1974 -1.0664  0.9456
  118MOL0     C15858   0.606   2.056   4.855  1.8877  0.2555  0.5701
  118MOL0     C15859   0.638   1.969   4.741 -0.2220  0.7693  0.7331
  118MOL0     C15860   0.666   1.884   4.654 -0.6855 -0.4566  0.3401
  118MOL0     C15861   0.674   2.696   4.962  0.1088  0.7098  0.6222
  118MOL0     C15862   0.713   2.830   4.971 -0.3046  0.1762 -0.9532
  118MOL0     H15863   0.963   3.234   5.166  1.1939 -3.2253 -1.5547
  118MOL0     H15864   1.038   3.442   5.189 -1.1475 -3.9220  2.7957
  118MOL0     H15865   1.400   3.644   4.930  0.0118  4.5110  1.5034
  118MOL0     H15866   1.249   3.600   4.834  0.0020 -1.2092  1.0608
  118MOL0     H15867   1.126   3.773   4.990 -0.9788 -0.0367 -2.3831
  118MOL0     H15868   1.289   3.840   5.027 -2.1519  2.2650 -0.5557
  118MOL0     H15869   1.152   3.800   4.751 -2.9078  2.4921 -0.7730
  118MOL0     H15870   1.152   3.945   4.857  1.6320  1.0651 -0.2942
  118MOL0     H15871   1.417   3.833   4.815 -1.7177 -1.6014  0.3921
  118MOL0     H15872   1.342   3.885   4.667 -1.8724 -0.0716  0.1301
  118MOL0     H15873   1.312   4.114   4.776  0.0354 -0.7078 -1.4500
  118MOL0     H15874   1.357   4.053   4.934 -0.0911  2.7512 -0.3943
  118MOL0     H15875   1.546   4.152   4.874  0.2588  1.0367 -1.3522
  118MOL0     H15876   1.574   3.984   4.818  0.7326  1.2123  0.3520
  118MOL0     H15877   1.542   4.047   4.576  2.2890 -0.5783 -0.7466
  118MOL0     H15878   1.514   4.221   4.625 -0.2564  0.4482  0.9265
  118MOL0     H15879   1.762   4.045   4.647 -2.2438 -1.6121  1.9187
  118MOL0     H15880   1.738   4.199   4.734 -1.8204  0.0700  0.3186
  118MOL0     H15881   1.769   4.435   4.595 -3.2873 -0.8179  1.1887
  118MOL0     H15882   1.878   4.522   4.253  0.4243  5.2988  1.1492
  118MOL0     H15883   1.700   4.526   4.229 -2.9838 -2.1628  2.7656
  118MOL0     H15884   1.846   4.626   4.474 -0.9821 -1.4019  1.0972
  118MOL0     H15885   1.681   4.650   4.445 -0.2666 -0.8571  0.1221
  118MOL0     H15886   1.787   4.762   4.215  0.9653 -1.3586 -0.5100
  118MOL0     H15887   1.938   4.764   4.311  0.2174  2.3934 -0.0644
  118MOL0     H15888   1.828   4.910   4.473 -0.7684  1.9382  0.2895
  118MOL0     H15889   1.689   4.913   4.373 -0.5589 -0.5041 -3.4295
  118MOL0     H15890   2.078   5.153   4.296  1.4010  0.7220  0.9472
  118MOL0     H15891   2.201   5.337   4.340  1.2685  0.4373  0.7311
  118MOL0     H15892   2.107   5.480   4.359  0.1468 -0.2099  0.6903
  118MOL0     H15893   2.175   5.390   4.502 -1.4499 -0.2226  0.3684
  118MOL0     H15894   1.865   5.531   4.905  0.7361 -0.5280  0.8503
  118MOL0     H15895   1.847   5.731   5.019 -0.5863 -1.8236 -0.6046
  118MOL0     H15896   1.902   5.983   5.111 -0.4660  0.6872 -1.1605
  118MOL0     H15897   2.057   5.920   5.049  4.4407  3.4580 -1.7346
  118MOL0     H15898   2.106   6.166   4.967 -2.8178 -0.8077 -2.9245
  118MOL0     H15899   1.965   6.208   5.054  1.2475  0.7422 -0.1965
  118MOL0     H15900   2.148   6.263   5.185 -3.6971 -0.0625 -0.6524
  118MOL0     H15901   2.222   6.106   5.172  0.6131  0.2728  0.8099
  118MOL0     H15902   1.971   6.204   5.309 -2.1900 -1.6030 -0.1420
  118MOL0     H15903   2.003   6.028   5.302  2.0454 -1.0430 -0.1476
  118MOL0     H15904   2.186   6.232   5.435  1.1947 -1.0779 -1.3998
  118MOL0     H15905   2.216   6.052   5.409 -1.1752 -1.6197 -2.3938
  118MOL0     H15906   1.963   6.163   5.544  0.9240  2.9531 -0.6534
  118MOL0     H15907   2.042   6.001   5.560  3.3527 -1.0811 -2.7236
  118MOL0     H15908   2.142   6.254   5.668 -1.3570 -1.2969 -4.2684
  118MOL0     H15909   2.242   6.104   5.679  1.6891  1.7465 -1.3458
  118MOL0     H15910   2.118   6.163   5.890  1.3956 -2.4381  0.1089
  118MOL0     H15911   2.071   6.002   5.822  1.9689  1.5135  1.1694
  118MOL0     H15912   1.969   5.957   4.671  0.2126 -1.7964 -0.9370
  118MOL0     H15913   1.976   5.740   4.548 -1.4272  0.7092 -0.5088
  118MOL0     H15914   1.669   5.349   4.510 -0.9246 -0.9153 -0.6951
  118MOL0     H15915   1.660   5.114   4.411 -1.7454  1.7660  0.7566
  118MOL0     H15916   1.301   3.387   4.849  1.0432 -1.6878 -0.0230
  118MOL0     H15917   1.207   3.166   4.812 -0.1931  0.8334 -0.0863
  118MOL0     H15918   1.053   2.807   4.999  0.2485  0.5138 -0.5968
  118MOL0     H15919   0.972   2.544   4.977  2.2713  0.4239  0.8291
  118MOL0     H15920   0.581   2.364   4.905  0.5963 -0.8208 -0.4193
  118MOL0     H15921   0.663   2.464   4.788  0.9120  1.7994  1.6823
  118MOL0     H15922   0.849   2.284   4.803  0.0645  2.5816  2.1215
  118MOL0     H15923   0.693   2.238   4.725 -1.0099  4.0797 -0.0740
  118MOL0     H15924   0.703   2.178   4.999  1.0487 -0.3695  0.8726
  118MOL0     H15925   0.826   2.085   4.896  2.9139  3.7752 -0.5934
  118MOL0     H15926   0.518   2.116   4.831  2.4145  0.6584 -0.4508
  118MOL0     H15927   0.576   1.972   4.918 -1.2246  0.6021 -0.3102
  118MOL0     H15928   0.700   1.810   4.585 -0.0515 -0.2066  0.3724
  118MOL0     H15929   0.572   2.662   4.951  0.4890 -1.0449  2.0927
  118MOL0     H15930   0.637   2.907   4.962 -0.6796  0.5972  3.6632
  119MOL0     O15931  11.254  10.046   6.128 -0.5312 -0.3483  0.1176
  119MOL0     C15932  11.314  10.149   6.164  0.1370  0.1666  0.1638
  119MOL0     O15933  11.310  10.199   6.289 -0.3123  0.4868  0.3322
  119MOL0     C15934  11.257  10.125   6.387 -0.1532 -0.0711 -0.3142
  119MOL0     C15935  11.124  10.079   6.384 -0.3447  0.3451 -0.6187
  119MOL0     C15936  11.074  10.007   6.491 -0.4744  0.0382  0.1703
  119MOL0     C15937  11.160   9.987   6.605 -0.5745  0.5013  0.3913
  119MOL0     O15938  11.104   9.900   6.702  1.2168 -0.2107  0.0653
  119MOL0     C15939  11.189   9.833   6.799 -0.0705 -0.2206 -0.4679
  119MOL0     C15940  11.200   9.922   6.926 -0.1128  0.1937 -0.0478
  119MOL0     C15941  11.280   9.846   7.030  0.3162  0.3456  0.3070
  119MOL0     C15942  11.282   9.905   7.170  0.4701  0.1665 -0.9821
  119MOL0     C15943  11.363   9.838   7.269 -0.0455 -0.0583  0.2879
  119MOL0     C15944  11.331   9.872   7.414 -0.2893  0.5750 -0.2649
  119MOL0     C15945  11.432   9.797   7.510 -0.1638  0.2262  0.1600
  119MOL0     C15946  11.403   9.643   7.531  0.0767  0.3593 -0.0139
  119MOL0     N15947  11.301   9.596   7.624 -0.2492 -1.0044  0.6979
  119MOL0     C15948  11.309   9.595   7.760  0.4356  0.3385  0.3865
  119MOL0     C15949  11.192   9.550   7.805 -0.3706  0.8804  0.7446
  119MOL0     C15950  11.149   9.543   7.948 -0.6315 -0.3596 -0.3385
  119MOL0     C15951  11.116   9.681   7.995 -0.4097 -0.0411 -0.0537
  119MOL0     C15952  11.000   9.742   7.911  1.1985 -0.4794 -0.6965
  119MOL0     C15953  10.923   9.841   8.000 -0.0223  0.4451  0.7627
  119MOL0     O15954  11.014   9.942   8.053 -0.2032  0.3776 -0.8463
  119MOL0     C15955  10.968  10.016   8.164  0.7898  0.2711  0.6682
  119MOL0     C15956  10.837  10.014   8.208  0.2413  0.0636  0.6269
  119MOL0     C15957  10.785  10.097   8.312 -0.1088  0.3676 -0.9286
  119MOL0     C15958  10.631  10.098   8.334 -1.0438 -0.4109  0.5070
  119MOL0     C15959  10.879  10.181   8.385  0.3582  0.2915  0.2504
  119MOL0     C15960  10.835  10.267   8.503  0.4315  0.0670  0.3645
  119MOL0     O15961  10.940  10.327   8.566 -0.0470  0.1884 -0.0809
  119MOL0     C15962  10.916  10.411   8.677 -0.0177 -0.7829  0.3758
  119MOL0     C15963  10.807  10.507   8.688 -1.2828 -0.3375  0.0308
  119MOL0     C15964  10.791  10.581   8.808  1.0871  0.3815 -0.0494
  119MOL0     C15965  10.877  10.572   8.915 -1.2759 -0.0820  0.0133
  119MOL0     O15966  10.853  10.643   9.028  0.4204 -0.0112  0.1246
  119MOL0     C15967  10.969  10.709   9.068  0.7629 -0.2367 -0.5305
  119MOL0     C15968  10.937  10.832   9.160 -0.2427 -1.2352  0.4331
  119MOL0     C15969  11.033  10.952   9.165  0.4482 -0.2877 -0.3221
  119MOL0     C15970  11.181  10.907   9.182 -0.5793 -0.0197  0.2785
  119MOL0     C15971  11.233  10.889   9.316  0.4910  0.0550 -0.1161
  119MOL0     C15972  11.215  10.740   9.368 -0.7569  0.1004  0.6614
  119MOL0     C15973  11.183  10.733   9.516  1.2456 -0.1433  0.3099
  119MOL0     C15974  11.304  10.745   9.610  0.5253 -0.5830 -0.0572
  119MOL0    Cl15975  11.358  10.908   9.610  0.0195 -0.2227  0.1023
  119MOL0     C15976  10.986  10.488   8.905 -0.6489  1.0780 -0.3088
  119MOL0     C15977  11.005  10.404   8.790 -0.1744  0.6838  0.7358
  119MOL0     O15978  10.716  10.310   8.505 -0.0726  0.9730 -0.5734
  119MOL0     C15979  11.007  10.183   8.340 -0.7918  0.3772  0.7651
  119MOL0     C15980  11.052  10.107   8.235  0.3819  1.1420  0.1064
  119MOL0     N15981  11.100   9.537   7.693 -0.6404  0.4750 -1.2243
  119MOL0     N15982  11.169   9.562   7.588  0.3287 -1.2530  0.1573
  119MOL0     C15983  11.293  10.030   6.600 -0.2404 -0.5799 -0.2727
  119MOL0     C15984  11.336  10.106   6.492  0.3738  0.4508  0.4641
  119MOL0     C15985  11.395  10.232   6.077  0.1687  0.2917  0.3160
  119MOL0     C15986  11.456  10.350   6.110  0.7301  0.0497 -1.7355
  119MOL0     C15987  11.523  10.425   6.017  0.9690  0.0753  0.4427
  119MOL0     C15988  11.551  10.364   5.891  1.0808 -0.0030  0.3338
  119MOL0     O15989  11.623  10.419   5.790  0.3852  0.4957  1.0669
  119MOL0     C15990  11.727  10.513   5.808  0.1641  0.0071  0.6178
  119MOL0     C15991  11.862  10.439   5.830  0.2562 -0.0647 -0.3169
  119MOL0     C15992  11.941  10.401   5.695 -0.0963 -0.6968 -0.0116
  119MOL0     C15993  12.068  10.326   5.728 -0.5890  0.5050  1.3894
  119MOL0     C15994  12.119  10.258   5.600  0.2250  0.2152  0.1459
  119MOL0     C15995  12.139  10.185   5.502  0.7538  0.0295 -0.1411
  119MOL0     C15996  11.488  10.243   5.856 -0.8355 -0.5511  0.1154
  119MOL0     C15997  11.418  10.178   5.951  0.4979  0.2694  0.3592
  119MOL0     H15998  11.056  10.091   6.301 -1.6577 -1.4158  0.1140
  119MOL0     H15999  10.975   9.964   6.505 -0.0568 -0.8373  0.5045
  119MOL0     H16000  11.135   9.744   6.834  1.5451 -0.6512  1.1150
  119MOL0     H16001  11.286   9.799   6.762  0.1321 -0.8429  0.5918
  119MOL0     H16002  11.256  10.011   6.897  1.2619 -0.3182  0.9346
  119MOL0     H16003  11.106   9.957   6.971  0.2192 -1.9239  2.5427
  119MOL0     H16004  11.226   9.752   7.048 -0.7002  0.5835 -1.2930
  119MOL0     H16005  11.379   9.812   6.997 -1.2110 -1.1991 -3.0868
  119MOL0     H16006  11.299  10.010   7.145 -4.1705  1.3219 -0.1419
  119MOL0     H16007  11.181   9.913   7.211  0.2272  1.5566 -1.7954
  119MOL0     H16008  11.365   9.734   7.235 -2.2394  1.2641 -4.9839
  119MOL0     H16009  11.466   9.867   7.246  0.2115 -1.8158 -1.0074
  119MOL0     H16010  11.344   9.980   7.424 -3.2919  0.8885  1.5667
  119MOL0     H16011  11.229   9.845   7.444 -1.2145  0.3961 -3.2405
  119MOL0     H16012  11.527   9.805   7.456 -0.9464 -2.5044 -1.8892
  119MOL0     H16013  11.437   9.856   7.601 -0.0320  3.0181 -1.5400
  119MOL0     H16014  11.499   9.603   7.564  1.4513  1.0063 -2.8619
  119MOL0     H16015  11.386   9.592   7.436  0.9153 -2.2523  1.1574
  119MOL0     H16016  11.391   9.648   7.809 -0.8684  1.9567  0.8949
  119MOL0     H16017  11.058   9.482   7.953 -0.1949 -0.9358  0.9440
  119MOL0     H16018  11.230   9.490   7.998 -0.7555 -0.8917 -0.6933
  119MOL0     H16019  11.200   9.749   7.987 -0.0512 -0.3339  1.0603
  119MOL0     H16020  11.082   9.680   8.099 -2.9524  5.1040 -0.4983
  119MOL0     H16021  10.929   9.660   7.892  0.8199  0.1326 -2.0844
  119MOL0     H16022  11.028   9.777   7.811  4.4279 -1.7949 -0.3767
  119MOL0     H16023  10.876   9.783   8.079  4.2920 -2.4754  1.5481
  119MOL0     H16024  10.840   9.886   7.945  0.7981 -0.1909 -1.0792
  119MOL0     H16025  10.770   9.947   8.154 -1.9553  1.7321  1.1675
  119MOL0     H16026  10.595  10.086   8.436 -3.4259 -0.2977 -0.2630
  119MOL0     H16027  10.591  10.196   8.304 -2.3048 -1.8768 -3.2196
  119MOL0     H16028  10.592  10.018   8.270 -0.8397 -0.3199  0.2653
  119MOL0     H16029  10.734  10.517   8.608  1.4366 -0.0236 -2.5589
  119MOL0     H16030  10.703  10.644   8.819 -0.0310 -1.4021  1.9333
  119MOL0     H16031  11.040  10.647   9.123  1.3462 -0.3556 -1.3956
  119MOL0     H16032  11.027  10.738   8.980  2.0867 -0.0111  0.3875
  119MOL0     H16033  10.839  10.858   9.119 -0.2614  0.6394  1.5526
  119MOL0     H16034  10.916  10.791   9.259 -1.5479 -2.9823 -0.5271
  119MOL0     H16035  11.013  11.012   9.254 -0.3590  0.4359 -0.9821
  119MOL0     H16036  11.025  11.000   9.068  0.0320 -2.0078 -1.1752
  119MOL0     H16037  11.206  10.816   9.126  3.1287  0.4825  0.8771
  119MOL0     H16038  11.245  10.980   9.131  0.2169 -0.0181  1.2724
  119MOL0     H16039  11.176  10.962   9.374 -0.6685  0.6267 -1.9051
  119MOL0     H16040  11.342  10.903   9.320  0.2733  1.5456  2.2982
  119MOL0     H16041  11.132  10.693   9.314  1.4870 -0.8876 -2.1369
  119MOL0     H16042  11.301  10.674   9.358 -1.3027 -0.8492  1.8526
  119MOL0     H16043  11.137  10.636   9.537  1.1343  0.2466  2.0408
  119MOL0     H16044  11.105  10.805   9.545  0.1959 -1.3565  0.5860
  119MOL0     H16045  11.383  10.672   9.591  0.7163 -0.7744  1.3508
  119MOL0     H16046  11.259  10.725   9.708 -0.7251  1.4969 -0.1425
  119MOL0     H16047  11.053  10.470   8.988 -2.6784 -0.5611  1.0986
  119MOL0     H16048  11.070  10.320   8.771 -0.9478 -0.1644  1.6624
  119MOL0     H16049  11.076  10.254   8.384  1.2219  0.4819 -2.2598
  119MOL0     H16050  11.157  10.113   8.207  0.5843  1.6564  0.9486
  119MOL0     H16051  11.356  10.021   6.687 -0.6163 -1.3675 -0.0743
  119MOL0     H16052  11.435  10.150   6.482  0.0917  0.8429 -0.8739
  119MOL0     H16053  11.443  10.393   6.209 -0.9632  1.0238 -2.3357
  119MOL0     H16054  11.564  10.524   6.032  2.0597 -0.2748 -0.1196
  119MOL0     H16055  11.720  10.575   5.717 -2.3731 -1.8555 -0.6015
  119MOL0     H16056  11.702  10.569   5.898 -4.0829 -0.8038  0.1565
  119MOL0     H16057  11.838  10.351   5.890  1.0611  0.0794  0.2375
  119MOL0     H16058  11.927  10.506   5.887  0.2021 -3.2402  3.9591
  119MOL0     H16059  11.967  10.472   5.616  0.3978 -3.1598 -2.2023
  119MOL0     H16060  11.878  10.333   5.636  1.0970 -1.5468 -0.3552
  119MOL0     H16061  12.063  10.261   5.816 -0.3729  1.0890  1.8391
  119MOL0     H16062  12.133  10.407   5.763 -0.1687 -0.9590  4.2671
  119MOL0     H16063  12.148  10.118   5.419 -2.0230 -1.3257  0.5127
  119MOL0     H16064  11.499  10.201   5.757  1.9974  1.1290 -0.4078
  119MOL0     H16065  11.391  10.078   5.921  3.5344 -0.5643  0.0842
  120MOL0     O16066   7.665  11.155   1.614 -0.0030  0.1335 -0.0530
  120MOL0     C16067   7.764  11.177   1.691 -0.5051 -0.0999 -0.8872
  120MOL0     O16068   7.799  11.304   1.741 -0.6072 -0.1739  0.9046
  120MOL0     C16069   7.724  11.414   1.709  1.3032 -0.8338 -1.3087
  120MOL0     C16070   7.787  11.525   1.642  0.4196  0.1569  0.5205
  120MOL0     C16071   7.719  11.641   1.608  0.3246 -0.1110  0.4087
  120MOL0     C16072   7.584  11.647   1.643 -0.3142 -0.5166  0.0010
  120MOL0     O16073   7.515  11.761   1.609 -1.0797 -0.6789  0.3875
  120MOL0     C16074   7.368  11.779   1.626  0.8202  1.7435  0.6350
  120MOL0     C16075   7.339  11.835   1.773 -1.1080 -0.2220 -0.1118
  120MOL0     C16076   7.378  11.985   1.787 -0.1267  1.0460 -0.1172
  120MOL0     C16077   7.384  12.046   1.931  0.3787  0.6726  0.5086
  120MOL0     C16078   7.358  12.196   1.927 -0.4901 -1.1227  0.2178
  120MOL0     C16079   7.414  12.266   2.048  0.4602 -0.1610  0.8087
  120MOL0     C16080   7.389  12.417   2.038 -0.4452  0.4362  0.4997
  120MOL0     C16081   7.280  12.460   2.147 -0.2666  0.4192 -0.2233
  120MOL0     N16082   7.295  12.609   2.154  0.4271 -0.1276 -0.7768
  120MOL0     C16083   7.241  12.686   2.259 -0.4499 -0.3165  0.5118
  120MOL0     C16084   7.283  12.815   2.240  0.6543  0.0574 -0.0788
  120MOL0     C16085   7.262  12.938   2.331  1.0522  0.0773 -0.4832
  120MOL0     C16086   7.372  12.950   2.433 -0.2447 -0.4439 -0.4650
  120MOL0     C16087   7.520  13.000   2.387 -0.4580  0.1762 -0.2606
  120MOL0     C16088   7.610  12.967   2.507 -0.3590 -0.3996  0.5120
  120MOL0     O16089   7.614  12.824   2.542  0.6719 -0.5194 -0.2142
  120MOL0     C16090   7.710  12.775   2.631 -0.1946 -0.5437  0.0912
  120MOL0     C16091   7.801  12.861   2.700 -0.1919  0.3547 -0.4665
  120MOL0     C16092   7.890  12.799   2.795 -0.8290  0.0581  0.0380
  120MOL0     C16093   7.941  12.897   2.894  0.4455  0.6607 -0.5060
  120MOL0     C16094   7.892  12.659   2.811  0.4618  0.7168  0.6389
  120MOL0     C16095   7.970  12.584   2.907 -0.1204  0.5231  0.1919
  120MOL0     O16096   7.893  12.528   2.997 -0.7186  0.2312 -0.5262
  120MOL0     C16097   7.956  12.447   3.093 -0.0725 -1.1963 -0.3004
  120MOL0     C16098   7.864  12.409   3.191 -0.2166 -0.0763 -1.0811
  120MOL0     C16099   7.896  12.324   3.298  0.2376 -0.7839 -0.0611
  120MOL0     C16100   8.026  12.260   3.297 -0.0218  0.2117  0.1955
  120MOL0     O16101   8.050  12.168   3.395 -0.9848  0.4618  0.2141
  120MOL0     C16102   8.126  12.049   3.361 -0.6877  0.7987 -0.6828
  120MOL0     C16103   8.276  12.070   3.394 -0.1117 -0.0570  0.2329
  120MOL0     C16104   8.347  11.941   3.375  1.3453 -0.2983  0.1419
  120MOL0     C16105   8.498  11.952   3.409  0.3767  0.1875 -0.1155
  120MOL0     C16106   8.578  11.835   3.363 -0.3311 -0.6166 -0.4832
  120MOL0     C16107   8.724  11.840   3.412  0.2278  0.6806 -0.1145
  120MOL0     C16108   8.808  11.704   3.370 -0.2117 -0.0401 -0.5497
  120MOL0     C16109   8.959  11.718   3.379 -0.5506 -0.7417 -0.2317
  120MOL0    Cl16110   9.021  11.828   3.246 -0.4242 -0.0732 -0.6120
  120MOL0     C16111   8.105  12.277   3.188  0.1057  1.0823  1.1445
  120MOL0     C16112   8.076  12.373   3.091  0.4370  0.0079  0.1925
  120MOL0     O16113   8.098  12.588   2.900  0.3250 -0.6820  0.2365
  120MOL0     C16114   7.811  12.580   2.734 -0.5149  0.3081  0.0114
  120MOL0     C16115   7.727  12.635   2.649 -0.4296  0.6312  1.3932
  120MOL0     N16116   7.352  12.811   2.123 -1.4096 -0.2960  0.8197
  120MOL0     N16117   7.348  12.699   2.064 -0.0752  0.0568  0.3717
  120MOL0     C16118   7.522  11.544   1.714 -0.8036 -0.3575 -0.4526
  120MOL0     C16119   7.592  11.430   1.751 -0.5562 -0.7720  0.4326
  120MOL0     C16120   7.856  11.068   1.731 -0.4313 -1.1360 -0.2911
  120MOL0     C16121   7.857  10.935   1.680  0.4152 -0.0951  0.1452
  120MOL0     C16122   7.956  10.846   1.726  0.0024  0.2073  1.3463
  120MOL0     C16123   8.035  10.877   1.834 -0.8660 -0.5764 -0.4747
  120MOL0     O16124   8.128  10.799   1.892  0.3998  0.0021 -0.7300
  120MOL0     C16125   8.169  10.683   1.805 -0.8435 -0.9427 -0.3693
  120MOL0     C16126   8.289  10.596   1.859  0.4084  1.1130  0.1645
  120MOL0     C16127   8.248  10.530   1.991  0.0479 -0.5821 -0.6604
  120MOL0     C16128   8.137  10.427   1.982  0.6577  0.5242 -0.5180
  120MOL0     C16129   8.137  10.325   2.081  0.4120 -0.0691  0.5765
  120MOL0     C16130   8.153  10.232   2.161 -0.4918 -0.2839  0.2347
  120MOL0     C16131   8.026  11.003   1.884  0.4939  0.9007 -1.1639
  120MOL0     C16132   7.955  11.100   1.833  0.1384 -0.3168 -0.2938
  120MOL0     H16133   7.891  11.511   1.615  1.1424  1.0672  2.5921
  120MOL0     H16134   7.757  11.731   1.561 -0.4382  0.4368  0.8138
  120MOL0     H16135   7.329  11.851   1.554 -1.2469  0.3098  0.2372
  120MOL0     H16136   7.310  11.688   1.611 -0.1465  2.2613  1.1875
  120MOL0     H16137   7.236  11.821   1.805 -0.5137 -1.5979  1.3415
  120MOL0     H16138   7.404  11.794   1.851  1.0288  0.8721 -1.1988
  120MOL0     H16139   7.478  11.984   1.743 -1.4181  3.6420 -3.5507
  120MOL0     H16140   7.312  12.039   1.719  0.9603 -1.4154 -3.3738
  120MOL0     H16141   7.302  11.996   1.983  1.7267  0.6270  2.6968
  120MOL0     H16142   7.477  12.016   1.980  0.7069 -0.5608 -0.7886
  120MOL0     H16143   7.415  12.239   1.845 -0.9121 -1.1857 -0.1132
  120MOL0     H16144   7.251  12.209   1.907 -0.8656 -3.0265  0.7659
  120MOL0     H16145   7.373  12.217   2.138  0.2530  0.2272  0.9283
  120MOL0     H16146   7.523  12.256   2.053  0.6707  0.6306 -1.3039
  120MOL0     H16147   7.482  12.461   2.075  0.7827 -2.7723  1.5421
  120MOL0     H16148   7.370  12.469   1.944  3.2518  1.5726  0.2334
  120MOL0     H16149   7.316  12.423   2.243 -1.2480  1.4589  0.5679
  120MOL0     H16150   7.177  12.430   2.128  0.1199 -0.0695 -1.6502
  120MOL0     H16151   7.189  12.648   2.346 -0.4765  1.2812  1.2160
  120MOL0     H16152   7.250  13.037   2.286  1.3031  0.5468  0.4399
  120MOL0     H16153   7.172  12.910   2.388  1.4849 -0.8523 -0.2547
  120MOL0     H16154   7.370  12.856   2.490 -2.2390 -1.2673 -1.7865
  120MOL0     H16155   7.340  13.028   2.503  1.3005  0.7386 -1.0164
  120MOL0     H16156   7.520  13.109   2.376 -1.6840  0.4711  1.9218
  120MOL0     H16157   7.554  12.940   2.302 -1.5199 -1.5395  0.4852
  120MOL0     H16158   7.579  13.032   2.589 -0.0974  2.1081 -1.2564
  120MOL0     H16159   7.705  13.016   2.484  0.0676  0.4151  3.5491
  120MOL0     H16160   7.796  12.970   2.702 -1.8267  0.3382  2.4387
  120MOL0     H16161   7.911  13.002   2.880  0.9559  0.6826 -1.5323
  120MOL0     H16162   7.915  12.865   2.995  1.2795  2.8385  0.4698
  120MOL0     H16163   8.049  12.907   2.894  0.5973  0.0550 -3.6164
  120MOL0     H16164   7.766  12.456   3.194 -1.0775 -1.8335 -0.5859
  120MOL0     H16165   7.820  12.310   3.374  1.0537 -0.5543  0.8231
  120MOL0     H16166   8.085  11.967   3.420  2.3382 -0.4527 -0.1206
  120MOL0     H16167   8.107  12.013   3.259  0.4555 -0.4443 -0.4750
  120MOL0     H16168   8.319  12.132   3.315 -3.5386  3.8213  1.0821
  120MOL0     H16169   8.304  12.112   3.491  0.9597 -2.1847  0.9172
  120MOL0     H16170   8.326  11.906   3.273  1.0189  3.2675 -1.1582
  120MOL0     H16171   8.295  11.869   3.438 -1.4301  0.0612 -1.5804
  120MOL0     H16172   8.538  12.039   3.356 -0.1400  0.2849 -0.3544
  120MOL0     H16173   8.508  11.963   3.517 -4.1655 -2.8600  0.9018
  120MOL0     H16174   8.587  11.831   3.254  1.6411 -0.1461 -0.3594
  120MOL0     H16175   8.522  11.748   3.399 -1.9854  0.1652 -1.0584
  120MOL0     H16176   8.769  11.927   3.364  3.5478 -1.3092 -0.9297
  120MOL0     H16177   8.727  11.841   3.522  1.1597  3.0407 -0.1258
  120MOL0     H16178   8.789  11.682   3.264  1.3834 -0.2183 -0.8249
  120MOL0     H16179   8.777  11.634   3.448 -0.4163  0.4813 -0.1601
  120MOL0     H16180   8.994  11.617   3.356 -0.4301 -0.5390 -0.9797
  120MOL0     H16181   8.996  11.752   3.476 -1.5384 -0.3811  0.0318
  120MOL0     H16182   8.194  12.217   3.174  0.3338  1.0891  2.4737
  120MOL0     H16183   8.148  12.384   3.010  0.6014 -3.4406 -0.2864
  120MOL0     H16184   7.809  12.472   2.739  2.0126  0.2514  1.5487
  120MOL0     H16185   7.678  12.556   2.593 -0.3173 -2.3520  5.0975
  120MOL0     H16186   7.418  11.556   1.741 -0.1373  2.4653  1.2377
  120MOL0     H16187   7.554  11.346   1.808 -0.7346 -1.0766 -0.1320
  120MOL0     H16188   7.783  10.915   1.603 -1.9669  4.0672  1.0059
  120MOL0     H16189   7.949  10.744   1.690  2.2797 -0.4598  2.6071
  120MOL0     H16190   8.084  10.617   1.784 -1.7304 -1.1567  3.1379
  120MOL0     H16191   8.209  10.728   1.714 -3.3994  1.0809 -0.6134
  120MOL0     H16192   8.379  10.657   1.869  0.6217  0.5407  2.4907
  120MOL0     H16193   8.313  10.516   1.788  3.7756 -0.0129  2.3405
  120MOL0     H16194   8.227  10.603   2.069 -0.8396 -1.5500  0.0345
  120MOL0     H16195   8.339  10.478   2.023  0.4524  0.4477 -0.0922
  120MOL0     H16196   8.140  10.376   1.885 -0.3832  0.8749 -0.7506
  120MOL0     H16197   8.041  10.479   1.994  0.7535  0.1916  2.1295
  120MOL0     H16198   8.168  10.158   2.237  0.1341 -0.2037  0.1891
  120MOL0     H16199   8.093  11.041   1.960 -2.8889  4.2809  0.4552
  120MOL0     H16200   7.973  11.187   1.895  1.7000 -1.0660  0.3720
  121MOL0     O16201   1.568   2.282   2.470 -0.3021 -1.2376  0.9414
  121MOL0     C16202   1.584   2.159   2.464 -0.1257 -0.8596  1.1609
  121MOL0     O16203   1.646   2.091   2.559 -0.7396  0.2835  1.5147
  121MOL0     C16204   1.732   2.162   2.636  0.1690  0.3328  0.6442
  121MOL0     C16205   1.813   2.267   2.590  0.9257 -0.2911 -0.3667
  121MOL0     C16206   1.892   2.343   2.672  0.7087 -0.0255  0.0434
  121MOL0     C16207   1.906   2.308   2.807 -0.1667  0.4088  0.4401
  121MOL0     O16208   1.982   2.375   2.899 -0.3310 -0.9145  0.0385
  121MOL0     C16209   2.110   2.405   2.853 -0.0876 -0.5354  0.0483
  121MOL0     C16210   2.159   2.524   2.935 -1.2662 -0.6986  0.0810
  121MOL0     C16211   2.298   2.553   2.890 -0.5678 -0.4815 -0.3055
  121MOL0     C16212   2.414   2.462   2.960 -0.1315 -0.1967 -1.3225
  121MOL0     C16213   2.441   2.530   3.098 -0.3831 -0.1507 -0.3195
  121MOL0     C16214   2.552   2.456   3.190  0.0819  0.7906  0.5771
  121MOL0     C16215   2.611   2.545   3.290  0.2699 -0.1211  0.9773
  121MOL0     C16216   2.680   2.474   3.402 -0.2835 -0.2405  0.5609
  121MOL0     N16217   2.802   2.402   3.350 -1.3566 -0.4930 -0.6336
  121MOL0     C16218   2.926   2.449   3.359  0.2835 -0.5028  0.2390
  121MOL0     C16219   3.008   2.348   3.326 -0.2905 -0.2867 -0.7671
  121MOL0     C16220   3.156   2.357   3.320  0.5618 -0.1045  0.3475
  121MOL0     C16221   3.190   2.476   3.223 -0.3656  0.9415 -0.6969
  121MOL0     C16222   3.144   2.469   3.085  0.1154  0.9530  1.3661
  121MOL0     C16223   3.152   2.324   3.019  0.1943 -0.7484  0.0323
  121MOL0     O16224   3.101   2.336   2.888 -0.0207  0.8233 -0.2132
  121MOL0     C16225   2.969   2.306   2.863 -0.5178 -1.0342 -0.3878
  121MOL0     C16226   2.949   2.273   2.729 -0.1256 -0.0024  0.5067
  121MOL0     C16227   2.814   2.240   2.682 -0.4279 -0.5471 -0.1214
  121MOL0     C16228   2.801   2.187   2.541 -0.1459  0.0149  0.5807
  121MOL0     C16229   2.703   2.237   2.774  0.4044 -0.3132  0.6272
  121MOL0     C16230   2.556   2.218   2.736 -0.8174 -0.3921 -0.6834
  121MOL0     O16231   2.527   2.239   2.607  0.9498  0.4902  1.0489
  121MOL0     C16232   2.400   2.223   2.557 -0.6084  0.6052  0.2682
  121MOL0     C16233   2.304   2.316   2.555  1.1779 -0.1990  0.1898
  121MOL0     C16234   2.172   2.277   2.497 -0.0618  0.2757 -0.0379
  121MOL0     C16235   2.143   2.147   2.459 -0.5895 -0.7871  0.1568
  121MOL0     O16236   2.018   2.126   2.425  0.4694  0.3776 -0.0320
  121MOL0     C16237   1.984   1.989   2.397 -0.1030  0.4372 -0.3979
  121MOL0     C16238   1.849   1.970   2.321  0.2398 -0.9027  0.2796
  121MOL0     C16239   1.848   1.859   2.204  0.2666  0.5908 -0.0999
  121MOL0     C16240   1.741   1.886   2.089 -0.6807  0.9451  0.4563
  121MOL0     C16241   1.729   1.780   1.979  0.2720 -0.1170 -0.2579
  121MOL0     C16242   1.595   1.787   1.894  1.6491 -0.0921  0.3068
  121MOL0     C16243   1.585   1.707   1.764 -0.2802  0.5778 -0.9191
  121MOL0     C16244   1.686   1.742   1.667 -1.1066  0.2791 -0.1657
  121MOL0    Cl16245   1.657   1.619   1.533  0.3575 -0.0950  0.4383
  121MOL0     C16246   2.250   2.058   2.470 -0.1403  0.1579  1.0185
  121MOL0     C16247   2.378   2.097   2.515  0.2095 -0.5819  0.4710
  121MOL0     O16248   2.481   2.165   2.820 -0.3615 -0.6086 -0.2049
  121MOL0     C16249   2.732   2.266   2.906 -0.1196  0.3017  0.3304
  121MOL0     C16250   2.866   2.294   2.957 -0.0600 -0.2994 -0.2134
  121MOL0     N16251   2.929   2.244   3.288 -0.1824  0.4801 -0.0909
  121MOL0     N16252   2.809   2.276   3.307  0.4638 -0.0340  0.5165
  121MOL0     C16253   1.831   2.192   2.854 -0.3403 -0.4771  0.8418
  121MOL0     C16254   1.753   2.117   2.768  0.5227 -0.0867 -0.7096
  121MOL0     C16255   1.513   2.095   2.353  0.1369  0.9040 -0.4165
  121MOL0     C16256   1.448   2.163   2.250  0.3356  1.1475  0.4476
  121MOL0     C16257   1.373   2.083   2.154 -0.7753 -0.1530  0.8540
  121MOL0     C16258   1.357   1.944   2.164 -0.1385 -0.1396  0.5140
  121MOL0     O16259   1.277   1.875   2.085  0.2765  0.2157 -0.3740
  121MOL0     C16260   1.172   1.939   2.003 -0.2882  0.8951 -0.1213
  121MOL0     C16261   1.069   1.843   1.946  0.1446 -0.7105  0.8668
  121MOL0     C16262   1.142   1.729   1.879 -0.0537  0.8242 -0.1448
  121MOL0     C16263   1.070   1.604   1.818 -0.6424 -0.9777  0.1181
  121MOL0     C16264   1.011   1.651   1.694 -0.3488 -0.0962 -0.5763
  121MOL0     C16265   0.949   1.679   1.591 -0.6085 -0.2276 -1.0590
  121MOL0     C16266   1.424   1.883   2.268 -0.9047 -0.0941  0.3667
  121MOL0     C16267   1.501   1.954   2.359  0.5977  0.4005  1.6194
  121MOL0     H16268   1.819   2.290   2.484 -0.5161  4.4045  0.3234
  121MOL0     H16269   1.938   2.436   2.638  0.8207  0.7471  2.1350
  121MOL0     H16270   2.161   2.311   2.877 -0.9804 -2.2103 -3.8229
  121MOL0     H16271   2.125   2.417   2.745  1.7106 -1.5142  0.1405
  121MOL0     H16272   2.098   2.614   2.923 -0.0908  1.0072  4.4811
  121MOL0     H16273   2.154   2.516   3.044 -1.3739 -2.1714 -0.0206
  121MOL0     H16274   2.292   2.563   2.781 -0.7310 -0.1907 -0.2714
  121MOL0     H16275   2.317   2.657   2.918 -0.8455 -0.4100 -0.3773
  121MOL0     H16276   2.382   2.357   2.960 -1.2770  0.1251 -2.6110
  121MOL0     H16277   2.500   2.451   2.894 -0.8237  1.7001 -2.6509
  121MOL0     H16278   2.475   2.633   3.085 -0.6314 -0.1486 -1.0159
  121MOL0     H16279   2.345   2.540   3.149 -0.0849 -1.1799  0.4656
  121MOL0     H16280   2.516   2.371   3.249  3.0695 -1.2008 -0.2081
  121MOL0     H16281   2.642   2.430   3.133 -1.2263 -3.0344 -0.0210
  121MOL0     H16282   2.670   2.627   3.250 -0.2436  0.2684  1.0048
  121MOL0     H16283   2.524   2.596   3.334 -0.0208  0.0224  0.2415
  121MOL0     H16284   2.611   2.401   3.444 -0.3947 -0.1652  0.5106
  121MOL0     H16285   2.715   2.543   3.480 -0.2303 -0.1725  0.4773
  121MOL0     H16286   2.969   2.545   3.388  3.0588 -1.7716  0.6860
  121MOL0     H16287   3.196   2.375   3.420  1.5468  1.6378 -0.3093
  121MOL0     H16288   3.192   2.264   3.275 -1.2226 -0.5313 -0.2918
  121MOL0     H16289   3.300   2.470   3.221 -0.4001  0.4438 -1.9763
  121MOL0     H16290   3.164   2.571   3.271  2.8040  2.0905 -0.9692
  121MOL0     H16291   3.196   2.542   3.022  0.2941  2.1011  2.7910
  121MOL0     H16292   3.038   2.494   3.083  0.2786  1.9640 -1.9189
  121MOL0     H16293   3.097   2.251   3.079 -0.8614 -0.4058 -0.5118
  121MOL0     H16294   3.254   2.285   3.028 -0.2532 -1.4211  3.4097
  121MOL0     H16295   3.037   2.252   2.669 -0.5358 -3.6844  0.9514
  121MOL0     H16296   2.892   2.140   2.502  0.9907  2.0066  0.6581
  121MOL0     H16297   2.738   2.099   2.531  4.0820 -3.2554 -0.3766
  121MOL0     H16298   2.775   2.268   2.472  3.0050  2.0913  1.5934
  121MOL0     H16299   2.312   2.416   2.596  0.6691  0.6851 -1.7216
  121MOL0     H16300   2.089   2.346   2.501  0.0311  0.3321  1.0608
  121MOL0     H16301   2.058   1.930   2.342 -0.4375 -2.1602  1.7606
  121MOL0     H16302   1.970   1.941   2.494 -1.2872  0.6604 -0.4454
  121MOL0     H16303   1.776   1.935   2.394 -0.3645  1.8050  1.0869
  121MOL0     H16304   1.813   2.062   2.274  0.2958 -2.0780 -2.2689
  121MOL0     H16305   1.836   1.757   2.240 -4.5653  0.0667 -2.3920
  121MOL0     H16306   1.947   1.865   2.158 -0.1286 -2.7932 -1.6269
  121MOL0     H16307   1.649   1.898   2.147 -0.5332  0.3711  0.8161
  121MOL0     H16308   1.758   1.979   2.035  1.2285 -0.4232 -1.4474
  121MOL0     H16309   1.730   1.686   2.036  0.9903 -0.5173 -0.9109
  121MOL0     H16310   1.822   1.777   1.921  2.5739  1.9617  2.9974
  121MOL0     H16311   1.521   1.754   1.969  4.6395 -2.6090  2.3876
  121MOL0     H16312   1.588   1.894   1.871  4.9744  0.4115  1.1223
  121MOL0     H16313   1.481   1.710   1.732 -2.0735 -0.4263  3.8658
  121MOL0     H16314   1.607   1.603   1.789 -2.0525  0.3180 -0.3523
  121MOL0     H16315   1.788   1.729   1.706 -1.8962 -0.9943  1.6253
  121MOL0     H16316   1.673   1.845   1.636  0.7511  0.6863  0.2990
  121MOL0     H16317   2.255   1.963   2.417  0.7530 -0.1599  1.6444
  121MOL0     H16318   2.454   2.018   2.513  0.8506  0.0456 -0.6195
  121MOL0     H16319   2.655   2.269   2.983  1.4054  0.7207  1.9260
  121MOL0     H16320   2.887   2.320   3.061 -1.6759  1.0899 -0.1934
  121MOL0     H16321   1.863   2.161   2.953 -0.5051  0.3456  1.1622
  121MOL0     H16322   1.695   2.034   2.807  0.7489  0.0294 -0.1157
  121MOL0     H16323   1.462   2.270   2.236 -0.2525  0.9097 -2.7319
  121MOL0     H16324   1.318   2.152   2.091 -3.4147 -0.2427  2.8732
  121MOL0     H16325   1.124   2.019   2.061  0.6879  1.6806 -0.3699
  121MOL0     H16326   1.214   1.971   1.907 -0.3294 -0.5475 -0.6445
  121MOL0     H16327   1.005   1.891   1.871  1.6765 -0.4153 -0.2959
  121MOL0     H16328   0.995   1.811   2.020 -2.1036 -0.5039 -1.1599
  121MOL0     H16329   1.196   1.677   1.958 -0.8154 -2.1111 -1.4111
  121MOL0     H16330   1.223   1.761   1.813  0.1965 -1.2103 -0.9154
  121MOL0     H16331   0.996   1.575   1.893 -0.5647 -1.7167 -0.0882
  121MOL0     H16332   1.146   1.529   1.797 -2.1693 -1.8766 -2.6305
  121MOL0     H16333   0.891   1.702   1.504 -1.0337  5.3768  0.3206
  121MOL0     H16334   1.432   1.775   2.269  2.4984  0.0393  0.8177
  121MOL0     H16335   1.546   1.890   2.434 -0.5518 -0.8149  1.3094
  122MOL0     O16336   5.549   5.057   5.782 -0.2484 -0.5886  0.3687
  122MOL0     C16337   5.571   4.970   5.696 -0.4814 -0.9348 -0.0854
  122MOL0     O16338   5.587   5.000   5.560 -0.4403  0.0567  0.3846
  122MOL0     C16339   5.581   5.131   5.518  0.0845 -0.0830  0.5825
  122MOL0     C16340   5.473   5.207   5.533 -0.2949 -0.5476  0.1013
  122MOL0     C16341   5.464   5.345   5.498  0.5187 -0.1208  0.1048
  122MOL0     C16342   5.577   5.404   5.435  0.5153  0.0556  0.2135
  122MOL0     O16343   5.580   5.539   5.394  0.3916 -0.2712 -0.2240
  122MOL0     C16344   5.463   5.626   5.426  0.3627  1.4932 -0.1527
  122MOL0     C16345   5.523   5.766   5.403  0.8211 -0.8681 -0.0811
  122MOL0     C16346   5.410   5.858   5.381 -0.1201 -1.2210  0.5196
  122MOL0     C16347   5.419   6.013   5.413 -0.0267  0.2764 -0.1562
  122MOL0     C16348   5.462   6.060   5.550 -0.2134 -0.0932  0.1612
  122MOL0     C16349   5.456   6.215   5.552  0.3527 -0.3316 -0.4228
  122MOL0     C16350   5.497   6.279   5.689  1.1266 -0.9536  0.0393
  122MOL0     C16351   5.660   6.278   5.699  0.6350  0.7684 -0.0914
  122MOL0     N16352   5.707   6.357   5.805  0.7208 -0.8112  0.2457
  122MOL0     C16353   5.661   6.353   5.930 -0.1462  0.6996  0.5065
  122MOL0     C16354   5.717   6.460   5.988  0.8856  0.7043 -1.0300
  122MOL0     C16355   5.679   6.494   6.124  0.0869  0.3125 -0.6555
  122MOL0     C16356   5.793   6.457   6.216 -0.0728 -0.6314  0.0463
  122MOL0     C16357   5.750   6.512   6.353  0.0188  0.1985 -0.5201
  122MOL0     C16358   5.864   6.495   6.453  1.2856 -1.3105  0.1358
  122MOL0     O16359   5.899   6.361   6.489  0.2006 -0.7758  0.0230
  122MOL0     C16360   5.983   6.343   6.591  0.4435 -0.0264 -0.5259
  122MOL0     C16361   6.085   6.257   6.565 -0.1136 -1.0619 -0.5708
  122MOL0     C16362   6.184   6.235   6.667  0.2174  1.1296  0.1619
  122MOL0     C16363   6.299   6.123   6.636  0.4477 -0.6755 -0.8639
  122MOL0     C16364   6.186   6.317   6.783 -0.6059 -0.5193  0.1693
  122MOL0     C16365   6.295   6.330   6.877  0.3219  0.5298 -0.5051
  122MOL0     O16366   6.275   6.274   6.993  0.3494 -0.6853 -0.1640
  122MOL0     C16367   6.384   6.267   7.072 -0.5273  0.2553  0.3372
  122MOL0     C16368   6.382   6.334   7.187 -0.1386  0.1903  0.0279
  122MOL0     C16369   6.492   6.325   7.270  0.7285 -0.3468  0.8469
  122MOL0     C16370   6.604   6.241   7.240  0.3180  0.1924  0.2355
  122MOL0     O16371   6.709   6.230   7.330  0.3343  0.0451  0.0813
  122MOL0     C16372   6.798   6.115   7.321 -0.1149 -0.5370 -0.1873
  122MOL0     C16373   6.890   6.098   7.442  0.3778  0.1026 -0.4199
  122MOL0     C16374   7.018   6.182   7.457 -0.2151  0.0214  0.8252
  122MOL0     C16375   7.086   6.122   7.581  0.9119  0.2686  0.2972
  122MOL0     C16376   7.226   6.175   7.591  0.0754  0.5055 -0.0476
  122MOL0     C16377   7.306   6.108   7.705  1.6652  0.2401  1.3835
  122MOL0     C16378   7.453   6.153   7.689  0.2617 -0.0917  0.4986
  122MOL0     C16379   7.546   6.103   7.798  0.0601 -0.4724  0.1703
  122MOL0    Cl16380   7.530   5.928   7.836  0.0749 -0.0424 -0.3527
  122MOL0     C16381   6.607   6.184   7.107  0.6135  0.6803 -0.1482
  122MOL0     C16382   6.497   6.198   7.025  0.7847 -0.1733 -0.1949
  122MOL0     O16383   6.397   6.367   6.830 -0.6183 -0.1025 -0.6736
  122MOL0     C16384   6.073   6.390   6.813 -0.1109 -0.9564 -0.3591
  122MOL0     C16385   5.969   6.407   6.715 -1.6688  0.7008 -0.5245
  122MOL0     N16386   5.791   6.533   5.899 -0.4214  0.2887 -0.7715
  122MOL0     N16387   5.790   6.461   5.788  0.8549 -0.3516 -0.3458
  122MOL0     C16388   5.693   5.327   5.416  0.2830 -0.1473  0.2668
  122MOL0     C16389   5.694   5.196   5.454 -0.9463  0.7693 -1.8507
  122MOL0     C16390   5.552   4.827   5.726  0.0752 -0.1293 -0.4925
  122MOL0     C16391   5.511   4.798   5.858  0.0283 -1.0432  0.2097
  122MOL0     C16392   5.502   4.667   5.884 -0.0996 -0.0397 -0.1462
  122MOL0     C16393   5.534   4.568   5.798 -0.0493  0.7397  0.0923
  122MOL0     O16394   5.541   4.442   5.859  0.4899  0.2511  0.0174
  122MOL0     C16395   5.573   4.320   5.779 -0.1611 -0.2593 -0.3507
  122MOL0     C16396   5.721   4.304   5.768  0.2097 -0.7016  0.9477
  122MOL0     C16397   5.792   4.286   5.906 -0.2246 -0.5160  0.4715
  122MOL0     C16398   5.810   4.430   5.981 -0.6027  0.5528 -0.0263
  122MOL0     C16399   5.864   4.538   5.900 -0.5293  0.1810 -0.1831
  122MOL0     C16400   5.932   4.626   5.846  0.6630 -0.0992 -0.7352
  122MOL0     C16401   5.570   4.595   5.672 -0.4092 -0.2530  0.1076
  122MOL0     C16402   5.576   4.729   5.633 -0.4396 -0.6374  0.0584
  122MOL0     H16403   5.389   5.158   5.582 -1.6232  3.1053  1.8705
  122MOL0     H16404   5.367   5.392   5.512  0.3034 -0.5158 -0.0450
  122MOL0     H16405   5.377   5.606   5.361  1.1824  0.0724 -0.8277
  122MOL0     H16406   5.425   5.603   5.526 -2.3135  1.5536 -1.0804
  122MOL0     H16407   5.576   5.809   5.488 -1.1746 -3.6287  2.7877
  122MOL0     H16408   5.592   5.764   5.319 -1.0323 -1.4570 -1.6727
  122MOL0     H16409   5.388   5.850   5.274 -0.4410  0.8141  0.3918
  122MOL0     H16410   5.320   5.819   5.429 -0.0073 -3.2038 -0.7776
  122MOL0     H16411   5.483   6.068   5.344  1.3562  0.4411  1.2074
  122MOL0     H16412   5.315   6.043   5.397 -0.0856 -0.4417 -1.2436
  122MOL0     H16413   5.398   6.016   5.626  1.5267 -0.0294  1.7340
  122MOL0     H16414   5.564   6.034   5.582 -0.1605 -1.8929 -1.3102
  122MOL0     H16415   5.520   6.253   5.472  2.8170  1.1582  2.0730
  122MOL0     H16416   5.358   6.255   5.525 -0.1986 -1.4870 -0.2290
  122MOL0     H16417   5.465   6.384   5.696 -3.3309 -1.8988 -2.5239
  122MOL0     H16418   5.436   6.236   5.768 -1.1374  0.3488 -0.9134
  122MOL0     H16419   5.707   6.302   5.603  0.9128  0.1178 -0.1227
  122MOL0     H16420   5.684   6.178   5.734 -0.0798  0.9178  0.8747
  122MOL0     H16421   5.582   6.288   5.965 -2.3871  1.0610 -3.2773
  122MOL0     H16422   5.663   6.602   6.134  1.2462  0.4603 -0.1865
  122MOL0     H16423   5.588   6.446   6.160 -1.6848  4.2460  0.6015
  122MOL0     H16424   5.880   6.517   6.186 -1.3174  1.7303  0.9107
  122MOL0     H16425   5.806   6.349   6.212  0.2600 -0.5761 -0.5874
  122MOL0     H16426   5.657   6.468   6.390 -0.1761 -0.8530 -2.1565
  122MOL0     H16427   5.729   6.619   6.347  1.9536  0.5573 -1.8460
  122MOL0     H16428   5.822   6.530   6.548  1.1347 -2.6174  0.5737
  122MOL0     H16429   5.952   6.556   6.435  1.5705 -1.6065  0.5069
  122MOL0     H16430   6.098   6.205   6.471  0.5461  1.4981 -2.0202
  122MOL0     H16431   6.292   6.073   6.539 -0.1980 -4.2379  0.8443
  122MOL0     H16432   6.396   6.174   6.635 -0.3396  1.2576  2.6621
  122MOL0     H16433   6.308   6.051   6.718  2.7122 -1.3324 -1.5990
  122MOL0     H16434   6.295   6.393   7.215 -1.2169 -1.9188  1.4096
  122MOL0     H16435   6.488   6.391   7.356  1.0459  1.4644 -0.4791
  122MOL0     H16436   6.742   6.023   7.302 -1.1920  0.3263 -1.4099
  122MOL0     H16437   6.870   6.139   7.243 -0.4048 -0.4877 -0.4440
  122MOL0     H16438   6.820   6.108   7.525  0.4394 -1.0635 -0.2064
  122MOL0     H16439   6.927   5.996   7.429  1.2150  0.1935  0.9954
  122MOL0     H16440   6.990   6.288   7.462  0.4943  0.2032  0.9665
  122MOL0     H16441   7.082   6.177   7.368  0.3687 -1.9499  1.3195
  122MOL0     H16442   7.030   6.136   7.674  1.4835 -0.4903  0.7663
  122MOL0     H16443   7.100   6.014   7.569  0.5414  0.3286 -0.7408
  122MOL0     H16444   7.214   6.283   7.602  0.7550  0.4009  2.4838
  122MOL0     H16445   7.280   6.158   7.497 -0.4552  1.9901 -0.6399
  122MOL0     H16446   7.261   6.137   7.801 -4.2803 -2.0460 -0.2285
  122MOL0     H16447   7.303   5.999   7.697  0.2349  0.4193 -2.0094
  122MOL0     H16448   7.457   6.261   7.677 -2.5472  0.0387  0.0925
  122MOL0     H16449   7.488   6.117   7.592 -2.0896 -0.2018 -0.3768
  122MOL0     H16450   7.529   6.161   7.890  1.6496 -2.4124  1.7882
  122MOL0     H16451   7.649   6.132   7.775  0.0130  0.1585  0.7194
  122MOL0     H16452   6.685   6.109   7.094 -1.6092 -1.8383  0.1251
  122MOL0     H16453   6.491   6.143   6.932  0.7805 -1.5950  0.6173
  122MOL0     H16454   6.060   6.448   6.904 -0.6668 -0.2634 -0.8651
  122MOL0     H16455   5.888   6.477   6.737 -1.2784  1.0113 -0.0510
  122MOL0     H16456   5.780   5.376   5.373 -0.6792  2.8679  1.5208
  122MOL0     H16457   5.781   5.138   5.424 -1.3800 -1.1480  0.2905
  122MOL0     H16458   5.497   4.875   5.934  0.9323 -0.4883 -0.1759
  122MOL0     H16459   5.474   4.639   5.985  2.6587  0.7594  0.9130
  122MOL0     H16460   5.519   4.245   5.837 -1.6953  1.6237  0.7831
  122MOL0     H16461   5.538   4.317   5.676  0.7908  0.1156 -0.7020
  122MOL0     H16462   5.765   4.387   5.712 -5.6227  1.6857 -0.8059
  122MOL0     H16463   5.733   4.220   5.699 -2.5990 -0.3172 -0.1482
  122MOL0     H16464   5.882   4.225   5.893 -0.2073 -0.4585  0.3242
  122MOL0     H16465   5.729   4.233   5.978  0.6599 -2.5586 -0.1835
  122MOL0     H16466   5.887   4.428   6.059  0.7206 -0.4235 -1.3147
  122MOL0     H16467   5.714   4.456   6.027 -0.7221  0.1250 -0.0281
  122MOL0     H16468   5.995   4.700   5.800 -0.8590  3.2634  2.0665
  122MOL0     H16469   5.579   4.529   5.587  4.3888  1.8247 -1.3191
  122MOL0     H16470   5.598   4.759   5.531 -1.7045 -2.7274 -0.8900
  123MOL0     O16471   2.311   4.116   0.015  0.6634 -0.0226 -0.8891
  123MOL0     C16472   2.348   4.214   0.079  0.3679  1.8466  1.3132
  123MOL0     O16473   2.316   4.228   0.212 -0.3553 -0.3331 -0.1889
  123MOL0     C16474   2.257   4.128   0.280 -0.6199 -0.2367  0.9848
  123MOL0     C16475   2.309   4.003   0.314  0.4515 -0.3327  0.9398
  123MOL0     C16476   2.247   3.908   0.391  0.1703 -0.6586 -1.4357
  123MOL0     C16477   2.116   3.938   0.433  0.3654 -0.0368  0.1007
  123MOL0     O16478   2.026   3.856   0.492 -0.0109  0.7907 -0.4431
  123MOL0     C16479   2.073   3.733   0.550  0.1975 -0.4611 -0.3306
  123MOL0     C16480   1.969   3.666   0.650  1.4417  0.6653  0.3603
  123MOL0     C16481   2.030   3.560   0.750  0.1510  0.1107  0.2198
  123MOL0     C16482   1.918   3.536   0.851 -0.3529  0.6425  0.5602
  123MOL0     C16483   1.929   3.404   0.930  0.0701  0.8678  0.1564
  123MOL0     C16484   2.052   3.418   1.006  0.3037 -1.5511 -0.0705
  123MOL0     C16485   2.063   3.314   1.123 -0.8162 -0.0046  0.0437
  123MOL0     C16486   2.114   3.171   1.081  0.6742  0.0930  1.0980
  123MOL0     N16487   2.043   3.110   0.964  0.7181 -0.1154  0.3177
  123MOL0     C16488   1.912   3.059   0.972  1.1110 -0.4352  0.5966
  123MOL0     C16489   1.895   3.003   0.852 -0.2751  0.3720  0.2108
  123MOL0     C16490   1.772   2.925   0.797  0.1235  0.1659 -0.4951
  123MOL0     C16491   1.640   2.977   0.848 -0.8312  0.4141  0.0968
  123MOL0     C16492   1.611   3.126   0.802  0.3209 -0.7721 -0.4293
  123MOL0     C16493   1.465   3.159   0.839  0.2633 -0.5736 -0.5997
  123MOL0     O16494   1.429   3.308   0.841  0.1237 -0.9773  0.0041
  123MOL0     C16495   1.369   3.364   0.955  0.0498 -1.1559  0.0258
  123MOL0     C16496   1.410   3.500   0.992 -0.7224  0.9287 -0.0172
  123MOL0     C16497   1.361   3.565   1.097  0.4336 -0.4893 -0.6671
  123MOL0     C16498   1.438   3.686   1.141 -0.1980 -0.2453  0.2651
  123MOL0     C16499   1.272   3.490   1.183 -0.1732  0.4114  0.0222
  123MOL0     C16500   1.198   3.550   1.300 -1.0086  0.1921 -0.4763
  123MOL0     O16501   1.164   3.457   1.394 -0.0392  0.3351  0.3387
  123MOL0     C16502   1.139   3.513   1.524 -0.9711  0.2007 -0.0522
  123MOL0     C16503   1.018   3.570   1.558 -0.0199  0.9570  0.7287
  123MOL0     C16504   1.000   3.630   1.678 -0.2285 -0.0334 -0.0644
  123MOL0     C16505   1.101   3.624   1.775  0.6885  0.8226  0.4025
  123MOL0     O16506   1.070   3.677   1.898 -0.0043  0.1930  0.4829
  123MOL0     C16507   1.179   3.679   1.991  0.1038  0.0145 -0.5470
  123MOL0     C16508   1.144   3.761   2.120 -0.2374  0.1152  0.3227
  123MOL0     C16509   1.284   3.788   2.193  0.5125  0.0229 -0.2712
  123MOL0     C16510   1.276   3.851   2.331 -0.2520  0.3315 -1.0687
  123MOL0     C16511   1.209   3.750   2.441 -0.4091  0.8820  0.6395
  123MOL0     C16512   1.180   3.812   2.576 -0.9458  0.5664 -0.2113
  123MOL0     C16513   1.098   3.728   2.666  1.2768  0.2865  0.3140
  123MOL0     C16514   1.121   3.743   2.812  0.8470  0.4606  0.3527
  123MOL0    Cl16515   1.008   3.646   2.904 -0.1859  0.0124 -0.3888
  123MOL0     C16516   1.229   3.562   1.750  0.5571 -0.2087  0.0972
  123MOL0     C16517   1.245   3.499   1.622 -0.2821 -0.2266  0.1114
  123MOL0     O16518   1.179   3.669   1.309  0.5574  0.0289  0.1282
  123MOL0     C16519   1.246   3.349   1.152  0.8338  0.2993  0.5350
  123MOL0     C16520   1.291   3.287   1.045  0.2646  0.1511  0.4059
  123MOL0     N16521   2.004   3.037   0.771 -0.2780  0.9924 -0.0548
  123MOL0     N16522   2.086   3.100   0.841 -0.6214  0.0685  0.2571
  123MOL0     C16523   2.053   4.062   0.396  1.0590  0.7246 -0.1632
  123MOL0     C16524   2.126   4.155   0.322  0.0898  0.6128 -0.2299
  123MOL0     C16525   2.445   4.309   0.017 -0.1755 -0.7575  0.4154
  123MOL0     C16526   2.483   4.294  -0.118 -0.3559  0.7595  0.1254
  123MOL0     C16527   2.570   4.384  -0.175  0.1504  0.8702 -0.0600
  123MOL0     C16528   2.623   4.492  -0.100  0.5937  0.4771  0.6068
  123MOL0     O16529   2.712   4.585  -0.145 -0.6026  0.2423  0.3669
  123MOL0     C16530   2.706   4.633  -0.282 -0.2525  0.1814  0.5323
  123MOL0     C16531   2.831   4.709  -0.303  0.6695  0.6713 -0.5605
  123MOL0     C16532   2.814   4.859  -0.309 -0.1127 -0.1182  0.3394
  123MOL0     C16533   2.919   4.947  -0.392  0.0343  0.2946 -0.2387
  123MOL0     C16534   2.904   5.095  -0.370 -1.1061 -0.1886  0.2401
  123MOL0     C16535   2.885   5.217  -0.343 -1.5013 -0.7895  0.2714
  123MOL0     C16536   2.593   4.502   0.033  0.5917  0.2423 -1.1891
  123MOL0     C16537   2.504   4.408   0.089 -0.6066  0.1988 -0.4724
  123MOL0     H16538   2.413   3.982   0.291  0.4164 -0.9235  1.2852
  123MOL0     H16539   2.296   3.814   0.410 -0.9457 -1.0384 -0.2836
  123MOL0     H16540   2.095   3.659   0.473 -0.5709 -1.1851  0.1240
  123MOL0     H16541   2.165   3.750   0.606  1.2388 -1.3743 -1.6774
  123MOL0     H16542   1.905   3.746   0.689 -1.1942 -0.4490 -1.4372
  123MOL0     H16543   1.891   3.612   0.598 -0.9121  2.6854  1.5872
  123MOL0     H16544   2.066   3.469   0.700  1.3267  0.4639  0.4003
  123MOL0     H16545   2.121   3.607   0.788  0.9482 -1.7516  0.7734
  123MOL0     H16546   1.907   3.618   0.922  1.0521 -2.9134  5.4734
  123MOL0     H16547   1.829   3.525   0.790  1.4965 -1.0115 -2.0415
  123MOL0     H16548   1.841   3.403   0.995  1.4852  0.2402  2.1660
  123MOL0     H16549   1.933   3.313   0.869 -2.6772  0.5801  0.2696
  123MOL0     H16550   2.142   3.396   0.948  1.7006  0.1863  1.3284
  123MOL0     H16551   2.059   3.515   1.056  1.3907 -0.9385 -1.3460
  123MOL0     H16552   2.146   3.345   1.186  1.8077 -1.4799 -2.4596
  123MOL0     H16553   1.965   3.298   1.169 -1.6714  2.2358 -0.8531
  123MOL0     H16554   2.104   3.099   1.163 -0.5234 -0.3123  0.6229
  123MOL0     H16555   2.220   3.186   1.061  0.5123  1.2366  1.0333
  123MOL0     H16556   1.860   3.050   1.066  0.5751  2.7217  0.7223
  123MOL0     H16557   1.767   2.917   0.688 -0.3258 -0.3221 -0.4449
  123MOL0     H16558   1.781   2.826   0.842 -1.0735  1.5290  3.1593
  123MOL0     H16559   1.644   2.967   0.957  1.7242 -0.2675 -0.0034
  123MOL0     H16560   1.563   2.907   0.813 -1.7780 -0.1686  3.1052
  123MOL0     H16561   1.637   3.147   0.697 -0.7014 -2.5200 -1.0697
  123MOL0     H16562   1.669   3.197   0.861  1.0725  0.7082 -2.8001
  123MOL0     H16563   1.453   3.102   0.931  3.3234 -0.2194  0.1100
  123MOL0     H16564   1.416   3.100   0.761  1.1461 -1.7949 -0.2619
  123MOL0     H16565   1.494   3.539   0.934 -2.1102 -0.4905 -3.1951
  123MOL0     H16566   1.486   3.738   1.057 -0.7703  2.6494  1.6041
  123MOL0     H16567   1.364   3.754   1.185 -2.7026 -1.9114 -1.1146
  123MOL0     H16568   1.509   3.655   1.218  0.3928 -0.9541 -0.5528
  123MOL0     H16569   0.939   3.586   1.485 -1.3644  2.5733  2.4460
  123MOL0     H16570   0.917   3.697   1.692 -0.4238 -0.5691  1.4524
  123MOL0     H16571   1.204   3.575   2.013  1.2345  0.4500  0.3105
  123MOL0     H16572   1.268   3.726   1.949 -0.2039  0.8872 -0.2367
  123MOL0     H16573   1.100   3.859   2.097  0.4074  0.0928 -1.0884
  123MOL0     H16574   1.085   3.700   2.189 -4.1371  1.4607 -1.5252
  123MOL0     H16575   1.350   3.854   2.136 -0.1394  3.7256  2.8214
  123MOL0     H16576   1.334   3.692   2.208  1.6788  1.0026  2.9982
  123MOL0     H16577   1.374   3.889   2.363 -1.0509  2.7889 -1.3402
  123MOL0     H16578   1.211   3.939   2.333  2.2725  2.3050  1.3956
  123MOL0     H16579   1.291   3.681   2.465  0.9498  2.3258  0.3815
  123MOL0     H16580   1.121   3.704   2.396 -0.0957  0.9838 -0.0876
  123MOL0     H16581   1.277   3.829   2.624 -0.9094  0.8289 -0.3775
  123MOL0     H16582   1.133   3.910   2.563  0.4881  1.4963  1.0798
  123MOL0     H16583   1.102   3.623   2.634 -0.1746 -0.0152  1.0117
  123MOL0     H16584   0.996   3.763   2.648  1.2441 -0.1328 -0.3567
  123MOL0     H16585   1.128   3.844   2.853 -2.4316 -0.4005  3.6131
  123MOL0     H16586   1.223   3.715   2.839  0.6646  1.2806  2.0622
  123MOL0     H16587   1.310   3.554   1.822 -0.3037  0.8243  1.2340
  123MOL0     H16588   1.344   3.459   1.602 -0.3988 -0.7698  0.5816
  123MOL0     H16589   1.179   3.293   1.216 -2.2981 -0.1703 -2.7833
  123MOL0     H16590   1.269   3.181   1.035 -3.1631  0.7140  0.7739
  123MOL0     H16591   1.949   4.082   0.421  1.9893 -0.0099  5.4822
  123MOL0     H16592   2.079   4.252   0.312  1.3723  1.2070 -0.7958
  123MOL0     H16593   2.452   4.224  -0.194 -0.6061  1.0715 -0.0632
  123MOL0     H16594   2.586   4.358  -0.279 -3.5376 -2.5674 -0.0067
  123MOL0     H16595   2.715   4.558  -0.361  0.5879 -1.4343  2.0865
  123MOL0     H16596   2.613   4.690  -0.289 -0.3345 -0.1594 -2.9353
  123MOL0     H16597   2.869   4.664  -0.395  1.2116 -0.4536  0.1867
  123MOL0     H16598   2.905   4.687  -0.225  0.5246 -0.5006 -0.7331
  123MOL0     H16599   2.820   4.877  -0.201  0.6513  1.2941  0.0833
  123MOL0     H16600   2.716   4.885  -0.350 -0.4979 -1.2387  0.5072
  123MOL0     H16601   2.911   4.925  -0.499 -1.3643 -3.3185  0.4671
  123MOL0     H16602   3.017   4.917  -0.354 -0.5964 -2.5028 -0.5642
  123MOL0     H16603   2.863   5.313  -0.302 -1.4970 -1.2793  1.4506
  123MOL0     H16604   2.645   4.569   0.100  3.2345 -1.2760 -1.5773
  123MOL0     H16605   2.479   4.415   0.194  3.1308 -0.0818  0.5807
  124MOL0     O16606   5.650  11.176   1.301 -0.0189 -1.0039 -0.5731
  124MOL0     C16607   5.637  11.273   1.221 -0.9662  0.5063 -0.2838
  124MOL0     O16608   5.741  11.306   1.133 -0.1386 -0.4810  1.1115
  124MOL0     C16609   5.870  11.266   1.170 -0.4796 -0.2258  0.1941
  124MOL0     C16610   5.958  11.344   1.255  0.0252  0.5463 -0.9463
  124MOL0     C16611   6.088  11.302   1.290  0.3256  0.2743  0.3012
  124MOL0     C16612   6.123  11.179   1.266 -0.2798  0.0454 -0.0732
  124MOL0     O16613   6.245  11.145   1.310 -0.4279 -0.3679  0.5907
  124MOL0     C16614   6.296  11.011   1.280  0.9610 -0.0031  0.3052
  124MOL0     C16615   6.453  11.013   1.300  0.4656 -0.1222  0.6501
  124MOL0     C16616   6.512  10.878   1.269  0.2099 -0.1778  0.6692
  124MOL0     C16617   6.633  10.831   1.357 -0.1658  0.5139  0.3451
  124MOL0     C16618   6.766  10.905   1.332  0.8866 -0.7261 -0.7466
  124MOL0     C16619   6.821  10.874   1.193  0.0537 -0.7163 -0.7008
  124MOL0     C16620   6.911  10.994   1.150  1.6453 -0.3341  0.2781
  124MOL0     C16621   6.919  11.007   0.989 -0.3364  0.2045  0.3516
  124MOL0     N16622   7.031  10.925   0.954 -0.0065 -0.0837  0.3104
  124MOL0     C16623   7.052  10.786   0.957  0.2634 -0.1157  0.2305
  124MOL0     C16624   7.180  10.771   0.922  0.9809 -0.5717 -0.6312
  124MOL0     C16625   7.245  10.638   0.908 -0.5209 -0.6858  0.1142
  124MOL0     C16626   7.183  10.508   0.963 -0.1566 -0.0057  0.4958
  124MOL0     C16627   7.208  10.501   1.108  0.0638  1.0026 -0.0616
  124MOL0     C16628   7.100  10.432   1.180 -0.1888 -0.5507  0.0999
  124MOL0     O16629   6.975  10.509   1.182 -0.2603  0.0941 -0.8980
  124MOL0     C16630   6.857  10.442   1.235 -0.5355  0.1235  0.4473
  124MOL0     C16631   6.798  10.483   1.345 -0.0341 -0.3091  0.0019
  124MOL0     C16632   6.676  10.433   1.390  0.5165  0.9023  0.2367
  124MOL0     C16633   6.587  10.493   1.502  0.1172 -0.0488  0.6607
  124MOL0     C16634   6.613  10.327   1.319 -0.0424  0.0324  0.7751
  124MOL0     C16635   6.478  10.276   1.342 -0.4067  0.2821  0.0658
  124MOL0     O16636   6.461  10.180   1.438 -0.1648  0.5555  0.2367
  124MOL0     C16637   6.329  10.173   1.487  0.5565 -0.1168  0.7052
  124MOL0     C16638   6.308  10.202   1.621  1.8042 -1.0810  0.1147
  124MOL0     C16639   6.175  10.205   1.676 -1.1649  0.2138 -0.0246
  124MOL0     C16640   6.068  10.155   1.601  0.1560 -0.3983 -0.5548
  124MOL0     O16641   5.935  10.137   1.642 -0.3071  0.1164  0.1380
  124MOL0     C16642   5.891  10.189   1.769  0.4692 -0.1378  0.7124
  124MOL0     C16643   5.782  10.104   1.840  0.2499  0.0136  0.6067
  124MOL0     C16644   5.838   9.966   1.896 -0.1052 -0.0091  0.0554
  124MOL0     C16645   5.730   9.894   1.975 -0.8652 -0.5647  0.3488
  124MOL0     C16646   5.763   9.750   2.014 -0.2288 -1.6716  0.1671
  124MOL0     C16647   5.647   9.690   2.085  1.0013 -0.6667  0.2453
  124MOL0     C16648   5.674   9.548   2.111 -0.1739 -0.2106 -0.3700
  124MOL0     C16649   5.778   9.508   2.220  0.4810  0.5448  0.3723
  124MOL0    Cl16650   5.755   9.575   2.387 -0.2143 -0.1814 -0.1812
  124MOL0     C16651   6.092  10.120   1.463  0.4390 -0.3940 -0.1450
  124MOL0     C16652   6.226  10.129   1.408 -0.0809  0.5390  0.4051
  124MOL0     O16653   6.392  10.321   1.273 -0.1527 -0.0568  0.5532
  124MOL0     C16654   6.679  10.286   1.212 -0.4468  0.2251  0.2853
  124MOL0     C16655   6.806  10.337   1.164 -0.3871  0.8109 -0.0970
  124MOL0     N16656   7.236  10.891   0.896  0.5686 -0.3564 -0.4900
  124MOL0     N16657   7.141  10.977   0.902  0.3266  0.0667  1.0366
  124MOL0     C16658   6.030  11.092   1.197 -0.5616  0.2442 -0.5572
  124MOL0     C16659   5.914  11.138   1.141  0.1030  0.3955 -0.3322
  124MOL0     C16660   5.510  11.355   1.235 -0.8542  0.4976  1.0473
  124MOL0     C16661   5.477  11.446   1.134  0.8868 -0.9067 -0.4455
  124MOL0     C16662   5.366  11.531   1.148 -0.2488 -0.5094 -0.7686
  124MOL0     C16663   5.286  11.534   1.262  0.3370  0.6368  0.2906
  124MOL0     O16664   5.181  11.628   1.256  0.7559  0.6939 -0.1345
  124MOL0     C16665   5.065  11.588   1.333 -0.4694  0.6080  0.4249
  124MOL0     C16666   4.940  11.626   1.261  0.8124 -0.1400 -0.5219
  124MOL0     C16667   4.811  11.649   1.341 -0.6367 -0.4113 -0.8661
  124MOL0     C16668   4.753  11.523   1.389 -0.1399  0.8039  0.0375
  124MOL0     C16669   4.673  11.468   1.275  0.1858  0.6269 -0.1243
  124MOL0     C16670   4.601  11.405   1.195 -0.0515 -0.2496 -1.3428
  124MOL0     C16671   5.329  11.445   1.365  0.4375 -0.1083  0.6292
  124MOL0     C16672   5.425  11.346   1.348 -0.7200 -0.3038  0.7818
  124MOL0     H16673   5.935  11.443   1.293 -0.9602  0.0782 -0.2824
  124MOL0     H16674   6.157  11.365   1.345  1.7372 -0.6147 -0.4010
  124MOL0     H16675   6.240  10.934   1.334 -0.0918 -0.4646 -1.3485
  124MOL0     H16676   6.283  10.995   1.172  1.0392  2.4408 -0.1319
  124MOL0     H16677   6.507  11.079   1.232  0.1364  0.3385  0.8341
  124MOL0     H16678   6.471  11.045   1.403 -5.0494  2.4907  1.1656
  124MOL0     H16679   6.437  10.800   1.290  0.6071 -0.5404  0.7531
  124MOL0     H16680   6.526  10.877   1.161  1.0887  2.1173  0.7008
  124MOL0     H16681   6.612  10.847   1.464 -2.2744  0.5667 -0.0263
  124MOL0     H16682   6.654  10.728   1.329 -0.4309  0.3247  0.8236
  124MOL0     H16683   6.743  11.012   1.339 -0.3341 -1.0668  3.6897
  124MOL0     H16684   6.839  10.878   1.409  0.3893  2.5233  1.0603
  124MOL0     H16685   6.876  10.780   1.182 -0.6005 -1.2649  0.4920
  124MOL0     H16686   6.739  10.867   1.120  0.2840 -0.1617 -1.0161
  124MOL0     H16687   6.858  11.086   1.176  0.5861 -0.2032 -2.1193
  124MOL0     H16688   7.006  10.992   1.204  1.5189 -1.6074  0.4906
  124MOL0     H16689   6.937  11.114   0.971  1.1146 -0.2801 -1.3216
  124MOL0     H16690   6.830  10.974   0.934 -2.2591  0.2625  3.2094
  124MOL0     H16691   6.987  10.708   0.995 -1.2892  1.3158  0.6459
  124MOL0     H16692   7.259  10.628   0.800 -2.5026 -1.7978 -0.0940
  124MOL0     H16693   7.344  10.650   0.953 -0.0639 -1.7517 -0.5760
  124MOL0     H16694   7.237  10.427   0.913  4.0503  2.8982 -0.1001
  124MOL0     H16695   7.077  10.502   0.936  0.5376 -0.7043 -2.4623
  124MOL0     H16696   7.210  10.602   1.152  1.9949  0.8529  0.3033
  124MOL0     H16697   7.305  10.455   1.131 -0.4222 -0.5705 -1.0548
  124MOL0     H16698   7.130  10.397   1.280 -2.1634 -2.9953 -0.0507
  124MOL0     H16699   7.070  10.340   1.128 -0.8697  0.3091 -1.0560
  124MOL0     H16700   6.836  10.574   1.391  0.0426 -0.5375  0.3982
  124MOL0     H16701   6.506  10.546   1.450  0.5432  0.2266  0.2616
  124MOL0     H16702   6.540  10.431   1.578 -0.1822  2.0693  2.3207
  124MOL0     H16703   6.647  10.573   1.546 -0.3381  0.5033  0.2896
  124MOL0     H16704   6.400  10.215   1.678  0.9295 -2.6397  2.0022
  124MOL0     H16705   6.170  10.237   1.780  2.0490  2.0374 -0.2815
  124MOL0     H16706   5.977  10.202   1.835  1.4083 -0.5454 -0.4051
  124MOL0     H16707   5.839  10.286   1.761 -3.0034 -1.9128 -0.1578
  124MOL0     H16708   5.740  10.169   1.918 -0.3531  4.0356 -2.6722
  124MOL0     H16709   5.704  10.093   1.764  1.3172 -1.6174 -0.2974
  124MOL0     H16710   5.928   9.984   1.956 -0.9283 -1.5078  1.8321
  124MOL0     H16711   5.878   9.913   1.809  3.3058 -0.1755  1.5354
  124MOL0     H16712   5.716   9.955   2.065 -2.4462 -0.1072 -0.1778
  124MOL0     H16713   5.638   9.896   1.916  0.4872  1.2504 -1.8771
  124MOL0     H16714   5.853   9.753   2.076 -0.5715  2.2615  0.7268
  124MOL0     H16715   5.778   9.702   1.918  1.0447  2.4182 -1.8998
  124MOL0     H16716   5.611   9.742   2.173 -1.2927 -0.5815 -0.6686
  124MOL0     H16717   5.570   9.694   2.007  0.7971 -2.8849  0.2625
  124MOL0     H16718   5.713   9.493   2.025 -2.8886 -2.9148 -0.0688
  124MOL0     H16719   5.573   9.514   2.138 -0.2077  1.8061  2.5141
  124MOL0     H16720   5.881   9.533   2.194  0.0245 -0.0375 -2.2824
  124MOL0     H16721   5.763   9.400   2.229 -1.8208  0.8258  0.6680
  124MOL0     H16722   6.017  10.087   1.391  0.1489  2.3871 -1.2515
  124MOL0     H16723   6.255  10.103   1.307 -0.2986  2.5821 -0.2400
  124MOL0     H16724   6.627  10.209   1.156 -0.3944  0.9188 -0.7424
  124MOL0     H16725   6.861  10.293   1.082  0.3064 -3.4603  2.3413
  124MOL0     H16726   6.054  10.988   1.177 -2.0743 -0.6548  1.9129
  124MOL0     H16727   5.853  11.075   1.077 -0.3771  0.5601 -0.0391
  124MOL0     H16728   5.541  11.453   1.046 -2.0421  0.3880 -2.6372
  124MOL0     H16729   5.355  11.600   1.065  0.9531 -0.7605 -1.1620
  124MOL0     H16730   5.072  11.479   1.339  2.9884  0.6133 -0.9572
  124MOL0     H16731   5.055  11.622   1.437 -1.0808  2.0544 -0.0753
  124MOL0     H16732   4.915  11.556   1.180 -0.5510  2.3025 -2.3511
  124MOL0     H16733   4.958  11.714   1.199  0.2988 -1.0630 -2.0480
  124MOL0     H16734   4.733  11.711   1.296  0.3225  0.1910 -1.7704
  124MOL0     H16735   4.837  11.717   1.423 -0.8505  0.0817 -1.2006
  124MOL0     H16736   4.680  11.549   1.466 -1.2025 -2.2001  0.1909
  124MOL0     H16737   4.831  11.452   1.418 -0.0488  1.1500  0.6524
  124MOL0     H16738   4.546  11.350   1.121  0.2003  0.2476 -1.9089
  124MOL0     H16739   5.279  11.445   1.462  1.0767 -0.7336  0.9670
  124MOL0     H16740   5.457  11.273   1.421  1.4770  0.0612  0.2518
  125MOL0     O16741   1.274   3.249   5.505 -0.2658 -0.0764  0.5396
  125MOL0     C16742   1.161   3.289   5.481  0.3427 -0.6968  0.3145
  125MOL0     O16743   1.118   3.424   5.476  0.1474 -0.9881  0.5833
  125MOL0     C16744   1.214   3.519   5.463 -0.9778 -0.0174  0.1092
  125MOL0     C16745   1.308   3.530   5.355 -1.1068 -0.1886 -0.0894
  125MOL0     C16746   1.404   3.627   5.358  0.8064  0.0642  0.4837
  125MOL0     C16747   1.407   3.720   5.461  0.9026 -0.2660  0.6064
  125MOL0     O16748   1.501   3.822   5.453  0.1095  0.4480 -0.3005
  125MOL0     C16749   1.597   3.811   5.558 -0.5822  0.3435 -1.2181
  125MOL0     C16750   1.721   3.905   5.531  0.8716  0.1352  0.6023
  125MOL0     C16751   1.802   3.918   5.652 -0.6841 -0.5191 -1.2576
  125MOL0     C16752   1.932   3.998   5.613 -0.5031  1.0120  0.0480
  125MOL0     C16753   1.983   4.086   5.723 -0.0911  0.0609 -0.2734
  125MOL0     C16754   2.116   4.164   5.693  1.4129  0.6621  0.5869
  125MOL0     C16755   2.226   4.081   5.638 -0.0676  1.0998 -0.8579
  125MOL0     C16756   2.220   4.099   5.472 -0.1778 -0.5553 -0.8813
  125MOL0     N16757   2.259   3.970   5.406  0.4356 -0.3520  1.2864
  125MOL0     C16758   2.385   3.925   5.381 -0.6031 -0.0344 -0.2425
  125MOL0     C16759   2.372   3.835   5.283  0.6204  0.0639  0.6188
  125MOL0     C16760   2.473   3.748   5.213  0.3478  0.3375  0.2086
  125MOL0     C16761   2.553   3.817   5.107  1.3533  0.7510 -0.0483
  125MOL0     C16762   2.455   3.907   5.023 -0.0048 -0.1877  0.0865
  125MOL0     C16763   2.513   3.948   4.887  0.2611  0.1886 -0.3790
  125MOL0     O16764   2.633   4.027   4.899 -0.0237  0.1416  0.3439
  125MOL0     C16765   2.746   3.966   4.846  0.1594 -1.1454  0.4642
  125MOL0     C16766   2.754   3.856   4.758 -0.8563  0.5415 -0.6576
  125MOL0     C16767   2.871   3.811   4.702  0.8072 -0.5349  0.2553
  125MOL0     C16768   2.881   3.682   4.625 -0.0727  0.6085  0.2164
  125MOL0     C16769   2.992   3.891   4.729 -0.4139 -0.1492  0.8721
  125MOL0     C16770   3.125   3.828   4.682  0.9918 -0.0069 -0.7070
  125MOL0     O16771   3.150   3.802   4.549 -0.3275 -0.4164 -0.1986
  125MOL0     C16772   3.261   3.746   4.506 -0.0601  0.6401 -0.6800
  125MOL0     C16773   3.308   3.636   4.572 -0.4574 -0.4096 -0.4597
  125MOL0     C16774   3.422   3.581   4.520  0.2791  0.0939 -0.0495
  125MOL0     C16775   3.489   3.629   4.406 -0.7947  0.7807 -0.5550
  125MOL0     O16776   3.611   3.579   4.353  0.5027  0.2446 -0.0774
  125MOL0     C16777   3.698   3.528   4.447 -0.5684  0.1157  0.5955
  125MOL0     C16778   3.672   3.374   4.462  0.3862  0.5862 -0.1961
  125MOL0     C16779   3.755   3.313   4.571  0.2060  0.5819 -0.4493
  125MOL0     C16780   3.718   3.349   4.717  0.0220 -0.7195 -0.4727
  125MOL0     C16781   3.781   3.274   4.828  0.6989  0.1371  1.4325
  125MOL0     C16782   3.794   3.118   4.813  1.0629  0.2812  0.0417
  125MOL0     C16783   3.895   3.045   4.910 -1.4419 -0.7297 -0.3850
  125MOL0     C16784   3.913   2.909   4.854  0.5087  0.3370  0.6614
  125MOL0    Cl16785   4.047   2.810   4.922  0.0315  0.1139 -0.0451
  125MOL0     C16786   3.425   3.728   4.338  0.0242  0.0254  0.7585
  125MOL0     C16787   3.308   3.782   4.382  0.0443 -0.0541 -0.9731
  125MOL0     O16788   3.209   3.819   4.770 -0.0826  0.3429 -1.1926
  125MOL0     C16789   2.983   4.002   4.805  0.1954  0.7457 -1.3078
  125MOL0     C16790   2.862   4.040   4.869  0.1251 -0.1468  0.7719
  125MOL0     N16791   2.238   3.822   5.264 -0.4396 -0.0561  0.4181
  125MOL0     N16792   2.167   3.903   5.332 -0.3296 -0.4488  0.0114
  125MOL0     C16793   1.311   3.722   5.554  0.9257  0.0227 -1.0060
  125MOL0     C16794   1.226   3.612   5.565 -0.1224 -0.3895 -0.3345
  125MOL0     C16795   1.056   3.180   5.466 -1.1801 -0.2136  0.1783
  125MOL0     C16796   0.922   3.213   5.456 -0.8474  0.0923 -1.0097
  125MOL0     C16797   0.823   3.112   5.457 -0.4900  0.8954  0.3656
  125MOL0     C16798   0.856   2.981   5.437  0.1433 -0.1933  0.4541
  125MOL0     O16799   0.754   2.890   5.417 -1.4557  0.4503  0.1089
  125MOL0     C16800   0.785   2.754   5.457  0.1313  0.4024  0.8166
  125MOL0     C16801   0.668   2.659   5.423  0.7656  1.0222  0.1122
  125MOL0     C16802   0.587   2.699   5.293  0.1532  0.9560  0.1420
  125MOL0     C16803   0.480   2.600   5.255 -0.3124 -0.1377 -0.4035
  125MOL0     C16804   0.381   2.665   5.166 -0.3354  0.4927 -0.3283
  125MOL0     C16805   0.324   2.743   5.091 -0.4277  0.3687 -0.1274
  125MOL0     C16806   0.999   2.945   5.432  0.1042  0.7153  0.2827
  125MOL0     C16807   1.100   3.048   5.448 -0.0139  0.3982 -0.2610
  125MOL0     H16808   1.299   3.457   5.274 -0.1269  0.4361 -0.7760
  125MOL0     H16809   1.488   3.626   5.291  0.3699  1.0742 -0.1039
  125MOL0     H16810   1.557   3.836   5.656  3.9865  0.5367  0.8605
  125MOL0     H16811   1.635   3.708   5.557 -3.5810 -0.8616 -2.8125
  125MOL0     H16812   1.770   3.856   5.446  0.1424 -0.5164  0.5513
  125MOL0     H16813   1.680   4.004   5.509  0.1504 -0.0579  1.0665
  125MOL0     H16814   1.751   3.970   5.733 -1.2607 -2.6026 -0.2200
  125MOL0     H16815   1.826   3.817   5.689 -0.1221 -0.0681 -0.3384
  125MOL0     H16816   2.003   3.927   5.568 -1.2885  0.7449 -0.7951
  125MOL0     H16817   1.903   4.063   5.530 -0.0528  2.6456  1.1210
  125MOL0     H16818   1.893   4.146   5.740 -1.5544 -1.8372 -0.9764
  125MOL0     H16819   2.005   4.031   5.816 -2.5137  0.3346  0.5329
  125MOL0     H16820   2.094   4.249   5.628 -1.4332 -0.4858 -0.0702
  125MOL0     H16821   2.151   4.200   5.790  1.4386 -2.0168  1.6737
  125MOL0     H16822   2.322   4.108   5.683  1.3766 -2.3991 -1.4764
  125MOL0     H16823   2.204   3.977   5.666 -1.9918  1.5577 -0.5225
  125MOL0     H16824   2.289   4.179   5.445  0.4273 -0.9568 -0.5580
  125MOL0     H16825   2.118   4.123   5.442 -0.0476 -2.1563 -2.8638
  125MOL0     H16826   2.475   3.963   5.428 -0.7214  1.8220 -1.4258
  125MOL0     H16827   2.539   3.710   5.291  1.8480 -1.3076 -1.7845
  125MOL0     H16828   2.431   3.657   5.170  0.1130  1.0224 -1.0678
  125MOL0     H16829   2.605   3.741   5.050  0.8657  2.8376 -3.5265
  125MOL0     H16830   2.636   3.871   5.152  0.8247  0.6431  1.1168
  125MOL0     H16831   2.418   3.990   5.084 -1.5275 -0.2989 -0.6371
  125MOL0     H16832   2.368   3.846   4.997  0.1032 -0.3016 -0.0028
  125MOL0     H16833   2.433   3.999   4.833  0.9057 -1.4575 -3.0821
  125MOL0     H16834   2.522   3.850   4.838  1.7708  0.3237 -0.4028
  125MOL0     H16835   2.668   3.801   4.721  0.0506 -0.9406 -0.6766
  125MOL0     H16836   2.903   3.709   4.521  3.4396  2.2534  1.2246
  125MOL0     H16837   2.970   3.626   4.655 -0.3856 -0.7043 -1.1858
  125MOL0     H16838   2.784   3.636   4.641  0.8183 -0.9667  1.2866
  125MOL0     H16839   3.277   3.587   4.664  1.7538  0.3401  0.7787
  125MOL0     H16840   3.452   3.491   4.572 -0.8876  0.6867  1.7458
  125MOL0     H16841   3.799   3.540   4.409 -1.6736  1.0075 -2.3643
  125MOL0     H16842   3.683   3.577   4.544  0.2519  0.6999  0.4378
  125MOL0     H16843   3.569   3.344   4.480  0.6803  0.0963  0.7514
  125MOL0     H16844   3.707   3.313   4.378  4.5041 -0.6720  2.1453
  125MOL0     H16845   3.858   3.342   4.547  0.1467  2.3713  1.2192
  125MOL0     H16846   3.744   3.205   4.558  2.1579  0.2012  0.6412
  125MOL0     H16847   3.727   3.457   4.732 -1.6592 -0.4702 -1.0643
  125MOL0     H16848   3.610   3.335   4.727  0.2640 -5.4591 -2.1774
  125MOL0     H16849   3.721   3.283   4.919 -0.2092  1.5608  0.7256
  125MOL0     H16850   3.877   3.321   4.851  1.5313 -0.0154 -1.3555
  125MOL0     H16851   3.702   3.060   4.822  2.1038 -1.7176 -1.3780
  125MOL0     H16852   3.829   3.099   4.711  1.5741  0.8946  0.1003
  125MOL0     H16853   3.847   3.025   5.006 -1.7874  1.9597  0.0953
  125MOL0     H16854   3.989   3.100   4.923 -1.8488 -0.3085  0.9372
  125MOL0     H16855   3.933   2.917   4.747 -1.4744  3.1995  0.3651
  125MOL0     H16856   3.824   2.850   4.880  0.2809  0.6850  0.6871
  125MOL0     H16857   3.474   3.755   4.245  0.3904 -2.3296  0.2191
  125MOL0     H16858   3.259   3.858   4.322 -1.3585  1.9716  2.4329
  125MOL0     H16859   3.076   4.056   4.818  0.8550 -0.9588  2.3422
  125MOL0     H16860   2.860   4.138   4.914 -0.2900  0.2808 -0.1529
  125MOL0     H16861   1.310   3.796   5.633  2.0993  0.1309 -1.0816
  125MOL0     H16862   1.150   3.592   5.640 -1.6120 -1.5449 -2.0573
  125MOL0     H16863   0.881   3.313   5.466 -2.1368 -0.3999 -1.2581
  125MOL0     H16864   0.719   3.141   5.446 -1.9340 -4.2390 -3.3783
  125MOL0     H16865   0.878   2.720   5.410  0.2216  0.1114  1.1895
  125MOL0     H16866   0.791   2.774   5.565  0.3828  0.9973  0.6928
  125MOL0     H16867   0.600   2.662   5.508  0.4504 -1.3844 -0.0009
  125MOL0     H16868   0.726   2.567   5.420  3.0868  2.3263  1.8131
  125MOL0     H16869   0.658   2.711   5.210  2.3765 -1.5326  1.5264
  125MOL0     H16870   0.532   2.792   5.311 -3.1102 -0.1859 -2.7301
  125MOL0     H16871   0.437   2.572   5.351 -0.7031  0.0079 -0.5337
  125MOL0     H16872   0.527   2.511   5.213 -0.4177 -0.9685  1.1673
  125MOL0     H16873   0.282   2.822   5.031 -0.4336  1.3289  1.0963
  125MOL0     H16874   1.026   2.850   5.386  0.3020  1.2639 -0.7622
  125MOL0     H16875   1.205   3.022   5.440  0.0084  0.1622  0.6492
  126MOL0     O16876   6.647   4.900   7.463  0.7322 -0.0543 -0.2685
  126MOL0     C16877   6.526   4.869   7.471 -0.3570  0.5540  0.6799
  126MOL0     O16878   6.487   4.737   7.463  0.3005  0.3623  0.0636
  126MOL0     C16879   6.580   4.662   7.393 -0.1361  0.4163 -0.8736
  126MOL0     C16880   6.644   4.559   7.456  0.3427 -0.3105  0.2628
  126MOL0     C16881   6.731   4.469   7.394  0.9295 -0.3881  0.2364
  126MOL0     C16882   6.758   4.489   7.254  1.1686 -0.2898  0.2628
  126MOL0     O16883   6.841   4.411   7.174 -0.5214 -0.5830 -0.2119
  126MOL0     C16884   6.947   4.329   7.234  0.8181  0.3173  1.3602
  126MOL0     C16885   7.054   4.283   7.138 -0.7897  0.0659  0.0554
  126MOL0     C16886   6.998   4.191   7.027  0.5832  0.0147  0.3883
  126MOL0     C16887   7.112   4.130   6.937  0.2119  0.2151  0.0072
  126MOL0     C16888   7.066   4.043   6.829  0.1685  0.7895 -0.0765
  126MOL0     C16889   6.964   3.937   6.867  0.2237  0.6425 -0.1911
  126MOL0     C16890   6.928   3.847   6.757  0.4808 -0.3384  0.1958
  126MOL0     C16891   6.786   3.802   6.785 -1.2562  0.0919  0.1464
  126MOL0     N16892   6.775   3.727   6.917 -0.7527  0.0659  1.4177
  126MOL0     C16893   6.822   3.601   6.947 -1.0139  0.1199  0.5069
  126MOL0     C16894   6.789   3.570   7.079 -0.1667 -0.8926  0.0749
  126MOL0     C16895   6.838   3.457   7.166 -1.2978 -0.1520 -0.0876
  126MOL0     C16896   6.983   3.452   7.213 -0.2515  0.1277 -0.1827
  126MOL0     C16897   7.106   3.443   7.105 -0.8510  0.1958 -0.6149
  126MOL0     C16898   7.076   3.332   6.997 -0.1648  0.9058 -1.4108
  126MOL0     O16899   7.038   3.210   7.065  0.0182  0.4102 -0.3348
  126MOL0     C16900   6.958   3.113   7.001  0.0206  0.7450 -0.0779
  126MOL0     C16901   6.950   3.104   6.857 -0.5730  0.1479 -0.0698
  126MOL0     C16902   6.864   3.005   6.799  0.0301 -0.0636  0.2605
  126MOL0     C16903   6.859   2.985   6.650 -0.4501  0.7605 -0.2044
  126MOL0     C16904   6.776   2.923   6.884 -1.0278 -0.6918 -0.2717
  126MOL0     C16905   6.696   2.812   6.846  0.0400 -0.1474  0.0498
  126MOL0     O16906   6.689   2.703   6.932 -0.1211  0.2139  0.4009
  126MOL0     C16907   6.596   2.605   6.900  0.4514 -0.0677  0.3794
  126MOL0     C16908   6.630   2.469   6.909  0.9828 -0.7126 -0.6699
  126MOL0     C16909   6.535   2.370   6.878  0.0128 -0.3662  1.1990
  126MOL0     C16910   6.406   2.403   6.829  0.0158  0.0931  0.5750
  126MOL0     O16911   6.318   2.301   6.811 -0.2745  0.2489  1.0693
  126MOL0     C16912   6.225   2.304   6.699 -0.1460  0.1959 -0.6569
  126MOL0     C16913   6.080   2.319   6.754 -0.4849 -0.6849  1.0669
  126MOL0     C16914   5.976   2.322   6.635 -0.0793 -0.0739  0.2719
  126MOL0     C16915   5.841   2.335   6.704  0.2602  0.4303 -0.6892
  126MOL0     C16916   5.732   2.358   6.592  1.3003  0.8912 -0.0297
  126MOL0     C16917   5.697   2.229   6.523  0.9475 -0.4474  0.2882
  126MOL0     C16918   5.553   2.193   6.545 -0.4751  0.1501  1.3818
  126MOL0     C16919   5.447   2.285   6.467 -0.1577  1.0402  0.9577
  126MOL0    Cl16920   5.291   2.197   6.454  0.5639 -0.0085  0.4651
  126MOL0     C16921   6.368   2.544   6.826 -1.2745  0.3753 -0.1193
  126MOL0     C16922   6.462   2.641   6.872  0.9790  0.1999  0.1631
  126MOL0     O16923   6.632   2.813   6.743 -0.3233 -1.0125  0.8975
  126MOL0     C16924   6.784   2.947   7.024  0.2712 -0.1856 -0.7588
  126MOL0     C16925   6.873   3.037   7.084 -0.4320 -0.2071  0.7284
  126MOL0     N16926   6.719   3.681   7.124 -0.0811  0.4418 -0.9719
  126MOL0     N16927   6.713   3.773   7.028  1.0992 -0.5378  0.1128
  126MOL0     C16928   6.697   4.601   7.190  0.4439 -0.2621 -0.3571
  126MOL0     C16929   6.603   4.681   7.254  1.1193  0.4601  0.2124
  126MOL0     C16930   6.436   4.989   7.478  0.1993  0.3256 -0.1956
  126MOL0     C16931   6.296   4.964   7.464  0.4173 -0.8670 -0.3419
  126MOL0     C16932   6.207   5.067   7.416  0.5134  0.9266 -0.5273
  126MOL0     C16933   6.257   5.196   7.403 -0.4182 -0.0842 -0.8832
  126MOL0     O16934   6.179   5.305   7.362  0.4188 -0.8181 -0.1874
  126MOL0     C16935   6.081   5.371   7.456 -0.7171  0.4797 -0.0857
  126MOL0     C16936   6.159   5.473   7.542 -1.5098  0.3946 -0.8606
  126MOL0     C16937   6.074   5.532   7.658  0.1807 -0.1471 -0.1011
  126MOL0     C16938   6.140   5.609   7.771  0.3967  0.0052 -0.1907
  126MOL0     C16939   6.053   5.635   7.879  0.3750  0.1128 -0.1227
  126MOL0     C16940   5.980   5.656   7.977  0.7534 -0.0124  0.6269
  126MOL0     C16941   6.398   5.219   7.420 -0.8640 -0.5370  0.2396
  126MOL0     C16942   6.485   5.118   7.453 -0.7327  0.7101 -0.3926
  126MOL0     H16943   6.611   4.527   7.555 -0.8862  1.4052  0.4559
  126MOL0     H16944   6.770   4.393   7.461  1.4290 -0.7799 -0.4847
  126MOL0     H16945   7.010   4.365   7.316  1.5108 -1.7716  1.7970
  126MOL0     H16946   6.890   4.243   7.270 -1.3392  1.8350  1.7936
  126MOL0     H16947   7.108   4.369   7.098 -1.1687  0.2382 -0.0860
  126MOL0     H16948   7.120   4.221   7.200  0.3253  1.9247  0.8029
  126MOL0     H16949   6.928   4.114   7.062 -2.4414  0.7327 -3.4423
  126MOL0     H16950   6.933   4.249   6.961  0.6499  2.4900  2.3436
  126MOL0     H16951   7.169   4.209   6.887  2.7505 -2.1693 -1.0905
  126MOL0     H16952   7.171   4.064   7.001  1.1951  0.6142 -0.4800
  126MOL0     H16953   7.017   4.111   6.758  0.2540 -0.0627 -0.9701
  126MOL0     H16954   7.149   3.983   6.792 -0.4021  0.5512 -1.0300
  126MOL0     H16955   6.999   3.874   6.949 -3.5159  1.7722  2.5878
  126MOL0     H16956   6.885   3.998   6.912  1.6360  1.0478  1.8844
  126MOL0     H16957   6.924   3.909   6.667  0.9906  0.0487  0.4334
  126MOL0     H16958   6.995   3.763   6.732 -0.7627 -1.9535  1.9923
  126MOL0     H16959   6.766   3.736   6.700  3.7830 -2.2226  0.4287
  126MOL0     H16960   6.724   3.892   6.793  2.4032  3.0981 -2.0061
  126MOL0     H16961   6.890   3.546   6.884 -0.9398 -0.0635  0.7449
  126MOL0     H16962   6.789   3.453   7.264  1.2104  3.3545  1.5248
  126MOL0     H16963   6.818   3.361   7.119  0.8056 -2.6574  3.5953
  126MOL0     H16964   6.999   3.358   7.267 -0.3628 -0.5377 -1.2683
  126MOL0     H16965   6.996   3.538   7.279  1.0199  1.6677 -2.2936
  126MOL0     H16966   7.200   3.412   7.151 -0.0426  3.5100  0.1890
  126MOL0     H16967   7.128   3.541   7.062  1.1945 -0.6656 -1.7072
  126MOL0     H16968   7.164   3.310   6.936  0.5001 -0.8676  0.0987
  126MOL0     H16969   6.991   3.342   6.928  1.4496  0.2922 -3.5877
  126MOL0     H16970   7.009   3.166   6.790  1.6680 -0.8351  0.9010
  126MOL0     H16971   6.923   3.049   6.588 -0.3157 -0.1577 -1.0574
  126MOL0     H16972   6.886   2.882   6.627  2.2584  1.4673 -0.5483
  126MOL0     H16973   6.756   3.005   6.619 -0.7040  1.3737  1.0138
  126MOL0     H16974   6.728   2.443   6.946  1.8493  0.8743 -1.7316
  126MOL0     H16975   6.574   2.269   6.890  1.5385  0.3464  2.5524
  126MOL0     H16976   6.243   2.392   6.637  0.9766  1.4549  1.3421
  126MOL0     H16977   6.236   2.212   6.641 -1.1444 -0.1620 -0.3095
  126MOL0     H16978   6.047   2.229   6.807 -0.6873 -1.3622 -0.1605
  126MOL0     H16979   6.065   2.408   6.816 -1.6014  0.3212 -0.5736
  126MOL0     H16980   5.985   2.222   6.591  4.5565  0.1777  0.0822
  126MOL0     H16981   6.000   2.403   6.565 -0.6930 -0.0825  0.0492
  126MOL0     H16982   5.818   2.240   6.754 -0.7659  1.1028  0.1399
  126MOL0     H16983   5.837   2.419   6.773  0.0680  1.3404 -1.7809
  126MOL0     H16984   5.767   2.436   6.524 -0.1029  2.5326  1.0459
  126MOL0     H16985   5.646   2.396   6.647 -1.2392 -1.9892 -1.7206
  126MOL0     H16986   5.720   2.237   6.417  0.4541 -0.6472  0.1598
  126MOL0     H16987   5.753   2.145   6.563 -2.6848 -2.8640  0.8216
  126MOL0     H16988   5.537   2.201   6.653  2.8199 -1.7720  2.1477
  126MOL0     H16989   5.539   2.088   6.518  0.9412  0.1672  0.4851
  126MOL0     H16990   5.479   2.308   6.365 -3.8996  0.4612 -0.4978
  126MOL0     H16991   5.428   2.376   6.524 -1.9361  0.2863  1.6279
  126MOL0     H16992   6.265   2.565   6.798 -1.8164 -0.4615  1.1624
  126MOL0     H16993   6.420   2.740   6.859  2.2196  0.5129 -2.1218
  126MOL0     H16994   6.709   2.904   7.089  1.9658 -1.4643  0.4052
  126MOL0     H16995   6.870   3.067   7.188 -0.7437 -0.3323  0.7577
  126MOL0     H16996   6.718   4.611   7.084 -2.0079  0.0409 -0.8763
  126MOL0     H16997   6.542   4.751   7.197  1.7239  3.5656  3.0766
  126MOL0     H16998   6.269   4.862   7.487  1.6776 -1.1254  0.0982
  126MOL0     H16999   6.104   5.033   7.406  1.0603 -0.3025 -2.7057
  126MOL0     H17000   6.002   5.427   7.406  1.0680  2.8971 -0.3675
  126MOL0     H17001   6.040   5.288   7.515  0.4406 -0.3861 -0.4801
  126MOL0     H17002   6.194   5.557   7.480 -2.4243  0.0868 -1.8114
  126MOL0     H17003   6.238   5.418   7.594 -2.4632 -0.7723 -0.6355
  126MOL0     H17004   6.037   5.441   7.707 -0.3387 -0.4368 -1.0063
  126MOL0     H17005   5.996   5.597   7.617  0.2532 -0.5719 -0.9449
  126MOL0     H17006   6.168   5.702   7.722 -2.6735  0.1720 -1.8780
  126MOL0     H17007   6.221   5.543   7.805 -1.4113 -1.3845  1.6653
  126MOL0     H17008   5.924   5.684   8.064 -1.6624 -0.5159 -0.6574
  126MOL0     H17009   6.442   5.317   7.404  0.4897 -0.9482  1.3133
  126MOL0     H17010   6.592   5.136   7.459  0.0776 -2.8749 -1.5591
  127MOL0     O17011  10.319   3.953   2.113  1.5094  0.7977  0.2029
  127MOL0     C17012  10.240   3.902   2.186 -0.8661  0.3078 -0.4145
  127MOL0     O17013  10.230   3.767   2.203  0.7265  0.3598  0.3709
  127MOL0     C17014  10.289   3.670   2.124 -0.9394  0.3244 -0.0040
  127MOL0     C17015  10.429   3.656   2.094 -0.0765 -0.3171  0.8820
  127MOL0     C17016  10.469   3.552   2.006 -0.4493 -0.0058 -0.7556
  127MOL0     C17017  10.382   3.457   1.962  0.5569  0.2088 -0.0183
  127MOL0     O17018  10.401   3.354   1.875 -0.3736 -0.1873 -0.4848
  127MOL0     C17019  10.525   3.361   1.807 -0.0266  0.5612 -1.9080
  127MOL0     C17020  10.614   3.246   1.857  0.1077  0.8505 -0.3267
  127MOL0     C17021  10.724   3.219   1.756 -0.4760 -0.3043 -0.2196
  127MOL0     C17022  10.815   3.118   1.799  0.1805 -0.1965 -0.0509
  127MOL0     C17023  10.916   3.078   1.693 -0.2933  0.3053 -0.8620
  127MOL0     C17024  11.015   2.959   1.728  0.6552  1.5062  0.0710
  127MOL0     C17025  10.935   2.827   1.736  0.3123  0.0029  0.0595
  127MOL0     C17026  10.870   2.793   1.598  0.8171  0.6196 -0.5291
  127MOL0     N17027  10.967   2.773   1.487  0.1092 -0.7306  0.2623
  127MOL0     C17028  10.951   2.852   1.375 -0.4300  0.3517  1.6609
  127MOL0     C17029  11.006   2.770   1.286 -0.2645  0.1766 -0.0469
  127MOL0     C17030  11.030   2.795   1.141 -0.0529  0.7806 -0.2705
  127MOL0     C17031  11.073   2.657   1.064 -0.9014 -0.2382 -0.1618
  127MOL0     C17032  11.060   2.671   0.910  0.6673  0.4201  0.0682
  127MOL0     C17033  10.935   2.597   0.849  0.5862  0.2132 -0.5684
  127MOL0     O17034  10.918   2.630   0.710  0.7164 -0.2207  0.0652
  127MOL0     C17035  10.854   2.557   0.614 -0.3567  0.1814 -0.0908
  127MOL0     C17036  10.837   2.634   0.498  0.0849  0.3136 -0.1260
  127MOL0     C17037  10.756   2.587   0.395  0.3375  0.4191  1.7676
  127MOL0     C17038  10.737   2.673   0.277 -0.8248 -0.1748 -0.8890
  127MOL0     C17039  10.709   2.450   0.398  0.5120  0.2889  1.1592
  127MOL0     C17040  10.642   2.380   0.279  0.7017  0.5484 -0.1775
  127MOL0     O17041  10.570   2.450   0.192 -0.1461 -0.3942 -0.0080
  127MOL0     C17042  10.531   2.400   0.072  0.1046  0.4940 -0.3018
  127MOL0     C17043  10.606   2.420  -0.047 -0.0338  0.0775  0.3016
  127MOL0     C17044  10.565   2.386  -0.169  0.1457  0.3944 -0.0076
  127MOL0     C17045  10.444   2.311  -0.179 -0.2599  0.2063  0.0341
  127MOL0     O17046  10.395   2.249  -0.288  0.3100  0.0425  0.0647
  127MOL0     C17047  10.454   2.295  -0.407 -0.7527 -0.6814 -0.6617
  127MOL0     C17048  10.392   2.222  -0.532  0.0912  0.2497 -0.2655
  127MOL0     C17049  10.489   2.115  -0.593 -0.2495 -0.1949 -0.2865
  127MOL0     C17050  10.450   1.979  -0.540  0.1850 -0.1209  0.1345
  127MOL0     C17051  10.494   1.868  -0.640 -0.8084 -1.2719  0.7729
  127MOL0     C17052  10.392   1.841  -0.741  0.1164  0.3137  0.3412
  127MOL0     C17053  10.455   1.742  -0.839 -0.6393  0.5356  0.3619
  127MOL0     C17054  10.351   1.727  -0.942 -0.1612 -1.1024  0.8865
  127MOL0    Cl17055  10.427   1.663  -1.097  0.4664 -0.2038  0.0637
  127MOL0     C17056  10.367   2.287  -0.063 -0.1738 -0.1678  0.4843
  127MOL0     C17057  10.409   2.335   0.065 -0.1367  1.1343  0.5537
  127MOL0     O17058  10.654   2.256   0.270  0.3267 -0.4134  0.3929
  127MOL0     C17059  10.730   2.372   0.512  0.8547 -0.3801 -0.2330
  127MOL0     C17060  10.795   2.428   0.625 -0.5653  0.1817  0.0310
  127MOL0     N17061  11.060   2.657   1.344 -0.1352  0.3624 -0.1961
  127MOL0     N17062  11.029   2.658   1.467  0.2853 -0.0671  1.1316
  127MOL0     C17063  10.244   3.468   1.987  0.0229 -0.9650 -0.3016
  127MOL0     C17064  10.197   3.576   2.071 -0.0790  0.3675 -0.3158
  127MOL0     C17065  10.165   3.997   2.281  0.3659  0.0087  0.9558
  127MOL0     C17066  10.130   4.128   2.241  0.4365 -0.1991 -0.2238
  127MOL0     C17067  10.044   4.211   2.315  0.0654 -0.2610  0.5558
  127MOL0     C17068   9.971   4.157   2.417  0.7323 -0.7678  0.5421
  127MOL0     O17069   9.866   4.217   2.481  0.6690  0.0238  0.0274
  127MOL0     C17070   9.847   4.358   2.455 -0.8195 -0.5490  0.1062
  127MOL0     C17071   9.756   4.372   2.336  0.3809  0.1706  0.2190
  127MOL0     C17072   9.692   4.507   2.334  0.5033 -0.7048 -0.4724
  127MOL0     C17073   9.670   4.576   2.202  0.7174 -0.9565 -0.0673
  127MOL0     C17074   9.603   4.709   2.212 -0.9416  0.1140 -0.4148
  127MOL0     C17075   9.544   4.808   2.225  0.1047  0.2582 -0.2232
  127MOL0     C17076  10.001   4.027   2.459 -0.4209 -0.0751 -0.1024
  127MOL0     C17077  10.096   3.953   2.387  1.0868  0.2460 -1.1330
  127MOL0     H17078  10.496   3.739   2.116 -0.1829  0.7112 -2.2518
  127MOL0     H17079  10.577   3.544   1.997 -0.0794  3.1570 -0.0932
  127MOL0     H17080  10.478   3.345   1.709  0.1086 -0.2816 -1.8465
  127MOL0     H17081  10.590   3.448   1.795  3.0266 -1.1989  0.4315
  127MOL0     H17082  10.664   3.285   1.946  0.5975 -0.1192 -0.1590
  127MOL0     H17083  10.563   3.150   1.873  0.9524  0.4263 -0.1127
  127MOL0     H17084  10.671   3.188   1.665 -1.5747  0.7066  0.0548
  127MOL0     H17085  10.782   3.309   1.734  1.2261 -0.7878  1.8717
  127MOL0     H17086  10.865   3.155   1.889  0.4833  4.2804 -1.8111
  127MOL0     H17087  10.754   3.038   1.841 -1.5103  2.3065  2.6547
  127MOL0     H17088  10.858   3.060   1.602 -0.4030 -3.4110 -0.1829
  127MOL0     H17089  10.973   3.170   1.675  2.2928 -1.5504 -2.9986
  127MOL0     H17090  11.089   2.958   1.648  1.1699  0.8877  0.5442
  127MOL0     H17091  11.062   2.979   1.824 -0.1879 -2.6359  1.5733
  127MOL0     H17092  11.000   2.741   1.757 -0.1777 -0.3192  0.2632
  127MOL0     H17093  10.860   2.834   1.815 -0.8202  3.4348 -1.1654
  127MOL0     H17094  10.788   2.862   1.577  0.1474  0.7886  2.1917
  127MOL0     H17095  10.825   2.695   1.614  2.5888 -0.4680 -1.8940
  127MOL0     H17096  10.892   2.941   1.359  1.1618  1.4770  1.7849
  127MOL0     H17097  10.937   2.841   1.106  0.4300  1.6638 -0.4241
  127MOL0     H17098  11.111   2.868   1.130  1.0175 -0.4317 -0.7300
  127MOL0     H17099  11.012   2.578   1.109 -1.7127  0.6005  0.2369
  127MOL0     H17100  11.179   2.639   1.088 -0.9393  0.4774  0.5905
  127MOL0     H17101  11.143   2.636   0.849 -1.8081  0.8611 -3.9159
  127MOL0     H17102  11.051   2.778   0.888  3.2313  0.9143  1.1599
  127MOL0     H17103  10.842   2.635   0.891  0.8953  1.0798 -0.6501
  127MOL0     H17104  10.931   2.490   0.871  1.7387 -0.9522 -4.9472
  127MOL0     H17105  10.888   2.730   0.496 -1.0349  1.0062  1.5743
  127MOL0     H17106  10.750   2.616   0.184 -0.4051 -2.6103  0.5746
  127MOL0     H17107  10.650   2.739   0.267 -3.6527 -2.5924  4.0286
  127MOL0     H17108  10.832   2.728   0.273 -2.8593  3.6690 -3.0425
  127MOL0     H17109  10.702   2.469  -0.053  0.5385 -1.1529 -3.0504
  127MOL0     H17110  10.632   2.408  -0.252  0.5772 -1.3514 -0.1675
  127MOL0     H17111  10.423   2.400  -0.414 -0.8434 -0.7238 -0.9246
  127MOL0     H17112  10.561   2.276  -0.417 -0.5866 -1.1688  1.6229
  127MOL0     H17113  10.292   2.186  -0.509  0.6845  0.2273  2.8236
  127MOL0     H17114  10.372   2.290  -0.615  1.5085 -0.8487 -1.5635
  127MOL0     H17115  10.596   2.128  -0.574  0.0222 -1.6311 -0.7267
  127MOL0     H17116  10.476   2.119  -0.701  1.2209  1.4051 -0.4492
  127MOL0     H17117  10.486   1.962  -0.439  5.4188 -4.1683 -1.9093
  127MOL0     H17118  10.341   1.972  -0.534  0.1988  0.5770  1.3962
  127MOL0     H17119  10.498   1.769  -0.594  1.0291 -0.8486  1.5965
  127MOL0     H17120  10.590   1.897  -0.683 -1.7957  4.2955  1.5610
  127MOL0     H17121  10.293   1.816  -0.702 -2.6166  5.8988 -1.8248
  127MOL0     H17122  10.369   1.935  -0.791 -3.9545  1.4339  3.7648
  127MOL0     H17123  10.475   1.647  -0.788  0.1218  1.1086  1.1509
  127MOL0     H17124  10.553   1.773  -0.874 -0.6557  0.9484  0.6765
  127MOL0     H17125  10.313   1.827  -0.965  0.2786 -1.7037 -3.0972
  127MOL0     H17126  10.259   1.675  -0.914 -2.3783 -1.0499 -4.8940
  127MOL0     H17127  10.271   2.240  -0.084  0.0506 -0.3392 -0.1959
  127MOL0     H17128  10.339   2.345   0.148  1.1604 -1.1288  2.0145
  127MOL0     H17129  10.685   2.276   0.532  0.0131 -1.0860 -4.5367
  127MOL0     H17130  10.806   2.391   0.726  1.6901  1.3110  0.2642
  127MOL0     H17131  10.176   3.395   1.945 -0.3451  0.0511 -1.5478
  127MOL0     H17132  10.094   3.607   2.083 -0.6976 -0.9454 -1.8687
  127MOL0     H17133  10.164   4.151   2.141  2.1333 -3.9376 -0.6770
  127MOL0     H17134  10.022   4.303   2.263  0.6101 -0.9358 -0.9352
  127MOL0     H17135   9.793   4.410   2.534 -0.0612 -0.3644  0.5105
  127MOL0     H17136   9.941   4.413   2.439 -0.4618 -1.1125  0.2487
  127MOL0     H17137   9.686   4.288   2.343  0.1902  0.1257 -1.5997
  127MOL0     H17138   9.810   4.354   2.243  0.2441  0.3045  0.1135
  127MOL0     H17139   9.748   4.571   2.403  0.1196 -1.0449  0.1605
  127MOL0     H17140   9.598   4.475   2.379  0.5290 -1.2454 -0.7831
  127MOL0     H17141   9.600   4.528   2.133 -0.6005  1.8754 -0.8590
  127MOL0     H17142   9.763   4.587   2.145  0.1927  1.0511 -0.6205
  127MOL0     H17143   9.479   4.892   2.212 -0.9082 -0.8488 -3.1922
  127MOL0     H17144   9.943   3.972   2.533 -1.3621  0.2316 -0.5882
  127MOL0     H17145  10.114   3.850   2.413  1.3677  0.7321  0.7201
  128MOL0     O17146   0.034   0.213   2.983 -0.0899  0.2970  0.2965
  128MOL0     C17147   0.031   0.213   2.860  0.6892  0.5452  0.4539
  128MOL0     O17148   0.099   0.129   2.774  0.7761 -0.8285 -0.5710
  128MOL0     C17149   0.173   0.035   2.834 -0.9938  0.1920  0.4389
  128MOL0     C17150   0.127  -0.097   2.822 -0.6320  0.1559  0.3877
  128MOL0     C17151   0.204  -0.199   2.880  0.7872  0.3979  0.4164
  128MOL0     C17152   0.327  -0.168   2.952  0.8254 -0.0501 -0.3950
  128MOL0     O17153   0.403  -0.274   3.000  0.2501 -0.8731  0.0621
  128MOL0     C17154   0.539  -0.261   3.035 -0.3009 -0.0289 -0.8669
  128MOL0     C17155   0.613  -0.394   3.060 -0.5297  0.1599 -0.0552
  128MOL0     C17156   0.571  -0.501   2.952  0.2781 -0.6230 -0.6877
  128MOL0     C17157   0.674  -0.610   2.928  0.1112 -0.1881 -0.0587
  128MOL0     C17158   0.670  -0.647   2.786  0.1940  1.0157 -0.4279
  128MOL0     C17159   0.758  -0.760   2.744  0.1296  0.4880 -0.5629
  128MOL0     C17160   0.783  -0.757   2.596  0.2855  0.2215  0.2448
  128MOL0     C17161   0.659  -0.736   2.506 -0.6793  0.0232 -0.1271
  128MOL0     N17162   0.559  -0.841   2.531 -0.0846 -0.5035 -0.1935
  128MOL0     C17163   0.576  -0.976   2.531 -0.2025  0.0931 -0.2762
  128MOL0     C17164   0.450  -1.033   2.541  0.5506 -0.0975 -0.0814
  128MOL0     C17165   0.439  -1.182   2.505 -0.1948 -0.4392  0.0765
  128MOL0     C17166   0.302  -1.240   2.506  0.2925  0.2543  0.0270
  128MOL0     C17167   0.301  -1.385   2.548 -0.7142  0.7629 -0.1807
  128MOL0     C17168   0.389  -1.475   2.473 -0.1015 -0.4312 -0.4338
  128MOL0     O17169   0.376  -1.608   2.543  0.1665  0.3187 -0.1934
  128MOL0     C17170   0.367  -1.727   2.473 -0.2166  0.3547  0.8666
  128MOL0     C17171   0.386  -1.847   2.544  0.7727  0.0038 -0.2423
  128MOL0     C17172   0.384  -1.961   2.470  0.4005  0.2470  0.1485
  128MOL0     C17173   0.417  -2.082   2.555 -0.0895  0.1743 -0.8178
  128MOL0     C17174   0.360  -1.966   2.333  0.2772  1.4184 -0.2928
  128MOL0     C17175   0.356  -2.089   2.254  0.3953 -0.2975 -0.8424
  128MOL0     O17176   0.288  -2.081   2.136 -0.3943  0.3280 -0.9497
  128MOL0     C17177   0.293  -2.171   2.035  0.9302 -0.5643 -0.0129
  128MOL0     C17178   0.381  -2.273   2.016 -0.4809  0.0200  0.4547
  128MOL0     C17179   0.349  -2.376   1.923  1.0054 -0.1699 -0.5818
  128MOL0     C17180   0.241  -2.372   1.833 -0.4628 -0.7637 -0.7800
  128MOL0     O17181   0.200  -2.464   1.738 -0.0764  0.0812 -0.0540
  128MOL0     C17182   0.303  -2.550   1.682  0.3562 -0.8119  0.7137
  128MOL0     C17183   0.281  -2.576   1.538  1.0719  0.4908  0.0379
  128MOL0     C17184   0.161  -2.663   1.516 -0.6543  0.7625 -0.5275
  128MOL0     C17185   0.185  -2.827   1.524  0.3448  0.8036  0.4557
  128MOL0     C17186   0.093  -2.894   1.419  0.3254 -0.5882  0.8294
  128MOL0     C17187   0.127  -2.873   1.271 -0.2801 -0.3984  0.3027
  128MOL0     C17188   0.251  -2.953   1.236 -0.8318  0.4301 -1.0517
  128MOL0     C17189   0.269  -2.946   1.087  0.1885 -0.3751  0.6987
  128MOL0    Cl17190   0.140  -3.038   1.007 -0.8234  0.2172 -0.6256
  128MOL0     C17191   0.157  -2.261   1.853  0.1368  0.2023 -0.0812
  128MOL0     C17192   0.180  -2.163   1.951 -0.9536  0.4086  0.6011
  128MOL0     O17193   0.443  -2.167   2.277  0.5194  1.2256 -0.0201
  128MOL0     C17194   0.334  -1.844   2.267 -0.6094 -0.2889  0.2843
  128MOL0     C17195   0.336  -1.723   2.336  0.3056 -0.1435 -0.8174
  128MOL0     N17196   0.359  -0.923   2.550  0.7376 -0.4670  0.6569
  128MOL0     N17197   0.426  -0.814   2.535 -1.6103  0.5322 -0.4682
  128MOL0     C17198   0.367  -0.038   2.959 -0.2136  0.5390 -0.2410
  128MOL0     C17199   0.294   0.069   2.905  0.1044  0.2358 -0.3091
  128MOL0     C17200  -0.050   0.325   2.792 -0.0447 -1.4998  0.5135
  128MOL0     C17201  -0.105   0.425   2.867 -0.2137  0.2380  0.3280
  128MOL0     C17202  -0.172   0.531   2.812  0.7770 -0.1764 -0.8794
  128MOL0     C17203  -0.164   0.550   2.678  1.3555  0.0861  0.8674
  128MOL0     O17204  -0.212   0.672   2.630 -0.5185  0.5211  0.9197
  128MOL0     C17205  -0.298   0.669   2.505 -0.2279 -0.0837 -1.8241
  128MOL0     C17206  -0.375   0.806   2.505 -0.0374  0.0407  0.0960
  128MOL0     C17207  -0.286   0.925   2.503 -0.0800  0.4129 -0.8342
  128MOL0     C17208  -0.305   1.040   2.405 -0.6609  0.0426  0.6521
  128MOL0     C17209  -0.426   1.122   2.432 -0.3635 -0.0410  0.7948
  128MOL0     C17210  -0.519   1.201   2.425 -0.1799  0.5817  0.7748
  128MOL0     C17211  -0.116   0.442   2.593  0.0476 -0.6645 -0.4313
  128MOL0     C17212  -0.060   0.328   2.658 -0.6802 -0.3643 -0.0161
  128MOL0     H17213   0.039  -0.107   2.759 -1.1012  0.3218  1.0111
  128MOL0     H17214   0.180  -0.303   2.861  0.1309  0.0178  2.8934
  128MOL0     H17215   0.590  -0.200   2.960 -1.5144  1.2722 -0.6816
  128MOL0     H17216   0.535  -0.206   3.130 -1.4871 -0.5242 -0.6150
  128MOL0     H17217   0.721  -0.377   3.062 -0.8372  2.3659 -0.2274
  128MOL0     H17218   0.589  -0.422   3.163 -0.2861  2.2818  0.6261
  128MOL0     H17219   0.472  -0.541   2.977  0.3334 -1.5579 -1.9023
  128MOL0     H17220   0.543  -0.439   2.866 -1.3165  2.1692  1.6415
  128MOL0     H17221   0.769  -0.565   2.958  1.3640 -3.3412  1.1807
  128MOL0     H17222   0.648  -0.693   2.995  2.1872  1.2216  2.7147
  128MOL0     H17223   0.567  -0.673   2.759  0.4926 -1.7207  0.7569
  128MOL0     H17224   0.685  -0.556   2.726  0.0434  0.1192 -1.8776
  128MOL0     H17225   0.856  -0.762   2.792  0.1684  1.1558 -0.6024
  128MOL0     H17226   0.698  -0.847   2.774 -0.7107  1.2979  0.1675
  128MOL0     H17227   0.863  -0.686   2.573 -1.0965  1.4368 -1.0463
  128MOL0     H17228   0.816  -0.861   2.587 -0.7548 -0.1042  0.1039
  128MOL0     H17229   0.704  -0.749   2.407  4.1619 -4.3550  2.1147
  128MOL0     H17230   0.616  -0.636   2.506  0.3072  0.4587  0.5202
  128MOL0     H17231   0.673  -1.020   2.513  1.2541  2.4799  1.2412
  128MOL0     H17232   0.484  -1.204   2.408 -2.1273 -1.6846 -0.5878
  128MOL0     H17233   0.497  -1.237   2.579 -0.8671 -1.0608  0.1517
  128MOL0     H17234   0.262  -1.233   2.404 -0.2599 -0.5295  0.1832
  128MOL0     H17235   0.232  -1.182   2.566 -2.3026 -0.2282 -2.3465
  128MOL0     H17236   0.199  -1.420   2.530  0.1599 -1.8597 -0.5472
  128MOL0     H17237   0.317  -1.413   2.653 -3.2016 -2.4851 -0.5119
  128MOL0     H17238   0.493  -1.446   2.493 -0.4386  1.2051 -0.8950
  128MOL0     H17239   0.363  -1.463   2.368  1.6977  5.5040 -0.5964
  128MOL0     H17240   0.396  -1.858   2.652 -1.2510 -1.4197 -0.1309
  128MOL0     H17241   0.488  -2.149   2.507 -2.3263 -0.8582 -2.9207
  128MOL0     H17242   0.452  -2.045   2.652  0.5940  1.3425 -1.4865
  128MOL0     H17243   0.321  -2.134   2.568  1.1107 -2.8077 -2.7444
  128MOL0     H17244   0.470  -2.282   2.077  0.1918 -2.1612 -0.7527
  128MOL0     H17245   0.409  -2.466   1.927  0.2709 -0.7040 -1.2393
  128MOL0     H17246   0.402  -2.504   1.685 -0.2494  0.5043  0.9664
  128MOL0     H17247   0.304  -2.643   1.740  2.2679 -0.3962  1.3980
  128MOL0     H17248   0.272  -2.479   1.488  4.1315 -0.0499 -1.7995
  128MOL0     H17249   0.373  -2.620   1.499  1.5055 -1.9004  3.2747
  128MOL0     H17250   0.115  -2.640   1.420 -1.5514 -1.2457 -0.6165
  128MOL0     H17251   0.088  -2.631   1.591  0.0301 -0.9456  0.9202
  128MOL0     H17252   0.290  -2.856   1.516 -0.5552 -2.3198 -1.8503
  128MOL0     H17253   0.142  -2.867   1.616 -1.5368  1.8870  0.1210
  128MOL0     H17254  -0.014  -2.874   1.430  0.0199  0.2044 -2.4241
  128MOL0     H17255   0.104  -3.001   1.439  0.2897 -0.3533  2.1983
  128MOL0     H17256   0.043  -2.891   1.203 -1.8249  2.6712  1.2236
  128MOL0     H17257   0.151  -2.767   1.258 -0.9961 -0.2987 -0.2445
  128MOL0     H17258   0.225  -3.054   1.269  2.2988 -0.1080  0.1403
  128MOL0     H17259   0.342  -2.923   1.289 -1.5590 -1.0445  1.1759
  128MOL0     H17260   0.371  -2.975   1.058  0.4765 -1.3904  2.6052
  128MOL0     H17261   0.266  -2.840   1.060  2.0524 -0.6107 -0.6963
  128MOL0     H17262   0.066  -2.245   1.795  0.6010  0.4582 -0.7603
  128MOL0     H17263   0.095  -2.101   1.975 -2.2492 -1.2920  0.5943
  128MOL0     H17264   0.300  -1.837   2.164  2.3418  2.4931 -0.6710
  128MOL0     H17265   0.309  -1.634   2.279  2.3558  0.2831 -1.1908
  128MOL0     H17266   0.451  -0.018   3.024 -2.2413  0.9813  2.4307
  128MOL0     H17267   0.335   0.169   2.915 -0.9988  0.5002  2.5813
  128MOL0     H17268  -0.097   0.412   2.975  0.7613 -1.7585  0.0548
  128MOL0     H17269  -0.216   0.604   2.880 -1.5906 -0.4589 -2.0129
  128MOL0     H17270  -0.231   0.663   2.419 -0.6087 -4.7402 -2.0456
  128MOL0     H17271  -0.369   0.586   2.505  0.1190 -0.4243 -0.3214
  128MOL0     H17272  -0.453   0.815   2.582  0.0919 -0.6685  0.3148
  128MOL0     H17273  -0.430   0.813   2.411  1.8241 -2.3159 -1.2853
  128MOL0     H17274  -0.185   0.886   2.495 -0.3159 -0.7677  1.3487
  128MOL0     H17275  -0.292   0.967   2.603 -0.2023 -1.0000 -0.2244
  128MOL0     H17276  -0.306   1.007   2.301  1.7503  5.8281 -1.6448
  128MOL0     H17277  -0.223   1.112   2.412 -0.6051 -0.0296  0.7551
  128MOL0     H17278  -0.609   1.259   2.431 -0.7154 -0.2451  0.8353
  128MOL0     H17279  -0.115   0.447   2.485 -1.3699 -0.8338 -0.4720
  128MOL0     H17280  -0.005   0.254   2.601  0.9766  1.1146 -0.4295
  129MOL0     O17281   9.479   0.573  11.126 -0.1389 -0.0221  0.5749
  129MOL0     C17282   9.525   0.492  11.196 -0.5332  0.4720 -0.7441
  129MOL0     O17283   9.596   0.515  11.312  0.0444  0.1220 -0.1212
  129MOL0     C17284   9.655   0.634  11.350 -0.8748  0.0442 -0.5862
  129MOL0     C17285   9.781   0.627  11.419  0.7193  0.5475  0.0937
  129MOL0     C17286   9.833   0.730  11.483 -0.7688 -0.5738 -0.1577
  129MOL0     C17287   9.768   0.856  11.468  0.4613  0.0462  0.7390
  129MOL0     O17288   9.837   0.966  11.520 -0.9628 -0.4190  0.1239
  129MOL0     C17289   9.753   1.064  11.580 -0.6093 -1.1261  0.7892
  129MOL0     C17290   9.838   1.176  11.626  0.3936  0.1494  0.1137
  129MOL0     C17291   9.964   1.146  11.716  0.0436 -0.3776 -0.4421
  129MOL0     C17292  10.095   1.114  11.634 -0.6292 -1.4505 -0.1873
  129MOL0     C17293  10.182   1.012  11.699  0.6094 -0.0658  0.6374
  129MOL0     C17294  10.318   0.991  11.627 -0.2601 -0.8907  0.1033
  129MOL0     C17295  10.430   1.073  11.684  0.3235  0.0189 -0.3249
  129MOL0     C17296  10.562   1.022  11.628 -0.2305 -0.5985 -0.8217
  129MOL0     N17297  10.668   1.102  11.702 -0.0508 -0.9312  0.6968
  129MOL0     C17298  10.726   1.218  11.660 -0.1477  0.3930  0.3258
  129MOL0     C17299  10.817   1.245  11.765  0.3500  0.0137 -0.1068
  129MOL0     C17300  10.933   1.341  11.768  0.6520 -1.2252 -0.4247
  129MOL0     C17301  10.884   1.489  11.790  0.5343  0.4854 -0.2036
  129MOL0     C17302  10.763   1.524  11.892 -0.8353 -1.1461  0.9165
  129MOL0     C17303  10.768   1.459  12.026 -0.3931  0.3890  1.2281
  129MOL0     O17304  10.675   1.513  12.121  0.9161  0.4319 -0.5328
  129MOL0     C17305  10.549   1.460  12.138  0.2027  0.0976  0.9088
  129MOL0     C17306  10.458   1.497  12.242 -0.6982  0.5960 -0.1088
  129MOL0     C17307  10.330   1.448  12.268 -0.3832 -0.4750  0.0483
  129MOL0     C17308  10.253   1.505  12.384  0.1031 -0.0073  0.4057
  129MOL0     C17309  10.292   1.345  12.175  0.3262  0.4114 -0.4865
  129MOL0     C17310  10.155   1.277  12.183 -0.0548 -0.9824 -1.0743
  129MOL0     O17311  10.091   1.231  12.062 -0.1371  1.2032 -0.3578
  129MOL0     C17312   9.980   1.152  12.077  0.2818 -0.6635 -0.8747
  129MOL0     C17313   9.973   1.022  12.029  0.2099  0.5783 -0.2748
  129MOL0     C17314   9.865   0.937  12.062 -0.3315  0.2138  0.6105
  129MOL0     C17315   9.752   0.988  12.125  1.1675 -0.9837 -0.3671
  129MOL0     O17316   9.646   0.904  12.150  0.2154 -0.6476  0.7070
  129MOL0     C17317   9.533   0.957  12.082  0.2217 -0.3658 -0.3451
  129MOL0     C17318   9.449   0.845  12.015 -0.9541  0.4233  0.6499
  129MOL0     C17319   9.537   0.772  11.905  0.7153 -0.5445  1.0156
  129MOL0     C17320   9.456   0.664  11.833 -0.3758  0.1717 -0.1450
  129MOL0     C17321   9.538   0.605  11.720 -0.3019 -0.7439 -0.0840
  129MOL0     C17322   9.470   0.475  11.662 -0.0432  0.1196  0.4332
  129MOL0     C17323   9.341   0.496  11.583  1.1307 -0.3576  0.4034
  129MOL0     C17324   9.294   0.379  11.501  0.2094  0.9913 -0.3228
  129MOL0    Cl17325   9.125   0.391  11.446  0.0070 -0.1998 -0.3719
  129MOL0     C17326   9.757   1.123  12.179 -0.6696 -0.1028 -0.0151
  129MOL0     C17327   9.871   1.204  12.154 -0.4924  0.0483  0.3031
  129MOL0     O17328  10.112   1.255  12.298 -0.4286 -0.0251  0.7963
  129MOL0     C17329  10.382   1.295  12.075  0.4068  0.2015  0.4715
  129MOL0     C17330  10.505   1.349  12.063 -0.2640 -0.6843 -0.1070
  129MOL0     N17331  10.790   1.150  11.865  0.5240 -0.6285  0.8329
  129MOL0     N17332  10.694   1.070  11.832 -0.5844 -0.3041 -0.6663
  129MOL0     C17333   9.648   0.861  11.403  0.9175 -0.3563 -0.4565
  129MOL0     C17334   9.585   0.751  11.358  1.2028  0.1751 -0.0278
  129MOL0     C17335   9.495   0.352  11.164 -0.2693  0.4286 -0.1046
  129MOL0     C17336   9.543   0.241  11.228 -0.0724 -0.2288 -0.0318
  129MOL0     C17337   9.515   0.102  11.203 -0.0764  0.7916  0.0817
  129MOL0     C17338   9.421   0.070  11.105  0.1022  0.0796  0.9446
  129MOL0     O17339   9.403  -0.065  11.061  0.1872 -0.6442 -0.3818
  129MOL0     C17340   9.319  -0.082  10.950 -1.0460  0.1975  0.4067
  129MOL0     C17341   9.301  -0.227  10.917 -0.8002  1.0983 -0.2070
  129MOL0     C17342   9.433  -0.288  10.874 -0.0567  0.0571  0.2861
  129MOL0     C17343   9.404  -0.422  10.802  0.0845 -0.5340 -0.0934
  129MOL0     C17344   9.374  -0.393  10.658 -0.2597 -0.2759  0.5718
  129MOL0     C17345   9.363  -0.352  10.543 -0.6332  0.7441 -0.0302
  129MOL0     C17346   9.378   0.181  11.023 -0.2637 -0.1732 -0.2960
  129MOL0     C17347   9.406   0.313  11.061 -0.2055  0.7631 -0.0472
  129MOL0     H17348   9.825   0.528  11.428 -2.6165 -1.0338  0.5185
  129MOL0     H17349   9.914   0.701  11.550 -0.9800  0.0698  0.3931
  129MOL0     H17350   9.693   1.117  11.505 -0.4304 -2.1733 -0.1199
  129MOL0     H17351   9.687   1.027  11.658 -0.3340 -1.6857  0.7597
  129MOL0     H17352   9.884   1.230  11.543  2.8041  0.5677  1.6011
  129MOL0     H17353   9.768   1.236  11.684  2.4293  1.1109  1.7366
  129MOL0     H17354   9.986   1.225  11.789 -0.1907 -0.3367 -0.4158
  129MOL0     H17355   9.934   1.062  11.779 -0.0575  0.7912  1.1364
  129MOL0     H17356  10.076   1.075  11.533  1.4359  0.5745 -1.4405
  129MOL0     H17357  10.144   1.211  11.628 -1.0250 -1.2626 -0.3587
  129MOL0     H17358  10.200   1.039  11.804  1.5818 -1.2249  0.7876
  129MOL0     H17359  10.130   0.916  11.711 -1.0777  0.9545  2.0562
  129MOL0     H17360  10.350   0.887  11.634  0.7472 -0.5486  0.8658
  129MOL0     H17361  10.292   1.012  11.523  0.6157 -0.9264 -0.1328
  129MOL0     H17362  10.406   1.177  11.662 -2.8890 -0.6555 -0.5284
  129MOL0     H17363  10.433   1.070  11.793 -1.4587 -2.7412 -0.2460
  129MOL0     H17364  10.575   1.029  11.520  1.7544 -2.8473 -0.8247
  129MOL0     H17365  10.583   0.917  11.652  0.4835 -0.5495 -1.2001
  129MOL0     H17366  10.705   1.270  11.566 -2.0407  0.0220  0.5086
  129MOL0     H17367  10.998   1.328  11.855 -0.2190 -1.7180  0.1718
  129MOL0     H17368  10.999   1.330  11.682  1.0639  0.8349 -0.4245
  129MOL0     H17369  10.852   1.539  11.698 -0.2178  0.9360  0.2925
  129MOL0     H17370  10.962   1.540  11.847 -0.7442  1.3213  0.8730
  129MOL0     H17371  10.669   1.489  11.849 -0.3225 -1.8739  0.3467
  129MOL0     H17372  10.771   1.630  11.916 -0.2453 -1.2472  1.1938
  129MOL0     H17373  10.868   1.469  12.069 -0.3599 -0.8528  1.4563
  129MOL0     H17374  10.760   1.352  12.007 -2.7823  0.6099  0.6897
  129MOL0     H17375  10.483   1.579  12.309  0.4123  0.7532 -0.6983
  129MOL0     H17376  10.287   1.605  12.413  2.5195 -0.7831  0.4874
  129MOL0     H17377  10.146   1.502  12.361  0.5131 -2.6082 -1.5931
  129MOL0     H17378  10.277   1.440  12.469  1.2261  1.0006  0.8998
  129MOL0     H17379  10.064   0.979  11.989  1.5899  2.6349  0.4677
  129MOL0     H17380   9.860   0.830  12.046 -0.9279  0.5185 -1.5676
  129MOL0     H17381   9.476   1.009  12.159 -0.3682 -2.1475  0.4855
  129MOL0     H17382   9.548   1.033  12.005  1.6573  2.7239  2.7279
  129MOL0     H17383   9.416   0.775  12.092 -0.6885  1.0590  1.3458
  129MOL0     H17384   9.355   0.883  11.976 -1.1872 -1.5700 -0.8970
  129MOL0     H17385   9.630   0.728  11.942  1.6836 -0.8961 -1.5971
  129MOL0     H17386   9.564   0.855  11.839 -1.1333  1.7081  2.8876
  129MOL0     H17387   9.440   0.583  11.905 -0.6600  0.9082  0.6338
  129MOL0     H17388   9.361   0.699  11.792  1.1293  3.6784 -0.9904
  129MOL0     H17389   9.634   0.571  11.761 -1.1258  1.4817  4.2681
  129MOL0     H17390   9.548   0.690  11.651 -1.6969  1.6145  2.4002
  129MOL0     H17391   9.543   0.434  11.591 -0.0749  0.4691  0.1992
  129MOL0     H17392   9.450   0.401  11.740  0.3709 -1.4286 -0.8727
  129MOL0     H17393   9.342   0.588  11.524  3.4390  0.1760  1.1764
  129MOL0     H17394   9.262   0.509  11.657  2.6141 -0.3703  2.0587
  129MOL0     H17395   9.294   0.289  11.564 -1.3164  0.3257 -1.2318
  129MOL0     H17396   9.365   0.365  11.420  0.6770 -3.2440  0.5704
  129MOL0     H17397   9.682   1.159  12.249 -1.8827  0.5957 -1.6312
  129MOL0     H17398   9.860   1.304  12.194 -0.1390 -0.0404  0.6294
  129MOL0     H17399  10.349   1.205  12.024 -1.7569  1.1458  0.0724
  129MOL0     H17400  10.575   1.292  12.003 -1.1689 -1.5387 -0.3793
  129MOL0     H17401   9.597   0.957  11.405 -2.1142 -1.8101 -1.6983
  129MOL0     H17402   9.478   0.751  11.339  1.2794 -1.0912 -0.6092
  129MOL0     H17403   9.613   0.273  11.305 -3.0399  0.8865  2.4151
  129MOL0     H17404   9.550   0.011  11.250  0.9791  0.8963 -0.4831
  129MOL0     H17405   9.227  -0.029  10.976 -1.7700 -0.1335 -1.3417
  129MOL0     H17406   9.352  -0.028  10.861 -1.5494  0.9226  0.6468
  129MOL0     H17407   9.225  -0.236  10.838 -1.8734 -1.1132  0.9763
  129MOL0     H17408   9.261  -0.287  10.999 -3.7354  2.0166 -0.8258
  129MOL0     H17409   9.498  -0.305  10.960 -1.6460 -0.9499  1.3455
  129MOL0     H17410   9.490  -0.215  10.816  2.3400 -0.6580  1.6037
  129MOL0     H17411   9.311  -0.466  10.839 -0.3704 -0.5241 -1.1981
  129MOL0     H17412   9.492  -0.484  10.823 -0.3395 -1.3538 -0.7020
  129MOL0     H17413   9.340  -0.310  10.447  0.6228 -0.7085 -1.0111
  129MOL0     H17414   9.322   0.167  10.931  2.5186 -0.1023 -2.1201
  129MOL0     H17415   9.362   0.391  10.999  0.2397  2.6142  1.8472
  130MOL0     O17416   2.539   5.772  10.256 -0.4721 -1.4250 -0.6289
  130MOL0     C17417   2.545   5.861  10.342 -0.1024  0.8417  0.1536
  130MOL0     O17418   2.549   6.000  10.313 -0.4148  0.2316  0.2079
  130MOL0     C17419   2.529   6.045  10.180 -0.7543  0.6529  0.7174
  130MOL0     C17420   2.549   5.968  10.061  0.6962 -0.2028  0.0665
  130MOL0     C17421   2.515   6.019   9.941 -0.5315 -0.4898  0.6554
  130MOL0     C17422   2.455   6.149   9.935  0.3957  0.6249  0.0887
  130MOL0     O17423   2.402   6.204   9.820  0.4710  0.2268 -0.3850
  130MOL0     C17424   2.488   6.233   9.717 -0.1241  0.6712 -0.6584
  130MOL0     C17425   2.423   6.203   9.579  0.1587  0.3448  0.5258
  130MOL0     C17426   2.375   6.058   9.578  0.4572 -1.4100 -0.1798
  130MOL0     C17427   2.313   6.029   9.443 -0.0091 -0.7226 -0.8083
  130MOL0     C17428   2.256   5.890   9.440  0.6419 -0.3764  0.9598
  130MOL0     C17429   2.221   5.857   9.293 -0.2895  0.5387 -0.5649
  130MOL0     C17430   2.145   5.721   9.275 -0.0623 -0.0015 -0.5149
  130MOL0     C17431   2.248   5.605   9.309  0.4321 -1.5117 -0.1877
  130MOL0     N17432   2.190   5.472   9.307 -0.1246  1.0542  0.4659
  130MOL0     C17433   2.082   5.442   9.379 -0.5887  0.5530  0.1750
  130MOL0     C17434   2.051   5.307   9.350 -0.0591 -0.3345 -0.3054
  130MOL0     C17435   1.937   5.240   9.415  0.2046  0.6898 -0.0062
  130MOL0     C17436   1.971   5.217   9.562 -0.9002 -1.0262  0.4411
  130MOL0     C17437   1.846   5.166   9.626 -0.8857  1.0014 -0.5872
  130MOL0     C17438   1.861   5.152   9.780  0.8383 -0.1116 -0.0204
  130MOL0     O17439   1.750   5.076   9.804 -0.8403  0.0251 -0.3416
  130MOL0     C17440   1.651   5.133   9.872  0.1789  0.5623 -0.2702
  130MOL0     C17441   1.672   5.131  10.011  0.4736  1.0047 -0.4670
  130MOL0     C17442   1.569   5.166  10.103  0.7513  0.3798 -0.3279
  130MOL0     C17443   1.594   5.150  10.248  0.1341 -0.1688 -0.6154
  130MOL0     C17444   1.446   5.214  10.043 -0.7211  0.1073 -0.1673
  130MOL0     C17445   1.325   5.262  10.121 -0.8830 -0.5101 -0.4046
  130MOL0     O17446   1.213   5.278  10.051  0.5700  0.7882 -0.1440
  130MOL0     C17447   1.098   5.315  10.110 -0.7646  0.1761  0.3700
  130MOL0     C17448   1.033   5.427  10.048 -0.4287 -1.6308  0.0983
  130MOL0     C17449   0.905   5.469  10.090 -0.1626  0.0658 -0.4787
  130MOL0     C17450   0.833   5.390  10.178 -0.4412 -0.8119 -0.9090
  130MOL0     O17451   0.709   5.427  10.225  0.0188 -0.8789  0.3023
  130MOL0     C17452   0.711   5.516  10.334  0.3773  0.1426  0.7121
  130MOL0     C17453   0.568   5.580  10.346  0.6014  0.3387  0.0608
  130MOL0     C17454   0.523   5.602  10.483  0.0782 -0.3495 -0.2378
  130MOL0     C17455   0.391   5.672  10.510  0.3909 -0.4284  0.5814
  130MOL0     C17456   0.399   5.779  10.627  0.2160  0.7200  0.3553
  130MOL0     C17457   0.257   5.836  10.634  0.2338  0.6959  0.8977
  130MOL0     C17458   0.225   5.931  10.748 -0.3037 -0.7540  0.2890
  130MOL0     C17459   0.092   6.010  10.727 -0.3480 -0.1538  0.0528
  130MOL0    Cl17460  -0.036   5.897  10.638 -0.0610 -0.3582 -0.0290
  130MOL0     C17461   0.885   5.265  10.217 -0.6533 -0.6708 -0.6841
  130MOL0     C17462   1.020   5.229  10.189 -0.4765  0.8712  0.3267
  130MOL0     O17463   1.334   5.300  10.238 -0.4354 -0.6020  0.2042
  130MOL0     C17464   1.432   5.231   9.904  0.4307  0.6036 -0.5315
  130MOL0     C17465   1.537   5.196   9.812  0.6240  0.4976 -0.4980
  130MOL0     N17466   2.145   5.261   9.255 -0.3816 -0.3348 -0.1079
  130MOL0     N17467   2.218   5.364   9.219  0.5715  0.0358  0.0529
  130MOL0     C17468   2.424   6.226  10.048  0.2766 -0.0272 -0.2758
  130MOL0     C17469   2.474   6.178  10.170  0.0152 -0.6703 -0.6906
  130MOL0     C17470   2.573   5.821  10.480 -1.1519 -0.4216 -1.2807
  130MOL0     C17471   2.594   5.924  10.578  0.1354  0.4613  0.1903
  130MOL0     C17472   2.626   5.895  10.711 -0.7313 -0.9017 -0.3156
  130MOL0     C17473   2.644   5.756  10.742 -0.8134 -0.0626 -1.0002
  130MOL0     O17474   2.678   5.737  10.874 -0.8415 -0.0671 -0.6206
  130MOL0     C17475   2.740   5.615  10.894 -0.7859  0.4186 -0.4818
  130MOL0     C17476   2.831   5.615  11.015  0.0331  0.1191  0.6642
  130MOL0     C17477   2.776   5.596  11.161  0.6241 -0.6341  0.4314
  130MOL0     C17478   2.644   5.668  11.202 -0.5395 -0.5780 -0.0797
  130MOL0     C17479   2.582   5.601  11.313 -0.1374  1.1188 -0.1376
  130MOL0     C17480   2.523   5.538  11.392 -0.2868 -0.8522 -0.2174
  130MOL0     C17481   2.616   5.662  10.645  0.2925  0.7243 -0.5766
  130MOL0     C17482   2.575   5.689  10.521 -1.6189  1.0097  0.3858
  130MOL0     H17483   2.602   5.873  10.053  2.4191  0.8701 -5.4807
  130MOL0     H17484   2.544   5.961   9.853  1.2680 -1.1887  1.6573
  130MOL0     H17485   2.512   6.339   9.708  2.3412  0.0227 -3.3306
  130MOL0     H17486   2.585   6.183   9.728 -0.0015  0.8853 -0.7704
  130MOL0     H17487   2.347   6.276   9.551  1.8311  2.4545  1.2863
  130MOL0     H17488   2.504   6.214   9.506  1.0963 -0.7280  1.3550
  130MOL0     H17489   2.459   5.990   9.596  3.1487  1.3274 -1.4082
  130MOL0     H17490   2.298   6.045   9.654 -0.6158 -1.6220 -1.2847
  130MOL0     H17491   2.239   6.102   9.409 -0.2402 -1.4214 -1.8464
  130MOL0     H17492   2.398   6.029   9.374  0.6888 -1.9810  0.0149
  130MOL0     H17493   2.341   5.827   9.467  2.2188 -0.6545 -3.7109
  130MOL0     H17494   2.169   5.880   9.506 -1.5552 -2.5788 -1.9794
  130MOL0     H17495   2.163   5.935   9.245  0.4495 -0.7812 -3.8756
  130MOL0     H17496   2.312   5.846   9.233 -0.2778  0.0989 -0.4744
  130MOL0     H17497   2.068   5.709   9.351  3.1163  1.9634  3.4237
  130MOL0     H17498   2.106   5.708   9.174  0.4206  2.1311 -1.0349
  130MOL0     H17499   2.303   5.634   9.398  2.6980 -0.3815 -1.8634
  130MOL0     H17500   2.325   5.598   9.231 -1.3904 -0.0997 -2.2542
  130MOL0     H17501   2.037   5.499   9.460 -1.3666  1.8591 -1.1470
  130MOL0     H17502   1.845   5.296   9.397  0.2996  1.0059  0.4570
  130MOL0     H17503   1.932   5.152   9.352  1.9394  3.9125 -5.3484
  130MOL0     H17504   2.002   5.312   9.606  0.9796  0.7898 -4.1600
  130MOL0     H17505   2.057   5.150   9.568  1.5416  2.0131  1.8247
  130MOL0     H17506   1.834   5.060   9.602 -1.6792  0.3491  2.3069
  130MOL0     H17507   1.758   5.221   9.590 -2.3904 -1.4018 -0.8692
  130MOL0     H17508   1.883   5.243   9.836  0.1969  1.6337 -2.4487
  130MOL0     H17509   1.955   5.100   9.803  1.0572  0.3032  0.0252
  130MOL0     H17510   1.766   5.104  10.059  0.9387  1.9799 -0.8168
  130MOL0     H17511   1.618   5.247  10.291 -0.0553  0.3218 -1.5890
  130MOL0     H17512   1.506   5.099  10.288 -0.3111  0.5322 -0.6892
  130MOL0     H17513   1.681   5.086  10.266  0.1623 -0.6034 -2.1094
  130MOL0     H17514   1.086   5.500   9.988 -1.3894  0.4390  1.6150
  130MOL0     H17515   0.869   5.564  10.050  4.7908  2.1163 -0.6968
  130MOL0     H17516   0.728   5.450  10.420  1.4638 -0.0608  0.3567
  130MOL0     H17517   0.777   5.603  10.335 -2.1506  2.2075 -0.0165
  130MOL0     H17518   0.567   5.676  10.294  0.2487 -0.6751 -1.9148
  130MOL0     H17519   0.484   5.524  10.304  0.6947  0.6955 -0.6128
  130MOL0     H17520   0.602   5.659  10.533 -0.5745 -0.5563  1.0858
  130MOL0     H17521   0.531   5.504  10.530 -0.5331 -1.0641 -1.5572
  130MOL0     H17522   0.365   5.734  10.423 -0.1671  2.3434  2.5714
  130MOL0     H17523   0.320   5.591  10.526  1.3029 -1.5372 -0.7668
  130MOL0     H17524   0.472   5.856  10.600  1.0876 -0.0617  0.4312
  130MOL0     H17525   0.423   5.745  10.728  1.3557 -2.1134 -0.7650
  130MOL0     H17526   0.230   5.882  10.538 -0.6235  0.7431  1.1587
  130MOL0     H17527   0.199   5.745  10.652  1.3809  0.3869  3.4364
  130MOL0     H17528   0.299   6.011  10.751 -2.4240  1.4968 -2.3086
  130MOL0     H17529   0.205   5.887  10.846 -2.6796  1.8570  1.1310
  130MOL0     H17530   0.121   6.096  10.666 -0.1619  1.7496  2.6380
  130MOL0     H17531   0.059   6.045  10.826 -0.6875  1.1543 -0.4932
  130MOL0     H17532   0.828   5.201  10.283  2.8520 -0.4436  2.9839
  130MOL0     H17533   1.050   5.128  10.213 -1.8751  0.0996 -0.9533
  130MOL0     H17534   1.341   5.273   9.861 -1.3672 -1.6167  0.9190
  130MOL0     H17535   1.523   5.215   9.706  2.8422  1.5441 -0.6527
  130MOL0     H17536   2.372   6.320  10.035  1.4199  1.0342  2.2045
  130MOL0     H17537   2.469   6.241  10.257  2.3406  0.6269 -1.4047
  130MOL0     H17538   2.579   6.027  10.547 -3.4692 -0.8158 -3.0437
  130MOL0     H17539   2.614   5.979  10.778  0.0097  2.3481 -3.9508
  130MOL0     H17540   2.678   5.528  10.917  1.0619 -0.5457  1.1862
  130MOL0     H17541   2.809   5.599  10.811  2.8645  0.5650  2.2731
  130MOL0     H17542   2.893   5.705  11.006 -1.3848  1.1026  0.4074
  130MOL0     H17543   2.904   5.533  11.008  1.5670  1.3893  1.2705
  130MOL0     H17544   2.861   5.604  11.229 -0.2385  0.0914  1.4479
  130MOL0     H17545   2.757   5.488  11.166 -2.2945 -0.1464  2.8429
  130MOL0     H17546   2.573   5.681  11.120 -1.8930 -2.2695  0.7727
  130MOL0     H17547   2.684   5.765  11.234 -2.8908  0.9662 -1.5571
  130MOL0     H17548   2.451   5.485  11.451  0.2099  0.2248  1.4577
  130MOL0     H17549   2.639   5.558  10.661 -1.4849  0.2292 -0.9851
  130MOL0     H17550   2.567   5.610  10.448 -1.0903  0.0758  1.3042
  131MOL0     O17551  10.460  10.447   8.755 -0.7271 -0.1323 -0.4498
  131MOL0     C17552  10.458  10.328   8.735 -1.2937 -0.5571 -0.4880
  131MOL0     O17553  10.394  10.267   8.637 -0.2527 -1.1517 -0.2858
  131MOL0     C17554  10.350  10.346   8.531  0.0509 -0.3474  0.1069
  131MOL0     C17555  10.222  10.330   8.483  0.2227 -0.5826 -0.1562
  131MOL0     C17556  10.168  10.420   8.389 -0.8170  0.4914  0.7374
  131MOL0     C17557  10.260  10.517   8.326  0.2028  1.2206  0.1393
  131MOL0     O17558  10.215  10.595   8.217  0.0673  0.3359  0.3817
  131MOL0     C17559  10.074  10.611   8.183 -0.4241 -0.3610  0.1356
  131MOL0     C17560  10.066  10.701   8.057 -0.2502 -0.0247 -0.0937
  131MOL0     C17561  10.141  10.648   7.938 -0.2184 -0.7128 -0.1146
  131MOL0     C17562  10.295  10.645   7.951  0.0992  0.4926 -0.0988
  131MOL0     C17563  10.358  10.785   7.965  0.9481 -0.4249 -0.0179
  131MOL0     C17564  10.510  10.764   7.952  0.2296 -0.1947  0.3061
  131MOL0     C17565  10.572  10.898   7.914  0.3926  0.9018 -0.4320
  131MOL0     C17566  10.726  10.915   7.946  0.1538  0.3294 -0.5520
  131MOL0     N17567  10.799  10.834   7.847  0.4920  0.0677 -1.1732
  131MOL0     C17568  10.835  10.702   7.848  0.2761 -0.4995  0.3051
  131MOL0     C17569  10.925  10.687   7.742 -0.3039 -0.6084 -0.4445
  131MOL0     C17570  10.999  10.558   7.701 -0.7029 -0.0269 -0.1517
  131MOL0     C17571  10.959  10.502   7.557 -0.8197  0.2150 -0.3366
  131MOL0     C17572  10.827  10.424   7.551 -0.5097  0.0369 -0.7034
  131MOL0     C17573  10.708  10.523   7.571  0.4676  0.1817  0.7804
  131MOL0     O17574  10.588  10.470   7.514  0.0149  0.3518 -0.1563
  131MOL0     C17575  10.475  10.546   7.482  0.0874 -0.0182 -0.0760
  131MOL0     C17576  10.470  10.686   7.521  0.3760 -0.2026  0.2476
  131MOL0     C17577  10.361  10.775   7.488 -0.3133  0.0872  0.5582
  131MOL0     C17578  10.371  10.916   7.532  0.3309 -0.4937 -0.8657
  131MOL0     C17579  10.241  10.714   7.427  0.0753  0.3055 -0.7913
  131MOL0     C17580  10.118  10.793   7.394 -0.0585  0.0632  0.2538
  131MOL0     O17581  10.030  10.730   7.322 -0.2509 -0.2951  0.1704
  131MOL0     C17582   9.923  10.787   7.263 -0.2497 -0.8789  0.3896
  131MOL0     C17583   9.914  10.926   7.241 -0.0243  0.1471 -1.2035
  131MOL0     C17584   9.816  10.969   7.161 -0.2243  0.9303  0.5379
  131MOL0     C17585   9.723  10.873   7.101  0.0041  0.2382 -0.1753
  131MOL0     O17586   9.624  10.897   7.007 -0.2205  0.0869  0.0579
  131MOL0     C17587   9.627  11.026   6.944 -0.3888 -0.0049 -0.2616
  131MOL0     C17588   9.504  11.048   6.856  0.1952 -0.7434 -1.1252
  131MOL0     C17589   9.486  11.197   6.826  0.4399  0.0717 -0.0847
  131MOL0     C17590   9.361  11.224   6.739 -0.1793 -0.0400 -0.7024
  131MOL0     C17591   9.362  11.361   6.688 -0.7062  0.3826 -0.4717
  131MOL0     C17592   9.246  11.409   6.614  0.3657  0.1613 -0.3408
  131MOL0     C17593   9.127  11.413   6.708 -0.5228 -1.3251 -0.3228
  131MOL0     C17594   9.001  11.483   6.641  0.3864 -0.2501  0.5289
  131MOL0    Cl17595   8.872  11.488   6.757  0.0162  0.5118 -0.3648
  131MOL0     C17596   9.744  10.736   7.130 -0.0208 -0.1355  0.1378
  131MOL0     C17597   9.847  10.695   7.203 -0.0081  0.2278 -0.1629
  131MOL0     O17598  10.104  10.902   7.459  0.3126  0.3631  0.2350
  131MOL0     C17599  10.242  10.579   7.402 -0.8397  0.0550  0.6571
  131MOL0     C17600  10.358  10.496   7.419  0.1457  0.0961 -0.5020
  131MOL0     N17601  10.939  10.813   7.675  0.8685 -0.1734  0.1649
  131MOL0     N17602  10.874  10.898   7.745  0.1987 -0.5450  1.1695
  131MOL0     C17603  10.392  10.523   8.368 -0.9307  0.1827 -0.3631
  131MOL0     C17604  10.435  10.433   8.468 -0.1209 -0.1703  0.1096
  131MOL0     C17605  10.548  10.241   8.809 -0.6903  0.3307  0.7802
  131MOL0     C17606  10.580  10.122   8.752 -0.4105  0.6180  0.5381
  131MOL0     C17607  10.674  10.036   8.811 -0.0034  0.0880 -0.1969
  131MOL0     C17608  10.739  10.070   8.936  0.2185 -1.4320  1.1392
  131MOL0     O17609  10.832   9.994   8.996  0.4948  0.4981  0.1140
  131MOL0     C17610  10.861   9.859   8.954  0.0255 -0.4235 -0.7916
  131MOL0     C17611  10.741   9.767   9.008  0.3082 -0.1972  0.6704
  131MOL0     C17612  10.760   9.623   8.984  0.0226 -0.2843  0.2091
  131MOL0     C17613  10.899   9.576   9.035  1.1742  0.3267 -0.3688
  131MOL0     C17614  10.914   9.431   9.063 -0.2345 -0.2515 -0.2020
  131MOL0     C17615  10.892   9.314   9.081  0.9890  0.0621  0.3665
  131MOL0     C17616  10.695  10.187   8.993  0.3965 -0.0989  0.0366
  131MOL0     C17617  10.604  10.278   8.932 -0.3585 -0.1181 -0.0055
  131MOL0     H17618  10.167  10.245   8.521 -0.3244  0.5988  1.7959
  131MOL0     H17619  10.061  10.410   8.373 -1.0156 -0.0460  2.2627
  131MOL0     H17620  10.021  10.517   8.167 -0.9105  0.1210 -1.2726
  131MOL0     H17621  10.020  10.667   8.259  1.4187  4.0019 -1.4672
  131MOL0     H17622   9.966  10.715   8.017 -0.1685  1.2984  0.1089
  131MOL0     H17623  10.105  10.798   8.088 -0.6416  0.5909 -1.4690
  131MOL0     H17624  10.107  10.545   7.930 -2.8922 -0.1826  2.4086
  131MOL0     H17625  10.107  10.706   7.852  0.0422 -0.4022 -0.0153
  131MOL0     H17626  10.337  10.566   8.013  4.3355  0.2751 -2.8710
  131MOL0     H17627  10.321  10.619   7.848  3.8375  0.2674  0.7824
  131MOL0     H17628  10.326  10.849   7.883 -0.1436  3.2614  3.0286
  131MOL0     H17629  10.329  10.839   8.055 -0.7694 -0.3291 -0.5969
  131MOL0     H17630  10.558  10.716   8.038  0.0549  1.8974  1.6372
  131MOL0     H17631  10.519  10.694   7.869 -0.4847  2.5386 -2.2318
  131MOL0     H17632  10.562  10.921   7.807 -0.6778  0.9934 -0.3301
  131MOL0     H17633  10.530  10.976   7.978  3.3212 -0.1260  3.0743
  131MOL0     H17634  10.742  10.879   8.048 -0.5873 -1.2454 -0.9461
  131MOL0     H17635  10.760  11.017   7.928  0.5554  0.4569  0.8604
  131MOL0     H17636  10.797  10.628   7.918 -0.8102  2.4417  3.1101
  131MOL0     H17637  11.106  10.577   7.700 -0.6929 -0.0191 -2.3884
  131MOL0     H17638  10.984  10.489   7.785  0.0195 -1.8014 -1.4430
  131MOL0     H17639  11.036  10.433   7.522 -1.2475 -0.6584  0.4074
  131MOL0     H17640  10.960  10.594   7.497 -0.0853  0.0421 -0.6010
  131MOL0     H17641  10.815  10.344   7.625 -1.3872 -0.9372 -1.8618
  131MOL0     H17642  10.813  10.388   7.449 -1.6505 -0.9491 -0.2128
  131MOL0     H17643  10.739  10.613   7.516 -1.7189 -0.2168 -1.2447
  131MOL0     H17644  10.687  10.544   7.676  1.9112  0.7422  0.9757
  131MOL0     H17645  10.556  10.731   7.569  1.6573 -0.7135 -1.4693
  131MOL0     H17646  10.319  10.905   7.627  1.3825  2.2127  0.1167
  131MOL0     H17647  10.472  10.948   7.561 -0.7929  4.0128 -1.1835
  131MOL0     H17648  10.326  10.991   7.466 -4.7421 -0.6444  1.9030
  131MOL0     H17649   9.974  11.003   7.289  0.9021 -1.2182 -0.0748
  131MOL0     H17650   9.816  11.072   7.128 -1.9438  0.4055 -1.2541
  131MOL0     H17651   9.641  11.102   7.022  0.1961 -1.6559  1.3139
  131MOL0     H17652   9.710  11.039   6.873  2.3825 -0.9900  2.5657
  131MOL0     H17653   9.537  10.998   6.764  1.2734 -1.2226 -0.5021
  131MOL0     H17654   9.409  10.999   6.878  2.2876 -4.4123  0.7092
  131MOL0     H17655   9.577  11.234   6.777 -1.5091  0.6681 -3.5609
  131MOL0     H17656   9.475  11.250   6.921 -0.4638 -1.1977  0.5417
  131MOL0     H17657   9.362  11.160   6.650  1.1200 -2.3781  0.8755
  131MOL0     H17658   9.269  11.203   6.793  0.4949 -0.5255  0.2865
  131MOL0     H17659   9.453  11.371   6.628 -1.1007 -0.3064 -1.2046
  131MOL0     H17660   9.375  11.427   6.774  2.2816  0.0129 -0.5126
  131MOL0     H17661   9.261  11.510   6.573 -1.1153  1.0243  1.1107
  131MOL0     H17662   9.210  11.351   6.529  1.4959  1.0783 -1.4961
  131MOL0     H17663   9.163  11.458   6.800 -0.6692 -1.7961 -0.0315
  131MOL0     H17664   9.105  11.311   6.741  1.2682 -1.8033 -0.4533
  131MOL0     H17665   8.965  11.422   6.557  0.8447 -3.0218  2.2127
  131MOL0     H17666   9.024  11.584   6.607 -2.0250  0.0046 -0.5923
  131MOL0     H17667   9.674  10.666   7.085 -2.1251  3.7758 -3.4379
  131MOL0     H17668   9.877  10.591   7.213  1.8311  0.8623  1.4183
  131MOL0     H17669  10.154  10.523   7.373  0.8596 -1.4517 -1.9945
  131MOL0     H17670  10.354  10.390   7.395  0.7278  0.4615 -2.3830
  131MOL0     H17671  10.473  10.587   8.337  1.5892 -1.2286  2.8065
  131MOL0     H17672  10.537  10.462   8.492 -0.3525  0.9153 -0.1518
  131MOL0     H17673  10.531  10.081   8.663  3.8906 -0.4803 -1.5775
  131MOL0     H17674  10.685   9.940   8.763 -0.3915  0.1542 -0.4251
  131MOL0     H17675  10.855   9.841   8.846 -2.9105  0.3374 -0.8491
  131MOL0     H17676  10.959   9.824   8.987 -1.0301 -1.0627  1.9395
  131MOL0     H17677  10.648   9.798   8.960  1.3560  0.1424 -1.2490
  131MOL0     H17678  10.731   9.772   9.117  0.9639 -0.3653  0.7425
  131MOL0     H17679  10.762   9.608   8.875 -1.0613  1.7383 -0.1287
  131MOL0     H17680  10.680   9.559   9.021 -0.0013 -1.2054 -1.3543
  131MOL0     H17681  10.918   9.631   9.127 -2.3066  2.4559 -0.7432
  131MOL0     H17682  10.974   9.614   8.965 -1.1851  1.7315 -2.2768
  131MOL0     H17683  10.866   9.213   9.102 -2.9222  1.4092  3.3280
  131MOL0     H17684  10.750  10.223   9.080 -4.3723  0.7660  3.0973
  131MOL0     H17685  10.582  10.377   8.970 -0.0431 -0.2309  0.4807
  132MOL0     O17686   3.970   5.403   8.868 -0.2922  0.0302  0.1532
  132MOL0     C17687   4.051   5.323   8.818 -1.0447 -0.5274  1.0119
  132MOL0     O17688   4.109   5.336   8.695  0.5399 -0.5612 -0.5695
  132MOL0     C17689   4.080   5.459   8.634  0.4150 -0.6276  0.5350
  132MOL0     C17690   4.012   5.470   8.510 -0.7532  0.3071 -0.1964
  132MOL0     C17691   3.994   5.590   8.452 -0.4458  1.0167  0.1100
  132MOL0     C17692   4.061   5.701   8.500 -0.2392 -0.6317  0.0048
  132MOL0     O17693   4.040   5.818   8.425 -0.3020  0.1194  1.0758
  132MOL0     C17694   4.126   5.926   8.458  1.1051 -0.2562 -0.2045
  132MOL0     C17695   4.073   6.049   8.386 -0.6061  0.1035 -0.0843
  132MOL0     C17696   4.092   6.055   8.233 -0.6011  0.1722 -0.5845
  132MOL0     C17697   4.024   6.185   8.185  0.1999  0.2693 -0.2679
  132MOL0     C17698   4.018   6.195   8.037  0.2484 -0.0112  0.7016
  132MOL0     C17699   3.960   6.337   7.998 -0.9766  0.1725  1.2341
  132MOL0     C17700   4.035   6.395   7.870  0.1831  0.3994  0.5444
  132MOL0     C17701   3.980   6.526   7.818  0.8529  0.1551  0.3133
  132MOL0     N17702   3.837   6.547   7.825 -0.5451 -0.0283 -0.6721
  132MOL0     C17703   3.739   6.490   7.746 -0.9796 -0.5070 -0.7506
  132MOL0     C17704   3.626   6.531   7.795  0.1647 -0.3473 -0.2511
  132MOL0     C17705   3.499   6.484   7.732 -0.6912 -0.5495  0.2452
  132MOL0     C17706   3.456   6.572   7.611  0.3566 -0.7456  0.1744
  132MOL0     C17707   3.416   6.722   7.644 -0.6766 -0.2878 -0.9601
  132MOL0     C17708   3.371   6.811   7.527  0.0144  0.2271  0.5664
  132MOL0     O17709   3.229   6.791   7.493 -0.2492 -0.2944  0.6769
  132MOL0     C17710   3.222   6.720   7.376 -0.5332 -0.0034 -0.4503
  132MOL0     C17711   3.266   6.767   7.256 -0.3505  0.6254  0.4289
  132MOL0     C17712   3.242   6.698   7.131  0.1450 -0.7428  0.1383
  132MOL0     C17713   3.284   6.766   7.001 -0.2204  0.2377 -0.2357
  132MOL0     C17714   3.173   6.572   7.135 -1.0222  0.9766 -0.7145
  132MOL0     C17715   3.156   6.480   7.017 -0.6515 -0.8036  0.3947
  132MOL0     O17716   3.103   6.544   6.904  0.7720 -0.1096  0.3389
  132MOL0     C17717   3.078   6.463   6.789 -0.4787 -0.3877  0.1663
  132MOL0     C17718   3.047   6.324   6.786 -0.2856  1.3618  0.4609
  132MOL0     C17719   3.007   6.264   6.664 -0.0499 -1.3742 -0.0532
  132MOL0     C17720   3.000   6.338   6.546 -0.6109  0.5840 -0.0505
  132MOL0     O17721   2.962   6.260   6.441  0.1204 -0.4543  0.8162
  132MOL0     C17722   3.028   6.301   6.313 -0.4120  0.7345  0.0421
  132MOL0     C17723   2.967   6.223   6.198 -0.0949  0.5755 -0.2663
  132MOL0     C17724   2.807   6.245   6.200  0.8402  1.2482 -0.4002
  132MOL0     C17725   2.777   6.359   6.122 -0.1620  0.2246 -0.0900
  132MOL0     C17726   2.623   6.376   6.113 -0.6236  0.1594 -0.1383
  132MOL0     C17727   2.587   6.505   6.033  0.0528 -0.6310 -0.3159
  132MOL0     C17728   2.436   6.522   6.052 -0.7232  0.1708 -1.1600
  132MOL0     C17729   2.382   6.644   5.990 -0.5745  0.2187 -0.4079
  132MOL0    Cl17730   2.209   6.682   6.020  0.0923 -0.3047 -0.0479
  132MOL0     C17731   3.038   6.469   6.546  0.2091 -0.5924 -0.9463
  132MOL0     C17732   3.076   6.530   6.670  0.7911 -0.1920 -1.1612
  132MOL0     O17733   3.209   6.365   7.022 -0.1220 -0.2273  0.2154
  132MOL0     C17734   3.139   6.519   7.260  0.7018 -0.0904  0.7774
  132MOL0     C17735   3.156   6.596   7.373  0.1962 -0.4276 -0.3792
  132MOL0     N17736   3.646   6.627   7.894  0.4154 -0.3603  0.6280
  132MOL0     N17737   3.776   6.635   7.912  0.1342  0.0322  0.5683
  132MOL0     C17738   4.125   5.693   8.624 -0.7142  0.0518  0.2384
  132MOL0     C17739   4.137   5.575   8.687 -0.8824 -0.3326  1.2388
  132MOL0     C17740   4.101   5.221   8.908  0.7033  0.0091  0.1396
  132MOL0     C17741   4.021   5.177   9.007 -0.3594  0.1005 -0.9148
  132MOL0     C17742   4.065   5.071   9.099 -0.3692 -0.2021 -0.1266
  132MOL0     C17743   4.198   5.030   9.083 -0.5859 -0.4479 -0.3093
  132MOL0     O17744   4.242   4.925   9.159  0.4211 -0.0265  0.2364
  132MOL0     C17745   4.381   4.909   9.194 -0.8242 -0.6494  0.4704
  132MOL0     C17746   4.422   4.795   9.283 -0.0007 -0.1177  0.5363
  132MOL0     C17747   4.341   4.797   9.412  0.4743  0.0970  0.2287
  132MOL0     C17748   4.356   4.923   9.506 -0.4698  0.8117  0.1911
  132MOL0     C17749   4.498   4.942   9.527  0.2939 -1.7592 -0.9299
  132MOL0     C17750   4.616   4.965   9.553  0.1739  0.0137 -0.8409
  132MOL0     C17751   4.278   5.078   8.984  0.4623 -0.3938  0.0126
  132MOL0     C17752   4.230   5.167   8.885 -0.4261 -0.7063  0.6309
  132MOL0     H17753   3.973   5.380   8.463 -0.7516  0.1046  0.1893
  132MOL0     H17754   3.945   5.596   8.355  0.8519  3.3184 -0.4974
  132MOL0     H17755   4.120   5.940   8.567  0.5264 -1.9283  0.0035
  132MOL0     H17756   4.232   5.914   8.434  1.4738 -0.6907  1.4682
  132MOL0     H17757   3.967   6.048   8.412 -0.6226  2.8444  0.2032
  132MOL0     H17758   4.108   6.138   8.440 -0.7741  0.0202  0.1697
  132MOL0     H17759   4.199   6.053   8.211 -0.7126  4.9003 -2.8566
  132MOL0     H17760   4.055   5.965   8.183 -1.8211  0.2846  0.0566
  132MOL0     H17761   3.925   6.208   8.226 -1.0486 -0.0422 -2.9130
  132MOL0     H17762   4.077   6.270   8.228 -0.4311  0.3241  0.4386
  132MOL0     H17763   4.112   6.168   7.990 -0.3364 -1.4737  0.2998
  132MOL0     H17764   3.945   6.124   7.997  0.0444  0.4410  0.2589
  132MOL0     H17765   3.854   6.327   7.973 -0.4799  0.1134 -1.0494
  132MOL0     H17766   3.966   6.399   8.087  0.3173  1.0267  0.5801
  132MOL0     H17767   4.136   6.386   7.911 -0.0997 -0.2876  1.1175
  132MOL0     H17768   4.027   6.314   7.797 -1.4918  1.9116 -1.0124
  132MOL0     H17769   4.021   6.542   7.718  0.3997  1.3417  0.3061
  132MOL0     H17770   4.032   6.596   7.885  0.7696 -0.5723  1.1569
  132MOL0     H17771   3.757   6.431   7.656 -2.4045 -0.7865 -0.8722
  132MOL0     H17772   3.502   6.385   7.685 -2.3579  0.2007 -1.6448
  132MOL0     H17773   3.413   6.486   7.800 -1.1992  1.6229 -0.3809
  132MOL0     H17774   3.377   6.522   7.553 -0.7876 -0.3350  1.3312
  132MOL0     H17775   3.547   6.577   7.550  2.9172  0.1675  3.7645
  132MOL0     H17776   3.508   6.767   7.682 -0.7292 -0.0660 -1.0951
  132MOL0     H17777   3.339   6.729   7.722  0.2792 -0.9216  0.0602
  132MOL0     H17778   3.441   6.786   7.447  0.7364 -1.2435  1.6187
  132MOL0     H17779   3.391   6.916   7.552  0.4819  0.6478 -1.4213
  132MOL0     H17780   3.316   6.863   7.254  2.1865 -0.5558  1.7482
  132MOL0     H17781   3.326   6.689   6.936 -1.1994 -0.4562 -0.0620
  132MOL0     H17782   3.204   6.825   6.954 -0.7859  0.6086  1.1595
  132MOL0     H17783   3.362   6.841   7.019 -0.9676  1.2780 -1.1754
  132MOL0     H17784   3.036   6.280   6.884  1.8611  0.8941  0.5255
  132MOL0     H17785   2.984   6.158   6.671 -0.4437 -1.1804  1.9677
  132MOL0     H17786   3.003   6.406   6.294  1.1314  1.1602  0.2407
  132MOL0     H17787   3.137   6.306   6.311 -0.3882  0.1005 -0.8829
  132MOL0     H17788   3.005   6.257   6.101 -0.7734 -0.9367 -1.0986
  132MOL0     H17789   2.997   6.118   6.201  1.1520  0.9374  2.4996
  132MOL0     H17790   2.762   6.270   6.296  2.0258  2.4167 -0.1180
  132MOL0     H17791   2.755   6.158   6.158  0.4565  2.6658 -3.1521
  132MOL0     H17792   2.818   6.450   6.167  0.8084 -0.4627  0.4416
  132MOL0     H17793   2.809   6.366   6.017  2.0870  3.0261  0.6410
  132MOL0     H17794   2.580   6.386   6.214 -1.4591 -0.8573 -0.3829
  132MOL0     H17795   2.576   6.289   6.067  0.3957  0.1104 -1.1352
  132MOL0     H17796   2.633   6.595   6.076 -0.9986 -1.2776  2.3526
  132MOL0     H17797   2.602   6.485   5.927 -1.0053 -1.5324 -0.3173
  132MOL0     H17798   2.424   6.529   6.161  0.5793  0.4042 -1.0207
  132MOL0     H17799   2.381   6.438   6.008 -0.1129 -0.5003 -0.6451
  132MOL0     H17800   2.397   6.642   5.882 -1.5388  0.4115 -0.5621
  132MOL0     H17801   2.437   6.733   6.022 -2.8157  1.6718 -0.3026
  132MOL0     H17802   3.059   6.527   6.457  5.4713  2.2913  1.6677
  132MOL0     H17803   3.115   6.631   6.679  2.3760 -0.9710  3.8601
  132MOL0     H17804   3.101   6.417   7.261 -2.7835  1.0190 -1.5259
  132MOL0     H17805   3.109   6.568   7.466  0.1315 -0.3997 -0.4032
  132MOL0     H17806   4.175   5.772   8.679 -0.0792  0.0354 -0.3013
  132MOL0     H17807   4.194   5.570   8.779 -0.6948  2.0853  1.3225
  132MOL0     H17808   3.921   5.218   9.006 -1.5229 -2.5236 -0.4666
  132MOL0     H17809   3.996   5.028   9.171  1.7586  2.7519  4.0399
  132MOL0     H17810   4.438   4.890   9.103 -2.0883  1.8682 -0.9540
  132MOL0     H17811   4.412   5.004   9.238 -2.5243  1.5373 -2.7006
  132MOL0     H17812   4.531   4.797   9.298  0.2593 -1.4475 -0.9259
  132MOL0     H17813   4.399   4.707   9.222  1.0042 -0.3431  0.4631
  132MOL0     H17814   4.357   4.716   9.483 -0.0610  0.8411  1.2198
  132MOL0     H17815   4.235   4.789   9.387 -0.6628  4.1853  2.7768
  132MOL0     H17816   4.300   4.901   9.597 -0.6389 -1.5186 -0.4085
  132MOL0     H17817   4.307   5.014   9.471 -1.2861 -0.3156 -1.7367
  132MOL0     H17818   4.719   4.990   9.572 -0.3758  1.6752  0.2102
  132MOL0     H17819   4.381   5.049   8.968  0.1807 -0.7552 -1.2768
  132MOL0     H17820   4.282   5.203   8.797  1.2274  1.4299  2.3742
  133MOL0     O17821   3.413   8.041  10.563 -0.3520 -0.0675  1.0032
  133MOL0     C17822   3.394   8.080  10.678 -0.4755 -0.7346 -0.7506
  133MOL0     O17823   3.452   8.187  10.736 -0.0370 -0.1611 -0.1165
  133MOL0     C17824   3.519   8.270  10.650 -1.3531 -0.1624 -0.1275
  133MOL0     C17825   3.650   8.248  10.592 -0.2405  0.2767  0.0322
  133MOL0     C17826   3.703   8.351  10.512 -0.1511 -0.2663 -0.5719
  133MOL0     C17827   3.638   8.477  10.489 -0.2987  0.0242 -0.1404
  133MOL0     O17828   3.688   8.574  10.408 -0.4508 -0.0943 -0.1067
  133MOL0     C17829   3.777   8.538  10.298  0.2375 -0.0278  0.9215
  133MOL0     C17830   3.830   8.654  10.210  0.3425  0.1868  0.1383
  133MOL0     C17831   3.912   8.601  10.090 -0.9573  0.5976 -0.4994
  133MOL0     C17832   3.954   8.710   9.995 -0.0720  0.1720 -0.4089
  133MOL0     C17833   4.063   8.671   9.902 -0.4233 -0.5251 -0.1785
  133MOL0     C17834   4.008   8.624   9.766 -0.2921  0.6671  0.8218
  133MOL0     C17835   4.063   8.488   9.716  0.0893 -0.7186 -0.1698
  133MOL0     C17836   3.998   8.453   9.586  0.4567 -0.2871  0.3878
  133MOL0     N17837   4.051   8.331   9.537 -0.6452 -0.1775 -0.2875
  133MOL0     C17838   4.180   8.328   9.483  0.4513  0.3630 -0.4029
  133MOL0     C17839   4.205   8.200   9.474 -0.8431  0.4676  0.1703
  133MOL0     C17840   4.334   8.124   9.442  0.0769 -0.0398  0.6955
  133MOL0     C17841   4.382   8.168   9.298  0.0339  0.1649 -0.0878
  133MOL0     C17842   4.503   8.096   9.253 -0.4090 -0.3145 -0.5597
  133MOL0     C17843   4.547   8.152   9.113 -1.1683  0.2642 -0.2496
  133MOL0     O17844   4.660   8.074   9.069  0.3402 -0.6591  0.1287
  133MOL0     C17845   4.773   8.149   9.057  0.3370 -0.2092  0.1627
  133MOL0     C17846   4.879   8.106   9.131  0.3636  0.7463  0.6109
  133MOL0     C17847   4.993   8.182   9.127 -0.1918  0.0319  0.3521
  133MOL0     C17848   5.116   8.110   9.202 -0.4354  0.0872  0.2481
  133MOL0     C17849   5.004   8.291   9.032  0.1640  0.2248 -0.2282
  133MOL0     C17850   5.133   8.366   9.013  0.6119 -0.7240  0.2619
  133MOL0     O17851   5.143   8.446   8.906  1.2216  0.2900  0.1509
  133MOL0     C17852   5.255   8.524   8.905  0.1154 -0.1558 -1.0925
  133MOL0     C17853   5.291   8.623   9.004 -0.3230  0.3771 -0.7813
  133MOL0     C17854   5.418   8.701   9.001  0.2739 -0.2699 -0.2472
  133MOL0     C17855   5.508   8.686   8.899  0.6155  0.3548  0.2261
  133MOL0     O17856   5.611   8.771   8.887 -0.2510 -0.0658 -0.0072
  133MOL0     C17857   5.587   8.857   8.765  0.3124 -0.6580 -0.7658
  133MOL0     C17858   5.708   8.958   8.751 -0.2534  0.3875  0.2111
  133MOL0     C17859   5.825   8.890   8.676 -0.8039 -0.1890  0.0967
  133MOL0     C17860   5.941   8.994   8.657  0.3574  0.6237 -0.0124
  133MOL0     C17861   6.024   8.964   8.529 -0.5010  0.0934 -0.3058
  133MOL0     C17862   5.962   9.032   8.405 -0.6169  0.0550  0.4573
  133MOL0     C17863   6.041   9.016   8.275  0.1346  0.0916 -0.2448
  133MOL0     C17864   6.071   8.868   8.255  0.4781  0.2146  0.4498
  133MOL0    Cl17865   6.229   8.834   8.326 -0.0232  0.3032 -1.1957
  133MOL0     C17866   5.478   8.589   8.795  0.1694 -1.1954  0.6725
  133MOL0     C17867   5.359   8.511   8.813 -0.0558 -0.1202 -0.3515
  133MOL0     O17868   5.225   8.348   9.090 -0.6690  0.1037  0.4667
  133MOL0     C17869   4.891   8.334   8.956  0.0266 -0.7307  0.1172
  133MOL0     C17870   4.784   8.250   8.962  0.2175  0.2140  0.1611
  133MOL0     N17871   4.091   8.127   9.508 -0.2400  0.1470  0.0735
  133MOL0     N17872   3.995   8.209   9.532 -0.2232 -0.1746  0.8459
  133MOL0     C17873   3.517   8.493  10.542 -0.2215  0.7326 -0.1710
  133MOL0     C17874   3.457   8.401  10.615 -0.8203  0.1783  0.0163
  133MOL0     C17875   3.342   7.972  10.766  0.6074 -1.1482  1.0117
  133MOL0     C17876   3.344   7.999  10.901 -0.6180  0.0186 -0.1937
  133MOL0     C17877   3.303   7.887  10.990 -0.0372 -0.7174 -0.0426
  133MOL0     C17878   3.263   7.765  10.949  1.3836 -0.5668  0.7209
  133MOL0     O17879   3.228   7.657  11.022  0.3479  0.7718  0.5771
  133MOL0     C17880   3.327   7.547  11.029 -0.0181 -0.3982  1.1678
  133MOL0     C17881   3.254   7.412  11.016  0.4692 -0.2891 -0.0800
  133MOL0     C17882   3.181   7.390  10.880 -0.1888 -0.2063  0.3356
  133MOL0     C17883   3.154   7.241  10.849  0.0242 -0.5050 -0.2213
  133MOL0     C17884   3.038   7.179  10.921  0.2256 -0.3932 -0.5574
  133MOL0     C17885   2.934   7.144  10.970 -0.2998  0.6146  0.0332
  133MOL0     C17886   3.248   7.755  10.804  0.6813 -1.0187  0.1295
  133MOL0     C17887   3.295   7.851  10.719 -0.3441 -0.7418 -0.2067
  133MOL0     H17888   3.709   8.159  10.608  0.4614  1.0742  2.3061
  133MOL0     H17889   3.800   8.352  10.462  0.8931  4.6296  0.9595
  133MOL0     H17890   3.861   8.481  10.338  0.1746 -0.6718  0.1586
  133MOL0     H17891   3.730   8.458  10.240  1.0911  0.5224 -0.5940
  133MOL0     H17892   3.742   8.704  10.168  0.7684 -0.8964 -2.2020
  133MOL0     H17893   3.887   8.729  10.266 -0.4279  0.6205  0.3534
  133MOL0     H17894   4.010   8.561  10.116 -1.2182  0.4727  0.3138
  133MOL0     H17895   3.864   8.519  10.037  1.6956 -1.4665  0.0640
  133MOL0     H17896   3.860   8.729   9.942 -1.0023 -1.6378  0.4905
  133MOL0     H17897   3.987   8.802  10.043  0.2390  0.6874 -1.5803
  133MOL0     H17898   4.127   8.757   9.883 -0.4862 -0.5652 -0.5848
  133MOL0     H17899   4.130   8.593   9.941  1.4099  0.8821 -0.3983
  133MOL0     H17900   3.901   8.640   9.748 -0.0245  1.1778 -0.4085
  133MOL0     H17901   4.040   8.701   9.696 -1.2240 -0.6767 -1.1857
  133MOL0     H17902   4.172   8.495   9.709  0.2043  0.2559  1.9307
  133MOL0     H17903   4.031   8.412   9.788 -3.0384 -1.0456 -1.7641
  133MOL0     H17904   4.014   8.525   9.505  0.5344 -0.6665  0.0609
  133MOL0     H17905   3.892   8.434   9.607  1.0948 -2.5941  1.8912
  133MOL0     H17906   4.239   8.413   9.451 -2.5486  1.6173 -3.1200
  133MOL0     H17907   4.420   8.129   9.509  3.1133 -4.4156 -2.2791
  133MOL0     H17908   4.302   8.019   9.433  0.9408 -0.3457  1.1205
  133MOL0     H17909   4.394   8.276   9.287 -0.2706  0.4622  1.9527
  133MOL0     H17910   4.309   8.149   9.219  1.6803 -1.5492 -1.2834
  133MOL0     H17911   4.496   7.987   9.243 -2.8568 -0.2174 -0.5203
  133MOL0     H17912   4.599   8.104   9.306  0.9784  0.2206 -2.9952
  133MOL0     H17913   4.563   8.260   9.116 -2.1088  0.3880  0.6389
  133MOL0     H17914   4.467   8.152   9.039 -1.3634 -1.2726 -0.0791
  133MOL0     H17915   4.867   8.027   9.204 -2.9494 -0.5604 -1.1640
  133MOL0     H17916   5.175   8.057   9.126 -1.2190 -0.8132  0.2612
  133MOL0     H17917   5.181   8.178   9.258  0.1586  0.3152 -0.6822
  133MOL0     H17918   5.068   8.039   9.270 -2.7273 -0.7267 -2.0810
  133MOL0     H17919   5.217   8.645   9.081 -1.2745 -0.9174 -1.3058
  133MOL0     H17920   5.440   8.776   9.077  2.7372 -1.5144  0.3554
  133MOL0     H17921   5.572   8.802   8.672 -0.8338 -0.6254 -0.6184
  133MOL0     H17922   5.498   8.916   8.788 -0.1502 -1.2287 -1.0479
  133MOL0     H17923   5.677   9.037   8.682  0.4803 -1.7437 -2.7542
  133MOL0     H17924   5.727   8.992   8.853 -1.3986 -1.9856  1.3000
  133MOL0     H17925   5.795   8.867   8.573 -0.3172  0.7479 -0.2683
  133MOL0     H17926   5.875   8.806   8.726  1.0803  1.2521  0.7609
  133MOL0     H17927   5.907   9.097   8.665  0.0585  0.4152  1.8843
  133MOL0     H17928   6.020   8.972   8.730 -0.6133 -1.3873  0.4943
  133MOL0     H17929   6.031   8.856   8.512 -0.5735  0.1749 -0.8764
  133MOL0     H17930   6.125   8.999   8.554  0.4231 -2.1910 -0.5307
  133MOL0     H17931   5.863   8.993   8.383 -1.9413  3.3094  0.1819
  133MOL0     H17932   5.954   9.137   8.434 -0.3756  0.2735 -0.2511
  133MOL0     H17933   6.139   9.064   8.287 -0.9284  2.3998 -0.2936
  133MOL0     H17934   5.981   9.054   8.193 -0.5972 -2.2495 -0.8577
  133MOL0     H17935   6.066   8.853   8.146 -3.3520 -0.5691  0.5832
  133MOL0     H17936   5.999   8.800   8.301  3.3342 -2.9619  0.6295
  133MOL0     H17937   5.554   8.571   8.720 -0.9201 -4.9517  0.2420
  133MOL0     H17938   5.341   8.436   8.736  1.6546 -4.9559  3.4035
  133MOL0     H17939   4.896   8.412   8.881 -1.8599  0.4697  1.1704
  133MOL0     H17940   4.700   8.257   8.894  1.0224  1.4785 -0.7612
  133MOL0     H17941   3.487   8.597  10.554 -2.1462  0.1561  0.3533
  133MOL0     H17942   3.373   8.444  10.669  0.0486  0.2081  1.4059
  133MOL0     H17943   3.365   8.097  10.942  0.2241  0.4932 -1.7056
  133MOL0     H17944   3.321   7.913  11.094  0.8242  0.4955 -0.4734
  133MOL0     H17945   3.386   7.561  10.938 -3.7030  4.1644 -0.9392
  133MOL0     H17946   3.389   7.560  11.118 -0.9323  2.3078  1.4997
  133MOL0     H17947   3.181   7.414  11.098  1.3525  3.6664  0.8220
  133MOL0     H17948   3.333   7.337  11.024  0.2066 -0.8935 -2.4622
  133MOL0     H17949   3.246   7.423  10.800 -1.3068 -0.7114 -0.8224
  133MOL0     H17950   3.088   7.448  10.872  1.2622  1.9811 -2.1143
  133MOL0     H17951   3.245   7.182  10.854 -0.5091 -1.5330 -1.9307
  133MOL0     H17952   3.134   7.234  10.742  1.6778 -4.7971 -0.4286
  133MOL0     H17953   2.850   7.111  11.027 -0.2804  1.6793  0.7147
  133MOL0     H17954   3.194   7.671  10.763 -2.9026 -1.3633  4.7056
  133MOL0     H17955   3.285   7.827  10.613 -2.6205  1.0927 -0.4790
  134MOL0     O17956   9.122   9.051   4.824 -0.5274  0.5709 -0.3567
  134MOL0     C17957   9.038   9.111   4.898  0.1177 -0.3205 -0.2517
  134MOL0     O17958   8.987   9.239   4.876 -0.2241  0.0405  0.1440
  134MOL0     C17959   9.031   9.297   4.758 -0.0275 -0.5793 -0.4355
  134MOL0     C17960   9.148   9.376   4.748  0.7842 -1.1489 -0.6312
  134MOL0     C17961   9.186   9.418   4.618  0.4090 -0.3180  0.6282
  134MOL0     C17962   9.107   9.390   4.512 -0.5150 -0.4008  0.9636
  134MOL0     O17963   9.163   9.440   4.388  0.2199 -0.5480 -0.2413
  134MOL0     C17964   9.079   9.442   4.270  0.7470 -0.2807 -0.4186
  134MOL0     C17965   9.154   9.490   4.152 -0.0906  0.1361  0.3782
  134MOL0     C17966   9.243   9.615   4.184  0.0868 -0.0462  0.8770
  134MOL0     C17967   9.314   9.684   4.064  0.4976 -0.2875  1.3355
  134MOL0     C17968   9.380   9.820   4.101  0.6564  0.0530 -0.6980
  134MOL0     C17969   9.496   9.803   4.188  0.3000 -0.5291  0.1932
  134MOL0     C17970   9.573   9.926   4.198 -0.5436 -0.7270  0.4844
  134MOL0     C17971   9.689   9.896   4.298 -0.5953 -0.1521  0.7732
  134MOL0     N17972   9.767  10.020   4.334  0.3458 -0.0358  0.6423
  134MOL0     C17973   9.884  10.010   4.405 -0.4380  0.1243  0.0595
  134MOL0     C17974   9.914  10.140   4.432 -0.0361  0.0857  1.0741
  134MOL0     C17975  10.006  10.192   4.527  0.9065  0.5685 -0.1783
  134MOL0     C17976   9.979  10.218   4.673 -0.3166  0.1041 -0.2436
  134MOL0     C17977   9.830  10.263   4.712  0.2894  0.5860  0.1891
  134MOL0     C17978   9.847  10.341   4.839  0.7121 -0.0913  0.1626
  134MOL0     O17979   9.915  10.263   4.929 -0.1420  0.5777 -0.4294
  134MOL0     C17980   9.950  10.329   5.047  0.3232  0.6609 -0.6650
  134MOL0     C17981   9.968  10.467   5.058  0.1003 -0.6518 -0.7427
  134MOL0     C17982  10.000  10.519   5.188 -0.9957  0.3801 -0.4726
  134MOL0     C17983  10.007  10.665   5.204 -0.6439 -0.8470  0.4021
  134MOL0     C17984  10.032  10.432   5.304 -0.1345 -0.5423 -0.3879
  134MOL0     C17985  10.074  10.467   5.439 -0.5208  0.2713 -0.0014
  134MOL0     O17986  10.166  10.568   5.442 -1.1874  0.0811  0.0129
  134MOL0     C17987  10.233  10.613   5.556  0.3278  0.6502 -0.5967
  134MOL0     C17988  10.221  10.585   5.696 -0.1113  0.3412  1.2409
  134MOL0     C17989  10.298  10.644   5.799  0.8698 -0.6703  0.7101
  134MOL0     C17990  10.383  10.752   5.774  0.0120 -0.8400 -0.0800
  134MOL0     O17991  10.448  10.811   5.886  0.3829  0.5574  0.9717
  134MOL0     C17992  10.559  10.889   5.862 -0.5908 -0.1119  0.9136
  134MOL0     C17993  10.607  10.941   6.000 -0.3930 -1.0397  0.1554
  134MOL0     C17994  10.684  10.834   6.073  0.0257  0.7301  0.1294
  134MOL0     C17995  10.714  10.854   6.223  0.3295 -0.7931  0.4394
  134MOL0     C17996  10.814  10.977   6.247 -0.7643 -0.4097 -0.8454
  134MOL0     C17997  10.728  11.105   6.297 -0.2806  0.9554 -0.2554
  134MOL0     C17998  10.797  11.243   6.331 -0.4375  0.5929  0.2169
  134MOL0     C17999  10.683  11.356   6.338 -0.7755  1.4165 -0.3162
  134MOL0    Cl18000  10.743  11.525   6.357 -0.2660 -0.1335  0.3063
  134MOL0     C18001  10.402  10.771   5.635 -0.7089  0.8561  0.5548
  134MOL0     C18002  10.333  10.710   5.531 -0.4667  1.4137 -0.4649
  134MOL0     O18003  10.043  10.388   5.535 -0.3673  0.2249 -0.3752
  134MOL0     C18004  10.023  10.291   5.283 -0.1961 -0.5953 -0.6068
  134MOL0     C18005   9.980  10.245   5.162 -0.0127  0.8269  0.1755
  134MOL0     N18006   9.827  10.228   4.365  0.2420 -0.6348  0.0319
  134MOL0     N18007   9.747  10.148   4.302  0.6434 -0.3421 -0.4641
  134MOL0     C18008   8.986   9.338   4.526  0.6831 -0.4757 -0.2924
  134MOL0     C18009   8.949   9.280   4.646  0.2947 -0.1792 -0.3018
  134MOL0     C18010   8.988   9.051   5.020 -0.1315 -0.1712  0.0154
  134MOL0     C18011   9.018   8.916   5.050  0.7101  0.0178 -0.6808
  134MOL0     C18012   8.949   8.847   5.159 -0.4445 -0.0195  0.6325
  134MOL0     C18013   8.870   8.929   5.249 -1.0980 -0.6984 -0.5818
  134MOL0     O18014   8.812   8.862   5.351 -0.4292 -1.0146  0.5221
  134MOL0     C18015   8.743   8.928   5.463  0.1654  0.0399  1.1616
  134MOL0     C18016   8.648   8.824   5.523 -0.2061 -0.2874  0.2079
  134MOL0     C18017   8.728   8.718   5.593 -0.8583  0.0054 -0.1030
  134MOL0     C18018   8.646   8.625   5.672 -0.9446 -0.1617 -1.4689
  134MOL0     C18019   8.564   8.535   5.589 -0.9435  0.1209 -0.2201
  134MOL0     C18020   8.504   8.459   5.522 -0.1726 -0.6127  0.1869
  134MOL0     C18021   8.852   9.062   5.226 -0.4276 -0.3971 -0.1943
  134MOL0     C18022   8.897   9.115   5.111  0.5102 -0.7884  0.7785
  134MOL0     H18023   9.189   9.413   4.842 -0.3934  1.7419 -1.1225
  134MOL0     H18024   9.270   9.485   4.601  0.1048 -0.3640 -1.2722
  134MOL0     H18025   9.024   9.350   4.247  2.4488 -1.4151 -0.1324
  134MOL0     H18026   8.992   9.507   4.286 -0.1753 -1.9705  2.0069
  134MOL0     H18027   9.229   9.416   4.122 -1.5493 -1.3147  0.1404
  134MOL0     H18028   9.093   9.508   4.063 -0.1615 -2.5532 -0.2020
  134MOL0     H18029   9.178   9.696   4.216 -0.6925  0.6349 -2.1200
  134MOL0     H18030   9.318   9.584   4.258  0.9312 -1.5357 -0.5348
  134MOL0     H18031   9.394   9.619   4.029  2.5618  2.5950  0.3234
  134MOL0     H18032   9.240   9.706   3.987  0.8735 -0.6054  0.8812
  134MOL0     H18033   9.416   9.872   4.012  1.0144 -0.4250 -0.8358
  134MOL0     H18034   9.293   9.878   4.134 -3.2109 -4.7063 -1.4364
  134MOL0     H18035   9.476   9.763   4.288 -1.6326 -3.6224 -1.2669
  134MOL0     H18036   9.559   9.726   4.141  3.1247 -0.8732  4.0179
  134MOL0     H18037   9.605   9.965   4.100 -0.4958 -1.3878  0.2311
  134MOL0     H18038   9.502   9.999   4.239 -1.5536 -1.4892  0.1408
  134MOL0     H18039   9.750   9.817   4.254 -1.5622  0.2978 -1.5373
  134MOL0     H18040   9.652   9.849   4.389 -2.4591 -0.1140  0.0796
  134MOL0     H18041   9.931   9.923   4.450  0.3274  0.0117 -0.9129
  134MOL0     H18042  10.105  10.146   4.515 -0.3142 -2.2519 -0.0173
  134MOL0     H18043  10.024  10.297   4.502  2.8198  0.1989 -0.5533
  134MOL0     H18044  10.050  10.294   4.707 -0.1714  0.0038 -0.3208
  134MOL0     H18045   9.999  10.134   4.741 -0.4398 -0.1146 -0.4729
  134MOL0     H18046   9.772  10.171   4.722 -2.6253  2.3373  0.6318
  134MOL0     H18047   9.792  10.329   4.633  1.6853  1.7610  0.4609
  134MOL0     H18048   9.753  10.374   4.884  0.7340 -1.2767  1.1077
  134MOL0     H18049   9.903  10.432   4.815  1.1283  0.1347  1.8470
  134MOL0     H18050   9.960  10.529   4.970  1.5250  0.2975 -0.2328
  134MOL0     H18051   9.939  10.716   5.135 -1.1240  1.0906  2.2053
  134MOL0     H18052   9.984  10.699   5.305 -1.3942  2.3003 -0.7372
  134MOL0     H18053  10.104  10.709   5.179 -0.3741  2.1886  5.3458
  134MOL0     H18054  10.158  10.502   5.725 -0.4455  0.3913  0.6694
  134MOL0     H18055  10.292  10.594   5.895  1.2492 -1.2052  0.4548
  134MOL0     H18056  10.642  10.827   5.826  1.6342  2.2952  1.5565
  134MOL0     H18057  10.537  10.970   5.791  1.0266  2.5843  3.2659
  134MOL0     H18058  10.672  11.028   5.985  2.5578 -3.5311 -3.6273
  134MOL0     H18059  10.526  10.965   6.068  0.1634  1.4414  0.0311
  134MOL0     H18060  10.782  10.828   6.024 -0.2065  0.8956 -0.3660
  134MOL0     H18061  10.636  10.735   6.066  1.2461 -0.0279  1.8657
  134MOL0     H18062  10.613  10.874   6.261 -0.0709  0.1995 -1.0774
  134MOL0     H18063  10.749  10.755   6.256  0.7335 -0.5257  0.8204
  134MOL0     H18064  10.859  11.002   6.151 -0.7179  1.5926 -0.3355
  134MOL0     H18065  10.893  10.953   6.318 -2.4101 -0.7732  0.9319
  134MOL0     H18066  10.656  11.122   6.217 -1.2169 -4.0834 -0.8116
  134MOL0     H18067  10.668  11.080   6.386  0.5856  1.2638  0.4268
  134MOL0     H18068  10.870  11.266   6.252 -1.1187  3.1329  0.2377
  134MOL0     H18069  10.842  11.240   6.430  2.6287  0.8826 -1.0432
  134MOL0     H18070  10.614  11.334   6.420 -0.2612 -0.3089 -0.2997
  134MOL0     H18071  10.631  11.355   6.242  1.9289 -1.9271 -1.9897
  134MOL0     H18072  10.467  10.849   5.595 -1.6616  1.1422 -0.4999
  134MOL0     H18073  10.361  10.744   5.431  0.7461  3.0401  0.3818
  134MOL0     H18074  10.047  10.218   5.359 -1.0653  0.8854  1.1725
  134MOL0     H18075   9.976  10.136   5.159  0.2756  0.8022  0.5753
  134MOL0     H18076   8.915   9.328   4.444  0.4845 -1.5730 -0.0050
  134MOL0     H18077   8.854   9.227   4.657  0.7170 -0.5378  2.2933
  134MOL0     H18078   9.086   8.855   4.992 -0.9115  0.1412 -2.8159
  134MOL0     H18079   8.964   8.741   5.172 -2.4703 -0.1443  2.3942
  134MOL0     H18080   8.810   8.974   5.536 -0.7769  2.7160  0.4416
  134MOL0     H18081   8.683   9.008   5.418  2.1541 -0.3610 -2.6872
  134MOL0     H18082   8.583   8.792   5.441 -2.5636  0.5122  1.6693
  134MOL0     H18083   8.586   8.877   5.596 -0.3541  0.4071 -0.4062
  134MOL0     H18084   8.801   8.764   5.659  0.8211 -0.9028 -1.2657
  134MOL0     H18085   8.790   8.656   5.528  0.1507  0.5078  0.3701
  134MOL0     H18086   8.589   8.683   5.746 -0.0957 -0.9863 -0.1210
  134MOL0     H18087   8.716   8.559   5.724  0.7492  0.3554 -2.9781
  134MOL0     H18088   8.444   8.395   5.460  0.6346  0.8589 -2.2220
  134MOL0     H18089   8.791   9.130   5.285  3.0724  1.6600  1.3138
  134MOL0     H18090   8.870   9.220   5.100 -2.3715 -1.4477  0.6770
  135MOL0     O18091   8.497   6.231   3.925  0.6001  0.8808 -0.6448
  135MOL0     C18092   8.488   6.175   3.820  0.3333  1.6466 -0.0080
  135MOL0     O18093   8.571   6.197   3.719 -0.1983  0.0459 -0.6747
  135MOL0     C18094   8.691   6.258   3.745  0.5465  0.1022  0.5658
  135MOL0     C18095   8.791   6.205   3.823  0.2246 -0.7029 -0.2581
  135MOL0     C18096   8.917   6.266   3.826 -0.4850  0.1414  0.1471
  135MOL0     C18097   8.961   6.384   3.762  1.0152 -0.7534  0.0653
  135MOL0     O18098   9.092   6.413   3.790  1.0264 -0.0617 -0.0356
  135MOL0     C18099   9.132   6.547   3.758 -0.2534  0.4104  0.3735
  135MOL0     C18100   9.247   6.583   3.855  0.4052 -0.0510  0.0969
  135MOL0     C18101   9.284   6.731   3.848  0.5790  0.0423 -0.3065
  135MOL0     C18102   9.395   6.752   3.944 -0.2290 -0.5152  0.3489
  135MOL0     C18103   9.429   6.897   3.977  0.5629 -0.6038 -0.9987
  135MOL0     C18104   9.565   6.889   4.061 -0.7283 -1.0537 -0.1768
  135MOL0     C18105   9.627   7.015   4.109 -1.0054 -0.5823 -0.8413
  135MOL0     C18106   9.527   7.096   4.203  0.0130 -0.0455 -0.4956
  135MOL0     N18107   9.591   7.220   4.256  1.0665 -0.6031 -0.3727
  135MOL0     C18108   9.719   7.217   4.325  0.8407  0.6103 -0.1243
  135MOL0     C18109   9.742   7.357   4.359  0.8866  0.1689  0.3615
  135MOL0     C18110   9.867   7.402   4.435  0.7460 -0.4088 -0.5967
  135MOL0     C18111   9.885   7.328   4.577 -0.0680  0.4462 -0.1523
  135MOL0     C18112   9.783   7.373   4.686  0.1974 -0.4791 -0.2063
  135MOL0     C18113   9.824   7.326   4.823 -0.8856 -0.1247 -0.2908
  135MOL0     O18114   9.825   7.190   4.807 -0.3693  0.2135 -0.3613
  135MOL0     C18115   9.809   7.111   4.916  0.2397  0.0756 -0.6632
  135MOL0     C18116   9.839   7.157   5.041 -0.4785 -0.3636  0.4185
  135MOL0     C18117   9.839   7.063   5.143  0.1337 -0.0383 -0.1594
  135MOL0     C18118   9.854   7.124   5.281 -0.7674 -0.4810 -1.0974
  135MOL0     C18119   9.809   6.928   5.126  0.9344 -0.1620  0.4843
  135MOL0     C18120   9.792   6.832   5.237  0.4553  0.0779  0.0834
  135MOL0     O18121   9.720   6.871   5.346 -1.5502  0.4844  0.3186
  135MOL0     C18122   9.683   6.792   5.445  0.7461 -0.5260  0.4042
  135MOL0     C18123   9.559   6.723   5.430  0.6326 -0.0764  0.0324
  135MOL0     C18124   9.511   6.650   5.551  0.3434 -0.4798 -0.5715
  135MOL0     C18125   9.584   6.640   5.679  1.2412  0.2501  0.0680
  135MOL0     O18126   9.524   6.566   5.785 -0.2118  1.0977  0.1138
  135MOL0     C18127   9.603   6.509   5.886 -0.5715  0.0634 -0.3128
  135MOL0     C18128   9.522   6.390   5.933  0.8243  0.0502  0.9804
  135MOL0     C18129   9.377   6.402   5.985 -0.3109  0.1204 -0.4981
  135MOL0     C18130   9.277   6.366   5.874 -0.4177  0.2931 -0.8390
  135MOL0     C18131   9.259   6.210   5.840  0.0611 -1.0314 -0.2899
  135MOL0     C18132   9.131   6.179   5.771  0.1847 -0.6791  0.0852
  135MOL0     C18133   9.146   6.219   5.617 -0.0935 -0.2102  0.2925
  135MOL0     C18134   9.009   6.197   5.551  0.8400  0.4854  0.3770
  135MOL0    Cl18135   8.899   6.064   5.590  0.4164 -0.0997 -0.3431
  135MOL0     C18136   9.714   6.706   5.680  0.5965 -0.4950 -0.3190
  135MOL0     C18137   9.750   6.777   5.569 -0.2785 -0.4607 -0.4644
  135MOL0     O18138   9.830   6.715   5.217 -0.3358  0.4150 -0.7897
  135MOL0     C18139   9.772   6.887   5.000  0.3419 -0.6609  0.8298
  135MOL0     C18140   9.771   6.980   4.895 -0.5236  0.0978  0.0396
  135MOL0     N18141   9.652   7.432   4.270  0.7145 -0.5662  0.6715
  135MOL0     N18142   9.571   7.344   4.216 -1.0810  0.4337 -0.4716
  135MOL0     C18143   8.859   6.443   3.693 -0.3356 -0.1280  0.4843
  135MOL0     C18144   8.728   6.380   3.677  0.8201 -0.0001 -0.6421
  135MOL0     C18145   8.380   6.071   3.788 -0.1082 -0.2858  0.8009
  135MOL0     C18146   8.282   6.022   3.878  0.2386  0.3546 -0.2263
  135MOL0     C18147   8.184   5.930   3.844  0.6329  0.0038 -0.2817
  135MOL0     C18148   8.185   5.876   3.716 -1.0836 -0.0081  0.4349
  135MOL0     O18149   8.098   5.778   3.690 -0.0975  0.4847 -0.6004
  135MOL0     C18150   8.100   5.710   3.563  1.1764  0.2392  0.5691
  135MOL0     C18151   8.022   5.774   3.457  0.9087 -0.7315  0.9841
  135MOL0     C18152   7.877   5.813   3.498  0.1410 -0.5367  0.0928
  135MOL0     C18153   7.819   5.903   3.395  0.9039 -0.8510  0.2454
  135MOL0     C18154   7.680   5.946   3.429 -0.1388 -0.0725  0.2776
  135MOL0     C18155   7.569   5.984   3.462  0.2722 -0.8665  0.8124
  135MOL0     C18156   8.282   5.920   3.627 -0.2305  0.2013  0.4081
  135MOL0     C18157   8.376   6.014   3.657  0.0888 -0.2483  0.3666
  135MOL0     H18158   8.779   6.109   3.872 -3.2080 -0.8541 -1.1122
  135MOL0     H18159   8.997   6.221   3.885  0.9087  2.9929  0.5903
  135MOL0     H18160   9.160   6.535   3.653 -1.7769 -0.0380 -0.0124
  135MOL0     H18161   9.048   6.617   3.761  0.2367  0.9746  2.8780
  135MOL0     H18162   9.211   6.558   3.955  2.4541 -2.2497  0.3732
  135MOL0     H18163   9.336   6.522   3.837  3.6476  2.6838  4.6147
  135MOL0     H18164   9.311   6.763   3.747 -1.4913  2.0906 -0.2905
  135MOL0     H18165   9.196   6.789   3.878  0.1164  1.1325 -3.4172
  135MOL0     H18166   9.379   6.697   4.037  1.7678  1.5865  2.0639
  135MOL0     H18167   9.484   6.713   3.894  1.9312  1.0910  2.7146
  135MOL0     H18168   9.449   6.949   3.883 -0.0587  2.0408  0.2366
  135MOL0     H18169   9.342   6.941   4.025  0.1771 -0.2815 -1.9669
  135MOL0     H18170   9.543   6.828   4.149  0.9299  0.7894  1.6397
  135MOL0     H18171   9.642   6.849   3.995  0.5247 -0.1226  0.6528
  135MOL0     H18172   9.719   6.998   4.165 -1.4173 -0.1590 -0.0168
  135MOL0     H18173   9.655   7.072   4.020 -0.0730 -1.8496 -1.3962
  135MOL0     H18174   9.494   7.028   4.281  1.7032 -0.8921 -0.4819
  135MOL0     H18175   9.444   7.129   4.138 -0.2797 -2.4705 -1.4476
  135MOL0     H18176   9.772   7.127   4.354  3.1601  0.2270 -4.6659
  135MOL0     H18177   9.956   7.384   4.375 -0.0349  1.0481 -2.3005
  135MOL0     H18178   9.853   7.510   4.445 -1.6074 -0.5455 -1.7145
  135MOL0     H18179   9.986   7.341   4.618 -0.7059  1.1930  1.2560
  135MOL0     H18180   9.862   7.221   4.577  0.2121  0.3557  1.5808
  135MOL0     H18181   9.680   7.348   4.659 -1.1061  1.3669  2.5716
  135MOL0     H18182   9.782   7.482   4.690 -0.6582 -0.4873 -0.1456
  135MOL0     H18183   9.751   7.361   4.895 -1.8613  0.3330 -1.4621
  135MOL0     H18184   9.924   7.364   4.849 -0.1840 -1.5580 -0.7664
  135MOL0     H18185   9.859   7.262   5.060  0.5407 -0.3683 -0.5330
  135MOL0     H18186   9.769   7.116   5.350  0.1237 -0.5879  0.0111
  135MOL0     H18187   9.936   7.084   5.342  0.3910  1.4702 -1.2905
  135MOL0     H18188   9.876   7.230   5.270  1.3176 -0.7392  0.1030
  135MOL0     H18189   9.501   6.738   5.340 -1.6445 -1.7999  1.1303
  135MOL0     H18190   9.419   6.596   5.531 -1.1368  1.2316  1.2142
  135MOL0     H18191   9.702   6.486   5.845  1.1707  0.3645  3.3293
  135MOL0     H18192   9.617   6.580   5.968 -0.6551  0.1616 -0.3848
  135MOL0     H18193   9.528   6.314   5.855 -0.2579  1.4158 -0.5130
  135MOL0     H18194   9.580   6.343   6.013 -0.7274 -2.0028  0.9696
  135MOL0     H18195   9.366   6.509   6.006  0.7547  0.3056 -0.8443
  135MOL0     H18196   9.357   6.347   6.077  2.4022 -1.1786 -0.6057
  135MOL0     H18197   9.179   6.409   5.898 -0.6695 -1.8230  2.5397
  135MOL0     H18198   9.309   6.396   5.773 -1.5580  0.0759 -1.2726
  135MOL0     H18199   9.258   6.158   5.936  1.1837 -1.2603 -0.3900
  135MOL0     H18200   9.348   6.176   5.785  0.1275 -0.6586 -0.4166
  135MOL0     H18201   9.127   6.070   5.780  1.0275 -1.0549 -2.9289
  135MOL0     H18202   9.045   6.226   5.820 -0.2003 -2.9271  1.6933
  135MOL0     H18203   9.231   6.184   5.558 -1.6994  0.4571 -2.6125
  135MOL0     H18204   9.160   6.327   5.611  2.8646 -0.3918  2.1955
  135MOL0     H18205   9.028   6.180   5.445 -0.5040 -1.8335  0.4341
  135MOL0     H18206   8.955   6.292   5.548  1.4801  0.8456 -3.1143
  135MOL0     H18207   9.759   6.705   5.778 -2.6188 -1.1561  1.2953
  135MOL0     H18208   9.835   6.842   5.589 -0.7545 -0.2933  1.1257
  135MOL0     H18209   9.749   6.784   4.973  1.5771  0.1316 -4.2364
  135MOL0     H18210   9.738   6.946   4.798 -1.8363 -0.5329  0.6762
  135MOL0     H18211   8.876   6.536   3.641 -2.1168  0.9073  1.6283
  135MOL0     H18212   8.659   6.441   3.619  2.2833  0.6368 -1.7659
  135MOL0     H18213   8.301   6.054   3.980  1.3503 -0.1973 -0.2498
  135MOL0     H18214   8.113   5.897   3.920  0.8254  1.2517  0.4587
  135MOL0     H18215   8.203   5.697   3.529  1.6248  1.4893  1.3831
  135MOL0     H18216   8.059   5.609   3.573 -0.1288  0.3220 -2.6992
  135MOL0     H18217   8.032   5.705   3.373  1.4320  1.0717 -0.5139
  135MOL0     H18218   8.071   5.865   3.421 -2.4569  0.2756 -1.6165
  135MOL0     H18219   7.877   5.864   3.595  1.0836 -1.7911  0.7885
  135MOL0     H18220   7.823   5.718   3.503  1.3138 -1.1800  1.2086
  135MOL0     H18221   7.835   5.867   3.293  3.6473  1.6050 -0.3330
  135MOL0     H18222   7.871   5.999   3.389 -1.4758  0.5419  0.5046
  135MOL0     H18223   7.470   6.014   3.491 -0.3415 -0.4782 -1.4985
  135MOL0     H18224   8.280   5.898   3.521  0.6954  3.7347 -0.4661
  135MOL0     H18225   8.435   6.041   3.570 -0.4387 -0.7480 -0.1604
  136MOL0     O18226   3.952   9.247   3.405  0.0961  0.1085  0.6075
  136MOL0     C18227   4.034   9.308   3.470 -0.1495 -0.1372 -0.1781
  136MOL0     O18228   4.042   9.440   3.476 -0.1704  0.3256  0.1482
  136MOL0     C18229   3.981   9.534   3.404  0.3237  0.0884  0.1245
  136MOL0     C18230   4.051   9.646   3.354  0.5789  0.0352 -0.2610
  136MOL0     C18231   3.987   9.749   3.280 -0.3890 -0.6212 -0.6450
  136MOL0     C18232   3.850   9.739   3.253 -0.5108 -0.6122 -0.1915
  136MOL0     O18233   3.785   9.832   3.177  0.0682 -0.1049 -0.8275
  136MOL0     C18234   3.849   9.942   3.114 -0.6553 -1.3745  0.1577
  136MOL0     C18235   3.731  10.043   3.101  0.6021  0.3126 -0.8476
  136MOL0     C18236   3.778  10.165   3.024 -1.0559 -0.7404  0.3221
  136MOL0     C18237   3.658  10.257   2.995 -0.0872 -0.1972 -0.7398
  136MOL0     C18238   3.727  10.392   2.977 -0.0781 -0.2106 -0.3947
  136MOL0     C18239   3.628  10.504   2.959  0.0031 -0.8740  0.5324
  136MOL0     C18240   3.684  10.643   2.963 -0.0357  0.5309  0.9170
  136MOL0     C18241   3.566  10.745   2.954 -0.1833 -0.2650 -0.2033
  136MOL0     N18242   3.618  10.874   2.933  0.2380  0.0488  0.1606
  136MOL0     C18243   3.663  10.958   3.030  0.1377  0.6105 -0.0386
  136MOL0     C18244   3.702  11.071   2.968 -1.0341  0.2855  0.0961
  136MOL0     C18245   3.745  11.198   3.031 -0.4691  1.1526 -0.4364
  136MOL0     C18246   3.865  11.266   2.961 -0.4611 -0.4708  0.1546
  136MOL0     C18247   3.953  11.370   3.039 -0.5619 -0.1936  0.6544
  136MOL0     C18248   4.049  11.303   3.138  0.1564  0.0118  0.2260
  136MOL0     O18249   3.987  11.276   3.268  0.9709  0.3693 -0.1512
  136MOL0     C18250   3.954  11.378   3.353  0.6846 -0.6793 -0.2448
  136MOL0     C18251   3.991  11.514   3.345  0.2154  0.8813  0.2631
  136MOL0     C18252   3.948  11.610   3.436 -1.4242 -0.5304 -0.4983
  136MOL0     C18253   3.991  11.751   3.408  0.5306 -0.4805 -1.0949
  136MOL0     C18254   3.875  11.573   3.548 -1.4120  0.5304  0.5204
  136MOL0     C18255   3.837  11.665   3.659  0.6127  0.7326  0.6415
  136MOL0     O18256   3.730  11.637   3.729 -0.0546 -0.1673  0.4627
  136MOL0     C18257   3.675  11.743   3.809 -0.5583  1.2770  0.2249
  136MOL0     C18258   3.659  11.714   3.940  0.1295 -0.1543 -0.3199
  136MOL0     C18259   3.602  11.804   4.031  0.0884 -0.3158  1.0066
  136MOL0     C18260   3.548  11.930   3.991  0.8939 -1.4675  0.1360
  136MOL0     O18261   3.477  12.021   4.074  0.2325  0.0584 -0.6085
  136MOL0     C18262   3.462  12.006   4.218  0.1237 -0.3852 -0.7154
  136MOL0     C18263   3.574  12.075   4.300  0.2270  0.4821  0.2768
  136MOL0     C18264   3.575  12.224   4.288  0.2440  0.3354 -0.2085
  136MOL0     C18265   3.679  12.290   4.382  0.0916 -0.3103  0.2478
  136MOL0     C18266   3.672  12.256   4.531  0.8150  0.3590  0.1095
  136MOL0     C18267   3.773  12.348   4.601 -0.1047  0.2246  0.0610
  136MOL0     C18268   3.769  12.326   4.753  1.1168  0.8021 -0.3664
  136MOL0     C18269   3.887  12.402   4.814 -2.1153 -0.5526  0.3377
  136MOL0    Cl18270   3.976  12.293   4.929  0.0060 -0.4010  0.3013
  136MOL0     C18271   3.562  11.962   3.850  0.2604  0.4160  0.5931
  136MOL0     C18272   3.628  11.869   3.759 -0.1436  0.0609  0.5995
  136MOL0     O18273   3.922  11.733   3.695  0.4080 -0.4459 -0.6360
  136MOL0     C18274   3.852  11.433   3.566 -0.0380 -0.1749  0.2878
  136MOL0     C18275   3.885  11.341   3.465  0.0342  0.4827 -0.0554
  136MOL0     N18276   3.681  11.060   2.833  0.5425  0.1506  0.5986
  136MOL0     N18277   3.644  10.934   2.816 -0.3092 -0.1269 -0.2839
  136MOL0     C18278   3.782   9.630   3.297 -0.0451 -0.7234  0.9342
  136MOL0     C18279   3.841   9.538   3.381 -0.7022  0.3222  0.0946
  136MOL0     C18280   4.143   9.231   3.538  0.9104  0.6539 -0.2290
  136MOL0     C18281   4.142   9.092   3.528 -0.3923  0.4829  0.3910
  136MOL0     C18282   4.234   9.009   3.581 -0.2218 -0.0517  0.4801
  136MOL0     C18283   4.331   9.060   3.656 -0.2314 -0.4761  1.0014
  136MOL0     O18284   4.401   8.956   3.710  0.0838  0.3880 -0.1322
  136MOL0     C18285   4.508   8.990   3.805 -0.2912  0.6029 -0.1637
  136MOL0     C18286   4.588   8.874   3.864  0.3117 -0.6297 -0.4285
  136MOL0     C18287   4.591   8.757   3.768 -0.6090  0.5442 -0.8979
  136MOL0     C18288   4.723   8.671   3.783  0.2924 -0.0891  1.4014
  136MOL0     C18289   4.717   8.570   3.672  0.1190  0.2678  0.1166
  136MOL0     C18290   4.701   8.475   3.596  0.7234 -0.3604  0.0584
  136MOL0     C18291   4.341   9.199   3.681 -0.2915  0.1709 -0.6103
  136MOL0     C18292   4.243   9.283   3.625 -0.5234  0.4851 -0.6357
  136MOL0     H18293   4.154   9.654   3.389  0.1732  3.2317  0.4606
  136MOL0     H18294   4.050   9.836   3.264  0.3095 -0.8974  0.4350
  136MOL0     H18295   3.928   9.982   3.178 -2.1755  0.9798  0.6934
  136MOL0     H18296   3.889   9.908   3.018  0.9809  0.8571 -0.0287
  136MOL0     H18297   3.654  10.005   3.033  0.9976 -1.3068 -0.4294
  136MOL0     H18298   3.700  10.073   3.201  3.3306 -3.7280  1.5058
  136MOL0     H18299   3.855  10.218   3.081 -2.8394  2.6714 -0.2172
  136MOL0     H18300   3.830  10.124   2.936  0.8852 -1.2805  1.6507
  136MOL0     H18301   3.595  10.221   2.913 -1.1952 -0.5895  0.2661
  136MOL0     H18302   3.589  10.269   3.079  0.9178  1.6706 -0.1197
  136MOL0     H18303   3.792  10.418   3.061  3.5522 -0.1090 -3.0233
  136MOL0     H18304   3.787  10.388   2.886  0.2872  0.2821 -0.1827
  136MOL0     H18305   3.572  10.487   2.866 -2.8718 -0.7396  2.1074
  136MOL0     H18306   3.548  10.496   3.033 -0.9013  0.0013 -0.3138
  136MOL0     H18307   3.752  10.651   3.048  1.0386  1.8388 -0.0224
  136MOL0     H18308   3.747  10.666   2.877 -0.6085  1.0650  0.6319
  136MOL0     H18309   3.497  10.740   3.038 -1.5073  0.8273 -1.1845
  136MOL0     H18310   3.507  10.719   2.865 -0.4474 -1.1925  0.2259
  136MOL0     H18311   3.660  10.942   3.137  0.1762 -0.2552 -0.1669
  136MOL0     H18312   3.665  11.270   3.051  1.4742  2.8204  1.8914
  136MOL0     H18313   3.764  11.169   3.134 -0.2249  1.1399 -0.4853
  136MOL0     H18314   3.830  11.324   2.875  2.5461  2.3319  0.6157
  136MOL0     H18315   3.936  11.187   2.934 -1.1954 -0.7417 -1.0433
  136MOL0     H18316   3.887  11.443   3.086 -2.6256 -0.7493 -1.2367
  136MOL0     H18317   4.013  11.424   2.966 -0.6434 -0.4766  0.3793
  136MOL0     H18318   4.135  11.368   3.159 -0.9041  0.4707  3.8344
  136MOL0     H18319   4.081  11.203   3.109  1.4501 -0.6175  3.3565
  136MOL0     H18320   4.035  11.553   3.254  1.3642  0.4225  0.6042
  136MOL0     H18321   4.021  11.772   3.305  0.0581 -0.8542 -1.3131
  136MOL0     H18322   3.914  11.822   3.441  1.3501 -0.6834  1.5251
  136MOL0     H18323   4.076  11.774   3.473 -3.1670  4.3557  2.8473
  136MOL0     H18324   3.713  11.628   3.978 -0.9863 -0.3233  0.9463
  136MOL0     H18325   3.585  11.768   4.132 -1.9617 -2.8022 -0.1323
  136MOL0     H18326   3.364  12.041   4.250  0.4638  0.6223 -0.7649
  136MOL0     H18327   3.464  11.901   4.250  0.2500 -0.0246  0.5306
  136MOL0     H18328   3.556  12.044   4.403  2.9814  0.9349  0.9785
  136MOL0     H18329   3.668  12.026   4.274 -0.0205 -0.7946  1.6470
  136MOL0     H18330   3.472  12.253   4.311  0.6038 -0.1322  2.2481
  136MOL0     H18331   3.585  12.257   4.184 -1.1455  3.0365  0.4100
  136MOL0     H18332   3.777  12.260   4.344 -0.3630  2.1436 -3.4084
  136MOL0     H18333   3.700  12.396   4.365 -1.0356 -0.3746 -1.9030
  136MOL0     H18334   3.705  12.154   4.550  2.1657  0.5393 -1.0990
  136MOL0     H18335   3.573  12.275   4.575  0.3514 -0.1069 -0.7001
  136MOL0     H18336   3.872  12.322   4.563  0.8513 -0.9975  3.0611
  136MOL0     H18337   3.742  12.452   4.586  3.7273  1.7107  1.3914
  136MOL0     H18338   3.758  12.228   4.800  1.2299  0.7660 -0.4148
  136MOL0     H18339   3.677  12.371   4.790  0.8494  1.0551 -1.3119
  136MOL0     H18340   3.869  12.497   4.865  0.7260  2.1985 -3.2488
  136MOL0     H18341   3.955  12.437   4.736 -1.0003 -0.6746  1.2388
  136MOL0     H18342   3.538  12.052   3.794  3.0533  0.3976 -0.8352
  136MOL0     H18343   3.634  11.894   3.654 -0.3967 -4.2344 -0.5926
  136MOL0     H18344   3.823  11.386   3.660  0.5869  1.7320  1.4998
  136MOL0     H18345   3.875  11.233   3.468 -2.8259  0.6680 -0.4443
  136MOL0     H18346   3.674   9.620   3.292 -0.0561 -2.5826  2.9100
  136MOL0     H18347   3.793   9.458   3.438  3.5190 -0.5191  2.8977
  136MOL0     H18348   4.064   9.041   3.473  0.6915 -0.3502 -0.4245
  136MOL0     H18349   4.217   8.902   3.572  0.2408 -0.0110 -1.2730
  136MOL0     H18350   4.586   9.053   3.761  2.3930 -3.0119 -1.1020
  136MOL0     H18351   4.466   9.041   3.892 -1.0204  2.0843 -1.3361
  136MOL0     H18352   4.548   8.852   3.964  1.9586  3.4393  1.3940
  136MOL0     H18353   4.690   8.904   3.892  1.0656 -3.1088 -0.3043
  136MOL0     H18354   4.588   8.800   3.667  0.2540  0.0083 -1.1632
  136MOL0     H18355   4.508   8.688   3.786 -1.0643  1.0716 -0.9596
  136MOL0     H18356   4.727   8.616   3.877  1.0962 -1.3230  0.6639
  136MOL0     H18357   4.810   8.737   3.774  2.7548 -2.9775  2.5429
  136MOL0     H18358   4.681   8.392   3.532 -1.6338 -0.3622  0.7185
  136MOL0     H18359   4.406   9.225   3.764 -3.0213 -2.2389  2.5632
  136MOL0     H18360   4.260   9.389   3.645  1.1574  0.2502 -0.6673
  137MOL0     O18361  10.560   3.337   0.186  0.1732  0.0692  0.4768
  137MOL0     C18362  10.590   3.453   0.216 -0.1883 -2.0604  0.6202
  137MOL0     O18363  10.570   3.564   0.136  1.4005 -0.2770  0.0977
  137MOL0     C18364  10.524   3.572   0.008  0.6124 -0.6181  0.1724
  137MOL0     C18365  10.498   3.465  -0.074 -0.5222  0.0372  0.1248
  137MOL0     C18366  10.435   3.479  -0.196  0.3887  1.2071  0.9989
  137MOL0     C18367  10.395   3.606  -0.236  0.5145  0.5082  0.3904
  137MOL0     O18368  10.322   3.609  -0.358  0.3173  0.4545 -0.5668
  137MOL0     C18369  10.239   3.720  -0.375 -0.1176 -0.4831  0.7686
  137MOL0     C18370  10.149   3.692  -0.491 -0.6110  0.0736  0.3089
  137MOL0     C18371  10.053   3.810  -0.478  0.2218  0.0646  0.2471
  137MOL0     C18372   9.951   3.821  -0.599  0.1351 -1.5668  0.5721
  137MOL0     C18373   9.865   3.947  -0.597 -0.8463 -0.7013 -0.1068
  137MOL0     C18374   9.791   3.971  -0.727 -0.6396  0.4024  0.3484
  137MOL0     C18375   9.668   3.870  -0.759 -1.5326  0.3424 -0.4721
  137MOL0     C18376   9.598   3.916  -0.884  0.1267 -0.2264  0.7832
  137MOL0     N18377   9.681   3.906  -1.008  0.5233 -0.0924 -0.4353
  137MOL0     C18378   9.725   3.787  -1.062  0.3607  0.1621  0.0891
  137MOL0     C18379   9.803   3.831  -1.163 -0.3611  1.0632  0.2479
  137MOL0     C18380   9.858   3.721  -1.244  0.2974 -0.0605  0.0914
  137MOL0     C18381   9.765   3.633  -1.331  0.9309 -0.6840 -0.0314
  137MOL0     C18382   9.761   3.704  -1.464  0.6290 -0.1083 -0.1346
  137MOL0     C18383   9.692   3.839  -1.462  1.3256  0.1168 -0.6589
  137MOL0     O18384   9.642   3.882  -1.590  0.9247  1.2418  0.0904
  137MOL0     C18385   9.600   4.017  -1.599  0.8285  1.2756  0.1361
  137MOL0     C18386   9.584   4.108  -1.489 -0.5225 -0.1866  0.2092
  137MOL0     C18387   9.568   4.250  -1.511 -0.2821  0.4779  0.0476
  137MOL0     C18388   9.558   4.338  -1.392  0.7462  0.4397  0.1657
  137MOL0     C18389   9.539   4.294  -1.643 -0.6698  0.0422  0.7273
  137MOL0     C18390   9.503   4.438  -1.674 -0.1728  0.3016 -0.4794
  137MOL0     O18391   9.460   4.455  -1.795  0.2313 -0.0202 -0.2957
  137MOL0     C18392   9.421   4.585  -1.831 -0.2096 -0.6378 -0.2685
  137MOL0     C18393   9.286   4.612  -1.847  0.2929 -0.6943  0.1217
  137MOL0     C18394   9.247   4.740  -1.895 -0.3574  0.1851 -0.6784
  137MOL0     C18395   9.340   4.851  -1.887  0.5294  0.6503 -0.3800
  137MOL0     O18396   9.297   4.977  -1.920  1.0197 -0.1759  0.0170
  137MOL0     C18397   9.205   5.031  -1.824  0.3044 -0.1237  0.0173
  137MOL0     C18398   9.065   5.050  -1.882  0.1382  0.5752  0.3455
  137MOL0     C18399   8.980   5.122  -1.785  0.3108  0.2274  0.4597
  137MOL0     C18400   8.915   5.017  -1.689 -0.3974 -0.1770  0.3244
  137MOL0     C18401   8.767   5.005  -1.706 -0.2213 -0.6876  0.3869
  137MOL0     C18402   8.701   4.979  -1.573 -0.4315  0.5295 -1.2084
  137MOL0     C18403   8.554   4.968  -1.580 -0.7960 -0.0494 -0.2479
  137MOL0     C18404   8.511   4.876  -1.690 -1.0494  0.3336  0.0978
  137MOL0    Cl18405   8.326   4.846  -1.672  0.1266  0.5852  0.3621
  137MOL0     C18406   9.479   4.821  -1.879  0.4064 -0.1986  0.9027
  137MOL0     C18407   9.514   4.683  -1.865  0.3037 -0.0329  0.4251
  137MOL0     O18408   9.514   4.535  -1.588  0.4415  0.4927 -0.2636
  137MOL0     C18409   9.541   4.197  -1.745 -0.1108  0.0844  0.7447
  137MOL0     C18410   9.584   4.069  -1.727  0.1299  0.5176  1.1290
  137MOL0     N18411   9.805   3.962  -1.176  0.4238  0.9169 -0.0867
  137MOL0     N18412   9.732   4.007  -1.082 -0.4152 -0.3119  0.5100
  137MOL0     C18413  10.424   3.710  -0.159  0.2766  0.9701 -0.1702
  137MOL0     C18414  10.482   3.698  -0.036  0.5455  0.4931  0.0594
  137MOL0     C18415  10.663   3.494   0.340  1.2498 -0.7719  0.4044
  137MOL0     C18416  10.742   3.616   0.342  0.7873  1.1050 -0.2621
  137MOL0     C18417  10.816   3.636   0.457  0.1864 -0.5609  0.0203
  137MOL0     C18418  10.802   3.568   0.574  0.3669  0.7123  0.6621
  137MOL0     O18419  10.863   3.600   0.694  0.1777  0.8445 -0.2729
  137MOL0     C18420  10.997   3.583   0.704 -0.1683 -0.2810  0.7754
  137MOL0     C18421  11.042   3.434   0.718 -0.2882  0.2849 -0.8718
  137MOL0     C18422  11.186   3.413   0.673  0.0752 -0.2558 -1.1487
  137MOL0     C18423  11.290   3.471   0.774  1.2800  0.7943 -0.0743
  137MOL0     C18424  11.427   3.467   0.709  0.1494 -0.9213 -0.0227
  137MOL0     C18425  11.533   3.478   0.657  0.1153 -0.9069 -0.5292
  137MOL0     C18426  10.716   3.461   0.564  1.0738  0.1253  0.6561
  137MOL0     C18427  10.652   3.420   0.449  0.2221  0.1379  0.0836
  137MOL0     H18428  10.529   3.367  -0.038  2.1088  1.4547  2.0104
  137MOL0     H18429  10.407   3.391  -0.255 -0.2124  1.9885  0.0786
  137MOL0     H18430  10.179   3.732  -0.284 -0.0385  3.4059  0.4658
  137MOL0     H18431  10.290   3.816  -0.387  0.0631 -0.6607  0.0562
  137MOL0     H18432  10.210   3.705  -0.581 -1.6682  1.8186 -0.1990
  137MOL0     H18433  10.110   3.590  -0.492 -0.2915 -0.0576  0.8876
  137MOL0     H18434   9.993   3.806  -0.387 -1.4667  0.4041 -0.8095
  137MOL0     H18435  10.108   3.905  -0.480  2.6550 -1.2535 -0.4701
  137MOL0     H18436  10.005   3.830  -0.694 -0.5048  0.4763  0.3455
  137MOL0     H18437   9.892   3.730  -0.590 -0.3909 -1.4066 -0.9491
  137MOL0     H18438   9.793   3.937  -0.515 -3.6901 -0.0013 -2.3633
  137MOL0     H18439   9.925   4.034  -0.569  0.2502 -2.0740  2.0610
  137MOL0     H18440   9.762   4.076  -0.738  0.3985  0.5918 -0.7785
  137MOL0     H18441   9.859   3.959  -0.811  1.3813  1.1642  1.8078
  137MOL0     H18442   9.703   3.767  -0.771 -1.7062  0.0035  1.5954
  137MOL0     H18443   9.599   3.862  -0.675 -1.4932 -1.6116 -0.5739
  137MOL0     H18444   9.562   4.019  -0.889 -1.9789 -0.9443 -3.2897
  137MOL0     H18445   9.504   3.862  -0.902  0.3920  0.1712 -2.3982
  137MOL0     H18446   9.679   3.694  -1.030  1.0938 -0.6645 -1.1987
  137MOL0     H18447   9.939   3.772  -1.297 -1.3179  2.4359 -0.1445
  137MOL0     H18448   9.895   3.649  -1.171 -1.0256 -0.7598  0.1068
  137MOL0     H18449   9.666   3.622  -1.286  0.7463 -0.5075 -0.3895
  137MOL0     H18450   9.802   3.531  -1.342  1.6269 -0.8842  3.1118
  137MOL0     H18451   9.719   3.638  -1.541  0.9819 -1.9031  1.1539
  137MOL0     H18452   9.865   3.722  -1.493  0.3643 -1.3570 -2.0132
  137MOL0     H18453   9.777   3.899  -1.428  4.1328 -3.8108 -0.0561
  137MOL0     H18454   9.617   3.840  -1.383 -0.4833 -3.2831 -2.1004
  137MOL0     H18455   9.607   4.085  -1.385 -1.2345 -0.6176  0.2819
  137MOL0     H18456   9.623   4.426  -1.405 -1.0727  2.1223  1.6382
  137MOL0     H18457   9.455   4.375  -1.381  0.1762 -1.0636 -0.0138
  137MOL0     H18458   9.574   4.294  -1.293  0.4902 -1.5651 -0.6432
  137MOL0     H18459   9.213   4.532  -1.837  2.2004 -2.2075  6.0239
  137MOL0     H18460   9.148   4.764  -1.932 -2.4728 -1.7491  3.1402
  137MOL0     H18461   9.202   4.961  -1.740  0.9900 -0.1642  0.0131
  137MOL0     H18462   9.232   5.131  -1.788  1.4899 -0.0024 -1.1481
  137MOL0     H18463   9.067   5.126  -1.960 -0.7081 -2.1430 -2.5577
  137MOL0     H18464   9.026   4.954  -1.918  2.0551 -1.3108  2.7912
  137MOL0     H18465   8.904   5.180  -1.839 -0.9878 -1.8797 -0.0899
  137MOL0     H18466   9.035   5.196  -1.727 -1.8867  1.4246  1.1391
  137MOL0     H18467   8.967   4.921  -1.699  0.0130  0.1085 -0.3565
  137MOL0     H18468   8.945   5.049  -1.589 -0.4480 -1.8914  0.9342
  137MOL0     H18469   8.757   4.922  -1.776 -0.3629  0.2216 -0.6978
  137MOL0     H18470   8.727   5.094  -1.756  1.1850 -0.4947 -0.4242
  137MOL0     H18471   8.742   4.886  -1.534 -3.1012  0.6599  2.3553
  137MOL0     H18472   8.736   5.047  -1.495  0.9562 -1.4011 -0.0857
  137MOL0     H18473   8.523   5.070  -1.604  0.0435  0.4022  0.5224
  137MOL0     H18474   8.507   4.948  -1.483  0.5342  3.0034  1.1537
  137MOL0     H18475   8.560   4.779  -1.675 -0.1922  1.2041  3.8201
  137MOL0     H18476   8.538   4.914  -1.789  1.3038 -2.4710 -0.4765
  137MOL0     H18477   9.560   4.893  -1.880 -3.1904  4.3264  1.4469
  137MOL0     H18478   9.617   4.647  -1.869 -0.8475 -3.5609 -1.4744
  137MOL0     H18479   9.519   4.229  -1.846  2.9902  2.4185  0.6791
  137MOL0     H18480   9.610   3.998  -1.805 -1.5356 -0.5185  1.4793
  137MOL0     H18481  10.380   3.807  -0.179 -1.2990  0.1469 -0.8496
  137MOL0     H18482  10.489   3.783   0.032 -0.4806  1.3737 -0.8882
  137MOL0     H18483  10.735   3.683   0.257 -3.2243 -0.1128 -1.0837
  137MOL0     H18484  10.870   3.731   0.458 -1.4084  0.4189 -1.6133
  137MOL0     H18485  11.042   3.629   0.616  0.3802  1.0936  1.7389
  137MOL0     H18486  11.016   3.632   0.800 -2.2244  1.1894  0.4875
  137MOL0     H18487  10.979   3.385   0.642  0.4646  0.6568 -1.7525
  137MOL0     H18488  11.047   3.399   0.822  4.4688  0.5161 -0.8250
  137MOL0     H18489  11.196   3.466   0.578 -3.0011  0.9792 -0.8999
  137MOL0     H18490  11.194   3.305   0.656  1.3237 -0.4586  0.4306
  137MOL0     H18491  11.291   3.412   0.866 -1.0445 -1.0957 -1.1571
  137MOL0     H18492  11.257   3.572   0.799 -0.3377  0.2897 -0.0232
  137MOL0     H18493  11.638   3.480   0.640  0.0481 -1.3298 -1.0167
  137MOL0     H18494  10.710   3.401   0.654 -0.2804 -0.2205  0.3527
  137MOL0     H18495  10.590   3.331   0.447 -1.0842  1.0277  0.2023
  138MOL0     O18496  11.063   1.394   2.793  0.0579 -0.2023 -0.1039
  138MOL0     C18497  11.121   1.449   2.888 -0.1285 -0.7293 -0.9212
  138MOL0     O18498  11.210   1.558   2.877 -0.3062 -0.0995 -0.4675
  138MOL0     C18499  11.231   1.624   2.757  0.3309  0.1774  0.1084
  138MOL0     C18500  11.188   1.755   2.734  1.0918  0.2457  0.0437
  138MOL0     C18501  11.192   1.808   2.610 -0.4444 -0.6192  0.2139
  138MOL0     C18502  11.242   1.739   2.501  0.4140 -0.8855 -0.1537
  138MOL0     O18503  11.248   1.781   2.369  0.2150  0.5405  0.1916
  138MOL0     C18504  11.141   1.872   2.335 -0.7057 -0.6204 -1.0725
  138MOL0     C18505  11.170   1.914   2.194  0.2182 -0.4899 -0.2588
  138MOL0     C18506  11.082   2.031   2.148  0.3362 -0.3008  0.0370
  138MOL0     C18507  10.946   1.983   2.089  0.1561 -0.1105 -0.6527
  138MOL0     C18508  10.966   1.938   1.942 -0.5185 -0.2217  0.4981
  138MOL0     C18509  10.839   1.869   1.887 -0.1204  0.3542 -0.2604
  138MOL0     C18510  10.853   1.814   1.745  0.2876  0.5453  0.1706
  138MOL0     C18511  10.728   1.753   1.679  0.2607 -0.9650 -0.2148
  138MOL0     N18512  10.783   1.677   1.564  0.0051 -0.0774  0.7946
  138MOL0     C18513  10.814   1.743   1.455 -0.7054 -0.1918 -0.5810
  138MOL0     C18514  10.847   1.645   1.370  0.1664 -0.1420  0.0419
  138MOL0     C18515  10.905   1.653   1.228  0.9139 -0.4632 -0.9818
  138MOL0     C18516  10.811   1.719   1.127  0.0162  0.3210 -0.2054
  138MOL0     C18517  10.682   1.640   1.111 -0.4187  0.5782 -0.6209
  138MOL0     C18518  10.707   1.506   1.044  0.2217  1.0487 -0.6932
  138MOL0     O18519  10.596   1.430   1.046 -0.0193  0.6846  0.3667
  138MOL0     C18520  10.596   1.321   0.966  0.2509 -0.9067 -1.1409
  138MOL0     C18521  10.704   1.278   0.883  0.5879  0.0977  0.1283
  138MOL0     C18522  10.686   1.167   0.797 -0.4632 -0.8133  0.4310
  138MOL0     C18523  10.789   1.138   0.682 -0.2671  0.5810  0.7658
  138MOL0     C18524  10.563   1.103   0.806 -0.1058  0.0989  0.5604
  138MOL0     C18525  10.554   0.984   0.723 -0.0984 -0.5915 -1.3286
  138MOL0     O18526  10.653   0.892   0.731 -0.0434  0.7779 -0.0502
  138MOL0     C18527  10.640   0.789   0.640  0.7488 -0.2171 -0.1817
  138MOL0     C18528  10.641   0.816   0.499 -0.4099  0.1784 -0.3574
  138MOL0     C18529  10.631   0.708   0.409  0.3385 -0.9927 -0.0127
  138MOL0     C18530  10.609   0.574   0.448 -1.2094  0.1699  0.4087
  138MOL0     O18531  10.582   0.465   0.374  0.0976 -0.5575 -0.0429
  138MOL0     C18532  10.601   0.472   0.231  0.2414 -0.0140  0.5190
  138MOL0     C18533  10.624   0.323   0.181  0.1177  0.2233  0.6690
  138MOL0     C18534  10.660   0.332   0.030 -0.0989  0.2523  0.9182
  138MOL0     C18535  10.690   0.197  -0.031  0.1520 -1.3597 -0.2745
  138MOL0     C18536  10.638   0.190  -0.177  0.4599  0.3232  0.5899
  138MOL0     C18537  10.487   0.192  -0.200  0.2461  0.1005  0.0038
  138MOL0     C18538  10.388   0.142  -0.095 -0.4245  0.7201  0.0312
  138MOL0     C18539  10.253   0.111  -0.162 -0.0933 -0.1006 -0.3499
  138MOL0    Cl18540  10.145   0.254  -0.227 -0.0988  0.0750  0.0709
  138MOL0     C18541  10.590   0.551   0.582 -0.7952 -0.9634 -0.1756
  138MOL0     C18542  10.609   0.656   0.678 -0.1805  0.2200 -0.1719
  138MOL0     O18543  10.447   0.973   0.664  0.0915 -0.7803  1.1055
  138MOL0     C18544  10.456   1.150   0.883  1.2281 -0.1357 -0.4696
  138MOL0     C18545  10.477   1.258   0.969  0.0878 -0.0131 -0.3526
  138MOL0     N18546  10.829   1.522   1.433 -0.0382  0.2957 -0.3623
  138MOL0     N18547  10.776   1.541   1.552 -0.1904 -0.3873 -0.5540
  138MOL0     C18548  11.299   1.614   2.524 -0.2152  0.2462 -0.0956
  138MOL0     C18549  11.291   1.559   2.655 -0.5850  0.4751  1.0927
  138MOL0     C18550  11.098   1.397   3.019 -0.0481  0.5067 -1.0447
  138MOL0     C18551  11.003   1.288   3.042  0.0679 -0.1707  0.0486
  138MOL0     C18552  10.975   1.250   3.167 -0.2408 -0.7369 -0.0071
  138MOL0     C18553  11.053   1.294   3.280 -0.5681 -0.5922  0.0093
  138MOL0     O18554  11.038   1.230   3.401 -0.1884  0.4850 -0.4462
  138MOL0     C18555  10.950   1.309   3.492 -0.3216 -0.2136  0.6871
  138MOL0     C18556  10.942   1.250   3.626 -0.5040  0.2948 -0.0172
  138MOL0     C18557  10.888   1.108   3.620 -0.2287  0.1441 -0.1625
  138MOL0     C18558  10.780   1.090   3.509  0.2597 -0.4370 -0.6049
  138MOL0     C18559  10.718   0.958   3.514  0.3636  0.2705 -0.5945
  138MOL0     C18560  10.665   0.847   3.505 -0.1726 -0.2091  1.1961
  138MOL0     C18561  11.150   1.396   3.256  0.6491 -0.3113 -0.3315
  138MOL0     C18562  11.181   1.441   3.125  0.3127  0.1637  0.1576
  138MOL0     H18563  11.133   1.819   2.802 -1.9496 -1.2673 -0.8382
  138MOL0     H18564  11.157   1.909   2.592  1.5008 -0.0975 -0.9031
  138MOL0     H18565  11.043   1.823   2.340  0.4345 -3.0908 -1.2070
  138MOL0     H18566  11.136   1.964   2.394  0.8351  0.6366 -2.7964
  138MOL0     H18567  11.274   1.944   2.176  0.3147 -0.1439  0.8074
  138MOL0     H18568  11.155   1.824   2.135 -0.8756  0.3696 -1.3415
  138MOL0     H18569  11.073   2.099   2.234 -3.4265 -0.3924 -0.1226
  138MOL0     H18570  11.131   2.092   2.072 -3.3750  3.2167  0.0903
  138MOL0     H18571  10.910   1.901   2.152  1.1711  2.2717  3.3663
  138MOL0     H18572  10.872   2.061   2.075  0.1601  0.3577  1.6476
  138MOL0     H18573  10.986   2.027   1.882  0.9418  0.5154  2.0110
  138MOL0     H18574  11.055   1.875   1.933  0.3133  0.6429  2.1785
  138MOL0     H18575  10.810   1.792   1.958 -0.1125  2.5133  2.2238
  138MOL0     H18576  10.759   1.943   1.880  0.2311  1.0179  2.1859
  138MOL0     H18577  10.874   1.903   1.685 -0.0507  1.1266  0.9020
  138MOL0     H18578  10.930   1.737   1.735  1.4353  1.7178 -0.3373
  138MOL0     H18579  10.661   1.831   1.641 -1.5890 -2.2054  0.3418
  138MOL0     H18580  10.674   1.682   1.743  3.0345 -3.9576 -0.9566
  138MOL0     H18581  10.813   1.849   1.431  1.0751 -0.2234 -0.9769
  138MOL0     H18582  10.997   1.710   1.208  0.6521 -0.9842 -4.3799
  138MOL0     H18583  10.937   1.551   1.206  1.1080 -0.7363  0.4848
  138MOL0     H18584  10.860   1.716   1.029  0.0752 -1.8573 -0.1621
  138MOL0     H18585  10.806   1.823   1.159  5.1596  0.6508  0.3202
  138MOL0     H18586  10.614   1.690   1.041 -5.3999 -4.2968  0.1044
  138MOL0     H18587  10.628   1.641   1.206  0.5926 -0.0137 -0.0164
  138MOL0     H18588  10.782   1.452   1.103 -1.5753 -0.5673  0.2340
  138MOL0     H18589  10.732   1.534   0.942  0.1966  0.6446 -0.8120
  138MOL0     H18590  10.796   1.336   0.883  0.5334  0.1840  0.1106
  138MOL0     H18591  10.879   1.199   0.668  0.4612 -0.4514  0.7503
  138MOL0     H18592  10.834   1.038   0.690 -1.0912 -0.0203 -1.3427
  138MOL0     H18593  10.734   1.133   0.587  2.3762  0.9706 -0.8967
  138MOL0     H18594  10.638   0.918   0.463  1.4488 -0.3043 -2.0503
  138MOL0     H18595  10.639   0.726   0.302 -0.2555  3.4227  0.4999
  138MOL0     H18596  10.512   0.494   0.172  3.5978  0.7002 -5.0174
  138MOL0     H18597  10.680   0.545   0.213  1.0011 -0.4929  1.7938
  138MOL0     H18598  10.701   0.275   0.242  2.1491  0.9224 -1.1864
  138MOL0     H18599  10.538   0.259   0.203  0.9882 -0.2927  2.7950
  138MOL0     H18600  10.739   0.408   0.025  0.3524 -0.1504  1.7853
  138MOL0     H18601  10.569   0.372  -0.015 -0.5323  0.5478  2.0143
  138MOL0     H18602  10.794   0.165  -0.038  1.2837  2.2229 -3.2532
  138MOL0     H18603  10.643   0.128   0.039 -0.2902 -0.5162  0.2826
  138MOL0     H18604  10.673   0.093  -0.212 -1.2174  0.0924 -0.5279
  138MOL0     H18605  10.688   0.269  -0.234 -0.5189  2.4136  2.4561
  138MOL0     H18606  10.449   0.291  -0.229  1.1883 -0.0124 -1.7273
  138MOL0     H18607  10.475   0.132  -0.290 -1.7137 -1.2752  1.1252
  138MOL0     H18608  10.366   0.222  -0.023  1.1407  0.0207  1.3517
  138MOL0     H18609  10.429   0.064  -0.031 -2.7313  1.5983  2.8032
  138MOL0     H18610  10.187   0.063  -0.088 -0.4223  0.7933 -0.0432
  138MOL0     H18611  10.264   0.035  -0.239  0.2770  1.1485 -1.5650
  138MOL0     H18612  10.562   0.450   0.608 -2.8219 -1.1041 -2.5144
  138MOL0     H18613  10.585   0.639   0.782 -1.6649  0.9982 -0.3628
  138MOL0     H18614  10.359   1.103   0.869  0.4329  1.8128 -1.8814
  138MOL0     H18615  10.396   1.292   1.032  0.7186 -2.4105  1.8889
  138MOL0     H18616  11.333   1.552   2.442 -2.2730 -1.1285  0.0051
  138MOL0     H18617  11.329   1.457   2.660  3.5587  1.4496 -2.9560
  138MOL0     H18618  10.940   1.254   2.961 -2.0808  0.1704  1.4925
  138MOL0     H18619  10.900   1.175   3.188 -2.2718  1.3743  0.7531
  138MOL0     H18620  11.013   1.398   3.500 -0.2797  0.1841 -2.6097
  138MOL0     H18621  10.860   1.338   3.438  1.8077  3.4301 -1.2573
  138MOL0     H18622  10.875   1.318   3.680 -1.0856  0.7746 -1.2919
  138MOL0     H18623  11.037   1.251   3.680 -1.3670 -2.7639  1.8560
  138MOL0     H18624  10.846   1.089   3.719 -0.8550  0.9415 -0.2656
  138MOL0     H18625  10.967   1.037   3.592  0.8920  0.9813  0.7917
  138MOL0     H18626  10.822   1.107   3.410  0.3512  2.4149 -0.1546
  138MOL0     H18627  10.691   1.153   3.516  0.1648 -0.7410  2.7369
  138MOL0     H18628  10.623   0.749   3.496 -1.6855  0.5836 -1.9900
  138MOL0     H18629  11.200   1.431   3.345  0.2587  1.1964 -0.6847
  138MOL0     H18630  11.256   1.514   3.096 -2.1345  3.3034  1.1402
  139MOL0     O18631   3.565   8.786   2.317 -0.3963 -0.0269 -0.7549
  139MOL0     C18632   3.453   8.743   2.346  0.1442 -0.6044 -0.2256
  139MOL0     O18633   3.427   8.616   2.406  0.1281  0.2475  0.0186
  139MOL0     C18634   3.539   8.538   2.422 -0.3102 -0.5070  0.0922
  139MOL0     C18635   3.623   8.509   2.316 -0.0674 -0.1020  0.2108
  139MOL0     C18636   3.738   8.431   2.334  0.2281 -0.2753 -0.5134
  139MOL0     C18637   3.766   8.370   2.455  0.0156 -0.5039  0.1058
  139MOL0     O18638   3.868   8.283   2.478  0.0669  0.2307 -0.1524
  139MOL0     C18639   3.863   8.180   2.581  0.1604 -0.2407 -1.4611
  139MOL0     C18640   3.987   8.094   2.554 -0.9104 -0.7920  0.3396
  139MOL0     C18641   4.055   8.031   2.672 -0.1149 -0.7613 -1.2641
  139MOL0     C18642   3.960   7.949   2.770  0.3505 -0.2158 -0.5650
  139MOL0     C18643   4.031   7.918   2.898 -0.9829  0.2532  0.9819
  139MOL0     C18644   3.951   7.844   3.009 -0.4292 -0.6404 -1.0252
  139MOL0     C18645   4.001   7.861   3.147  0.0982 -0.1737 -0.2605
  139MOL0     C18646   3.994   7.725   3.227  0.3407 -0.0514 -0.1654
  139MOL0     N18647   4.018   7.749   3.373 -0.8477  0.0348 -0.0228
  139MOL0     C18648   3.929   7.742   3.475  0.9548 -0.4110 -0.0395
  139MOL0     C18649   3.993   7.754   3.588 -0.2989 -0.6417  0.5578
  139MOL0     C18650   3.914   7.749   3.723 -0.5004 -0.6469  0.2991
  139MOL0     C18651   3.837   7.619   3.727  0.1077 -0.2605  0.7324
  139MOL0     C18652   3.783   7.587   3.865 -0.6624  0.3546  0.5905
  139MOL0     C18653   3.877   7.519   3.963  0.7354  0.5343 -0.2425
  139MOL0     O18654   3.798   7.494   4.086 -0.0339 -0.0027  0.9577
  139MOL0     C18655   3.861   7.440   4.198  0.6602 -1.0419  0.1404
  139MOL0     C18656   3.792   7.440   4.315  0.1197  0.4112  0.0671
  139MOL0     C18657   3.845   7.406   4.443 -0.0693  0.4147 -0.9565
  139MOL0     C18658   3.759   7.422   4.567 -0.3631  0.2000  0.2917
  139MOL0     C18659   3.981   7.374   4.446  0.4525  0.1730 -0.1756
  139MOL0     C18660   4.054   7.322   4.568 -0.0476 -0.1726 -0.2014
  139MOL0     O18661   4.192   7.287   4.549  0.1334  0.0263 -0.5777
  139MOL0     C18662   4.249   7.226   4.657  0.2601 -0.8235  0.6045
  139MOL0     C18663   4.368   7.296   4.699  0.2950  0.2991 -0.3702
  139MOL0     C18664   4.456   7.246   4.794  0.6501  1.0046  0.3463
  139MOL0     C18665   4.420   7.129   4.852  0.6009 -0.6001  0.2621
  139MOL0     O18666   4.504   7.085   4.950 -0.8587  0.1051  0.0516
  139MOL0     C18667   4.479   6.963   5.016  0.5229  0.1189 -0.3131
  139MOL0     C18668   4.582   6.921   5.110  0.5393  0.1001  0.3703
  139MOL0     C18669   4.557   6.775   5.145  0.1894 -0.3648 -0.4126
  139MOL0     C18670   4.643   6.728   5.269  0.1406 -0.0258 -1.0934
  139MOL0     C18671   4.662   6.834   5.376  0.0116 -0.5263 -0.0173
  139MOL0     C18672   4.713   6.770   5.509  0.0706 -0.7168  0.3382
  139MOL0     C18673   4.719   6.881   5.613 -0.3910 -0.1616 -0.2646
  139MOL0     C18674   4.800   6.819   5.735 -0.0109 -0.0045  0.3970
  139MOL0    Cl18675   4.812   6.945   5.862  0.2838 -0.6543  0.4568
  139MOL0     C18676   4.299   7.053   4.814  1.2138 -0.4630  1.0921
  139MOL0     C18677   4.213   7.103   4.713 -0.0409 -0.5081  0.1921
  139MOL0     O18678   4.001   7.309   4.674 -0.5125 -0.2094  0.0420
  139MOL0     C18679   4.046   7.367   4.331 -0.1829  0.5644  0.0096
  139MOL0     C18680   3.997   7.400   4.206  0.0717 -0.2983 -0.3996
  139MOL0     N18681   4.128   7.793   3.559  0.2098  0.4583  0.1165
  139MOL0     N18682   4.141   7.771   3.432  0.2478  0.2621 -0.3302
  139MOL0     C18683   3.684   8.403   2.560 -0.4170  0.4203 -0.0978
  139MOL0     C18684   3.571   8.483   2.547  1.3467  0.2161 -0.2641
  139MOL0     C18685   3.330   8.831   2.335 -0.3035  0.9110 -0.5529
  139MOL0     C18686   3.202   8.772   2.349 -1.1246 -0.3346 -0.1789
  139MOL0     C18687   3.086   8.846   2.340  0.1622 -0.0209 -0.9865
  139MOL0     C18688   3.089   8.988   2.326 -0.0361  0.6404 -0.4955
  139MOL0     O18689   2.986   9.076   2.330 -0.3825 -0.5134 -0.5569
  139MOL0     C18690   2.852   9.033   2.298  0.5248  0.6538  0.6978
  139MOL0     C18691   2.754   9.150   2.314  0.1955  0.0769  0.7361
  139MOL0     C18692   2.760   9.229   2.446 -0.3306  0.1039  0.5115
  139MOL0     C18693   2.707   9.375   2.405  0.2095  0.0437 -0.8645
  139MOL0     C18694   2.662   9.447   2.526  0.2782  0.8200  0.2962
  139MOL0     C18695   2.599   9.505   2.617 -0.2738  0.9600  0.4211
  139MOL0     C18696   3.222   9.042   2.304 -0.4680 -0.3563 -0.1097
  139MOL0     C18697   3.337   8.964   2.300  0.1698 -0.0708 -0.5646
  139MOL0     H18698   3.604   8.556   2.221 -1.0491  2.5950  1.6244
  139MOL0     H18699   3.801   8.399   2.252 -0.5753 -2.3120 -0.4022
  139MOL0     H18700   3.889   8.223   2.678 -0.6956 -0.0515 -1.2992
  139MOL0     H18701   3.767   8.127   2.590 -0.2291  0.6645  0.0881
  139MOL0     H18702   3.959   8.010   2.489  1.6019  0.5023 -2.6408
  139MOL0     H18703   4.066   8.154   2.510  0.5396 -0.9658  2.5278
  139MOL0     H18704   4.137   7.967   2.638  2.0780  0.7507  0.8780
  139MOL0     H18705   4.106   8.117   2.715 -1.3442 -1.4893  1.9480
  139MOL0     H18706   3.869   8.005   2.792  0.6526 -0.1164  0.4937
  139MOL0     H18707   3.928   7.862   2.712  1.3063  0.6029 -2.4194
  139MOL0     H18708   4.119   7.855   2.883 -0.4280  1.4034 -1.1249
  139MOL0     H18709   4.057   8.012   2.949 -0.9033  2.3469 -2.5450
  139MOL0     H18710   3.845   7.872   3.013  0.6117  3.7816  0.8783
  139MOL0     H18711   3.964   7.738   2.985 -5.1743 -1.9035  0.7266
  139MOL0     H18712   4.102   7.902   3.153  0.2390 -0.3043 -1.4582
  139MOL0     H18713   3.932   7.929   3.198 -0.7995 -1.9698  1.0623
  139MOL0     H18714   4.060   7.645   3.193 -1.0556 -2.4305  2.3892
  139MOL0     H18715   3.896   7.683   3.207  0.0229  0.8867 -0.6251
  139MOL0     H18716   3.822   7.731   3.466  0.3692  2.6227  1.7167
  139MOL0     H18717   3.988   7.740   3.804  0.0300 -0.3437 -0.1447
  139MOL0     H18718   3.859   7.842   3.739  1.5964  0.4174  1.9244
  139MOL0     H18719   3.919   7.548   3.709 -0.0380 -0.4961  0.9949
  139MOL0     H18720   3.753   7.620   3.657 -0.2453 -0.9749  1.1297
  139MOL0     H18721   3.689   7.532   3.855 -0.4221  0.0537 -0.0668
  139MOL0     H18722   3.772   7.683   3.918 -0.4785  0.7732 -0.1135
  139MOL0     H18723   3.956   7.592   3.982 -0.5368  2.3594 -1.5278
  139MOL0     H18724   3.931   7.431   3.927  1.2788 -0.0672  1.8895
  139MOL0     H18725   3.698   7.494   4.322  0.8570  1.4884  2.5293
  139MOL0     H18726   3.734   7.321   4.599  0.3904 -0.6191 -1.5841
  139MOL0     H18727   3.816   7.468   4.648  2.8168 -1.7031 -0.7020
  139MOL0     H18728   3.680   7.490   4.532 -0.6181 -1.1078 -1.8428
  139MOL0     H18729   4.396   7.394   4.662 -1.1784  0.8804  0.0012
  139MOL0     H18730   4.553   7.291   4.815  1.7381 -0.5719 -0.9733
  139MOL0     H18731   4.376   6.961   5.053 -0.4264 -3.5749 -2.6155
  139MOL0     H18732   4.484   6.892   4.933 -2.2172  1.3341 -1.6594
  139MOL0     H18733   4.675   6.919   5.053 -0.4581 -2.9977 -1.4131
  139MOL0     H18734   4.586   6.987   5.197 -3.6697  1.0451  0.0707
  139MOL0     H18735   4.564   6.701   5.065  3.0632  3.7820 -4.4561
  139MOL0     H18736   4.454   6.768   5.182  0.9021 -2.9258  1.4089
  139MOL0     H18737   4.592   6.644   5.317  2.1583 -1.6574 -1.6571
  139MOL0     H18738   4.736   6.682   5.235 -1.8478 -4.3351 -1.2847
  139MOL0     H18739   4.566   6.885   5.391  0.1262  0.2029 -1.5403
  139MOL0     H18740   4.744   6.903   5.353 -0.5515  0.9725  2.1118
  139MOL0     H18741   4.651   6.684   5.538  0.9182 -1.9476 -1.3070
  139MOL0     H18742   4.814   6.731   5.492  0.0291 -0.4086 -0.6854
  139MOL0     H18743   4.629   6.919   5.663  0.9248  1.3433  1.1021
  139MOL0     H18744   4.771   6.970   5.576  0.3071  0.9435  3.0496
  139MOL0     H18745   4.905   6.794   5.718 -0.2892 -1.3221  0.4470
  139MOL0     H18746   4.762   6.722   5.768  3.9231 -2.6322 -1.8809
  139MOL0     H18747   4.270   6.966   4.872  1.6794 -1.4839 -0.1626
  139MOL0     H18748   4.129   7.038   4.690  0.6175 -1.4785  0.4615
  139MOL0     H18749   4.148   7.333   4.317 -0.4215 -0.7166  1.1521
  139MOL0     H18750   4.060   7.406   4.118 -1.0041  0.0783 -1.1587
  139MOL0     H18751   3.717   8.375   2.660  2.4717 -0.1178 -1.0987
  139MOL0     H18752   3.510   8.510   2.632 -1.4651  2.6547 -2.8398
  139MOL0     H18753   3.193   8.668   2.377  1.2435 -0.9707 -1.5163
  139MOL0     H18754   2.985   8.814   2.363  1.2932 -2.0176  1.8105
  139MOL0     H18755   2.836   9.003   2.194 -3.2848  0.3426  1.2401
  139MOL0     H18756   2.817   8.945   2.353  1.0772  0.2604  0.4261
  139MOL0     H18757   2.652   9.116   2.292  0.5591  1.2881 -3.7562
  139MOL0     H18758   2.777   9.225   2.238  2.2375 -0.7319  0.4883
  139MOL0     H18759   2.863   9.242   2.482 -0.0142  3.1101 -1.1724
  139MOL0     H18760   2.693   9.182   2.519  1.2035  1.9034  3.2579
  139MOL0     H18761   2.627   9.374   2.330 -1.1946  2.6712  0.4604
  139MOL0     H18762   2.795   9.424   2.364  1.1134  0.4217  1.3825
  139MOL0     H18763   2.532   9.542   2.692  1.0778  2.0270  1.1231
  139MOL0     H18764   3.232   9.150   2.309 -1.8957 -0.2459  0.8489
  139MOL0     H18765   3.430   9.020   2.298  0.4624 -0.5135  0.1206
  140MOL0     O18766   2.671   6.260   7.409 -0.1351 -0.1212 -0.3152
  140MOL0     C18767   2.572   6.196   7.440  0.0394  0.7870  0.3696
  140MOL0     O18768   2.542   6.153   7.560 -0.0637 -0.6279  0.3877
  140MOL0     C18769   2.637   6.176   7.663  1.8363  0.2154  0.2239
  140MOL0     C18770   2.667   6.061   7.740  0.1643 -0.0465 -0.1082
  140MOL0     C18771   2.760   6.071   7.848  0.3345 -0.5353  1.1145
  140MOL0     C18772   2.803   6.204   7.886 -0.3028  0.5856  0.0427
  140MOL0     O18773   2.883   6.212   7.992 -0.4746  0.6063  0.0820
  140MOL0     C18774   3.011   6.270   7.966  0.4759 -0.1660  1.2038
  140MOL0     C18775   3.102   6.270   8.087 -0.2260  0.5900 -0.5237
  140MOL0     C18776   3.126   6.137   8.161  0.3390  0.8477  0.6991
  140MOL0     C18777   3.147   6.145   8.306  0.3666  0.5405  0.3797
  140MOL0     C18778   3.211   6.013   8.350  0.1810  0.9121  0.4047
  140MOL0     C18779   3.224   6.002   8.505  0.6011 -1.0784 -0.2862
  140MOL0     C18780   3.301   5.881   8.558 -0.4481  0.4562  0.0072
  140MOL0     C18781   3.329   5.879   8.710  0.2479 -0.2584 -0.2763
  140MOL0     N18782   3.206   5.896   8.791 -0.2147 -0.2252  0.0622
  140MOL0     C18783   3.115   5.796   8.802 -0.5315 -0.1465  0.7084
  140MOL0     C18784   3.040   5.825   8.916 -0.8439  0.6841  0.1093
  140MOL0     C18785   2.930   5.743   8.989  0.1088  0.1372  0.7318
  140MOL0     C18786   2.993   5.633   9.074  0.1566  0.3092  0.1668
  140MOL0     C18787   3.072   5.698   9.193  1.2278 -0.6452  0.1998
  140MOL0     C18788   3.106   5.610   9.307 -0.2577  0.6127  0.1848
  140MOL0     O18789   3.004   5.524   9.358  0.2692  0.6532  0.6734
  140MOL0     C18790   3.022   5.470   9.482 -0.6101 -0.2508  0.5405
  140MOL0     C18791   2.926   5.372   9.508 -0.3271  0.1317 -0.0602
  140MOL0     C18792   2.926   5.294   9.629 -0.8068 -0.7829 -0.2784
  140MOL0     C18793   2.814   5.187   9.655  1.1421 -0.1789 -0.0153
  140MOL0     C18794   3.038   5.316   9.725 -0.3748 -0.0688  1.6103
  140MOL0     C18795   3.062   5.252   9.854 -0.6553  0.5388  0.1026
  140MOL0     O18796   3.145   5.304   9.946 -0.2036 -0.2931 -0.3136
  140MOL0     C18797   3.173   5.229  10.059  0.5234 -0.2295  0.9609
  140MOL0     C18798   3.075   5.218  10.162  0.5101 -0.7703  0.1565
  140MOL0     C18799   3.096   5.133  10.261  0.1951  0.1524 -0.0233
  140MOL0     C18800   3.208   5.052  10.266  0.6869 -0.7479 -0.2397
  140MOL0     O18801   3.211   4.967  10.373 -0.0773 -0.6801  0.0753
  140MOL0     C18802   3.329   4.879  10.395  0.7434 -1.1253 -1.1096
  140MOL0     C18803   3.298   4.761  10.500  0.6119 -0.8484 -0.2559
  140MOL0     C18804   3.175   4.675  10.448 -0.6143 -0.3830  0.6004
  140MOL0     C18805   3.207   4.614  10.314 -0.1168  0.0556 -0.0153
  140MOL0     C18806   3.081   4.544  10.272 -0.2921  0.5821  0.2708
  140MOL0     C18807   3.093   4.456  10.136  0.7475  0.0608 -0.0518
  140MOL0     C18808   3.183   4.333  10.155  0.4405  0.3827 -0.0107
  140MOL0     C18809   3.141   4.236  10.256  0.3978 -0.4602 -0.0961
  140MOL0    Cl18810   3.269   4.123  10.286 -0.0293 -0.3493  0.0293
  140MOL0     C18811   3.319   5.080  10.185 -0.2311 -0.0768 -0.4081
  140MOL0     C18812   3.298   5.159  10.062 -0.0050  0.6361 -0.3601
  140MOL0     O18813   2.980   5.154   9.874 -0.0367 -0.3755 -0.0636
  140MOL0     C18814   3.130   5.424   9.693 -0.5777 -0.3017 -0.4402
  140MOL0     C18815   3.117   5.502   9.579 -0.7355  0.6774  0.2436
  140MOL0     N18816   3.094   5.932   8.981  0.3959  0.4741  0.2309
  140MOL0     N18817   3.187   5.980   8.895 -0.2459  0.1228  0.7894
  140MOL0     C18818   2.757   6.312   7.822  0.0763 -0.9491 -0.8009
  140MOL0     C18819   2.672   6.296   7.712  0.1613 -0.1915  0.4894
  140MOL0     C18820   2.467   6.181   7.331  0.0082  1.1090 -0.5139
  140MOL0     C18821   2.482   6.214   7.195 -0.7281 -1.0512 -1.3568
  140MOL0     C18822   2.380   6.214   7.108  0.5570  0.6550 -0.6363
  140MOL0     C18823   2.260   6.167   7.148  0.2700 -0.7029  0.7282
  140MOL0     O18824   2.148   6.163   7.071  0.2186  0.2942 -0.5193
  140MOL0     C18825   2.121   6.228   6.943 -0.3770 -0.1367  0.3185
  140MOL0     C18826   2.165   6.379   6.920  0.0139  0.2573 -0.5118
  140MOL0     C18827   2.099   6.439   6.800  0.1070  0.2851  0.1650
  140MOL0     C18828   2.177   6.552   6.737 -0.4347 -0.3345 -0.4478
  140MOL0     C18829   2.221   6.658   6.838  0.9165 -0.0180 -0.1913
  140MOL0     C18830   2.279   6.702   6.932 -1.0475 -0.0387  0.2351
  140MOL0     C18831   2.248   6.109   7.274  0.8835  0.0852  0.0725
  140MOL0     C18832   2.338   6.126   7.372 -0.6132  0.3995  0.1645
  140MOL0     H18833   2.613   5.968   7.725  2.8946 -1.7330 -0.1480
  140MOL0     H18834   2.777   5.993   7.921  3.0179 -1.4104 -0.3047
  140MOL0     H18835   3.072   6.223   7.888  0.7775  3.0306 -0.6548
  140MOL0     H18836   2.991   6.363   7.913 -6.1923 -3.6506 -4.0966
  140MOL0     H18837   3.197   6.308   8.048  1.6292 -1.5294  1.6194
  140MOL0     H18838   3.052   6.347   8.146  1.5749  2.5867 -1.4503
  140MOL0     H18839   3.042   6.071   8.141  2.1557 -0.6662 -2.8652
  140MOL0     H18840   3.215   6.086   8.122  0.1019 -0.6689  2.0595
  140MOL0     H18841   3.197   6.237   8.337  0.0361  0.8420  0.0222
  140MOL0     H18842   3.046   6.161   8.344  0.0509 -1.3465  0.4216
  140MOL0     H18843   3.147   5.935   8.308  1.5266 -0.0193  0.0035
  140MOL0     H18844   3.308   5.988   8.305 -0.6770 -1.2454 -0.3320
  140MOL0     H18845   3.280   6.089   8.541 -1.7387 -0.4995  2.2713
  140MOL0     H18846   3.125   5.998   8.551  1.1434  1.1429  1.2432
  140MOL0     H18847   3.256   5.787   8.526  2.2196 -1.4223  1.4666
  140MOL0     H18848   3.392   5.872   8.499  0.0679 -3.9274  1.1118
  140MOL0     H18849   3.403   5.954   8.742  1.0028 -1.8658  1.9835
  140MOL0     H18850   3.370   5.780   8.729 -0.0590 -0.6487 -1.5398
  140MOL0     H18851   3.102   5.704   8.746 -1.9259  0.5503 -0.1569
  140MOL0     H18852   2.876   5.808   9.059  1.4000  0.5973  1.3471
  140MOL0     H18853   2.870   5.705   8.907 -0.2330  1.1212  0.5162
  140MOL0     H18854   3.064   5.578   9.012  1.4586  3.0297 -0.9296
  140MOL0     H18855   2.915   5.563   9.105 -1.3390  1.5471 -0.6692
  140MOL0     H18856   3.012   5.776   9.240  3.7243  1.6632 -0.1941
  140MOL0     H18857   3.162   5.745   9.153  0.5042  2.4778  1.9115
  140MOL0     H18858   3.143   5.672   9.389  2.4712  0.2445 -0.6945
  140MOL0     H18859   3.190   5.548   9.275 -0.9370  0.3061 -1.0507
  140MOL0     H18860   2.838   5.380   9.445  1.0528  1.6333 -1.9216
  140MOL0     H18861   2.730   5.187   9.585 -0.1721 -2.1400  1.4566
  140MOL0     H18862   2.854   5.087   9.674  4.6571  0.9920 -0.3625
  140MOL0     H18863   2.761   5.221   9.744 -0.0919  1.6482 -1.3518
  140MOL0     H18864   2.992   5.287  10.153  3.5280  3.6087  2.0297
  140MOL0     H18865   3.009   5.105  10.320  0.0763 -0.7748 -0.6094
  140MOL0     H18866   3.387   4.831  10.315  0.2626 -0.5389 -1.8185
  140MOL0     H18867   3.406   4.942  10.440 -0.1900  0.0819 -1.1712
  140MOL0     H18868   3.388   4.700  10.514  1.4060 -0.1012 -1.8709
  140MOL0     H18869   3.277   4.796  10.601 -1.4937 -1.1393 -0.5481
  140MOL0     H18870   3.091   4.744  10.434  0.3786  0.5148 -1.4103
  140MOL0     H18871   3.160   4.611  10.535 -0.9052 -0.6499  0.3554
  140MOL0     H18872   3.228   4.699  10.249 -0.0537  0.0597  0.0106
  140MOL0     H18873   3.290   4.545  10.329 -2.2116 -2.4926  0.7063
  140MOL0     H18874   3.004   4.619  10.258 -0.4288  0.2476 -0.9383
  140MOL0     H18875   3.050   4.476  10.351 -0.6284 -2.6344 -2.3840
  140MOL0     H18876   2.994   4.418  10.109  2.3604 -4.8486 -0.1160
  140MOL0     H18877   3.141   4.514  10.057 -2.2694  0.6814 -1.5813
  140MOL0     H18878   3.281   4.378  10.175 -2.1704  7.8357 -1.0057
  140MOL0     H18879   3.197   4.270  10.067 -1.7256 -0.2251  0.0183
  140MOL0     H18880   3.051   4.183  10.225 -3.8914  4.5152  2.3335
  140MOL0     H18881   3.114   4.286  10.350  1.8552  2.4478 -1.1048
  140MOL0     H18882   3.414   5.031  10.206 -0.9134 -1.0305  0.5471
  140MOL0     H18883   3.374   5.162   9.985  0.9101  1.4428  0.5404
  140MOL0     H18884   3.213   5.460   9.753  2.4368 -2.7299 -2.7529
  140MOL0     H18885   3.200   5.564   9.546  1.2726 -2.1984 -0.5182
  140MOL0     H18886   2.777   6.410   7.865  1.6209 -1.6395  0.1146
  140MOL0     H18887   2.625   6.384   7.668 -0.0840 -1.0117 -0.9697
  140MOL0     H18888   2.577   6.254   7.161 -0.2425 -1.7754 -0.8631
  140MOL0     H18889   2.399   6.239   7.003 -1.7995 -2.3960 -1.9397
  140MOL0     H18890   2.159   6.167   6.861 -3.5102 -2.3699  0.3549
  140MOL0     H18891   2.013   6.222   6.928 -0.2865 -2.0175  0.2608
  140MOL0     H18892   2.275   6.383   6.919  0.0901 -1.4253 -0.8906
  140MOL0     H18893   2.136   6.438   7.008 -1.8259 -2.3118  0.7357
  140MOL0     H18894   1.995   6.458   6.829  0.3524 -0.9754  2.0789
  140MOL0     H18895   2.107   6.364   6.721  5.4657  2.6140 -1.9628
  140MOL0     H18896   2.132   6.599   6.649  4.0034  0.0833 -2.7632
  140MOL0     H18897   2.267   6.513   6.688 -1.8313 -0.7856 -2.8466
  140MOL0     H18898   2.346   6.739   7.007  0.2639 -0.2864 -0.7830
  140MOL0     H18899   2.151   6.072   7.306  0.7722 -0.0681 -0.4364
  140MOL0     H18900   2.324   6.097   7.476  2.4824 -1.7463  0.1197
  141MOL0     O18901  10.032   1.640   9.811 -0.5302 -0.4197 -0.4964
  141MOL0     C18902  10.156   1.646   9.794 -0.7585  1.0296  0.6211
  141MOL0     O18903  10.243   1.692   9.888 -0.0185  0.8473 -0.5329
  141MOL0     C18904  10.195   1.767   9.988 -0.7835 -0.7470  0.7577
  141MOL0     C18905  10.202   1.720  10.117  0.4684  0.0396 -0.0543
  141MOL0     C18906  10.155   1.803  10.227  0.1684 -0.8545  0.1115
  141MOL0     C18907  10.097   1.930  10.202  0.3594  0.0174  0.2210
  141MOL0     O18908  10.033   2.013  10.292 -1.3158 -0.5481 -0.6871
  141MOL0     C18909  10.098   2.046  10.418  0.7227 -0.0252  1.1193
  141MOL0     C18910  10.024   1.983  10.533  0.2729 -0.0516  0.0822
  141MOL0     C18911  10.051   2.026  10.671 -0.5358  0.2527 -0.4671
  141MOL0     C18912   9.959   1.961  10.772 -0.1218  0.9083  1.1259
  141MOL0     C18913   9.993   2.003  10.916 -0.9608 -0.4347  0.5731
  141MOL0     C18914   9.915   1.913  11.013 -0.8596 -0.5019 -0.7261
  141MOL0     C18915   9.982   1.912  11.149 -0.1690  0.9939 -0.3496
  141MOL0     C18916  10.008   2.036  11.234 -0.3177  0.7951  0.1285
  141MOL0     N18917  10.064   2.002  11.368  0.7465 -0.0454  0.6343
  141MOL0     C18918   9.995   1.938  11.464 -0.1971 -0.6641 -0.4626
  141MOL0     C18919  10.087   1.924  11.567  0.0536  0.1953  0.9549
  141MOL0     C18920  10.054   1.861  11.695 -0.9234 -0.6058 -0.4014
  141MOL0     C18921  10.140   1.735  11.718  0.8491  0.4545 -1.5070
  141MOL0     C18922  10.087   1.605  11.652 -0.3340 -0.8028 -1.2924
  141MOL0     C18923   9.961   1.556  11.732  0.4484 -0.0892  0.4361
  141MOL0     O18924   9.834   1.626  11.695  0.1393  0.6357  0.2263
  141MOL0     C18925   9.733   1.538  11.665 -0.0501  0.4024  0.4911
  141MOL0     C18926   9.675   1.540  11.539 -0.5077  0.7081  0.1460
  141MOL0     C18927   9.557   1.473  11.509  0.2521  0.3283 -0.5449
  141MOL0     C18928   9.509   1.477  11.366 -0.4283 -1.3703 -0.0488
  141MOL0     C18929   9.494   1.395  11.607  0.3966  0.2573 -0.5415
  141MOL0     C18930   9.373   1.312  11.577 -0.5869 -0.3640 -0.1043
  141MOL0     O18931   9.293   1.271  11.684 -0.3172 -0.0071 -0.1964
  141MOL0     C18932   9.215   1.160  11.657 -0.8399  0.0968 -0.3092
  141MOL0     C18933   9.254   1.038  11.715 -0.4294 -0.7446 -0.3218
  141MOL0     C18934   9.186   0.919  11.681 -0.4292 -1.1498  0.5795
  141MOL0     C18935   9.070   0.928  11.608  0.7222  0.2830  0.7140
  141MOL0     O18936   9.022   0.803  11.569 -0.0045 -0.3699 -0.3645
  141MOL0     C18937   8.886   0.800  11.587  0.3431  0.2252 -0.3150
  141MOL0     C18938   8.836   0.720  11.465 -0.2001  0.1773 -0.0253
  141MOL0     C18939   8.824   0.806  11.345 -0.3999 -0.4678  1.0257
  141MOL0     C18940   8.729   0.930  11.350 -0.1848  0.3194  0.2377
  141MOL0     C18941   8.690   0.978  11.213  0.0300 -1.1180 -0.7171
  141MOL0     C18942   8.637   1.126  11.242 -0.2255 -0.1134  0.3384
  141MOL0     C18943   8.628   1.194  11.105 -0.2516  0.9128 -0.3546
  141MOL0     C18944   8.549   1.320  11.117  1.3521  0.0569  0.1242
  141MOL0    Cl18945   8.653   1.449  11.189  0.2496  0.0161 -0.2658
  141MOL0     C18946   9.027   1.051  11.549 -0.3825 -0.0225  0.5099
  141MOL0     C18947   9.103   1.164  11.587  0.0461 -0.1785 -0.0695
  141MOL0     O18948   9.365   1.268  11.464 -0.7683 -0.1288 -0.8621
  141MOL0     C18949   9.546   1.397  11.735 -0.4519 -0.6287 -0.4940
  141MOL0     C18950   9.658   1.481  11.766 -0.2349  0.4191 -0.0553
  141MOL0     N18951  10.203   1.981  11.527  0.5035  0.6666 -0.5198
  141MOL0     N18952  10.193   2.025  11.407  0.1075  0.2525 -0.2476
  141MOL0     C18953  10.092   1.971  10.069 -0.8256 -0.5384 -0.0699
  141MOL0     C18954  10.143   1.895   9.963  0.5046  0.6653  0.1022
  141MOL0     C18955  10.222   1.575   9.676  0.2711  0.2891  0.5423
  141MOL0     C18956  10.161   1.570   9.547  0.8956 -0.8009  0.1563
  141MOL0     C18957  10.213   1.494   9.442 -0.7391  0.1893 -0.0599
  141MOL0     C18958  10.340   1.445   9.456 -0.3215 -0.3259  0.1890
  141MOL0     O18959  10.396   1.371   9.359  0.6070 -1.3613  0.4114
  141MOL0     C18960  10.402   1.225   9.379 -0.1632 -0.4094  0.3185
  141MOL0     C18961  10.334   1.150   9.265  0.6816 -0.1597 -0.4425
  141MOL0     C18962  10.350   0.996   9.273  0.4874 -0.4773 -0.5373
  141MOL0     C18963  10.245   0.920   9.206  0.4030  0.7205  0.4091
  141MOL0     C18964  10.250   0.773   9.218  0.4477 -0.8103  0.1808
  141MOL0     C18965  10.249   0.654   9.220 -0.2719  0.0609  0.6204
  141MOL0     C18966  10.406   1.452   9.587  0.5740  0.3343 -0.0827
  141MOL0     C18967  10.346   1.520   9.688  0.4193 -0.4262  0.7310
  141MOL0     H18968  10.235   1.618  10.138 -2.4478 -2.0691 -4.3463
  141MOL0     H18969  10.149   1.767  10.329 -2.0525 -0.1487  0.2714
  141MOL0     H18970  10.197   2.002  10.402 -0.4831 -3.2424  1.5976
  141MOL0     H18971  10.103   2.154  10.432  0.0586 -0.0896  1.9198
  141MOL0     H18972   9.919   2.014  10.523  0.5633  0.8336 -0.3491
  141MOL0     H18973  10.026   1.874  10.523 -1.4264 -0.0355 -1.0942
  141MOL0     H18974  10.154   1.995  10.692 -0.8305 -1.0752 -0.8555
  141MOL0     H18975  10.040   2.132  10.693 -3.7069  0.0218 -0.3830
  141MOL0     H18976   9.854   1.969  10.742  0.6460 -0.0012 -2.1639
  141MOL0     H18977   9.968   1.853  10.760 -0.0793  0.9159  1.0848
  141MOL0     H18978  10.100   2.002  10.935 -0.5863 -0.3562 -1.3717
  141MOL0     H18979   9.946   2.100  10.934 -4.2768 -2.0346  1.3359
  141MOL0     H18980   9.814   1.952  11.029 -0.0557  1.1128  0.8137
  141MOL0     H18981   9.914   1.813  10.968  2.0373 -0.8543 -0.1996
  141MOL0     H18982   9.903   1.860  11.204 -0.6290  2.0449  0.0254
  141MOL0     H18983  10.075   1.856  11.145  0.3083  1.6230  1.2420
  141MOL0     H18984   9.914   2.084  11.262 -0.4599  1.0846 -0.7911
  141MOL0     H18985  10.082   2.103  11.188  1.0389  1.0676  2.5235
  141MOL0     H18986   9.894   1.898  11.457  0.5851 -2.5561 -1.7008
  141MOL0     H18987  10.081   1.932  11.774 -3.0540  1.1538 -1.1708
  141MOL0     H18988   9.948   1.837  11.709 -0.2859 -2.7121  1.3603
  141MOL0     H18989  10.166   1.721  11.823 -1.8823  0.8806 -0.7093
  141MOL0     H18990  10.235   1.756  11.667  0.6192  0.8955 -1.7627
  141MOL0     H18991  10.176   1.541  11.658 -0.4204 -0.8905 -0.9697
  141MOL0     H18992  10.053   1.616  11.548 -0.2744 -2.0086 -1.4627
  141MOL0     H18993   9.967   1.576  11.839 -0.3088  1.7630  0.1710
  141MOL0     H18994   9.953   1.448  11.720  1.7877 -0.2483  0.8064
  141MOL0     H18995   9.712   1.608  11.463  0.1723  0.6149  0.3949
  141MOL0     H18996   9.401   1.492  11.368 -0.0068  2.3875  1.0909
  141MOL0     H18997   9.555   1.556  11.306  3.4310 -1.0802  2.8953
  141MOL0     H18998   9.536   1.383  11.317 -1.3043 -2.2309  1.0628
  141MOL0     H18999   9.350   1.030  11.765  0.0356  0.9573 -0.9049
  141MOL0     H19000   9.226   0.825  11.719  2.5050  0.1227  0.9080
  141MOL0     H19001   8.862   0.751  11.682  1.7584  1.4140  0.7192
  141MOL0     H19002   8.833   0.895  11.594 -2.5788 -1.3716  0.7503
  141MOL0     H19003   8.901   0.636  11.441  0.6313  1.4666 -2.6634
  141MOL0     H19004   8.742   0.667  11.484  0.9982 -1.4250  1.7623
  141MOL0     H19005   8.794   0.743  11.261  1.1137  2.7150 -2.2289
  141MOL0     H19006   8.922   0.841  11.309 -0.8714  2.0000  1.9111
  141MOL0     H19007   8.640   0.907  11.408  0.3742 -0.7646  0.6912
  141MOL0     H19008   8.785   1.008  11.402  1.3355 -0.1910 -0.5632
  141MOL0     H19009   8.605   0.928  11.166 -2.5137  0.3186  1.9795
  141MOL0     H19010   8.779   0.986  11.150  0.6529 -0.4059  0.2166
  141MOL0     H19011   8.538   1.131  11.289 -0.6074  2.6198 -0.5546
  141MOL0     H19012   8.705   1.193  11.296  2.0767 -2.2798  0.2933
  141MOL0     H19013   8.588   1.128  11.027 -0.6268  1.0616 -0.2922
  141MOL0     H19014   8.730   1.220  11.075  1.7624 -2.8832  2.4242
  141MOL0     H19015   8.455   1.306  11.171  1.5379  2.9111  1.3862
  141MOL0     H19016   8.503   1.333  11.018  1.6935 -0.7675 -0.1491
  141MOL0     H19017   8.954   1.054  11.468 -1.2039 -1.4717  1.1630
  141MOL0     H19018   9.062   1.261  11.561  0.5843  0.2782  0.7292
  141MOL0     H19019   9.501   1.361  11.828 -2.5801  1.4475 -0.6150
  141MOL0     H19020   9.690   1.489  11.870  1.4159  0.4462 -0.5374
  141MOL0     H19021  10.043   2.068  10.067 -0.4492 -0.3551 -0.4111
  141MOL0     H19022  10.140   1.929   9.860 -3.8966  0.3323 -0.0713
  141MOL0     H19023  10.060   1.605   9.524  1.1794 -0.1683 -0.1483
  141MOL0     H19024  10.171   1.486   9.343 -0.1242 -4.3466 -0.1598
  141MOL0     H19025  10.511   1.211   9.386  1.1443  6.6134  1.3622
  141MOL0     H19026  10.354   1.205   9.475 -1.2055  2.7339  0.5513
  141MOL0     H19027  10.375   1.195   9.174  0.3442  0.6668 -0.1978
  141MOL0     H19028  10.228   1.176   9.259  0.1800 -1.9489 -0.0489
  141MOL0     H19029  10.351   0.962   9.376  0.5189  2.5361  0.5622
  141MOL0     H19030  10.449   0.955   9.249  0.2145 -1.0664 -0.6782
  141MOL0     H19031  10.266   0.939   9.100  3.9915  0.8189  1.0301
  141MOL0     H19032  10.144   0.955   9.230  0.9665  0.9404  2.6890
  141MOL0     H19033  10.249   0.547   9.219  0.0444  0.0531 -0.7397
  141MOL0     H19034  10.500   1.405   9.611  2.8301  2.8048 -3.2282
  141MOL0     H19035  10.399   1.532   9.782 -0.0591 -0.7897  1.0489
  142MOL0     O19036   6.755   1.044   1.489 -0.8075  0.3599 -0.5210
  142MOL0     C19037   6.740   1.100   1.385  1.0791 -0.6995  0.2319
  142MOL0     O19038   6.689   1.052   1.270  0.2567  0.3954  0.4372
  142MOL0     C19039   6.633   0.926   1.272  0.2736  0.8962  0.1054
  142MOL0     C19040   6.500   0.916   1.218 -1.2273 -0.1038 -0.0056
  142MOL0     C19041   6.457   0.784   1.191 -0.1077 -0.9056  0.2745
  142MOL0     C19042   6.527   0.667   1.230  1.0257  0.6593  0.1916
  142MOL0     O19043   6.464   0.547   1.199  0.2487 -0.4112  0.5450
  142MOL0     C19044   6.520   0.418   1.235 -1.0539 -1.2314  0.1675
  142MOL0     C19045   6.413   0.313   1.245  0.7014  0.4954 -0.3829
  142MOL0     C19046   6.353   0.277   1.112 -0.1442 -0.5002  0.2494
  142MOL0     C19047   6.227   0.190   1.149 -0.5362 -0.7565  0.0507
  142MOL0     C19048   6.154   0.142   1.022  0.1416 -0.5141  0.0584
  142MOL0     C19049   6.204   0.006   0.973 -0.0598 -0.0543 -0.0210
  142MOL0     C19050   6.132  -0.043   0.841 -0.1310 -0.6844  0.0936
  142MOL0     C19051   5.983  -0.065   0.852 -0.0773 -1.2785  0.1960
  142MOL0     N19052   5.907  -0.091   0.724  0.1569  0.6222 -0.5941
  142MOL0     C19053   5.950  -0.166   0.615 -0.2915  0.8938 -0.0627
  142MOL0     C19054   5.851  -0.145   0.525  0.1642  0.8131 -0.2585
  142MOL0     C19055   5.843  -0.183   0.382 -0.0631  0.4635  0.1089
  142MOL0     C19056   5.912  -0.316   0.337 -0.8937  0.2617 -0.4334
  142MOL0     C19057   5.915  -0.337   0.181  0.4971  0.3178 -0.2019
  142MOL0     C19058   6.000  -0.465   0.145  0.0706 -0.4886  0.4981
  142MOL0     O19059   5.970  -0.508   0.009 -0.2509 -0.6603  0.8777
  142MOL0     C19060   6.043  -0.607  -0.049  0.9116 -0.3058  0.7729
  142MOL0     C19061   6.170  -0.646  -0.004 -0.4176  0.6799  0.8234
  142MOL0     C19062   6.237  -0.748  -0.069 -0.3939  0.4725 -0.3876
  142MOL0     C19063   6.382  -0.784  -0.018 -0.4971  0.3756 -0.7011
  142MOL0     C19064   6.179  -0.810  -0.190  0.3639 -0.2926  0.2396
  142MOL0     C19065   6.235  -0.934  -0.261  0.2370 -0.6314 -0.7217
  142MOL0     O19066   6.346  -0.979  -0.194 -0.2671 -0.1341  0.4326
  142MOL0     C19067   6.437  -1.058  -0.256 -0.4388 -0.8596  0.0623
  142MOL0     C19068   6.576  -1.044  -0.230  0.1494  0.3611  0.0254
  142MOL0     C19069   6.677  -1.129  -0.290  0.6774  0.5317  1.2878
  142MOL0     C19070   6.630  -1.230  -0.374 -0.2768  0.7250  1.4656
  142MOL0     O19071   6.731  -1.303  -0.438  0.0494 -0.2799  0.1754
  142MOL0     C19072   6.719  -1.324  -0.582  0.7235 -0.0763  0.3631
  142MOL0     C19073   6.844  -1.368  -0.655  0.1331  0.1624  0.2556
  142MOL0     C19074   6.862  -1.521  -0.631  0.3698 -0.0833  0.2698
  142MOL0     C19075   6.970  -1.598  -0.712  0.5786 -0.8368 -0.3250
  142MOL0     C19076   6.958  -1.587  -0.866 -0.0465  0.7484 -0.3188
  142MOL0     C19077   6.815  -1.622  -0.918 -0.6834  0.1400  0.5260
  142MOL0     C19078   6.785  -1.767  -0.899  0.4039  0.0284 -0.8873
  142MOL0     C19079   6.633  -1.798  -0.923  0.3481  0.3536  0.4716
  142MOL0    Cl19080   6.586  -1.708  -1.079  0.0142  0.1867  0.0515
  142MOL0     C19081   6.495  -1.248  -0.402  0.7755  0.4417  0.5732
  142MOL0     C19082   6.404  -1.161  -0.339  0.5840  0.1075 -0.0008
  142MOL0     O19083   6.180  -0.978  -0.365 -0.5292 -0.4553  0.3390
  142MOL0     C19084   6.058  -0.754  -0.240  0.5377 -0.1694  0.0680
  142MOL0     C19085   5.990  -0.656  -0.164 -0.5129  0.1974 -0.0736
  142MOL0     N19086   5.752  -0.072   0.583 -0.4577 -0.2561  0.1982
  142MOL0     N19087   5.780  -0.041   0.696  0.2696  0.0555  0.8221
  142MOL0     C19088   6.648   0.677   1.298  0.1011  0.5754  0.2780
  142MOL0     C19089   6.697   0.810   1.311 -0.7089  0.1968 -0.3671
  142MOL0     C19090   6.791   1.239   1.373  0.2663 -0.1115 -0.6454
  142MOL0     C19091   6.875   1.299   1.476 -0.3424 -0.2017 -0.2891
  142MOL0     C19092   6.902   1.435   1.480  0.5250  1.1193 -0.5715
  142MOL0     C19093   6.867   1.516   1.377  0.4504  0.0926  0.5977
  142MOL0     O19094   6.907   1.648   1.363  0.4657 -0.2062 -0.0524
  142MOL0     C19095   6.921   1.729   1.480 -0.2224  0.0215  0.1820
  142MOL0     C19096   6.805   1.823   1.480  0.0291 -1.4151 -0.2794
  142MOL0     C19097   6.840   1.952   1.398 -0.3180  0.8995 -0.2571
  142MOL0     C19098   6.726   2.021   1.327 -0.9233  0.7802  1.0429
  142MOL0     C19099   6.613   2.061   1.408  0.2587 -0.9415 -0.1143
  142MOL0     C19100   6.527   2.107   1.477  1.1646 -0.0848 -0.0468
  142MOL0     C19101   6.792   1.463   1.277  0.3652 -0.7003 -0.4020
  142MOL0     C19102   6.743   1.327   1.276  0.1065 -0.0794  0.0058
  142MOL0     H19103   6.445   1.006   1.196 -0.1532  0.8674  1.1520
  142MOL0     H19104   6.361   0.769   1.143 -0.7507 -0.6882  1.4554
  142MOL0     H19105   6.610   0.397   1.177 -0.0929 -0.2736  1.2729
  142MOL0     H19106   6.549   0.428   1.339  0.1278  2.1133 -0.3824
  142MOL0     H19107   6.455   0.225   1.293 -2.5509 -1.1992 -0.3701
  142MOL0     H19108   6.331   0.354   1.306  0.9883 -0.4076  0.6289
  142MOL0     H19109   6.322   0.363   1.051  2.9419  0.6363  0.0810
  142MOL0     H19110   6.423   0.234   1.040  0.5547  3.0114 -1.3703
  142MOL0     H19111   6.263   0.114   1.220 -0.5624  1.6689  2.8538
  142MOL0     H19112   6.162   0.250   1.213  0.6121 -0.7418  1.2490
  142MOL0     H19113   6.054   0.133   1.065  1.0718  1.6720  3.0196
  142MOL0     H19114   6.144   0.215   0.940  0.0454 -1.7094 -1.0341
  142MOL0     H19115   6.307   0.033   0.947  0.4099  1.0118  2.5773
  142MOL0     H19116   6.188  -0.065   1.054 -3.4043  0.3783 -0.1726
  142MOL0     H19117   6.143   0.023   0.754 -1.6432 -1.4843 -0.7535
  142MOL0     H19118   6.174  -0.142   0.819  1.4775 -0.4904  2.0455
  142MOL0     H19119   5.935   0.026   0.888 -1.3035 -1.3926 -1.0525
  142MOL0     H19120   5.950  -0.148   0.915 -3.3346  1.4961  2.4989
  142MOL0     H19121   6.047  -0.213   0.605 -0.5062  0.4258  0.0136
  142MOL0     H19122   5.738  -0.180   0.350 -1.0965  3.0639  3.1462
  142MOL0     H19123   5.889  -0.098   0.332 -0.1296  0.5401  0.1775
  142MOL0     H19124   5.883  -0.405   0.394  2.3646 -0.7585 -0.1262
  142MOL0     H19125   6.016  -0.314   0.373  0.4717 -5.0104 -2.9679
  142MOL0     H19126   5.965  -0.259   0.122  2.5619 -2.9087 -3.1534
  142MOL0     H19127   5.815  -0.355   0.142 -0.0863 -2.9112  2.3981
  142MOL0     H19128   5.978  -0.545   0.216  1.6695 -0.1685  1.3914
  142MOL0     H19129   6.106  -0.440   0.147  0.9705 -3.1158 -3.2326
  142MOL0     H19130   6.218  -0.593   0.078  0.9808 -1.5192  1.5351
  142MOL0     H19131   6.374  -0.881   0.032  1.1149  0.6147  0.0947
  142MOL0     H19132   6.452  -0.792  -0.101 -0.1872 -2.8443 -0.2700
  142MOL0     H19133   6.420  -0.711   0.055  2.4315  0.6198 -2.3201
  142MOL0     H19134   6.607  -0.975  -0.153  1.3948 -1.6166  1.3787
  142MOL0     H19135   6.783  -1.113  -0.280  1.0734  0.8758 -2.1685
  142MOL0     H19136   6.646  -1.398  -0.615  0.5099  0.9462 -1.5862
  142MOL0     H19137   6.695  -1.227  -0.626  0.1521 -0.6991 -0.7470
  142MOL0     H19138   6.828  -1.354  -0.763  0.0743 -2.4579 -0.1419
  142MOL0     H19139   6.932  -1.316  -0.616  0.5801  0.0388 -0.5558
  142MOL0     H19140   6.768  -1.563  -0.670 -0.0409  0.0514  1.1118
  142MOL0     H19141   6.869  -1.535  -0.523 -2.7429  2.3867  0.9340
  142MOL0     H19142   7.071  -1.561  -0.689 -0.3780  0.9651  1.2211
  142MOL0     H19143   6.962  -1.701  -0.676 -1.2808 -0.8354 -0.6441
  142MOL0     H19144   7.035  -1.648  -0.914 -0.5239 -0.4570  0.3998
  142MOL0     H19145   6.976  -1.483  -0.896 -1.9536  0.2936 -3.5622
  142MOL0     H19146   6.750  -1.547  -0.872 -3.6935 -2.1852  0.4231
  142MOL0     H19147   6.817  -1.609  -1.027 -3.2470 -3.4118 -0.1230
  142MOL0     H19148   6.815  -1.800  -0.799 -1.0230  3.1978  0.7118
  142MOL0     H19149   6.838  -1.829  -0.971  0.0796 -0.6853 -0.5303
  142MOL0     H19150   6.571  -1.772  -0.837  0.5534  0.4675  0.5857
  142MOL0     H19151   6.622  -1.907  -0.936  2.8351  0.0407  0.5163
  142MOL0     H19152   6.470  -1.328  -0.471  2.0104 -2.7534  3.5427
  142MOL0     H19153   6.299  -1.186  -0.346  0.1091  2.0552 -0.6035
  142MOL0     H19154   6.013  -0.777  -0.336 -1.6618 -2.0019  1.4249
  142MOL0     H19155   5.897  -0.617  -0.205 -1.6841 -2.1161  0.2322
  142MOL0     H19156   6.704   0.594   1.340  2.2904  2.1241  0.6082
  142MOL0     H19157   6.798   0.813   1.351 -1.8319 -0.5272  2.7813
  142MOL0     H19158   6.906   1.239   1.560  1.2495  0.1553 -0.5972
  142MOL0     H19159   6.979   1.475   1.546  3.0792 -2.7217 -0.9313
  142MOL0     H19160   6.914   1.674   1.574 -1.4583  2.0605  1.3515
  142MOL0     H19161   7.021   1.773   1.488  0.7093 -1.9467  0.2417
  142MOL0     H19162   6.780   1.856   1.581 -1.7225  0.7860 -1.3268
  142MOL0     H19163   6.717   1.771   1.441 -0.8748 -0.0022 -0.2298
  142MOL0     H19164   6.919   1.926   1.327 -0.3237  3.0660 -1.1596
  142MOL0     H19165   6.896   2.027   1.455  0.1596  2.7381 -2.9413
  142MOL0     H19166   6.697   1.949   1.250  2.0398 -0.1869  0.7176
  142MOL0     H19167   6.780   2.103   1.280  0.7379 -0.8346  0.0291
  142MOL0     H19168   6.460   2.149   1.550  2.3230  3.2128 -0.6972
  142MOL0     H19169   6.755   1.528   1.199 -0.9812 -1.2644 -0.2738
  142MOL0     H19170   6.667   1.295   1.205  1.3703 -3.3436 -0.0251
  143MOL0     O19171   6.971   7.191   4.468  0.0296 -0.7179  0.0914
  143MOL0     C19172   7.015   7.267   4.389  0.2381 -1.1368  0.3425
  143MOL0     O19173   6.947   7.379   4.343 -0.1210  0.0177  0.2664
  143MOL0     C19174   6.812   7.408   4.376  0.4517  0.4767  0.0652
  143MOL0     C19175   6.707   7.309   4.414  0.6704  1.1609  0.3817
  143MOL0     C19176   6.572   7.343   4.399 -0.5229  0.5455  0.2770
  143MOL0     C19177   6.523   7.475   4.350 -0.3391  0.7459 -0.9290
  143MOL0     O19178   6.389   7.510   4.333  0.5123 -0.1403  0.6173
  143MOL0     C19179   6.296   7.436   4.412  0.2918  0.3139  1.2380
  143MOL0     C19180   6.225   7.327   4.310  0.3098 -0.7299 -0.6411
  143MOL0     C19181   6.124   7.395   4.213  0.4632  0.7939 -0.3416
  143MOL0     C19182   6.089   7.275   4.118 -0.0981  0.3100 -0.9647
  143MOL0     C19183   5.959   7.311   4.036  0.0218 -0.2004  0.7597
  143MOL0     C19184   5.916   7.196   3.946 -0.2145 -0.1444 -0.2949
  143MOL0     C19185   6.035   7.161   3.853  0.6108 -0.1959  0.0231
  143MOL0     C19186   5.976   7.080   3.725 -0.7772  0.2792 -0.7269
  143MOL0     N19187   5.932   6.935   3.756  0.5524 -0.5023  0.8130
  143MOL0     C19188   6.011   6.819   3.775  0.5344 -0.3826 -0.6204
  143MOL0     C19189   5.930   6.714   3.798 -0.1954 -0.7435  0.1916
  143MOL0     C19190   5.953   6.572   3.861 -0.2001 -0.1307  1.2879
  143MOL0     C19191   6.102   6.539   3.894 -0.0453 -0.7989  0.2970
  143MOL0     C19192   6.133   6.402   3.961  0.1860  0.3912 -0.0514
  143MOL0     C19193   6.055   6.382   4.089  0.7130  0.4796 -0.5039
  143MOL0     O19194   6.105   6.475   4.187  0.1723  0.1177 -0.4435
  143MOL0     C19195   6.188   6.432   4.286 -0.3032  0.6187  1.0323
  143MOL0     C19196   6.145   6.346   4.389 -0.1711  0.4377  0.2896
  143MOL0     C19197   6.247   6.304   4.481  0.0855 -0.4255  0.8096
  143MOL0     C19198   6.211   6.203   4.579  0.9841 -0.0619 -0.0227
  143MOL0     C19199   6.383   6.347   4.462  0.0725 -0.0532 -0.2973
  143MOL0     C19200   6.503   6.304   4.548  0.1775 -0.1766 -0.7110
  143MOL0     O19201   6.626   6.295   4.502 -0.5900  0.6075  0.1774
  143MOL0     C19202   6.737   6.285   4.581  0.7126  1.1134 -0.3844
  143MOL0     C19203   6.760   6.161   4.650  0.8384 -0.5169  0.1083
  143MOL0     C19204   6.870   6.161   4.737  0.5627  0.9290 -0.6840
  143MOL0     C19205   6.965   6.263   4.744 -0.2059 -0.0086 -0.1020
  143MOL0     O19206   7.070   6.289   4.824 -0.0215  0.0558 -0.6318
  143MOL0     C19207   7.130   6.185   4.898 -0.7023  0.3669 -0.1945
  143MOL0     C19208   7.216   6.092   4.814  0.1209 -0.5712  0.3770
  143MOL0     C19209   7.314   6.011   4.900  0.5533  0.8327  0.0556
  143MOL0     C19210   7.464   5.995   4.858  0.7240  0.8837  1.1852
  143MOL0     C19211   7.540   5.894   4.950 -0.1969  0.0218 -0.4049
  143MOL0     C19212   7.684   5.860   4.915 -0.0928 -0.1947  0.0751
  143MOL0     C19213   7.699   5.803   4.777  0.2925  0.3031  0.0100
  143MOL0     C19214   7.846   5.744   4.758 -0.7118  0.6461  0.4145
  143MOL0    Cl19215   7.884   5.628   4.883  0.3573  0.2008 -0.0209
  143MOL0     C19216   6.944   6.373   4.655  0.5391  0.9591  0.1436
  143MOL0     C19217   6.835   6.386   4.570 -0.6395 -0.7262 -0.2575
  143MOL0     O19218   6.467   6.292   4.664  0.3759 -0.4505  0.2639
  143MOL0     C19219   6.412   6.432   4.356 -0.0058 -0.7160 -0.3776
  143MOL0     C19220   6.316   6.480   4.275 -0.0306  0.1769  0.0943
  143MOL0     N19221   5.809   6.759   3.773  0.9786  0.0765  0.0075
  143MOL0     N19222   5.803   6.887   3.747 -0.5581 -0.5080  0.4773
  143MOL0     C19223   6.630   7.558   4.307 -0.0605 -0.0316  0.0411
  143MOL0     C19224   6.764   7.529   4.334 -0.7542 -0.3063  0.5772
  143MOL0     C19225   7.140   7.244   4.325 -0.7157  0.3751  0.6596
  143MOL0     C19226   7.201   7.121   4.330  0.4890  0.5375  1.2015
  143MOL0     C19227   7.337   7.107   4.290 -1.0110  0.6846  0.0595
  143MOL0     C19228   7.401   7.218   4.222 -1.1227 -0.7065 -0.6218
  143MOL0     O19229   7.528   7.192   4.184 -0.5464 -0.5725  0.5807
  143MOL0     C19230   7.602   7.306   4.128 -0.3584 -0.2169  0.6506
  143MOL0     C19231   7.575   7.348   3.982 -0.0963 -0.1252 -0.2833
  143MOL0     C19232   7.584   7.238   3.875 -0.4821  0.0437 -0.3419
  143MOL0     C19233   7.729   7.212   3.833  0.4549  0.1435 -0.4651
  143MOL0     C19234   7.732   7.267   3.695 -0.7771  0.1291  0.4830
  143MOL0     C19235   7.742   7.314   3.582  0.5781 -0.5051  0.6866
  143MOL0     C19236   7.334   7.338   4.210 -1.0816  0.3529  0.3999
  143MOL0     C19237   7.209   7.355   4.257 -0.8958  0.2691 -0.3126
  143MOL0     H19238   6.721   7.202   4.424  0.0055  0.8784 -1.2648
  143MOL0     H19239   6.507   7.258   4.417  1.9198 -1.2535  1.1908
  143MOL0     H19240   6.337   7.383   4.498  2.6329  0.7975  0.4949
  143MOL0     H19241   6.225   7.511   4.448 -2.9668 -1.2622 -1.2475
  143MOL0     H19242   6.298   7.263   4.259  0.2317  0.5498 -2.4181
  143MOL0     H19243   6.171   7.264   4.382 -0.2356 -4.0666 -3.6637
  143MOL0     H19244   6.038   7.428   4.272  0.6945  2.1834 -0.7540
  143MOL0     H19245   6.164   7.482   4.161  4.8461 -0.5320  0.3820
  143MOL0     H19246   6.180   7.250   4.062  0.6002  0.0106  0.2592
  143MOL0     H19247   6.070   7.190   4.184 -0.0060  3.2226  3.1952
  143MOL0     H19248   5.872   7.328   4.100  0.1700 -2.3150  1.6262
  143MOL0     H19249   5.987   7.400   3.979  3.4735 -1.2365  0.5850
  143MOL0     H19250   5.896   7.113   4.014  3.4279 -0.2520  0.8474
  143MOL0     H19251   5.832   7.233   3.886  0.4044 -1.3446 -1.9841
  143MOL0     H19252   6.089   7.250   3.821 -1.2393 -0.0215 -2.9325
  143MOL0     H19253   6.097   7.098   3.917 -2.5626 -0.6019  3.0442
  143MOL0     H19254   6.044   7.060   3.641 -1.7882  0.8526 -1.7081
  143MOL0     H19255   5.888   7.126   3.680 -1.3114 -0.1327 -0.1130
  143MOL0     H19256   6.118   6.826   3.791  0.4231  1.3691 -0.4311
  143MOL0     H19257   5.905   6.584   3.959  0.7934  2.3920  1.5399
  143MOL0     H19258   5.902   6.505   3.792  1.4212  0.7989 -0.9127
  143MOL0     H19259   6.137   6.617   3.962 -0.3610 -0.0513 -0.3789
  143MOL0     H19260   6.158   6.538   3.800  1.8884 -0.1014  1.3840
  143MOL0     H19261   6.237   6.395   3.995  0.6260 -2.0307 -1.6767
  143MOL0     H19262   6.103   6.316   3.901 -0.6373 -0.7989  1.9901
  143MOL0     H19263   6.067   6.279   4.123 -2.5018  0.0996 -0.1997
  143MOL0     H19264   5.950   6.409   4.077  0.8054 -0.1275 -3.1345
  143MOL0     H19265   6.048   6.298   4.386 -0.0711  0.3087 -1.6659
  143MOL0     H19266   6.103   6.195   4.565  0.5329  0.2091  2.7081
  143MOL0     H19267   6.258   6.106   4.563  1.2651  0.0189  0.3033
  143MOL0     H19268   6.222   6.225   4.686  3.3883 -0.9093 -0.0490
  143MOL0     H19269   6.704   6.072   4.623  1.0266 -0.6179  0.0457
  143MOL0     H19270   6.881   6.072   4.798 -2.6878  0.0040 -1.1999
  143MOL0     H19271   7.197   6.231   4.971  2.5599 -2.4235 -1.1325
  143MOL0     H19272   7.060   6.119   4.949 -0.8185  0.0408 -0.7621
  143MOL0     H19273   7.156   6.030   4.747 -2.5155 -1.9168  3.6754
  143MOL0     H19274   7.279   6.156   4.752  0.2724  0.3636  1.4553
  143MOL0     H19275   7.266   5.912   4.900  1.0828  0.5699  0.0944
  143MOL0     H19276   7.318   6.049   5.002 -2.8137  1.3828  0.1093
  143MOL0     H19277   7.464   5.966   4.752 -0.1948  1.4521  1.0122
  143MOL0     H19278   7.515   6.092   4.859  1.0780  0.6884  1.9059
  143MOL0     H19279   7.476   5.806   4.957 -0.7731 -0.1680 -5.0613
  143MOL0     H19280   7.540   5.946   5.046  0.6839 -1.6053  0.5078
  143MOL0     H19281   7.740   5.953   4.925 -0.2984 -0.2046  1.6848
  143MOL0     H19282   7.722   5.790   4.990 -0.9619  1.7456  2.4676
  143MOL0     H19283   7.688   5.880   4.701  3.1469  1.4625  0.6188
  143MOL0     H19284   7.617   5.731   4.781  0.6392 -0.0528  0.9745
  143MOL0     H19285   7.920   5.824   4.770 -0.8635  0.8723 -0.1169
  143MOL0     H19286   7.857   5.697   4.660  2.2619  2.1315 -0.0799
  143MOL0     H19287   7.024   6.445   4.640  1.9843 -0.7057 -0.3511
  143MOL0     H19288   6.817   6.463   4.496 -3.3094 -1.6692 -0.6990
  143MOL0     H19289   6.511   6.472   4.337 -0.7996  0.1647 -3.1458
  143MOL0     H19290   6.335   6.561   4.205 -4.0027  1.4484  0.2514
  143MOL0     H19291   6.609   7.653   4.259  0.0259 -0.2599 -0.4567
  143MOL0     H19292   6.830   7.607   4.299  0.9411 -1.9067  0.0116
  143MOL0     H19293   7.141   7.034   4.357 -2.6485  2.4775  1.0005
  143MOL0     H19294   7.388   7.012   4.301  0.5551  1.6097  1.2486
  143MOL0     H19295   7.594   7.399   4.184  1.4299 -1.0087  2.3181
  143MOL0     H19296   7.707   7.279   4.113 -0.4950 -0.7273  0.5934
  143MOL0     H19297   7.630   7.440   3.961 -0.7704  1.1014  2.7532
  143MOL0     H19298   7.473   7.387   3.979 -0.4636 -0.7617  2.0690
  143MOL0     H19299   7.523   7.263   3.788  3.1513 -0.7495 -3.4302
  143MOL0     H19300   7.544   7.149   3.923  1.9181  2.0472  6.6531
  143MOL0     H19301   7.751   7.107   3.812 -0.7627  0.1243 -1.7767
  143MOL0     H19302   7.800   7.250   3.907 -2.4846 -0.3798  2.8961
  143MOL0     H19303   7.737   7.352   3.482  2.2083  1.0507  1.1525
  143MOL0     H19304   7.366   7.421   4.148  2.3585  0.6887  2.3742
  143MOL0     H19305   7.161   7.452   4.250 -0.7578  0.2478 -1.9175
  144MOL0     O19306   7.291   0.085   7.281  0.1653  0.3926 -0.6751
  144MOL0     C19307   7.236  -0.020   7.312  0.5354 -0.2338  0.7409
  144MOL0     O19308   7.268  -0.094   7.429 -0.1708  0.9640 -0.2433
  144MOL0     C19309   7.332  -0.038   7.537  0.6894  0.2857  0.4187
  144MOL0     C19310   7.461   0.007   7.522  0.2650 -0.3445  0.1732
  144MOL0     C19311   7.513   0.064   7.642 -0.1903  0.1634 -0.6362
  144MOL0     C19312   7.456   0.053   7.770 -0.0331 -0.4943 -0.6988
  144MOL0     O19313   7.505   0.107   7.887  0.1954 -0.3347 -0.1816
  144MOL0     C19314   7.616   0.211   7.867 -0.1937 -0.2259 -0.0422
  144MOL0     C19315   7.633   0.276   7.997  0.8009 -0.7466  1.0215
  144MOL0     C19316   7.756   0.362   8.007 -1.0017 -0.1875  0.4803
  144MOL0     C19317   7.764   0.486   7.918 -0.7894  0.0359 -0.5010
  144MOL0     C19318   7.903   0.549   7.903 -0.8301 -0.2008  0.6692
  144MOL0     C19319   7.962   0.599   8.034 -0.0759  0.0108 -0.8694
  144MOL0     C19320   8.090   0.679   8.018  0.6622 -1.6134  0.3602
  144MOL0     C19321   8.130   0.726   8.153  0.2564 -0.9279  0.2013
  144MOL0     N19322   8.184   0.611   8.231 -0.1573 -0.1958  0.3171
  144MOL0     C19323   8.309   0.574   8.238  0.4845  0.8441 -1.0202
  144MOL0     C19324   8.312   0.485   8.341 -0.0871  0.7656  0.3176
  144MOL0     C19325   8.436   0.411   8.363  0.3945  0.6462 -1.1968
  144MOL0     C19326   8.430   0.263   8.307 -1.2013 -1.1830  0.8756
  144MOL0     C19327   8.563   0.195   8.347 -0.5183 -0.5535 -0.1166
  144MOL0     C19328   8.583   0.162   8.501 -0.1113  0.3473 -0.1214
  144MOL0     O19329   8.686   0.064   8.513  0.1805  0.8901  0.3813
  144MOL0     C19330   8.696   0.016   8.650  0.4248 -0.2150 -0.4787
  144MOL0     C19331   8.700  -0.120   8.675 -0.4183  0.9978 -0.1650
  144MOL0     C19332   8.708  -0.179   8.798 -0.0797 -0.2447  0.1628
  144MOL0     C19333   8.741  -0.326   8.807 -0.9139 -0.4175  0.1633
  144MOL0     C19334   8.708  -0.084   8.911  0.0808  0.0734 -0.0286
  144MOL0     C19335   8.717  -0.133   9.045 -0.0520 -0.7204 -0.4298
  144MOL0     O19336   8.625  -0.224   9.075 -0.1299  0.2378 -0.6748
  144MOL0     C19337   8.637  -0.294   9.186 -0.8656 -0.1938 -0.4658
  144MOL0     C19338   8.539  -0.283   9.277  0.1284  0.0649  0.4446
  144MOL0     C19339   8.538  -0.367   9.386  0.7861  2.0197 -0.8037
  144MOL0     C19340   8.636  -0.467   9.418  0.5981 -0.3953  0.1467
  144MOL0     O19341   8.664  -0.527   9.535  0.6686 -1.0003  0.2241
  144MOL0     C19342   8.570  -0.496   9.647  0.6782  0.0230  0.1593
  144MOL0     C19343   8.568  -0.571   9.774 -0.2407  0.8978  0.2689
  144MOL0     C19344   8.476  -0.492   9.869  0.6950 -0.8171 -0.1634
  144MOL0     C19345   8.477  -0.563  10.006 -0.1583 -0.2682  0.8018
  144MOL0     C19346   8.621  -0.594  10.062  0.2914 -0.2241  0.2410
  144MOL0     C19347   8.585  -0.638  10.210  0.4828 -0.0450 -0.2009
  144MOL0     C19348   8.699  -0.675  10.304  0.5038 -0.2320  0.4167
  144MOL0     C19349   8.777  -0.799  10.255  0.5045 -0.0120  0.0877
  144MOL0    Cl19350   8.698  -0.941  10.327  0.1589  0.1629 -0.2742
  144MOL0     C19351   8.742  -0.468   9.323 -0.2493  0.3928  0.2602
  144MOL0     C19352   8.745  -0.383   9.203  0.6709 -0.4386 -0.3093
  144MOL0     O19353   8.797  -0.078   9.123  0.4339 -0.3195  0.8610
  144MOL0     C19354   8.719   0.049   8.892  0.7642 -0.6346  0.2881
  144MOL0     C19355   8.704   0.099   8.764 -0.0480  1.9823 -0.5509
  144MOL0     N19356   8.191   0.453   8.393 -0.4236 -1.1232 -0.8197
  144MOL0     N19357   8.112   0.542   8.329  0.0493 -0.5151 -0.9757
  144MOL0     C19358   7.337  -0.026   7.777  0.5022 -0.3553 -0.2795
  144MOL0     C19359   7.274  -0.063   7.662  0.2206  0.2534  1.2532
  144MOL0     C19360   7.129  -0.073   7.223  0.0387  0.1237  0.4755
  144MOL0     C19361   7.077  -0.206   7.227 -0.7085 -0.4862  0.0081
  144MOL0     C19362   6.973  -0.257   7.147  0.1029 -0.8655  0.0736
  144MOL0     C19363   6.924  -0.179   7.043 -0.3424 -0.8930  0.1086
  144MOL0     O19364   6.832  -0.231   6.944 -0.9589  0.0652 -0.7867
  144MOL0     C19365   6.889  -0.228   6.812  0.0977 -0.0731  1.1199
  144MOL0     C19366   6.910  -0.367   6.768  0.1557 -0.0470  0.4912
  144MOL0     C19367   6.780  -0.441   6.759 -0.1902  0.0108  0.0413
  144MOL0     C19368   6.697  -0.407   6.631 -0.9610 -0.7893  0.1265
  144MOL0     C19369   6.573  -0.481   6.616  0.1550  0.3735  0.3711
  144MOL0     C19370   6.489  -0.559   6.604  0.6043  0.7216 -0.3743
  144MOL0     C19371   6.976  -0.046   7.035  0.0613  0.9828  0.6008
  144MOL0     C19372   7.069   0.002   7.121  0.4867  0.4914  0.1029
  144MOL0     H19373   7.515   0.010   7.428 -0.7276  2.7751 -0.4157
  144MOL0     H19374   7.598   0.128   7.622 -0.2803  1.0906  1.6271
  144MOL0     H19375   7.709   0.166   7.833  0.5218  0.6509  0.7086
  144MOL0     H19376   7.592   0.294   7.800  3.5863  1.6820  0.7335
  144MOL0     H19377   7.537   0.329   8.006 -1.2479 -4.0455  0.2494
  144MOL0     H19378   7.629   0.201   8.076  1.3539 -1.2989  0.5334
  144MOL0     H19379   7.778   0.382   8.112 -0.4979  0.7690  0.1988
  144MOL0     H19380   7.834   0.289   7.980 -0.6703  0.7306 -1.1188
  144MOL0     H19381   7.724   0.451   7.822  2.1004 -1.5747 -1.2288
  144MOL0     H19382   7.694   0.561   7.956  2.1149  0.9969  3.6060
  144MOL0     H19383   7.986   0.493   7.859  0.1600 -0.8675  3.2001
  144MOL0     H19384   7.884   0.643   7.851 -0.0998 -1.2803 -1.6915
  144MOL0     H19385   7.880   0.663   8.068 -0.2890  1.4749 -3.8445
  144MOL0     H19386   7.970   0.508   8.095  0.2439 -1.1158 -2.5273
  144MOL0     H19387   8.165   0.623   7.963  1.9364 -0.5843  1.0054
  144MOL0     H19388   8.072   0.766   7.955  0.5186 -1.8140  0.1201
  144MOL0     H19389   8.042   0.772   8.199  0.0202  0.5181 -1.5760
  144MOL0     H19390   8.207   0.802   8.169  0.0838 -1.3837  4.3462
  144MOL0     H19391   8.393   0.598   8.174  0.5867  0.7697 -0.9149
  144MOL0     H19392   8.518   0.464   8.313  1.3481  0.5168  0.1741
  144MOL0     H19393   8.456   0.417   8.470  0.1699 -1.6392 -0.9824
  144MOL0     H19394   8.426   0.261   8.198 -1.3687 -1.6432  0.8899
  144MOL0     H19395   8.345   0.203   8.341 -2.8280 -1.6487 -3.4626
  144MOL0     H19396   8.650   0.257   8.321  0.9917 -2.5555 -0.0491
  144MOL0     H19397   8.569   0.098   8.298 -2.7281 -0.8776  0.1527
  144MOL0     H19398   8.494   0.118   8.547  1.5872 -2.5763  0.6410
  144MOL0     H19399   8.611   0.250   8.559 -1.1473  0.0095  0.9311
  144MOL0     H19400   8.707  -0.176   8.582 -0.3814 -0.7659  0.8586
  144MOL0     H19401   8.651  -0.379   8.774 -0.9441 -0.1148 -0.2627
  144MOL0     H19402   8.826  -0.352   8.743  0.6328  2.8528  0.6433
  144MOL0     H19403   8.768  -0.354   8.909  1.4621 -1.0439 -0.5641
  144MOL0     H19404   8.464  -0.207   9.260  1.3752  1.9129  2.6540
  144MOL0     H19405   8.445  -0.358   9.442 -0.7503  0.8057 -3.0160
  144MOL0     H19406   8.599  -0.393   9.671 -2.0825  0.6411  1.1367
  144MOL0     H19407   8.466  -0.500   9.615  1.1328 -0.9360 -1.3113
  144MOL0     H19408   8.529  -0.672   9.758 -2.4916  1.4535  1.8343
  144MOL0     H19409   8.670  -0.591   9.809 -0.1924  3.3328  1.7191
  144MOL0     H19410   8.373  -0.492   9.832  1.3080 -1.9586 -2.0698
  144MOL0     H19411   8.521  -0.394   9.888  0.8851 -1.0228  0.4601
  144MOL0     H19412   8.412  -0.522  10.084  0.8510 -2.6047  3.0385
  144MOL0     H19413   8.431  -0.660   9.984  1.1596 -1.1144  1.6023
  144MOL0     H19414   8.679  -0.502  10.076 -0.8241  1.5320 -4.6780
  144MOL0     H19415   8.674  -0.675  10.011  0.7492  0.8574 -1.0703
  144MOL0     H19416   8.534  -0.556  10.261 -0.6776 -0.1520 -1.1227
  144MOL0     H19417   8.519  -0.724  10.195 -1.1737  1.2592 -0.6978
  144MOL0     H19418   8.658  -0.691  10.404 -2.8304 -2.7610 -1.1386
  144MOL0     H19419   8.760  -0.586  10.320  0.8216 -0.4637  0.5221
  144MOL0     H19420   8.876  -0.783  10.298 -0.1512  3.5856  0.5963
  144MOL0     H19421   8.783  -0.801  10.145  1.7301 -0.6591  0.1527
  144MOL0     H19422   8.833  -0.524   9.338 -0.4474 -2.1009 -5.4364
  144MOL0     H19423   8.828  -0.396   9.135  1.2859 -0.2228  0.3920
  144MOL0     H19424   8.739   0.113   8.978 -0.8816 -0.2827  0.4467
  144MOL0     H19425   8.690   0.202   8.732 -3.8984  1.1780 -2.0515
  144MOL0     H19426   7.313  -0.061   7.877  2.8630  0.5659  0.6781
  144MOL0     H19427   7.176  -0.110   7.665 -0.0532  0.5801 -1.1903
  144MOL0     H19428   7.106  -0.287   7.294 -0.0129  0.5871  1.0334
  144MOL0     H19429   6.935  -0.357   7.161 -0.4991 -0.6140  0.2747
  144MOL0     H19430   6.827  -0.163   6.749  0.8615  0.5291  0.9833
  144MOL0     H19431   6.990  -0.186   6.811 -0.4650  1.4220 -1.0999
  144MOL0     H19432   6.982  -0.416   6.834 -0.1073  1.4516  1.9539
  144MOL0     H19433   6.950  -0.364   6.666 -0.8438 -1.8673  0.0028
  144MOL0     H19434   6.721  -0.413   6.847  1.6712  1.3602  0.9288
  144MOL0     H19435   6.789  -0.549   6.776 -2.7728 -0.1358  1.0744
  144MOL0     H19436   6.764  -0.426   6.546 -0.4084 -0.2127  0.4157
  144MOL0     H19437   6.673  -0.300   6.637 -2.1397 -0.9677 -0.9622
  144MOL0     H19438   6.417  -0.638   6.610  0.2301  1.1819  3.7232
  144MOL0     H19439   6.931   0.023   6.965  0.1960  1.3763  0.9021
  144MOL0     H19440   7.083   0.110   7.118 -3.1054  1.0502 -0.7505
  145MOL0     O19441   5.576   5.006  11.079  0.4610 -0.0118  0.0815
  145MOL0     C19442   5.541   5.108  11.022  0.0321 -0.1661  0.1264
  145MOL0     O19443   5.577   5.228  11.056  0.1564  0.2367 -0.6905
  145MOL0     C19444   5.659   5.246  11.164  0.6673  0.5163 -0.2506
  145MOL0     C19445   5.788   5.287  11.157 -0.4044 -0.0042  1.5499
  145MOL0     C19446   5.872   5.269  11.266 -0.4817  1.2042 -0.1113
  145MOL0     C19447   5.826   5.221  11.391 -0.0859 -0.0263 -0.0020
  145MOL0     O19448   5.923   5.210  11.492  0.7419 -0.1633 -0.2331
  145MOL0     C19449   5.891   5.153  11.622  0.5041 -0.2399 -1.0014
  145MOL0     C19450   5.826   5.257  11.714 -0.3426  0.6074  0.5304
  145MOL0     C19451   5.925   5.371  11.734  0.9918 -0.4578  0.5513
  145MOL0     C19452   5.880   5.443  11.863  0.3157 -0.3409 -0.2389
  145MOL0     C19453   5.978   5.545  11.897 -0.3412 -0.4539 -0.3000
  145MOL0     C19454   5.938   5.628  12.018  0.9519  0.4147 -0.1539
  145MOL0     C19455   6.054   5.711  12.059  0.8559  0.5724  0.3988
  145MOL0     C19456   6.013   5.810  12.177  0.1106  0.5258  0.4889
  145MOL0     N19457   6.077   5.939  12.141  0.4291  0.3905  0.2618
  145MOL0     C19458   6.210   5.967  12.141  0.0941 -0.5537 -0.1962
  145MOL0     C19459   6.211   6.100  12.098 -0.0575  0.1939 -0.5635
  145MOL0     C19460   6.333   6.195  12.077  0.1399 -1.2186 -0.8917
  145MOL0     C19461   6.455   6.129  12.010 -0.5333 -0.0008 -0.8009
  145MOL0     C19462   6.546   6.233  11.946 -0.6952  0.0914  0.8890
  145MOL0     C19463   6.701   6.197  11.934 -0.3009  0.0680  1.4339
  145MOL0     O19464   6.740   6.097  11.830  0.2925  0.3251  0.5030
  145MOL0     C19465   6.766   6.160  11.713 -0.4589 -0.0269  0.7358
  145MOL0     C19466   6.663   6.205  11.626  0.4465  0.6729 -0.0613
  145MOL0     C19467   6.689   6.294  11.515 -0.8089  0.1031  0.2779
  145MOL0     C19468   6.575   6.346  11.440  1.1396 -0.3317  0.4700
  145MOL0     C19469   6.828   6.337  11.497 -0.1093 -0.0158  1.2777
  145MOL0     C19470   6.873   6.425  11.390  1.2192 -0.2680  0.4960
  145MOL0     O19471   6.783   6.519  11.342 -0.1825  0.4048 -0.0251
  145MOL0     C19472   6.804   6.608  11.237  0.0574 -0.1616  0.7152
  145MOL0     C19473   6.926   6.667  11.199  0.3344 -0.3651 -0.3896
  145MOL0     C19474   6.929   6.765  11.092 -0.7651 -0.0753  0.1318
  145MOL0     C19475   6.809   6.811  11.035  0.6621 -1.1251 -0.5888
  145MOL0     O19476   6.797   6.924  10.956 -0.0871  0.2484 -0.4231
  145MOL0     C19477   6.921   6.988  10.917  0.1208  0.4468 -1.0371
  145MOL0     C19478   6.911   7.123  10.841 -0.1306  0.2670  0.3433
  145MOL0     C19479   6.910   7.087  10.690 -0.2629 -0.7392  0.5470
  145MOL0     C19480   7.058   7.081  10.656  0.3816  0.0062  0.4813
  145MOL0     C19481   7.087   7.081  10.507  0.7050  0.7166  0.7778
  145MOL0     C19482   7.230   7.096  10.454  0.4149 -0.6446  0.2577
  145MOL0     C19483   7.330   7.013  10.532 -0.4755 -0.7812 -0.7384
  145MOL0     C19484   7.470   7.023  10.471 -0.5131  0.0130  0.3269
  145MOL0    Cl19485   7.520   7.187  10.429 -0.4249  0.2940 -0.4800
  145MOL0     C19486   6.689   6.756  11.070 -0.2078  0.5244 -0.4350
  145MOL0     C19487   6.692   6.652  11.166  0.2581  0.5438  0.0204
  145MOL0     O19488   6.990   6.407  11.355  0.0446 -0.6750 -1.0911
  145MOL0     C19489   6.931   6.282  11.575  1.2277 -0.0079 -0.0915
  145MOL0     C19490   6.903   6.190  11.671 -0.3839 -1.0305 -0.5509
  145MOL0     N19491   6.077   6.143  12.093  0.9432 -0.6292 -0.0114
  145MOL0     N19492   6.002   6.049  12.101 -0.1403  0.1368  0.8777
  145MOL0     C19493   5.691   5.177  11.398 -0.5401 -0.1886 -0.0978
  145MOL0     C19494   5.613   5.201  11.293  0.1290  0.6795  0.9322
  145MOL0     C19495   5.462   5.090  10.895  0.2310 -0.4700 -0.1452
  145MOL0     C19496   5.411   4.974  10.853 -0.0970  0.8016 -0.6364
  145MOL0     C19497   5.330   4.960  10.746 -0.5316  0.1649 -0.4037
  145MOL0     C19498   5.314   5.065  10.653 -1.1315  0.6576 -0.4111
  145MOL0     O19499   5.241   5.034  10.542 -0.3176 -0.4104  0.0062
  145MOL0     C19500   5.252   5.126  10.431 -0.1412  0.3590 -0.9443
  145MOL0     C19501   5.157   5.086  10.322 -0.2177 -0.4248  1.1487
  145MOL0     C19502   5.167   4.941  10.298 -0.7607  0.6927  0.6162
  145MOL0     C19503   5.084   4.900  10.172  0.1260 -0.1412  0.4729
  145MOL0     C19504   5.140   4.774  10.127 -0.8124 -0.3058  0.9710
  145MOL0     C19505   5.183   4.665  10.085  0.5814 -0.1050 -0.3235
  145MOL0     C19506   5.388   5.172  10.683  0.3419 -0.0133  0.3734
  145MOL0     C19507   5.452   5.197  10.805 -0.8498  1.2043 -0.6130
  145MOL0     H19508   5.823   5.326  11.062 -1.2957 -0.0983  1.1773
  145MOL0     H19509   5.974   5.301  11.246 -1.0114  1.7495 -2.1188
  145MOL0     H19510   5.822   5.068  11.617  0.7781 -0.6147  1.0039
  145MOL0     H19511   5.983   5.115  11.665 -0.9785 -2.4773  0.3827
  145MOL0     H19512   5.733   5.298  11.674  0.3817 -1.0388 -3.3327
  145MOL0     H19513   5.799   5.200  11.803  2.7240 -2.2608 -0.1544
  145MOL0     H19514   6.025   5.337  11.760  0.2377 -2.2413  1.3258
  145MOL0     H19515   5.930   5.439  11.649 -2.3514 -1.2374 -0.4071
  145MOL0     H19516   5.779   5.487  11.863 -0.0913 -0.6959  4.9633
  145MOL0     H19517   5.878   5.365  11.939  1.4659 -0.6083 -0.4681
  145MOL0     H19518   6.073   5.504  11.932 -0.8059 -1.0062  0.3496
  145MOL0     H19519   5.997   5.607  11.809 -2.2704 -0.7514 -0.9809
  145MOL0     H19520   5.854   5.692  11.989 -2.1946 -3.2537 -0.0303
  145MOL0     H19521   5.897   5.565  12.098 -1.0698  3.5603  1.4735
  145MOL0     H19522   6.136   5.640  12.079  0.5760 -0.7442 -2.6453
  145MOL0     H19523   6.096   5.759  11.970  1.6057 -2.2612 -0.9050
  145MOL0     H19524   6.034   5.769  12.276 -1.8952 -2.2723 -0.1163
  145MOL0     H19525   5.904   5.809  12.178  0.0832 -1.1754  0.0995
  145MOL0     H19526   6.295   5.900  12.151 -1.3531 -2.7288 -1.4769
  145MOL0     H19527   6.293   6.278  12.018 -1.1452 -3.2907 -3.1006
  145MOL0     H19528   6.368   6.234  12.173  0.3960 -1.4390 -0.8939
  145MOL0     H19529   6.418   6.062  11.932  0.4821 -1.8689  0.2467
  145MOL0     H19530   6.508   6.068  12.084 -2.4179 -2.1055 -1.0706
  145MOL0     H19531   6.530   6.332  11.989 -1.7922  0.9176 -1.2510
  145MOL0     H19532   6.517   6.245  11.841  1.3149  3.1915  0.5563
  145MOL0     H19533   6.743   6.161  12.028  0.7684 -0.0236  0.9310
  145MOL0     H19534   6.765   6.281  11.907  1.4835 -0.8378  2.6625
  145MOL0     H19535   6.571   6.147  11.632  0.3340  0.4926 -2.5829
  145MOL0     H19536   6.588   6.301  11.341 -0.7196  0.0293  0.0189
  145MOL0     H19537   6.481   6.318  11.490  0.0709  4.0778  1.4412
  145MOL0     H19538   6.563   6.455  11.435 -2.1415 -0.4421  2.5142
  145MOL0     H19539   7.020   6.643  11.249  1.5020  2.9231 -0.7540
  145MOL0     H19540   7.022   6.815  11.064 -0.2488 -2.7674 -3.7682
  145MOL0     H19541   6.979   7.010  11.007 -0.8852  0.6157 -0.4156
  145MOL0     H19542   6.995   6.924  10.869 -0.7055 -0.5043 -1.0654
  145MOL0     H19543   6.825   7.181  10.875  1.3053  2.3027  0.6862
  145MOL0     H19544   6.988   7.198  10.863 -2.8993  3.4491  0.0236
  145MOL0     H19545   6.857   7.164  10.634  0.0749  0.4599  1.8461
  145MOL0     H19546   6.869   6.986  10.676 -1.0894 -0.4821  1.0246
  145MOL0     H19547   7.122   7.161  10.696  1.6141  0.2725 -1.8316
  145MOL0     H19548   7.090   6.986  10.699  2.3005  0.2532 -0.2664
  145MOL0     H19549   7.020   7.152  10.457 -2.3255 -2.0629  0.5737
  145MOL0     H19550   7.065   6.977  10.479  5.8111 -1.5821  3.8566
  145MOL0     H19551   7.243   7.092  10.346 -1.0423 -0.2224  0.0463
  145MOL0     H19552   7.255   7.200  10.478  1.2880 -1.0472  1.1832
  145MOL0     H19553   7.295   6.910  10.545  0.8025 -1.0173  1.4522
  145MOL0     H19554   7.338   7.057  10.632  0.0159 -0.1970 -1.0318
  145MOL0     H19555   7.482   6.956  10.386 -0.8022  0.7693 -0.3248
  145MOL0     H19556   7.543   6.985  10.543  1.8208  2.9249 -0.2794
  145MOL0     H19557   6.593   6.784  11.026 -1.8349  2.0072  3.5319
  145MOL0     H19558   6.596   6.603  11.179  0.7736 -0.8300 -0.9937
  145MOL0     H19559   7.034   6.315  11.575  0.4523  2.6589 -0.6152
  145MOL0     H19560   6.981   6.175  11.745 -0.0416 -0.7439 -0.8514
  145MOL0     H19561   5.652   5.125  11.485 -4.6010  0.5205 -1.2616
  145MOL0     H19562   5.513   5.159  11.294 -0.7871  2.6012 -1.0681
  145MOL0     H19563   5.427   4.884  10.913 -1.9115  3.3638  4.2278
  145MOL0     H19564   5.267   4.874  10.725 -2.8530  1.7978 -0.5263
  145MOL0     H19565   5.232   5.227  10.471  2.5572  1.1559 -1.4365
  145MOL0     H19566   5.355   5.134  10.395 -0.2828  2.4415 -1.0281
  145MOL0     H19567   5.180   5.138  10.228  2.1413 -2.5349  0.4466
  145MOL0     H19568   5.053   5.100  10.353 -0.2962 -0.3963  0.8770
  145MOL0     H19569   5.127   4.894  10.389  2.9284 -2.9808  0.6426
  145MOL0     H19570   5.274   4.923  10.289 -0.7701  1.0596 -0.2953
  145MOL0     H19571   5.082   4.972  10.089 -4.2606 -0.9478 -0.3949
  145MOL0     H19572   4.977   4.890  10.188  0.3230 -2.2292  0.8408
  145MOL0     H19573   5.209   4.567  10.050 -0.3979  0.9331 -4.5428
  145MOL0     H19574   5.402   5.252  10.611  0.0684 -1.8351 -1.8145
  145MOL0     H19575   5.499   5.292  10.826  5.8252 -2.1904  2.6088
  146MOL0     O19576   3.413   4.613   9.050  0.5195 -0.4926 -0.2013
  146MOL0     C19577   3.321   4.684   9.016 -0.0720 -0.2932 -0.3735
  146MOL0     O19578   3.206   4.722   9.091  0.0052  0.0487  0.0018
  146MOL0     C19579   3.179   4.657   9.206 -0.5564 -0.9582 -0.5664
  146MOL0     C19580   3.200   4.736   9.321 -0.1343 -0.2149 -1.0396
  146MOL0     C19581   3.157   4.689   9.451  0.4230  0.2043  0.5096
  146MOL0     C19582   3.110   4.555   9.461 -0.5707  0.6506  0.3172
  146MOL0     O19583   3.099   4.508   9.587 -0.7443 -0.8020  0.3230
  146MOL0     C19584   3.168   4.380   9.619 -0.3807 -0.6549  0.3952
  146MOL0     C19585   3.138   4.353   9.763 -0.2454 -0.6543  0.2861
  146MOL0     C19586   2.982   4.355   9.782  0.2889 -0.6359 -0.3274
  146MOL0     C19587   2.919   4.218   9.761 -0.3297 -0.0388 -0.1954
  146MOL0     C19588   2.759   4.217   9.755 -0.4020  0.1259  0.0708
  146MOL0     C19589   2.696   4.245   9.895  0.2655 -0.1952 -0.1115
  146MOL0     C19590   2.723   4.138  10.002  0.2551 -0.2906 -0.1903
  146MOL0     C19591   2.703   3.991   9.960 -0.0635  0.1251 -0.7914
  146MOL0     N19592   2.565   3.953   9.925 -0.0798  0.2619  0.2912
  146MOL0     C19593   2.476   3.912  10.013  0.1206  0.2843  0.1571
  146MOL0     C19594   2.348   3.946   9.957  0.2229  0.3460  0.1193
  146MOL0     C19595   2.214   3.928  10.019  0.2760  0.3360  0.2126
  146MOL0     C19596   2.143   3.795   9.979  0.0548  0.3570  0.4796
  146MOL0     C19597   2.235   3.678  10.001  0.7500  0.0774  0.2751
  146MOL0     C19598   2.150   3.550  10.008  0.3578 -0.0389  1.0280
  146MOL0     O19599   2.244   3.445  10.029  0.6228 -0.2751  0.0770
  146MOL0     C19600   2.222   3.320   9.977  0.6926 -0.0858  1.0872
  146MOL0     C19601   2.320   3.253   9.906 -0.6486  0.8281 -0.1445
  146MOL0     C19602   2.295   3.128   9.841 -1.3299 -0.2157  0.1858
  146MOL0     C19603   2.410   3.076   9.765  0.8593  0.3407  0.7592
  146MOL0     C19604   2.174   3.074   9.841  0.8508  0.2970  0.8207
  146MOL0     C19605   2.127   2.942   9.791 -0.0561 -0.7659  0.1275
  146MOL0     O19606   2.019   2.883   9.845 -0.0210 -0.6924 -0.7557
  146MOL0     C19607   2.009   2.746   9.854  0.3151 -0.8185 -0.8584
  146MOL0     C19608   1.908   2.677   9.790 -0.2248 -0.7116 -0.4170
  146MOL0     C19609   1.885   2.544   9.811  0.3769  0.5663 -0.0998
  146MOL0     C19610   1.961   2.482   9.909  1.0622 -0.4790 -0.3226
  146MOL0     O19611   1.933   2.351   9.937 -0.0407  0.2511  0.4917
  146MOL0     C19612   1.916   2.314  10.080 -0.3130  0.1379 -0.2535
  146MOL0     C19613   1.771   2.277  10.110  0.1317  0.1292 -0.3053
  146MOL0     C19614   1.671   2.373  10.051 -1.5352 -0.2681  1.3657
  146MOL0     C19615   1.531   2.342  10.099  0.1785 -0.3913  0.1142
  146MOL0     C19616   1.422   2.437  10.039 -0.2389  0.6923 -0.2197
  146MOL0     C19617   1.291   2.438  10.116 -1.1289 -0.2046 -0.0285
  146MOL0     C19618   1.250   2.296  10.164 -0.6907  0.4368 -0.6350
  146MOL0     C19619   1.093   2.292  10.188 -0.0314  0.2161 -0.2467
  146MOL0    Cl19620   1.033   2.128  10.233  0.6180 -0.2268  0.0145
  146MOL0     C19621   2.064   2.558   9.973  0.3992 -0.0940  0.0840
  146MOL0     C19622   2.091   2.687   9.944  0.3277 -0.9715  0.8347
  146MOL0     O19623   2.190   2.899   9.696  0.3213 -0.2853 -0.2066
  146MOL0     C19624   2.071   3.148   9.909  0.6272 -0.4665  0.6194
  146MOL0     C19625   2.098   3.262   9.978  0.1573  0.2389 -0.7378
  146MOL0     N19626   2.370   3.999   9.836  0.6866  0.2010  0.2143
  146MOL0     N19627   2.497   4.005   9.808  0.8945 -0.7550 -0.1582
  146MOL0     C19628   3.125   4.473   9.343  0.4495 -0.1528 -0.3635
  146MOL0     C19629   3.138   4.527   9.219 -0.9557 -0.6273 -0.3727
  146MOL0     C19630   3.330   4.757   8.884  0.5829  0.5702  0.6796
  146MOL0     C19631   3.380   4.687   8.781 -0.8381 -0.2888  0.6819
  146MOL0     C19632   3.375   4.737   8.648 -0.9973 -0.1296 -0.0829
  146MOL0     C19633   3.315   4.856   8.627  0.0384 -0.4312 -0.7081
  146MOL0     O19634   3.319   4.895   8.497  0.0619  0.0808 -0.0723
  146MOL0     C19635   3.274   5.029   8.463 -0.0858  0.5367 -0.0331
  146MOL0     C19636   3.347   5.074   8.339  0.0944 -0.4261 -0.6761
  146MOL0     C19637   3.283   5.199   8.293  0.6921  0.4401 -0.5309
  146MOL0     C19638   3.338   5.270   8.176  0.7084 -0.2208  0.5617
  146MOL0     C19639   3.479   5.297   8.173 -0.8563  0.4291  0.5930
  146MOL0     C19640   3.595   5.308   8.189 -0.9714  0.0623  0.4283
  146MOL0     C19641   3.255   4.918   8.732 -0.5706 -0.0503 -0.2533
  146MOL0     C19642   3.259   4.875   8.862 -0.1087 -0.3947 -0.1535
  146MOL0     H19643   3.236   4.837   9.302 -0.2418  0.0418  0.0253
  146MOL0     H19644   3.169   4.764   9.529  1.5444 -0.6906  1.2216
  146MOL0     H19645   3.122   4.304   9.555 -0.3590  0.8603 -1.5308
  146MOL0     H19646   3.273   4.390   9.590  0.1896 -0.0320  2.4758
  146MOL0     H19647   3.190   4.264   9.799 -1.3372 -1.4785 -0.1291
  146MOL0     H19648   3.181   4.434   9.823 -1.2079 -0.6309  0.9761
  146MOL0     H19649   2.947   4.392   9.879 -3.8815 -0.8202 -1.6041
  146MOL0     H19650   2.932   4.428   9.719  1.5766  0.9447  0.4081
  146MOL0     H19651   2.957   4.187   9.664  2.4912  1.5520  0.3062
  146MOL0     H19652   2.944   4.145   9.837 -1.7975  1.2661  1.6530
  146MOL0     H19653   2.734   4.290   9.678  0.7070  1.0528  0.5600
  146MOL0     H19654   2.731   4.115   9.727  0.9791 -0.1863 -0.2775
  146MOL0     H19655   2.720   4.341   9.941 -2.6060  0.6875 -0.2928
  146MOL0     H19656   2.587   4.254   9.894  0.3814  1.4955 -1.3610
  146MOL0     H19657   2.827   4.155  10.030  0.4270 -2.1373  0.4037
  146MOL0     H19658   2.682   4.162  10.101  0.2751 -1.7096  0.1825
  146MOL0     H19659   2.731   3.931  10.047  4.2051  1.1611 -1.2477
  146MOL0     H19660   2.768   3.971   9.875  2.0663  2.4743  0.1607
  146MOL0     H19661   2.476   3.889  10.119  1.6177 -1.3793 -0.1614
  146MOL0     H19662   2.224   3.925  10.127  0.1135  3.2746  0.3968
  146MOL0     H19663   2.157   4.012   9.977  0.0739 -1.8419 -4.5680
  146MOL0     H19664   2.115   3.791   9.873  1.2005 -0.6630  0.2002
  146MOL0     H19665   2.053   3.783  10.041 -2.9650  1.5127 -3.2583
  146MOL0     H19666   2.286   3.681  10.098  0.1526 -0.7875  0.6312
  146MOL0     H19667   2.297   3.674   9.912  2.5660  1.3328  1.4090
  146MOL0     H19668   2.102   3.542   9.910  2.7136  0.7251 -0.2672
  146MOL0     H19669   2.078   3.560  10.090  0.4285  3.7344  0.8022
  146MOL0     H19670   2.420   3.293   9.905 -1.3278  2.6721 -1.5629
  146MOL0     H19671   2.472   3.030   9.843 -0.6578  2.0475  3.0978
  146MOL0     H19672   2.381   3.000   9.692 -2.8361 -0.4883  2.8267
  146MOL0     H19673   2.472   3.151   9.715 -1.7195  1.4875 -0.8767
  146MOL0     H19674   1.851   2.728   9.713  1.6123 -1.0126 -2.0615
  146MOL0     H19675   1.799   2.488   9.778  0.9999 -0.6141  0.2302
  146MOL0     H19676   1.971   2.220  10.091 -0.4929 -0.2082 -2.0623
  146MOL0     H19677   1.959   2.383  10.155 -0.7824 -1.4723  1.5823
  146MOL0     H19678   1.739   2.174  10.090  0.4026  0.4129 -2.4570
  146MOL0     H19679   1.766   2.308  10.215 -0.8887  2.7189 -1.0476
  146MOL0     H19680   1.669   2.371   9.941 -3.5569  0.3951  1.3540
  146MOL0     H19681   1.696   2.478  10.065  1.1953 -0.6159 -0.0798
  146MOL0     H19682   1.488   2.245  10.074 -4.4436  0.4674  3.2941
  146MOL0     H19683   1.530   2.343  10.209  1.9968  1.5317  0.1788
  146MOL0     H19684   1.411   2.407   9.935  0.9212 -0.1219 -0.1301
  146MOL0     H19685   1.461   2.539  10.044 -0.0253  0.8422 -3.3656
  146MOL0     H19686   1.301   2.483  10.215  0.5688 -2.4153  0.8874
  146MOL0     H19687   1.221   2.483  10.044 -0.5912 -0.9231 -1.0372
  146MOL0     H19688   1.311   2.259  10.246  0.8852 -0.0340 -1.9691
  146MOL0     H19689   1.262   2.232  10.076 -0.3143 -0.2025 -0.1205
  146MOL0     H19690   1.028   2.313  10.103 -1.9086 -0.7006  0.8988
  146MOL0     H19691   1.069   2.367  10.264  0.4046  1.7910 -1.5951
  146MOL0     H19692   2.127   2.505  10.043  0.5240 -2.4801 -1.7247
  146MOL0     H19693   2.168   2.747   9.993 -0.7122  0.4717  0.7537
  146MOL0     H19694   1.966   3.119   9.917 -0.7769  4.0925  1.2518
  146MOL0     H19695   2.020   3.313  10.034  2.0477  0.8572  1.4391
  146MOL0     H19696   3.103   4.368   9.362 -0.2700 -0.2928 -1.8143
  146MOL0     H19697   3.118   4.472   9.127  3.5345 -3.7568  0.2071
  146MOL0     H19698   3.443   4.599   8.790 -0.1594 -0.5891 -4.2080
  146MOL0     H19699   3.420   4.690   8.561 -0.5997 -1.5821  0.8847
  146MOL0     H19700   3.166   5.038   8.448 -0.2683 -1.0521  0.1380
  146MOL0     H19701   3.300   5.091   8.549 -0.7429  0.1538  0.4513
  146MOL0     H19702   3.342   4.993   8.265 -2.5360  0.3617 -1.4709
  146MOL0     H19703   3.451   5.084   8.369 -0.5775 -0.6777  2.0161
  146MOL0     H19704   3.290   5.267   8.379  4.1087  1.2127 -1.2981
  146MOL0     H19705   3.175   5.185   8.277  0.6242  0.3656 -0.0406
  146MOL0     H19706   3.285   5.366   8.172 -1.6278 -1.1473  4.1257
  146MOL0     H19707   3.305   5.223   8.083  0.6596 -2.9032  1.8491
  146MOL0     H19708   3.699   5.300   8.214 -1.5405 -1.2022  2.6621
  146MOL0     H19709   3.197   5.009   8.722 -2.8576 -0.9580  3.2147
  146MOL0     H19710   3.214   4.919   8.950 -1.7755  1.2434 -1.7244
  147MOL0     O19711   8.212   4.351   0.928  0.0331  0.2337 -0.1254
  147MOL0     C19712   8.320   4.344   0.987  0.1065 -0.2118  0.6650
  147MOL0     O19713   8.394   4.459   1.022  0.1281  0.4703 -1.1384
  147MOL0     C19714   8.349   4.581   0.981 -0.3498 -0.3213 -0.4336
  147MOL0     C19715   8.217   4.629   1.007 -0.1946  0.5555  0.1685
  147MOL0     C19716   8.180   4.751   0.958  0.9627 -0.0140 -1.2073
  147MOL0     C19717   8.266   4.825   0.870  0.9957  0.9025  0.5022
  147MOL0     O19718   8.233   4.951   0.823  0.3180  0.1017  0.6533
  147MOL0     C19719   8.107   4.984   0.779  0.2246  0.9251 -0.2380
  147MOL0     C19720   8.049   4.891   0.668  0.3877  0.6290  0.1686
  147MOL0     C19721   8.065   4.947   0.528 -1.4288  0.3680 -0.0887
  147MOL0     C19722   7.953   4.915   0.439 -0.9002 -0.2837 -0.8357
  147MOL0     C19723   8.007   4.914   0.288 -0.2935 -0.4730  0.3590
  147MOL0     C19724   7.909   4.844   0.201  0.5579 -0.3671  0.7069
  147MOL0     C19725   7.937   4.868   0.054 -0.2531  0.2042  0.3433
  147MOL0     C19726   7.838   4.952  -0.023 -0.7002 -0.2960  0.3742
  147MOL0     N19727   7.800   5.083   0.032  0.2023 -0.2448  0.8785
  147MOL0     C19728   7.877   5.197   0.036  1.4876 -0.2660  0.1803
  147MOL0     C19729   7.802   5.290   0.092 -0.0385 -0.9964 -1.0914
  147MOL0     C19730   7.850   5.429   0.142  0.3905  0.8613 -0.5109
  147MOL0     C19731   7.971   5.426   0.229 -0.3101  1.0528 -0.9612
  147MOL0     C19732   7.958   5.344   0.359  0.7706 -0.6374 -0.3499
  147MOL0     C19733   7.869   5.420   0.455 -0.3835 -0.4591  0.8850
  147MOL0     O19734   7.862   5.358   0.586  0.4128 -0.6037  0.3251
  147MOL0     C19735   7.752   5.280   0.617 -0.2936  0.8449 -0.1177
  147MOL0     C19736   7.649   5.234   0.526  0.0791  0.1454 -0.7750
  147MOL0     C19737   7.541   5.150   0.567 -0.1624 -0.5094  0.5004
  147MOL0     C19738   7.428   5.116   0.474 -0.5392 -0.5232  0.4421
  147MOL0     C19739   7.537   5.126   0.705 -0.8506  1.6825  0.0723
  147MOL0     C19740   7.430   5.045   0.765 -0.2067  0.4296 -0.5154
  147MOL0     O19741   7.417   4.928   0.708  0.3522  0.7313  0.4160
  147MOL0     C19742   7.344   4.831   0.772 -0.0716  1.5773 -0.7186
  147MOL0     C19743   7.392   4.739   0.871  0.4971 -0.6524  0.5562
  147MOL0     C19744   7.301   4.644   0.918  0.5285  0.6815 -0.3512
  147MOL0     C19745   7.176   4.630   0.863  1.0699 -0.0057 -0.3511
  147MOL0     O19746   7.080   4.541   0.903 -0.2477  0.2268  0.1840
  147MOL0     C19747   7.126   4.404   0.879  0.8796 -0.2825  0.5161
  147MOL0     C19748   7.049   4.313   0.966 -0.2894 -0.8302 -0.2380
  147MOL0     C19749   6.912   4.280   0.903  0.0337 -0.1177 -1.3894
  147MOL0     C19750   6.854   4.162   0.985  0.4780 -0.1046  0.5794
  147MOL0     C19751   6.704   4.147   0.960  0.0047 -0.2521 -0.2451
  147MOL0     C19752   6.634   4.075   1.076  0.2644 -0.1335  0.5333
  147MOL0     C19753   6.492   4.060   1.038 -0.1463 -0.1502  0.3400
  147MOL0     C19754   6.477   3.956   0.929 -0.2321 -0.0897  0.8681
  147MOL0    Cl19755   6.543   3.802   0.973 -0.3546  0.0471  0.0737
  147MOL0     C19756   7.129   4.722   0.771 -1.8271  0.1082 -0.2049
  147MOL0     C19757   7.214   4.825   0.724 -0.9852 -0.6176 -0.1334
  147MOL0     O19758   7.371   5.088   0.859  0.6682 -0.9733  0.0902
  147MOL0     C19759   7.653   5.149   0.785  0.4318 -0.3327 -0.6572
  147MOL0     C19760   7.756   5.232   0.743  0.0069 -0.9218  0.2408
  147MOL0     N19761   7.677   5.236   0.119 -0.0285 -0.4023 -0.8363
  147MOL0     N19762   7.679   5.114   0.072  0.8052 -0.1413  0.0827
  147MOL0     C19763   8.400   4.774   0.860  0.6036 -0.2767  0.3263
  147MOL0     C19764   8.442   4.657   0.912 -0.3861  0.4837  0.9653
  147MOL0     C19765   8.392   4.203   0.992  0.2226  0.5974 -0.0163
  147MOL0     C19766   8.336   4.092   0.923 -0.1515 -0.7676 -0.4368
  147MOL0     C19767   8.396   3.969   0.948  1.1302  1.0715  0.0950
  147MOL0     C19768   8.509   3.949   1.035  0.4226  0.2213  0.5419
  147MOL0     O19769   8.575   3.825   1.067 -0.0294 -0.1190  0.0478
  147MOL0     C19770   8.562   3.719   0.977  0.4311 -0.9969  0.8040
  147MOL0     C19771   8.643   3.750   0.843  0.2118  0.3717  0.5576
  147MOL0     C19772   8.798   3.753   0.879 -0.4346 -0.9135 -0.6479
  147MOL0     C19773   8.883   3.804   0.757  0.2172  0.4958  0.8796
  147MOL0     C19774   8.882   3.697   0.644  0.2078 -0.5759 -0.9553
  147MOL0     C19775   8.849   3.602   0.567  0.0918 -0.2370 -0.2040
  147MOL0     C19776   8.566   4.058   1.092  0.0341  0.1980 -0.1176
  147MOL0     C19777   8.505   4.190   1.076 -0.0823  0.6408 -0.2459
  147MOL0     H19778   8.145   4.564   1.056  1.2139  0.9332  2.8878
  147MOL0     H19779   8.085   4.802   0.972  1.3293  0.0205  1.8941
  147MOL0     H19780   8.047   4.980   0.871 -2.1453 -1.8354 -1.7490
  147MOL0     H19781   8.111   5.084   0.734  3.9088  1.3621  0.7194
  147MOL0     H19782   8.102   4.795   0.673 -1.7446 -0.6432 -0.7058
  147MOL0     H19783   7.942   4.876   0.680 -0.4982  4.9413 -0.9632
  147MOL0     H19784   8.084   5.054   0.544  1.7456 -0.1200  0.0930
  147MOL0     H19785   8.156   4.905   0.484 -0.5477  2.4880 -0.4232
  147MOL0     H19786   7.901   4.823   0.468 -3.2639  1.8359  2.4229
  147MOL0     H19787   7.880   4.997   0.444 -1.0549 -0.4924  1.8478
  147MOL0     H19788   8.029   5.017   0.259 -1.5217  0.8633  3.6841
  147MOL0     H19789   8.096   4.850   0.284  1.8902  2.3750 -0.1453
  147MOL0     H19790   7.910   4.738   0.228 -0.7979 -0.1946  1.5429
  147MOL0     H19791   7.808   4.874   0.231  0.9534  0.8912  0.8656
  147MOL0     H19792   8.043   4.885   0.034 -0.3305 -0.6112 -0.8799
  147MOL0     H19793   7.910   4.770   0.013  0.4646  0.5452 -0.9863
  147MOL0     H19794   7.752   4.886  -0.015 -1.8699  0.9226 -1.4197
  147MOL0     H19795   7.875   4.939  -0.125 -0.2836 -1.0701  0.6183
  147MOL0     H19796   7.978   5.217   0.001  0.9646  3.2637  0.3192
  147MOL0     H19797   7.873   5.474   0.045 -2.0316 -2.4336 -2.8367
  147MOL0     H19798   7.765   5.482   0.184 -0.7605 -2.6813  2.1333
  147MOL0     H19799   8.004   5.529   0.248 -2.1480  1.3181  1.1321
  147MOL0     H19800   8.044   5.369   0.171  1.1425 -0.8144  2.4227
  147MOL0     H19801   8.051   5.330   0.415  0.4114 -1.0602  0.1561
  147MOL0     H19802   7.928   5.243   0.330  3.9315 -1.7026 -0.1828
  147MOL0     H19803   7.769   5.433   0.413 -0.6584  0.8293  1.8655
  147MOL0     H19804   7.913   5.520   0.457  3.9201 -1.6360 -5.6741
  147MOL0     H19805   7.661   5.259   0.420 -0.9319 -1.4792 -1.3038
  147MOL0     H19806   7.452   5.148   0.372 -0.1784  0.0983  0.7128
  147MOL0     H19807   7.409   5.009   0.467 -2.9087 -0.0829 -1.0405
  147MOL0     H19808   7.332   5.159   0.503 -0.9243  1.5088 -3.1905
  147MOL0     H19809   7.489   4.752   0.919  0.9713 -3.0417  0.3547
  147MOL0     H19810   7.317   4.572   0.998 -3.0849 -0.5566 -0.5441
  147MOL0     H19811   7.100   4.388   0.774 -0.8154 -1.4059  1.0780
  147MOL0     H19812   7.232   4.379   0.891  0.7755 -0.3723  1.2681
  147MOL0     H19813   7.105   4.219   0.971  2.2381  0.5329 -1.4347
  147MOL0     H19814   7.032   4.358   1.064 -2.8764  0.4203 -1.1720
  147MOL0     H19815   6.919   4.257   0.796 -0.0322  1.0919 -1.6674
  147MOL0     H19816   6.848   4.368   0.913 -0.5483 -0.5204 -1.4955
  147MOL0     H19817   6.909   4.072   0.955  3.2644  1.1471  1.6344
  147MOL0     H19818   6.869   4.203   1.085  0.5470  0.9461  0.1514
  147MOL0     H19819   6.684   4.089   0.870 -4.0982 -0.6470  0.7141
  147MOL0     H19820   6.658   4.245   0.946 -1.1742 -0.5900  1.0366
  147MOL0     H19821   6.687   3.979   1.087  0.7013  0.0185 -0.2072
  147MOL0     H19822   6.632   4.129   1.171 -3.4107  1.9168 -0.5393
  147MOL0     H19823   6.450   4.155   1.004 -1.1310  0.0120  1.9059
  147MOL0     H19824   6.435   4.028   1.126 -2.4081  1.5989 -0.3881
  147MOL0     H19825   6.532   3.979   0.838 -1.4235 -0.7885 -0.0602
  147MOL0     H19826   6.371   3.948   0.906 -0.5200 -0.1434  2.1372
  147MOL0     H19827   7.027   4.720   0.734 -2.2075 -1.4543  0.8105
  147MOL0     H19828   7.202   4.912   0.660 -1.2327  0.3246  1.1550
  147MOL0     H19829   7.653   5.127   0.891 -1.1623 -0.6609 -0.6967
  147MOL0     H19830   7.835   5.267   0.808  2.5402 -1.8580 -2.1297
  147MOL0     H19831   8.479   4.832   0.813  0.4667  2.0281  2.7251
  147MOL0     H19832   8.546   4.628   0.912  0.2792  2.6835  0.6403
  147MOL0     H19833   8.249   4.109   0.859  0.6956  0.1077 -1.3930
  147MOL0     H19834   8.335   3.896   0.895 -2.0095  2.8033  1.0708
  147MOL0     H19835   8.579   3.623   1.027 -1.0425 -1.7271 -0.0424
  147MOL0     H19836   8.456   3.703   0.956  0.2608 -5.4557  3.7400
  147MOL0     H19837   8.609   3.837   0.787 -2.5977  1.7674  4.0210
  147MOL0     H19838   8.627   3.664   0.777  4.4976 -1.1588  1.1648
  147MOL0     H19839   8.832   3.664   0.931 -0.5580  0.4174  1.8490
  147MOL0     H19840   8.812   3.830   0.956  0.5756 -1.3211 -0.4114
  147MOL0     H19841   8.985   3.825   0.788  1.0910 -3.6099  1.4270
  147MOL0     H19842   8.845   3.901   0.724  1.8880  0.3542 -1.8255
  147MOL0     H19843   8.807   3.523   0.507 -1.1737  0.3485 -0.1268
  147MOL0     H19844   8.653   4.044   1.155  0.3090  0.6716 -0.3870
  147MOL0     H19845   8.548   4.275   1.128  1.6480 -0.9109  1.0125
  148MOL0     O19846   7.769   7.733   2.888 -0.2298 -0.3110 -0.5702
  148MOL0     C19847   7.824   7.763   2.999  0.3889  0.5812 -0.5738
  148MOL0     O19848   7.806   7.690   3.115  0.0889 -0.5061 -0.3545
  148MOL0     C19849   7.758   7.564   3.106 -0.1624  0.5380 -0.0031
  148MOL0     C19850   7.642   7.527   3.023  0.1364  0.0790 -0.6878
  148MOL0     C19851   7.579   7.402   3.020  0.6568  0.0138  0.3771
  148MOL0     C19852   7.611   7.313   3.120 -0.5153 -1.1036 -1.0098
  148MOL0     O19853   7.553   7.193   3.144 -0.5882  0.7799  0.5375
  148MOL0     C19854   7.561   7.109   3.028  0.3621 -0.4161 -0.3582
  148MOL0     C19855   7.704   7.070   2.988 -0.0180 -0.0790  0.8176
  148MOL0     C19856   7.799   6.991   3.077  0.4809 -0.3014 -0.2102
  148MOL0     C19857   7.935   6.992   3.010 -1.3980  0.3144 -0.1600
  148MOL0     C19858   8.038   6.896   3.077  0.1523  0.0516  0.3407
  148MOL0     C19859   8.166   6.886   2.991 -0.9377  0.3230 -0.5485
  148MOL0     C19860   8.283   6.805   3.067  0.9788 -1.1461  0.3981
  148MOL0     C19861   8.324   6.862   3.196  0.2562  0.0260 -0.3081
  148MOL0     N19862   8.356   7.003   3.193 -0.2388 -0.2323  0.5141
  148MOL0     C19863   8.287   7.114   3.240 -0.5839  0.3605  0.8348
  148MOL0     C19864   8.350   7.221   3.199  0.4354  1.3507  1.2754
  148MOL0     C19865   8.300   7.361   3.218  0.0654  0.3798  0.1382
  148MOL0     C19866   8.234   7.420   3.088 -0.8186 -0.1025 -0.6038
  148MOL0     C19867   8.324   7.426   2.957 -0.1086 -0.9778  0.1067
  148MOL0     C19868   8.254   7.514   2.867  0.1168  0.2706 -0.2030
  148MOL0     O19869   8.150   7.429   2.800  0.2411  0.2030 -0.4093
  148MOL0     C19870   8.105   7.479   2.675 -1.4424 -0.3384 -0.4177
  148MOL0     C19871   7.974   7.523   2.667 -0.0486  1.1482  0.0640
  148MOL0     C19872   7.927   7.584   2.547 -0.6706  0.1690  0.2077
  148MOL0     C19873   7.799   7.669   2.556  0.6336  0.6645  0.5339
  148MOL0     C19874   8.004   7.576   2.431  0.0902  0.0411  0.6478
  148MOL0     C19875   7.956   7.623   2.298  0.0169  0.3474  0.8227
  148MOL0     O19876   7.829   7.601   2.259  0.2536  0.2099 -0.7106
  148MOL0     C19877   7.784   7.612   2.131  0.2151 -0.4463  0.7866
  148MOL0     C19878   7.743   7.744   2.082 -0.1307  0.1890 -0.6402
  148MOL0     C19879   7.724   7.761   1.945  0.4787 -0.0083  0.8836
  148MOL0     C19880   7.743   7.651   1.855 -0.9839  0.6424  0.3893
  148MOL0     O19881   7.739   7.658   1.715  0.6949  0.2010 -0.6267
  148MOL0     C19882   7.631   7.735   1.660 -0.4225 -0.3342 -0.2145
  148MOL0     C19883   7.587   7.663   1.534 -0.2759 -0.1968 -0.1450
  148MOL0     C19884   7.702   7.663   1.430  0.7352 -0.2794 -0.2917
  148MOL0     C19885   7.653   7.597   1.298 -0.1670  0.7190 -0.0473
  148MOL0     C19886   7.764   7.550   1.211 -0.2792  1.0698 -1.4969
  148MOL0     C19887   7.731   7.536   1.069  0.1487  0.0654  0.0858
  148MOL0     C19888   7.846   7.493   0.975  0.6666  0.6979  0.1502
  148MOL0     C19889   7.781   7.460   0.830  0.3229 -0.3495  0.0034
  148MOL0    Cl19890   7.849   7.300   0.756  0.3770 -0.4216  0.0836
  148MOL0     C19891   7.783   7.527   1.907 -0.9030  0.3206  0.5887
  148MOL0     C19892   7.795   7.504   2.036  0.2596  0.4250 -0.3091
  148MOL0     O19893   8.042   7.684   2.241 -1.3778 -0.0263 -0.7423
  148MOL0     C19894   8.136   7.521   2.443 -0.4012 -0.3829  0.6333
  148MOL0     C19895   8.184   7.464   2.562 -0.3930  0.1190 -0.2261
  148MOL0     N19896   8.460   7.177   3.123  0.1798 -0.5705 -0.4895
  148MOL0     N19897   8.456   7.056   3.123 -0.5861  0.5648 -0.2406
  148MOL0     C19898   7.726   7.346   3.202 -0.1006 -0.7919  0.3331
  148MOL0     C19899   7.794   7.472   3.196  0.3713  1.4080 -0.1466
  148MOL0     C19900   7.915   7.877   3.006  0.7306 -0.0280  0.2432
  148MOL0     C19901   7.994   7.903   3.110  0.0162 -0.7174 -0.5661
  148MOL0     C19902   8.087   8.014   3.108 -0.2556 -0.3468 -0.2617
  148MOL0     C19903   8.100   8.096   2.999  0.3693 -0.1998 -1.2353
  148MOL0     O19904   8.195   8.194   3.002  0.2573  0.1165 -0.5291
  148MOL0     C19905   8.240   8.275   2.887 -0.6799 -0.2425 -0.1322
  148MOL0     C19906   8.387   8.273   2.865 -0.2867 -0.0016 -0.1292
  148MOL0     C19907   8.445   8.126   2.891 -0.2238 -0.5971 -0.7652
  148MOL0     C19908   8.594   8.140   2.912 -0.0890 -0.5557  0.4248
  148MOL0     C19909   8.669   8.159   2.786  0.1558 -0.2108  0.2745
  148MOL0     C19910   8.717   8.170   2.673 -0.3570  0.3244 -0.1098
  148MOL0     C19911   8.015   8.072   2.891  0.8985 -0.2101  0.0247
  148MOL0     C19912   7.931   7.959   2.893  0.1355 -1.7022 -0.1321
  148MOL0     H19913   7.592   7.594   2.954  1.9035  2.2136 -0.0037
  148MOL0     H19914   7.502   7.374   2.948 -2.1612 -2.8767  4.1186
  148MOL0     H19915   7.506   7.017   3.052  0.7896 -0.6350 -0.2100
  148MOL0     H19916   7.509   7.156   2.944  2.7516  1.3068 -0.9619
  148MOL0     H19917   7.697   7.023   2.890 -2.2575  1.2234  0.2787
  148MOL0     H19918   7.751   7.163   2.954  0.7469 -1.3745 -1.9231
  148MOL0     H19919   7.824   7.028   3.177 -1.0434 -2.9024  1.2353
  148MOL0     H19920   7.769   6.888   3.098  1.9026 -0.9822 -1.3148
  148MOL0     H19921   7.921   6.964   2.905 -1.2597  2.0891 -0.6906
  148MOL0     H19922   7.974   7.094   3.006  0.6063 -0.4016  0.1143
  148MOL0     H19923   8.066   6.930   3.178 -2.9227 -0.1046  1.3590
  148MOL0     H19924   7.987   6.802   3.099 -1.2433  0.5593 -0.5854
  148MOL0     H19925   8.147   6.834   2.897 -0.7118  0.8266 -0.8705
  148MOL0     H19926   8.209   6.983   2.968  1.6285  0.3819  3.4749
  148MOL0     H19927   8.246   6.703   3.082 -0.6629 -0.5923  0.2129
  148MOL0     H19928   8.375   6.805   3.007  0.9881  2.8700  0.1957
  148MOL0     H19929   8.409   6.804   3.235 -0.4395 -0.9924 -0.2588
  148MOL0     H19930   8.240   6.853   3.265 -1.4492  1.0853 -2.1339
  148MOL0     H19931   8.201   7.107   3.305  0.3040 -3.5529  1.8450
  148MOL0     H19932   8.237   7.362   3.307  3.6015 -1.8497  2.9001
  148MOL0     H19933   8.382   7.429   3.240 -0.1403  0.8231 -0.4400
  148MOL0     H19934   8.187   7.513   3.121  2.5290  1.0583  1.4638
  148MOL0     H19935   8.146   7.355   3.076 -1.9828  0.1658  4.1876
  148MOL0     H19936   8.341   7.329   2.910 -2.2585 -2.5079  2.2275
  148MOL0     H19937   8.420   7.473   2.980  1.1076 -3.3287  0.0677
  148MOL0     H19938   8.327   7.552   2.795  1.1776  0.1372  0.7794
  148MOL0     H19939   8.216   7.605   2.915  1.8297  1.6675 -1.3961
  148MOL0     H19940   7.924   7.548   2.760  2.9512  2.8811  1.3710
  148MOL0     H19941   7.760   7.661   2.658 -3.6652  1.6245 -0.8295
  148MOL0     H19942   7.826   7.775   2.542  1.5651  0.4000  0.2691
  148MOL0     H19943   7.722   7.642   2.483 -0.5263 -1.2070  2.3370
  148MOL0     H19944   7.737   7.823   2.157 -0.8154 -1.0082  0.6225
  148MOL0     H19945   7.698   7.861   1.911  0.0007 -0.8380 -1.3086
  148MOL0     H19946   7.540   7.752   1.718 -1.4959 -4.6632 -0.2998
  148MOL0     H19947   7.666   7.835   1.634 -1.2988  0.0987  0.2225
  148MOL0     H19948   7.564   7.559   1.556 -0.2846 -1.2873 -4.4187
  148MOL0     H19949   7.495   7.706   1.493 -1.2197  0.0523  2.0581
  148MOL0     H19950   7.788   7.611   1.475  0.5953  1.6167  2.4576
  148MOL0     H19951   7.745   7.762   1.411  1.1421 -0.2789  0.5678
  148MOL0     H19952   7.593   7.512   1.333  0.8257 -0.2862 -0.7361
  148MOL0     H19953   7.589   7.674   1.255 -0.9443  0.6394  0.9123
  148MOL0     H19954   7.792   7.450   1.245 -1.2997  0.2890 -2.8483
  148MOL0     H19955   7.852   7.615   1.217  1.1754 -0.8293 -1.1130
  148MOL0     H19956   7.644   7.469   1.060 -1.3256  1.7267  1.3701
  148MOL0     H19957   7.689   7.633   1.040 -1.2525  0.7076  3.7135
  148MOL0     H19958   7.893   7.408   1.025  0.1106  2.2489  3.5395
  148MOL0     H19959   7.933   7.558   0.962  1.4745  0.7174  4.4086
  148MOL0     H19960   7.813   7.539   0.761  1.6278  0.5457  1.5752
  148MOL0     H19961   7.671   7.465   0.834  0.2232  1.5675 -2.2451
  148MOL0     H19962   7.802   7.445   1.838 -1.5615  0.1943  0.5537
  148MOL0     H19963   7.817   7.410   2.086  0.5449  0.6987  0.0833
  148MOL0     H19964   8.209   7.515   2.363  3.2516 -1.9000  3.7340
  148MOL0     H19965   8.285   7.432   2.586 -0.2262  2.2136  2.3682
  148MOL0     H19966   7.752   7.280   3.284  0.8798  1.8116  2.2260
  148MOL0     H19967   7.885   7.504   3.246  3.1578 -3.8873 -1.1029
  148MOL0     H19968   7.982   7.846   3.202  0.4599  0.5903  0.3319
  148MOL0     H19969   8.139   8.053   3.195 -1.4461  0.2226  0.2153
  148MOL0     H19970   8.192   8.241   2.794 -0.8488 -0.5790  0.0758
  148MOL0     H19971   8.210   8.380   2.888  4.8510  1.6630 -0.5358
  148MOL0     H19972   8.420   8.328   2.954  1.0976 -0.4330 -0.3553
  148MOL0     H19973   8.425   8.315   2.772  0.8921 -1.8813 -0.5354
  148MOL0     H19974   8.409   8.070   2.804 -1.7644 -1.3292  0.3123
  148MOL0     H19975   8.396   8.080   2.977  0.0007  4.7923  2.7696
  148MOL0     H19976   8.628   8.052   2.968  1.1460 -0.6307 -0.3936
  148MOL0     H19977   8.622   8.230   2.967 -2.0084 -0.7348  1.7920
  148MOL0     H19978   8.765   8.181   2.578 -1.6997 -0.0571 -0.8680
  148MOL0     H19979   8.005   8.135   2.803 -0.5198 -0.5880 -0.1211
  148MOL0     H19980   7.865   7.952   2.807  1.1317 -4.5874 -0.7802
  149MOL0     O19981   8.835  10.335   9.164 -0.0393 -0.2769 -0.3147
  149MOL0     C19982   8.780  10.437   9.197  0.3174 -0.2643 -0.7212
  149MOL0     O19983   8.691  10.445   9.304 -0.0020  0.3228 -0.3644
  149MOL0     C19984   8.656  10.333   9.381  0.4765  0.6282  0.4947
  149MOL0     C19985   8.732  10.243   9.452  0.3333  0.1336  0.3092
  149MOL0     C19986   8.679  10.144   9.534  0.2567 -0.6138 -0.2302
  149MOL0     C19987   8.539  10.135   9.540 -0.7021  0.3267 -0.4187
  149MOL0     O19988   8.473  10.063   9.638 -0.5589  1.5142  0.6477
  149MOL0     C19989   8.517   9.926   9.643  0.7427  0.5519  0.2427
  149MOL0     C19990   8.445   9.851   9.750  0.2326 -0.2560 -0.2750
  149MOL0     C19991   8.458   9.699   9.717 -0.0964 -0.2910  0.9154
  149MOL0     C19992   8.377   9.614   9.814  0.0923 -0.1009 -0.2775
  149MOL0     C19993   8.392   9.463   9.787  0.4353 -0.0573  0.1889
  149MOL0     C19994   8.314   9.389   9.901 -0.5781  0.8914 -0.5355
  149MOL0     C19995   8.368   9.245   9.921  0.2937  0.3173 -0.0533
  149MOL0     C19996   8.245   9.151   9.961  0.0316  0.1418 -0.4823
  149MOL0     N19997   8.300   9.037  10.035  0.6419  0.4149 -0.9700
  149MOL0     C19998   8.271   9.008  10.171 -0.6252 -0.4200  0.4757
  149MOL0     C19999   8.352   8.897  10.184 -0.9831 -0.7306  0.3021
  149MOL0     C20000   8.364   8.812  10.307 -0.3579 -0.3478  0.7971
  149MOL0     C20001   8.497   8.828  10.378  0.1963 -0.0943 -0.2916
  149MOL0     C20002   8.620   8.782  10.299  1.0749  0.2074  1.2406
  149MOL0     C20003   8.734   8.714  10.375  0.2089 -0.2329 -0.6829
  149MOL0     O20004   8.794   8.798  10.482  0.1650  0.6755 -0.1135
  149MOL0     C20005   8.889   8.893  10.456  0.2878  0.2182  0.1774
  149MOL0     C20006   8.949   8.961  10.564 -0.4114 -0.0842 -0.3997
  149MOL0     C20007   9.052   9.057  10.542 -0.1237  0.0728 -1.2018
  149MOL0     C20008   9.106   9.134  10.662  0.0844 -0.0529  0.1427
  149MOL0     C20009   9.109   9.079  10.420 -0.4168 -0.0914  0.3638
  149MOL0     C20010   9.217   9.171  10.384 -0.5854  1.2910  0.8997
  149MOL0     O20011   9.313   9.112  10.314 -0.2190 -0.3088 -0.0118
  149MOL0     C20012   9.408   9.194  10.273  0.7777 -1.1629 -0.2226
  149MOL0     C20013   9.385   9.267  10.151 -0.2887 -0.7924 -0.9688
  149MOL0     C20014   9.470   9.378  10.117  0.0322  0.1669  0.4047
  149MOL0     C20015   9.571   9.419  10.200 -1.0535  0.0564  0.5366
  149MOL0     O20016   9.635   9.534  10.160 -0.2311  0.1046 -0.3635
  149MOL0     C20017   9.748   9.583  10.244  0.2499  0.2483 -0.4316
  149MOL0     C20018   9.827   9.687  10.181  0.5026 -0.5698 -0.0388
  149MOL0     C20019   9.938   9.726  10.269  0.3390 -0.8598  0.2594
  149MOL0     C20020  10.043   9.815  10.201  0.8560  0.4218 -0.7599
  149MOL0     C20021  10.160   9.847  10.292  0.3167  0.5814  0.5333
  149MOL0     C20022  10.146   9.977  10.377  0.4808 -0.1682 -0.1496
  149MOL0     C20023  10.018   9.964  10.463  0.4944 -0.7658 -0.0937
  149MOL0     C20024  10.013  10.075  10.573 -0.0344 -0.0393 -0.2131
  149MOL0    Cl20025  10.006  10.237  10.500 -0.4083 -0.1600 -0.2847
  149MOL0     C20026   9.602   9.344  10.318 -0.5355  0.3292  1.4153
  149MOL0     C20027   9.517   9.229  10.353  0.6718 -0.6125 -0.3602
  149MOL0     O20028   9.204   9.284  10.409 -0.3471 -0.3716 -0.0847
  149MOL0     C20029   9.043   9.018  10.314 -0.6579  0.5010  0.7103
  149MOL0     C20030   8.941   8.918  10.326  0.4891 -0.1887 -0.0296
  149MOL0     N20031   8.423   8.870  10.068  0.0345 -0.1228  0.2765
  149MOL0     N20032   8.388   8.955   9.972  0.3426 -0.2998  0.2178
  149MOL0     C20033   8.456  10.229   9.482  0.5751  0.8368 -0.0442
  149MOL0     C20034   8.510  10.319   9.390  0.0804  0.4099  0.0538
  149MOL0     C20035   8.800  10.567   9.114  0.2406  0.7961 -0.3484
  149MOL0     C20036   8.730  10.686   9.140 -0.1250  0.0712  0.0832
  149MOL0     C20037   8.766  10.804   9.083  0.2129 -0.4263 -0.3761
  149MOL0     C20038   8.874  10.814   8.995  0.0346  0.5464 -0.3896
  149MOL0     O20039   8.895  10.934   8.937 -0.0803 -0.3010 -0.5126
  149MOL0     C20040   8.977  10.947   8.817 -1.2951 -0.2354 -0.2598
  149MOL0     C20041   8.919  10.884   8.687 -0.3988  0.1334 -1.1901
  149MOL0     C20042   8.951  10.974   8.562  0.7408  0.2643 -0.4023
  149MOL0     C20043   8.954  10.890   8.427 -0.3500  0.1929 -0.0512
  149MOL0     C20044   8.818  10.852   8.386  0.6725  0.4433  0.7543
  149MOL0     C20045   8.706  10.804   8.364  0.5424 -0.1878 -1.0015
  149MOL0     C20046   8.939  10.696   8.950 -0.2232 -0.3429 -0.3708
  149MOL0     C20047   8.905  10.573   9.015 -0.9160 -0.2608  0.0900
  149MOL0     H20048   8.838  10.265   9.458  0.7107 -0.6465 -2.2532
  149MOL0     H20049   8.746  10.088   9.598  0.7757 -0.1422 -0.3575
  149MOL0     H20050   8.493   9.878   9.548  0.9078  2.4994 -0.8254
  149MOL0     H20051   8.622   9.911   9.669  0.9572 -0.8631 -1.2610
  149MOL0     H20052   8.494   9.871   9.846  4.2707  2.5443 -2.6440
  149MOL0     H20053   8.338   9.877   9.758 -0.0486 -1.4040 -0.1658
  149MOL0     H20054   8.393   9.678   9.632 -4.2229 -1.1249  3.9018
  149MOL0     H20055   8.561   9.664   9.711 -0.3917 -1.2522  1.1971
  149MOL0     H20056   8.409   9.639   9.915 -0.8747  2.5895 -0.5616
  149MOL0     H20057   8.271   9.640   9.819  0.7932  2.8984  1.2769
  149MOL0     H20058   8.350   9.435   9.690  2.4414 -1.4436 -0.3546
  149MOL0     H20059   8.495   9.427   9.796 -0.0108 -0.9530  2.3305
  149MOL0     H20060   8.328   9.427  10.003  1.4423 -1.9150  0.3633
  149MOL0     H20061   8.210   9.386   9.867 -0.2399 -0.2807 -1.5447
  149MOL0     H20062   8.400   9.217   9.820 -0.8066 -1.0745 -0.0498
  149MOL0     H20063   8.451   9.248   9.992  1.7356 -0.7571 -1.6151
  149MOL0     H20064   8.222   9.118   9.859 -0.6216 -4.6187  0.9494
  149MOL0     H20065   8.161   9.212   9.993  0.1084  1.5635 -2.7348
  149MOL0     H20066   8.194   9.047  10.238 -2.1361  0.1462 -1.4933
  149MOL0     H20067   8.287   8.839  10.380  2.8979  1.3207  3.9516
  149MOL0     H20068   8.342   8.709  10.276  2.2860  0.1252 -3.3372
  149MOL0     H20069   8.502   8.780  10.476  0.9025  0.7644  0.1108
  149MOL0     H20070   8.513   8.934  10.402  0.7413  0.6166 -3.4205
  149MOL0     H20071   8.661   8.869  10.248 -3.6422  1.6922 -0.5569
  149MOL0     H20072   8.590   8.712  10.220 -0.6181  0.9055  1.2205
  149MOL0     H20073   8.815   8.670  10.315  0.5953 -2.3970  1.3079
  149MOL0     H20074   8.694   8.627  10.427 -1.0934  1.6626  1.6549
  149MOL0     H20075   8.915   8.936  10.664 -1.0086  3.8114  0.5412
  149MOL0     H20076   9.139   9.233  10.627  0.9770 -1.7603 -4.6940
  149MOL0     H20077   9.031   9.165  10.735 -2.2697  2.0677 -2.9199
  149MOL0     H20078   9.191   9.092  10.716  1.7729 -0.2339 -2.4410
  149MOL0     H20079   9.295   9.260  10.090  0.6051  2.1889 -2.8340
  149MOL0     H20080   9.448   9.434  10.027  0.3465 -1.9306 -1.0608
  149MOL0     H20081   9.714   9.620  10.341 -0.2858 -1.7028  0.1505
  149MOL0     H20082   9.807   9.493  10.262 -2.2915 -1.2984  0.6835
  149MOL0     H20083   9.861   9.652  10.083  0.0865  1.6238 -1.0207
  149MOL0     H20084   9.759   9.772  10.170 -1.2338 -1.7339  1.1327
  149MOL0     H20085   9.991   9.636  10.303  1.0785  0.4377  2.7347
  149MOL0     H20086   9.899   9.780  10.355  0.9802  1.9731 -1.1071
  149MOL0     H20087  10.082   9.771  10.109  4.9581 -2.5137  1.9786
  149MOL0     H20088   9.999   9.912  10.175 -3.2417 -0.6010  1.4395
  149MOL0     H20089  10.242   9.863  10.221  0.0714 -0.4801 -0.0104
  149MOL0     H20090  10.172   9.759  10.357 -1.8642 -0.1675  0.0027
  149MOL0     H20091  10.234   9.982  10.442  0.8702  3.6059 -0.7373
  149MOL0     H20092  10.131  10.069  10.319 -0.3650 -0.2388 -0.0645
  149MOL0     H20093  10.005   9.870  10.518 -0.3867 -0.0012  1.0665
  149MOL0     H20094   9.930   9.982  10.401  2.5605  0.5133 -2.8377
  149MOL0     H20095  10.104  10.062  10.634  0.0157  1.0513 -0.0367
  149MOL0     H20096   9.924  10.064  10.635 -0.3398  2.5794 -0.0777
  149MOL0     H20097   9.685   9.368  10.383  0.1836 -1.0146  1.0476
  149MOL0     H20098   9.545   9.171  10.440  2.3674 -0.1152 -0.5432
  149MOL0     H20099   9.063   9.042  10.210 -1.2860 -0.0941  0.4468
  149MOL0     H20100   8.906   8.864  10.238  1.9584  0.8807 -1.3224
  149MOL0     H20101   8.354  10.252   9.512  0.8686  0.2868  1.4400
  149MOL0     H20102   8.442  10.391   9.347 -1.4343 -1.6404 -1.1960
  149MOL0     H20103   8.668  10.688   9.228  0.8591 -3.8057  1.0278
  149MOL0     H20104   8.714  10.894   9.113  2.3238  0.9305 -0.5382
  149MOL0     H20105   8.988  11.053   8.792  0.8161 -0.6372 -1.2737
  149MOL0     H20106   9.076  10.906   8.837 -1.8215 -2.0342 -1.1309
  149MOL0     H20107   8.814  10.858   8.703 -0.3532  0.9753  0.7540
  149MOL0     H20108   8.970  10.788   8.676  0.3817  0.5024 -0.8317
  149MOL0     H20109   9.053  11.007   8.578  0.4523  1.2453 -0.5396
  149MOL0     H20110   8.880  11.054   8.539 -3.4137 -2.0398  2.8828
  149MOL0     H20111   9.020  10.804   8.443 -0.1651 -0.0583 -1.9760
  149MOL0     H20112   8.992  10.957   8.349  2.9435 -1.3644  0.0312
  149MOL0     H20113   8.618  10.748   8.338 -0.0508 -1.0885  2.4205
  149MOL0     H20114   9.014  10.705   8.872 -1.3261 -2.4254 -1.7517
  149MOL0     H20115   8.954  10.477   9.001  0.2893 -0.3444  3.8538
  150MOL0     O20116   3.312   6.033  10.139  0.6174 -0.3988 -0.0321
  150MOL0     C20117   3.295   6.038  10.023  0.1193 -0.5212  0.4811
  150MOL0     O20118   3.367   6.108   9.929 -0.4210 -0.0374 -0.9808
  150MOL0     C20119   3.471   6.189   9.957 -0.0047  0.1264 -0.7719
  150MOL0     C20120   3.547   6.233   9.846  0.2821  0.7536  0.0223
  150MOL0     C20121   3.668   6.306   9.866  0.2678  0.2776 -0.5857
  150MOL0     C20122   3.717   6.337   9.990 -0.1297 -0.4210 -0.4101
  150MOL0     O20123   3.822   6.422  10.010 -0.5574  0.0110 -0.5443
  150MOL0     C20124   3.809   6.554   9.954 -0.9111 -0.0068  0.3189
  150MOL0     C20125   3.756   6.660  10.047 -0.0918  0.3126 -1.5403
  150MOL0     C20126   3.805   6.653  10.189  0.3733  0.4087 -0.3349
  150MOL0     C20127   3.714   6.740  10.266 -0.5335 -0.0615 -0.2574
  150MOL0     C20128   3.759   6.765  10.417  0.1462 -0.0150 -0.8287
  150MOL0     C20129   3.659   6.860  10.485  0.8012 -1.5555 -0.5694
  150MOL0     C20130   3.687   6.868  10.646  0.2598 -0.0563  0.7344
  150MOL0     C20131   3.567   6.923  10.742 -1.1096  0.1059  0.1170
  150MOL0     N20132   3.565   7.069  10.757  0.1049 -0.6652  0.1127
  150MOL0     C20133   3.562   7.157  10.646 -1.1662  0.3066  0.1996
  150MOL0     C20134   3.550   7.279  10.705 -0.5932 -0.0650  0.8889
  150MOL0     C20135   3.555   7.406  10.622  0.1864  0.9190  0.0932
  150MOL0     C20136   3.429   7.405  10.536 -0.1616 -0.4624 -0.7473
  150MOL0     C20137   3.401   7.554  10.487 -0.4562  0.1935  0.4595
  150MOL0     C20138   3.494   7.600  10.374 -0.4210 -0.2270 -0.1583
  150MOL0     O20139   3.473   7.734  10.337 -0.3086  0.2928 -0.4749
  150MOL0     C20140   3.577   7.805  10.280 -1.1952  0.1114  0.6725
  150MOL0     C20141   3.589   7.947  10.288  0.9168 -0.9457 -0.8193
  150MOL0     C20142   3.678   8.025  10.217  1.1857  0.0220  0.3740
  150MOL0     C20143   3.650   8.171  10.225  0.6330  0.2689 -0.5118
  150MOL0     C20144   3.749   7.964  10.117 -0.0241 -0.4065  0.5375
  150MOL0     C20145   3.839   8.035  10.035  0.3172  0.2504  1.1109
  150MOL0     O20146   3.868   7.957   9.919 -0.5438  0.1875 -0.8930
  150MOL0     C20147   3.995   7.958   9.873  0.0815 -0.1833  0.0198
  150MOL0     C20148   4.070   7.842   9.905  0.2921 -0.1349 -0.9730
  150MOL0     C20149   4.201   7.842   9.859  0.0643  0.4390  0.3019
  150MOL0     C20150   4.261   7.936   9.779  0.3826 -0.0144  0.3023
  150MOL0     O20151   4.379   7.924   9.710 -0.2392  0.6791 -0.6604
  150MOL0     C20152   4.471   7.823   9.768 -1.4282 -0.7632 -0.5721
  150MOL0     C20153   4.617   7.850   9.715  0.3236 -0.4007 -0.0630
  150MOL0     C20154   4.708   7.772   9.809  0.1169 -0.8487 -0.9021
  150MOL0     C20155   4.859   7.774   9.766 -0.4820  0.7348 -0.0301
  150MOL0     C20156   4.905   7.714   9.638 -1.2205 -0.1452 -1.3070
  150MOL0     C20157   5.052   7.754   9.601 -0.1310  0.0463  1.0149
  150MOL0     C20158   5.165   7.725   9.707 -0.1769 -0.5125  0.1091
  150MOL0     C20159   5.307   7.745   9.656 -0.1292 -0.0277  0.0889
  150MOL0    Cl20160   5.316   7.690   9.489 -0.0234  0.0504  0.0422
  150MOL0     C20161   4.185   8.047   9.755  0.1568 -0.0155 -0.6244
  150MOL0     C20162   4.055   8.057   9.805  0.1285  0.3184  0.6055
  150MOL0     O20163   3.890   8.145  10.062  0.3882 -0.4780 -0.4784
  150MOL0     C20164   3.754   7.823  10.117  0.1649  0.5973 -0.0273
  150MOL0     C20165   3.675   7.747  10.201  0.5511  0.3712 -0.0961
  150MOL0     N20166   3.543   7.267  10.841  0.3816  0.5323  0.1298
  150MOL0     N20167   3.564   7.140  10.874 -0.6002  0.0419  0.3832
  150MOL0     C20168   3.645   6.296  10.101 -1.0316  0.1839  0.8257
  150MOL0     C20169   3.524   6.227  10.084 -0.5296  0.0247 -0.2531
  150MOL0     C20170   3.176   5.959   9.976 -0.4374  0.1612  0.3476
  150MOL0     C20171   3.075   5.917  10.051 -0.6414  0.1490 -0.2420
  150MOL0     C20172   2.963   5.855   9.996 -0.3562 -0.5818  0.8412
  150MOL0     C20173   2.958   5.828   9.863  0.9382  0.1412  0.8232
  150MOL0     O20174   2.837   5.762   9.806  0.1499 -0.3286  0.0679
  150MOL0     C20175   2.768   5.666   9.888  0.1478 -0.0903  0.2511
  150MOL0     C20176   2.818   5.522   9.873  0.6538 -0.8765 -0.0453
  150MOL0     C20177   2.760   5.424   9.966  0.6311 -0.6653 -0.3473
  150MOL0     C20178   2.606   5.445   9.993  0.7108  0.2560 -0.6121
  150MOL0     C20179   2.532   5.410   9.872  0.5327 -0.8028 -0.3422
  150MOL0     C20180   2.482   5.398   9.757  1.2906 -0.9352  0.2332
  150MOL0     C20181   3.068   5.867   9.776  0.1003 -0.1746 -0.1429
  150MOL0     C20182   3.171   5.930   9.834 -0.0387 -0.6182 -0.4418
  150MOL0     H20183   3.497   6.207   9.753  0.7510  0.9579 -0.2911
  150MOL0     H20184   3.726   6.343   9.781  2.0146  0.6032  0.6985
  150MOL0     H20185   3.908   6.596   9.934 -1.8833  3.2474  1.6903
  150MOL0     H20186   3.754   6.561   9.860  0.5154 -1.1159 -0.6440
  150MOL0     H20187   3.774   6.763  10.016 -2.3436  1.8489  1.7015
  150MOL0     H20188   3.649   6.639  10.047 -0.4523  1.8958  0.2898
  150MOL0     H20189   3.812   6.555  10.239  0.2314  0.9892  0.8669
  150MOL0     H20190   3.907   6.691  10.202 -1.1244  3.9408  2.9998
  150MOL0     H20191   3.708   6.837  10.216  1.1868 -1.1344 -2.7914
  150MOL0     H20192   3.615   6.695  10.258 -1.4625  2.0251 -1.2170
  150MOL0     H20193   3.763   6.669  10.469 -0.0735 -0.4788 -1.6459
  150MOL0     H20194   3.859   6.809  10.413 -0.7325  2.0342 -3.5324
  150MOL0     H20195   3.671   6.961  10.445  1.6764 -2.3640 -2.4439
  150MOL0     H20196   3.553   6.836  10.470 -1.6543  3.7011  4.2228
  150MOL0     H20197   3.712   6.763  10.662  0.3649 -0.0250  0.7798
  150MOL0     H20198   3.778   6.924  10.669  1.4957 -0.7851 -1.9844
  150MOL0     H20199   3.573   6.869  10.837  0.4333 -1.3574 -0.7590
  150MOL0     H20200   3.468   6.902  10.700 -0.8936 -1.2648  0.2497
  150MOL0     H20201   3.577   7.143  10.539 -1.9486 -0.8005  0.2090
  150MOL0     H20202   3.565   7.497  10.681  1.2720  0.7491  0.1800
  150MOL0     H20203   3.639   7.404  10.552  1.4603 -1.5081  1.5810
  150MOL0     H20204   3.350   7.367  10.603  0.0344 -2.3134 -1.5000
  150MOL0     H20205   3.442   7.335  10.453  0.9226 -4.8248  2.6730
  150MOL0     H20206   3.400   7.631  10.564  2.0167 -0.5188  1.2908
  150MOL0     H20207   3.301   7.557  10.443 -0.7361 -1.2695  0.9377
  150MOL0     H20208   3.488   7.539  10.283  1.3923  0.0459 -0.4926
  150MOL0     H20209   3.595   7.585  10.414  0.8273  0.9618 -2.6857
  150MOL0     H20210   3.524   7.994  10.362  0.2933 -2.2769 -0.4811
  150MOL0     H20211   3.620   8.222  10.133 -0.1155  1.5333  0.3920
  150MOL0     H20212   3.576   8.184  10.305 -0.7473 -1.5851 -1.4191
  150MOL0     H20213   3.741   8.223  10.258  1.7952 -2.3939  0.7724
  150MOL0     H20214   4.021   7.770   9.971 -0.7611  0.5046 -1.0211
  150MOL0     H20215   4.263   7.760   9.893  0.2627  1.0740  1.5232
  150MOL0     H20216   4.465   7.832   9.876 -1.0290 -2.6822 -0.3647
  150MOL0     H20217   4.438   7.722   9.743  1.5886 -1.8305 -0.6141
  150MOL0     H20218   4.610   7.823   9.609 -1.3570 -0.2611 -0.0235
  150MOL0     H20219   4.639   7.957   9.707  1.8297 -0.7285 -0.6583
  150MOL0     H20220   4.665   7.673   9.828 -1.1568  0.4441  4.6249
  150MOL0     H20221   4.703   7.817   9.908 -0.2062 -1.6845 -0.5244
  150MOL0     H20222   4.886   7.880   9.767  1.7194  0.2366 -0.2746
  150MOL0     H20223   4.917   7.731   9.848 -0.3375 -0.7580 -0.8836
  150MOL0     H20224   4.837   7.735   9.555  0.2654 -0.9989 -2.7917
  150MOL0     H20225   4.905   7.605   9.634  0.6613 -0.2831  0.5258
  150MOL0     H20226   5.084   7.707   9.508 -0.3381  5.8126 -2.3832
  150MOL0     H20227   5.051   7.862   9.584  1.5569  0.1346  1.2490
  150MOL0     H20228   5.151   7.621   9.736 -4.9415 -0.3653 -0.8240
  150MOL0     H20229   5.143   7.793   9.790  2.7333 -0.5591  1.0109
  150MOL0     H20230   5.365   7.672   9.713  0.4234  0.8731  0.7072
  150MOL0     H20231   5.355   7.842   9.668  0.1964  0.4439 -3.9013
  150MOL0     H20232   4.242   8.121   9.699 -1.2412 -0.5110 -2.8255
  150MOL0     H20233   4.005   8.153   9.789  3.1066  1.4569 -3.5703
  150MOL0     H20234   3.822   7.763  10.058  1.5061  1.1581  0.9200
  150MOL0     H20235   3.666   7.640  10.186  0.9464  0.6318 -2.7532
  150MOL0     H20236   3.670   6.328  10.201 -1.2215  0.2209  0.8629
  150MOL0     H20237   3.485   6.195  10.180 -1.9945 -1.6844 -1.3502
  150MOL0     H20238   3.068   5.923  10.159 -0.2156  0.2434 -0.2204
  150MOL0     H20239   2.883   5.844  10.068 -3.6481 -1.4821 -2.5787
  150MOL0     H20240   2.784   5.684   9.994 -1.6152 -1.8900  0.8834
  150MOL0     H20241   2.661   5.671   9.866  0.8732 -1.0434 -4.7617
  150MOL0     H20242   2.927   5.527   9.880  0.8836 -1.2423 -2.4780
  150MOL0     H20243   2.779   5.485   9.778  1.4274 -2.6035  0.2871
  150MOL0     H20244   2.819   5.419  10.058 -2.5991 -0.0949  1.8996
  150MOL0     H20245   2.774   5.325   9.920  0.1018 -1.3580  0.9227
  150MOL0     H20246   2.595   5.546  10.034 -1.0782 -1.3301  3.3281
  150MOL0     H20247   2.572   5.377  10.072  2.4295  0.1094  0.0372
  150MOL0     H20248   2.440   5.388   9.659  0.0416 -0.4536  0.6952
  150MOL0     H20249   3.084   5.842   9.671  2.5773 -0.0821  0.1734
  150MOL0     H20250   3.250   5.965   9.768  0.3176 -1.1414 -0.2986
  151MOL0     O20251   8.605   3.945   9.926 -0.4085  0.2949  0.0530
  151MOL0     C20252   8.582   4.005  10.032  0.4475 -0.3552 -0.1899
  151MOL0     O20253   8.497   4.112  10.043  0.0856  0.3433  0.0714
  151MOL0     C20254   8.411   4.151   9.945 -0.0281  1.1925  0.0609
  151MOL0     C20255   8.439   4.189   9.814 -0.3774  0.7831  0.0846
  151MOL0     C20256   8.343   4.237   9.730  0.2907 -0.7353  0.5015
  151MOL0     C20257   8.205   4.241   9.769 -0.0155  0.9186 -0.2747
  151MOL0     O20258   8.115   4.264   9.671 -0.5776 -0.3958  0.8409
  151MOL0     C20259   7.985   4.319   9.700  0.3717 -0.4574  0.4627
  151MOL0     C20260   7.922   4.334   9.564  0.7826  0.5094 -0.0906
  151MOL0     C20261   7.815   4.233   9.547  0.9947  0.6089 -0.6105
  151MOL0     C20262   7.755   4.236   9.410  0.5228 -0.6675  0.6549
  151MOL0     C20263   7.622   4.147   9.403 -0.5737 -0.1483 -0.1786
  151MOL0     C20264   7.533   4.165   9.274 -0.5214  0.1044  1.1474
  151MOL0     C20265   7.388   4.178   9.294 -0.0845  0.4775 -0.6139
  151MOL0     C20266   7.318   4.180   9.167  0.0459 -0.9706  0.5709
  151MOL0     N20267   7.302   4.314   9.112  0.0736  0.6282 -0.0447
  151MOL0     C20268   7.202   4.403   9.133  0.6227  0.8728  0.3310
  151MOL0     C20269   7.263   4.524   9.118 -0.3250  0.1905  0.1130
  151MOL0     C20270   7.188   4.648   9.139  0.1971  1.0155  0.2662
  151MOL0     C20271   7.224   4.739   9.255 -0.9293  0.3594 -0.3102
  151MOL0     C20272   7.152   4.873   9.252 -0.2105 -0.1866 -0.2360
  151MOL0     C20273   6.999   4.862   9.281  0.8684 -0.0880  0.0714
  151MOL0     O20274   6.927   4.977   9.315  0.2593 -0.0278 -0.1905
  151MOL0     C20275   6.989   5.061   9.409 -0.1241 -0.4481 -0.1683
  151MOL0     C20276   7.000   5.195   9.380  0.2898  0.2268 -0.4335
  151MOL0     C20277   7.043   5.285   9.480 -0.1603 -0.0162 -0.0846
  151MOL0     C20278   7.057   5.424   9.433  0.4997  0.2941 -0.5527
  151MOL0     C20279   7.078   5.236   9.613  0.1015  0.2190  0.1795
  151MOL0     C20280   7.114   5.310   9.735 -0.1018  0.0239 -0.5726
  151MOL0     O20281   7.204   5.255   9.820 -0.1868  0.9233 -1.0262
  151MOL0     C20282   7.239   5.314   9.941 -0.7277  0.3337 -0.3801
  151MOL0     C20283   7.334   5.419   9.938  0.9241 -0.0432 -0.3628
  151MOL0     C20284   7.373   5.477  10.060  0.1767  1.1030  0.1550
  151MOL0     C20285   7.312   5.431  10.183 -0.1053  0.5589  0.6361
  151MOL0     O20286   7.356   5.478  10.298  0.1839 -0.0296 -0.4732
  151MOL0     C20287   7.382   5.620  10.300 -0.4037  0.0631 -0.5045
  151MOL0     C20288   7.421   5.657  10.451 -0.8169 -0.0997 -0.3191
  151MOL0     C20289   7.410   5.803  10.480 -0.1477 -0.4234 -0.3814
  151MOL0     C20290   7.558   5.857  10.477 -0.5148  0.2939  0.5917
  151MOL0     C20291   7.635   5.859  10.346 -0.2444 -0.6800 -0.7758
  151MOL0     C20292   7.552   5.932  10.243  0.7102  0.4310  0.7386
  151MOL0     C20293   7.624   5.957  10.107  0.2768 -0.5346  0.1429
  151MOL0     C20294   7.534   5.988   9.989  1.3471  0.0257 -0.2131
  151MOL0    Cl20295   7.454   5.835   9.935  0.0554  0.3087  0.0812
  151MOL0     C20296   7.225   5.327  10.176  0.1612  0.9376 -0.2264
  151MOL0     C20297   7.186   5.268  10.059  0.3966  0.5429  1.2980
  151MOL0     O20298   7.077   5.424   9.732 -0.0753  0.6039 -0.0644
  151MOL0     C20299   7.071   5.098   9.637 -0.2106  0.8167 -0.3053
  151MOL0     C20300   7.031   5.016   9.534  0.4239  1.8014  0.2354
  151MOL0     N20301   7.392   4.509   9.078 -0.2110 -0.5449 -0.4362
  151MOL0     N20302   7.405   4.382   9.058 -0.2013  0.2948 -0.1010
  151MOL0     C20303   8.176   4.200   9.901 -0.1660 -0.3832 -0.0737
  151MOL0     C20304   8.280   4.165   9.994  0.1137 -0.5314  0.2032
  151MOL0     C20305   8.668   3.988  10.149  0.2660  0.0951 -0.6489
  151MOL0     C20306   8.759   3.877  10.150  0.0309 -0.8410  0.4329
  151MOL0     C20307   8.825   3.843  10.262 -0.7647 -1.0903  0.0528
  151MOL0     C20308   8.830   3.929  10.372  0.2602  1.0707  0.6664
  151MOL0     O20309   8.929   3.899  10.473  0.4724  0.7754  0.5730
  151MOL0     C20310   8.895   3.945  10.606  0.2488  0.9013  0.1158
  151MOL0     C20311   9.002   3.924  10.716 -0.6974 -0.6785  0.5621
  151MOL0     C20312   9.096   4.047  10.698 -0.0304  0.0180 -0.0005
  151MOL0     C20313   9.227   4.024  10.770 -0.1617  0.3417  1.2701
  151MOL0     C20314   9.204   4.002  10.908  0.4815  0.3569 -0.4991
  151MOL0     C20315   9.168   3.979  11.022  0.0681  0.2906  0.5380
  151MOL0     C20316   8.760   4.048  10.362  0.2852  0.2281  0.5932
  151MOL0     C20317   8.668   4.072  10.261  0.2738  0.1748  1.3201
  151MOL0     H20318   8.541   4.177   9.780 -0.0959 -0.5655  1.3139
  151MOL0     H20319   8.371   4.282   9.635 -1.2370  0.4701  0.5717
  151MOL0     H20320   7.933   4.250   9.767  0.3262  2.1114  3.2253
  151MOL0     H20321   7.994   4.419   9.742 -0.6454 -0.4140  0.6115
  151MOL0     H20322   7.864   4.427   9.562 -2.0456 -0.7614  4.9175
  151MOL0     H20323   7.995   4.329   9.484  0.6583 -0.7848 -0.1486
  151MOL0     H20324   7.847   4.128   9.554  0.9141  0.6768  1.3371
  151MOL0     H20325   7.738   4.255   9.622 -3.1733  2.5892 -4.9250
  151MOL0     H20326   7.727   4.338   9.382 -0.3979 -1.1643 -0.3068
  151MOL0     H20327   7.823   4.203   9.330 -1.2483  1.0573 -1.7276
  151MOL0     H20328   7.662   4.046   9.416  2.6042  0.7930 -1.5781
  151MOL0     H20329   7.566   4.176   9.492 -1.0726  1.0246 -0.8513
  151MOL0     H20330   7.572   4.257   9.229  3.9497 -3.0207 -2.3751
  151MOL0     H20331   7.554   4.079   9.210  1.9488  0.8960  0.7888
  151MOL0     H20332   7.353   4.094   9.356  0.1757  1.1869  0.5158
  151MOL0     H20333   7.373   4.271   9.349  0.4644 -0.4745  1.2326
  151MOL0     H20334   7.213   4.158   9.188 -0.6337  0.5115 -1.0026
  151MOL0     H20335   7.355   4.114   9.087  1.1266  0.1741  0.0968
  151MOL0     H20336   7.096   4.391   9.154  0.2776 -1.9784 -2.3568
  151MOL0     H20337   7.195   4.707   9.047 -3.0855  3.3252  1.2940
  151MOL0     H20338   7.081   4.624   9.151  0.9983 -2.6687  1.1941
  151MOL0     H20339   7.332   4.755   9.256 -1.1574  2.0224  0.1094
  151MOL0     H20340   7.206   4.691   9.352  1.2313 -0.4788 -0.2613
  151MOL0     H20341   7.174   4.919   9.155  1.4084 -0.6662 -0.1163
  151MOL0     H20342   7.205   4.927   9.330  1.7177 -1.0992 -0.8400
  151MOL0     H20343   6.985   4.789   9.361 -0.0037  0.1849  0.1725
  151MOL0     H20344   6.963   4.812   9.190  1.0581 -0.1364  0.0229
  151MOL0     H20345   6.997   5.221   9.275 -0.7463  2.0046 -0.0009
  151MOL0     H20346   7.136   5.434   9.358  2.3595  0.4346  1.3370
  151MOL0     H20347   6.966   5.464   9.387  0.2883  0.9215  0.3849
  151MOL0     H20348   7.089   5.491   9.513 -1.3270 -0.4370  0.8819
  151MOL0     H20349   7.369   5.451   9.840 -1.1911  1.3474 -0.7281
  151MOL0     H20350   7.444   5.559  10.052  0.9419  0.4232 -0.1242
  151MOL0     H20351   7.470   5.643  10.238  1.0224 -1.6297  0.7798
  151MOL0     H20352   7.293   5.681  10.284 -0.1970  0.6388  0.4721
  151MOL0     H20353   7.353   5.607  10.521  1.2008  0.1411  1.9544
  151MOL0     H20354   7.524   5.629  10.474  0.2327  3.4931  0.0085
  151MOL0     H20355   7.374   5.830  10.579 -1.2286  1.1690 -1.1559
  151MOL0     H20356   7.350   5.856  10.406  0.5111 -1.1908 -1.4959
  151MOL0     H20357   7.563   5.963  10.504  0.5512  1.0179 -2.1744
  151MOL0     H20358   7.628   5.807  10.545  0.3098  1.7596  0.8593
  151MOL0     H20359   7.667   5.759  10.315  2.9158 -0.6711  1.9754
  151MOL0     H20360   7.729   5.909  10.368 -0.0965 -1.9468  1.7848
  151MOL0     H20361   7.460   5.878  10.219  0.4070  0.6337  1.4304
  151MOL0     H20362   7.524   6.030  10.282 -0.5458  0.2320  0.3904
  151MOL0     H20363   7.673   5.865  10.074 -0.4353 -1.2297  0.9699
  151MOL0     H20364   7.705   6.030  10.111  3.4576 -3.5839 -2.0821
  151MOL0     H20365   7.590   6.019   9.901 -0.6121  1.2599 -1.1022
  151MOL0     H20366   7.454   6.062   9.998  1.0335 -0.0965 -1.7837
  151MOL0     H20367   7.165   5.307  10.265  1.6188 -1.6968  0.2330
  151MOL0     H20368   7.110   5.190  10.059 -0.9796  1.7711  3.3046
  151MOL0     H20369   7.098   5.056   9.733 -0.7170  1.2550  0.0354
  151MOL0     H20370   7.022   4.909   9.553 -0.2474  1.5504 -1.3722
  151MOL0     H20371   8.072   4.213   9.929 -0.4179 -0.0741 -1.1032
  151MOL0     H20372   8.257   4.178  10.100  2.3022  2.1315  0.4396
  151MOL0     H20373   8.784   3.815  10.065  0.0889 -2.9508  1.9155
  151MOL0     H20374   8.880   3.749  10.269  0.5343 -0.2848  0.9320
  151MOL0     H20375   8.878   4.053  10.608 -1.8215  0.6174  0.1219
  151MOL0     H20376   8.804   3.889  10.631  1.0971 -1.0079 -0.9058
  151MOL0     H20377   9.047   3.824  10.715  0.9266  0.0096 -0.4098
  151MOL0     H20378   8.959   3.944  10.814 -0.5361  0.4492  0.4166
  151MOL0     H20379   9.049   4.138  10.737  0.9442 -0.0067  1.3281
  151MOL0     H20380   9.121   4.062  10.593  2.1575  0.3636  0.5336
  151MOL0     H20381   9.283   4.116  10.755  0.0428  0.6239  3.4749
  151MOL0     H20382   9.276   3.940  10.721  0.9837 -0.2486  3.3103
  151MOL0     H20383   9.153   3.958  11.126 -1.9107 -0.4599  0.1341
  151MOL0     H20384   8.765   4.114  10.448  0.6330  0.1542  0.6341
  151MOL0     H20385   8.612   4.166  10.261 -3.7368 -1.9659 -0.2343
  152MOL0     O20386   4.211   1.460   3.540  0.2637  0.7827  0.2065
  152MOL0     C20387   4.323   1.421   3.500 -0.5723  0.4164  0.1057
  152MOL0     O20388   4.428   1.402   3.585 -0.0039 -0.4061  0.0654
  152MOL0     C20389   4.414   1.398   3.720  0.5402 -0.2223 -1.5081
  152MOL0     C20390   4.413   1.514   3.793  0.2329 -0.6309 -0.3546
  152MOL0     C20391   4.400   1.511   3.930  0.3861  0.0404  0.2172
  152MOL0     C20392   4.389   1.385   3.996 -0.2602  0.2165  1.5181
  152MOL0     O20393   4.373   1.388   4.132 -0.1385 -0.0017 -0.1364
  152MOL0     C20394   4.495   1.416   4.209  0.2341 -0.4158  0.3037
  152MOL0     C20395   4.454   1.378   4.348 -0.4768 -0.3630  0.2627
  152MOL0     C20396   4.574   1.416   4.442 -0.5293  0.4071  0.3299
  152MOL0     C20397   4.525   1.377   4.578 -0.0237 -0.2331 -1.1473
  152MOL0     C20398   4.620   1.421   4.692 -0.6000 -0.7005 -0.1142
  152MOL0     C20399   4.545   1.425   4.829 -0.3765 -0.3706  0.1253
  152MOL0     C20400   4.660   1.467   4.932 -0.4997 -0.2938 -0.0087
  152MOL0     C20401   4.595   1.491   5.067 -0.1498  0.1914 -0.4863
  152MOL0     N20402   4.689   1.521   5.174 -0.0956 -0.1614  0.3703
  152MOL0     C20403   4.760   1.642   5.193  0.3233 -0.1158 -0.1712
  152MOL0     C20404   4.858   1.612   5.279 -1.0577  0.6222  0.0801
  152MOL0     C20405   4.957   1.707   5.337  0.2376  0.7609 -0.1150
  152MOL0     C20406   5.015   1.812   5.236 -0.2126 -0.3671 -0.5574
  152MOL0     C20407   5.146   1.888   5.287 -0.6070  0.0579 -0.8789
  152MOL0     C20408   5.149   2.036   5.235  0.7005 -0.0092 -1.3610
  152MOL0     O20409   5.247   2.116   5.292 -0.5070 -0.2369 -0.8447
  152MOL0     C20410   5.380   2.081   5.274 -0.1567  0.3631  0.3360
  152MOL0     C20411   5.446   2.028   5.153  0.1550  0.4376  0.4193
  152MOL0     C20412   5.583   2.029   5.147  0.0698 -0.0069 -0.4229
  152MOL0     C20413   5.646   1.994   5.014  0.6191 -0.0825  0.4858
  152MOL0     C20414   5.667   2.081   5.257  0.4202  0.6169  0.3277
  152MOL0     C20415   5.817   2.093   5.242  0.0684 -0.4124 -0.2258
  152MOL0     O20416   5.875   2.218   5.248  0.2513 -0.5625  0.8560
  152MOL0     C20417   6.010   2.241   5.238 -1.1723  0.2040  0.0018
  152MOL0     C20418   6.101   2.153   5.294 -0.0779  0.3082 -0.5549
  152MOL0     C20419   6.238   2.192   5.295  0.7927 -0.1882 -0.3514
  152MOL0     C20420   6.290   2.305   5.233 -0.0795  0.0245  0.3121
  152MOL0     O20421   6.426   2.338   5.254 -0.1338 -0.5373 -0.1465
  152MOL0     C20422   6.482   2.450   5.186  0.0638  0.3237  0.3630
  152MOL0     C20423   6.633   2.455   5.215  0.9578 -0.1286  0.2224
  152MOL0     C20424   6.716   2.350   5.134 -0.1538  0.0171 -0.4086
  152MOL0     C20425   6.869   2.373   5.156 -0.0516  0.3048 -0.5081
  152MOL0     C20426   6.943   2.346   5.022  0.3192 -0.1651 -1.1213
  152MOL0     C20427   7.084   2.370   5.018 -0.5824  0.6624 -0.3491
  152MOL0     C20428   7.147   2.369   4.870 -0.8426  0.2598 -0.7757
  152MOL0     C20429   7.301   2.368   4.866  0.3216  0.8195  1.2055
  152MOL0    Cl20430   7.373   2.513   4.924  0.1588 -0.4288  0.2432
  152MOL0     C20431   6.187   2.386   5.176  0.4996 -0.4287  0.5853
  152MOL0     C20432   6.050   2.358   5.182 -0.3234 -0.6350  0.4469
  152MOL0     O20433   5.880   1.992   5.209 -0.1266  0.4994 -0.3196
  152MOL0     C20434   5.593   2.141   5.361 -1.2162  0.3335 -0.1504
  152MOL0     C20435   5.455   2.137   5.371  0.0624  0.8357  0.7249
  152MOL0     N20436   4.837   1.484   5.328  0.7158 -0.2323 -1.3015
  152MOL0     N20437   4.738   1.428   5.259 -0.0819  0.0262 -0.0740
  152MOL0     C20438   4.403   1.270   3.922 -0.7754  0.2545 -0.4724
  152MOL0     C20439   4.414   1.274   3.777 -0.2054 -0.0997 -0.6581
  152MOL0     C20440   4.358   1.423   3.350  0.3389 -0.0107  0.2576
  152MOL0     C20441   4.254   1.413   3.255  0.3580 -0.8201  0.4411
  152MOL0     C20442   4.288   1.385   3.119 -0.6414  0.8003 -0.2428
  152MOL0     C20443   4.422   1.404   3.073  0.2030  0.1798 -0.3136
  152MOL0     O20444   4.469   1.403   2.949  0.0833 -0.2171 -0.2114
  152MOL0     C20445   4.417   1.307   2.860 -0.2631  0.4945  0.7453
  152MOL0     C20446   4.534   1.266   2.780 -0.7353 -1.0450  0.0224
  152MOL0     C20447   4.593   1.388   2.695  0.0838  0.2970  0.2801
  152MOL0     C20448   4.512   1.416   2.575  0.1090  0.1364 -0.0867
  152MOL0     C20449   4.549   1.332   2.464  0.3837 -0.2060  0.0169
  152MOL0     C20450   4.583   1.258   2.379 -1.1705 -0.6670  0.2938
  152MOL0     C20451   4.521   1.403   3.174  0.1615  0.6795  0.5501
  152MOL0     C20452   4.487   1.407   3.310 -0.6774 -1.1487  0.5751
  152MOL0     H20453   4.401   1.604   3.733 -4.6662 -1.7763 -1.5440
  152MOL0     H20454   4.394   1.608   3.978  2.2114  1.0232 -1.4109
  152MOL0     H20455   4.581   1.353   4.185  0.0542  0.0441 -1.7535
  152MOL0     H20456   4.519   1.521   4.191 -2.4236 -0.2416 -3.3704
  152MOL0     H20457   4.361   1.421   4.384  0.2171  0.4390  1.1337
  152MOL0     H20458   4.444   1.269   4.352  5.5931 -1.2051  1.3400
  152MOL0     H20459   4.667   1.359   4.427 -1.9843 -2.4155  1.2630
  152MOL0     H20460   4.574   1.525   4.434 -1.2065  0.6187  2.4991
  152MOL0     H20461   4.439   1.436   4.613 -0.4361 -1.8577  0.7531
  152MOL0     H20462   4.500   1.272   4.598  0.0135  0.3123  2.5238
  152MOL0     H20463   4.711   1.363   4.709 -1.6548 -1.4811  3.9138
  152MOL0     H20464   4.654   1.521   4.663 -0.6042 -0.9760 -1.1221
  152MOL0     H20465   4.465   1.499   4.837  1.8147  2.7155 -3.0429
  152MOL0     H20466   4.503   1.329   4.859  1.5263 -0.1278  4.2717
  152MOL0     H20467   4.742   1.395   4.941 -1.4822 -1.1753  3.2904
  152MOL0     H20468   4.696   1.564   4.896 -0.3902 -0.7513 -1.1936
  152MOL0     H20469   4.539   1.402   5.096  3.3885 -2.3097 -0.7512
  152MOL0     H20470   4.526   1.577   5.073 -2.0179 -1.1703 -1.3860
  152MOL0     H20471   4.749   1.743   5.155 -0.2512  0.1541  0.6681
  152MOL0     H20472   4.918   1.762   5.423  1.6082 -1.9085  2.3787
  152MOL0     H20473   5.048   1.659   5.375 -0.5547 -0.5446  0.1850
  152MOL0     H20474   4.946   1.896   5.226  0.4736  0.1079 -1.4244
  152MOL0     H20475   5.034   1.764   5.139  2.8114  2.3194 -1.4855
  152MOL0     H20476   5.238   1.832   5.269 -1.0143 -0.4988 -1.2623
  152MOL0     H20477   5.128   1.880   5.394 -1.1415  1.7281 -0.8059
  152MOL0     H20478   5.050   2.072   5.264  0.8547 -1.1530  0.8630
  152MOL0     H20479   5.151   2.031   5.126 -0.7148  2.9130 -1.6073
  152MOL0     H20480   5.380   2.000   5.071 -0.0669  1.8822  0.0836
  152MOL0     H20481   5.680   1.890   5.015 -3.0769 -1.5531 -2.3135
  152MOL0     H20482   5.560   1.997   4.946  0.4149  2.6274  0.7665
  152MOL0     H20483   5.714   2.064   4.965  1.3122  0.6160  2.3715
  152MOL0     H20484   6.075   2.066   5.354 -1.0878  0.6820 -0.4303
  152MOL0     H20485   6.317   2.148   5.356  2.3412  0.6436 -1.6709
  152MOL0     H20486   6.463   2.443   5.079 -0.5690 -4.0608  0.6049
  152MOL0     H20487   6.433   2.540   5.224  0.4335  1.2657 -1.2768
  152MOL0     H20488   6.679   2.554   5.210 -1.2354  0.8825 -1.7251
  152MOL0     H20489   6.641   2.414   5.316  2.2229 -1.0887 -0.2312
  152MOL0     H20490   6.691   2.371   5.030 -0.6299  1.2412 -0.0623
  152MOL0     H20491   6.688   2.247   5.157 -0.1319  0.3277  1.0993
  152MOL0     H20492   6.895   2.470   5.200 -2.2898  1.7145 -2.0956
  152MOL0     H20493   6.898   2.302   5.234  0.1279 -0.2589 -1.0717
  152MOL0     H20494   6.903   2.412   4.944  1.9486 -0.6744 -2.4559
  152MOL0     H20495   6.923   2.245   4.985 -2.0268 -0.3162  0.3734
  152MOL0     H20496   7.103   2.467   5.065 -4.0082  1.3968 -0.1957
  152MOL0     H20497   7.144   2.301   5.079  0.7397  3.1119  1.3023
  152MOL0     H20498   7.113   2.458   4.815  1.0637  1.1807 -0.5742
  152MOL0     H20499   7.130   2.273   4.823 -4.3777 -0.7287  2.0842
  152MOL0     H20500   7.334   2.337   4.766 -1.5346 -1.5879  1.2518
  152MOL0     H20501   7.330   2.290   4.937  0.2078 -0.4147 -0.0663
  152MOL0     H20502   6.219   2.482   5.138  2.7942 -1.1537  0.5244
  152MOL0     H20503   5.973   2.430   5.154  0.2803  0.3876  1.3372
  152MOL0     H20504   5.638   2.194   5.445 -0.2894  0.8861 -0.9783
  152MOL0     H20505   5.418   2.192   5.457  2.5312  4.2281 -0.1495
  152MOL0     H20506   4.401   1.175   3.973  2.1868 -0.5314 -1.6488
  152MOL0     H20507   4.429   1.183   3.719  4.1521  0.5204 -0.8491
  152MOL0     H20508   4.148   1.412   3.276 -0.0931 -2.1297 -1.6288
  152MOL0     H20509   4.210   1.343   3.057  0.0796 -2.0265  0.5981
  152MOL0     H20510   4.364   1.220   2.900  2.5916 -1.4541  0.6049
  152MOL0     H20511   4.350   1.366   2.797 -2.3480  0.6325  2.9412
  152MOL0     H20512   4.500   1.186   2.714 -2.4472 -1.7774  1.7081
  152MOL0     H20513   4.611   1.227   2.847 -0.2732 -3.6975 -1.9006
  152MOL0     H20514   4.692   1.350   2.669 -0.5304 -1.2273  0.0767
  152MOL0     H20515   4.608   1.483   2.746 -0.6834  1.7791 -2.1069
  152MOL0     H20516   4.531   1.521   2.551  0.0493  0.5134  1.4040
  152MOL0     H20517   4.404   1.406   2.592  0.6780 -3.9949  2.5171
  152MOL0     H20518   4.614   1.207   2.290  1.5788 -1.7418  1.7669
  152MOL0     H20519   4.629   1.411   3.161  0.3813 -0.6971  1.3159
  152MOL0     H20520   4.568   1.421   3.381  0.7966  0.5146 -1.2935
  153MOL0     O20521   7.079   1.445   9.930 -0.1239 -0.8142 -0.9578
  153MOL0     C20522   7.158   1.365   9.879 -0.7709 -0.2346 -0.5339
  153MOL0     O20523   7.155   1.324   9.752 -0.1935 -0.0845 -0.0490
  153MOL0     C20524   7.084   1.387   9.649 -0.0343  0.6332 -0.1592
  153MOL0     C20525   7.022   1.510   9.651  0.4684 -0.3257 -0.4040
  153MOL0     C20526   6.945   1.544   9.541 -0.7761 -0.4735  0.7739
  153MOL0     C20527   6.959   1.473   9.415  0.0047  0.3601 -0.1524
  153MOL0     O20528   6.886   1.518   9.306 -0.4504 -0.2833  0.7906
  153MOL0     C20529   6.799   1.640   9.317  0.1817  0.2114 -0.7438
  153MOL0     C20530   6.748   1.666   9.170  0.4004 -0.1402 -0.8479
  153MOL0     C20531   6.773   1.815   9.143  0.0870  0.0366  0.7633
  153MOL0     C20532   6.714   1.856   9.004 -0.2681 -1.1307 -0.6407
  153MOL0     C20533   6.780   1.794   8.877  0.2902 -1.3082 -0.5501
  153MOL0     C20534   6.736   1.856   8.735 -0.2903 -0.8420  0.4624
  153MOL0     C20535   6.806   1.989   8.714  0.6624  0.5541 -0.2946
  153MOL0     C20536   6.766   2.050   8.582 -0.6564 -0.6659  0.4539
  153MOL0     N20537   6.808   2.191   8.555  0.7925  0.4499 -0.8398
  153MOL0     C20538   6.819   2.279   8.656 -0.0334 -0.5644  0.7237
  153MOL0     C20539   6.863   2.393   8.594  0.0712 -0.6029  0.2862
  153MOL0     C20540   6.900   2.528   8.656  0.1153 -0.6962 -0.1580
  153MOL0     C20541   7.047   2.565   8.632 -0.3446 -1.7167  0.0530
  153MOL0     C20542   7.144   2.502   8.730  0.4444  1.3435 -0.0806
  153MOL0     C20543   7.282   2.558   8.698  0.4035  0.5585 -0.3496
  153MOL0     O20544   7.286   2.701   8.732  0.2783 -0.5648 -0.2403
  153MOL0     C20545   7.392   2.782   8.696  0.3854  0.5316  0.4184
  153MOL0     C20546   7.500   2.741   8.615  0.1364  0.5086  0.1379
  153MOL0     C20547   7.599   2.828   8.560  0.3881 -0.2362  0.2125
  153MOL0     C20548   7.700   2.764   8.475  0.0903 -0.7090  0.1280
  153MOL0     C20549   7.590   2.969   8.595  0.4189  0.4613 -0.3977
  153MOL0     C20550   7.688   3.080   8.545 -0.3344 -0.1900  0.5656
  153MOL0     O20551   7.816   3.038   8.528 -0.2567 -0.0892 -0.1235
  153MOL0     C20552   7.905   3.102   8.450  0.6970 -0.3931 -0.4831
  153MOL0     C20553   7.881   3.187   8.338  0.3345 -0.4601  0.1141
  153MOL0     C20554   7.978   3.250   8.267 -0.4876  0.6239  0.1436
  153MOL0     C20555   8.112   3.237   8.300 -0.3397  0.0261  0.9810
  153MOL0     O20556   8.218   3.294   8.216 -0.1759  0.8678  0.1830
  153MOL0     C20557   8.203   3.308   8.070 -0.5665 -0.2471 -0.3878
  153MOL0     C20558   8.327   3.279   7.990  0.0031 -0.0939  1.0422
  153MOL0     C20559   8.372   3.141   7.991 -0.3650 -0.2644  1.2335
  153MOL0     C20560   8.481   3.118   8.093  0.5813  1.1650  0.4732
  153MOL0     C20561   8.550   2.982   8.104 -0.3755 -0.7847  0.4769
  153MOL0     C20562   8.437   2.881   8.136 -0.0896  1.1055  0.8570
  153MOL0     C20563   8.486   2.734   8.172 -1.0136 -0.7128  0.3814
  153MOL0     C20564   8.353   2.655   8.183  0.4413 -0.5035  0.4864
  153MOL0    Cl20565   8.275   2.630   8.026  0.3957 -0.3919 -0.2382
  153MOL0     C20566   8.141   3.151   8.409  0.1968  0.9431 -1.2201
  153MOL0     C20567   8.027   3.086   8.478 -0.0991 -0.5590  0.1810
  153MOL0     O20568   7.652   3.201   8.549 -0.4380 -0.4380 -0.7226
  153MOL0     C20569   7.475   3.008   8.671 -0.6462 -0.6743  0.5741
  153MOL0     C20570   7.384   2.917   8.721 -0.0066  0.9581 -0.3012
  153MOL0     N20571   6.864   2.367   8.452 -0.0790 -1.0613 -0.1252
  153MOL0     N20572   6.847   2.241   8.430  0.2797 -0.3140 -0.7353
  153MOL0     C20573   7.024   1.351   9.419 -0.4088  0.6354 -1.0608
  153MOL0     C20574   7.080   1.306   9.537 -0.3236 -0.6523 -0.4448
  153MOL0     C20575   7.251   1.311   9.985  0.0879  1.3322  0.4131
  153MOL0     C20576   7.372   1.255   9.933  0.7798 -1.2472  0.2654
  153MOL0     C20577   7.470   1.220  10.031  0.2574 -0.8147  0.2290
  153MOL0     C20578   7.454   1.227  10.165 -0.0439 -0.2223  0.1863
  153MOL0     O20579   7.555   1.199  10.263  0.1197 -0.8807  0.4904
  153MOL0     C20580   7.692   1.177  10.226  0.4023  0.7748 -1.0751
  153MOL0     C20581   7.776   1.159  10.360  0.4125  0.2952  0.4387
  153MOL0     C20582   7.798   1.303  10.427 -0.3699 -0.7044  0.5856
  153MOL0     C20583   7.936   1.357  10.386 -0.2471  0.4949 -0.1457
  153MOL0     C20584   7.937   1.432  10.259 -0.3344  0.6083  0.7043
  153MOL0     C20585   7.942   1.494  10.153 -0.9346 -0.0708  0.1069
  153MOL0     C20586   7.333   1.283  10.213 -0.0263 -0.1387 -0.2386
  153MOL0     C20587   7.233   1.324  10.118 -0.0928 -1.0480  0.5962
  153MOL0     H20588   7.021   1.577   9.736  2.6073 -1.5361  0.6483
  153MOL0     H20589   6.904   1.644   9.550  1.3134  0.2414  4.0004
  153MOL0     H20590   6.718   1.620   9.387  1.0564  1.9002  0.8286
  153MOL0     H20591   6.856   1.720   9.365 -0.0009  0.0559 -0.2665
  153MOL0     H20592   6.810   1.617   9.094 -0.7953  3.0750 -4.2388
  153MOL0     H20593   6.642   1.652   9.146 -0.6095  3.4574  0.8221
  153MOL0     H20594   6.718   1.876   9.216 -4.0216 -0.1330 -1.8899
  153MOL0     H20595   6.878   1.840   9.156 -0.3489  1.0474  2.9118
  153MOL0     H20596   6.608   1.832   9.010 -0.2994 -0.6660  2.6754
  153MOL0     H20597   6.716   1.965   8.997 -0.9513 -0.9118  1.7427
  153MOL0     H20598   6.885   1.818   8.896  0.4622  0.9450 -3.5781
  153MOL0     H20599   6.762   1.686   8.880 -3.3565 -0.7832  1.9232
  153MOL0     H20600   6.757   1.798   8.645  1.5016  0.1904  0.1489
  153MOL0     H20601   6.628   1.863   8.744 -0.0590  1.5986  2.2413
  153MOL0     H20602   6.789   2.051   8.803 -2.9007  2.0613 -1.8298
  153MOL0     H20603   6.913   1.966   8.715  0.7843  0.8659  2.5245
  153MOL0     H20604   6.666   2.041   8.540  0.7731 -0.5813 -3.3822
  153MOL0     H20605   6.828   1.988   8.518  2.4699  1.6876  0.9130
  153MOL0     H20606   6.797   2.272   8.762 -0.5125  0.4051  0.7009
  153MOL0     H20607   6.835   2.607   8.616 -1.6904 -1.2480  1.5324
  153MOL0     H20608   6.882   2.519   8.764  1.6535  3.3718  0.6382
  153MOL0     H20609   7.051   2.674   8.629 -1.2488 -1.6119  1.5731
  153MOL0     H20610   7.079   2.542   8.530 -0.6320  2.0916 -1.0261
  153MOL0     H20611   7.152   2.395   8.710 -1.8770  0.8268  1.2991
  153MOL0     H20612   7.104   2.517   8.831  1.5123  1.5482  0.3293
  153MOL0     H20613   7.315   2.535   8.596  1.4389  3.0983 -0.6347
  153MOL0     H20614   7.350   2.506   8.766 -0.3334  0.1459  0.0861
  153MOL0     H20615   7.512   2.634   8.600  1.3581  0.3838  1.7683
  153MOL0     H20616   7.747   2.825   8.398  0.2793  1.2777  1.7292
  153MOL0     H20617   7.779   2.740   8.547  1.6819  0.7234 -1.0782
  153MOL0     H20618   7.670   2.668   8.433 -0.3670 -0.9649  0.9953
  153MOL0     H20619   7.776   3.207   8.319 -0.1811 -3.9229 -1.3947
  153MOL0     H20620   7.942   3.324   8.196 -4.4543 -0.2146  1.0844
  153MOL0     H20621   8.139   3.225   8.039  1.6040 -1.7266 -1.1613
  153MOL0     H20622   8.165   3.405   8.039  0.7740  0.2821 -0.4376
  153MOL0     H20623   8.316   3.313   7.886 -3.8896  0.8918  1.6008
  153MOL0     H20624   8.414   3.339   8.018  4.0617 -5.0568  0.4463
  153MOL0     H20625   8.418   3.129   7.892  2.4845  0.8744  2.3192
  153MOL0     H20626   8.290   3.073   8.017 -1.9489  1.4588  0.9922
  153MOL0     H20627   8.562   3.178   8.051  0.1988  2.3753  1.4007
  153MOL0     H20628   8.462   3.156   8.194 -2.1578 -0.3283  0.6343
  153MOL0     H20629   8.627   2.982   8.181  0.3575 -2.6187 -0.1825
  153MOL0     H20630   8.603   2.957   8.011  3.5822 -0.8790  2.5349
  153MOL0     H20631   8.374   2.921   8.217  0.8107  5.7873 -0.4415
  153MOL0     H20632   8.371   2.873   8.049  1.2563 -2.6589  0.0316
  153MOL0     H20633   8.541   2.735   8.267 -0.3505 -0.0957  0.0053
  153MOL0     H20634   8.556   2.702   8.095 -2.1660 -0.4478 -0.8215
  153MOL0     H20635   8.293   2.720   8.247  1.9195  1.0263  0.3966
  153MOL0     H20636   8.370   2.560   8.234 -0.5737 -0.5808  0.6920
  153MOL0     H20637   8.245   3.152   8.441  1.1283 -0.7560 -3.8567
  153MOL0     H20638   8.055   3.028   8.565  3.0180 -1.2831 -1.1666
  153MOL0     H20639   7.470   3.116   8.681  0.5975 -0.1902 -2.8149
  153MOL0     H20640   7.293   2.946   8.773 -0.6182 -0.6867 -0.3934
  153MOL0     H20641   7.023   1.299   9.323  0.2743  3.0356 -2.4533
  153MOL0     H20642   7.122   1.206   9.549 -0.3586 -0.6824 -0.5691
  153MOL0     H20643   7.387   1.240   9.827  0.6256  1.3870 -0.1766
  153MOL0     H20644   7.564   1.187   9.989  0.7125 -0.2964  0.8286
  153MOL0     H20645   7.707   1.083  10.173 -0.8507 -0.1072  0.0830
  153MOL0     H20646   7.729   1.255  10.158 -1.1331  2.3136 -0.2350
  153MOL0     H20647   7.865   1.114  10.315  0.2330  1.5276 -1.2469
  153MOL0     H20648   7.728   1.080  10.419  1.6846 -1.0321 -0.2379
  153MOL0     H20649   7.787   1.271  10.531 -0.6953 -3.8563 -0.3295
  153MOL0     H20650   7.721   1.378  10.410  0.1103  0.3934  2.8845
  153MOL0     H20651   8.008   1.279  10.361  0.5439  1.7881 -2.1854
  153MOL0     H20652   7.973   1.417  10.470 -0.6653  1.5483 -0.6834
  153MOL0     H20653   7.939   1.557  10.067  0.2414  0.7700  0.6617
  153MOL0     H20654   7.306   1.317  10.312  0.2947 -1.2654  0.2470
  153MOL0     H20655   7.154   1.385  10.161 -2.1737 -2.9221 -0.3565
  154MOL0     O20656   8.766  11.285  10.211  1.1249  0.3275  0.5975
  154MOL0     C20657   8.665  11.352  10.229 -0.0858  0.3269  0.7259
  154MOL0     O20658   8.601  11.433  10.129  1.6661 -0.0475  0.4032
  154MOL0     C20659   8.660  11.457  10.009 -0.0572 -0.0362 -0.3421
  154MOL0     C20660   8.797  11.489   9.982 -0.8231  0.3701  0.4836
  154MOL0     C20661   8.846  11.505   9.854  0.8292  0.1509  0.0541
  154MOL0     C20662   8.761  11.484   9.752  0.0355 -0.3821  0.0095
  154MOL0     O20663   8.798  11.460   9.620 -0.0437  0.0869  0.0877
  154MOL0     C20664   8.900  11.543   9.561 -0.3098  0.7090  0.4943
  154MOL0     C20665   8.834  11.584   9.431  0.0507 -0.8227 -0.4343
  154MOL0     C20666   8.733  11.698   9.448 -0.3586 -0.7932 -0.2389
  154MOL0     C20667   8.703  11.778   9.314  0.3144  0.1500 -0.7507
  154MOL0     C20668   8.637  11.918   9.326  0.0140  0.8822 -0.2025
  154MOL0     C20669   8.616  11.985   9.188 -0.0002  0.3881  0.0655
  154MOL0     C20670   8.549  11.909   9.076 -0.6803 -0.6309  0.5769
  154MOL0     C20671   8.458  12.016   8.999  0.2541 -0.0055  0.3662
  154MOL0     N20672   8.379  11.941   8.897  0.3331 -0.0795 -0.6575
  154MOL0     C20673   8.243  11.923   8.899 -0.0795  0.3108 -0.5100
  154MOL0     C20674   8.214  11.861   8.786  0.4918  0.7269 -0.1424
  154MOL0     C20675   8.072  11.828   8.740 -0.2433 -0.2022 -0.0245
  154MOL0     C20676   8.005  11.723   8.826 -0.0670 -0.3991 -0.2262
  154MOL0     C20677   7.854  11.717   8.822  0.7714  1.1508  0.4650
  154MOL0     C20678   7.793  11.621   8.916 -0.9817  0.0218 -1.0173
  154MOL0     O20679   7.649  11.619   8.892  0.1860  0.0071 -0.4112
  154MOL0     C20680   7.575  11.505   8.870 -0.4032 -0.0169 -0.0698
  154MOL0     C20681   7.466  11.514   8.788 -0.4148 -0.5138 -0.4232
  154MOL0     C20682   7.392  11.397   8.748  0.4326 -0.7193  0.6428
  154MOL0     C20683   7.264  11.408   8.663 -0.9028  0.1270 -0.6197
  154MOL0     C20684   7.413  11.276   8.811 -0.3449  0.1685  0.5133
  154MOL0     C20685   7.335  11.150   8.780  0.1284  0.8157  0.5767
  154MOL0     O20686   7.213  11.140   8.842  0.0748 -0.2457  0.4200
  154MOL0     C20687   7.129  11.036   8.815  0.8691 -0.5937 -0.6115
  154MOL0     C20688   7.098  10.938   8.920  0.8543  0.0920  1.4180
  154MOL0     C20689   7.037  10.817   8.884  0.0293 -1.1664  0.7659
  154MOL0     C20690   6.985  10.788   8.752 -0.8145 -0.5586 -0.1188
  154MOL0     O20691   6.921  10.671   8.703 -0.1319 -0.5217  0.4210
  154MOL0     C20692   6.904  10.558   8.791 -0.2924 -0.2144 -0.0850
  154MOL0     C20693   6.888  10.434   8.708 -1.0626 -0.2288 -0.3521
  154MOL0     C20694   6.924  10.310   8.780  1.8378  0.5417  0.2851
  154MOL0     C20695   6.910  10.185   8.693 -0.7672  0.4625  0.2105
  154MOL0     C20696   6.910  10.061   8.773  0.0503  0.6194 -0.0224
  154MOL0     C20697   6.896   9.938   8.672 -0.5058 -0.4250  0.1066
  154MOL0     C20698   6.936   9.797   8.730 -0.9613 -0.7042 -0.4257
  154MOL0     C20699   7.082   9.767   8.731  0.2821  0.2360 -0.3398
  154MOL0    Cl20700   7.176   9.875   8.840  0.0514  0.1267  0.2639
  154MOL0     C20701   7.020  10.889   8.648  0.7253  0.1141 -0.9016
  154MOL0     C20702   7.077  11.018   8.691 -0.4905 -0.7812  0.1320
  154MOL0     O20703   7.395  11.063   8.716  0.2609 -0.7409  0.0703
  154MOL0     C20704   7.530  11.273   8.895 -1.0560  0.1592 -1.1552
  154MOL0     C20705   7.619  11.380   8.917  0.8055 -0.1524  0.5104
  154MOL0     N20706   8.331  11.827   8.717  0.2345 -0.1597 -0.5187
  154MOL0     N20707   8.427  11.889   8.785 -0.3234 -0.1262  0.0337
  154MOL0     C20708   8.623  11.462   9.774 -0.1774  0.0145  0.2860
  154MOL0     C20709   8.576  11.451   9.904 -0.2729  0.4308  0.4434
  154MOL0     C20710   8.610  11.358  10.367  1.1325 -0.1744  0.0711
  154MOL0     C20711   8.670  11.284  10.468  0.8012  1.0734 -0.4533
  154MOL0     C20712   8.637  11.296  10.605 -0.0963  0.2409 -0.3168
  154MOL0     C20713   8.530  11.388  10.638  0.2706  0.4702  0.4750
  154MOL0     O20714   8.491  11.400  10.769 -0.0080 -0.2730 -0.6144
  154MOL0     C20715   8.438  11.523  10.816  0.3188  0.1027  0.2999
  154MOL0     C20716   8.489  11.539  10.963  0.3453  0.2884  0.6426
  154MOL0     C20717   8.431  11.671  11.029  1.6932 -0.5432  0.2677
  154MOL0     C20718   8.447  11.791  10.941  0.0440  0.3366  0.6011
  154MOL0     C20719   8.586  11.815  10.891  0.0762  1.0471  0.0457
  154MOL0     C20720   8.694  11.825  10.842 -0.8271 -0.4688  0.9323
  154MOL0     C20721   8.459  11.458  10.534 -0.1198  0.1498  0.1583
  154MOL0     C20722   8.503  11.438  10.400 -0.1326  0.7073 -0.2965
  154MOL0     H20723   8.864  11.509  10.065  1.0263  3.3545 -1.5355
  154MOL0     H20724   8.953  11.524   9.846  0.6819  1.2051  0.3798
  154MOL0     H20725   8.922  11.631   9.621  0.4985 -0.0268  1.3100
  154MOL0     H20726   8.984  11.474   9.549 -2.3484 -2.2172  1.6522
  154MOL0     H20727   8.913  11.616   9.362  0.0759  3.5500  1.3021
  154MOL0     H20728   8.793  11.493   9.385  1.5379 -1.4416 -0.6115
  154MOL0     H20729   8.648  11.664   9.508 -0.5168 -1.3892 -0.7876
  154MOL0     H20730   8.786  11.759   9.522  1.8634 -2.8489  0.0070
  154MOL0     H20731   8.802  11.787   9.268  0.0349 -0.9088 -1.6092
  154MOL0     H20732   8.645  11.707   9.254 -1.3362  0.3392  0.5837
  154MOL0     H20733   8.541  11.896   9.373  1.0331 -1.2397  1.0579
  154MOL0     H20734   8.696  11.979   9.396 -0.3569 -0.2473  1.1406
  154MOL0     H20735   8.548  12.063   9.223 -0.9719 -1.8769  3.6828
  154MOL0     H20736   8.706  12.034   9.149  0.7382 -0.1758  1.0188
  154MOL0     H20737   8.618  11.868   9.002 -1.1287  0.1693 -0.3035
  154MOL0     H20738   8.491  11.831   9.126 -0.5274  0.7985  3.1656
  154MOL0     H20739   8.507  12.106   8.962 -0.7606  0.1088 -0.7521
  154MOL0     H20740   8.379  12.051   9.066 -3.3436 -3.0557 -1.8515
  154MOL0     H20741   8.168  11.947   8.974  0.7009 -1.6827  0.9911
  154MOL0     H20742   8.015  11.919   8.761 -3.1403 -2.1301  1.1926
  154MOL0     H20743   8.051  11.799   8.636  0.0782 -2.7343  0.5383
  154MOL0     H20744   8.034  11.750   8.928 -1.0988 -3.1805  0.8956
  154MOL0     H20745   8.047  11.623   8.809 -0.8314 -0.7380 -0.1496
  154MOL0     H20746   7.814  11.695   8.723 -0.4611  3.2458  0.4502
  154MOL0     H20747   7.815  11.816   8.847  2.0414  2.6154 -2.8543
  154MOL0     H20748   7.819  11.645   9.019 -1.4139 -4.2940  0.3202
  154MOL0     H20749   7.840  11.523   8.901  0.2711  0.3452  0.6197
  154MOL0     H20750   7.462  11.615   8.747  0.5183 -1.1367 -2.1371
  154MOL0     H20751   7.283  11.355   8.569  0.0395  1.9699 -1.5405
  154MOL0     H20752   7.176  11.370   8.716  0.1097 -0.1920  0.9023
  154MOL0     H20753   7.259  11.515   8.640 -0.1157  0.0443 -1.2290
  154MOL0     H20754   7.137  10.939   9.021  1.5077 -2.6596  1.2581
  154MOL0     H20755   7.024  10.746   8.965  2.5454 -0.6785  1.6825
  154MOL0     H20756   6.988  10.545   8.859 -0.2763 -2.3371 -0.4191
  154MOL0     H20757   6.816  10.570   8.854  1.0657 -1.8886  2.2953
  154MOL0     H20758   6.782  10.435   8.681 -1.3348 -0.0360  0.6603
  154MOL0     H20759   6.968  10.443   8.635 -0.4710 -0.3430  0.2778
  154MOL0     H20760   6.855  10.301   8.864 -0.2958  0.4935 -1.3980
  154MOL0     H20761   7.030  10.312   8.809  1.6180 -0.5898  1.2339
  154MOL0     H20762   6.820  10.186   8.632 -0.1834  0.4835 -0.6678
  154MOL0     H20763   6.989  10.180   8.617 -0.4222 -0.6304  0.6246
  154MOL0     H20764   6.836  10.061   8.853 -0.9757  0.3083 -0.9514
  154MOL0     H20765   7.002  10.057   8.832 -1.0615  0.3085  1.7748
  154MOL0     H20766   6.791   9.932   8.643 -0.0739 -2.1912 -1.2709
  154MOL0     H20767   6.954   9.959   8.581  0.7471 -1.1384  0.7148
  154MOL0     H20768   6.868   9.734   8.672 -1.6084 -1.1269  0.7573
  154MOL0     H20769   6.902   9.793   8.834 -0.6407 -1.2335 -0.3368
  154MOL0     H20770   7.126   9.767   8.631  1.9525 -0.8613  0.3510
  154MOL0     H20771   7.100   9.665   8.765  2.2266  0.2932 -1.0597
  154MOL0     H20772   6.979  10.865   8.550 -0.1414 -0.0127 -0.5171
  154MOL0     H20773   7.085  11.090   8.610 -2.5514 -0.1284  0.4568
  154MOL0     H20774   7.563  11.174   8.928 -3.5074 -0.1994  0.4595
  154MOL0     H20775   7.710  11.364   8.974  0.6892  1.7642  1.3196
  154MOL0     H20776   8.565  11.463   9.682 -1.5267  0.2502  1.1221
  154MOL0     H20777   8.469  11.456   9.924 -0.2588 -1.8738  1.3646
  154MOL0     H20778   8.732  11.197  10.450  0.2409  0.3976  0.7497
  154MOL0     H20779   8.700  11.244  10.677  2.5576  4.3526  0.6968
  154MOL0     H20780   8.476  11.600  10.748 -0.6728  1.1496  0.9010
  154MOL0     H20781   8.329  11.522  10.818  0.1474  2.9646 -1.2733
  154MOL0     H20782   8.598  11.532  10.964  0.3702  0.5414  0.0925
  154MOL0     H20783   8.447  11.452  11.015  0.1290 -0.1372 -0.2115
  154MOL0     H20784   8.482  11.679  11.126  1.4583 -0.9123  0.4275
  154MOL0     H20785   8.324  11.676  11.053  0.9163 -0.5992 -2.7767
  154MOL0     H20786   8.416  11.871  11.009  1.0809 -2.0433  4.1576
  154MOL0     H20787   8.375  11.782  10.859  1.1790 -0.5948 -0.3180
  154MOL0     H20788   8.795  11.850  10.818 -1.3321  2.3516  1.3782
  154MOL0     H20789   8.376  11.526  10.551  0.1178  0.1194  1.5279
  154MOL0     H20790   8.455  11.490  10.318  0.2745 -0.8241 -1.5373
  155MOL0     O20791   7.584  11.151   2.898 -0.1587  0.3131 -0.1447
  155MOL0     C20792   7.702  11.173   2.930  0.2299 -1.2052  0.1887
  155MOL0     O20793   7.763  11.141   3.052 -0.2155  0.2790  0.0343
  155MOL0     C20794   7.695  11.091   3.164 -0.4965 -0.1012  0.1545
  155MOL0     C20795   7.784  11.036   3.257  1.0405 -0.3081 -1.3188
  155MOL0     C20796   7.733  10.968   3.377  1.0717 -0.6302  0.1844
  155MOL0     C20797   7.595  10.972   3.400 -0.7607  0.4429 -0.9620
  155MOL0     O20798   7.544  10.914   3.519  0.2433  0.3291 -0.2379
  155MOL0     C20799   7.405  10.937   3.552 -0.2909 -0.2294  0.2817
  155MOL0     C20800   7.393  10.896   3.695 -0.3209 -0.2094 -0.9773
  155MOL0     C20801   7.267  10.951   3.767  0.3253 -0.6676  0.7020
  155MOL0     C20802   7.239  10.874   3.897 -0.1275  0.2587 -0.5817
  155MOL0     C20803   7.111  10.914   3.969 -0.3342  0.0141  0.4653
  155MOL0     C20804   7.127  11.032   4.067  0.3902 -0.0856 -0.1538
  155MOL0     C20805   6.987  11.098   4.106  0.0615 -0.0123  0.1780
  155MOL0     C20806   6.900  11.005   4.189  0.0511  0.1374 -0.6741
  155MOL0     N20807   6.931  11.003   4.328  0.7812 -0.0664  0.8242
  155MOL0     C20808   6.977  11.106   4.396  0.3102  0.1558 -0.0563
  155MOL0     C20809   6.975  11.063   4.528  0.1317 -0.7453  0.0978
  155MOL0     C20810   7.009  11.156   4.645 -0.8351 -0.8442 -0.0428
  155MOL0     C20811   7.157  11.192   4.646 -0.3109  0.0265  0.5067
  155MOL0     C20812   7.240  11.076   4.675  1.0398  0.7474 -0.0964
  155MOL0     C20813   7.382  11.095   4.648 -0.4287 -0.2394  1.1370
  155MOL0     O20814   7.412  11.152   4.521  0.2092  0.6383  0.5727
  155MOL0     C20815   7.540  11.121   4.473 -0.2983 -0.5970 -0.2195
  155MOL0     C20816   7.568  11.040   4.360 -0.2016 -0.2174 -0.3155
  155MOL0     C20817   7.700  11.025   4.304 -0.1072  0.1654  0.2165
  155MOL0     C20818   7.709  10.966   4.165 -0.6881  1.1034  0.5329
  155MOL0     C20819   7.806  11.083   4.379 -0.1125  0.2558 -0.3841
  155MOL0     C20820   7.959  11.073   4.335 -0.1093 -0.6477  0.1121
  155MOL0     O20821   8.037  11.176   4.375  1.0463 -0.4197 -0.8137
  155MOL0     C20822   8.165  11.185   4.331 -0.4751 -0.8660 -0.1564
  155MOL0     C20823   8.254  11.084   4.285 -0.9053  0.9022 -0.0443
  155MOL0     C20824   8.389  11.115   4.258  0.0719 -0.4352 -0.1581
  155MOL0     C20825   8.442  11.237   4.279  0.2165 -0.2973  0.1248
  155MOL0     O20826   8.578  11.249   4.279 -0.4752  0.4772 -0.3304
  155MOL0     C20827   8.636  11.379   4.288  0.4673 -0.2570  0.8921
  155MOL0     C20828   8.639  11.462   4.161  0.5363  0.2451  0.0711
  155MOL0     C20829   8.715  11.584   4.205 -0.7447  0.7177  0.0639
  155MOL0     C20830   8.729  11.679   4.080 -0.0522  0.8084 -0.4338
  155MOL0     C20831   8.825  11.796   4.125  0.3946  0.1485  0.8142
  155MOL0     C20832   8.825  11.911   4.022 -0.2024 -0.0939  0.6788
  155MOL0     C20833   8.879  11.874   3.886  0.4757 -0.0774 -0.6303
  155MOL0     C20834   8.834  11.994   3.798 -0.4413 -0.3509 -0.1488
  155MOL0    Cl20835   8.912  11.978   3.639  0.2430 -0.2226 -0.0854
  155MOL0     C20836   8.346  11.344   4.299  0.3115 -0.2323 -0.2924
  155MOL0     C20837   8.215  11.316   4.325 -0.6018  0.0407 -0.7963
  155MOL0     O20838   7.993  10.977   4.271 -0.2468  0.5025 -0.0869
  155MOL0     C20839   7.786  11.150   4.499 -1.0698 -0.5981 -0.2469
  155MOL0     C20840   7.653  11.171   4.536 -0.0400  0.0603  0.2954
  155MOL0     N20841   6.961  10.924   4.519 -0.4320  0.1926 -0.5998
  155MOL0     N20842   6.931  10.881   4.401  0.5090 -0.2823  0.2723
  155MOL0     C20843   7.505  11.029   3.301  0.4008 -0.3142 -0.6157
  155MOL0     C20844   7.550  11.087   3.183  0.5340  0.5931  0.5817
  155MOL0     C20845   7.790  11.254   2.835 -0.2336  0.4312  0.3311
  155MOL0     C20846   7.933  11.251   2.850  0.1948 -0.5016  0.6972
  155MOL0     C20847   8.020  11.335   2.762 -0.6915  0.4331 -0.3635
  155MOL0     C20848   7.967  11.409   2.658  0.2954 -0.1935 -0.4272
  155MOL0     O20849   8.050  11.491   2.584 -0.0205 -0.0673 -0.2453
  155MOL0     C20850   8.081  11.618   2.650  1.2018 -0.0616  0.1319
  155MOL0     C20851   8.005  11.738   2.573 -0.5257 -0.1313 -0.3493
  155MOL0     C20852   8.011  11.729   2.422  0.3952  0.9362  0.8946
  155MOL0     C20853   8.107  11.825   2.354 -0.5360 -0.3710  0.1334
  155MOL0     C20854   8.241  11.787   2.398  0.3976  0.1527  0.3168
  155MOL0     C20855   8.347  11.788   2.455  0.1178 -1.1699  0.8062
  155MOL0     C20856   7.830  11.405   2.634 -0.1693 -0.0936 -0.4906
  155MOL0     C20857   7.740  11.330   2.722 -1.1663 -0.2621  0.6954
  155MOL0     H20858   7.890  11.046   3.239  0.9347  3.0013 -0.6363
  155MOL0     H20859   7.803  10.937   3.454 -0.5145  1.0601  2.4656
  155MOL0     H20860   7.372  11.040   3.538  1.0319  0.2549  0.6214
  155MOL0     H20861   7.332  10.890   3.486  1.7748  0.4897 -2.7213
  155MOL0     H20862   7.412  10.788   3.700  2.4088  0.2095 -0.8910
  155MOL0     H20863   7.481  10.935   3.747  2.9324 -2.9347 -3.8470
  155MOL0     H20864   7.276  11.058   3.785  0.8759 -0.2021 -1.9005
  155MOL0     H20865   7.188  10.934   3.693  0.9260 -0.5584  0.0314
  155MOL0     H20866   7.232  10.766   3.883 -4.7099  0.1047  1.1870
  155MOL0     H20867   7.319  10.897   3.968 -0.7796  1.3016 -0.1500
  155MOL0     H20868   7.038  10.949   3.896 -2.5802 -0.0458  2.5170
  155MOL0     H20869   7.070  10.827   4.022 -1.0753 -2.0593 -3.2200
  155MOL0     H20870   7.173  11.001   4.161 -4.4930 -0.5618  2.4444
  155MOL0     H20871   7.194  11.107   4.025  2.0902 -0.1786  2.1999
  155MOL0     H20872   6.998  11.192   4.160 -2.9026  1.2780 -1.2517
  155MOL0     H20873   6.931  11.121   4.015 -0.9716 -2.3287  0.1494
  155MOL0     H20874   6.912  10.902   4.153 -1.0296 -1.6984  3.5351
  155MOL0     H20875   6.794  11.032   4.180  0.4618  1.6333 -1.2194
  155MOL0     H20876   6.972  11.206   4.354 -0.5103 -0.8829 -2.6497
  155MOL0     H20877   6.952  11.248   4.629  1.0411  0.5272  0.8303
  155MOL0     H20878   6.985  11.119   4.745 -0.3894  1.0517  0.8013
  155MOL0     H20879   7.165  11.254   4.735  5.4639 -4.1354  3.5547
  155MOL0     H20880   7.186  11.240   4.552 -0.3065 -0.0910  0.4471
  155MOL0     H20881   7.203  10.982   4.632  2.3883  0.0336  0.2506
  155MOL0     H20882   7.216  11.063   4.780 -2.2319 -0.1060 -0.8375
  155MOL0     H20883   7.437  11.005   4.679  3.1139  1.5758  0.6980
  155MOL0     H20884   7.417  11.170   4.720  0.5372 -0.6368  1.1026
  155MOL0     H20885   7.480  11.003   4.308 -1.0025 -0.0204  0.8326
  155MOL0     H20886   7.704  11.036   4.081 -2.9723  2.5553  1.7600
  155MOL0     H20887   7.796  10.900   4.159 -0.2386  1.8165 -1.3837
  155MOL0     H20888   7.623  10.900   4.152 -1.7055  2.2993  0.9822
  155MOL0     H20889   8.217  10.983   4.273  0.8193  0.3757 -1.2230
  155MOL0     H20890   8.459  11.037   4.230  0.0142 -0.7449  0.5284
  155MOL0     H20891   8.601  11.439   4.373 -0.8212 -0.8963  0.8412
  155MOL0     H20892   8.740  11.358   4.312  0.2086 -1.3487  1.1331
  155MOL0     H20893   8.694  11.406   4.085  1.7848 -1.2807  1.9896
  155MOL0     H20894   8.540  11.497   4.130  1.4236  2.6414 -0.2504
  155MOL0     H20895   8.812  11.569   4.254 -1.5770  0.9923  1.8614
  155MOL0     H20896   8.653  11.644   4.272 -0.4957 -0.0323  0.9880
  155MOL0     H20897   8.775  11.617   4.002 -1.0363 -1.9135  0.9835
  155MOL0     H20898   8.630  11.717   4.051 -0.8857  0.1332  1.3203
  155MOL0     H20899   8.924  11.755   4.146 -0.1312 -1.1518  0.8359
  155MOL0     H20900   8.777  11.835   4.214 -2.5342  1.4609 -1.1853
  155MOL0     H20901   8.732  11.966   4.007 -0.4483 -0.1688  1.8511
  155MOL0     H20902   8.891  11.992   4.057 -0.2223  0.0234  0.4499
  155MOL0     H20903   8.845  11.775   3.854 -4.0509  0.2699  2.2184
  155MOL0     H20904   8.987  11.859   3.893  0.6312  1.2443  0.1565
  155MOL0     H20905   8.852  12.092   3.843 -0.6121 -0.1737 -0.4698
  155MOL0     H20906   8.728  11.986   3.774 -0.1033  1.0474 -2.3469
  155MOL0     H20907   8.370  11.450   4.309  1.9907 -0.7108  1.2609
  155MOL0     H20908   8.144  11.397   4.334 -0.4727 -0.0874  2.6511
  155MOL0     H20909   7.866  11.191   4.560 -0.1780  1.2199 -2.4713
  155MOL0     H20910   7.639  11.221   4.632  1.0393  1.3953 -0.2130
  155MOL0     H20911   7.398  11.024   3.320  0.4874 -0.4740 -0.1596
  155MOL0     H20912   7.484  11.139   3.115  1.8168  1.2617 -0.1957
  155MOL0     H20913   7.984  11.194   2.926  1.4967 -1.3665 -0.7619
  155MOL0     H20914   8.127  11.350   2.773 -0.6206  1.8428 -2.3569
  155MOL0     H20915   8.046  11.626   2.754 -1.5273 -3.5959 -0.3085
  155MOL0     H20916   8.189  11.631   2.649  1.0564  1.7285 -2.7445
  155MOL0     H20917   8.055  11.826   2.615  2.5857 -2.8191  2.1444
  155MOL0     H20918   7.899  11.736   2.603 -1.1119  3.0929 -1.8256
  155MOL0     H20919   7.917  11.740   2.368  0.7098  0.2423  0.1750
  155MOL0     H20920   8.038  11.630   2.385 -1.2951 -0.5148  3.3031
  155MOL0     H20921   8.078  11.927   2.381 -1.8032 -0.4484 -0.8590
  155MOL0     H20922   8.111  11.820   2.245  0.7758  2.8938 -0.0691
  155MOL0     H20923   8.426  11.799   2.526 -1.6857  0.4383  2.7284
  155MOL0     H20924   7.792  11.461   2.549 -1.6540 -2.2680 -1.3481
  155MOL0     H20925   7.634  11.327   2.699 -0.4651 -0.6662 -3.3532
  156MOL0     O20926  11.132   3.431   4.036 -0.0775 -0.1503  0.4802
  156MOL0     C20927  11.108   3.349   4.124  0.6389 -0.4322 -0.1310
  156MOL0     O20928  11.136   3.353   4.260  0.5975  0.9323  0.3493
  156MOL0     C20929  11.174   3.476   4.311  0.5317  0.0421 -0.9640
  156MOL0     C20930  11.257   3.569   4.242  0.4963  0.5847 -0.3202
  156MOL0     C20931  11.304   3.687   4.304  0.2975 -1.4223  0.3531
  156MOL0     C20932  11.264   3.729   4.425 -0.2229 -0.3418 -0.4454
  156MOL0     O20933  11.320   3.826   4.491 -0.0894  0.2350 -0.5647
  156MOL0     C20934  11.240   3.922   4.545  0.8035  0.4763  0.2442
  156MOL0     C20935  11.303   4.058   4.565  0.0352 -0.4158 -0.3446
  156MOL0     C20936  11.295   4.125   4.425 -0.7354  1.0458 -0.8562
  156MOL0     C20937  11.377   4.048   4.310 -0.6162 -0.3239  0.4148
  156MOL0     C20938  11.420   4.146   4.196 -0.6158  0.1191  0.4744
  156MOL0     C20939  11.472   4.077   4.073 -0.6507  0.6038  0.9788
  156MOL0     C20940  11.611   4.009   4.101 -0.0302 -0.2389 -0.1877
  156MOL0     C20941  11.721   4.091   4.037  0.3115 -0.6353 -0.9939
  156MOL0     N20942  11.710   4.099   3.895 -0.5268  0.2657  0.3204
  156MOL0     C20943  11.705   3.998   3.797 -0.7321  0.6184  0.9732
  156MOL0     C20944  11.671   4.068   3.682 -0.3845 -0.0220 -0.2296
  156MOL0     C20945  11.650   4.008   3.547 -0.0516 -0.1066 -0.6447
  156MOL0     C20946  11.540   3.901   3.554  0.5558 -0.6180  0.2704
  156MOL0     C20947  11.518   3.850   3.405 -0.1357 -0.4281 -0.8240
  156MOL0     C20948  11.434   3.724   3.419 -0.2526  0.2353 -0.6915
  156MOL0     O20949  11.298   3.756   3.390 -0.0676 -0.2959 -0.4620
  156MOL0     C20950  11.202   3.667   3.408  0.1244  0.1411  0.2034
  156MOL0     C20951  11.182   3.560   3.314  0.1706 -0.8432  0.4485
  156MOL0     C20952  11.077   3.470   3.337  0.1527  1.5799  0.4837
  156MOL0     C20953  11.036   3.373   3.217 -0.2795 -0.2056 -0.5532
  156MOL0     C20954  11.016   3.459   3.463  1.1712 -0.1786  0.0901
  156MOL0     C20955  10.911   3.354   3.505  0.0133 -0.5875  0.5752
  156MOL0     O20956  10.818   3.394   3.602 -0.3226  0.1610  0.3302
  156MOL0     C20957  10.701   3.323   3.626  0.1598 -0.3583  0.1342
  156MOL0     C20958  10.699   3.186   3.660  0.7709  0.4217 -0.0342
  156MOL0     C20959  10.574   3.119   3.664  1.4438 -0.1748  0.0803
  156MOL0     C20960  10.449   3.178   3.640 -0.5457 -0.7297  1.0234
  156MOL0     O20961  10.322   3.132   3.638  0.0078 -0.1919  0.8646
  156MOL0     C20962  10.301   2.991   3.637 -0.4363 -0.5528  0.2725
  156MOL0     C20963  10.154   2.970   3.672 -0.6591 -0.3949  0.8093
  156MOL0     C20964  10.061   3.044   3.582  0.6867 -0.6315 -0.4801
  156MOL0     C20965  10.056   3.008   3.437  0.2219  0.5598  0.1149
  156MOL0     C20966   9.976   3.094   3.336 -0.8868 -0.0595 -0.5863
  156MOL0     C20967   9.987   3.026   3.205  0.0622  0.8107 -0.5172
  156MOL0     C20968   9.910   3.099   3.093 -0.1849 -0.3646 -1.1078
  156MOL0     C20969   9.760   3.071   3.117 -0.4658  0.3289  0.5931
  156MOL0    Cl20970   9.724   2.927   3.012  0.4314 -0.1757 -0.5677
  156MOL0     C20971  10.457   3.321   3.628  0.5242 -0.0976 -0.0438
  156MOL0     C20972  10.577   3.385   3.608 -0.1900 -0.1669 -0.0700
  156MOL0     O20973  10.918   3.248   3.455 -0.1307  0.1741 -0.0359
  156MOL0     C20974  11.056   3.556   3.556  0.4154  0.4510 -0.5042
  156MOL0     C20975  11.134   3.662   3.523  0.1731  0.4460 -0.7218
  156MOL0     N20976  11.667   4.206   3.703  0.5254 -0.0702 -0.3376
  156MOL0     N20977  11.706   4.223   3.833 -0.1513 -0.5897 -0.2782
  156MOL0     C20978  11.170   3.643   4.496  0.6677 -0.3174  0.2192
  156MOL0     C20979  11.129   3.515   4.440 -0.0414  0.1042  0.4675
  156MOL0     C20980  11.077   3.212   4.075 -0.3328 -0.1393  0.0981
  156MOL0     C20981  11.087   3.167   3.941 -0.8348 -0.2905  0.0324
  156MOL0     C20982  11.062   3.037   3.904 -0.9341 -1.1147 -0.3271
  156MOL0     C20983  11.013   2.947   3.996  0.0252 -0.3012  1.0311
  156MOL0     O20984  11.001   2.817   3.970  0.6306  0.4290 -0.8295
  156MOL0     C20985  10.918   2.784   3.854 -0.6663  0.3697  0.6127
  156MOL0     C20986  10.861   2.635   3.860 -0.1627 -0.3141  0.0370
  156MOL0     C20987  10.832   2.598   4.006  0.2317 -0.7964 -0.9313
  156MOL0     C20988  10.736   2.479   4.018 -0.5295  0.1484  0.3172
  156MOL0     C20989  10.806   2.359   3.981  0.8893  0.4417 -0.5319
  156MOL0     C20990  10.852   2.257   3.943 -0.1465 -0.2556 -0.2398
  156MOL0     C20991  10.996   2.983   4.131 -1.3940 -0.7593  0.8342
  156MOL0     C20992  11.036   3.114   4.167 -0.0626 -0.2694  0.3258
  156MOL0     H20993  11.299   3.538   4.147 -0.3479  1.8894 -1.1488
  156MOL0     H20994  11.372   3.751   4.247 -0.4102 -1.4625 -0.5519
  156MOL0     H20995  11.152   3.935   4.482 -0.2663  2.0302  1.9757
  156MOL0     H20996  11.201   3.886   4.641  1.0593 -1.2891 -0.2660
  156MOL0     H20997  11.242   4.106   4.642 -2.9306 -1.8564 -1.5975
  156MOL0     H20998  11.408   4.034   4.582  0.3442 -0.0766 -1.6823
  156MOL0     H20999  11.191   4.139   4.397 -1.3553  0.4294  1.0251
  156MOL0     H21000  11.326   4.226   4.451 -0.6899 -0.0056  4.1355
  156MOL0     H21001  11.467   4.004   4.352  2.7352  1.0262 -4.4182
  156MOL0     H21002  11.314   3.971   4.265 -0.4367 -0.8010  0.9820
  156MOL0     H21003  11.342   4.218   4.169  0.9288  1.6056 -0.1553
  156MOL0     H21004  11.505   4.204   4.231 -2.4879  3.2472  0.2172
  156MOL0     H21005  11.398   4.012   4.027  0.6253 -0.8408  0.8910
  156MOL0     H21006  11.496   4.159   4.004  1.7029 -0.5744  0.2723
  156MOL0     H21007  11.628   4.000   4.209  0.7302  0.0097 -0.2820
  156MOL0     H21008  11.613   3.902   4.078 -0.5050  0.2150 -2.5185
  156MOL0     H21009  11.820   4.061   4.073 -0.4849 -0.1468  1.8833
  156MOL0     H21010  11.712   4.194   4.074  1.0782 -0.2485 -1.8583
  156MOL0     H21011  11.715   3.890   3.798 -0.6633  0.5898  3.6151
  156MOL0     H21012  11.618   4.081   3.472 -1.5807  1.8594  1.7848
  156MOL0     H21013  11.745   3.959   3.522  0.5030 -1.6294  3.6088
  156MOL0     H21014  11.448   3.931   3.604  1.3770 -0.1406  1.5433
  156MOL0     H21015  11.590   3.825   3.615  1.5278  0.7274  1.2023
  156MOL0     H21016  11.616   3.837   3.358  0.7626  3.1721 -0.2382
  156MOL0     H21017  11.461   3.924   3.348  0.3841  0.3984 -0.2929
  156MOL0     H21018  11.445   3.673   3.515  2.5091  1.7536 -0.0880
  156MOL0     H21019  11.468   3.654   3.343  2.3633  0.0722  0.5410
  156MOL0     H21020  11.221   3.552   3.213 -0.9204  0.2716 -0.0894
  156MOL0     H21021  11.063   3.269   3.235  1.5551  0.5979  1.8557
  156MOL0     H21022  10.927   3.380   3.210 -0.5121  0.5430  2.3627
  156MOL0     H21023  11.072   3.419   3.125  0.2534 -2.4257 -1.5122
  156MOL0     H21024  10.798   3.142   3.669  1.2419  0.2563 -4.3021
  156MOL0     H21025  10.560   3.020   3.708 -2.4204 -1.1523 -2.8058
  156MOL0     H21026  10.304   2.948   3.536 -4.3593 -3.7675  1.2608
  156MOL0     H21027  10.375   2.947   3.703  1.2742  2.5876  0.6398
  156MOL0     H21028  10.145   2.868   3.632 -0.1420  0.1646 -0.8093
  156MOL0     H21029  10.123   2.985   3.776 -5.1014  1.6217 -0.5437
  156MOL0     H21030  10.076   3.152   3.594  0.1199 -0.4030 -1.6031
  156MOL0     H21031   9.960   3.017   3.615 -0.7948  1.5539 -2.7972
  156MOL0     H21032  10.160   2.990   3.409  0.5652  2.3296  0.1246
  156MOL0     H21033  10.007   2.910   3.443  0.3148  0.3461 -1.8127
  156MOL0     H21034  10.013   3.196   3.323 -2.2538  0.5298 -0.0630
  156MOL0     H21035   9.878   3.109   3.381  0.5336  0.1742  2.6517
  156MOL0     H21036  10.090   3.035   3.170 -0.4815  3.0101 -1.7269
  156MOL0     H21037   9.963   2.924   3.236  1.8459  1.1199  2.2426
  156MOL0     H21038   9.942   3.066   2.994  2.5658  0.3387 -0.5280
  156MOL0     H21039   9.924   3.207   3.101  0.2200 -0.3399 -2.0378
  156MOL0     H21040   9.702   3.159   3.088  0.1151 -0.2303 -2.5321
  156MOL0     H21041   9.742   3.048   3.223  2.6489 -1.2491  0.9017
  156MOL0     H21042  10.367   3.380   3.628 -0.1848 -1.1323  1.2045
  156MOL0     H21043  10.573   3.490   3.581 -1.7001 -0.5988 -1.7434
  156MOL0     H21044  11.012   3.550   3.655  0.1006 -0.7199 -0.7002
  156MOL0     H21045  11.150   3.732   3.605  2.3414 -1.8027  0.9083
  156MOL0     H21046  11.126   3.660   4.594 -3.4256  1.5395 -1.6878
  156MOL0     H21047  11.068   3.446   4.498  1.4969 -2.0788 -0.3462
  156MOL0     H21048  11.121   3.237   3.866 -1.0811  0.2950  0.4605
  156MOL0     H21049  11.067   3.009   3.799 -4.3679  2.0731 -1.5755
  156MOL0     H21050  10.840   2.859   3.841  0.3304  1.7648  2.2663
  156MOL0     H21051  10.983   2.804   3.768 -0.5349 -2.0164  0.0906
  156MOL0     H21052  10.937   2.565   3.823  1.9237  1.7621  0.1956
  156MOL0     H21053  10.775   2.622   3.794 -0.1242 -1.3297  0.1627
  156MOL0     H21054  10.781   2.688   4.040  2.4189  0.8940 -1.8873
  156MOL0     H21055  10.924   2.581   4.064  2.0523  2.4356 -2.5688
  156MOL0     H21056  10.640   2.499   3.971 -1.4681 -5.2904 -0.7394
  156MOL0     H21057  10.707   2.471   4.124  1.1087  0.3210  0.8104
  156MOL0     H21058  10.910   2.177   3.901  1.3832  1.6746 -2.0386
  156MOL0     H21059  10.955   2.905   4.195 -1.3608 -1.3590  0.1339
  156MOL0     H21060  11.041   3.138   4.273  1.1167  1.2058 -0.0268
  157MOL0     O21061   1.707   7.175   6.444  0.4118  0.5166 -0.3402
  157MOL0     C21062   1.776   7.251   6.514 -1.0512  0.0056 -0.1238
  157MOL0     O21063   1.748   7.316   6.630 -0.2038 -0.0817  0.0422
  157MOL0     C21064   1.631   7.285   6.685 -0.0966  0.1478  0.3184
  157MOL0     C21065   1.527   7.381   6.698  0.2695  0.1923 -0.4607
  157MOL0     C21066   1.406   7.349   6.763 -0.0283  0.6084  0.4481
  157MOL0     C21067   1.393   7.215   6.826 -0.2432 -0.0506 -0.4362
  157MOL0     O21068   1.280   7.197   6.894  0.0533 -0.4592 -0.1293
  157MOL0     C21069   1.226   7.064   6.915 -0.2001  0.2424 -1.2991
  157MOL0     C21070   1.141   7.064   7.049  0.0423  0.3387 -0.3510
  157MOL0     C21071   1.225   7.116   7.174  0.4356 -0.2055 -0.0695
  157MOL0     C21072   1.343   7.029   7.203  0.3338  0.4346  0.9445
  157MOL0     C21073   1.393   7.035   7.347  0.3633 -0.4578 -0.1295
  157MOL0     C21074   1.298   6.958   7.442  0.1159  0.2688  0.2567
  157MOL0     C21075   1.355   6.947   7.593  1.0394  0.7321 -0.3615
  157MOL0     C21076   1.282   6.825   7.644 -0.3838  0.3945 -0.6359
  157MOL0     N21077   1.311   6.800   7.784 -0.2768  0.4349  0.3252
  157MOL0     C21078   1.240   6.854   7.889 -0.0434 -0.3676 -0.1321
  157MOL0     C21079   1.303   6.797   7.995 -0.1826  0.0211 -0.7066
  157MOL0     C21080   1.281   6.843   8.139  0.0238 -0.2825 -0.6528
  157MOL0     C21081   1.377   6.950   8.189 -0.6465 -0.2073  0.0112
  157MOL0     C21082   1.524   6.905   8.195 -1.1243  0.0400  0.1713
  157MOL0     C21083   1.546   6.794   8.292 -1.0878  0.7402  0.8103
  157MOL0     O21084   1.512   6.840   8.421  0.0233 -0.3229  0.3471
  157MOL0     C21085   1.532   6.757   8.531  0.8825 -0.4619  1.0346
  157MOL0     C21086   1.576   6.624   8.513  0.2471  0.4554 -0.5621
  157MOL0     C21087   1.599   6.545   8.632 -0.1038  0.4929 -1.0749
  157MOL0     C21088   1.654   6.415   8.607 -0.5144  0.4169 -0.6788
  157MOL0     C21089   1.560   6.589   8.763 -0.3648  0.1577 -0.3288
  157MOL0     C21090   1.560   6.506   8.888 -0.5310  0.6238 -0.2819
  157MOL0     O21091   1.514   6.571   9.000 -0.3370 -0.0667  0.6762
  157MOL0     C21092   1.489   6.497   9.118 -0.0859 -0.2654  0.5035
  157MOL0     C21093   1.357   6.449   9.150 -0.6889  0.0535 -0.1457
  157MOL0     C21094   1.337   6.359   9.247  0.4080  1.4533  0.5191
  157MOL0     C21095   1.448   6.307   9.324  0.5260  0.0734  0.1382
  157MOL0     O21096   1.431   6.224   9.430 -0.3129  0.0626 -0.4031
  157MOL0     C21097   1.298   6.219   9.495 -0.2377 -0.4542  0.0804
  157MOL0     C21098   1.298   6.123   9.611  0.4755  0.5724 -0.2628
  157MOL0     C21099   1.366   6.196   9.726  0.1781  0.5267  0.7339
  157MOL0     C21100   1.398   6.119   9.857  0.3064  0.6158 -0.3385
  157MOL0     C21101   1.479   6.196   9.961 -0.1366  0.8469  0.2989
  157MOL0     C21102   1.545   6.104  10.078  0.1944 -0.6945 -1.2653
  157MOL0     C21103   1.428   6.051  10.165  0.6170  0.0370  0.2025
  157MOL0     C21104   1.392   6.152  10.270  0.4992 -1.0053 -0.9958
  157MOL0    Cl21105   1.217   6.116  10.328 -0.3007  0.0009  0.0283
  157MOL0     C21106   1.576   6.355   9.301  0.2640 -0.7328  0.2264
  157MOL0     C21107   1.597   6.452   9.195  0.1196 -0.4810 -0.2791
  157MOL0     O21108   1.594   6.392   8.885 -0.0619 -1.8898  0.1988
  157MOL0     C21109   1.508   6.719   8.767  0.1909 -0.1675 -0.2989
  157MOL0     C21110   1.499   6.800   8.651 -0.4117 -0.8075  0.0814
  157MOL0     N21111   1.394   6.710   7.954 -0.7941  0.3174  0.6652
  157MOL0     N21112   1.388   6.700   7.822  0.3300 -0.3269 -0.0056
  157MOL0     C21113   1.493   7.123   6.804  0.9831  0.3274  0.6172
  157MOL0     C21114   1.608   7.162   6.741 -0.5816  0.5239 -0.3975
  157MOL0     C21115   1.911   7.277   6.468  0.5828 -0.4666  0.6534
  157MOL0     C21116   1.950   7.215   6.345 -1.1655  0.5648 -0.9368
  157MOL0     C21117   2.080   7.238   6.287 -0.3168 -0.4890 -0.6556
  157MOL0     C21118   2.168   7.324   6.349 -0.3155 -0.0237  0.0631
  157MOL0     O21119   2.288   7.344   6.286  0.1950 -0.4587 -0.3152
  157MOL0     C21120   2.386   7.441   6.324  0.1439 -0.5194  0.2018
  157MOL0     C21121   2.336   7.578   6.267  0.2263  1.1202  0.3709
  157MOL0     C21122   2.416   7.688   6.325 -0.3543  0.4188 -0.7414
  157MOL0     C21123   2.416   7.814   6.227 -0.9504  0.2709 -0.3397
  157MOL0     C21124   2.298   7.894   6.238  1.0019  0.3022 -0.3385
  157MOL0     C21125   2.194   7.963   6.255  1.0017 -0.1651 -0.9741
  157MOL0     C21126   2.133   7.387   6.470  0.9042 -0.5117  0.0179
  157MOL0     C21127   1.997   7.363   6.527 -0.2629  0.3510 -1.0617
  157MOL0     H21128   1.540   7.477   6.649 -2.2524  0.2738 -1.0911
  157MOL0     H21129   1.313   7.406   6.764 -0.2066  0.3492  2.3079
  157MOL0     H21130   1.171   7.025   6.829 -3.3809  0.9806  0.2792
  157MOL0     H21131   1.311   6.998   6.936  2.4745  3.6729 -0.5740
  157MOL0     H21132   1.061   7.138   7.040  0.5147  0.8142 -0.7085
  157MOL0     H21133   1.089   6.969   7.064  2.6193 -0.7199  2.8561
  157MOL0     H21134   1.266   7.213   7.143  1.6860 -1.3303 -2.1531
  157MOL0     H21135   1.167   7.133   7.265  1.1676  0.3139  0.3063
  157MOL0     H21136   1.314   6.929   7.170  2.3402 -0.1305  0.7561
  157MOL0     H21137   1.416   7.066   7.131 -1.6557  1.4806 -0.6376
  157MOL0     H21138   1.493   6.991   7.356 -0.4166 -2.5691 -1.0694
  157MOL0     H21139   1.402   7.138   7.382  0.6993 -0.3430 -0.5384
  157MOL0     H21140   1.209   7.021   7.446  1.9310  3.1424 -1.1065
  157MOL0     H21141   1.266   6.861   7.404  2.6476 -0.5014 -0.1014
  157MOL0     H21142   1.463   6.931   7.601  0.9743  0.6006  0.3075
  157MOL0     H21143   1.322   7.032   7.653  0.4097  0.0162  0.3304
  157MOL0     H21144   1.317   6.737   7.589 -2.3102 -2.6003  2.5004
  157MOL0     H21145   1.174   6.842   7.633 -0.1950  1.8215 -0.4591
  157MOL0     H21146   1.164   6.930   7.902  0.0871 -0.4420  1.1372
  157MOL0     H21147   1.184   6.893   8.146  1.2155  2.0480  0.9172
  157MOL0     H21148   1.275   6.757   8.207  1.3209 -0.3826 -0.6407
  157MOL0     H21149   1.369   6.973   8.296 -1.7290 -0.3999 -0.0177
  157MOL0     H21150   1.376   7.037   8.123 -0.7191 -1.3855 -1.5988
  157MOL0     H21151   1.597   6.984   8.208 -1.1768  0.2817 -0.9424
  157MOL0     H21152   1.545   6.865   8.095 -3.0042 -2.5609  0.6864
  157MOL0     H21153   1.652   6.766   8.292 -1.2659 -0.3159 -2.2630
  157MOL0     H21154   1.501   6.698   8.266  2.4395 -1.5677  2.2991
  157MOL0     H21155   1.595   6.576   8.418 -0.5818  0.0667 -0.5427
  157MOL0     H21156   1.754   6.402   8.650 -0.4575 -1.0356 -1.1809
  157MOL0     H21157   1.595   6.330   8.643 -0.5454  0.3708 -0.8378
  157MOL0     H21158   1.673   6.394   8.501  0.1324 -0.4603 -0.4135
  157MOL0     H21159   1.277   6.480   9.084 -1.0208 -0.4225  0.0247
  157MOL0     H21160   1.236   6.326   9.269  0.9652  0.6008  1.8695
  157MOL0     H21161   1.284   6.321   9.533  1.7645  0.4392 -1.3861
  157MOL0     H21162   1.220   6.185   9.426  1.8014 -0.8468 -2.1617
  157MOL0     H21163   1.197   6.093   9.640  1.7992 -2.6388  1.5145
  157MOL0     H21164   1.358   6.033   9.593  1.8909  1.0929  1.5512
  157MOL0     H21165   1.310   6.285   9.757  0.5342  1.4919 -1.2659
  157MOL0     H21166   1.464   6.232   9.694  0.4318 -0.6172  0.1900
  157MOL0     H21167   1.301   6.094   9.900  0.7844  1.2582  1.1792
  157MOL0     H21168   1.447   6.024   9.834 -2.6237 -0.6834 -1.8527
  157MOL0     H21169   1.414   6.275   9.999 -2.7460  0.1702 -2.3743
  157MOL0     H21170   1.554   6.250   9.904 -0.8850  1.6949  0.1010
  157MOL0     H21171   1.607   6.030  10.026 -0.9195 -3.0467  0.5819
  157MOL0     H21172   1.596   6.174  10.144 -1.7062  1.0686 -1.5585
  157MOL0     H21173   1.467   5.964  10.220  3.6557  0.8491 -0.5071
  157MOL0     H21174   1.340   6.023  10.106  2.5267  1.9242 -3.9243
  157MOL0     H21175   1.405   6.255  10.237  0.2337 -0.9715 -0.9958
  157MOL0     H21176   1.463   6.141  10.353 -1.5625 -0.9579  0.8630
  157MOL0     H21177   1.664   6.338   9.362  1.2354  1.0668 -0.5949
  157MOL0     H21178   1.700   6.487   9.191 -0.4205  1.6534  2.0844
  157MOL0     H21179   1.476   6.756   8.864  2.3752 -1.3764  0.9630
  157MOL0     H21180   1.461   6.901   8.661 -1.3946 -1.2525  1.0191
  157MOL0     H21181   1.481   7.020   6.836 -0.6770 -0.6079 -2.5787
  157MOL0     H21182   1.689   7.092   6.725 -0.4131  0.0392  2.2334
  157MOL0     H21183   1.901   7.134   6.291  1.3989 -0.6334 -1.5973
  157MOL0     H21184   2.099   7.208   6.185 -1.6557  0.0329 -1.0853
  157MOL0     H21185   2.398   7.440   6.433 -1.5396 -2.3730  0.4116
  157MOL0     H21186   2.486   7.425   6.282  1.0234  1.9987  1.1364
  157MOL0     H21187   2.229   7.594   6.286 -0.1701  1.6218 -2.0382
  157MOL0     H21188   2.351   7.570   6.159 -0.7334 -0.1109  0.2974
  157MOL0     H21189   2.520   7.652   6.333 -0.1028  0.7302 -2.2759
  157MOL0     H21190   2.385   7.714   6.426  2.8241 -0.5216  0.6199
  157MOL0     H21191   2.431   7.783   6.124 -1.9278 -1.8542  0.1027
  157MOL0     H21192   2.491   7.890   6.252 -0.6497  0.3663 -1.4996
  157MOL0     H21193   2.112   8.029   6.275  1.5275  0.1528  0.1879
  157MOL0     H21194   2.194   7.464   6.514 -0.5079  0.7732 -0.1895
  157MOL0     H21195   1.956   7.416   6.612 -1.4576 -1.2993 -0.5607
  158MOL0     O21196   9.946   8.267   5.553 -0.4180 -0.2600  0.5172
  158MOL0     C21197  10.048   8.210   5.567 -0.6892 -0.0715 -0.4484
  158MOL0     O21198  10.061   8.073   5.551  0.0439 -0.2509 -0.9510
  158MOL0     C21199   9.959   7.991   5.515  1.1711  0.9909 -0.5716
  158MOL0     C21200   9.883   8.002   5.397  0.4564  0.3417  0.3508
  158MOL0     C21201   9.769   7.918   5.379  0.2382  1.2858  0.2359
  158MOL0     C21202   9.734   7.823   5.465  0.1136  0.8873 -1.0255
  158MOL0     O21203   9.624   7.752   5.410  0.1633 -0.7442 -1.1071
  158MOL0     C21204   9.605   7.628   5.482  1.3544 -0.6724  0.1115
  158MOL0     C21205   9.538   7.526   5.394 -0.4586 -0.6787 -0.1004
  158MOL0     C21206   9.610   7.504   5.265  0.2979 -0.3045  0.7862
  158MOL0     C21207   9.525   7.402   5.170 -0.9583  0.1021 -0.0773
  158MOL0     C21208   9.502   7.261   5.231  0.4563  0.3965 -0.1797
  158MOL0     C21209   9.462   7.157   5.127  0.5703 -0.1937 -0.8729
  158MOL0     C21210   9.415   7.019   5.193 -0.3193 -0.1573 -0.1414
  158MOL0     C21211   9.256   7.020   5.193  0.0228  0.1383  0.1563
  158MOL0     N21212   9.214   6.906   5.265  0.4082  0.6588  0.2223
  158MOL0     C21213   9.119   6.899   5.363  0.2536 -0.4928  0.0306
  158MOL0     C21214   9.095   6.768   5.393 -0.4838  0.2421  0.4200
  158MOL0     C21215   8.992   6.736   5.504  0.0600  0.1662 -0.7168
  158MOL0     C21216   9.045   6.654   5.625  0.1639  0.3115  0.7312
  158MOL0     C21217   9.080   6.753   5.741 -0.8875  0.7444  0.5560
  158MOL0     C21218   9.218   6.826   5.716  0.3493  0.5026 -0.1533
  158MOL0     O21219   9.209   6.959   5.756  0.1320 -0.5865  0.2917
  158MOL0     C21220   9.316   7.046   5.729 -0.0373 -0.3094 -0.4505
  158MOL0     C21221   9.297   7.177   5.759 -0.3175 -0.9227 -0.9548
  158MOL0     C21222   9.403   7.277   5.767  0.3177  0.3224  0.7007
  158MOL0     C21223   9.363   7.413   5.823  0.0319 -0.7759 -0.6161
  158MOL0     C21224   9.533   7.244   5.733  0.3540  0.5019 -0.6300
  158MOL0     C21225   9.650   7.337   5.745  0.1099 -0.2179  0.0328
  158MOL0     O21226   9.748   7.307   5.654 -0.1455  0.7601 -0.9890
  158MOL0     C21227   9.882   7.349   5.667  0.2284  0.1986 -0.1104
  158MOL0     C21228   9.933   7.444   5.760 -0.2879  0.2024 -0.5688
  158MOL0     C21229  10.068   7.484   5.766 -0.3183  0.8168  0.1262
  158MOL0     C21230  10.162   7.408   5.685 -0.4560 -0.2469 -0.1064
  158MOL0     O21231  10.289   7.455   5.688 -0.3672 -0.5728 -0.2644
  158MOL0     C21232  10.403   7.365   5.664 -0.2578  0.7701  0.8738
  158MOL0     C21233  10.416   7.257   5.779 -0.2606  1.7784  0.6200
  158MOL0     C21234  10.554   7.234   5.837  0.0350 -0.0396 -0.4175
  158MOL0     C21235  10.556   7.139   5.955  0.7904 -0.2229  0.5593
  158MOL0     C21236  10.689   7.056   5.968 -0.6126  0.1073 -0.5391
  158MOL0     C21237  10.706   6.961   6.090  0.6809  0.1546  0.2547
  158MOL0     C21238  10.589   6.868   6.093  0.4355 -0.0133  1.0005
  158MOL0     C21239  10.632   6.736   6.157 -0.0848 -0.5546  0.8346
  158MOL0    Cl21240  10.502   6.634   6.163 -0.4017  0.2092  0.0411
  158MOL0     C21241  10.120   7.312   5.595  0.1421 -0.0742  0.1155
  158MOL0     C21242   9.981   7.274   5.592 -0.0051 -0.8285 -0.9556
  158MOL0     O21243   9.645   7.441   5.808  0.2534 -0.2483 -0.2379
  158MOL0     C21244   9.554   7.111   5.694  0.2614  0.3603  0.7515
  158MOL0     C21245   9.450   7.013   5.701  0.8120  0.2029 -0.4749
  158MOL0     N21246   9.197   6.692   5.331 -0.3458  0.9818  0.9264
  158MOL0     N21247   9.256   6.779   5.246 -0.2945  0.2334 -0.4004
  158MOL0     C21248   9.805   7.796   5.590  1.0932 -0.4035  0.8147
  158MOL0     C21249   9.918   7.890   5.607  0.5948  0.0839 -0.4061
  158MOL0     C21250  10.157   8.276   5.646 -0.6507 -1.1090  0.1738
  158MOL0     C21251  10.140   8.403   5.720 -0.3043 -0.0090 -0.8188
  158MOL0     C21252  10.250   8.459   5.786  0.2029  0.3973 -0.2002
  158MOL0     C21253  10.382   8.416   5.777  0.6919  0.6531  0.1725
  158MOL0     O21254  10.486   8.458   5.862  0.4063  0.0853 -0.5556
  158MOL0     C21255  10.463   8.552   5.970  1.0366 -0.2861  0.7113
  158MOL0     C21256  10.596   8.593   6.028  0.0223 -0.6525  1.0424
  158MOL0     C21257  10.592   8.628   6.172 -0.0245 -0.9660  0.9447
  158MOL0     C21258  10.728   8.633   6.234 -0.4162  0.2175  0.1336
  158MOL0     C21259  10.797   8.760   6.207 -0.1968 -1.0248  0.6568
  158MOL0     C21260  10.853   8.859   6.164  0.4906 -1.0401  0.1928
  158MOL0     C21261  10.397   8.286   5.720 -0.0127 -0.2658 -0.5378
  158MOL0     C21262  10.290   8.221   5.651  0.0725 -0.6735  0.3611
  158MOL0     H21263   9.902   8.076   5.320 -1.0670  1.3132  0.8637
  158MOL0     H21264   9.710   7.928   5.288  2.2307 -0.5394 -1.3401
  158MOL0     H21265   9.702   7.582   5.503  2.0572  0.1440 -1.1964
  158MOL0     H21266   9.538   7.636   5.569 -0.1199 -0.9535 -0.9535
  158MOL0     H21267   9.526   7.434   5.453 -2.1688 -0.4855 -0.0806
  158MOL0     H21268   9.436   7.561   5.378 -0.8067 -0.6668  1.9014
  158MOL0     H21269   9.629   7.597   5.211 -0.7804  0.3248  1.4550
  158MOL0     H21270   9.703   7.451   5.289 -0.6250 -1.8365  1.1324
  158MOL0     H21271   9.426   7.440   5.143  0.3186  2.1483 -2.2186
  158MOL0     H21272   9.579   7.396   5.075  1.8331  0.5226  1.3863
  158MOL0     H21273   9.581   7.231   5.300  2.2133  1.6227 -1.5544
  158MOL0     H21274   9.419   7.287   5.298  2.0547  0.5816  1.8587
  158MOL0     H21275   9.376   7.209   5.084  0.9730  1.8682  0.6541
  158MOL0     H21276   9.545   7.149   5.057  2.4721  0.9409  1.1656
  158MOL0     H21277   9.457   6.948   5.121 -0.4088  2.2787 -2.7988
  158MOL0     H21278   9.450   7.015   5.297 -2.3672 -0.4225  0.5855
  158MOL0     H21279   9.212   7.013   5.093 -1.4683  1.1100  0.7117
  158MOL0     H21280   9.228   7.116   5.237 -0.2133  0.8045 -1.3970
  158MOL0     H21281   9.072   6.989   5.400 -1.8460  0.8840 -5.0194
  158MOL0     H21282   8.930   6.822   5.531 -1.1092 -1.3759  1.8552
  158MOL0     H21283   8.927   6.661   5.458  2.3615 -0.7733 -2.6450
  158MOL0     H21284   9.128   6.588   5.597  0.5283 -0.0961  2.5939
  158MOL0     H21285   8.966   6.590   5.667  0.6648  0.3275  1.7307
  158MOL0     H21286   9.105   6.689   5.826 -1.8514 -0.9433 -0.3777
  158MOL0     H21287   9.002   6.829   5.753 -1.8848  0.1057 -1.4561
  158MOL0     H21288   9.243   6.823   5.610  1.0270  0.9114 -0.0123
  158MOL0     H21289   9.293   6.767   5.771 -2.0307 -0.7928  1.9324
  158MOL0     H21290   9.195   7.206   5.779  0.7115  1.1796  1.9307
  158MOL0     H21291   9.406   7.444   5.919 -1.6550 -1.1671  0.3337
  158MOL0     H21292   9.380   7.492   5.750  2.4816  1.1204  1.8070
  158MOL0     H21293   9.257   7.416   5.854  0.3905  2.8108  0.7850
  158MOL0     H21294   9.854   7.491   5.818 -1.6442 -0.9598 -1.4310
  158MOL0     H21295  10.108   7.560   5.832  2.4261  0.9569 -1.5732
  158MOL0     H21296  10.397   7.306   5.572 -1.4562  0.2149  1.2849
  158MOL0     H21297  10.494   7.424   5.655 -1.3817  2.3261 -1.1324
  158MOL0     H21298  10.329   7.269   5.844 -0.0651  0.3277  1.1670
  158MOL0     H21299  10.386   7.160   5.741 -1.4335  2.6642 -0.8246
  158MOL0     H21300  10.605   7.329   5.856  0.9012 -0.6843  0.6296
  158MOL0     H21301  10.601   7.195   5.746 -1.3551 -0.0700 -1.1487
  158MOL0     H21302  10.566   7.203   6.043  1.3239 -0.6450  0.8116
  158MOL0     H21303  10.469   7.073   5.944 -0.5848  1.7295 -1.0359
  158MOL0     H21304  10.774   7.124   5.979  0.2630 -1.2771  2.2417
  158MOL0     H21305  10.714   6.998   5.879  0.7003 -0.1436 -0.0200
  158MOL0     H21306  10.806   6.917   6.077  0.2009 -0.4035 -2.0042
  158MOL0     H21307  10.712   7.015   6.185 -0.3366  1.7246 -0.5391
  158MOL0     H21308  10.569   6.855   5.986  1.8577  2.5545  0.3498
  158MOL0     H21309  10.509   6.921   6.145  1.2832  0.9348  1.3658
  158MOL0     H21310  10.657   6.756   6.261 -1.9165  2.4013  0.7889
  158MOL0     H21311  10.715   6.677   6.114  0.5456 -0.5997  2.0662
  158MOL0     H21312  10.192   7.272   5.524 -0.3435 -1.3527  0.3121
  158MOL0     H21313   9.936   7.207   5.519 -2.8191  0.4801 -0.5700
  158MOL0     H21314   9.653   7.066   5.702 -0.5104 -1.1322  5.6940
  158MOL0     H21315   9.462   6.906   5.685 -1.4660 -0.3561  1.0893
  158MOL0     H21316   9.778   7.714   5.656 -1.2365  0.2132  0.7008
  158MOL0     H21317   9.969   7.875   5.702 -0.6178 -1.2432  0.0759
  158MOL0     H21318  10.044   8.451   5.703 -0.9475 -1.8974 -3.0024
  158MOL0     H21319  10.223   8.549   5.840  0.3438  1.6215 -2.0927
  158MOL0     H21320  10.402   8.636   5.938  3.4281  0.9183 -0.9643
  158MOL0     H21321  10.414   8.492   6.048  1.8427  1.2880  2.4935
  158MOL0     H21322  10.625   8.684   5.974 -1.3371  0.2612  1.7827
  158MOL0     H21323  10.677   8.520   6.018  0.1345 -0.4764  0.6258
  158MOL0     H21324  10.531   8.559   6.231 -0.1738  0.7155  2.8619
  158MOL0     H21325  10.545   8.726   6.180  0.2468 -0.7232 -0.2243
  158MOL0     H21326  10.785   8.550   6.190  1.4463  0.2834  2.2259
  158MOL0     H21327  10.733   8.613   6.342  1.7127  2.8165  0.6153
  158MOL0     H21328  10.898   8.946   6.120 -1.0530 -0.7137 -0.8124
  158MOL0     H21329  10.495   8.241   5.708 -0.1283 -0.6712  0.0261
  158MOL0     H21330  10.318   8.135   5.591  1.1608  0.6112 -1.0692
  159MOL0     O21331   0.367   3.682  10.076  0.2924  0.7200 -0.1196
  159MOL0     C21332   0.462   3.603  10.066  0.7902  0.2630 -0.0533
  159MOL0     O21333   0.472   3.480  10.115 -0.0335  0.4973  0.2210
  159MOL0     C21334   0.361   3.415  10.160 -0.5697  0.0047  0.5704
  159MOL0     C21335   0.352   3.362  10.298 -0.6351 -0.6937 -0.2588
  159MOL0     C21336   0.233   3.307  10.357  0.0311 -0.6140 -0.0564
  159MOL0     C21337   0.122   3.292  10.278 -0.7231 -0.2877  0.6996
  159MOL0     O21338   0.012   3.247  10.325 -0.0066  0.2069  0.5473
  159MOL0     C21339  -0.123   3.276  10.281 -0.3690  0.5540  0.8939
  159MOL0     C21340  -0.221   3.229  10.392  0.3577 -0.4525 -0.6035
  159MOL0     C21341  -0.369   3.222  10.339 -0.0929  0.6158 -1.1224
  159MOL0     C21342  -0.444   3.142  10.453  0.2796  0.6425  0.0409
  159MOL0     C21343  -0.581   3.133  10.406  0.7126 -0.1365 -0.6994
  159MOL0     C21344  -0.700   3.117  10.514 -0.8192 -0.2716  0.8340
  159MOL0     C21345  -0.831   3.109  10.433 -0.4555 -0.3565 -0.6575
  159MOL0     C21346  -0.938   3.042  10.512 -0.1367  0.4723 -0.3642
  159MOL0     N21347  -0.936   2.897  10.518  0.2798 -0.4131  1.7132
  159MOL0     C21348  -0.930   2.823  10.627 -0.1310  0.0554  0.7951
  159MOL0     C21349  -0.954   2.703  10.571  0.1502 -0.5241 -0.4742
  159MOL0     C21350  -0.963   2.576  10.647  0.3859 -0.2117 -0.6054
  159MOL0     C21351  -0.842   2.555  10.740 -0.8645 -0.1902  1.0064
  159MOL0     C21352  -0.871   2.438  10.836  0.6701 -0.2390 -0.4741
  159MOL0     C21353  -0.792   2.431  10.973 -1.1744  0.4258 -0.3546
  159MOL0     O21354  -0.826   2.528  11.068 -0.0001 -0.5205 -0.0442
  159MOL0     C21355  -0.789   2.665  11.053 -0.3395  0.8904  0.6871
  159MOL0     C21356  -0.677   2.716  10.988  1.0804 -0.4751 -0.6504
  159MOL0     C21357  -0.656   2.855  10.970 -0.3203  0.1104  1.2944
  159MOL0     C21358  -0.528   2.894  10.896 -0.3281 -0.3277 -0.1988
  159MOL0     C21359  -0.752   2.949  11.014 -0.1197 -0.7306  0.1849
  159MOL0     C21360  -0.745   3.099  10.991 -0.0035 -0.5445  0.6750
  159MOL0     O21361  -0.855   3.167  11.011 -0.4402 -0.0117 -0.2069
  159MOL0     C21362  -0.843   3.298  10.996 -0.7710 -0.5198 -0.9938
  159MOL0     C21363  -0.836   3.377  10.877 -0.6590 -0.0328 -0.0082
  159MOL0     C21364  -0.831   3.516  10.876 -0.0298  0.3203  0.1366
  159MOL0     C21365  -0.818   3.592  10.994 -0.0842 -0.1118  0.6131
  159MOL0     O21366  -0.828   3.727  10.998 -0.1431  0.3001 -0.5631
  159MOL0     C21367  -0.751   3.812  10.919 -0.3054  0.3487 -0.5083
  159MOL0     C21368  -0.828   3.873  10.806 -0.2552 -0.4844 -1.2514
  159MOL0     C21369  -0.919   3.984  10.854  0.6119 -0.0845  0.1259
  159MOL0     C21370  -1.052   3.925  10.920  0.7916 -0.3928 -1.1771
  159MOL0     C21371  -1.190   4.006  10.893  0.4517 -0.5675 -0.2336
  159MOL0     C21372  -1.212   4.124  10.990  0.3986 -0.2601 -0.0446
  159MOL0     C21373  -1.348   4.205  11.002  0.4967 -0.5821  0.2381
  159MOL0     C21374  -1.409   4.221  10.858  0.2761  0.3009 -0.1190
  159MOL0    Cl21375  -1.530   4.355  10.871 -0.0875  0.3367  0.0501
  159MOL0     C21376  -0.813   3.524  11.112 -0.0276  0.1937 -0.3298
  159MOL0     C21377  -0.827   3.380  11.112  0.6132 -0.8496  0.8748
  159MOL0     O21378  -0.633   3.142  10.972  0.0267  0.2137  0.0279
  159MOL0     C21379  -0.870   2.892  11.068 -0.0532  0.6404 -0.9093
  159MOL0     C21380  -0.891   2.755  11.081  0.2092  0.2783  0.9977
  159MOL0     N21381  -0.952   2.703  10.435 -0.6451 -0.0172 -0.2805
  159MOL0     N21382  -0.947   2.824  10.404  0.7411  0.0799  0.2398
  159MOL0     C21383   0.129   3.337  10.139 -0.1216 -1.2183 -0.6841
  159MOL0     C21384   0.246   3.392  10.082 -0.0872 -0.3899  0.2693
  159MOL0     C21385   0.576   3.650   9.987  0.8735 -0.5727  0.3766
  159MOL0     C21386   0.586   3.775   9.934 -0.6205  0.5787  0.7683
  159MOL0     C21387   0.701   3.811   9.866  0.6268 -1.6125 -0.7993
  159MOL0     C21388   0.802   3.719   9.831  0.0791  0.2693 -0.2801
  159MOL0     O21389   0.915   3.768   9.779 -0.6170 -0.8740 -0.4596
  159MOL0     C21390   1.016   3.687   9.741  1.0021  0.3137 -0.4799
  159MOL0     C21391   1.122   3.759   9.652 -0.4488  0.5574  0.5627
  159MOL0     C21392   1.219   3.652   9.594 -0.2361 -0.4593 -0.2322
  159MOL0     C21393   1.305   3.719   9.485  0.2486  0.6121 -0.7296
  159MOL0     C21394   1.408   3.810   9.540  0.4998  0.1815  0.1559
  159MOL0     C21395   1.482   3.900   9.585 -0.1302  0.4133  0.4247
  159MOL0     C21396   0.778   3.587   9.859 -0.4069  0.2588 -0.0290
  159MOL0     C21397   0.667   3.554   9.928 -0.7616 -0.2691 -0.5036
  159MOL0     H21398   0.440   3.377  10.360 -0.6477 -4.0626  0.7608
  159MOL0     H21399   0.229   3.293  10.464 -0.0843 -0.0410  0.0167
  159MOL0     H21400  -0.134   3.384  10.276  0.3169  0.6638  1.6577
  159MOL0     H21401  -0.138   3.211  10.194 -0.7589 -2.1518  2.8404
  159MOL0     H21402  -0.183   3.145  10.451 -1.4395  1.7110  4.1156
  159MOL0     H21403  -0.233   3.304  10.471 -0.9435  0.0895 -1.2787
  159MOL0     H21404  -0.416   3.320  10.326 -0.2930  0.4841 -1.3929
  159MOL0     H21405  -0.365   3.165  10.246  0.4946 -2.3680  0.5981
  159MOL0     H21406  -0.396   3.044  10.465 -0.3941  0.5579  2.7295
  159MOL0     H21407  -0.439   3.200  10.545 -2.2776 -3.9249  3.4678
  159MOL0     H21408  -0.602   3.227  10.353  2.1786 -0.2925 -1.6107
  159MOL0     H21409  -0.604   3.060  10.327 -2.2220  0.1496 -0.2336
  159MOL0     H21410  -0.678   3.027  10.572  0.0375 -0.1594  0.6902
  159MOL0     H21411  -0.693   3.212  10.567 -1.8498  0.0587  0.4111
  159MOL0     H21412  -0.868   3.210  10.412  1.0466  0.3420 -0.0561
  159MOL0     H21413  -0.813   3.061  10.336 -0.8916 -0.1269 -0.8528
  159MOL0     H21414  -1.023   3.078  10.452 -0.4208 -1.3472 -1.1039
  159MOL0     H21415  -0.934   3.077  10.616  3.3618 -3.4269  1.0526
  159MOL0     H21416  -0.937   2.851  10.731  3.1339 -2.5322  1.8554
  159MOL0     H21417  -1.054   2.590  10.706  1.5132  1.6922  0.7781
  159MOL0     H21418  -0.982   2.486  10.586  0.0977 -0.9986  0.6153
  159MOL0     H21419  -0.813   2.649  10.788  2.2093 -1.7293  2.5090
  159MOL0     H21420  -0.751   2.532  10.684 -0.4891 -2.1432  2.2973
  159MOL0     H21421  -0.846   2.346  10.783 -0.5543  0.4028 -2.2368
  159MOL0     H21422  -0.977   2.434  10.859  0.4807  0.0508 -1.2525
  159MOL0     H21423  -0.684   2.447  10.957 -1.2917 -0.1230 -1.9241
  159MOL0     H21424  -0.796   2.327  11.006 -2.3344  0.5362 -0.1191
  159MOL0     H21425  -0.593   2.655  10.956  2.6762  2.9784 -3.6929
  159MOL0     H21426  -0.461   2.958  10.955 -2.1240  0.4244  1.1064
  159MOL0     H21427  -0.471   2.802  10.880 -0.6207 -1.0852  2.6183
  159MOL0     H21428  -0.542   2.959  10.809 -1.5430  3.1553  2.3665
  159MOL0     H21429  -0.846   3.325  10.782 -1.9780 -1.7436  1.0227
  159MOL0     H21430  -0.840   3.577  10.787 -0.7364  1.5537  1.0230
  159MOL0     H21431  -0.689   3.884  10.974  0.2949  0.8664 -1.8226
  159MOL0     H21432  -0.677   3.749  10.868  1.1482  1.9371 -0.4363
  159MOL0     H21433  -0.749   3.910  10.740  2.0966 -4.2942 -0.9045
  159MOL0     H21434  -0.882   3.790  10.760  0.1853 -0.2184 -2.2692
  159MOL0     H21435  -0.950   4.042  10.767  1.3037 -0.0355 -0.0939
  159MOL0     H21436  -0.880   4.053  10.929  2.2614  1.5489 -2.1219
  159MOL0     H21437  -1.073   3.827  10.877  1.8174 -2.8511  3.2355
  159MOL0     H21438  -1.049   3.914  11.029 -2.2988  2.3577 -0.6581
  159MOL0     H21439  -1.272   3.935  10.904  2.0513 -2.2880  1.4982
  159MOL0     H21440  -1.175   4.052  10.795  2.6458  1.5106  0.9517
  159MOL0     H21441  -1.188   4.092  11.092 -1.2868  0.1104  0.5061
  159MOL0     H21442  -1.131   4.194  10.968  0.9302 -0.8804 -0.0722
  159MOL0     H21443  -1.309   4.301  11.038  3.0182 -0.8857 -1.3924
  159MOL0     H21444  -1.418   4.173  11.079  1.5529 -1.6748  0.7857
  159MOL0     H21445  -1.452   4.123  10.836 -0.9864 -0.6815  5.3041
  159MOL0     H21446  -1.340   4.250  10.778 -1.4553 -0.1667 -1.8563
  159MOL0     H21447  -0.807   3.576  11.207  0.2287 -0.1754 -0.1407
  159MOL0     H21448  -0.818   3.329  11.207  1.7621  1.0053  1.8206
  159MOL0     H21449  -0.947   2.953  11.113 -0.6907 -1.6564  1.3269
  159MOL0     H21450  -0.989   2.718  11.111  0.5795 -0.3653  1.4516
  159MOL0     H21451   0.036   3.331  10.083 -2.1591  1.5507  2.0623
  159MOL0     H21452   0.228   3.428   9.982  1.6942  0.5871  0.2638
  159MOL0     H21453   0.518   3.855   9.961 -1.5586 -0.6681  2.2915
  159MOL0     H21454   0.706   3.917   9.844 -1.3815 -1.0649  1.0761
  159MOL0     H21455   1.064   3.653   9.834  0.3435  2.5196  0.7293
  159MOL0     H21456   0.979   3.606   9.678  2.4179 -1.3161  0.6635
  159MOL0     H21457   1.154   3.839   9.718 -2.3428  0.1672  2.0545
  159MOL0     H21458   1.067   3.798   9.566  0.6428  2.1259  0.5477
  159MOL0     H21459   1.155   3.589   9.530  1.4454  0.4663 -2.9800
  159MOL0     H21460   1.270   3.592   9.669 -0.0254  0.6140  0.5042
  159MOL0     H21461   1.239   3.773   9.416 -1.6413 -0.7669 -0.0756
  159MOL0     H21462   1.361   3.640   9.433 -1.6889 -1.7224  0.5712
  159MOL0     H21463   1.541   3.978   9.630  0.8289 -0.3897  0.6011
  159MOL0     H21464   0.842   3.509   9.819 -1.2650 -0.0794 -0.7775
  159MOL0     H21465   0.649   3.448   9.943  0.4108 -0.1378  2.6206
  160MOL0     O21466  10.068   6.935   1.077 -0.2622 -0.5593 -0.8751
  160MOL0     C21467  10.165   7.012   1.069 -0.6030 -0.1212 -0.4853
  160MOL0     O21468  10.294   6.988   1.132 -0.4755  0.6309  0.6246
  160MOL0     C21469  10.306   6.885   1.218 -0.6178 -0.2270 -0.2346
  160MOL0     C21470  10.351   6.765   1.181  0.1968  0.4612  0.8169
  160MOL0     C21471  10.337   6.659   1.261  0.3150 -0.0203 -0.2605
  160MOL0     C21472  10.297   6.674   1.397 -0.3683  0.2487 -0.4758
  160MOL0     O21473  10.274   6.566   1.480 -0.1966  1.0527  0.3927
  160MOL0     C21474  10.308   6.433   1.446 -0.1169  0.3719 -0.4354
  160MOL0     C21475  10.248   6.337   1.554  0.2187  0.1581  0.4644
  160MOL0     C21476  10.313   6.382   1.692 -0.3912  0.6003 -0.5297
  160MOL0     C21477  10.283   6.291   1.812 -0.0867  1.2121 -0.3506
  160MOL0     C21478  10.324   6.329   1.954 -0.0429 -0.2703  0.1832
  160MOL0     C21479  10.275   6.226   2.055 -0.1186  0.1458  0.2285
  160MOL0     C21480  10.380   6.181   2.153 -0.1771 -0.6037  0.4277
  160MOL0     C21481  10.302   6.125   2.278  0.0062 -0.0578  0.0482
  160MOL0     N21482  10.392   6.096   2.395  0.4411 -1.0522  0.3256
  160MOL0     C21483  10.519   6.054   2.388 -0.5194  0.6661  0.1991
  160MOL0     C21484  10.557   6.045   2.519  0.0158 -0.1458  0.6319
  160MOL0     C21485  10.701   6.014   2.550  0.3546  0.4711  1.3138
  160MOL0     C21486  10.736   6.004   2.697 -0.4870 -0.2909 -0.5222
  160MOL0     C21487  10.780   6.132   2.764  0.5321 -0.1545 -0.3655
  160MOL0     C21488  10.858   6.101   2.896 -0.3005 -0.3463 -0.1237
  160MOL0     O21489  10.989   6.045   2.883 -0.5495  0.1040  0.7155
  160MOL0     C21490  11.026   5.959   2.981 -0.2755 -0.1950  0.3723
  160MOL0     C21491  11.047   5.832   2.952 -0.1840  1.3649  0.0611
  160MOL0     C21492  11.095   5.739   3.050 -0.5537  0.4399  0.6355
  160MOL0     C21493  11.126   5.605   2.992  0.5427  0.8529 -1.1997
  160MOL0     C21494  11.131   5.783   3.178 -0.5944 -0.3715  0.5124
  160MOL0     C21495  11.185   5.702   3.285  0.3866 -0.4853 -0.0334
  160MOL0     O21496  11.236   5.583   3.253 -0.0917 -0.1242 -1.3416
  160MOL0     C21497  11.252   5.476   3.336 -0.3105  0.4082 -0.1116
  160MOL0     C21498  11.157   5.441   3.429  0.0664  0.9550 -0.3369
  160MOL0     C21499  11.174   5.325   3.510 -0.6124 -0.3422 -0.1005
  160MOL0     C21500  11.292   5.256   3.509  0.2005 -0.1132 -0.5776
  160MOL0     O21501  11.326   5.151   3.590 -0.4160  0.0609  0.0391
  160MOL0     C21502  11.226   5.092   3.680  0.5571  0.4257  0.1549
  160MOL0     C21503  11.295   4.993   3.764 -0.8144 -0.1222 -0.0629
  160MOL0     C21504  11.335   5.049   3.897  0.1160  0.7000 -0.3380
  160MOL0     C21505  11.399   4.946   3.984 -0.0572  0.1843 -0.0987
  160MOL0     C21506  11.459   5.022   4.109  0.6093 -0.1948  0.3330
  160MOL0     C21507  11.509   4.923   4.208 -0.4163 -0.7369 -0.3357
  160MOL0     C21508  11.588   4.990   4.324  0.7056 -0.8300  0.3350
  160MOL0     C21509  11.489   5.089   4.400 -0.6845 -0.4734 -0.3314
  160MOL0    Cl21510  11.549   5.115   4.572  0.2436 -0.1440  0.1050
  160MOL0     C21511  11.393   5.294   3.423  0.1978  0.2444  0.0086
  160MOL0     C21512  11.376   5.400   3.337  0.4307  0.0283 -0.1830
  160MOL0     O21513  11.197   5.763   3.396 -1.3417  0.9359 -0.3892
  160MOL0     C21514  11.113   5.917   3.203 -0.2271  0.3282 -1.0123
  160MOL0     C21515  11.061   6.010   3.110  0.4817  0.2190  1.0482
  160MOL0     N21516  10.443   6.066   2.603 -0.0926  0.4842  1.5376
  160MOL0     N21517  10.347   6.098   2.526 -0.3031  1.2449 -0.3440
  160MOL0     C21518  10.262   6.802   1.440 -0.4192  0.1400 -0.4972
  160MOL0     C21519  10.269   6.911   1.352  0.3612  0.4903  0.2068
  160MOL0     C21520  10.168   7.150   1.003  1.3159  0.9037  0.3437
  160MOL0     C21521  10.065   7.243   1.000  0.3514 -0.5406 -0.7829
  160MOL0     C21522  10.076   7.359   0.934  0.7653  0.5342 -1.1166
  160MOL0     C21523  10.183   7.396   0.859 -0.3258  0.8022 -0.3301
  160MOL0     O21524  10.181   7.515   0.782 -0.4659 -0.7914  0.3003
  160MOL0     C21525  10.312   7.563   0.739  0.0435  0.6802  0.1744
  160MOL0     C21526  10.324   7.531   0.591  0.3803 -0.0243  0.1372
  160MOL0     C21527  10.472   7.543   0.557  0.1666 -0.1099  0.0962
  160MOL0     C21528  10.499   7.525   0.404 -0.2719 -0.6474 -0.0603
  160MOL0     C21529  10.438   7.403   0.351 -0.0595 -0.0855 -0.0012
  160MOL0     C21530  10.405   7.297   0.310 -0.7879  0.1590  0.2956
  160MOL0     C21531  10.279   7.299   0.834  0.2684 -0.8343  0.4786
  160MOL0     C21532  10.273   7.179   0.909 -0.0819 -0.1165 -0.4180
  160MOL0     H21533  10.389   6.748   1.081 -0.6166  1.3328  0.3449
  160MOL0     H21534  10.347   6.552   1.243 -0.4243  0.0105 -0.9306
  160MOL0     H21535  10.254   6.399   1.357 -0.6593 -3.2632  1.0899
  160MOL0     H21536  10.413   6.408   1.432 -0.4913 -1.4326 -0.3134
  160MOL0     H21537  10.139   6.342   1.566 -0.0077  1.9479 -1.7456
  160MOL0     H21538  10.279   6.238   1.519  3.9605  0.6598  1.9870
  160MOL0     H21539  10.422   6.384   1.684 -0.3413  0.0174 -0.0078
  160MOL0     H21540  10.273   6.481   1.719 -0.4484 -0.0299  1.8408
  160MOL0     H21541  10.183   6.247   1.822  1.3648 -1.8187  3.6417
  160MOL0     H21542  10.347   6.207   1.780 -0.3511  1.9038 -2.9236
  160MOL0     H21543  10.433   6.343   1.959  0.1876 -2.2745  2.2099
  160MOL0     H21544  10.271   6.422   1.977 -1.7413 -1.1967  0.1684
  160MOL0     H21545  10.188   6.266   2.108 -1.3612 -0.1470 -1.4629
  160MOL0     H21546  10.247   6.135   2.001  3.2702 -0.8312 -0.0711
  160MOL0     H21547  10.438   6.095   2.118  0.0654 -0.3680  0.2529
  160MOL0     H21548  10.444   6.266   2.178 -1.9901  1.1035 -0.4049
  160MOL0     H21549  10.231   6.044   2.259 -2.2561  1.3926  1.8628
  160MOL0     H21550  10.224   6.194   2.310 -2.6683 -2.3792 -1.0448
  160MOL0     H21551  10.581   6.033   2.301  1.3507  1.3887  1.3153
  160MOL0     H21552  10.718   5.915   2.507  2.2706  0.5746  1.7292
  160MOL0     H21553  10.753   6.094   2.497 -1.6379  1.1094  0.2000
  160MOL0     H21554  10.814   5.929   2.714  0.4144  0.6362 -0.4702
  160MOL0     H21555  10.648   5.963   2.748 -0.2649  0.7700  0.7539
  160MOL0     H21556  10.689   6.183   2.795  0.8585 -1.5493  3.3647
  160MOL0     H21557  10.844   6.190   2.698 -0.4674  0.8843 -0.4462
  160MOL0     H21558  10.800   6.029   2.954  1.5446 -2.8993 -1.2612
  160MOL0     H21559  10.876   6.192   2.954 -0.4875 -0.1846 -0.3221
  160MOL0     H21560  11.029   5.808   2.848  1.1371  1.7785 -0.2841
  160MOL0     H21561  11.124   5.609   2.883 -0.3392  0.1791 -1.2215
  160MOL0     H21562  11.223   5.577   3.033 -0.8396 -0.7421  1.3380
  160MOL0     H21563  11.047   5.532   3.015 -2.2788  4.1183  0.4244
  160MOL0     H21564  11.070   5.504   3.446  1.3779  3.4223 -2.0580
  160MOL0     H21565  11.089   5.306   3.576  0.0103 -0.0170  0.8229
  160MOL0     H21566  11.179   5.171   3.739 -1.0724 -1.5781  1.6886
  160MOL0     H21567  11.151   5.043   3.617  0.6291  1.3339 -0.6629
  160MOL0     H21568  11.244   4.898   3.784  2.8469 -2.0177  1.1380
  160MOL0     H21569  11.391   4.978   3.715 -0.7697  1.1441 -0.3940
  160MOL0     H21570  11.238   5.064   3.944  0.1695  0.2079 -0.0659
  160MOL0     H21571  11.402   5.134   3.884  2.2115 -1.0205 -1.4633
  160MOL0     H21572  11.332   4.867   4.018 -0.2738 -2.1408 -5.0876
  160MOL0     H21573  11.474   4.898   3.920 -1.0762 -3.5839  1.2989
  160MOL0     H21574  11.381   5.087   4.150 -0.1638 -0.2150 -1.0584
  160MOL0     H21575  11.531   5.102   4.087  0.0158 -0.2443 -2.0624
  160MOL0     H21576  11.428   4.869   4.258  0.0898 -1.6237 -0.4434
  160MOL0     H21577  11.576   4.851   4.160 -0.5458 -1.8237  1.0379
  160MOL0     H21578  11.670   5.043   4.274 -1.3401  0.6786 -1.6343
  160MOL0     H21579  11.625   4.911   4.389  0.5219 -2.3311 -1.2967
  160MOL0     H21580  11.388   5.047   4.411 -1.3268  0.9978 -0.4067
  160MOL0     H21581  11.484   5.186   4.349  0.5304 -0.7797 -1.0911
  160MOL0     H21582  11.489   5.243   3.417 -0.0564 -0.0781 -1.8980
  160MOL0     H21583  11.463   5.413   3.273  0.1519  5.0574  0.0550
  160MOL0     H21584  11.124   5.970   3.298  1.1596 -0.4849 -0.6802
  160MOL0     H21585  11.046   6.116   3.126  1.2915  0.9112 -2.0456
  160MOL0     H21586  10.221   6.829   1.537  2.0951 -1.3996  1.1026
  160MOL0     H21587  10.252   7.009   1.395  0.7546 -0.2083  2.0263
  160MOL0     H21588   9.974   7.222   1.056 -0.1652  1.4516 -0.7975
  160MOL0     H21589   9.998   7.435   0.926  0.8993  0.5275 -2.7474
  160MOL0     H21590  10.326   7.669   0.765  2.0905  0.4040  0.3565
  160MOL0     H21591  10.396   7.518   0.793 -1.8565 -1.1240  1.8208
  160MOL0     H21592  10.262   7.596   0.529  3.0983  1.6682 -1.0070
  160MOL0     H21593  10.282   7.435   0.563  0.7675  0.1195 -0.9703
  160MOL0     H21594  10.527   7.470   0.618  1.6679  1.0467  0.1863
  160MOL0     H21595  10.500   7.643   0.591 -0.5542 -0.2714  1.2216
  160MOL0     H21596  10.608   7.525   0.396 -0.0262 -1.9815  2.3795
  160MOL0     H21597  10.457   7.611   0.351 -0.3540  1.5340  3.2365
  160MOL0     H21598  10.364   7.200   0.287  0.1849 -0.1405 -0.2510
  160MOL0     H21599  10.366   7.302   0.770  0.5401 -0.9888  0.8392
  160MOL0     H21600  10.361   7.116   0.898 -0.0912 -0.5476  1.5443
  161MOL0     O21601  11.015   6.860   1.591 -0.3351 -0.1047  0.0622
  161MOL0     C21602  10.974   6.919   1.493 -0.3386 -0.2949 -1.1829
  161MOL0     O21603  10.949   7.050   1.485 -0.8272  0.3942 -0.6165
  161MOL0     C21604  10.928   7.124   1.597  0.1551 -1.0140  0.1605
  161MOL0     C21605  10.855   7.073   1.708  0.2783  1.0457 -0.3719
  161MOL0     C21606  10.847   7.143   1.832  0.5111  0.3200 -0.6110
  161MOL0     C21607  10.897   7.272   1.842  1.2456 -0.7745 -0.8513
  161MOL0     O21608  10.873   7.354   1.948 -0.6928 -0.6120 -0.0722
  161MOL0     C21609  10.906   7.308   2.078  0.8214  0.9948 -0.0049
  161MOL0     C21610  10.876   7.430   2.178 -0.0892 -0.2231  0.4000
  161MOL0     C21611  10.722   7.470   2.188  0.0043 -0.4071 -0.1286
  161MOL0     C21612  10.696   7.596   2.272  0.3512 -0.7045 -0.0645
  161MOL0     C21613  10.734   7.580   2.427 -0.0294 -1.0480  1.0707
  161MOL0     C21614  10.814   7.697   2.490 -0.2266 -0.2397 -0.3423
  161MOL0     C21615  10.752   7.835   2.471 -0.5826  0.5055  0.0753
  161MOL0     C21616  10.830   7.944   2.552  0.3527  0.3099  0.1258
  161MOL0     N21617  10.745   8.065   2.575 -0.7934 -0.6744 -0.5133
  161MOL0     C21618  10.680   8.130   2.474  0.7828 -0.0860  0.2797
  161MOL0     C21619  10.617   8.236   2.544 -0.1927  0.9202  0.5224
  161MOL0     C21620  10.530   8.318   2.473 -0.1570 -0.3812 -0.3801
  161MOL0     C21621  10.600   8.407   2.370  0.1683 -0.2124  0.1559
  161MOL0     C21622  10.496   8.512   2.313 -0.4894  0.1990 -0.1807
  161MOL0     C21623  10.542   8.585   2.189  0.4377  0.1533 -0.2992
  161MOL0     O21624  10.611   8.507   2.091  0.4081 -0.5776  0.3733
  161MOL0     C21625  10.666   8.569   1.985 -0.1981  0.2740  0.2112
  161MOL0     C21626  10.624   8.690   1.930 -0.4684 -0.8792 -0.2256
  161MOL0     C21627  10.690   8.763   1.828 -1.3218 -0.1955  1.0052
  161MOL0     C21628  10.644   8.900   1.785 -0.9504 -0.9600 -0.0080
  161MOL0     C21629  10.799   8.695   1.767 -0.4668  0.1123 -0.3371
  161MOL0     C21630  10.873   8.753   1.657 -0.1879  0.6868 -0.2790
  161MOL0     O21631  10.976   8.838   1.663 -0.1970 -0.2003  0.3537
  161MOL0     C21632  11.055   8.856   1.550 -0.5955  0.0958  0.8985
  161MOL0     C21633  11.138   8.970   1.553  0.7928 -0.0935 -0.7966
  161MOL0     C21634  11.230   9.004   1.452 -0.2651 -0.1291  0.3412
  161MOL0     C21635  11.245   8.916   1.339 -1.3109 -0.6124 -0.6833
  161MOL0     O21636  11.336   8.947   1.244 -0.6395 -0.7171 -0.0518
  161MOL0     C21637  11.359   9.087   1.198 -0.2505  0.9058  1.4684
  161MOL0     C21638  11.404   9.079   1.046  0.7956 -0.1027  0.0048
  161MOL0     C21639  11.552   9.043   1.043  0.4630  0.4646  0.4110
  161MOL0     C21640  11.604   9.064   0.900 -0.4489  0.1899 -0.5239
  161MOL0     C21641  11.753   9.037   0.894  0.7583 -0.1121  0.0266
  161MOL0     C21642  11.805   9.076   0.755  0.7205 -0.2011  0.0596
  161MOL0     C21643  11.954   9.113   0.772  0.8194 -0.4091 -0.1104
  161MOL0     C21644  12.000   9.148   0.631  0.2212 -0.6594 -0.2446
  161MOL0    Cl21645  12.069   9.006   0.535  0.6197  0.2549 -0.1105
  161MOL0     C21646  11.166   8.804   1.334 -0.5012  0.5245  0.5923
  161MOL0     C21647  11.082   8.772   1.438  0.4172 -0.6874  0.1079
  161MOL0     O21648  10.827   8.707   1.554 -0.2886 -0.4391 -0.2506
  161MOL0     C21649  10.845   8.577   1.823  0.0737  1.2457  1.1250
  161MOL0     C21650  10.783   8.515   1.927  0.1044  0.5378  0.3639
  161MOL0     N21651  10.657   8.234   2.678 -0.4122  0.0497 -0.6995
  161MOL0     N21652  10.730   8.132   2.698  0.4562 -0.3486  0.2165
  161MOL0     C21653  10.966   7.326   1.729  0.5548 -0.1738 -0.1113
  161MOL0     C21654  10.982   7.248   1.611 -0.4196 -0.4958  0.0943
  161MOL0     C21655  10.962   6.842   1.372  1.0386 -0.0066  0.8124
  161MOL0     C21656  10.922   6.906   1.251 -0.1256  0.9497  0.6167
  161MOL0     C21657  10.920   6.834   1.131  0.1136 -0.2816 -0.3324
  161MOL0     C21658  10.961   6.696   1.128 -0.0833 -0.0519  0.1787
  161MOL0     O21659  10.966   6.621   1.015  0.2272  0.6907  0.3028
  161MOL0     C21660  11.092   6.570   0.993  0.0512  0.7542  1.1623
  161MOL0     C21661  11.120   6.603   0.840  0.1475  0.0873  0.2664
  161MOL0     C21662  11.055   6.503   0.743  0.1854 -0.6306 -0.4179
  161MOL0     C21663  11.077   6.552   0.598  0.0289 -0.4963 -0.6904
  161MOL0     C21664  10.984   6.655   0.558  0.0571 -1.1537 -0.2064
  161MOL0     C21665  10.913   6.744   0.523 -0.5930  1.3575  0.6651
  161MOL0     C21666  10.985   6.633   1.248  0.8909 -0.0379  0.0374
  161MOL0     C21667  10.996   6.705   1.364 -0.1188 -0.7565 -0.8008
  161MOL0     H21668  10.802   6.978   1.709 -0.5755  1.5078 -0.6199
  161MOL0     H21669  10.809   7.091   1.920 -1.0628 -0.8491 -1.8983
  161MOL0     H21670  10.862   7.209   2.094  1.0719  0.5562 -1.8457
  161MOL0     H21671  11.015   7.300   2.072  0.6458 -0.2571 -2.7592
  161MOL0     H21672  10.899   7.388   2.275  0.5574 -2.3685 -0.6264
  161MOL0     H21673  10.935   7.517   2.148 -1.3070  0.2942 -0.5970
  161MOL0     H21674  10.682   7.495   2.089  0.6732  2.1217  0.1628
  161MOL0     H21675  10.674   7.389   2.244 -0.1592  0.2272  0.6687
  161MOL0     H21676  10.761   7.681   2.246 -1.2220  1.5368  2.6671
  161MOL0     H21677  10.592   7.628   2.271 -0.0125 -1.6370  2.1862
  161MOL0     H21678  10.648   7.559   2.491 -0.6004 -4.0125 -0.4999
  161MOL0     H21679  10.801   7.494   2.424  0.8411 -0.3775 -1.4336
  161MOL0     H21680  10.825   7.665   2.594  0.7976 -1.5948 -0.8365
  161MOL0     H21681  10.920   7.710   2.464 -0.5529  1.6461 -0.8917
  161MOL0     H21682  10.754   7.850   2.363 -5.4334 -2.1864 -0.6993
  161MOL0     H21683  10.652   7.843   2.517 -0.8887  2.2822 -0.8441
  161MOL0     H21684  10.926   7.960   2.501 -0.4329  0.3559 -1.3987
  161MOL0     H21685  10.855   7.897   2.647 -0.2299  0.4324  0.3431
  161MOL0     H21686  10.674   8.107   2.368 -3.0954 -3.8180  1.0714
  161MOL0     H21687  10.448   8.261   2.428 -1.1770  0.3282  0.5396
  161MOL0     H21688  10.494   8.385   2.551  0.0330 -0.0025 -0.6195
  161MOL0     H21689  10.620   8.346   2.281 -0.8069 -0.8690  0.3680
  161MOL0     H21690  10.692   8.458   2.401 -0.4948 -0.1621  2.2016
  161MOL0     H21691  10.476   8.586   2.391  2.1050  1.5483 -0.7115
  161MOL0     H21692  10.407   8.451   2.296 -1.7684  1.6198  1.1265
  161MOL0     H21693  10.597   8.671   2.228 -0.7821  0.5998  0.4986
  161MOL0     H21694  10.450   8.627   2.147 -1.0794 -0.9902  1.6760
  161MOL0     H21695  10.532   8.739   1.961  1.1201  0.5987  2.4544
  161MOL0     H21696  10.560   8.940   1.843  0.2658  1.3888  0.2368
  161MOL0     H21697  10.717   8.978   1.807 -3.0648  0.9687  0.5266
  161MOL0     H21698  10.618   8.891   1.679 -1.1433  0.7751 -0.1355
  161MOL0     H21699  11.141   9.035   1.640 -1.5531 -1.0508  0.0675
  161MOL0     H21700  11.304   9.083   1.454 -1.5306  1.2294 -2.0693
  161MOL0     H21701  11.275   9.157   1.208 -0.1305  1.1266  0.9305
  161MOL0     H21702  11.434   9.141   1.257  1.6361 -1.8690  1.7788
  161MOL0     H21703  11.337   9.017   0.986  0.8833  0.0587 -0.2605
  161MOL0     H21704  11.384   9.179   1.007 -2.0226 -0.8536 -0.6776
  161MOL0     H21705  11.575   8.946   1.087  2.3205  0.6734  0.0003
  161MOL0     H21706  11.610   9.107   1.109  4.0849 -1.0766 -1.0203
  161MOL0     H21707  11.563   8.978   0.846 -0.0759 -0.3998  0.1289
  161MOL0     H21708  11.576   9.163   0.862 -3.0796  1.2892  3.6809
  161MOL0     H21709  11.767   8.929   0.902 -0.0385 -0.4171 -2.0018
  161MOL0     H21710  11.798   9.084   0.982  1.6773 -1.2441  0.1936
  161MOL0     H21711  11.791   9.005   0.672  1.1625  1.6296 -1.6533
  161MOL0     H21712  11.743   9.160   0.725 -1.8381 -0.9292  2.8633
  161MOL0     H21713  12.007   9.039   0.833  0.5639  1.0917  2.0657
  161MOL0     H21714  11.969   9.206   0.828  1.1709  0.3046 -1.3598
  161MOL0     H21715  12.075   9.227   0.635 -1.3898  1.7162 -6.0125
  161MOL0     H21716  11.915   9.200   0.584  1.5773 -0.1460 -2.2611
  161MOL0     H21717  11.156   8.739   1.248 -1.6644  0.0405  1.0788
  161MOL0     H21718  11.024   8.680   1.430  0.5103 -0.7139 -0.3057
  161MOL0     H21719  10.928   8.530   1.770 -1.8906 -0.7252 -0.4078
  161MOL0     H21720  10.826   8.424   1.968  0.3713 -0.3666 -1.7842
  161MOL0     H21721  11.008   7.424   1.745  1.9630 -0.9294  1.0810
  161MOL0     H21722  11.036   7.286   1.525  0.0751 -1.6655 -0.1319
  161MOL0     H21723  10.900   7.011   1.236  0.7010  0.7082 -3.5834
  161MOL0     H21724  10.868   6.873   1.044 -0.6924 -0.3325  0.1200
  161MOL0     H21725  11.175   6.602   1.058  0.7003 -3.8007  2.9352
  161MOL0     H21726  11.087   6.463   1.015  1.7310  0.5419  0.6501
  161MOL0     H21727  11.228   6.586   0.832  0.4382 -0.7940  4.1035
  161MOL0     H21728  11.079   6.702   0.819  1.6016  0.8889  1.0611
  161MOL0     H21729  10.952   6.476   0.768  0.2034 -2.9317 -2.4636
  161MOL0     H21730  11.102   6.405   0.754 -0.6952 -1.1541 -1.1616
  161MOL0     H21731  11.061   6.470   0.527 -4.2166 -0.3449 -0.1556
  161MOL0     H21732  11.183   6.579   0.590 -0.1067  1.6241  2.6323
  161MOL0     H21733  10.831   6.810   0.505 -1.7450 -0.4640 -1.2342
  161MOL0     H21734  10.994   6.526   1.265 -2.3858 -0.5187 -0.5628
  161MOL0     H21735  11.015   6.656   1.458  0.7073  1.9107  0.5238
  162MOL0     O21736   9.795   0.441   3.985  0.2241  0.1872 -0.0438
  162MOL0     C21737   9.901   0.419   3.936 -0.1011  0.4883 -0.2299
  162MOL0     O21738   9.941   0.300   3.877 -0.5575 -0.3131  0.4842
  162MOL0     C21739   9.876   0.181   3.906  0.6445 -0.7183  0.4311
  162MOL0     C21740   9.864   0.094   3.801  0.3576  0.5460 -0.3552
  162MOL0     C21741   9.815  -0.034   3.820 -0.7240  1.3059 -1.3023
  162MOL0     C21742   9.770  -0.070   3.949 -0.5292  0.4682 -0.1450
  162MOL0     O21743   9.725  -0.206   3.974  0.2038  0.3801  0.0849
  162MOL0     C21744   9.808  -0.308   3.913 -0.3586  0.8831 -0.1269
  162MOL0     C21745   9.788  -0.449   3.961 -0.2851 -0.5088  0.0896
  162MOL0     C21746   9.829  -0.477   4.105 -0.4670  0.0931  0.1996
  162MOL0     C21747   9.716  -0.427   4.196 -0.4782  0.3371 -1.2295
  162MOL0     C21748   9.734  -0.494   4.334  0.3133  0.2058 -0.3945
  162MOL0     C21749   9.643  -0.422   4.436  0.3610 -0.1088 -0.5977
  162MOL0     C21750   9.655  -0.481   4.574  0.0738 -0.3098 -0.7507
  162MOL0     C21751   9.555  -0.430   4.673  0.3249 -0.2491 -0.8889
  162MOL0     N21752   9.416  -0.469   4.626  0.1962  0.6789  0.1768
  162MOL0     C21753   9.369  -0.599   4.628 -0.7934 -0.2938  0.0410
  162MOL0     C21754   9.282  -0.613   4.524  0.2274 -0.7143 -0.0821
  162MOL0     C21755   9.236  -0.742   4.468  0.2076 -1.5608 -0.4518
  162MOL0     C21756   9.342  -0.813   4.375  0.2969  0.5674  1.6419
  162MOL0     C21757   9.290  -0.942   4.308  0.1875  0.3344 -0.0098
  162MOL0     C21758   9.376  -1.000   4.199 -0.0251  0.4158 -0.1737
  162MOL0     O21759   9.371  -1.138   4.207  0.3044  0.7727  0.1873
  162MOL0     C21760   9.420  -1.217   4.102  0.3542  0.1247 -0.3634
  162MOL0     C21761   9.530  -1.188   4.028  0.9196 -0.1196 -0.3730
  162MOL0     C21762   9.581  -1.262   3.924 -0.5521 -1.0334 -1.0999
  162MOL0     C21763   9.715  -1.235   3.865 -0.0326  0.1104  0.5473
  162MOL0     C21764   9.501  -1.371   3.884  0.2608 -0.1764  0.5657
  162MOL0     C21765   9.528  -1.459   3.766 -0.4477  0.4559 -0.3206
  162MOL0     O21766   9.445  -1.584   3.757 -0.9103 -1.4969  0.8576
  162MOL0     C21767   9.468  -1.663   3.650 -0.5695  0.3273 -0.9146
  162MOL0     C21768   9.381  -1.654   3.537 -0.3975  0.1112 -0.6403
  162MOL0     C21769   9.403  -1.743   3.429 -1.2842 -0.1383 -0.4739
  162MOL0     C21770   9.488  -1.846   3.435  0.5696 -0.1544  0.2510
  162MOL0     O21771   9.482  -1.939   3.340 -0.2593  0.0228  0.4870
  162MOL0     C21772   9.587  -2.037   3.324  0.6515  0.0391 -0.2984
  162MOL0     C21773   9.563  -2.105   3.188 -0.2921 -0.1173 -0.4563
  162MOL0     C21774   9.449  -2.214   3.191  0.3457 -0.7882  0.8207
  162MOL0     C21775   9.483  -2.338   3.276  0.6861 -1.5653  0.2402
  162MOL0     C21776   9.373  -2.448   3.273 -0.2076 -0.7116  0.0396
  162MOL0     C21777   9.387  -2.539   3.148  0.6337  0.2482  0.4973
  162MOL0     C21778   9.282  -2.659   3.141 -0.3998  0.5324 -0.5515
  162MOL0     C21779   9.192  -2.682   3.015  0.1972 -0.3517  0.1125
  162MOL0    Cl21780   9.283  -2.716   2.875 -0.3072 -0.2913 -0.4952
  162MOL0     C21781   9.583  -1.850   3.544 -0.3220 -0.2836  0.5734
  162MOL0     C21782   9.563  -1.762   3.653  0.4915  0.9031 -0.6148
  162MOL0     O21783   9.599  -1.411   3.678 -0.1200  0.6435 -0.0685
  162MOL0     C21784   9.393  -1.405   3.958 -0.5117  0.2218  0.3346
  162MOL0     C21785   9.351  -1.334   4.067 -0.3468 -0.0448  1.2444
  162MOL0     N21786   9.257  -0.480   4.478 -0.3480  0.3781  0.4343
  162MOL0     N21787   9.334  -0.400   4.551  0.6780 -0.5127  0.5945
  162MOL0     C21788   9.765   0.028   4.049 -0.2074 -0.5992  0.3296
  162MOL0     C21789   9.827   0.153   4.031 -0.1762 -0.0504  0.1781
  162MOL0     C21790   9.999   0.541   3.932  0.0004 -0.5577 -0.1883
  162MOL0     C21791   9.971   0.669   3.988 -0.1343 -0.5685 -0.2894
  162MOL0     C21792  10.059   0.772   4.000  0.6545 -0.5851  0.6032
  162MOL0     C21793  10.184   0.768   3.941  0.8355 -0.3911 -0.3815
  162MOL0     O21794  10.253   0.880   3.950 -0.3895  0.0530 -0.0731
  162MOL0     C21795  10.374   0.895   3.881  0.2034 -0.0056 -0.5226
  162MOL0     C21796  10.498   0.821   3.943  0.0830  0.4295 -0.3696
  162MOL0     C21797  10.631   0.855   3.866 -0.4283 -0.3729 -0.3834
  162MOL0     C21798  10.743   0.878   3.966  0.4260 -0.6886 -0.1681
  162MOL0     C21799  10.868   0.842   3.908  0.0569  0.0064 -0.0400
  162MOL0     C21800  10.984   0.817   3.862  0.0395  0.1180  0.2931
  162MOL0     C21801  10.215   0.650   3.874  0.0895  0.1767 -0.1994
  162MOL0     C21802  10.139   0.536   3.892  0.8356 -0.3032  0.1164
  162MOL0     H21803   9.908   0.128   3.708  4.6220 -0.2441  1.1573
  162MOL0     H21804   9.797  -0.109   3.744 -2.6968  0.4740 -0.0716
  162MOL0     H21805   9.812  -0.301   3.804  0.0642 -1.6832 -0.3335
  162MOL0     H21806   9.912  -0.293   3.940 -0.5941  0.8649  0.8226
  162MOL0     H21807   9.681  -0.470   3.949  0.0338 -2.1828 -0.1130
  162MOL0     H21808   9.846  -0.517   3.898 -0.0164  0.2001 -0.4307
  162MOL0     H21809   9.834  -0.585   4.115 -0.0048  0.0707 -0.1910
  162MOL0     H21810   9.921  -0.423   4.130  0.2310  0.3189 -2.5116
  162MOL0     H21811   9.740  -0.322   4.213 -1.4137  0.7165 -2.1254
  162MOL0     H21812   9.618  -0.432   4.147  0.1909  0.8277 -2.6486
  162MOL0     H21813   9.705  -0.600   4.327  1.5426 -0.0446 -2.5065
  162MOL0     H21814   9.839  -0.494   4.365  1.1860 -2.7038 -2.8783
  162MOL0     H21815   9.663  -0.315   4.445  0.1754 -0.1846  1.2706
  162MOL0     H21816   9.542  -0.448   4.402 -1.2126  1.1906  2.6045
  162MOL0     H21817   9.637  -0.589   4.571  1.5558 -0.5597 -1.7940
  162MOL0     H21818   9.759  -0.465   4.602  0.9924 -0.6041 -3.6285
  162MOL0     H21819   9.569  -0.321   4.675 -3.6233  0.4340  2.1444
  162MOL0     H21820   9.577  -0.478   4.769  1.5146 -1.4340 -1.7097
  162MOL0     H21821   9.420  -0.674   4.688  0.3075 -0.0913 -0.6040
  162MOL0     H21822   9.207  -0.803   4.554 -0.5475  0.4067  0.7631
  162MOL0     H21823   9.145  -0.726   4.410 -1.1087 -0.2518  1.8296
  162MOL0     H21824   9.420  -0.843   4.447  1.6168  1.0004  0.4328
  162MOL0     H21825   9.367  -0.740   4.298 -1.9754 -0.8429 -0.5905
  162MOL0     H21826   9.193  -0.926   4.259 -0.0669  0.1628  0.4340
  162MOL0     H21827   9.269  -1.019   4.382 -1.7128 -1.1566 -1.9506
  162MOL0     H21828   9.476  -0.961   4.218  0.2163 -0.2202 -0.1124
  162MOL0     H21829   9.357  -0.961   4.099 -0.3272  2.8506  0.7574
  162MOL0     H21830   9.584  -1.103   4.068  0.7892 -0.6619  1.0219
  162MOL0     H21831   9.775  -1.155   3.908 -0.4696  0.1922  1.0216
  162MOL0     H21832   9.776  -1.326   3.859  1.2599  0.8065  2.2149
  162MOL0     H21833   9.698  -1.185   3.770  0.1302  2.0545  1.4867
  162MOL0     H21834   9.299  -1.584   3.549 -1.2906 -0.9924 -0.2429
  162MOL0     H21835   9.347  -1.737   3.336  1.0335 -2.9487 -2.2466
  162MOL0     H21836   9.688  -1.996   3.318  0.3093  1.1492  0.9958
  162MOL0     H21837   9.589  -2.108   3.407  2.8573 -1.3976 -1.4771
  162MOL0     H21838   9.525  -2.027   3.122  2.4453 -1.8786 -4.4582
  162MOL0     H21839   9.659  -2.137   3.147 -0.1765 -0.2213 -0.1099
  162MOL0     H21840   9.417  -2.235   3.089 -2.8637  1.2605  1.2429
  162MOL0     H21841   9.362  -2.174   3.244  0.3291 -1.3144  1.1928
  162MOL0     H21842   9.574  -2.391   3.247  1.0366 -1.3432  0.9236
  162MOL0     H21843   9.486  -2.301   3.378 -1.1166  0.2045 -0.2855
  162MOL0     H21844   9.272  -2.411   3.288 -0.1222 -0.8277  0.9489
  162MOL0     H21845   9.382  -2.511   3.362 -2.5047  0.2760  1.0356
  162MOL0     H21846   9.362  -2.491   3.052  1.1831  0.3740  0.4118
  162MOL0     H21847   9.490  -2.571   3.131  0.6385  1.8861 -4.1321
  162MOL0     H21848   9.209  -2.632   3.218  0.0433  1.9120 -0.5740
  162MOL0     H21849   9.325  -2.745   3.193  0.9533  1.8788  0.6462
  162MOL0     H21850   9.129  -2.594   2.998  1.3647  0.2627 -1.1275
  162MOL0     H21851   9.122  -2.765   3.031 -0.0776 -0.0251  0.6296
  162MOL0     H21852   9.649  -1.936   3.549  1.0241  0.7618  1.8039
  162MOL0     H21853   9.619  -1.776   3.745  1.2334 -1.4025 -1.3368
  162MOL0     H21854   9.338  -1.498   3.949  0.5662 -0.4252  0.2637
  162MOL0     H21855   9.265  -1.361   4.126 -1.0110 -3.6928 -1.0715
  162MOL0     H21856   9.726  -0.007   4.144 -0.6185  0.5101  0.5858
  162MOL0     H21857   9.838   0.234   4.102  1.2499  0.0628 -0.1439
  162MOL0     H21858   9.879   0.705   4.032  1.4249  1.4598  1.4904
  162MOL0     H21859  10.036   0.861   4.057  3.9370  1.1145 -0.4944
  162MOL0     H21860  10.351   0.872   3.776 -2.4325 -2.0432  0.3773
  162MOL0     H21861  10.400   1.001   3.886 -1.2409  0.2900  3.2701
  162MOL0     H21862  10.469   0.716   3.939 -2.3489  0.9520  1.5027
  162MOL0     H21863  10.498   0.860   4.045 -2.0196 -2.4256  0.8390
  162MOL0     H21864  10.622   0.945   3.806 -0.7523  0.0540  0.2992
  162MOL0     H21865  10.641   0.766   3.803  0.7310 -2.0259  1.9463
  162MOL0     H21866  10.725   0.825   4.060  3.3303  3.6404  3.2656
  162MOL0     H21867  10.749   0.985   3.987  0.5012 -0.8207  0.4957
  162MOL0     H21868  11.082   0.801   3.821  0.3101 -0.8881  1.2685
  162MOL0     H21869  10.302   0.638   3.810 -2.4992 -1.8826 -3.7095
  162MOL0     H21870  10.171   0.450   3.835 -1.6846 -0.6565 -0.9206
  163MOL0     O21871   3.749  10.394   5.332 -0.2740  0.1898  0.4009
  163MOL0     C21872   3.731  10.518   5.348  0.4609  0.5610  0.1080
  163MOL0     O21873   3.705  10.573   5.474 -0.2072 -0.3929 -0.1480
  163MOL0     C21874   3.658  10.491   5.575  0.1947  0.9789  0.4370
  163MOL0     C21875   3.730  10.380   5.614  1.1805  0.7796 -0.0875
  163MOL0     C21876   3.681  10.302   5.723 -1.0097  0.1319 -0.0312
  163MOL0     C21877   3.560  10.328   5.785  0.7304 -0.3167  0.7529
  163MOL0     O21878   3.526  10.261   5.897  0.4068 -0.1262  0.1271
  163MOL0     C21879   3.614  10.282   6.004  0.6920  0.2753  0.0557
  163MOL0     C21880   3.542  10.284   6.136 -0.3039  0.1492  0.5912
  163MOL0     C21881   3.402  10.339   6.128  0.3165  0.7601  0.4485
  163MOL0     C21882   3.320  10.346   6.257 -0.4675  0.7693 -1.7823
  163MOL0     C21883   3.375  10.236   6.359  0.3639 -0.1499 -0.7499
  163MOL0     C21884   3.307  10.252   6.497 -0.2714 -0.1527 -0.2258
  163MOL0     C21885   3.163  10.223   6.485  0.8310 -0.5030  1.0501
  163MOL0     C21886   3.106  10.203   6.625 -0.1059 -0.5261 -0.1654
  163MOL0     N21887   2.965  10.222   6.638  0.7282  0.1199 -0.1078
  163MOL0     C21888   2.869  10.136   6.699 -0.2068  1.0146 -0.5838
  163MOL0     C21889   2.755  10.209   6.707 -0.4022  0.0648 -0.6653
  163MOL0     C21890   2.625  10.164   6.751 -0.3531  0.1231 -0.6947
  163MOL0     C21891   2.570  10.062   6.644 -1.1852  0.1450  0.2303
  163MOL0     C21892   2.428  10.057   6.670  1.0236 -0.3853 -0.1520
  163MOL0     C21893   2.361   9.948   6.585  0.6139 -0.2398 -0.0962
  163MOL0     O21894   2.222   9.936   6.619 -1.0174 -0.3292 -0.5078
  163MOL0     C21895   2.119   9.991   6.543  1.1505  0.2841 -0.3799
  163MOL0     C21896   2.134  10.088   6.440 -0.8466  0.9124 -0.0653
  163MOL0     C21897   2.024  10.137   6.375 -0.1298  0.1532 -0.4332
  163MOL0     C21898   2.039  10.239   6.258  0.5689 -0.6403  0.1959
  163MOL0     C21899   1.898  10.103   6.418  0.6916 -0.0131 -1.2434
  163MOL0     C21900   1.770  10.133   6.361  0.4196 -0.7522  0.5574
  163MOL0     O21901   1.684  10.029   6.351  0.3150 -0.7031 -0.1511
  163MOL0     C21902   1.548  10.048   6.307  0.3276  0.0713  0.3002
  163MOL0     C21903   1.474   9.938   6.334 -1.1054  0.8513 -0.5720
  163MOL0     C21904   1.335   9.934   6.303  1.2207 -0.5092  0.0271
  163MOL0     C21905   1.267  10.046   6.248  0.1253  0.7072 -0.3077
  163MOL0     O21906   1.130  10.035   6.217  0.6066 -0.2343 -0.0954
  163MOL0     C21907   1.056  10.151   6.169 -0.3449 -0.7475  0.4440
  163MOL0     C21908   1.079  10.175   6.013 -0.2146  1.0661  0.2663
  163MOL0     C21909   1.045  10.051   5.928  0.0699 -1.0112  0.3204
  163MOL0     C21910   1.076  10.075   5.777 -0.4758  0.3092 -0.1950
  163MOL0     C21911   1.001   9.966   5.697  0.4924 -0.0597  0.7381
  163MOL0     C21912   1.079   9.936   5.569  0.3289  0.2870  0.2369
  163MOL0     C21913   1.009   9.838   5.476  0.3402 -0.5863 -0.0181
  163MOL0     C21914   1.103   9.803   5.366  0.7308  0.8691  0.5956
  163MOL0    Cl21915   1.129   9.945   5.248 -0.1842 -0.6539 -0.2662
  163MOL0     C21916   1.349  10.154   6.210 -1.2284 -0.8825  0.1242
  163MOL0     C21917   1.484  10.156   6.245  0.6506 -0.2536  0.7117
  163MOL0     O21918   1.752  10.254   6.336  0.1046  0.1147  0.1636
  163MOL0     C21919   1.885  10.021   6.528  0.0116 -0.2256 -0.7125
  163MOL0     C21920   1.991   9.969   6.591 -0.5609 -0.7677 -0.0562
  163MOL0     N21921   2.778  10.345   6.665 -0.7161  0.7478  0.0221
  163MOL0     N21922   2.900  10.347   6.622 -0.5617  0.2558  0.9243
  163MOL0     C21923   3.469  10.416   5.719  0.0367  0.7074 -1.2365
  163MOL0     C21924   3.524  10.500   5.624  0.1845  0.4465  0.8528
  163MOL0     C21925   3.730  10.600   5.230 -0.2099  0.6490 -0.6441
  163MOL0     C21926   3.800  10.562   5.115  0.8029 -1.5593 -0.4667
  163MOL0     C21927   3.801  10.650   5.001  0.1669  0.7001  0.6328
  163MOL0     C21928   3.735  10.777   5.007  0.6201 -0.2308  1.3014
  163MOL0     O21929   3.717  10.856   4.900 -0.3976 -0.9920 -0.0876
  163MOL0     C21930   3.719  10.805   4.767  1.1779  0.3232  0.8594
  163MOL0     C21931   3.599  10.722   4.723  0.1304 -1.0849  0.1483
  163MOL0     C21932   3.611  10.671   4.587 -0.0170  0.6495  0.6928
  163MOL0     C21933   3.598  10.781   4.480  0.5370 -0.1965  0.8570
  163MOL0     C21934   3.581  10.722   4.339  0.1388  0.7094  0.1275
  163MOL0     C21935   3.565  10.662   4.232  0.0073 -0.5130 -0.8575
  163MOL0     C21936   3.690  10.817   5.131 -0.8555 -0.1836 -0.3910
  163MOL0     C21937   3.684  10.733   5.238  0.0277 -0.4083 -0.2188
  163MOL0     H21938   3.823  10.356   5.564  1.2170 -4.0570  1.7037
  163MOL0     H21939   3.747  10.220   5.751 -0.2488 -0.9005 -4.1489
  163MOL0     H21940   3.693  10.208   5.984  1.1169  1.2510 -2.2012
  163MOL0     H21941   3.667  10.377   5.995  0.1517  0.5714 -0.0235
  163MOL0     H21942   3.535  10.178   6.164  1.7599 -0.1306  0.2517
  163MOL0     H21943   3.597  10.342   6.211 -1.2850  0.8997  0.7455
  163MOL0     H21944   3.402  10.437   6.080  0.2570  0.4412 -0.2153
  163MOL0     H21945   3.356  10.270   6.057 -1.0556  0.3622  1.6678
  163MOL0     H21946   3.329  10.440   6.312  0.7395 -1.4172  2.1268
  163MOL0     H21947   3.218  10.331   6.220 -1.0181  3.9649 -1.8075
  163MOL0     H21948   3.365  10.133   6.323  0.5220  0.2962 -2.1495
  163MOL0     H21949   3.481  10.258   6.376  1.4013 -3.1335 -2.5539
  163MOL0     H21950   3.352  10.176   6.562 -0.8737 -0.5795 -0.3048
  163MOL0     H21951   3.328  10.350   6.541 -2.6274 -1.2447  3.8553
  163MOL0     H21952   3.096  10.300   6.447 -0.8146 -1.1358  2.5171
  163MOL0     H21953   3.146  10.137   6.420  0.3283 -0.2118  0.7909
  163MOL0     H21954   3.154  10.263   6.702  1.1624 -1.4570 -0.2057
  163MOL0     H21955   3.142  10.104   6.655 -0.1894 -1.0072 -1.5597
  163MOL0     H21956   2.886  10.032   6.724  0.1307  0.9101 -1.2217
  163MOL0     H21957   2.646  10.117   6.848 -2.7691 -0.3442 -0.3381
  163MOL0     H21958   2.563  10.251   6.770  0.6761  0.6943  0.1255
  163MOL0     H21959   2.614   9.968   6.677  1.3730  1.8087  1.8892
  163MOL0     H21960   2.590  10.090   6.540 -1.2271 -1.5685 -0.2750
  163MOL0     H21961   2.385  10.156   6.650 -0.4282 -0.7092  1.1489
  163MOL0     H21962   2.401  10.035   6.773  3.0504  1.1785  0.7771
  163MOL0     H21963   2.408   9.851   6.605 -0.4133 -1.0887 -1.6300
  163MOL0     H21964   2.363   9.965   6.477 -0.6701 -0.2777 -0.1453
  163MOL0     H21965   2.236  10.114   6.415 -0.4138 -0.1696  0.5241
  163MOL0     H21966   2.012  10.194   6.161  3.4282 -1.7180 -0.2051
  163MOL0     H21967   1.970  10.317   6.291 -0.7581 -2.6241  2.3867
  163MOL0     H21968   2.136  10.289   6.248  0.4837 -0.5376 -0.1589
  163MOL0     H21969   1.531   9.853   6.369  1.5336  1.7539 -2.3834
  163MOL0     H21970   1.282   9.846   6.338  2.1524 -0.6074  1.2365
  163MOL0     H21971   0.949  10.145   6.192 -0.0125 -0.1601  2.3771
  163MOL0     H21972   1.101  10.238   6.219  2.7461 -0.7751 -1.9580
  163MOL0     H21973   1.019  10.257   5.973 -0.3915  0.2506 -1.1823
  163MOL0     H21974   1.181  10.210   5.993 -1.1954  2.7935 -2.1338
  163MOL0     H21975   0.940  10.025   5.945  0.1362 -1.1700  0.4879
  163MOL0     H21976   1.107   9.964   5.953  1.5998  0.2411  1.0312
  163MOL0     H21977   1.050  10.178   5.753  1.5477  1.0893  0.6755
  163MOL0     H21978   1.184  10.063   5.766 -0.7242 -3.2132 -0.0785
  163MOL0     H21979   0.897   9.987   5.670  0.6484 -3.6647 -3.6242
  163MOL0     H21980   1.000   9.875   5.758 -1.0813 -0.7461 -0.2549
  163MOL0     H21981   1.085  10.024   5.504 -0.9896 -2.2612 -3.7347
  163MOL0     H21982   1.169   9.895   5.615 -1.3952 -2.6271  1.2982
  163MOL0     H21983   0.918   9.886   5.442  1.2722  0.7543 -0.7206
  163MOL0     H21984   0.973   9.750   5.531  0.8440 -0.1254  1.0685
  163MOL0     H21985   1.057   9.720   5.312  2.5119 -1.0904  1.9074
  163MOL0     H21986   1.195   9.772   5.416  0.0411 -2.7833 -0.1401
  163MOL0     H21987   1.319  10.243   6.155 -0.7693 -0.5463  0.4101
  163MOL0     H21988   1.532  10.251   6.224 -1.4120  0.6248 -0.2729
  163MOL0     H21989   1.791  10.019   6.583  0.7533  4.5502  1.1786
  163MOL0     H21990   1.971   9.925   6.688  4.6324  0.2835  1.8002
  163MOL0     H21991   3.363  10.419   5.741  0.1700 -0.2527 -0.3410
  163MOL0     H21992   3.464  10.573   5.570 -0.0858 -0.2067  0.2573
  163MOL0     H21993   3.850  10.466   5.112  4.4533 -0.4974  6.2742
  163MOL0     H21994   3.850  10.614   4.911 -2.2684 -0.5518 -0.2906
  163MOL0     H21995   3.714  10.889   4.698 -1.3261 -0.8572 -0.5694
  163MOL0     H21996   3.808  10.743   4.751  2.1325  1.3005  2.1616
  163MOL0     H21997   3.512  10.787   4.712  1.7394  1.4119  1.3122
  163MOL0     H21998   3.587  10.636   4.790  1.3331  1.6000  4.2102
  163MOL0     H21999   3.535  10.593   4.580 -0.9727  1.4499  1.7852
  163MOL0     H22000   3.709  10.624   4.574 -0.1501 -0.3159  2.8089
  163MOL0     H22001   3.682  10.850   4.473  2.4580 -2.2059  2.6998
  163MOL0     H22002   3.502  10.829   4.504  0.0021 -1.5652  1.6089
  163MOL0     H22003   3.544  10.621   4.136 -1.4541 -0.4925 -0.5633
  163MOL0     H22004   3.656  10.920   5.123  0.7368  0.5256  1.2357
  163MOL0     H22005   3.646  10.763   5.335 -0.1823 -1.5281  0.0585
  164MOL0     O22006  11.204   6.179   9.886 -0.0926 -0.5278 -0.0372
  164MOL0     C22007  11.171   6.153   9.768 -0.9794  0.2544  1.1376
  164MOL0     O22008  11.081   6.225   9.696 -0.7864 -0.2101 -0.1453
  164MOL0     C22009  11.022   6.328   9.762 -0.4961 -0.3453 -0.6339
  164MOL0     C22010  10.879   6.334   9.792 -0.2161  1.2108  0.1314
  164MOL0     C22011  10.822   6.440   9.852 -0.1089  0.5923 -0.0930
  164MOL0     C22012  10.895   6.554   9.888  0.4733 -0.5603  0.4803
  164MOL0     O22013  10.846   6.672   9.933  0.2086 -0.8443 -0.1023
  164MOL0     C22014  10.706   6.655   9.975  0.3325  0.7155  0.4837
  164MOL0     C22015  10.676   6.794  10.041  0.1510  0.3998  0.3132
  164MOL0     C22016  10.535   6.820  10.048  1.2516  0.1659  0.2895
  164MOL0     C22017  10.492   6.962  10.088  0.2799  0.3058 -0.0196
  164MOL0     C22018  10.342   6.963  10.086 -0.4059  0.7200 -0.5789
  164MOL0     C22019  10.293   7.103  10.132 -0.4810 -0.1921  0.2491
  164MOL0     C22020  10.142   7.102  10.163  0.6735 -0.4502 -0.2876
  164MOL0     C22021  10.041   7.048  10.049 -0.5494  1.0985  0.8647
  164MOL0     N22022   9.909   7.121  10.050 -0.6787 -0.6771 -0.0895
  164MOL0     C22023   9.898   7.252  10.042  1.2914 -0.1211  0.5321
  164MOL0     C22024   9.765   7.279  10.026 -0.8824  0.1491 -0.8124
  164MOL0     C22025   9.710   7.421  10.031  0.7168  0.8462 -0.9768
  164MOL0     C22026   9.680   7.467  10.179 -0.8087  1.0178  0.5275
  164MOL0     C22027   9.583   7.581  10.169 -0.2233 -0.8629 -0.1233
  164MOL0     C22028   9.528   7.645  10.299  0.7003  0.6268 -0.0832
  164MOL0     O22029   9.493   7.545  10.393 -0.6219  0.7106 -0.3820
  164MOL0     C22030   9.356   7.511  10.384 -0.1433  0.4233  0.3141
  164MOL0     C22031   9.278   7.552  10.487  0.3153 -0.1533  0.0831
  164MOL0     C22032   9.135   7.540  10.478  0.5826 -0.5333 -0.0883
  164MOL0     C22033   9.045   7.628  10.576  0.2395  0.9620 -0.6807
  164MOL0     C22034   9.081   7.456  10.377 -0.1084  0.3501 -0.5054
  164MOL0     C22035   8.942   7.436  10.344 -0.9113  1.2255 -0.3371
  164MOL0     O22036   8.911   7.386  10.212 -0.2869  0.6100  0.4762
  164MOL0     C22037   8.786   7.392  10.172  0.0635  0.1259 -0.1664
  164MOL0     C22038   8.754   7.459  10.057 -0.9922  0.5838 -0.9234
  164MOL0     C22039   8.625   7.464  10.016 -0.4822  0.1614 -0.3393
  164MOL0     C22040   8.520   7.417  10.087  0.5200  0.1499 -0.2132
  164MOL0     O22041   8.390   7.418  10.028 -0.2136 -1.0088  0.5671
  164MOL0     C22042   8.277   7.399  10.110 -0.0833 -0.2901 -1.1219
  164MOL0     C22043   8.151   7.437  10.041  0.9032 -0.1824 -0.3105
  164MOL0     C22044   8.130   7.591  10.040  0.6713 -0.0916  0.5397
  164MOL0     C22045   8.008   7.615  10.134  0.3117  0.2359  0.5564
  164MOL0     C22046   7.967   7.763  10.159  0.2074  0.1921 -0.3998
  164MOL0     C22047   7.879   7.783  10.298  0.4540 -0.5538 -0.4150
  164MOL0     C22048   7.761   7.880  10.285  0.4864  0.2824  0.9955
  164MOL0     C22049   7.660   7.869  10.401 -0.1890 -0.2317 -0.2714
  164MOL0    Cl22050   7.512   7.976  10.365 -0.3520  0.1274 -0.1789
  164MOL0     C22051   8.545   7.353  10.208 -0.0347  0.3830  0.4885
  164MOL0     C22052   8.681   7.335  10.240 -0.6066  0.3730 -0.3537
  164MOL0     O22053   8.858   7.449  10.436 -0.7291  0.8455 -0.3121
  164MOL0     C22054   9.174   7.396  10.293 -0.0213  0.2772  0.0130
  164MOL0     C22055   9.306   7.422  10.299  0.6816  0.0741 -0.2222
  164MOL0     N22056   9.702   7.157  10.018  0.3918  0.2273 -1.0258
  164MOL0     N22057   9.784   7.069  10.039  0.6468  0.6873 -0.0358
  164MOL0     C22058  11.031   6.557   9.851  0.6201  0.1891 -0.1919
  164MOL0     C22059  11.092   6.441   9.797  1.5040 -0.0874 -0.4985
  164MOL0     C22060  11.236   6.042   9.688 -0.5474 -0.8100 -0.3303
  164MOL0     C22061  11.193   6.001   9.566  0.0207  0.2422 -0.2217
  164MOL0     C22062  11.258   5.906   9.494  0.4603  0.1909  0.4996
  164MOL0     C22063  11.367   5.835   9.550 -0.4233 -0.1387  0.4261
  164MOL0     O22064  11.425   5.736   9.473 -0.0364 -0.0776 -0.6523
  164MOL0     C22065  11.505   5.629   9.534  1.3639  0.0912  0.2608
  164MOL0     C22066  11.528   5.501   9.446 -0.0633 -0.2687 -1.2962
  164MOL0     C22067  11.620   5.551   9.336 -0.4670 -1.0013 -0.1278
  164MOL0     C22068  11.568   5.660   9.231  0.6438 -0.0205  0.4164
  164MOL0     C22069  11.664   5.679   9.129 -0.2048 -0.1019  0.2248
  164MOL0     C22070  11.736   5.703   9.032 -0.3608  0.6990 -0.0710
  164MOL0     C22071  11.423   5.889   9.671 -0.6004  0.0776  0.1803
  164MOL0     C22072  11.360   5.995   9.746  1.0141  0.5915 -0.0957
  164MOL0     H22073  10.831   6.245   9.752 -0.3501  1.4788 -0.3073
  164MOL0     H22074  10.713   6.440   9.860 -0.1208  0.0839 -0.2786
  164MOL0     H22075  10.648   6.627   9.886  1.0016  0.7407  0.0345
  164MOL0     H22076  10.695   6.580  10.055 -1.9247  1.2295  0.7213
  164MOL0     H22077  10.718   6.794  10.142  4.0303 -2.1285 -1.0869
  164MOL0     H22078  10.730   6.872   9.987  0.4173 -0.5343 -0.8034
  164MOL0     H22079  10.483   6.798   9.954  0.6518 -0.5537  0.7746
  164MOL0     H22080  10.489   6.748  10.116 -0.6562  1.2534  0.2369
  164MOL0     H22081  10.541   6.994  10.181 -1.1180 -0.4436  0.9985
  164MOL0     H22082  10.532   7.028  10.010  0.3309  1.1667  0.7155
  164MOL0     H22083  10.317   6.941   9.982  0.4691 -2.3333 -0.2344
  164MOL0     H22084  10.291   6.891  10.150  0.2142  2.6139  2.2006
  164MOL0     H22085  10.345   7.144  10.219  0.3448  2.6803 -1.4680
  164MOL0     H22086  10.312   7.177  10.054  2.7830 -1.7445 -0.5764
  164MOL0     H22087  10.133   7.049  10.258  0.6799 -0.5195 -0.3263
  164MOL0     H22088  10.123   7.208  10.184 -0.2167 -0.4884 -0.8353
  164MOL0     H22089  10.009   6.944  10.064 -0.2580  1.2902  3.1353
  164MOL0     H22090  10.084   7.045   9.948 -2.0842  0.0871  0.2056
  164MOL0     H22091   9.966   7.337  10.037 -0.3001  1.1518 -2.3651
  164MOL0     H22092   9.779   7.483   9.974  2.1846 -0.4760 -0.7057
  164MOL0     H22093   9.613   7.407   9.982  1.7491 -4.1323 -2.1836
  164MOL0     H22094   9.771   7.485  10.237 -0.2119 -2.6439  0.9820
  164MOL0     H22095   9.628   7.384  10.227 -1.3752  2.3980  2.4181
  164MOL0     H22096   9.495   7.555  10.109 -1.1261  3.5862 -1.0575
  164MOL0     H22097   9.628   7.661  10.111 -1.2642 -1.1720 -1.3961
  164MOL0     H22098   9.443   7.709  10.274  0.9167  0.3551 -1.5828
  164MOL0     H22099   9.605   7.708  10.346  0.8417 -0.0858  0.6739
  164MOL0     H22100   9.331   7.609  10.563  0.1483 -2.4522  2.0093
  164MOL0     H22101   8.981   7.563  10.636  2.7345 -3.5445 -2.4455
  164MOL0     H22102   9.105   7.683  10.650 -0.4270 -1.8851  2.1860
  164MOL0     H22103   8.984   7.693  10.512  0.8173  0.1661 -2.0734
  164MOL0     H22104   8.836   7.507  10.005  2.2551 -2.3415  1.0951
  164MOL0     H22105   8.608   7.512   9.920 -0.1986 -0.0451 -0.4929
  164MOL0     H22106   8.267   7.291  10.127 -2.6217 -0.4171 -2.9127
  164MOL0     H22107   8.282   7.456  10.203 -1.8095  0.1148 -1.2518
  164MOL0     H22108   8.150   7.387   9.944 -0.6455 -0.4436 -0.1800
  164MOL0     H22109   8.068   7.391  10.095 -1.7755 -0.5392 -4.3045
  164MOL0     H22110   8.102   7.622   9.939 -4.0524  2.6200  2.3737
  164MOL0     H22111   8.219   7.644  10.075  2.5327 -0.2552 -3.4013
  164MOL0     H22112   7.920   7.556  10.106  1.3245 -0.3071 -1.6938
  164MOL0     H22113   8.043   7.584  10.234  2.4895  1.8572  0.3793
  164MOL0     H22114   7.927   7.814  10.071  3.3012  0.2742 -1.8831
  164MOL0     H22115   8.057   7.824  10.168 -0.7432  1.4356  1.5442
  164MOL0     H22116   7.847   7.688  10.341 -2.7648 -0.4620 -2.3196
  164MOL0     H22117   7.945   7.830  10.373  1.7176 -1.0556 -1.1813
  164MOL0     H22118   7.705   7.847  10.197  0.4338  0.0927  1.0997
  164MOL0     H22119   7.804   7.978  10.261  0.6465  0.4949  2.1021
  164MOL0     H22120   7.715   7.892  10.493  2.7225 -0.7943 -1.7320
  164MOL0     H22121   7.631   7.764  10.406  3.5620 -1.5914 -2.6758
  164MOL0     H22122   8.457   7.319  10.261 -1.5588  2.8195 -0.3001
  164MOL0     H22123   8.704   7.289  10.335  0.1199 -0.7627 -1.0467
  164MOL0     H22124   9.147   7.351  10.198 -1.6377  0.6328  0.2850
  164MOL0     H22125   9.374   7.376  10.228 -0.2356 -0.5259 -0.7472
  164MOL0     H22126  11.087   6.648   9.865  1.7383 -0.8008  2.3163
  164MOL0     H22127  11.199   6.431   9.782  1.7229 -1.5226  1.5948
  164MOL0     H22128  11.111   6.054   9.519  2.6467  1.9860 -3.2301
  164MOL0     H22129  11.204   5.886   9.402 -0.1651  2.4685  0.2913
  164MOL0     H22130  11.604   5.675   9.543  2.4286 -2.2788  1.7247
  164MOL0     H22131  11.470   5.601   9.634  2.2146 -1.7651  0.0891
  164MOL0     H22132  11.437   5.453   9.408 -0.6520 -0.6490  0.5211
  164MOL0     H22133  11.570   5.425   9.512 -0.7708  0.6216  0.2491
  164MOL0     H22134  11.662   5.464   9.284 -2.7352  0.1982 -4.4448
  164MOL0     H22135  11.697   5.611   9.385 -1.3396 -0.9155  1.1664
  164MOL0     H22136  11.548   5.752   9.287  2.8065  0.3257  0.7106
  164MOL0     H22137  11.484   5.626   9.170  0.2214  2.2176 -0.3181
  164MOL0     H22138  11.803   5.693   8.948 -0.3982  1.2301 -0.1649
  164MOL0     H22139  11.522   5.855   9.699 -0.8140 -0.2237  0.5823
  164MOL0     H22140  11.399   6.031   9.840  0.7950 -2.0839  1.1065
  165MOL0     O22141   1.684   4.687   9.333  0.3177 -0.4763  0.1205
  165MOL0     C22142   1.682   4.768   9.435 -1.1232  1.1052  0.0454
  165MOL0     O22143   1.676   4.903   9.431  0.4800 -1.0044  0.4147
  165MOL0     C22144   1.677   4.954   9.306  0.5702  0.0727 -0.1710
  165MOL0     C22145   1.796   4.982   9.233 -0.3828  0.9556 -0.1803
  165MOL0     C22146   1.789   5.036   9.104 -0.0466  0.1600  0.7224
  165MOL0     C22147   1.663   5.057   9.041 -0.1359 -0.1705 -0.6442
  165MOL0     O22148   1.670   5.122   8.919  0.4003 -0.4406 -0.9884
  165MOL0     C22149   1.547   5.166   8.859  0.1724  0.0787  0.1189
  165MOL0     C22150   1.578   5.241   8.730  0.6664  1.1242  1.0204
  165MOL0     C22151   1.560   5.145   8.613  0.4470  0.7144 -0.9199
  165MOL0     C22152   1.672   5.040   8.593  0.0030  0.2027 -0.2274
  165MOL0     C22153   1.660   4.984   8.450  0.2932  0.2087 -0.1142
  165MOL0     C22154   1.774   4.889   8.417  0.8679 -0.2181  0.8082
  165MOL0     C22155   1.782   4.772   8.505  0.2699  0.6468 -0.2606
  165MOL0     C22156   1.811   4.661   8.398 -0.2672  0.0991  0.2052
  165MOL0     N22157   1.835   4.536   8.471 -0.2564 -0.2001  0.8266
  165MOL0     C22158   1.952   4.485   8.528  0.7606 -0.4271  0.6671
  165MOL0     C22159   1.909   4.371   8.588  0.4648 -0.4421 -0.2823
  165MOL0     C22160   1.997   4.274   8.673  0.1086 -0.2530 -0.7277
  165MOL0     C22161   2.010   4.329   8.815 -0.3424 -0.4883 -0.3652
  165MOL0     C22162   2.126   4.268   8.896 -0.1675 -0.1809  0.4217
  165MOL0     C22163   2.176   4.343   9.018  0.4765 -0.2555 -0.3242
  165MOL0     O22164   2.206   4.250   9.130 -0.4129 -0.0080  0.1771
  165MOL0     C22165   2.336   4.225   9.167  0.5146  0.1907  0.1846
  165MOL0     C22166   2.368   4.198   9.305 -0.3015  0.9591  0.1773
  165MOL0     C22167   2.498   4.193   9.352  0.5431 -0.6851 -0.1078
  165MOL0     C22168   2.528   4.134   9.489 -0.0363  0.1533 -0.2187
  165MOL0     C22169   2.602   4.212   9.265 -0.4245  0.6067 -0.2454
  165MOL0     C22170   2.737   4.213   9.319 -0.8705  0.3070 -0.5110
  165MOL0     O22171   2.798   4.086   9.310 -0.2864  0.6143  0.4996
  165MOL0     C22172   2.927   4.069   9.342  0.2986 -0.1908  0.0053
  165MOL0     C22173   3.029   4.124   9.271 -1.0713 -0.4511 -0.2524
  165MOL0     C22174   3.162   4.122   9.308 -0.8698 -0.5205  0.6635
  165MOL0     C22175   3.204   4.051   9.418  0.6390  0.4100  0.1679
  165MOL0     O22176   3.329   4.074   9.465  0.3323 -0.3314  0.1759
  165MOL0     C22177   3.405   3.964   9.499  0.4479 -0.4629  0.6905
  165MOL0     C22178   3.502   3.998   9.605  0.0034  0.1255 -0.0441
  165MOL0     C22179   3.612   4.098   9.568 -0.2242 -0.7405  0.6981
  165MOL0     C22180   3.684   4.055   9.439 -1.1436 -0.2187  0.9293
  165MOL0     C22181   3.839   4.064   9.450 -0.4231 -0.0033  0.5675
  165MOL0     C22182   3.874   3.952   9.557 -0.0344  0.2210 -0.2559
  165MOL0     C22183   4.026   3.943   9.573 -0.2474 -0.3580  0.7294
  165MOL0     C22184   4.080   3.810   9.631  0.9815 -0.2637 -0.1893
  165MOL0    Cl22185   4.248   3.827   9.679 -0.4839 -0.3316  0.3316
  165MOL0     C22186   3.104   3.981   9.490  0.0025 -0.9772  0.4373
  165MOL0     C22187   2.967   3.988   9.445 -0.1205 -0.4567  0.1785
  165MOL0     O22188   2.795   4.322   9.340  0.0358 -0.3868 -0.3067
  165MOL0     C22189   2.584   4.254   9.135  1.1972  0.0009  0.0867
  165MOL0     C22190   2.449   4.262   9.087  1.0524 -0.8976  0.1014
  165MOL0     N22191   1.778   4.359   8.580 -0.2518 -0.3030  1.1590
  165MOL0     N22192   1.724   4.465   8.519  0.5543 -0.1048 -0.0484
  165MOL0     C22193   1.544   5.042   9.116  0.3897 -0.7012 -0.1549
  165MOL0     C22194   1.556   4.995   9.248  0.3545  0.6795  0.4819
  165MOL0     C22195   1.654   4.710   9.560  0.6720  0.6035 -0.3230
  165MOL0     C22196   1.671   4.570   9.581 -0.2422  0.0272 -0.9584
  165MOL0     C22197   1.650   4.511   9.711  0.1323 -0.3314  0.7253
  165MOL0     C22198   1.615   4.591   9.818 -0.4133 -0.3836 -0.8644
  165MOL0     O22199   1.595   4.520   9.938 -0.9629 -0.2006 -0.6758
  165MOL0     C22200   1.562   4.595  10.055 -0.3593 -0.1965  0.5685
  165MOL0     C22201   1.677   4.659  10.131  0.0054  0.9341 -0.0706
  165MOL0     C22202   1.641   4.723  10.271 -1.1711 -0.3899  0.1350
  165MOL0     C22203   1.735   4.655  10.378  0.8093  0.0560  0.5757
  165MOL0     C22204   1.668   4.548  10.451  0.2557  0.0240  0.3461
  165MOL0     C22205   1.611   4.462  10.509  0.1294 -0.5348  0.5549
  165MOL0     C22206   1.612   4.729   9.800  0.6257 -0.8452 -0.1192
  165MOL0     C22207   1.637   4.791   9.674  0.0573 -0.9025 -0.2077
  165MOL0     H22208   1.898   4.968   9.267  0.5682  0.3250 -2.9957
  165MOL0     H22209   1.885   5.051   9.056  0.3217 -1.4538  0.9106
  165MOL0     H22210   1.477   5.088   8.829  0.3643  0.3623 -1.1051
  165MOL0     H22211   1.492   5.239   8.919 -0.4005  2.0978 -2.6740
  165MOL0     H22212   1.497   5.314   8.731 -1.6559 -1.1880 -1.2977
  165MOL0     H22213   1.674   5.294   8.736  0.4277  1.4154  3.0070
  165MOL0     H22214   1.463   5.096   8.608  1.2746 -0.9172 -1.8421
  165MOL0     H22215   1.564   5.221   8.534 -4.4484  1.5943 -0.6474
  165MOL0     H22216   1.773   5.078   8.614  0.8431 -1.3125 -1.2861
  165MOL0     H22217   1.664   4.960   8.667 -2.4554 -0.2664 -0.9287
  165MOL0     H22218   1.562   4.938   8.436  0.8972 -0.5639 -2.2319
  165MOL0     H22219   1.675   5.066   8.380 -1.9042 -0.5767 -1.6199
  165MOL0     H22220   1.747   4.866   8.313  1.9869  0.3343  0.3754
  165MOL0     H22221   1.870   4.941   8.408  0.2148  0.9158  0.2098
  165MOL0     H22222   1.866   4.793   8.573  0.3374  0.6182 -0.3348
  165MOL0     H22223   1.687   4.755   8.556  0.5354  0.3144  0.1246
  165MOL0     H22224   1.890   4.694   8.331 -0.5942 -3.2806 -2.0957
  165MOL0     H22225   1.718   4.661   8.341  0.8028  3.9326 -1.8803
  165MOL0     H22226   2.050   4.529   8.516  0.7071  0.2284  2.2729
  165MOL0     H22227   1.953   4.175   8.679 -2.2497  0.7632  0.1536
  165MOL0     H22228   2.093   4.275   8.621  0.8264 -2.5837  0.4209
  165MOL0     H22229   1.914   4.328   8.868 -1.2924  1.3956 -1.9326
  165MOL0     H22230   2.032   4.435   8.807 -0.2424 -0.4795  0.0243
  165MOL0     H22231   2.203   4.254   8.819 -0.7711 -0.0721 -0.2155
  165MOL0     H22232   2.091   4.173   8.936  0.0483 -0.7521 -0.6985
  165MOL0     H22233   2.099   4.409   9.058 -0.4288 -1.4496 -0.0549
  165MOL0     H22234   2.262   4.400   8.980  0.8001 -0.1155  0.6045
  165MOL0     H22235   2.278   4.168   9.356 -0.5361  0.3824 -0.5503
  165MOL0     H22236   2.605   4.197   9.533 -0.5530  1.9176 -1.6905
  165MOL0     H22237   2.439   4.134   9.553  0.4408  0.1443  0.4495
  165MOL0     H22238   2.563   4.032   9.469 -2.5217 -0.3420 -2.7836
  165MOL0     H22239   3.006   4.190   9.188 -3.9870  0.0350  0.8583
  165MOL0     H22240   3.226   4.186   9.249 -2.4069  1.4288  1.0331
  165MOL0     H22241   3.348   3.883   9.546  0.1644 -1.0504 -0.6219
  165MOL0     H22242   3.457   3.924   9.411  1.2064 -0.0709  0.9492
  165MOL0     H22243   3.455   4.035   9.697 -0.6297  5.9794 -2.2548
  165MOL0     H22244   3.555   3.904   9.619  1.4075  0.4032 -2.7641
  165MOL0     H22245   3.679   4.125   9.650  3.9049  1.1760 -2.9302
  165MOL0     H22246   3.569   4.196   9.545  0.9165 -0.7516 -1.8019
  165MOL0     H22247   3.661   3.953   9.408 -2.1482  0.9895 -2.9136
  165MOL0     H22248   3.648   4.109   9.350  0.8132 -0.7894 -0.2546
  165MOL0     H22249   3.878   4.161   9.482  2.5425 -0.8670 -0.0965
  165MOL0     H22250   3.890   4.038   9.357 -0.7780 -0.1399  0.4083
  165MOL0     H22251   3.829   3.975   9.653 -1.4207 -2.0509 -0.2732
  165MOL0     H22252   3.840   3.857   9.514  0.1735  1.5353 -3.6301
  165MOL0     H22253   4.066   4.028   9.629  0.3348  0.6736 -1.1736
  165MOL0     H22254   4.074   3.947   9.475 -0.6775 -0.0942  0.5265
  165MOL0     H22255   4.072   3.736   9.551 -0.9957  0.9841 -1.2438
  165MOL0     H22256   4.028   3.776   9.721  1.8378 -1.1828 -0.0236
  165MOL0     H22257   3.135   3.940   9.586 -0.6200  1.9919  2.0371
  165MOL0     H22258   2.887   3.929   9.487  0.6475 -0.8776  1.0877
  165MOL0     H22259   2.674   4.291   9.087  2.5824 -1.5767  1.3518
  165MOL0     H22260   2.431   4.312   8.993 -4.7256 -0.5597  0.9863
  165MOL0     H22261   1.455   5.086   9.073  0.2994 -1.4931 -0.8110
  165MOL0     H22262   1.461   4.972   9.297  1.2408 -2.0121  1.0698
  165MOL0     H22263   1.704   4.504   9.502 -2.5999  0.6628 -2.5640
  165MOL0     H22264   1.667   4.404   9.721 -1.4434 -0.3861  4.5826
  165MOL0     H22265   1.481   4.666  10.035  1.4366  1.1582 -2.6791
  165MOL0     H22266   1.533   4.521  10.130  0.1904  0.3425  1.3229
  165MOL0     H22267   1.732   4.731  10.070  1.0101  0.7693  0.6241
  165MOL0     H22268   1.750   4.578  10.136  0.4554  1.3677  0.3995
  165MOL0     H22269   1.534   4.712  10.288 -1.1499  1.5862  1.8407
  165MOL0     H22270   1.665   4.829  10.275 -2.4782 -0.1091  1.3698
  165MOL0     H22271   1.769   4.721  10.459 -1.5501  0.5709  1.2203
  165MOL0     H22272   1.825   4.605  10.341  0.3552 -1.0783  0.9569
  165MOL0     H22273   1.585   4.375  10.566  1.7918 -1.3732  0.0851
  165MOL0     H22274   1.589   4.788   9.888 -2.5731 -1.0672 -0.6982
  165MOL0     H22275   1.651   4.899   9.678  0.1913 -0.8233 -2.0202
  166MOL0     O22276   8.612   6.744   1.638  0.6015  0.0341 -0.6619
  166MOL0     C22277   8.691   6.716   1.552  0.0292 -0.2136 -0.1825
  166MOL0     O22278   8.699   6.774   1.441 -0.4578 -0.8087 -0.0820
  166MOL0     C22279   8.599   6.848   1.383  0.6568  0.5172 -0.3863
  166MOL0     C22280   8.633   6.940   1.286 -0.4309  0.3366 -0.2133
  166MOL0     C22281   8.525   7.005   1.216 -0.4331  0.9025 -0.2814
  166MOL0     C22282   8.396   6.961   1.234  0.2517 -0.4127  0.3044
  166MOL0     O22283   8.282   7.021   1.173  0.2857 -0.4451  0.0387
  166MOL0     C22284   8.157   7.015   1.248  0.0029  0.4394 -0.2223
  166MOL0     C22285   8.035   7.067   1.162 -0.2842  1.2525  0.5069
  166MOL0     C22286   7.971   6.956   1.086 -0.0274  0.3786 -0.3383
  166MOL0     C22287   7.905   7.002   0.960 -0.1790  0.6656 -0.0794
  166MOL0     C22288   7.850   6.873   0.885  0.1498  0.9136  0.4455
  166MOL0     C22289   7.721   6.815   0.944  0.1079 -0.2169 -0.3934
  166MOL0     C22290   7.683   6.684   0.882  1.2267  0.2939  0.9442
  166MOL0     C22291   7.634   6.702   0.726  0.1683 -0.8243  0.4104
  166MOL0     N22292   7.500   6.759   0.733 -0.1765 -0.2433  0.5200
  166MOL0     C22293   7.477   6.895   0.698 -0.7236 -0.1978  0.2463
  166MOL0     C22294   7.364   6.925   0.756 -0.1040  0.2715 -0.9606
  166MOL0     C22295   7.283   7.050   0.762 -0.2004 -0.5615  0.1624
  166MOL0     C22296   7.344   7.188   0.768 -0.7196  1.1493  0.0035
  166MOL0     C22297   7.456   7.190   0.883  0.6807 -0.6510  0.6294
  166MOL0     C22298   7.393   7.207   1.024 -0.5649  0.0932 -0.3680
  166MOL0     O22299   7.491   7.207   1.126 -0.2707 -1.0521 -0.5232
  166MOL0     C22300   7.535   7.096   1.191  0.9456  0.1438  0.8288
  166MOL0     C22301   7.496   6.970   1.157  0.1237 -0.2305 -0.0264
  166MOL0     C22302   7.545   6.860   1.218 -0.5856  0.0303  0.4268
  166MOL0     C22303   7.494   6.734   1.184  0.7947 -0.0981  0.4645
  166MOL0     C22304   7.650   6.873   1.314 -0.6346 -0.3403  1.1972
  166MOL0     C22305   7.707   6.761   1.390 -0.7713 -0.2228 -1.2662
  166MOL0     O22306   7.628   6.667   1.446  0.0812  0.5231  0.5422
  166MOL0     C22307   7.684   6.574   1.515 -0.7235  1.1537 -0.2890
  166MOL0     C22308   7.694   6.572   1.652  0.5634 -0.7672  0.0743
  166MOL0     C22309   7.735   6.460   1.730 -0.0123 -0.4012  0.4765
  166MOL0     C22310   7.791   6.346   1.671  0.4029  0.2540  0.4609
  166MOL0     O22311   7.809   6.223   1.724 -0.0468  0.7005 -0.7169
  166MOL0     C22312   7.778   6.221   1.866 -0.8186  0.1063  0.0138
  166MOL0     C22313   7.817   6.078   1.915 -0.0881 -0.3985 -0.3845
  166MOL0     C22314   7.974   6.064   1.947  1.0170  0.1382  0.2283
  166MOL0     C22315   8.032   5.945   1.864  0.0231  0.6748  0.1931
  166MOL0     C22316   8.039   5.967   1.712  0.7236 -0.3163 -0.8627
  166MOL0     C22317   8.135   5.884   1.643 -0.6389 -0.2369 -0.0209
  166MOL0     C22318   8.283   5.933   1.650 -0.3747  0.4140  0.2690
  166MOL0     C22319   8.319   6.078   1.699  0.0643 -0.2760  0.2338
  166MOL0    Cl22320   8.339   6.087   1.881 -0.1330 -0.2246 -0.0589
  166MOL0     C22321   7.810   6.356   1.534 -0.1340 -0.4524  0.5098
  166MOL0     C22322   7.750   6.457   1.460  0.5831 -0.1656  0.9631
  166MOL0     O22323   7.832   6.761   1.392  0.7830  0.7735 -0.2710
  166MOL0     C22324   7.688   6.994   1.353 -0.0504 -0.5466  0.2341
  166MOL0     C22325   7.631   7.106   1.293  0.4689  0.6031  0.4295
  166MOL0     N22326   7.300   6.804   0.796 -0.2216  0.8259  0.0265
  166MOL0     N22327   7.392   6.715   0.805  0.5046 -0.4950  0.2979
  166MOL0     C22328   8.370   6.850   1.315 -1.1383  0.6714  0.2999
  166MOL0     C22329   8.470   6.803   1.398  0.6846 -0.0340 -0.0270
  166MOL0     C22330   8.792   6.594   1.574  0.2990 -0.6335 -0.8963
  166MOL0     C22331   8.812   6.526   1.698  1.6188 -0.3916 -0.0423
  166MOL0     C22332   8.891   6.409   1.696  0.1878  0.0835 -0.3846
  166MOL0     C22333   8.932   6.356   1.579 -0.1306 -0.6444 -0.3802
  166MOL0     O22334   8.999   6.238   1.559  0.2120  0.3276 -0.9575
  166MOL0     C22335   9.027   6.140   1.664  0.3230 -0.1998  0.8258
  166MOL0     C22336   8.913   6.039   1.675 -0.6051  0.0550 -0.5247
  166MOL0     C22337   8.859   5.969   1.549  0.6184 -0.1559  1.0068
  166MOL0     C22338   8.747   5.876   1.593  0.2476 -0.9417 -0.8589
  166MOL0     C22339   8.690   5.801   1.482  1.0443 -0.5406 -0.7679
  166MOL0     C22340   8.633   5.735   1.397 -0.3854 -0.5910 -0.4856
  166MOL0     C22341   8.924   6.435   1.457  0.9820  0.5816  0.7146
  166MOL0     C22342   8.864   6.554   1.461  0.5414 -0.4847 -0.2120
  166MOL0     H22343   8.736   6.970   1.274 -0.2335  0.3993  1.3857
  166MOL0     H22344   8.550   7.075   1.137  3.1758 -0.0099 -0.1531
  166MOL0     H22345   8.126   6.918   1.287 -0.2622 -0.0142 -1.5134
  166MOL0     H22346   8.166   7.073   1.340 -4.3484  2.0531 -0.5859
  166MOL0     H22347   7.963   7.119   1.225 -0.5198  2.7986 -0.9747
  166MOL0     H22348   8.066   7.142   1.089  0.1337 -2.0488 -2.9778
  166MOL0     H22349   8.038   6.874   1.059 -0.9230  0.0548 -1.6797
  166MOL0     H22350   7.911   6.905   1.162  1.3124  1.4607  1.5181
  166MOL0     H22351   7.824   7.073   0.979 -2.1947 -1.0143 -1.8787
  166MOL0     H22352   7.978   7.051   0.895 -1.1501  0.3039 -1.4689
  166MOL0     H22353   7.821   6.894   0.782 -1.4460 -0.7802  0.4992
  166MOL0     H22354   7.928   6.797   0.870 -1.4809 -0.6485 -0.4659
  166MOL0     H22355   7.737   6.789   1.049  0.4399  0.2723 -0.3233
  166MOL0     H22356   7.645   6.892   0.931  0.0432 -0.4772 -1.6809
  166MOL0     H22357   7.771   6.621   0.897 -0.6319 -2.5329  0.8618
  166MOL0     H22358   7.598   6.641   0.937  0.1115 -0.6262 -1.3456
  166MOL0     H22359   7.632   6.612   0.664 -1.0517 -1.2567  1.0327
  166MOL0     H22360   7.703   6.757   0.663 -0.2421 -2.8088 -1.8990
  166MOL0     H22361   7.562   6.951   0.660  1.8306 -3.0548  1.3210
  166MOL0     H22362   7.219   7.053   0.674  2.2121  1.8092 -1.6682
  166MOL0     H22363   7.221   7.026   0.849 -0.3084 -2.1470 -0.3329
  166MOL0     H22364   7.262   7.252   0.800  0.2046  1.3124  2.2855
  166MOL0     H22365   7.386   7.215   0.671  2.4668 -0.3049  0.8288
  166MOL0     H22366   7.519   7.279   0.871 -2.2076  1.1952 -2.6312
  166MOL0     H22367   7.512   7.096   0.873 -0.0841 -0.8600 -4.0949
  166MOL0     H22368   7.320   7.127   1.040  1.2465 -1.4122  0.7637
  166MOL0     H22369   7.329   7.296   1.022 -1.0440 -0.2573 -2.3665
  166MOL0     H22370   7.415   6.934   1.093  1.2620 -4.1150  0.4688
  166MOL0     H22371   7.434   6.721   1.094  1.0838 -1.1482  0.4029
  166MOL0     H22372   7.574   6.659   1.188  1.1334  0.3090  2.3278
  166MOL0     H22373   7.437   6.699   1.271  3.2774 -0.1319  2.2042
  166MOL0     H22374   7.654   6.652   1.713  2.8186  0.1750  0.4420
  166MOL0     H22375   7.722   6.466   1.838  1.5278 -3.6209  0.9571
  166MOL0     H22376   7.835   6.294   1.925 -3.1908  0.9583  1.4247
  166MOL0     H22377   7.671   6.242   1.878 -1.7838 -4.0197  0.0860
  166MOL0     H22378   7.761   6.044   2.002 -0.3638 -1.7766 -1.0660
  166MOL0     H22379   7.789   6.004   1.840  0.9924 -1.1427 -0.0634
  166MOL0     H22380   7.991   6.051   2.054  2.1102  2.6784  0.4093
  166MOL0     H22381   8.039   6.149   1.929  3.1567 -1.5312 -0.2633
  166MOL0     H22382   8.133   5.926   1.903 -0.3998 -1.1722  0.5070
  166MOL0     H22383   7.973   5.853   1.877 -0.8471  1.4828  2.3520
  166MOL0     H22384   8.039   6.071   1.678 -1.2805 -0.3470 -1.1125
  166MOL0     H22385   7.939   5.932   1.682  0.2981  1.3079 -1.4461
  166MOL0     H22386   8.135   5.794   1.706  0.0005  1.2846  2.2828
  166MOL0     H22387   8.113   5.858   1.539 -2.5758 -1.5810  0.6657
  166MOL0     H22388   8.317   5.926   1.546  1.1299  4.1053  0.3838
  166MOL0     H22389   8.331   5.858   1.712  0.2229 -0.5029 -1.2529
  166MOL0     H22390   8.250   6.153   1.658  1.8477  0.6816 -1.1763
  166MOL0     H22391   8.413   6.115   1.657  0.0540 -1.8605 -1.3117
  166MOL0     H22392   7.849   6.272   1.478 -0.4832  0.0908 -0.5896
  166MOL0     H22393   7.742   6.450   1.352 -2.8606 -2.7960  1.2121
  166MOL0     H22394   7.758   7.002   1.436 -0.0439  0.7247  0.1258
  166MOL0     H22395   7.665   7.203   1.330  1.3536 -0.0750  1.4711
  166MOL0     H22396   8.281   6.789   1.328  0.5890 -2.8831 -2.6387
  166MOL0     H22397   8.439   6.724   1.466 -1.7204  0.7300 -0.1277
  166MOL0     H22398   8.769   6.552   1.794  1.4790 -0.5193 -0.0708
  166MOL0     H22399   8.898   6.368   1.796 -2.7010  1.9287  0.7208
  166MOL0     H22400   9.111   6.076   1.638  0.3415  0.2532 -0.2941
  166MOL0     H22401   9.038   6.199   1.756 -1.8112  3.4154 -1.0064
  166MOL0     H22402   8.824   6.087   1.717 -3.1961 -2.8170 -2.4004
  166MOL0     H22403   8.948   5.965   1.747 -4.1879  1.5349  3.0990
  166MOL0     H22404   8.949   5.922   1.507  0.1438 -0.1632 -0.0427
  166MOL0     H22405   8.822   6.039   1.473  3.2587  0.7325  0.4289
  166MOL0     H22406   8.664   5.914   1.653 -1.1176 -1.1309 -2.5916
  166MOL0     H22407   8.796   5.810   1.666  2.2266 -0.4679 -1.6781
  166MOL0     H22408   8.581   5.682   1.319  2.7408 -1.2489 -2.2875
  166MOL0     H22409   8.974   6.407   1.365 -0.5226  1.8137 -0.5341
  166MOL0     H22410   8.847   6.614   1.372 -0.8073 -3.0279 -1.7663
  167MOL0     O22411   2.199  10.944   9.628 -0.2078  0.0875  0.1961
  167MOL0     C22412   2.140  10.895   9.729  0.1951 -0.6043 -0.2981
  167MOL0     O22413   2.003  10.896   9.747  0.1295 -0.4711 -0.6360
  167MOL0     C22414   1.933  10.990   9.664  0.8866 -2.1307 -0.5247
  167MOL0     C22415   1.888  10.957   9.542  0.1797 -0.3581  0.3543
  167MOL0     C22416   1.823  11.052   9.459 -0.1283 -0.5494 -0.9700
  167MOL0     C22417   1.776  11.173   9.521 -0.4564 -0.3915  0.4201
  167MOL0     O22418   1.680  11.257   9.465 -0.4883 -0.0519  0.4879
  167MOL0     C22419   1.567  11.277   9.548 -0.5747 -0.0107 -0.3975
  167MOL0     C22420   1.451  11.298   9.455 -0.1540 -0.1415 -0.0993
  167MOL0     C22421   1.323  11.301   9.545 -0.6376  0.0833  0.3347
  167MOL0     C22422   1.199  11.297   9.448  0.5436 -0.0437 -0.3261
  167MOL0     C22423   1.068  11.325   9.520  0.1681 -0.5216  0.2102
  167MOL0     C22424   0.961  11.357   9.428 -0.5612 -0.1917 -0.1262
  167MOL0     C22425   0.963  11.504   9.370  0.4851 -0.9405 -0.6651
  167MOL0     C22426   0.943  11.489   9.221  1.1966 -0.0395  0.2205
  167MOL0     N22427   1.071  11.484   9.150  0.2574 -0.8897 -0.1449
  167MOL0     C22428   1.156  11.596   9.128  0.7485  0.3918  0.4434
  167MOL0     C22429   1.266  11.538   9.082 -0.2154 -0.2561  0.3509
  167MOL0     C22430   1.398  11.608   9.054 -0.4721 -0.1295 -0.3033
  167MOL0     C22431   1.491  11.543   9.156  0.2776 -0.3200 -0.1299
  167MOL0     C22432   1.620  11.627   9.182  0.2290 -0.3361 -0.1561
  167MOL0     C22433   1.712  11.547   9.274  0.1586  0.4773  0.1913
  167MOL0     O22434   1.769  11.637   9.370  0.1468  0.2663 -0.4432
  167MOL0     C22435   1.875  11.585   9.445 -0.1159 -0.2864  0.1881
  167MOL0     C22436   1.922  11.675   9.537 -0.0358 -0.2002 -0.6049
  167MOL0     C22437   2.028  11.640   9.624 -0.0314 -0.6882  0.2445
  167MOL0     C22438   2.088  11.751   9.707 -0.2088  0.0260  0.0987
  167MOL0     C22439   2.066  11.506   9.639 -0.0960 -1.0778 -0.2542
  167MOL0     C22440   2.147  11.453   9.748 -0.1859 -0.2072 -0.9661
  167MOL0     O22441   2.201  11.324   9.741  0.2447  0.6982  0.0736
  167MOL0     C22442   2.264  11.272   9.846  0.5354  0.4949  0.3634
  167MOL0     C22443   2.243  11.312   9.983 -0.3284  0.2390  1.0561
  167MOL0     C22444   2.302  11.250  10.094 -1.3478 -0.3001 -0.9146
  167MOL0     C22445   2.401  11.146  10.063  0.5486 -0.6816 -0.6651
  167MOL0     O22446   2.463  11.072  10.163 -0.1457 -0.0375 -0.1019
  167MOL0     C22447   2.424  11.085  10.304 -0.4865  0.6060  0.2238
  167MOL0     C22448   2.512  10.988  10.373 -0.3470 -0.8848 -0.0686
  167MOL0     C22449   2.484  10.993  10.525 -0.7681 -0.5690  0.0217
  167MOL0     C22450   2.590  10.899  10.583 -0.0391 -0.1184 -0.5182
  167MOL0     C22451   2.599  10.908  10.736 -0.5162 -0.6434 -0.3393
  167MOL0     C22452   2.475  10.888  10.823 -0.5547 -1.2373  0.3822
  167MOL0     C22453   2.372  11.004  10.827 -0.6483 -0.0204 -0.0347
  167MOL0     C22454   2.248  10.981  10.921  0.3530 -0.7444  0.1402
  167MOL0    Cl22455   2.120  11.124  10.926 -0.3007 -0.2547 -0.3283
  167MOL0     C22456   2.418  11.110   9.931  1.2308 -0.7482 -0.3996
  167MOL0     C22457   2.345  11.161   9.827 -0.5184 -0.7820 -0.9771
  167MOL0     O22458   2.170  11.528   9.839 -0.0721 -0.5309  0.2046
  167MOL0     C22459   2.033  11.416   9.538  0.5100  0.5585 -1.0788
  167MOL0     C22460   1.930  11.458   9.446 -0.4161 -0.1624  0.3602
  167MOL0     N22461   1.242  11.403   9.069  0.6339  0.2901 -0.4157
  167MOL0     N22462   1.130  11.368   9.125 -0.4271 -0.3617  0.3525
  167MOL0     C22463   1.819  11.204   9.652  0.5608 -0.4545  0.0178
  167MOL0     C22464   1.888  11.108   9.726  0.6211 -0.1773  0.7456
  167MOL0     C22465   2.210  10.826   9.835 -0.2662 -0.7597  0.2056
  167MOL0     C22466   2.199  10.865   9.972 -0.2535 -0.4555  0.0521
  167MOL0     C22467   2.278  10.802  10.068 -0.6920  0.2367  0.0757
  167MOL0     C22468   2.366  10.697  10.033 -0.5340 -0.9064 -0.2506
  167MOL0     O22469   2.427  10.617  10.127 -0.0972  0.1120  0.4180
  167MOL0     C22470   2.544  10.554  10.078  0.2338  0.1236  0.0947
  167MOL0     C22471   2.617  10.500  10.197  0.5982 -0.0932  0.3308
  167MOL0     C22472   2.717  10.389  10.169  0.3821  0.1818  0.2444
  167MOL0     C22473   2.866  10.434  10.162  0.0443 -0.1983  0.7816
  167MOL0     C22474   2.924  10.485  10.281 -0.5212  0.0985 -0.3054
  167MOL0     C22475   2.950  10.523  10.396 -0.8669 -0.4093  0.0732
  167MOL0     C22476   2.365  10.659   9.896  0.3793 -0.6135  0.6564
  167MOL0     C22477   2.299  10.721   9.798  0.0496  0.1263 -0.1232
  167MOL0     H22478   1.905  10.855   9.509  0.8900  0.0547 -0.5913
  167MOL0     H22479   1.801  11.028   9.356 -3.8036  1.8385 -0.9543
  167MOL0     H22480   1.557  11.196   9.621  1.8663  0.7976  0.9327
  167MOL0     H22481   1.587  11.370   9.603  4.8243 -0.5985 -0.8348
  167MOL0     H22482   1.465  11.394   9.406 -1.1250 -0.2358 -0.5933
  167MOL0     H22483   1.451  11.211   9.389  0.4282 -0.0631 -0.2086
  167MOL0     H22484   1.318  11.209   9.604  0.4033 -0.5640 -0.5483
  167MOL0     H22485   1.322  11.397   9.598 -0.8570  1.0988 -1.4286
  167MOL0     H22486   1.202  11.373   9.370  0.9609 -2.8538 -3.2479
  167MOL0     H22487   1.203  11.199   9.400  2.1568 -0.3630  0.3941
  167MOL0     H22488   1.043  11.240   9.584  0.5149  0.0393  1.1120
  167MOL0     H22489   1.074  11.415   9.582 -2.4112 -1.6128  2.2233
  167MOL0     H22490   0.947  11.277   9.355 -3.5551  0.4159 -0.3561
  167MOL0     H22491   0.870  11.355   9.490 -0.2708  2.1895  0.4822
  167MOL0     H22492   0.877  11.561   9.406  0.8611 -0.5710 -0.3461
  167MOL0     H22493   1.054  11.559   9.397 -0.9025 -0.1433  3.0161
  167MOL0     H22494   0.904  11.575   9.166  0.9508 -0.7789 -0.7874
  167MOL0     H22495   0.872  11.409   9.200  1.7622 -0.1773 -1.2917
  167MOL0     H22496   1.144  11.703   9.141  1.2243  0.6294 -0.8845
  167MOL0     H22497   1.426  11.586   8.950 -2.3105 -2.9031 -0.2988
  167MOL0     H22498   1.388  11.717   9.063 -2.6107 -0.3431  0.4318
  167MOL0     H22499   1.505  11.439   9.127 -2.8251 -0.8123 -0.2526
  167MOL0     H22500   1.433  11.559   9.247 -1.2718  0.4218 -1.2056
  167MOL0     H22501   1.606  11.726   9.226 -0.5941 -0.3935 -0.2771
  167MOL0     H22502   1.677  11.645   9.091  2.5031 -2.9287  0.5820
  167MOL0     H22503   1.787  11.498   9.211 -0.8443 -1.4562  0.4255
  167MOL0     H22504   1.661  11.461   9.317  3.4831 -2.8742 -1.9397
  167MOL0     H22505   1.880  11.774   9.548 -1.9422 -0.5186 -3.6629
  167MOL0     H22506   2.050  11.745   9.810  0.8789 -2.3261  0.4483
  167MOL0     H22507   2.197  11.742   9.714 -0.2610  0.7114  2.9959
  167MOL0     H22508   2.067  11.850   9.668 -0.9306 -1.0368 -2.4031
  167MOL0     H22509   2.167  11.378  10.022  0.0308 -0.0133  2.2174
  167MOL0     H22510   2.287  11.280  10.197 -1.8602 -1.0454 -0.7654
  167MOL0     H22511   2.424  11.181  10.357 -2.9479  1.8132 -1.7503
  167MOL0     H22512   2.323  11.045  10.314 -0.1998 -0.0224  0.6426
  167MOL0     H22513   2.525  10.889  10.328  1.5263  0.7921 -3.6452
  167MOL0     H22514   2.616  11.004  10.346  0.2853 -3.3571  0.6075
  167MOL0     H22515   2.383  10.959  10.548 -0.8369 -0.0671  0.5034
  167MOL0     H22516   2.501  11.092  10.570 -0.9359  1.0001 -3.0704
  167MOL0     H22517   2.595  10.795  10.549  2.5447  0.4941 -2.3593
  167MOL0     H22518   2.681  10.936  10.534 -1.4241  1.7099 -1.7993
  167MOL0     H22519   2.633  11.008  10.763  0.1177 -0.6755 -0.9941
  167MOL0     H22520   2.677  10.839  10.767 -0.0625 -0.7637 -1.6809
  167MOL0     H22521   2.428  10.793  10.798 -0.1599 -1.3792  0.1587
  167MOL0     H22522   2.518  10.897  10.923  1.3864  2.7767 -0.6085
  167MOL0     H22523   2.326  11.023  10.730 -0.1374  0.3940 -0.2019
  167MOL0     H22524   2.428  11.094  10.854  2.2281 -1.8207  0.5112
  167MOL0     H22525   2.289  10.973  11.022  1.5420 -3.0223 -0.4432
  167MOL0     H22526   2.205  10.883  10.898 -2.1691  0.7869 -2.1666
  167MOL0     H22527   2.477  11.020   9.917 -0.9076 -2.7101  2.2347
  167MOL0     H22528   2.366  11.138   9.723  0.9896 -1.6191 -0.5147
  167MOL0     H22529   2.079  11.318   9.543  3.0554  1.6802 -0.9280
  167MOL0     H22530   1.894  11.380   9.380  0.8074 -0.7230  0.3145
  167MOL0     H22531   1.789  11.285   9.717  0.2228 -1.5343  1.2540
  167MOL0     H22532   1.910  11.134   9.830  3.8509  1.8275 -0.2799
  167MOL0     H22533   2.131  10.944  10.001  0.4292  0.3298 -0.4159
  167MOL0     H22534   2.274  10.831  10.173  0.1907  0.9675 -0.0763
  167MOL0     H22535   2.516  10.466  10.019  1.3796  0.3865 -0.8785
  167MOL0     H22536   2.606  10.621  10.017  2.1368  0.1738  1.9864
  167MOL0     H22537   2.538  10.479  10.270 -0.0984  0.4995 -0.2335
  167MOL0     H22538   2.674  10.586  10.234  1.0082  0.3570 -1.2768
  167MOL0     H22539   2.689  10.331  10.081 -0.5708  0.7691  0.1468
  167MOL0     H22540   2.706  10.316  10.249 -2.2740 -1.7355 -1.7066
  167MOL0     H22541   2.885  10.497  10.075 -0.1700 -1.3959 -0.1746
  167MOL0     H22542   2.929  10.346  10.144  0.8315  0.1818  1.5987
  167MOL0     H22543   2.970  10.526  10.501 -1.3821 -3.4273  0.3646
  167MOL0     H22544   2.420  10.568   9.876 -2.1464 -2.2949  0.8061
  167MOL0     H22545   2.323  10.695   9.695 -0.8044  4.1328 -1.4836
  168MOL0     O22546   7.650   7.345   5.374  0.6968 -0.0140  0.2243
  168MOL0     C22547   7.760   7.326   5.425 -0.7687  0.3947  0.5252
  168MOL0     O22548   7.889   7.337   5.369  0.0549 -0.7357  0.2674
  168MOL0     C22549   7.905   7.360   5.234  0.1031  0.5827 -0.0024
  168MOL0     C22550   8.038   7.320   5.188  0.2045 -0.7018  0.3164
  168MOL0     C22551   8.068   7.335   5.054  0.6645 -0.2791 -0.0694
  168MOL0     C22552   7.985   7.391   4.958 -0.5924  0.6772  1.5250
  168MOL0     O22553   8.018   7.391   4.825 -0.0170  0.0327  0.9692
  168MOL0     C22554   7.938   7.460   4.740  1.3670 -0.6165 -0.0477
  168MOL0     C22555   7.930   7.613   4.780  1.4859  0.1476  0.2838
  168MOL0     C22556   8.052   7.695   4.741  0.2725 -0.3506 -0.1946
  168MOL0     C22557   8.034   7.781   4.616  0.3914  0.8376 -0.0308
  168MOL0     C22558   8.176   7.814   4.545  0.1122 -0.1284 -0.3376
  168MOL0     C22559   8.276   7.889   4.624  0.4200  0.6255  0.8607
  168MOL0     C22560   8.226   8.033   4.662  0.0537 -0.0521  0.6111
  168MOL0     C22561   8.324   8.137   4.703  1.0453  0.1686  0.0757
  168MOL0     N22562   8.258   8.269   4.716 -0.6021  0.0493  0.0672
  168MOL0     C22563   8.158   8.324   4.645  0.2536 -0.2737  0.0653
  168MOL0     C22564   8.141   8.447   4.684 -0.1173  0.0336  0.4234
  168MOL0     C22565   8.027   8.544   4.644 -0.8002  0.5098  0.4048
  168MOL0     C22566   7.894   8.472   4.666  0.0720 -0.5431 -0.5013
  168MOL0     C22567   7.865   8.422   4.810  0.1640 -0.4426 -0.0156
  168MOL0     C22568   7.728   8.367   4.813  0.9939  0.7244  0.0017
  168MOL0     O22569   7.705   8.267   4.721 -0.3938  0.5687  0.1208
  168MOL0     C22570   7.633   8.163   4.757  0.4859  0.3332 -0.6906
  168MOL0     C22571   7.498   8.163   4.805 -0.6355 -0.0556  0.5356
  168MOL0     C22572   7.432   8.044   4.857 -0.1838 -0.0985  0.5268
  168MOL0     C22573   7.283   8.042   4.897 -0.2322  0.1210 -0.2741
  168MOL0     C22574   7.500   7.927   4.856 -0.4931 -0.3187 -0.3559
  168MOL0     C22575   7.439   7.795   4.906 -0.7231  0.4593  0.7347
  168MOL0     O22576   7.384   7.798   5.033 -0.7221 -0.3465  0.8130
  168MOL0     C22577   7.334   7.680   5.071  0.0977 -0.7290 -0.7904
  168MOL0     C22578   7.197   7.667   5.089 -1.3180  0.2566 -0.6366
  168MOL0     C22579   7.145   7.551   5.147 -0.4450  0.4640  0.2658
  168MOL0     C22580   7.226   7.452   5.184 -0.8212  0.4032 -0.5288
  168MOL0     O22581   7.164   7.332   5.229  0.3691 -0.3880  0.7537
  168MOL0     C22582   7.223   7.227   5.303 -0.2069  0.4659  0.2948
  168MOL0     C22583   7.099   7.140   5.339  0.4364 -0.3435  0.0760
  168MOL0     C22584   7.133   7.011   5.423 -0.1659 -0.4918 -0.0938
  168MOL0     C22585   7.152   7.044   5.572 -1.1650  0.3529 -0.9199
  168MOL0     C22586   7.167   6.917   5.647  0.1000 -0.6039  0.5469
  168MOL0     C22587   7.037   6.854   5.700 -0.0808  0.5349  0.9391
  168MOL0     C22588   6.977   6.923   5.816 -0.1353 -0.1595 -0.0060
  168MOL0     C22589   6.857   6.861   5.891 -0.3420  0.4018  0.4148
  168MOL0    Cl22590   6.884   6.689   5.924 -0.2217  0.1113  0.5654
  168MOL0     C22591   7.366   7.463   5.158  0.6209 -0.4613  0.8404
  168MOL0     C22592   7.425   7.571   5.098 -0.4935  0.1062  0.1137
  168MOL0     O22593   7.444   7.703   4.830 -0.1694 -0.1602  0.6163
  168MOL0     C22594   7.630   7.922   4.802  0.5070 -0.4784  0.0138
  168MOL0     C22595   7.693   8.036   4.755 -0.2542 -0.4904  0.3121
  168MOL0     N22596   8.229   8.469   4.784  1.0315 -0.0406 -0.1094
  168MOL0     N22597   8.301   8.367   4.804  0.0882 -0.1589  0.9568
  168MOL0     C22598   7.854   7.426   5.007 -0.7213 -0.0225  0.4141
  168MOL0     C22599   7.815   7.421   5.144 -0.3376  0.0094  0.4824
  168MOL0     C22600   7.754   7.273   5.562  0.2192  1.1910  0.1506
  168MOL0     C22601   7.631   7.238   5.622 -0.4510  0.2114 -0.7613
  168MOL0     C22602   7.631   7.149   5.736  0.6757  0.5993 -0.4846
  168MOL0     C22603   7.746   7.130   5.808  0.5024  0.0649  0.5163
  168MOL0     O22604   7.740   7.063   5.924  0.4053 -1.0695 -0.2856
  168MOL0     C22605   7.814   7.113   6.041  0.9526 -0.5651  0.3336
  168MOL0     C22606   7.770   7.047   6.173 -0.2435  0.0861  0.2961
  168MOL0     C22607   7.611   7.025   6.168  0.0504  1.5769 -0.4770
  168MOL0     C22608   7.556   7.042   6.310 -0.9654  0.3250  0.6143
  168MOL0     C22609   7.593   6.925   6.389 -0.0621 -0.1349 -0.4247
  168MOL0     C22610   7.625   6.817   6.444  0.5196 -0.3707  1.6960
  168MOL0     C22611   7.868   7.181   5.761  0.8326  0.2416 -1.0205
  168MOL0     C22612   7.873   7.242   5.635 -0.1420  0.3985 -0.1380
  168MOL0     H22613   8.110   7.272   5.254 -0.7157 -0.5248  1.4771
  168MOL0     H22614   8.160   7.288   5.023 -0.6161 -2.1781 -1.2383
  168MOL0     H22615   7.985   7.463   4.641  0.9335  1.6532 -0.2391
  168MOL0     H22616   7.840   7.413   4.734 -1.2123  4.0186  0.8513
  168MOL0     H22617   7.846   7.654   4.723  1.6125  1.2577  0.8627
  168MOL0     H22618   7.899   7.635   4.883 -2.0147  1.4595 -0.9044
  168MOL0     H22619   8.086   7.755   4.825  1.9436  0.2264 -1.2307
  168MOL0     H22620   8.142   7.632   4.734  2.0104  2.0107 -0.2853
  168MOL0     H22621   7.971   7.726   4.546 -0.8888 -1.0073  2.4120
  168MOL0     H22622   7.973   7.868   4.642 -0.0856  0.2354  0.9321
  168MOL0     H22623   8.222   7.715   4.533  2.2671  0.4793  1.8989
  168MOL0     H22624   8.182   7.873   4.454 -0.7542  1.9930  0.9126
  168MOL0     H22625   8.305   7.848   4.721  0.1917  1.9952  1.5262
  168MOL0     H22626   8.375   7.878   4.578  0.3562 -0.8998  1.0339
  168MOL0     H22627   8.171   8.082   4.581 -0.8936  1.5127  2.1343
  168MOL0     H22628   8.152   8.019   4.741  2.2275  0.2846  2.8512
  168MOL0     H22629   8.392   8.153   4.619  0.0925  0.9988 -0.5669
  168MOL0     H22630   8.372   8.106   4.796 -0.1136 -1.7379  0.0898
  168MOL0     H22631   8.100   8.284   4.562  0.9187 -2.0790  0.4164
  168MOL0     H22632   8.019   8.633   4.708  0.8834  1.3925 -0.5489
  168MOL0     H22633   8.042   8.579   4.542 -0.3359 -0.9443 -0.0543
  168MOL0     H22634   7.887   8.387   4.598 -0.5437 -1.7252  0.9980
  168MOL0     H22635   7.813   8.534   4.626 -1.7713 -2.5267 -0.0233
  168MOL0     H22636   7.861   8.504   4.882 -2.3150 -2.0299  1.7909
  168MOL0     H22637   7.945   8.354   4.841  2.1035  1.4941 -0.5215
  168MOL0     H22638   7.657   8.450   4.801  2.1451  1.5049 -1.7947
  168MOL0     H22639   7.709   8.320   4.909  0.1726 -0.5954 -0.7753
  168MOL0     H22640   7.449   8.260   4.800  2.8613  1.9221  1.2446
  168MOL0     H22641   7.258   8.071   5.000 -3.9143 -0.6404 -0.8035
  168MOL0     H22642   7.236   8.122   4.839 -2.5085 -2.3636 -2.1218
  168MOL0     H22643   7.237   7.948   4.864  2.6801 -1.2572 -0.6689
  168MOL0     H22644   7.118   7.739   5.070 -2.0097  1.2496  4.4865
  168MOL0     H22645   7.038   7.538   5.163 -0.9540  2.9125 -0.7004
  168MOL0     H22646   7.292   7.164   5.245 -1.1256 -0.6958  0.4160
  168MOL0     H22647   7.281   7.259   5.390  1.8885  0.6302 -1.0982
  168MOL0     H22648   7.040   7.202   5.407  0.0866 -0.4416 -0.1358
  168MOL0     H22649   7.055   7.098   5.248  0.7307 -0.1163 -0.1723
  168MOL0     H22650   7.216   6.948   5.388  0.9741 -0.1075  1.8132
  168MOL0     H22651   7.038   6.957   5.424 -3.6741  4.7037  4.8845
  168MOL0     H22652   7.232   7.117   5.590 -2.9177  1.8389  1.5735
  168MOL0     H22653   7.053   7.077   5.603 -1.1751  1.5716 -2.1685
  168MOL0     H22654   7.226   6.947   5.734  1.5281  3.4791 -1.5604
  168MOL0     H22655   7.230   6.845   5.594  1.2740  1.3292 -0.7803
  168MOL0     H22656   6.964   6.858   5.618  0.9918 -1.0356 -0.1526
  168MOL0     H22657   7.052   6.754   5.740 -0.6141  0.5605  1.2100
  168MOL0     H22658   6.928   7.011   5.772  1.3418  0.6631 -0.0734
  168MOL0     H22659   7.057   6.952   5.884  1.3380  0.8406 -2.0676
  168MOL0     H22660   6.768   6.878   5.830 -2.9811  1.0609  4.1168
  168MOL0     H22661   6.835   6.906   5.988 -1.3826  0.0000  0.3683
  168MOL0     H22662   7.426   7.380   5.194  0.0705 -0.0222  2.8822
  168MOL0     H22663   7.533   7.585   5.096 -0.3794  0.1304 -4.5127
  168MOL0     H22664   7.686   7.828   4.806  0.3300 -0.5551  1.0274
  168MOL0     H22665   7.795   8.035   4.717  0.3084  3.7560  1.3044
  168MOL0     H22666   7.769   7.449   4.944 -1.0544  1.9119  1.4905
  168MOL0     H22667   7.714   7.449   5.172 -0.8072 -0.5223 -0.6182
  168MOL0     H22668   7.538   7.266   5.575 -0.1228 -0.0129 -1.5586
  168MOL0     H22669   7.540   7.110   5.782  1.2155 -1.1593 -0.8236
  168MOL0     H22670   7.922   7.103   6.029  1.5339  3.1692  1.1654
  168MOL0     H22671   7.799   7.221   6.051 -3.6371 -0.9738 -0.1818
  168MOL0     H22672   7.808   7.104   6.258 -0.7719  0.4561  0.2894
  168MOL0     H22673   7.802   6.942   6.181 -3.5503 -0.9622  1.4485
  168MOL0     H22674   7.588   6.925   6.130  2.1089  0.8498  0.0840
  168MOL0     H22675   7.572   7.108   6.108  0.1144  2.9493  1.2851
  168MOL0     H22676   7.447   7.049   6.314 -0.8602  2.7598  0.9436
  168MOL0     H22677   7.584   7.132   6.366  3.0020  0.8402 -1.8007
  168MOL0     H22678   7.661   6.736   6.505 -0.6096 -0.6801  1.9831
  168MOL0     H22679   7.966   7.170   5.807  0.3915  0.4729  0.0040
  168MOL0     H22680   7.967   7.264   5.586  0.3652 -1.9475 -0.3147
  169MOL0     O22681   0.364   0.927   3.074  0.0655 -0.3739 -0.1892
  169MOL0     C22682   0.475   0.885   3.053 -0.0672 -0.7383  0.4803
  169MOL0     O22683   0.537   0.804   3.141  0.2373  0.4643  0.0097
  169MOL0     C22684   0.521   0.820   3.276 -0.3381 -0.7354 -0.1350
  169MOL0     C22685   0.396   0.789   3.337  0.8163 -0.0456  0.4718
  169MOL0     C22686   0.370   0.823   3.474 -0.4999 -0.8887  0.0761
  169MOL0     C22687   0.480   0.879   3.554  0.4916 -1.2154  0.1019
  169MOL0     O22688   0.471   0.916   3.683  0.4124 -0.6735 -0.1446
  169MOL0     C22689   0.395   0.826   3.768  0.2425  0.2486 -0.8300
  169MOL0     C22690   0.250   0.853   3.805 -0.4997 -0.4247 -0.2746
  169MOL0     C22691   0.250   0.994   3.868 -0.0650 -0.4704 -0.5989
  169MOL0     C22692   0.115   1.049   3.917 -0.1662 -0.7209 -0.1979
  169MOL0     C22693   0.135   1.177   4.000  0.5823  0.1194 -0.4580
  169MOL0     C22694  -0.004   1.240   4.043 -0.1872  0.0460  0.0578
  169MOL0     C22695  -0.066   1.156   4.151 -0.8509  0.1676  0.6824
  169MOL0     C22696  -0.183   1.057   4.122  0.1348 -0.1090  0.0350
  169MOL0     N22697  -0.269   1.122   4.023 -0.5487 -0.1046 -0.1055
  169MOL0     C22698  -0.305   1.248   4.042  0.6398 -0.1594 -0.2571
  169MOL0     C22699  -0.401   1.274   3.952 -0.0425 -0.2106 -0.5306
  169MOL0     C22700  -0.476   1.404   3.945  0.7526  0.4142 -0.1139
  169MOL0     C22701  -0.414   1.513   3.869 -0.1044 -0.5247  0.4801
  169MOL0     C22702  -0.496   1.646   3.884 -0.1092 -0.4432  0.3453
  169MOL0     C22703  -0.460   1.747   3.773 -0.6799 -1.1111  0.3752
  169MOL0     O22704  -0.509   1.694   3.651 -1.0723  0.1750  0.8254
  169MOL0     C22705  -0.554   1.793   3.561  0.9789  0.2815  1.2536
  169MOL0     C22706  -0.602   1.740   3.431 -0.1318 -0.2167 -1.4618
  169MOL0     C22707  -0.662   1.808   3.326 -0.7244  0.3449  0.3176
  169MOL0     C22708  -0.684   1.731   3.192 -0.3692 -0.4435 -0.2173
  169MOL0     C22709  -0.708   1.937   3.362 -0.4249  0.1185 -0.6422
  169MOL0     C22710  -0.797   2.022   3.267 -0.4219  0.8209 -0.3681
  169MOL0     O22711  -0.767   2.020   3.130  0.5397 -0.6063 -0.0756
  169MOL0     C22712  -0.838   2.105   3.041 -0.1328  0.2235 -0.7460
  169MOL0     C22713  -0.896   2.234   3.078  0.2496  0.3589  0.3201
  169MOL0     C22714  -0.947   2.322   2.983 -0.1435  0.2721  0.4246
  169MOL0     C22715  -0.971   2.269   2.857 -0.7626  0.3523  0.3362
  169MOL0     O22716  -1.018   2.374   2.782  0.2035 -0.1295  0.3999
  169MOL0     C22717  -1.023   2.348   2.642  1.2296  0.2364  0.4339
  169MOL0     C22718  -1.095   2.448   2.552 -0.3801 -0.7023  0.2523
  169MOL0     C22719  -1.109   2.376   2.418  0.2010  0.1998  0.6908
  169MOL0     C22720  -1.223   2.441   2.352 -0.6145  0.1716 -0.7016
  169MOL0     C22721  -1.268   2.373   2.224  0.7464  0.4766  0.3116
  169MOL0     C22722  -1.384   2.448   2.171  0.3496  0.3300  0.7778
  169MOL0     C22723  -1.432   2.427   2.029  0.0717  0.5880 -0.0458
  169MOL0     C22724  -1.480   2.282   1.999 -0.8390  0.1724  0.7291
  169MOL0    Cl22725  -1.617   2.217   2.088  0.1077  0.0486 -0.3628
  169MOL0     C22726  -0.911   2.152   2.816 -0.1144  0.9019 -0.7201
  169MOL0     C22727  -0.843   2.066   2.911  1.5706  0.0110 -0.2726
  169MOL0     O22728  -0.889   2.073   3.327  0.2614 -0.0907  0.1293
  169MOL0     C22729  -0.687   1.996   3.490  0.2774  0.1249 -0.8273
  169MOL0     C22730  -0.600   1.922   3.578  0.1216 -0.5072 -0.7740
  169MOL0     N22731  -0.432   1.157   3.889  0.1237  0.4829 -0.0109
  169MOL0     N22732  -0.347   1.065   3.925 -0.2756  0.5502  0.7241
  169MOL0     C22733   0.602   0.900   3.494 -0.5102  0.1928 -0.1560
  169MOL0     C22734   0.629   0.861   3.356 -0.1773 -0.0523 -0.3210
  169MOL0     C22735   0.535   0.909   2.917 -0.1616 -0.9026  0.6870
  169MOL0     C22736   0.658   0.853   2.874 -0.5518 -0.0109  1.2741
  169MOL0     C22737   0.709   0.870   2.740  0.2695  0.2760 -0.1126
  169MOL0     C22738   0.624   0.941   2.648  1.0273  0.2389 -0.1908
  169MOL0     O22739   0.677   0.959   2.529 -0.1087 -1.1778  0.4669
  169MOL0     C22740   0.614   1.050   2.432  1.3775  0.7714 -0.2050
  169MOL0     C22741   0.609   1.199   2.478  0.2127 -0.0528 -0.3826
  169MOL0     C22742   0.743   1.264   2.497 -0.5007 -0.7692 -0.1895
  169MOL0     C22743   0.757   1.404   2.439 -0.1488  0.6228  0.0011
  169MOL0     C22744   0.663   1.504   2.496 -0.1551 -0.6897  0.3775
  169MOL0     C22745   0.568   1.575   2.514  1.5980  0.1116 -1.5176
  169MOL0     C22746   0.505   0.997   2.693 -0.5941 -0.7330  0.5363
  169MOL0     C22747   0.465   0.980   2.822  0.5028 -0.6368 -0.4069
  169MOL0     H22748   0.311   0.760   3.277  0.2359  1.8011  0.3461
  169MOL0     H22749   0.273   0.815   3.520 -2.0076  1.6986 -2.3195
  169MOL0     H22750   0.398   0.720   3.742 -0.3739  0.1367 -0.4678
  169MOL0     H22751   0.452   0.841   3.859  0.5729  4.7011 -1.5345
  169MOL0     H22752   0.187   0.850   3.716 -1.3275  1.4659  0.2076
  169MOL0     H22753   0.216   0.778   3.878  1.9068  0.5500  2.0105
  169MOL0     H22754   0.319   1.004   3.952 -0.2295 -0.4177 -0.4713
  169MOL0     H22755   0.281   1.066   3.791  0.2664 -0.2963 -0.3032
  169MOL0     H22756   0.050   1.073   3.832  0.3247  0.6675 -0.1953
  169MOL0     H22757   0.072   0.968   3.978  0.3605  0.0091  1.1796
  169MOL0     H22758   0.186   1.149   4.093 -1.7500  0.0471  0.8976
  169MOL0     H22759   0.198   1.252   3.954  0.9771  2.2827  3.1743
  169MOL0     H22760   0.023   1.339   4.081 -0.2028  1.3650 -3.0650
  169MOL0     H22761  -0.069   1.255   3.956  0.5039 -0.7134 -0.6137
  169MOL0     H22762   0.012   1.107   4.210 -0.1013  2.3867  1.6604
  169MOL0     H22763  -0.108   1.227   4.223 -0.6844  0.2503  0.6991
  169MOL0     H22764  -0.252   1.028   4.202  1.0853  0.2757  1.0234
  169MOL0     H22765  -0.136   0.965   4.085 -1.2085 -1.0214  0.5215
  169MOL0     H22766  -0.275   1.315   4.121  3.0744 -2.6546  1.0887
  169MOL0     H22767  -0.575   1.382   3.904  0.2174  0.0905  1.2745
  169MOL0     H22768  -0.499   1.439   4.046 -0.4875 -1.8538  0.4792
  169MOL0     H22769  -0.406   1.472   3.768 -0.6519 -0.9927  0.6160
  169MOL0     H22770  -0.308   1.523   3.893 -0.0058  1.3100 -0.5428
  169MOL0     H22771  -0.475   1.690   3.982  1.4881 -0.2379 -0.0592
  169MOL0     H22772  -0.603   1.627   3.878  0.1108 -1.6670 -0.1014
  169MOL0     H22773  -0.353   1.770   3.773 -0.9910  0.6255  2.2418
  169MOL0     H22774  -0.509   1.840   3.804  0.8888 -0.8254  2.1290
  169MOL0     H22775  -0.578   1.636   3.411 -1.6342 -1.7962  3.4939
  169MOL0     H22776  -0.599   1.737   3.123  1.2159 -0.4956  1.6560
  169MOL0     H22777  -0.719   1.627   3.200 -1.7443  0.0875  1.1607
  169MOL0     H22778  -0.770   1.786   3.152 -0.7138 -0.7722  0.0646
  169MOL0     H22779  -0.903   2.274   3.179 -1.0053 -0.7696  0.7001
  169MOL0     H22780  -0.957   2.423   3.023  3.3241  0.2714  1.6382
  169MOL0     H22781  -0.924   2.324   2.603 -0.6019 -1.1295 -3.9058
  169MOL0     H22782  -1.076   2.254   2.630  2.2172 -0.0904 -1.7305
  169MOL0     H22783  -1.189   2.478   2.599  0.5255 -0.9254  2.3566
  169MOL0     H22784  -1.035   2.536   2.531 -0.1638 -0.9769 -0.2967
  169MOL0     H22785  -1.132   2.271   2.436 -1.3631  0.4165  0.1163
  169MOL0     H22786  -1.014   2.374   2.364 -0.4794 -2.8206 -0.6020
  169MOL0     H22787  -1.311   2.445   2.416 -0.9932 -1.1593 -1.1091
  169MOL0     H22788  -1.190   2.544   2.330  0.1212  0.3305  1.0315
  169MOL0     H22789  -1.299   2.273   2.253 -2.2612  1.7640  2.0046
  169MOL0     H22790  -1.189   2.372   2.148  0.4659 -2.5698 -0.0618
  169MOL0     H22791  -1.468   2.441   2.241 -0.7167  0.5358 -0.4437
  169MOL0     H22792  -1.360   2.555   2.175  1.1786  0.1268  1.5924
  169MOL0     H22793  -1.342   2.433   1.968  1.9517  0.5042  2.6033
  169MOL0     H22794  -1.518   2.490   2.004 -1.6331 -0.9261  1.6692
  169MOL0     H22795  -1.406   2.205   2.019 -0.4166 -1.1373 -4.3771
  169MOL0     H22796  -1.496   2.272   1.891 -1.2681  2.2852  0.5443
  169MOL0     H22797  -0.908   2.125   2.710  3.3085  0.5843 -0.6509
  169MOL0     H22798  -0.798   1.974   2.873  0.3132  0.3222 -2.7831
  169MOL0     H22799  -0.733   2.092   3.513  2.0899  1.3799 -2.1031
  169MOL0     H22800  -0.589   1.972   3.674 -0.4402 -3.5408  0.9876
  169MOL0     H22801   0.690   0.937   3.547  1.0500  0.5732 -2.7999
  169MOL0     H22802   0.730   0.873   3.318 -0.1181 -1.3093 -0.6185
  169MOL0     H22803   0.717   0.783   2.932 -2.4887 -1.3049  1.7905
  169MOL0     H22804   0.801   0.820   2.713 -0.6667 -3.0548  2.2937
  169MOL0     H22805   0.663   1.051   2.335  0.1614 -1.6789 -0.9405
  169MOL0     H22806   0.515   1.009   2.409  1.8730 -0.3235 -0.4760
  169MOL0     H22807   0.541   1.226   2.559  0.9837  0.9545 -0.0394
  169MOL0     H22808   0.558   1.250   2.396  2.7150  0.0677 -1.9529
  169MOL0     H22809   0.821   1.207   2.445 -0.4415 -0.7551 -0.1164
  169MOL0     H22810   0.777   1.271   2.600 -1.7211  4.4596  0.1205
  169MOL0     H22811   0.736   1.398   2.332 -1.4633  3.8855 -0.0202
  169MOL0     H22812   0.856   1.448   2.451 -0.0740 -0.0524  2.4463
  169MOL0     H22813   0.486   1.633   2.553  0.7559 -1.8928 -0.1514
  169MOL0     H22814   0.449   1.047   2.615 -2.8406 -4.6599 -0.6547
  169MOL0     H22815   0.369   1.022   2.849  0.5651  0.6364 -2.0211
  170MOL0     O22816   7.263   3.922   2.234 -0.3709 -0.2506 -0.8381
  170MOL0     C22817   7.370   3.966   2.186  1.0164  0.3409  0.0022
  170MOL0     O22818   7.475   3.891   2.134 -0.1175 -0.3403 -0.3084
  170MOL0     C22819   7.472   3.753   2.156  0.4197 -0.2770 -0.3853
  170MOL0     C22820   7.395   3.669   2.082 -0.8466 -0.2117 -0.6725
  170MOL0     C22821   7.385   3.533   2.101 -0.5770  0.0756 -0.9347
  170MOL0     C22822   7.456   3.487   2.202 -0.4600  0.5042 -0.7316
  170MOL0     O22823   7.433   3.353   2.228 -0.2144 -0.4410 -0.3399
  170MOL0     C22824   7.552   3.281   2.274 -0.5414  0.2329 -0.5833
  170MOL0     C22825   7.491   3.148   2.315 -0.7835 -0.0517 -0.0753
  170MOL0     C22826   7.491   3.046   2.201  0.2015 -0.1050 -0.0008
  170MOL0     C22827   7.450   2.900   2.237  0.1469 -0.3552 -0.3751
  170MOL0     C22828   7.297   2.870   2.253 -0.3299  0.7928  0.1292
  170MOL0     C22829   7.211   2.930   2.152 -0.6198 -0.3729 -0.0001
  170MOL0     C22830   7.062   2.896   2.182  0.0763 -0.1797  0.6467
  170MOL0     C22831   6.951   3.003   2.152 -0.4865  0.2751  0.1235
  170MOL0     N22832   6.968   3.136   2.213 -0.0240  0.3546 -0.6725
  170MOL0     C22833   6.965   3.164   2.340  0.4308  0.5475  0.3448
  170MOL0     C22834   6.982   3.294   2.352  0.8438  0.0256  0.8374
  170MOL0     C22835   6.980   3.363   2.486 -0.2824 -0.5945 -0.4137
  170MOL0     C22836   7.107   3.330   2.565 -1.6576  0.0590 -0.1233
  170MOL0     C22837   7.231   3.369   2.490  0.4885 -0.0569  0.0249
  170MOL0     C22838   7.360   3.395   2.572  0.5857 -0.1308  0.2511
  170MOL0     O22839   7.424   3.274   2.615  0.0472 -0.4878  0.0926
  170MOL0     C22840   7.521   3.290   2.709  0.2440  0.0174  0.3139
  170MOL0     C22841   7.656   3.296   2.680 -0.0105 -0.2425 -0.2711
  170MOL0     C22842   7.754   3.317   2.786  0.5162  1.1009 -0.3560
  170MOL0     C22843   7.901   3.335   2.750  0.7880  0.5535 -0.5855
  170MOL0     C22844   7.710   3.347   2.916 -0.8220  1.3820  0.3959
  170MOL0     C22845   7.801   3.384   3.023  0.7959  0.9422  0.3937
  170MOL0     O22846   7.794   3.299   3.129 -0.0277  0.3964 -0.1916
  170MOL0     C22847   7.870   3.337   3.235  0.2139  0.6159  0.3956
  170MOL0     C22848   7.982   3.262   3.247  0.7716 -0.0333 -0.8435
  170MOL0     C22849   8.069   3.292   3.352 -0.0320 -0.2293  0.3128
  170MOL0     C22850   8.059   3.406   3.432  0.1278 -0.1455  0.6552
  170MOL0     O22851   8.147   3.449   3.527 -0.3505  0.7996 -0.1751
  170MOL0     C22852   8.287   3.408   3.506 -0.5917  0.4020 -1.2536
  170MOL0     C22853   8.356   3.483   3.618 -0.2269 -0.0990  1.3262
  170MOL0     C22854   8.509   3.495   3.601 -0.8563  0.4331  0.3797
  170MOL0     C22855   8.570   3.608   3.677 -0.2270 -0.4742  0.0978
  170MOL0     C22856   8.727   3.618   3.665  0.7574 -0.9361 -0.7308
  170MOL0     C22857   8.789   3.718   3.771  0.0071  0.3570  0.8863
  170MOL0     C22858   8.743   3.861   3.745  0.2676  0.3608  0.1986
  170MOL0     C22859   8.808   3.966   3.839  0.1847 -0.1571 -0.4314
  170MOL0    Cl22860   8.748   3.938   4.007  0.0145  0.2030  0.2161
  170MOL0     C22861   7.938   3.481   3.418  0.6721  0.2665 -0.6695
  170MOL0     C22862   7.849   3.444   3.318 -0.3882  0.1249 -0.1776
  170MOL0     O22863   7.866   3.490   3.008 -0.1951 -0.0017 -0.3986
  170MOL0     C22864   7.572   3.335   2.938 -0.2698 -0.7552 -0.8426
  170MOL0     C22865   7.482   3.300   2.839  0.0050 -1.2503 -0.1960
  170MOL0     N22866   6.992   3.348   2.222 -0.5438 -0.0709 -0.5468
  170MOL0     N22867   6.982   3.248   2.146  0.1874 -0.3296 -0.2128
  170MOL0     C22868   7.542   3.565   2.281  0.7070 -0.4852  0.3071
  170MOL0     C22869   7.549   3.705   2.253  0.4779  0.5499  0.5450
  170MOL0     C22870   7.395   4.110   2.208 -0.5663  0.1270  0.2176
  170MOL0     C22871   7.299   4.198   2.251  0.2429 -0.3773 -0.6446
  170MOL0     C22872   7.326   4.329   2.280  0.0407  0.1096  0.0881
  170MOL0     C22873   7.459   4.372   2.283 -0.3046 -0.1968 -0.1037
  170MOL0     O22874   7.476   4.505   2.322 -0.5760  0.7437 -0.1943
  170MOL0     C22875   7.605   4.560   2.322 -0.2851 -0.1302  0.7843
  170MOL0     C22876   7.625   4.678   2.418  1.0876 -0.3925 -0.9042
  170MOL0     C22877   7.737   4.774   2.391 -0.6673  0.2540  0.3430
  170MOL0     C22878   7.877   4.720   2.380 -0.4609  0.7251 -0.1463
  170MOL0     C22879   7.960   4.829   2.322  0.6082  0.0451  0.2352
  170MOL0     C22880   8.008   4.937   2.299  0.1327 -0.2223  0.3623
  170MOL0     C22881   7.553   4.285   2.241 -0.8934  0.2734 -0.0043
  170MOL0     C22882   7.522   4.161   2.196  0.0781 -0.2140 -0.0882
  170MOL0     H22883   7.338   3.712   2.001 -3.6006  3.4564  2.7905
  170MOL0     H22884   7.319   3.477   2.035  0.1397 -0.7670 -0.9550
  170MOL0     H22885   7.632   3.263   2.202  0.1826 -1.6809  0.6154
  170MOL0     H22886   7.611   3.335   2.348 -1.7226 -1.9534  2.1497
  170MOL0     H22887   7.566   3.108   2.384  1.8087 -1.0384 -3.2153
  170MOL0     H22888   7.394   3.155   2.366 -1.8203 -0.0857 -1.9739
  170MOL0     H22889   7.433   3.089   2.119  1.1868  2.4175  0.5381
  170MOL0     H22890   7.595   3.043   2.167 -0.5889 -1.0445 -2.5311
  170MOL0     H22891   7.472   2.841   2.147  0.3930  3.1403 -2.8097
  170MOL0     H22892   7.504   2.869   2.327 -1.8528 -1.5944  0.4892
  170MOL0     H22893   7.284   2.761   2.249 -0.3177  0.8149 -0.6782
  170MOL0     H22894   7.268   2.910   2.351  2.6529 -0.4375  1.6207
  170MOL0     H22895   7.226   3.038   2.159  3.4469 -0.7155 -0.5671
  170MOL0     H22896   7.237   2.906   2.048  0.1075  2.2997 -0.5096
  170MOL0     H22897   7.043   2.793   2.152  0.4162 -0.2629  0.7123
  170MOL0     H22898   7.065   2.893   2.291 -2.9330 -2.9282  0.7892
  170MOL0     H22899   6.856   2.964   2.190 -0.3808  0.1756  0.2870
  170MOL0     H22900   6.949   3.027   2.045  0.3110 -0.1498  0.0035
  170MOL0     H22901   6.950   3.095   2.423 -0.7818 -0.2666 -0.5029
  170MOL0     H22902   6.969   3.470   2.470  2.3715  0.3220  2.7073
  170MOL0     H22903   6.904   3.323   2.554  2.1623 -3.6386  0.7791
  170MOL0     H22904   7.116   3.223   2.584 -0.9030 -0.0741 -1.1844
  170MOL0     H22905   7.097   3.383   2.661 -1.7332 -0.7178  0.3054
  170MOL0     H22906   7.211   3.461   2.435 -4.6656  0.0581  1.6335
  170MOL0     H22907   7.238   3.297   2.408  0.7784  0.3882 -0.3479
  170MOL0     H22908   7.322   3.452   2.657 -2.4173  2.2535 -2.4253
  170MOL0     H22909   7.448   3.445   2.530  2.2361 -0.4581  3.0075
  170MOL0     H22910   7.701   3.290   2.581 -1.0048  0.5916 -0.7852
  170MOL0     H22911   7.908   3.317   2.642 -1.2286  0.4312 -0.7426
  170MOL0     H22912   7.925   3.442   2.752  2.0322  0.2948 -0.8051
  170MOL0     H22913   7.965   3.263   2.802 -0.4255 -0.1919 -0.0875
  170MOL0     H22914   7.987   3.167   3.196  1.0509 -0.1914 -0.5240
  170MOL0     H22915   8.139   3.214   3.382 -0.1038 -0.3388  0.1944
  170MOL0     H22916   8.299   3.300   3.515 -2.3726  0.0963 -2.1107
  170MOL0     H22917   8.328   3.434   3.407  2.6443  0.6832  0.0455
  170MOL0     H22918   8.311   3.583   3.623 -3.3770 -1.4101  1.5643
  170MOL0     H22919   8.331   3.433   3.712  0.4045 -0.2495  1.4178
  170MOL0     H22920   8.542   3.501   3.497  2.1954 -0.1236  1.2197
  170MOL0     H22921   8.546   3.397   3.633 -0.7630  0.7081  1.1335
  170MOL0     H22922   8.527   3.701   3.638  2.6737  0.6912 -0.5930
  170MOL0     H22923   8.535   3.594   3.780  1.6286 -0.1928  0.8156
  170MOL0     H22924   8.741   3.644   3.560 -2.0279 -2.2665 -1.5387
  170MOL0     H22925   8.774   3.520   3.678 -1.7332 -1.9164  1.9722
  170MOL0     H22926   8.764   3.680   3.870  0.7825  0.7404  1.2390
  170MOL0     H22927   8.898   3.719   3.760  0.1773 -2.2212  1.8147
  170MOL0     H22928   8.634   3.860   3.759  0.0612 -2.1341 -1.0138
  170MOL0     H22929   8.759   3.886   3.640  1.4495 -0.3923  0.1910
  170MOL0     H22930   8.791   4.070   3.810 -0.9179  0.4456  2.1067
  170MOL0     H22931   8.917   3.958   3.847  0.3568  2.4410  0.6643
  170MOL0     H22932   7.909   3.568   3.476 -3.6787 -0.8616 -0.8318
  170MOL0     H22933   7.764   3.506   3.292 -2.5986 -1.5499  2.5093
  170MOL0     H22934   7.540   3.356   3.040 -2.4388  2.7815 -2.0437
  170MOL0     H22935   7.375   3.291   2.855 -0.5848 -1.3344 -3.4784
  170MOL0     H22936   7.600   3.523   2.363  3.1769 -0.4179 -1.2902
  170MOL0     H22937   7.616   3.772   2.306 -0.5311  0.5898  1.8161
  170MOL0     H22938   7.198   4.160   2.265  0.2591  0.5711  3.3977
  170MOL0     H22939   7.247   4.396   2.314  0.5067  0.8077 -0.2019
  170MOL0     H22940   7.675   4.484   2.357  1.9796  1.2525 -0.4888
  170MOL0     H22941   7.619   4.586   2.217 -4.1499 -2.1201 -0.4123
  170MOL0     H22942   7.639   4.647   2.522 -0.4972 -0.4229 -0.6899
  170MOL0     H22943   7.538   4.741   2.400  0.4049 -0.1461  2.6094
  170MOL0     H22944   7.739   4.856   2.464  0.6262 -0.2050  0.8507
  170MOL0     H22945   7.711   4.813   2.293 -0.1674 -0.3876 -0.0485
  170MOL0     H22946   7.880   4.638   2.308 -0.2477  0.7321 -0.1480
  170MOL0     H22947   7.918   4.692   2.478  0.9513  4.2459  0.4508
  170MOL0     H22948   8.051   5.034   2.290  0.5098 -0.5118 -1.6345
  170MOL0     H22949   7.659   4.310   2.237 -1.2426  1.8562 -0.1854
  170MOL0     H22950   7.605   4.103   2.159 -0.4228 -2.1698  1.6834
  171MOL0     O22951   3.992   8.918   5.875  0.0994 -0.6033  0.1964
  171MOL0     C22952   4.099   8.948   5.821  1.6052  0.8601 -0.3641
  171MOL0     O22953   4.117   8.971   5.687  0.2871 -0.3655  0.0667
  171MOL0     C22954   4.026   8.892   5.614 -0.2049 -0.1960 -1.2149
  171MOL0     C22955   4.034   8.755   5.612  0.1892 -1.1357  0.3791
  171MOL0     C22956   3.932   8.682   5.553  1.1777 -0.2522  0.0608
  171MOL0     C22957   3.824   8.744   5.486  0.3296 -0.2315  0.0176
  171MOL0     O22958   3.745   8.658   5.412 -1.0099 -0.2769 -0.3536
  171MOL0     C22959   3.605   8.669   5.395 -0.7432 -0.2635 -0.1097
  171MOL0     C22960   3.527   8.704   5.522 -0.5772  0.4081  0.3515
  171MOL0     C22961   3.553   8.595   5.634  0.6892 -1.1161 -0.3379
  171MOL0     C22962   3.414   8.568   5.713  0.2787  0.6137 -0.2925
  171MOL0     C22963   3.436   8.457   5.813  0.8216 -0.4444  0.1807
  171MOL0     C22964   3.328   8.444   5.924  0.3278 -1.0557  0.3894
  171MOL0     C22965   3.189   8.408   5.870  1.0650 -0.3654 -0.6916
  171MOL0     C22966   3.091   8.375   5.976 -0.0827  0.1670  0.2217
  171MOL0     N22967   3.010   8.495   6.006 -0.1767 -0.6308 -0.6175
  171MOL0     C22968   3.058   8.605   6.077 -0.2470  0.7650 -0.3407
  171MOL0     C22969   2.952   8.683   6.094 -0.4542  0.5124  0.2266
  171MOL0     C22970   2.956   8.823   6.160  0.8565  0.2417 -0.5880
  171MOL0     C22971   2.953   8.789   6.311  1.4394  0.5769  0.3857
  171MOL0     C22972   2.821   8.725   6.354 -0.7376 -0.6739 -0.0425
  171MOL0     C22973   2.797   8.730   6.505 -0.0845 -1.2972  0.8719
  171MOL0     O22974   2.886   8.637   6.573  0.4180 -0.2702  0.1835
  171MOL0     C22975   2.909   8.663   6.704 -0.3443  0.4425 -0.3752
  171MOL0     C22976   3.026   8.699   6.766 -0.7568  0.2840 -0.0875
  171MOL0     C22977   3.042   8.708   6.902  0.0199 -0.2832  0.0940
  171MOL0     C22978   3.186   8.714   6.944 -1.2276 -0.6072  2.0721
  171MOL0     C22979   2.943   8.690   6.996  0.2847  1.0331  0.2224
  171MOL0     C22980   2.933   8.699   7.146 -0.6907 -0.3424 -0.0162
  171MOL0     O22981   2.814   8.667   7.207 -0.4344 -0.4140 -0.7707
  171MOL0     C22982   2.786   8.663   7.340  0.4661 -0.4016 -0.7104
  171MOL0     C22983   2.677   8.729   7.392 -0.7013 -0.0598 -0.8904
  171MOL0     C22984   2.645   8.732   7.535  0.8744  0.0833 -0.0320
  171MOL0     C22985   2.714   8.643   7.618  1.6968  0.0470  0.2444
  171MOL0     O22986   2.696   8.637   7.756 -0.2258 -0.5142  0.2115
  171MOL0     C22987   2.610   8.738   7.813 -0.2808  0.1786  0.3932
  171MOL0     C22988   2.576   8.691   7.956  0.1540  0.5679  0.8040
  171MOL0     C22989   2.453   8.600   7.947 -0.3624  0.3023  0.4501
  171MOL0     C22990   2.467   8.452   7.909 -0.0606 -0.0530 -0.0644
  171MOL0     C22991   2.573   8.366   7.976 -0.8458  0.1578 -1.4232
  171MOL0     C22992   2.567   8.390   8.125  0.0276  0.2273 -0.0770
  171MOL0     C22993   2.461   8.310   8.198  0.2909  0.3142 -0.0046
  171MOL0     C22994   2.494   8.155   8.216  0.2243 -0.9025 -0.5882
  171MOL0    Cl22995   2.645   8.146   8.304 -0.3539 -0.1040  0.2418
  171MOL0     C22996   2.814   8.566   7.560  0.2722 -0.8864 -0.8315
  171MOL0     C22997   2.848   8.581   7.428  0.4259 -1.0353  0.0785
  171MOL0     O22998   3.040   8.723   7.207  0.1571 -0.1963 -0.4216
  171MOL0     C22999   2.820   8.673   6.934  0.1616  0.9193  0.1520
  171MOL0     C23000   2.803   8.647   6.796  0.7850  0.7739  0.2656
  171MOL0     N23001   2.841   8.600   6.060 -0.4977 -0.1902  0.5272
  171MOL0     N23002   2.878   8.489   6.004  0.4043 -0.1150 -0.8348
  171MOL0     C23003   3.822   8.883   5.491 -0.3858  0.2411 -0.1191
  171MOL0     C23004   3.918   8.964   5.551 -0.8299  0.3688  0.0660
  171MOL0     C23005   4.210   8.969   5.911 -1.0657  0.2191 -0.1854
  171MOL0     C23006   4.309   9.068   5.879  0.9814 -0.3571  0.0218
  171MOL0     C23007   4.408   9.096   5.981 -0.0067 -0.1111 -0.2597
  171MOL0     C23008   4.404   9.035   6.110  0.1750 -0.7284  0.4827
  171MOL0     O23009   4.507   9.083   6.183  0.3139  0.6698 -0.1760
  171MOL0     C23010   4.513   9.036   6.325  0.0752 -0.2503 -0.3024
  171MOL0     C23011   4.585   9.153   6.392  0.2007  0.3065 -0.6093
  171MOL0     C23012   4.496   9.261   6.445  0.1384  1.1543 -0.6329
  171MOL0     C23013   4.573   9.387   6.495  0.5333 -0.0638 -0.3456
  171MOL0     C23014   4.685   9.374   6.585  0.5857  1.0835 -0.7660
  171MOL0     C23015   4.780   9.360   6.658 -0.2599 -0.7313 -1.0374
  171MOL0     C23016   4.297   8.946   6.136 -0.1613  1.2267 -0.3450
  171MOL0     C23017   4.206   8.909   6.038  0.7984 -0.7104 -0.3198
  171MOL0     H23018   4.121   8.711   5.659  1.7563  0.6592 -0.6913
  171MOL0     H23019   3.956   8.576   5.547  0.7023 -0.3495 -0.1385
  171MOL0     H23020   3.592   8.735   5.309  2.5703 -0.1473 -0.6598
  171MOL0     H23021   3.573   8.569   5.362  1.3142 -0.5104 -1.5661
  171MOL0     H23022   3.563   8.797   5.567 -0.3886  0.0478  0.9666
  171MOL0     H23023   3.422   8.722   5.498 -0.1856  0.3850 -1.4886
  171MOL0     H23024   3.584   8.500   5.590 -1.8984 -1.1614 -2.3499
  171MOL0     H23025   3.628   8.642   5.698 -0.5454  2.1787 -1.1216
  171MOL0     H23026   3.386   8.660   5.765  0.7188 -0.5989  2.2408
  171MOL0     H23027   3.328   8.526   5.660 -1.5576  2.5176  0.9880
  171MOL0     H23028   3.458   8.359   5.769 -0.6671  0.5215 -3.0123
  171MOL0     H23029   3.526   8.482   5.871 -1.2753  1.7407  2.7834
  171MOL0     H23030   3.357   8.368   5.997 -1.6791 -0.9223  1.4080
  171MOL0     H23031   3.305   8.539   5.974 -0.9589  0.7039 -3.1803
  171MOL0     H23032   3.164   8.499   5.817  2.7930  0.2367 -0.5402
  171MOL0     H23033   3.189   8.335   5.789 -2.0350 -1.6796  0.3199
  171MOL0     H23034   3.154   8.342   6.059  0.6070 -0.5837 -0.5856
  171MOL0     H23035   3.016   8.300   5.952  1.3915 -1.7960  1.4666
  171MOL0     H23036   3.161   8.631   6.099 -0.4548  1.5545 -0.2851
  171MOL0     H23037   3.043   8.886   6.135  0.3320  2.2158  2.1124
  171MOL0     H23038   2.867   8.880   6.131  0.8487  0.2490 -0.5493
  171MOL0     H23039   2.959   8.881   6.370  1.0897  0.9080 -0.0901
  171MOL0     H23040   3.034   8.719   6.333 -0.3713 -2.0406 -0.8130
  171MOL0     H23041   2.817   8.622   6.318 -2.6029 -0.1778 -1.4061
  171MOL0     H23042   2.734   8.761   6.298  1.4020 -1.7244 -4.5382
  171MOL0     H23043   2.695   8.703   6.533 -0.2207 -0.6082  1.0576
  171MOL0     H23044   2.814   8.836   6.530 -2.4303 -0.5287 -0.5009
  171MOL0     H23045   3.119   8.709   6.710 -0.5441 -1.5571 -0.1427
  171MOL0     H23046   3.193   8.787   7.025 -1.4087  0.4127  1.1871
  171MOL0     H23047   3.228   8.613   6.954  0.4606 -0.8501 -4.0593
  171MOL0     H23048   3.240   8.760   6.861 -3.6182 -3.7392 -1.5889
  171MOL0     H23049   2.626   8.793   7.320 -2.2018 -2.1517 -1.7784
  171MOL0     H23050   2.579   8.812   7.567  0.1829 -0.7842  0.7481
  171MOL0     H23051   2.667   8.831   7.821 -0.7692  0.8617 -2.8895
  171MOL0     H23052   2.515   8.752   7.761  0.3664 -2.7188 -1.8186
  171MOL0     H23053   2.667   8.643   7.993  0.1524 -1.2886 -1.3391
  171MOL0     H23054   2.541   8.782   8.006 -3.3069  0.1536 -0.5976
  171MOL0     H23055   2.383   8.645   7.876  1.1653  0.4248 -1.0499
  171MOL0     H23056   2.399   8.597   8.042  0.2333  0.2765  0.7929
  171MOL0     H23057   2.368   8.411   7.934  0.9675 -1.9382  1.1603
  171MOL0     H23058   2.484   8.443   7.801 -1.5886  0.0471 -0.3409
  171MOL0     H23059   2.676   8.390   7.947 -0.4102 -1.3052 -1.2230
  171MOL0     H23060   2.548   8.260   7.965  1.6584 -1.1244  2.7893
  171MOL0     H23061   2.662   8.359   8.169 -1.9972 -2.5274  2.8320
  171MOL0     H23062   2.568   8.495   8.156 -0.5220  0.5110 -0.9735
  171MOL0     H23063   2.374   8.321   8.133  0.3658  2.0619  0.1426
  171MOL0     H23064   2.440   8.355   8.296  1.0502 -1.2679  0.9306
  171MOL0     H23065   2.497   8.097   8.123  3.3323 -2.3740  0.3244
  171MOL0     H23066   2.408   8.113   8.269 -0.6536  1.8947  0.4008
  171MOL0     H23067   2.867   8.496   7.624 -0.3138 -0.2866  0.3337
  171MOL0     H23068   2.918   8.521   7.371  0.3580  0.6803 -1.9207
  171MOL0     H23069   2.730   8.663   6.993  0.9307  1.5956  1.5016
  171MOL0     H23070   2.712   8.606   6.756  0.5450 -2.1333  3.3471
  171MOL0     H23071   3.742   8.935   5.439  1.8318 -0.2868 -4.5589
  171MOL0     H23072   3.908   9.071   5.559  4.8757  1.1151  2.2635
  171MOL0     H23073   4.303   9.118   5.783 -2.0857  0.6729  0.6341
  171MOL0     H23074   4.483   9.173   5.975  1.4372 -1.5143 -0.8060
  171MOL0     H23075   4.414   9.019   6.366  0.8353 -1.3657  1.1704
  171MOL0     H23076   4.576   8.946   6.327 -1.2616 -1.1961  0.7693
  171MOL0     H23077   4.659   9.188   6.320  2.4246 -1.1174  0.8605
  171MOL0     H23078   4.654   9.119   6.469  0.9176  1.3124 -0.7918
  171MOL0     H23079   4.439   9.237   6.535 -0.6803 -0.1202 -1.4507
  171MOL0     H23080   4.419   9.276   6.368  1.1430  0.4734 -1.8146
  171MOL0     H23081   4.504   9.454   6.547  0.6492 -0.1996 -0.0159
  171MOL0     H23082   4.623   9.435   6.410  1.5516 -0.6713 -0.1113
  171MOL0     H23083   4.853   9.355   6.736 -3.7475  0.1215  2.6169
  171MOL0     H23084   4.294   8.896   6.233  0.0993 -1.2486 -1.5240
  171MOL0     H23085   4.128   8.836   6.060  0.8814 -0.6013  0.3612
  172MOL0     O23086   1.626  11.465   5.493 -0.1370 -0.2078  0.1219
  172MOL0     C23087   1.540  11.473   5.413  0.3262 -0.7099  0.6229
  172MOL0     O23088   1.548  11.522   5.289  0.1131  0.3256  0.6145
  172MOL0     C23089   1.667  11.592   5.257  0.6160  0.3758  1.0984
  172MOL0     C23090   1.729  11.544   5.140 -0.6564 -0.8211 -1.2959
  172MOL0     C23091   1.839  11.619   5.090 -0.2986  0.9524  0.1071
  172MOL0     C23092   1.885  11.726   5.160  0.8945  0.0273  0.2990
  172MOL0     O23093   1.975  11.809   5.106 -1.1864 -0.2957  0.8233
  172MOL0     C23094   1.929  11.888   4.995  0.1885  0.6602  0.5752
  172MOL0     C23095   2.003  12.025   4.979  0.9359  0.6592 -1.0040
  172MOL0     C23096   1.933  12.131   5.059 -0.4442 -0.6282 -0.6960
  172MOL0     C23097   2.025  12.257   5.068 -0.3876 -0.6751  0.4193
  172MOL0     C23098   1.970  12.390   5.122 -0.5519 -0.2873 -0.6526
  172MOL0     C23099   1.842  12.434   5.048 -0.1484 -0.6715 -0.6544
  172MOL0     C23100   1.780  12.549   5.132 -0.3572 -1.2118  0.4748
  172MOL0     C23101   1.730  12.499   5.269 -0.4051 -0.3793  0.0018
  172MOL0     N23102   1.669  12.360   5.292 -0.1128 -0.7640  0.7347
  172MOL0     C23103   1.723  12.273   5.381 -0.7314  0.5314 -0.6201
  172MOL0     C23104   1.653  12.160   5.359 -0.9456 -0.3410 -0.7877
  172MOL0     C23105   1.669  12.032   5.435 -0.2710 -0.2497 -0.4058
  172MOL0     C23106   1.559  11.980   5.527  0.1681 -0.3015  0.6500
  172MOL0     C23107   1.540  12.068   5.646 -0.6983 -0.4743 -0.0775
  172MOL0     C23108   1.423  12.168   5.626  0.3720 -0.2640 -1.1064
  172MOL0     O23109   1.437  12.247   5.745  0.0681  0.1386  0.7319
  172MOL0     C23110   1.392  12.200   5.862 -0.7625 -0.6494  0.2951
  172MOL0     C23111   1.404  12.280   5.979 -0.3716  0.0687  0.7380
  172MOL0     C23112   1.350  12.233   6.102 -0.7331  0.4877 -0.8798
  172MOL0     C23113   1.367  12.316   6.222  0.1599 -0.3199 -0.1477
  172MOL0     C23114   1.275  12.114   6.110  0.0054  0.5737 -0.2537
  172MOL0     C23115   1.224  12.044   6.238  0.8205  0.5204 -0.3610
  172MOL0     O23116   1.167  11.918   6.226 -0.4911 -0.4018 -0.1000
  172MOL0     C23117   1.075  11.862   6.313 -0.8929 -0.7134  0.7144
  172MOL0     C23118   1.019  11.917   6.425  1.2287  0.8230 -0.5397
  172MOL0     C23119   0.930  11.847   6.500 -0.3205  0.2910  0.0752
  172MOL0     C23120   0.894  11.722   6.480  0.5963  0.2453 -0.2699
  172MOL0     O23121   0.784  11.678   6.558  0.5550 -0.6606  0.2116
  172MOL0     C23122   0.674  11.615   6.491 -0.2654 -0.4819 -0.4309
  172MOL0     C23123   0.561  11.586   6.583  0.3908  0.5566 -0.4260
  172MOL0     C23124   0.586  11.475   6.685  0.8560 -0.9156 -0.2494
  172MOL0     C23125   0.463  11.460   6.773  0.4272 -0.4805 -0.1800
  172MOL0     C23126   0.358  11.371   6.698  0.7037 -0.5310  0.1760
  172MOL0     C23127   0.230  11.344   6.791 -0.1839  0.6310  0.9482
  172MOL0     C23128   0.268  11.362   6.941 -0.3499 -0.0078  0.0552
  172MOL0     C23129   0.135  11.338   7.020  0.3210 -0.0319 -0.0714
  172MOL0    Cl23130   0.014  11.470   6.974  0.1067 -0.4613 -0.1557
  172MOL0     C23131   0.958  11.658   6.369 -0.0280 -0.5559 -0.3575
  172MOL0     C23132   1.043  11.729   6.286  0.5613 -0.2785  0.6254
  172MOL0     O23133   1.242  12.091   6.347 -0.0490 -0.3297 -0.7245
  172MOL0     C23134   1.265  12.035   5.993 -0.5217 -0.1994 -0.4023
  172MOL0     C23135   1.331  12.074   5.874  0.0714 -0.5990  0.2890
  172MOL0     N23136   1.551  12.181   5.271  0.4492  0.5531 -0.7748
  172MOL0     N23137   1.560  12.308   5.232 -0.4727  0.8809 -0.6389
  172MOL0     C23138   1.830  11.766   5.283  0.0819  0.8796  0.0257
  172MOL0     C23139   1.723  11.690   5.333 -0.4321 -0.3381 -0.1859
  172MOL0     C23140   1.403  11.421   5.435 -0.2203  0.8605 -0.5254
  172MOL0     C23141   1.311  11.381   5.339 -0.1852 -0.1847  0.0812
  172MOL0     C23142   1.178  11.345   5.367 -0.2160  0.2217 -0.3935
  172MOL0     C23143   1.131  11.342   5.505 -0.4837  0.4085 -0.0842
  172MOL0     O23144   0.998  11.317   5.528 -0.2367 -0.2510 -0.9214
  172MOL0     C23145   0.947  11.380   5.649  0.2184  0.0158  0.0657
  172MOL0     C23146   0.950  11.299   5.774 -1.0180 -0.1197  0.2948
  172MOL0     C23147   0.826  11.210   5.774  0.0377 -0.9240  0.7991
  172MOL0     C23148   0.856  11.092   5.863  1.0487  0.9953  0.7214
  172MOL0     C23149   0.953  11.006   5.798 -0.7634 -0.1107  0.1029
  172MOL0     C23150   1.039  10.937   5.748  0.1665  0.2625 -0.7502
  172MOL0     C23151   1.224  11.393   5.602 -0.6616 -0.0184  0.0099
  172MOL0     C23152   1.363  11.427   5.573  0.2838 -0.7754 -0.0648
  172MOL0     H23153   1.692  11.452   5.096 -0.8679  0.6833 -4.6337
  172MOL0     H23154   1.881  11.585   4.996 -1.7607  0.3086 -0.3473
  172MOL0     H23155   1.944  11.819   4.912 -0.6776  0.3576  0.6549
  172MOL0     H23156   1.820  11.895   5.008 -0.2967 -3.4308  0.0512
  172MOL0     H23157   2.097  12.007   5.031 -0.6558  1.4242  2.4415
  172MOL0     H23158   2.011  12.055   4.874 -2.5770  0.9302 -1.3145
  172MOL0     H23159   1.840  12.157   5.009  0.3732  1.8254 -1.0575
  172MOL0     H23160   1.923  12.096   5.162 -1.6928  2.5433  0.3884
  172MOL0     H23161   2.109  12.245   5.137  2.8326 -1.4029 -3.2658
  172MOL0     H23162   2.074  12.274   4.972 -3.7454 -4.6161 -2.3365
  172MOL0     H23163   1.950  12.371   5.228 -1.1397 -1.3663 -0.9423
  172MOL0     H23164   2.046  12.467   5.112 -1.0386  0.4894  1.1844
  172MOL0     H23165   1.869  12.448   4.943  0.7816  0.0948 -0.3307
  172MOL0     H23166   1.768  12.353   5.045  0.4894 -1.2392 -1.4537
  172MOL0     H23167   1.850  12.632   5.140  1.7867 -2.5386 -2.6407
  172MOL0     H23168   1.693  12.588   5.079  0.9688  6.2581  2.6230
  172MOL0     H23169   1.670  12.581   5.311 -0.9061  0.8258 -2.8596
  172MOL0     H23170   1.815  12.516   5.336 -0.5976  0.6066  0.0202
  172MOL0     H23171   1.802  12.278   5.455 -1.2359  0.9781 -0.1037
  172MOL0     H23172   1.684  11.948   5.366  0.5781 -1.1719  0.8366
  172MOL0     H23173   1.757  12.035   5.500 -2.2121  0.3146  2.3544
  172MOL0     H23174   1.595  11.888   5.575 -1.6877  1.4196  6.0189
  172MOL0     H23175   1.461  11.954   5.486 -0.4128  0.4746  1.4834
  172MOL0     H23176   1.633  12.122   5.661 -1.5667  0.9948  0.2109
  172MOL0     H23177   1.519  12.013   5.739 -4.3559 -0.3131 -0.6429
  172MOL0     H23178   1.322  12.126   5.630 -0.8320  2.1598  5.1062
  172MOL0     H23179   1.434  12.232   5.537  2.8289  0.1408 -0.6056
  172MOL0     H23180   1.459  12.373   5.969 -0.6860  0.0330 -4.3101
  172MOL0     H23181   1.451  12.288   6.285  1.4665  0.8356 -1.3120
  172MOL0     H23182   1.393  12.419   6.196  1.3797  0.0497  2.2599
  172MOL0     H23183   1.271  12.319   6.276  1.2509  0.2127  1.8640
  172MOL0     H23184   1.036  12.020   6.453  2.4325  0.5232 -0.1155
  172MOL0     H23185   0.891  11.902   6.585  1.7394  1.5327  0.2885
  172MOL0     H23186   0.646  11.688   6.414  1.6286  1.3739  0.5288
  172MOL0     H23187   0.704  11.525   6.435  1.9818 -0.5139  0.7087
  172MOL0     H23188   0.528  11.682   6.625  1.9938  1.2306 -0.6338
  172MOL0     H23189   0.489  11.554   6.507  1.4775 -2.1023 -0.4213
  172MOL0     H23190   0.670  11.503   6.748  0.7183 -1.3283  0.1219
  172MOL0     H23191   0.607  11.376   6.644  0.7473 -1.4113  0.8604
  172MOL0     H23192   0.494  11.401   6.860 -0.9076 -4.5043 -2.1798
  172MOL0     H23193   0.428  11.560   6.798 -1.1955 -0.9091 -0.6613
  172MOL0     H23194   0.411  11.277   6.679  2.2419 -1.0464  5.3689
  172MOL0     H23195   0.323  11.424   6.609 -0.4401  0.1601  1.0036
  172MOL0     H23196   0.152  11.414   6.759  0.0289 -0.8146 -3.3298
  172MOL0     H23197   0.187  11.245   6.776  2.5951 -0.2584 -2.1888
  172MOL0     H23198   0.310  11.458   6.972  0.4684 -0.3214 -0.0721
  172MOL0     H23199   0.339  11.284   6.968  0.8918  1.4628  1.2273
  172MOL0     H23200   0.141  11.341   7.129  0.1092 -1.1903 -0.0232
  172MOL0     H23201   0.084  11.247   6.988  1.7867 -0.7841 -0.3820
  172MOL0     H23202   0.941  11.551   6.357  4.1362 -1.6868  1.7716
  172MOL0     H23203   1.085  11.670   6.204 -1.2543 -2.3593  1.1003
  172MOL0     H23204   1.217  11.937   5.991 -2.3899  0.6118 -4.0038
  172MOL0     H23205   1.343  11.997   5.799  2.5813 -0.2949  0.2862
  172MOL0     H23206   1.870  11.850   5.339  0.9075  0.7731 -0.3875
  172MOL0     H23207   1.680  11.720   5.428  3.6007  0.4347  1.6377
  172MOL0     H23208   1.350  11.376   5.238  1.9048  1.9754  0.6814
  172MOL0     H23209   1.115  11.313   5.284 -4.4371  2.4155  1.6455
  172MOL0     H23210   1.003  11.471   5.672 -0.8696  0.4157  1.3045
  172MOL0     H23211   0.843  11.414   5.644 -0.2229 -0.7726  2.4725
  172MOL0     H23212   0.949  11.373   5.854 -2.9816  2.3152 -1.8003
  172MOL0     H23213   1.045  11.245   5.767 -0.5543 -0.1418  4.3139
  172MOL0     H23214   0.819  11.177   5.670  0.6726 -2.9281  1.3593
  172MOL0     H23215   0.737  11.271   5.791 -0.6069 -1.6264  0.0475
  172MOL0     H23216   0.767  11.033   5.885  1.4368  1.0661  2.6476
  172MOL0     H23217   0.900  11.135   5.954  1.7651  1.8215  0.0129
  172MOL0     H23218   1.104  10.862   5.707  0.9771 -0.9488  2.4515
  172MOL0     H23219   1.206  11.394   5.709 -1.6589  2.8455 -0.0983
  172MOL0     H23220   1.430  11.460   5.652 -0.4590 -2.1003  1.1487
  173MOL0     O23221   1.707   8.179   2.508 -0.5386 -0.2096 -0.0017
  173MOL0     C23222   1.654   8.192   2.393 -0.8171  0.2327 -0.4710
  173MOL0     O23223   1.585   8.299   2.355 -0.0032 -1.1380 -0.6367
  173MOL0     C23224   1.554   8.411   2.428  1.2882 -0.4927 -1.1450
  173MOL0     C23225   1.548   8.527   2.351  0.1337 -0.3291  0.2611
  173MOL0     C23226   1.513   8.656   2.404 -0.1842  0.5314 -0.7444
  173MOL0     C23227   1.487   8.666   2.537  0.2435  0.4214  0.0821
  173MOL0     O23228   1.433   8.779   2.578  0.3774  0.1813  0.7873
  173MOL0     C23229   1.401   8.819   2.707  0.6318 -0.2209  0.6740
  173MOL0     C23230   1.341   8.956   2.693  0.5402 -0.8728  0.1602
  173MOL0     C23231   1.200   8.951   2.634  0.0860  0.6274  0.9233
  173MOL0     C23232   1.149   9.099   2.616  0.5871 -0.6121  0.0122
  173MOL0     C23233   1.005   9.109   2.571  0.4171 -0.3073 -0.5339
  173MOL0     C23234   0.898   9.094   2.690 -0.1365 -0.2829 -0.3215
  173MOL0     C23235   0.749   9.104   2.651 -1.0418 -0.0757 -0.5195
  173MOL0     C23236   0.663   9.007   2.734 -0.0582 -0.2933  0.0739
  173MOL0     N23237   0.520   9.037   2.722  0.6774 -0.5976 -0.3143
  173MOL0     C23238   0.408   8.959   2.742 -0.9187  0.6838  0.2710
  173MOL0     C23239   0.304   9.042   2.747 -0.1941  0.2809 -1.1045
  173MOL0     C23240   0.163   8.993   2.753 -1.2902  1.2528 -0.5949
  173MOL0     C23241   0.072   9.062   2.858 -0.3628 -0.2495  0.0475
  173MOL0     C23242  -0.073   9.012   2.858 -1.2243 -0.6477  0.3225
  173MOL0     C23243  -0.154   9.080   2.959  0.7254 -0.0192 -0.0276
  173MOL0     O23244  -0.289   9.027   2.979 -0.4538 -0.3439  0.3876
  173MOL0     C23245  -0.310   8.919   3.059 -0.6180 -0.0123 -0.4841
  173MOL0     C23246  -0.217   8.877   3.157  0.7565  0.5161 -0.1452
  173MOL0     C23247  -0.230   8.780   3.257  0.3451 -0.1573 -0.0797
  173MOL0     C23248  -0.115   8.766   3.353 -0.9437 -0.2757  0.6956
  173MOL0     C23249  -0.352   8.709   3.255  1.1444  0.2424 -0.2117
  173MOL0     C23250  -0.380   8.585   3.336  0.3241 -0.2863  0.3395
  173MOL0     O23251  -0.280   8.498   3.341  0.4183 -0.1119  0.6260
  173MOL0     C23252  -0.315   8.363   3.367 -0.9285  0.4379 -0.7854
  173MOL0     C23253  -0.221   8.289   3.444 -0.1320 -0.9236  0.0261
  173MOL0     C23254  -0.227   8.152   3.462  1.3994  0.6939 -1.1894
  173MOL0     C23255  -0.322   8.077   3.392 -0.2592  0.1838 -0.3628
  173MOL0     O23256  -0.350   7.941   3.411 -0.7712 -0.6298 -0.0509
  173MOL0     C23257  -0.250   7.864   3.332  0.0465 -0.1205 -1.0962
  173MOL0     C23258  -0.158   7.809   3.439 -0.4538  0.5217  1.1104
  173MOL0     C23259  -0.018   7.783   3.387 -0.8162  0.9442 -0.8445
  173MOL0     C23260   0.083   7.783   3.510 -1.0161  0.6557  1.4481
  173MOL0     C23261   0.225   7.783   3.452  0.8844  0.7901 -0.5763
  173MOL0     C23262   0.345   7.763   3.550  0.6443 -0.0131  0.3352
  173MOL0     C23263   0.352   7.618   3.596 -0.2607 -0.6584  0.5156
  173MOL0     C23264   0.455   7.606   3.707  0.1462 -0.3011  0.2625
  173MOL0    Cl23265   0.617   7.617   3.625  0.1792  0.0372  0.3052
  173MOL0     C23266  -0.409   8.145   3.314 -0.6390 -0.3590  0.5968
  173MOL0     C23267  -0.410   8.286   3.299  0.1808 -0.4888  0.1645
  173MOL0     O23268  -0.497   8.566   3.369  0.2709 -0.3265 -1.2186
  173MOL0     C23269  -0.450   8.747   3.155  0.3152  0.2642 -0.5641
  173MOL0     C23270  -0.426   8.849   3.066  0.8308  0.2216 -0.7986
  173MOL0     N23271   0.345   9.179   2.749  0.1274 -0.0452  0.4352
  173MOL0     N23272   0.471   9.169   2.746  0.0108 -0.4832 -0.3190
  173MOL0     C23273   1.503   8.557   2.618  0.1048 -0.0888 -0.7644
  173MOL0     C23274   1.544   8.431   2.568 -0.2931  0.7096  1.5123
  173MOL0     C23275   1.692   8.089   2.291 -0.2874 -0.0070  0.5955
  173MOL0     C23276   1.730   8.131   2.160  0.1208 -0.2093 -0.4029
  173MOL0     C23277   1.757   8.028   2.062 -0.1425 -0.5870 -0.6092
  173MOL0     C23278   1.758   7.894   2.104  1.1906  0.0567 -0.4285
  173MOL0     O23279   1.792   7.801   2.006  0.8351  0.3188 -0.0420
  173MOL0     C23280   1.924   7.744   2.018 -0.5039 -0.6446  0.0015
  173MOL0     C23281   2.038   7.848   1.983  0.2336  0.2807 -0.0596
  173MOL0     C23282   2.166   7.782   1.944 -0.1396  1.2273  0.4142
  173MOL0     C23283   2.282   7.872   1.919 -0.3685 -0.4005 -0.1809
  173MOL0     C23284   2.324   7.862   1.778  0.3121 -0.3927  0.5928
  173MOL0     C23285   2.370   7.850   1.667  0.2154  1.0391  0.1215
  173MOL0     C23286   1.737   7.853   2.235  0.0836  0.3151 -0.4233
  173MOL0     C23287   1.692   7.956   2.325 -0.0345 -0.4576  0.1727
  173MOL0     H23288   1.549   8.512   2.244  2.1501 -1.7894  0.4388
  173MOL0     H23289   1.488   8.746   2.349  1.9299  0.5690 -1.7185
  173MOL0     H23290   1.322   8.751   2.741  0.1221 -1.0430 -1.9545
  173MOL0     H23291   1.491   8.815   2.769  1.2178 -1.7376 -0.2312
  173MOL0     H23292   1.334   8.990   2.797  3.0358 -0.4984  0.2711
  173MOL0     H23293   1.400   9.033   2.642 -3.3800  0.4723 -2.7941
  173MOL0     H23294   1.204   8.901   2.537 -2.6796  1.1865  0.4249
  173MOL0     H23295   1.134   8.884   2.689 -1.2534 -0.8949 -2.3141
  173MOL0     H23296   1.169   9.173   2.693  2.9390 -0.0383 -1.0727
  173MOL0     H23297   1.201   9.135   2.528 -0.1631 -2.3815 -1.2317
  173MOL0     H23298   0.976   9.204   2.526 -1.1793 -0.0235  0.9791
  173MOL0     H23299   0.980   9.024   2.506  0.0247 -1.6951  1.3374
  173MOL0     H23300   0.913   8.994   2.732  0.6231 -0.9108 -1.9906
  173MOL0     H23301   0.934   9.167   2.762  2.2228 -0.2263 -1.4560
  173MOL0     H23302   0.727   9.206   2.682 -0.6785 -0.4662  1.1160
  173MOL0     H23303   0.742   9.094   2.542  0.5463 -1.2264 -0.5543
  173MOL0     H23304   0.688   9.002   2.840 -2.5871  2.1960  0.8909
  173MOL0     H23305   0.685   8.907   2.693 -0.4241 -0.1698 -0.4340
  173MOL0     H23306   0.402   8.851   2.726  0.1457  0.4285  1.4559
  173MOL0     H23307   0.128   9.004   2.650  0.1069  0.7862 -1.1340
  173MOL0     H23308   0.168   8.890   2.789  0.3265  1.8336  0.9797
  173MOL0     H23309   0.079   9.169   2.834 -0.9985 -0.0960  0.5199
  173MOL0     H23310   0.107   9.049   2.960  1.7480 -1.1217 -0.7305
  173MOL0     H23311  -0.078   8.908   2.891 -2.2248 -0.8545 -0.4041
  173MOL0     H23312  -0.114   9.015   2.756  3.1597 -1.9006 -1.7432
  173MOL0     H23313  -0.161   9.186   2.930  2.6911  0.9186  2.5845
  173MOL0     H23314  -0.096   9.082   3.052  2.7861  0.9574 -1.2476
  173MOL0     H23315  -0.119   8.924   3.152  1.9857 -1.9561 -3.0260
  173MOL0     H23316  -0.096   8.663   3.383 -0.4905  0.6221  3.8265
  173MOL0     H23317  -0.023   8.810   3.313 -3.1748  3.7655 -0.6549
  173MOL0     H23318  -0.130   8.840   3.432 -2.1696 -1.1655  1.3415
  173MOL0     H23319  -0.145   8.355   3.485 -1.2205 -0.4378  1.3545
  173MOL0     H23320  -0.158   8.100   3.527 -1.1080  0.0672  1.1853
  173MOL0     H23321  -0.303   7.789   3.272  1.2318  0.3171 -2.7555
  173MOL0     H23322  -0.199   7.921   3.255 -2.7895  2.4560 -1.2350
  173MOL0     H23323  -0.152   7.885   3.517  1.7752  1.4073  0.1509
  173MOL0     H23324  -0.192   7.709   3.469  2.8488 -1.6181 -1.4626
  173MOL0     H23325   0.011   7.866   3.322 -1.1794  3.4697  1.9958
  173MOL0     H23326  -0.017   7.684   3.341 -2.0186  0.2152  0.5889
  173MOL0     H23327   0.060   7.870   3.571 -2.5766 -0.2247  2.1752
  173MOL0     H23328   0.069   7.689   3.564  1.9530 -0.1200  1.0456
  173MOL0     H23329   0.229   7.873   3.390 -0.7397  1.0662 -0.3370
  173MOL0     H23330   0.229   7.701   3.379 -0.4654  0.7612 -0.6543
  173MOL0     H23331   0.432   7.804   3.499  0.6113  2.2340  1.9334
  173MOL0     H23332   0.337   7.825   3.640  0.4934  2.9965 -1.5940
  173MOL0     H23333   0.387   7.548   3.519 -1.3914 -1.4404  0.6962
  173MOL0     H23334   0.251   7.584   3.620 -1.1227  0.9444 -0.6393
  173MOL0     H23335   0.443   7.519   3.774  1.9142 -1.1602 -0.4586
  173MOL0     H23336   0.438   7.683   3.783 -0.1215  0.7512 -0.8365
  173MOL0     H23337  -0.472   8.088   3.247 -2.3799 -0.2199  2.0606
  173MOL0     H23338  -0.471   8.350   3.238  1.1217  2.7781  2.3765
  173MOL0     H23339  -0.540   8.689   3.138  0.2738  0.5434 -1.3168
  173MOL0     H23340  -0.497   8.850   2.984  0.6062  1.6707 -0.6182
  173MOL0     H23341   1.480   8.582   2.721  3.2626  0.1335 -0.0321
  173MOL0     H23342   1.548   8.344   2.633 -0.5453 -1.7391 -1.5183
  173MOL0     H23343   1.713   8.232   2.126 -0.1316  0.7346  2.2652
  173MOL0     H23344   1.769   8.048   1.956  2.0884 -0.6055 -0.3987
  173MOL0     H23345   1.939   7.701   2.117 -2.4735 -3.0206 -0.6281
  173MOL0     H23346   1.937   7.658   1.951  2.4986  1.6924 -2.7703
  173MOL0     H23347   2.048   7.907   2.075  0.1080  0.3262 -0.0753
  173MOL0     H23348   2.006   7.915   1.903  1.3356 -0.3097 -1.0169
  173MOL0     H23349   2.141   7.724   1.855  2.8623  1.6992 -0.8391
  173MOL0     H23350   2.198   7.704   2.014 -0.6673 -0.6552 -1.3505
  173MOL0     H23351   2.370   7.846   1.978 -1.5281  0.2418  1.9532
  173MOL0     H23352   2.257   7.975   1.946  1.9358  0.1433  0.0859
  173MOL0     H23353   2.427   7.844   1.576 -0.9934  0.5446 -0.6269
  173MOL0     H23354   1.734   7.749   2.265 -2.8687  0.8167  1.4270
  173MOL0     H23355   1.643   7.938   2.421 -7.0393  0.2075 -2.6792
  174MOL0     O23356   6.617  11.383  10.238  0.1869  0.1457 -0.2015
  174MOL0     C23357   6.528  11.321  10.296 -0.3729 -0.3683  0.3039
  174MOL0     O23358   6.500  11.190  10.280  0.7479  0.1305  0.0685
  174MOL0     C23359   6.578  11.128  10.191 -0.3235  0.1294  0.2663
  174MOL0     C23360   6.547  11.125  10.055 -0.2462 -0.5206 -0.6656
  174MOL0     C23361   6.631  11.071   9.958  0.2238  0.4487 -0.7776
  174MOL0     C23362   6.740  10.993  10.000 -0.5013 -0.0691  0.2295
  174MOL0     O23363   6.829  10.911   9.920  0.6042  0.6189  0.5543
  174MOL0     C23364   6.788  10.906   9.778  0.7273  0.0644 -0.1574
  174MOL0     C23365   6.859  10.796   9.702  0.8038 -0.4212 -0.5857
  174MOL0     C23366   6.789  10.744   9.581 -0.4023  0.2787 -0.0188
  174MOL0     C23367   6.684  10.631   9.620 -1.1271 -0.4498  0.0181
  174MOL0     C23368   6.645  10.580   9.479  0.2516  0.3645 -0.0816
  174MOL0     C23369   6.743  10.472   9.434  0.0995 -0.4372 -0.6421
  174MOL0     C23370   6.671  10.382   9.334 -0.9028 -0.0494  0.2389
  174MOL0     C23371   6.729  10.401   9.191 -1.0074 -0.1744 -0.3853
  174MOL0     N23372   6.713  10.532   9.127  0.0331  0.0799  0.4384
  174MOL0     C23373   6.614  10.570   9.044  0.3458  0.6313 -0.2176
  174MOL0     C23374   6.627  10.702   9.009  0.1839 -0.1712 -0.5362
  174MOL0     C23375   6.539  10.793   8.930 -0.1878  0.6531  0.3426
  174MOL0     C23376   6.404  10.802   9.006 -0.4537 -0.6149  0.4621
  174MOL0     C23377   6.311  10.878   8.918 -0.1581  0.2721  0.3519
  174MOL0     C23378   6.172  10.891   8.983 -0.8058  0.1711  0.7597
  174MOL0     O23379   6.120  10.760   8.998 -1.0922  0.1478  0.7301
  174MOL0     C23380   5.990  10.752   9.046  0.1169  0.4291 -1.0132
  174MOL0     C23381   5.944  10.823   9.158  0.1376  0.6623 -0.1775
  174MOL0     C23382   5.805  10.825   9.180  1.3263 -0.4101 -0.3672
  174MOL0     C23383   5.748  10.936   9.271  0.6367  0.3698 -0.3449
  174MOL0     C23384   5.720  10.744   9.091  0.5447  0.0653 -0.7185
  174MOL0     C23385   5.569  10.730   9.094 -0.0094 -0.2429 -0.5960
  174MOL0     O23386   5.501  10.636   9.018  0.4062  0.2232  0.1603
  174MOL0     C23387   5.367  10.613   9.047 -0.4649  0.5569 -0.1184
  174MOL0     C23388   5.331  10.475   9.071 -0.7478  0.3970  1.0302
  174MOL0     C23389   5.196  10.438   9.093  1.1931 -0.8568  0.1346
  174MOL0     C23390   5.098  10.536   9.083 -0.3828 -0.3261 -1.0642
  174MOL0     O23391   4.958  10.516   9.083 -0.4301  0.5758  0.7035
  174MOL0     C23392   4.898  10.419   9.169 -0.4478  0.0600 -0.1439
  174MOL0     C23393   4.848  10.300   9.096  0.6003 -0.0084  0.7952
  174MOL0     C23394   4.756  10.330   8.973  0.1359  0.0693 -0.5335
  174MOL0     C23395   4.710  10.198   8.907  0.0829  0.6124  0.5027
  174MOL0     C23396   4.569  10.214   8.827 -0.2286 -0.8234  0.3372
  174MOL0     C23397   4.530  10.080   8.761  0.8831  0.2155 -0.2060
  174MOL0     C23398   4.493   9.953   8.842  0.2147  0.2299 -0.2226
  174MOL0     C23399   4.396   9.856   8.770  0.7038  0.1197 -0.5087
  174MOL0    Cl23400   4.456   9.817   8.607 -0.2879 -0.4571 -0.2176
  174MOL0     C23401   5.136  10.666   9.044  0.5551 -1.3548 -0.9617
  174MOL0     C23402   5.271  10.703   9.025  0.3989  0.2413 -0.0114
  174MOL0     O23403   5.515  10.810   9.171 -0.1405  0.7255 -0.5811
  174MOL0     C23404   5.777  10.666   8.990  0.4815 -0.8183 -1.0382
  174MOL0     C23405   5.912  10.667   8.974 -0.2267 -1.2458 -0.4332
  174MOL0     N23406   6.740  10.735   9.074  0.2588  0.6272  0.7430
  174MOL0     N23407   6.778  10.644   9.155  0.0614  0.4740 -1.5958
  174MOL0     C23408   6.773  10.993  10.138 -0.5866 -0.7631  0.8521
  174MOL0     C23409   6.693  11.052  10.228  0.1364 -0.9393 -0.4686
  174MOL0     C23410   6.434  11.410  10.380 -0.3071 -0.6999  0.1231
  174MOL0     C23411   6.298  11.373  10.389  0.3714 -0.0141  0.1256
  174MOL0     C23412   6.199  11.454  10.449 -0.1124  0.2765  0.0485
  174MOL0     C23413   6.245  11.565  10.519  0.8580  0.0853  0.1408
  174MOL0     O23414   6.144  11.623  10.586  0.4773 -0.3756 -0.7713
  174MOL0     C23415   6.171  11.741  10.661 -0.1904  0.7686 -0.2444
  174MOL0     C23416   6.222  11.726  10.808  1.2992  0.3694 -0.6717
  174MOL0     C23417   6.262  11.853  10.877 -0.4639 -0.8279  0.6331
  174MOL0     C23418   6.168  11.895  10.987 -0.6143 -0.3627  0.1270
  174MOL0     C23419   6.028  11.889  10.927  0.2192  0.8708  0.3896
  174MOL0     C23420   5.923  11.880  10.872 -0.2077 -0.3364  1.2188
  174MOL0     C23421   6.378  11.601  10.518 -0.4871  0.1315  0.8273
  174MOL0     C23422   6.477  11.531  10.440 -0.7936  0.1576 -0.4414
  174MOL0     H23423   6.470  11.198  10.028 -0.1144  1.3061  3.1105
  174MOL0     H23424   6.600  11.102   9.859 -1.8123  3.2374  0.5953
  174MOL0     H23425   6.686  10.868   9.782  0.0317  1.8654  0.3954
  174MOL0     H23426   6.795  11.007   9.736 -0.7427  0.9286  1.5398
  174MOL0     H23427   6.948  10.854   9.676  2.4801 -3.3742 -2.0003
  174MOL0     H23428   6.887  10.715   9.770  0.3620  1.4478  1.9904
  174MOL0     H23429   6.749  10.834   9.533  3.8183  0.4130 -3.9406
  174MOL0     H23430   6.866  10.693   9.523  0.6361  2.7725 -0.9983
  174MOL0     H23431   6.723  10.551   9.684 -1.0058 -0.8755 -0.5830
  174MOL0     H23432   6.599  10.687   9.660  0.7704  1.0214  2.2928
  174MOL0     H23433   6.546  10.534   9.489  2.1738 -4.4291 -0.8481
  174MOL0     H23434   6.634  10.661   9.406 -0.3339  2.1895  1.9033
  174MOL0     H23435   6.820  10.530   9.381 -2.1737  0.8123 -2.7994
  174MOL0     H23436   6.790  10.419   9.517  0.8293  1.9602  0.5601
  174MOL0     H23437   6.680  10.280   9.371  1.6044  0.3231  0.8534
  174MOL0     H23438   6.568  10.418   9.324 -0.3052  1.5398 -0.5136
  174MOL0     H23439   6.682  10.325   9.128 -0.6216 -2.0717  1.5230
  174MOL0     H23440   6.836  10.381   9.200 -1.0755  0.1908  1.6510
  174MOL0     H23441   6.539  10.506   8.997  1.8778 -0.0739 -1.8210
  174MOL0     H23442   6.587  10.891   8.923 -1.2411  1.0709 -1.3488
  174MOL0     H23443   6.529  10.759   8.826 -1.5873  4.2612 -0.8296
  174MOL0     H23444   6.418  10.846   9.105 -1.4730 -1.6706  1.0997
  174MOL0     H23445   6.373  10.697   9.015  1.9735 -1.6353 -1.6216
  174MOL0     H23446   6.298  10.826   8.823 -3.1751 -0.7969  1.2337
  174MOL0     H23447   6.337  10.981   8.894 -0.9422  0.0902 -1.4137
  174MOL0     H23448   6.114  10.964   8.925  1.3190  1.5272  0.2479
  174MOL0     H23449   6.189  10.942   9.078  2.3232  5.9646 -2.3540
  174MOL0     H23450   6.012  10.883   9.217  1.1171 -1.1588  0.6457
  174MOL0     H23451   5.683  10.886   9.343  1.9312  1.4602  1.6726
  174MOL0     H23452   5.829  10.986   9.325 -0.7309  0.2802  1.9045
  174MOL0     H23453   5.683  10.996   9.206 -1.6220 -0.5419  0.9735
  174MOL0     H23454   5.406  10.396   9.070  0.1673  1.1603 -2.1624
  174MOL0     H23455   5.170  10.333   9.106  0.4910 -1.0322 -2.1294
  174MOL0     H23456   4.966  10.391   9.250 -2.5091  0.9216  2.0037
  174MOL0     H23457   4.822  10.474   9.226  1.1146  1.6927  0.4675
  174MOL0     H23458   4.935  10.253   9.050  0.7110  0.9714 -0.0210
  174MOL0     H23459   4.798  10.224   9.157  2.2777 -2.6018 -0.8624
  174MOL0     H23460   4.802  10.395   8.898  2.1818  2.1472  2.2890
  174MOL0     H23461   4.663  10.381   9.000 -0.8802 -2.7199  1.7120
  174MOL0     H23462   4.778  10.161   8.830  0.4192  1.8769  0.1665
  174MOL0     H23463   4.711  10.118   8.982  4.1177 -1.0551 -1.0163
  174MOL0     H23464   4.560  10.299   8.758 -3.4996  0.9796  2.6533
  174MOL0     H23465   4.493  10.237   8.903 -0.2763 -2.5208  0.8474
  174MOL0     H23466   4.451  10.101   8.688  1.2036 -3.7285 -1.9986
  174MOL0     H23467   4.616  10.039   8.708 -0.3029  0.1025 -2.1853
  174MOL0     H23468   4.457  10.001   8.933  3.3642 -1.4523  2.1449
  174MOL0     H23469   4.579   9.905   8.891 -1.0912  1.6581  3.9201
  174MOL0     H23470   4.293   9.892   8.758  0.2562 -0.5828  0.9404
  174MOL0     H23471   4.384   9.760   8.821  1.3759 -1.4866 -3.1978
  174MOL0     H23472   5.060  10.734   9.009  0.4848 -1.4216 -0.9399
  174MOL0     H23473   5.291  10.798   8.977 -3.6637  1.5277  0.3986
  174MOL0     H23474   5.719  10.608   8.919  1.5366  0.3804 -2.9744
  174MOL0     H23475   5.952  10.600   8.899  2.6666 -0.6889  0.4511
  174MOL0     H23476   6.862  10.940  10.172 -1.5562 -2.5841  0.6695
  174MOL0     H23477   6.719  11.049  10.333 -0.7505 -0.9534 -0.2413
  174MOL0     H23478   6.260  11.283  10.343  0.9147 -0.4994  0.6039
  174MOL0     H23479   6.099  11.414  10.451 -0.6697  1.4955 -1.3151
  174MOL0     H23480   6.233  11.822  10.620 -1.6904  4.0555  3.3317
  174MOL0     H23481   6.071  11.785  10.666 -0.5476  0.0891 -1.1828
  174MOL0     H23482   6.309  11.658  10.810 -0.7825 -2.5236  2.1467
  174MOL0     H23483   6.141  11.672  10.858 -0.0806  1.9777 -1.1059
  174MOL0     H23484   6.268  11.923  10.793  1.3242 -1.9263 -0.2405
  174MOL0     H23485   6.363  11.847  10.920  1.2064  2.5768 -2.2746
  174MOL0     H23486   6.166  12.001  11.014 -1.9721 -0.2747 -0.2426
  174MOL0     H23487   6.175  11.839  11.081 -3.5433  0.4763  0.9628
  174MOL0     H23488   5.841  11.888  10.804  1.0483  0.3213 -0.2762
  174MOL0     H23489   6.403  11.669  10.598 -3.1186 -0.6389  2.4629
  174MOL0     H23490   6.581  11.561  10.431 -1.0712  1.1768 -0.4046
  175MOL0     O23491   2.646   0.589   6.284 -0.9665  0.6649  0.3114
  175MOL0     C23492   2.724   0.609   6.190 -0.3880 -1.1536 -0.6473
  175MOL0     O23493   2.864   0.593   6.198 -0.2601  0.2001 -0.2998
  175MOL0     C23494   2.915   0.547   6.318  0.1260  0.1055 -0.2534
  175MOL0     C23495   2.900   0.414   6.352  0.4171 -0.2437  1.0671
  175MOL0     C23496   2.930   0.372   6.487 -0.4595 -0.1948  0.1344
  175MOL0     C23497   2.999   0.449   6.573 -0.0038  0.0482 -0.6184
  175MOL0     O23498   3.048   0.391   6.688  0.2583 -0.1571  0.6989
  175MOL0     C23499   3.108   0.469   6.789  0.5090  0.5918 -0.3696
  175MOL0     C23500   3.162   0.387   6.895  0.4320  0.7673  0.6606
  175MOL0     C23501   3.049   0.305   6.972 -0.1185 -0.8151 -0.3984
  175MOL0     C23502   3.117   0.225   7.084  0.0222 -0.0382  0.3960
  175MOL0     C23503   3.021   0.120   7.143 -0.5370  1.0520  0.8333
  175MOL0     C23504   3.022  -0.021   7.075 -0.0757  0.5802 -0.5207
  175MOL0     C23505   2.964  -0.138   7.158 -0.3147  0.0753 -0.1171
  175MOL0     C23506   2.819  -0.103   7.213  0.2219 -0.4868  0.4030
  175MOL0     N23507   2.773  -0.226   7.284 -0.3066 -0.8772 -0.0743
  175MOL0     C23508   2.754  -0.354   7.235 -0.5233  0.8766  0.4624
  175MOL0     C23509   2.723  -0.443   7.338 -0.4088 -0.5166 -0.7783
  175MOL0     C23510   2.682  -0.582   7.335  0.4613 -1.1830 -0.3759
  175MOL0     C23511   2.780  -0.668   7.260  0.2448  0.6671  0.0953
  175MOL0     C23512   2.915  -0.678   7.332  0.2113  0.0875  1.0571
  175MOL0     C23513   2.994  -0.793   7.262 -0.2859 -0.5695 -0.4288
  175MOL0     O23514   3.112  -0.811   7.344  0.5163  0.2474  0.1691
  175MOL0     C23515   3.177  -0.925   7.311  1.0617  0.5596 -0.6012
  175MOL0     C23516   3.294  -0.910   7.258 -0.3062  0.5256 -0.7039
  175MOL0     C23517   3.366  -1.019   7.224 -0.3743  0.2888 -0.1636
  175MOL0     C23518   3.498  -0.996   7.165 -1.1056  0.1761  0.1400
  175MOL0     C23519   3.332  -1.151   7.269 -0.4347 -0.2573 -0.3674
  175MOL0     C23520   3.410  -1.270   7.243  0.1367 -0.4651 -0.0185
  175MOL0     O23521   3.405  -1.364   7.331 -0.4336 -0.2481  0.4631
  175MOL0     C23522   3.485  -1.475   7.317  0.2145 -0.2080 -0.0633
  175MOL0     C23523   3.429  -1.589   7.364 -0.5846  0.6171  0.0273
  175MOL0     C23524   3.499  -1.714   7.367  0.1492 -0.2246  0.6158
  175MOL0     C23525   3.632  -1.717   7.309 -0.3786 -0.2763  0.2755
  175MOL0     O23526   3.692  -1.844   7.307  0.2128 -0.7715 -0.0577
  175MOL0     C23527   3.823  -1.841   7.372 -0.1056 -0.1038 -0.0901
  175MOL0     C23528   3.934  -1.857   7.262 -0.0456 -0.5686  0.3294
  175MOL0     C23529   4.079  -1.860   7.318  0.0328  0.2475 -0.1225
  175MOL0     C23530   4.166  -1.934   7.214 -0.1305  0.1750 -0.4876
  175MOL0     C23531   4.184  -1.852   7.083 -0.5287  0.6100  0.6090
  175MOL0     C23532   4.276  -1.918   6.969 -0.5406  0.3372 -1.2205
  175MOL0     C23533   4.428  -1.894   7.001  0.1968  0.3668  0.2274
  175MOL0     C23534   4.519  -1.948   6.897 -0.0411 -0.0625  0.2912
  175MOL0    Cl23535   4.512  -2.120   6.898 -0.0748 -0.0702 -0.3117
  175MOL0     C23536   3.686  -1.601   7.242 -0.6706  0.9483 -0.0192
  175MOL0     C23537   3.608  -1.481   7.267 -0.3026  0.1551  0.0931
  175MOL0     O23538   3.462  -1.275   7.129 -0.2531 -0.2623 -0.7824
  175MOL0     C23539   3.208  -1.171   7.326 -0.1612  0.0278  0.0899
  175MOL0     C23540   3.125  -1.051   7.343  0.1054  0.0210  0.1134
  175MOL0     N23541   2.714  -0.358   7.444 -0.6647  0.6943  0.4477
  175MOL0     N23542   2.734  -0.235   7.412 -1.0210 -1.1586 -1.1690
  175MOL0     C23543   3.005   0.584   6.539 -0.0787 -0.1843 -0.4241
  175MOL0     C23544   2.968   0.631   6.419 -0.9127 -0.5805 -0.1947
  175MOL0     C23545   2.669   0.662   6.062  0.4519 -1.2790 -0.2892
  175MOL0     C23546   2.750   0.675   5.944  0.5617  0.0861  0.2992
  175MOL0     C23547   2.692   0.739   5.832 -0.1636  0.5383 -0.8380
  175MOL0     C23548   2.559   0.785   5.827  0.0465 -0.1757  0.0276
  175MOL0     O23549   2.496   0.845   5.722  1.2309 -1.1608  0.2657
  175MOL0     C23550   2.565   0.937   5.644 -0.6211 -0.3424  0.1125
  175MOL0     C23551   2.476   1.004   5.535 -1.2276 -0.3809  0.6165
  175MOL0     C23552   2.536   1.118   5.462 -0.1868  0.1189 -0.1704
  175MOL0     C23553   2.429   1.207   5.387 -0.2404  0.7193  0.4212
  175MOL0     C23554   2.492   1.300   5.287  0.2445 -0.7496 -0.5426
  175MOL0     C23555   2.530   1.381   5.213 -0.6440 -0.5346  0.1534
  175MOL0     C23556   2.491   0.768   5.941 -0.2730 -0.2961  0.6896
  175MOL0     C23557   2.539   0.709   6.055  0.7454 -0.6980  0.8313
  175MOL0     H23558   2.858   0.355   6.271  1.9849 -1.9548  1.4444
  175MOL0     H23559   2.917   0.265   6.505 -3.2394  0.1928  0.7807
  175MOL0     H23560   3.185   0.530   6.740 -0.0210  0.6409 -1.1554
  175MOL0     H23561   3.034   0.539   6.828 -1.6122 -1.1348 -1.1443
  175MOL0     H23562   3.246   0.329   6.857 -0.9423 -1.6775  1.1454
  175MOL0     H23563   3.213   0.466   6.952 -0.2216  1.7830 -0.1257
  175MOL0     H23564   2.970   0.375   7.000 -1.4811 -0.1459 -4.9671
  175MOL0     H23565   2.992   0.235   6.910  1.7812 -3.3467  0.5229
  175MOL0     H23566   3.200   0.160   7.057 -1.2769 -1.1925 -1.0452
  175MOL0     H23567   3.146   0.290   7.166 -0.3564  0.1292  0.4013
  175MOL0     H23568   3.061   0.110   7.244 -2.3726  2.4538  1.7700
  175MOL0     H23569   2.916   0.152   7.151  0.4243  4.6692  1.0564
  175MOL0     H23570   2.968  -0.010   6.981  1.0244  1.3678 -1.0857
  175MOL0     H23571   3.126  -0.040   7.048  0.2463  1.3786  0.0905
  175MOL0     H23572   2.961  -0.230   7.099 -0.6720 -0.1959  0.3186
  175MOL0     H23573   3.036  -0.157   7.237  1.1097  0.8983 -1.1710
  175MOL0     H23574   2.762  -0.070   7.126  2.2100 -4.3878 -2.6845
  175MOL0     H23575   2.828  -0.026   7.290  0.5292 -0.9005  0.7900
  175MOL0     H23576   2.763  -0.386   7.132 -0.0247 -1.2203  1.1073
  175MOL0     H23577   2.694  -0.611   7.440  1.1796  0.9992  0.1935
  175MOL0     H23578   2.577  -0.592   7.304 -0.5971  2.7274  1.3395
  175MOL0     H23579   2.801  -0.632   7.159  0.7727 -0.1571 -0.0975
  175MOL0     H23580   2.734  -0.766   7.250 -2.2976  1.4611  2.6184
  175MOL0     H23581   2.908  -0.693   7.440  1.9557 -2.2690  0.9082
  175MOL0     H23582   2.975  -0.588   7.313  1.2906 -0.6009  1.1207
  175MOL0     H23583   3.030  -0.764   7.163  1.2514  0.1693  0.3082
  175MOL0     H23584   2.940  -0.888   7.256  0.6523 -1.4305  2.7430
  175MOL0     H23585   3.336  -0.811   7.246  0.2060  0.2113 -1.6182
  175MOL0     H23586   3.515  -1.052   7.073  0.6168 -0.0274  0.5437
  175MOL0     H23587   3.501  -0.893   7.128  0.4495 -0.1774 -0.7892
  175MOL0     H23588   3.580  -1.007   7.237  3.4336  0.1784 -4.4291
  175MOL0     H23589   3.325  -1.591   7.395 -0.0958  1.5878  1.9006
  175MOL0     H23590   3.461  -1.801   7.420  1.3904 -0.5745  0.9669
  175MOL0     H23591   3.837  -1.746   7.424 -2.3391  0.2372 -0.0188
  175MOL0     H23592   3.835  -1.914   7.452  2.2991  0.2540 -0.0557
  175MOL0     H23593   3.907  -1.947   7.206  0.1251 -1.1046  1.0915
  175MOL0     H23594   3.924  -1.781   7.184 -1.0055  1.0676  1.9555
  175MOL0     H23595   4.074  -1.909   7.416 -1.2029 -0.9220 -0.7388
  175MOL0     H23596   4.109  -1.756   7.333  0.1699  0.2562 -0.4534
  175MOL0     H23597   4.268  -1.946   7.253 -1.0416 -4.0740  1.0703
  175MOL0     H23598   4.135  -2.035   7.188 -1.8241  0.8548 -1.2442
  175MOL0     H23599   4.216  -1.752   7.112  0.6930 -0.3002  2.6269
  175MOL0     H23600   4.086  -1.829   7.041 -1.0058  1.0364  1.9100
  175MOL0     H23601   4.264  -2.027   6.971  1.6215 -0.0179  2.8418
  175MOL0     H23602   4.253  -1.880   6.869 -0.0663  2.5352 -0.5608
  175MOL0     H23603   4.449  -1.944   7.096  0.6655 -2.1225 -1.0915
  175MOL0     H23604   4.448  -1.787   7.005  0.0323  0.4543 -0.8952
  175MOL0     H23605   4.620  -1.917   6.927  0.6217 -1.4591 -0.3745
  175MOL0     H23606   4.506  -1.910   6.796 -0.4459  1.7838  0.9945
  175MOL0     H23607   3.786  -1.584   7.202 -1.0760  2.6286 -0.4163
  175MOL0     H23608   3.653  -1.385   7.246  0.0495 -0.0988 -0.3299
  175MOL0     H23609   3.165  -1.268   7.351 -1.8235  0.3983 -1.1223
  175MOL0     H23610   3.022  -1.064   7.375 -0.1116 -2.1706 -1.2786
  175MOL0     H23611   3.045   0.665   6.600 -2.1119 -0.8992  2.0605
  175MOL0     H23612   2.972   0.738   6.403 -1.5832 -0.3825  0.8741
  175MOL0     H23613   2.852   0.640   5.937  0.4750 -0.2771  0.8045
  175MOL0     H23614   2.745   0.733   5.738  1.1490 -0.0533 -0.0910
  175MOL0     H23615   2.591   1.011   5.720  1.4568  0.8216 -1.6112
  175MOL0     H23616   2.650   0.894   5.590 -2.8586 -1.4658 -2.8077
  175MOL0     H23617   2.386   1.054   5.574 -2.6792  0.2311 -3.0890
  175MOL0     H23618   2.442   0.931   5.461 -0.8015 -0.2586  0.2910
  175MOL0     H23619   2.611   1.083   5.390  0.0702  1.7907 -0.7587
  175MOL0     H23620   2.592   1.172   5.538  0.6113 -2.5358  1.2684
  175MOL0     H23621   2.369   1.272   5.451  0.5542  3.1614 -1.1656
  175MOL0     H23622   2.353   1.149   5.334  1.9228 -2.7164  0.7835
  175MOL0     H23623   2.560   1.454   5.140 -1.2876 -0.7533 -0.3402
  175MOL0     H23624   2.387   0.799   5.939  0.0161  0.7021  0.6044
  175MOL0     H23625   2.468   0.700   6.137 -0.1125  0.0689  0.1873
  176MOL0     O23626   4.985   8.736   6.459 -0.1915  0.0059  0.1236
  176MOL0     C23627   5.001   8.685   6.573 -0.0629 -0.7192  0.4605
  176MOL0     O23628   4.906   8.654   6.664 -0.0774 -0.1932 -0.3892
  176MOL0     C23629   4.782   8.708   6.630  0.2277  0.9673  1.1651
  176MOL0     C23630   4.738   8.835   6.668 -0.9042  0.2048 -0.5438
  176MOL0     C23631   4.617   8.892   6.631  0.0377  0.3636  0.5930
  176MOL0     C23632   4.527   8.805   6.571  0.5095  0.1504  0.6084
  176MOL0     O23633   4.399   8.859   6.553 -0.4660 -0.0246 -0.3149
  176MOL0     C23634   4.302   8.765   6.508  1.1908  0.2160 -0.4658
  176MOL0     C23635   4.163   8.827   6.525  0.2788  0.3074  0.4773
  176MOL0     C23636   4.059   8.735   6.438 -0.0556 -0.4463  0.6732
  176MOL0     C23637   3.910   8.756   6.488 -0.1078 -0.6270  0.3243
  176MOL0     C23638   3.789   8.698   6.403  0.1067  0.8994  0.8036
  176MOL0     C23639   3.787   8.543   6.391 -0.5118 -0.4410 -0.6067
  176MOL0     C23640   3.761   8.471   6.529 -0.2780  0.1807  0.8775
  176MOL0     C23641   3.716   8.327   6.508 -0.1897  0.3461 -0.5603
  176MOL0     N23642   3.708   8.238   6.631  1.3415 -0.8631  1.2730
  176MOL0     C23643   3.592   8.235   6.698  0.3236  0.2993 -0.5408
  176MOL0     C23644   3.611   8.140   6.796  0.2722 -0.6803  0.3388
  176MOL0     C23645   3.517   8.100   6.903 -0.6669 -0.5342  1.0723
  176MOL0     C23646   3.399   8.188   6.923 -0.0655 -0.3113 -0.5300
  176MOL0     C23647   3.322   8.160   7.052  0.3340  0.5339 -0.5483
  176MOL0     C23648   3.197   8.251   7.076  0.5571  0.1368  0.6754
  176MOL0     O23649   3.170   8.248   7.226 -0.0933  0.1266 -0.1870
  176MOL0     C23650   3.030   8.242   7.255  0.3480 -0.9077 -0.7528
  176MOL0     C23651   2.925   8.269   7.171  1.2549 -0.1508 -0.1017
  176MOL0     C23652   2.795   8.265   7.222 -0.3908 -0.7433  0.8682
  176MOL0     C23653   2.690   8.298   7.119  0.4358 -1.0647  0.1984
  176MOL0     C23654   2.767   8.221   7.355 -0.7513 -0.2190  0.1018
  176MOL0     C23655   2.632   8.214   7.427  0.1341  0.9908  0.3560
  176MOL0     O23656   2.634   8.178   7.563 -0.1150  0.6070  0.3124
  176MOL0     C23657   2.525   8.110   7.611 -0.9674 -0.1334  0.3827
  176MOL0     C23658   2.423   8.183   7.672  0.3035  0.3963 -0.5871
  176MOL0     C23659   2.310   8.121   7.725 -0.0368  0.3933 -0.5268
  176MOL0     C23660   2.290   7.980   7.713  0.6831  0.0730  1.0552
  176MOL0     O23661   2.178   7.915   7.756 -0.0436 -1.3293  0.4816
  176MOL0     C23662   2.137   7.787   7.712 -0.1709  0.8162  0.4390
  176MOL0     C23663   1.985   7.754   7.709  0.2150 -0.0527 -0.3204
  176MOL0     C23664   1.925   7.772   7.850 -0.9436 -0.5461 -0.5388
  176MOL0     C23665   1.780   7.735   7.863 -0.0623 -0.4610 -0.1533
  176MOL0     C23666   1.714   7.766   8.004  0.5579  0.6726 -0.0043
  176MOL0     C23667   1.696   7.912   8.024  0.4531  0.5289  0.1921
  176MOL0     C23668   1.607   7.956   8.140  0.3866 -0.8952  1.0574
  176MOL0     C23669   1.671   7.948   8.282  0.9616  0.5211  0.2369
  176MOL0    Cl23670   1.811   8.059   8.331  0.3828  0.0464  0.4983
  176MOL0     C23671   2.396   7.907   7.649 -0.8097  0.1102 -0.8704
  176MOL0     C23672   2.513   7.973   7.604 -1.5014  0.1601  0.7187
  176MOL0     O23673   2.531   8.216   7.359  0.5994  0.1086  0.1400
  176MOL0     C23674   2.880   8.195   7.438  0.6408  0.1411 -0.1204
  176MOL0     C23675   3.011   8.212   7.387 -0.9555  0.1566  1.1020
  176MOL0     N23676   3.736   8.086   6.771 -0.4020 -0.0399  0.7093
  176MOL0     N23677   3.794   8.146   6.673 -0.4280 -0.2088 -0.5541
  176MOL0     C23678   4.564   8.672   6.531 -1.0660 -0.6162  0.9417
  176MOL0     C23679   4.689   8.625   6.568 -0.3423 -0.4326 -0.5567
  176MOL0     C23680   5.134   8.643   6.594 -0.1600 -0.2354 -0.0175
  176MOL0     C23681   5.176   8.536   6.661 -1.0067 -0.3542 -0.4821
  176MOL0     C23682   5.312   8.518   6.695  0.5695  0.2568  0.4706
  176MOL0     C23683   5.409   8.613   6.653  0.4212  0.1546 -0.5319
  176MOL0     O23684   5.539   8.587   6.690 -0.0657  0.6743 -0.0923
  176MOL0     C23685   5.651   8.647   6.621  0.5393 -0.2856 -0.3325
  176MOL0     C23686   5.791   8.590   6.657 -0.1777  0.0870  0.5013
  176MOL0     C23687   5.795   8.447   6.698 -0.7688 -0.3290  0.0003
  176MOL0     C23688   5.794   8.346   6.577 -0.6337  1.1009 -0.6805
  176MOL0     C23689   5.916   8.350   6.500 -0.0479  0.2998 -0.1689
  176MOL0     C23690   6.026   8.327   6.463  0.6026  0.5877 -0.1870
  176MOL0     C23691   5.370   8.717   6.567  0.7232 -0.0023 -0.0539
  176MOL0     C23692   5.229   8.735   6.552  0.8104 -0.6423 -1.8030
  176MOL0     H23693   4.813   8.902   6.710 -1.3200 -0.7544  1.8608
  176MOL0     H23694   4.575   8.990   6.652 -2.4200 -0.0901 -1.6535
  176MOL0     H23695   4.313   8.748   6.401  2.5199 -1.7358 -0.0797
  176MOL0     H23696   4.299   8.664   6.551  0.2116 -0.1634 -1.3934
  176MOL0     H23697   4.139   8.818   6.631  0.1630  1.7822  0.5858
  176MOL0     H23698   4.151   8.933   6.501 -0.5606 -0.1172 -1.1465
  176MOL0     H23699   4.085   8.769   6.337  1.0009 -2.4937  0.1960
  176MOL0     H23700   4.080   8.628   6.433  0.6521 -0.2645 -0.8634
  176MOL0     H23701   3.898   8.712   6.588 -2.3595 -0.4178  0.1893
  176MOL0     H23702   3.880   8.858   6.513  0.2077 -0.4082 -0.1749
  176MOL0     H23703   3.697   8.731   6.453  0.6601 -1.6851  3.8709
  176MOL0     H23704   3.808   8.732   6.301 -2.7476 -0.5764 -0.3530
  176MOL0     H23705   3.715   8.518   6.313 -1.0989  0.3085 -0.3205
  176MOL0     H23706   3.887   8.506   6.367  0.0678 -0.9217  2.2123
  176MOL0     H23707   3.848   8.475   6.595  1.3983 -0.5322 -1.1845
  176MOL0     H23708   3.677   8.524   6.575  1.7881  2.2740  2.4353
  176MOL0     H23709   3.787   8.282   6.438  2.1118  0.2075  1.7079
  176MOL0     H23710   3.619   8.319   6.459  0.8247  2.4274 -3.1085
  176MOL0     H23711   3.498   8.289   6.691  0.4716  0.7332  0.5126
  176MOL0     H23712   3.493   7.994   6.890  1.2725 -0.7797 -1.2327
  176MOL0     H23713   3.580   8.114   6.991  0.3505 -4.1289  1.0808
  176MOL0     H23714   3.338   8.194   6.833  0.5260 -0.0605 -0.9212
  176MOL0     H23715   3.441   8.288   6.934  0.2868 -0.2501 -2.2208
  176MOL0     H23716   3.397   8.174   7.131 -1.1169  0.9056  0.8149
  176MOL0     H23717   3.286   8.057   7.061  0.9525 -0.0080 -3.4413
  176MOL0     H23718   3.126   8.195   7.015  3.6792  1.0528 -4.3375
  176MOL0     H23719   3.195   8.357   7.048 -0.5426  0.9576  3.5218
  176MOL0     H23720   2.944   8.300   7.068  1.1047  1.8998  0.4494
  176MOL0     H23721   2.686   8.403   7.087 -2.9375 -0.5210  1.9523
  176MOL0     H23722   2.724   8.241   7.031  3.3099 -0.0780  0.5457
  176MOL0     H23723   2.586   8.275   7.142  0.0082  0.6759  0.1609
  176MOL0     H23724   2.443   8.289   7.659  2.5896 -0.0667 -1.3907
  176MOL0     H23725   2.241   8.191   7.770  0.7819 -0.8035  2.8233
  176MOL0     H23726   2.172   7.776   7.609  2.4738 -1.9672  1.4850
  176MOL0     H23727   2.190   7.708   7.765 -2.9191 -0.5234  1.3631
  176MOL0     H23728   1.937   7.809   7.628  0.2488  0.0925 -0.2417
  176MOL0     H23729   1.974   7.648   7.682 -4.8016  0.8981 -3.0748
  176MOL0     H23730   1.924   7.878   7.875 -2.6964 -0.8826  1.0458
  176MOL0     H23731   1.980   7.717   7.927 -0.5455  0.9626  0.2800
  176MOL0     H23732   1.735   7.797   7.784  0.7526 -0.0676 -0.3174
  176MOL0     H23733   1.779   7.627   7.842  2.2602 -0.5634 -0.0419
  176MOL0     H23734   1.765   7.732   8.095  0.4864  2.8982  0.9158
  176MOL0     H23735   1.612   7.725   7.999  1.7885 -2.5943 -1.2216
  176MOL0     H23736   1.785   7.972   8.044  0.2215  0.6417  0.8870
  176MOL0     H23737   1.682   7.955   7.924  4.1462 -0.2254 -0.7946
  176MOL0     H23738   1.516   7.896   8.123 -0.0365 -0.6731  2.4122
  176MOL0     H23739   1.586   8.062   8.126 -0.4377 -1.0949  0.6947
  176MOL0     H23740   1.694   7.842   8.294 -4.8984 -0.9806  1.1311
  176MOL0     H23741   1.596   7.979   8.355 -0.4063  2.7970 -1.9590
  176MOL0     H23742   2.394   7.800   7.626  2.2398 -0.5171  1.1635
  176MOL0     H23743   2.597   7.929   7.552 -1.3389 -0.4912  1.5174
  176MOL0     H23744   2.866   8.156   7.538 -0.3149 -0.3220 -0.4212
  176MOL0     H23745   3.098   8.171   7.438  0.0156  0.2097 -0.4640
  176MOL0     H23746   4.489   8.607   6.489 -0.1767 -1.4355  0.5956
  176MOL0     H23747   4.709   8.519   6.555 -1.8739 -1.1758  2.2460
  176MOL0     H23748   5.097   8.468   6.693 -0.4970  0.4541  2.9410
  176MOL0     H23749   5.346   8.423   6.734  1.0426  0.2916  0.1458
  176MOL0     H23750   5.624   8.625   6.517 -3.5910  1.6422  0.1304
  176MOL0     H23751   5.661   8.756   6.626 -1.7030  0.0504 -1.5758
  176MOL0     H23752   5.830   8.659   6.733  1.4240  1.1560 -1.2004
  176MOL0     H23753   5.862   8.611   6.577  0.1403  0.5439  0.8969
  176MOL0     H23754   5.709   8.442   6.765 -0.8824 -1.6714 -0.2218
  176MOL0     H23755   5.893   8.439   6.747  0.0823  2.8935 -0.9082
  176MOL0     H23756   5.705   8.354   6.514 -1.2859 -0.0896  0.0396
  176MOL0     H23757   5.792   8.248   6.627 -0.7717  0.8737 -1.1249
  176MOL0     H23758   6.132   8.311   6.453  0.0908 -4.2302 -0.5717
  176MOL0     H23759   5.446   8.789   6.537  1.8463 -0.2552  2.0100
  176MOL0     H23760   5.212   8.824   6.493  0.5863  0.9172  0.4811
  177MOL0     O23761   5.330   8.600  10.227  0.5721  0.6151 -0.8354
  177MOL0     C23762   5.250   8.594  10.324  0.0754  0.7904  0.3955
  177MOL0     O23763   5.159   8.688  10.365 -1.0118 -0.3054 -1.0312
  177MOL0     C23764   5.139   8.780  10.270 -0.2997 -0.5473  1.0278
  177MOL0     C23765   5.203   8.904  10.259  0.0848 -0.7093  0.5062
  177MOL0     C23766   5.165   8.986  10.152  0.1426 -0.3963 -0.6539
  177MOL0     C23767   5.066   8.952  10.053 -0.2100 -0.5030  0.4410
  177MOL0     O23768   5.037   9.020   9.939  0.1556 -0.0409  0.7191
  177MOL0     C23769   5.047   9.163   9.937 -0.4820 -0.1100 -0.0451
  177MOL0     C23770   5.038   9.216   9.791 -0.1407  0.5769 -0.7298
  177MOL0     C23771   4.933   9.155   9.701 -0.0314 -0.4791 -0.0436
  177MOL0     C23772   4.786   9.159   9.755 -0.2761 -0.4800 -0.0231
  177MOL0     C23773   4.683   9.083   9.679 -0.0464  0.0381  0.5726
  177MOL0     C23774   4.694   8.940   9.707 -0.2831 -0.6928  0.1193
  177MOL0     C23775   4.615   8.841   9.624  0.0211 -0.8433 -0.0125
  177MOL0     C23776   4.473   8.885   9.589  0.3903 -0.0550  0.5131
  177MOL0     N23777   4.432   8.800   9.473 -0.7520 -0.6728 -0.2520
  177MOL0     C23778   4.454   8.821   9.332  0.5192 -0.0191  0.0650
  177MOL0     C23779   4.366   8.730   9.276  0.0331 -0.5914  0.2768
  177MOL0     C23780   4.350   8.703   9.135  0.5745 -0.4116  0.5909
  177MOL0     C23781   4.419   8.566   9.096 -0.0327 -0.0424  0.6999
  177MOL0     C23782   4.375   8.515   8.952  1.1466 -0.6480 -0.0500
  177MOL0     C23783   4.422   8.578   8.818 -0.0861 -0.4787  0.7021
  177MOL0     O23784   4.567   8.576   8.830  0.0814 -0.4932 -0.3187
  177MOL0     C23785   4.619   8.642   8.717 -0.6777  0.7647 -0.0162
  177MOL0     C23786   4.719   8.734   8.737  0.3917 -0.4373 -0.2981
  177MOL0     C23787   4.764   8.811   8.631 -0.0986  0.1992  0.0276
  177MOL0     C23788   4.841   8.931   8.663  0.2366 -0.1725 -0.5435
  177MOL0     C23789   4.728   8.771   8.496  0.6055  0.7328 -0.4175
  177MOL0     C23790   4.769   8.845   8.372  0.1706 -0.1005  0.5196
  177MOL0     O23791   4.681   8.839   8.263  0.0451  0.1380 -0.2909
  177MOL0     C23792   4.690   8.948   8.184  0.1230 -1.1353 -0.1949
  177MOL0     C23793   4.603   9.055   8.204 -0.0030 -0.0808  0.3499
  177MOL0     C23794   4.603   9.157   8.105 -0.6021 -0.6480 -0.4358
  177MOL0     C23795   4.701   9.166   8.001  0.5942 -0.2517  0.4006
  177MOL0     O23796   4.695   9.268   7.911 -0.2137 -0.3459  0.7055
  177MOL0     C23797   4.699   9.402   7.970  0.0205 -0.2825  0.8780
  177MOL0     C23798   4.567   9.467   7.953 -1.1620 -0.2391 -0.1506
  177MOL0     C23799   4.482   9.440   7.823 -0.0462 -0.0927  0.6027
  177MOL0     C23800   4.375   9.333   7.841  0.3011  0.4517 -0.4628
  177MOL0     C23801   4.318   9.277   7.708 -0.4087  0.0114 -0.2506
  177MOL0     C23802   4.244   9.376   7.619  1.2945 -0.6159 -0.1901
  177MOL0     C23803   4.192   9.317   7.489  0.8413 -0.9812  0.4376
  177MOL0     C23804   4.290   9.244   7.398 -1.2917 -0.4934  0.3984
  177MOL0    Cl23805   4.432   9.350   7.348  0.3070  0.0265 -0.1069
  177MOL0     C23806   4.783   9.058   7.993  0.8354  0.3292  0.5724
  177MOL0     C23807   4.784   8.950   8.081 -0.2230  0.6835 -0.1226
  177MOL0     O23808   4.881   8.897   8.369  0.4590  0.1102  0.0475
  177MOL0     C23809   4.631   8.669   8.473 -0.9913 -0.4678  0.4014
  177MOL0     C23810   4.577   8.606   8.586  1.1697  0.0308 -0.1235
  177MOL0     N23811   4.288   8.671   9.373  0.1402 -0.0489 -0.3500
  177MOL0     N23812   4.329   8.703   9.488 -0.4618 -0.8865 -0.6533
  177MOL0     C23813   5.002   8.831  10.070  0.5038  0.6227  0.6161
  177MOL0     C23814   5.026   8.759  10.182  0.2394 -0.1200 -0.3632
  177MOL0     C23815   5.255   8.464  10.404 -0.5983 -0.0525 -0.0061
  177MOL0     C23816   5.367   8.388  10.390  0.5908  0.8138 -0.9423
  177MOL0     C23817   5.380   8.262  10.451 -0.3906 -1.1994 -0.1212
  177MOL0     C23818   5.272   8.213  10.529  0.0080 -0.3712  0.7754
  177MOL0     O23819   5.276   8.085  10.590  0.4139 -0.4711  0.4936
  177MOL0     C23820   5.401   8.021  10.595  1.0177  0.1083 -0.1240
  177MOL0     C23821   5.394   7.907  10.692  0.2488 -0.0632  0.2155
  177MOL0     C23822   5.315   7.789  10.641 -0.0846 -0.1373 -0.0683
  177MOL0     C23823   5.282   7.696  10.757  0.4639  0.7976 -0.1065
  177MOL0     C23824   5.388   7.620  10.822  0.0154 -0.4473 -0.0959
  177MOL0     C23825   5.483   7.551  10.840 -0.4132 -0.6085  0.5888
  177MOL0     C23826   5.154   8.289  10.541 -0.7162 -0.5725  0.0915
  177MOL0     C23827   5.146   8.411  10.472 -0.1853  0.1212 -0.1069
  177MOL0     H23828   5.281   8.926  10.332 -0.3428 -2.2435  1.4792
  177MOL0     H23829   5.214   9.082  10.144  0.1572 -0.0759  2.3141
  177MOL0     H23830   4.959   9.203   9.989 -1.6463  0.0374 -2.0332
  177MOL0     H23831   5.149   9.192   9.965 -0.0878  3.3741 -4.0998
  177MOL0     H23832   5.013   9.319   9.817 -0.1704  0.0076  1.7496
  177MOL0     H23833   5.135   9.201   9.742 -0.7375 -4.6589 -0.8927
  177MOL0     H23834   4.949   9.214   9.610  1.5931  3.4257  2.4997
  177MOL0     H23835   4.960   9.052   9.674  0.2523 -0.9206  1.8032
  177MOL0     H23836   4.788   9.127   9.859 -0.7107 -1.6762 -0.3647
  177MOL0     H23837   4.747   9.260   9.740 -1.3964 -1.1120 -1.6670
  177MOL0     H23838   4.582   9.108   9.712 -1.0379 -1.7511 -0.9240
  177MOL0     H23839   4.691   9.105   9.572 -0.0205  2.5020  1.0237
  177MOL0     H23840   4.800   8.912   9.697 -0.3750 -0.4792 -1.7544
  177MOL0     H23841   4.665   8.910   9.809  1.4876 -1.2330  0.5045
  177MOL0     H23842   4.674   8.827   9.533 -1.2920 -2.8374 -0.6235
  177MOL0     H23843   4.615   8.742   9.671 -0.7709 -1.7433 -1.8033
  177MOL0     H23844   4.469   8.991   9.564  1.9851 -0.2844 -0.8951
  177MOL0     H23845   4.412   8.876   9.680 -1.5660  1.4047 -0.5822
  177MOL0     H23846   4.512   8.890   9.271  0.5519  1.5910  1.8262
  177MOL0     H23847   4.244   8.697   9.108  1.2039 -2.2381 -1.9093
  177MOL0     H23848   4.395   8.784   9.078 -1.0834  2.1600  2.7113
  177MOL0     H23849   4.375   8.504   9.175  0.6944 -0.4404  0.8060
  177MOL0     H23850   4.527   8.561   9.114  0.5104  2.8251 -1.1515
  177MOL0     H23851   4.268   8.538   8.947  0.9478 -1.6659 -0.8393
  177MOL0     H23852   4.384   8.406   8.947 -0.2403 -0.7740 -0.3133
  177MOL0     H23853   4.382   8.679   8.811 -3.7308 -1.8010  0.2688
  177MOL0     H23854   4.375   8.532   8.730  2.8564 -0.4319 -1.0325
  177MOL0     H23855   4.754   8.756   8.837 -0.8719  0.2635  0.0181
  177MOL0     H23856   4.809   8.966   8.761  0.8014 -2.0151  0.3366
  177MOL0     H23857   4.942   8.891   8.653  0.1472 -0.2227 -1.3255
  177MOL0     H23858   4.829   9.016   8.596  3.4315 -0.7245 -2.0027
  177MOL0     H23859   4.531   9.071   8.283  2.3208 -0.2138  2.6104
  177MOL0     H23860   4.526   9.233   8.114 -0.0587  0.3786 -3.4310
  177MOL0     H23861   4.720   9.400   8.077  2.1411 -0.5447  0.4964
  177MOL0     H23862   4.771   9.461   7.914 -1.2109  1.4420  1.0455
  177MOL0     H23863   4.513   9.438   8.044 -1.6074 -2.9373 -1.1991
  177MOL0     H23864   4.580   9.576   7.949 -2.5255 -0.0960 -2.0027
  177MOL0     H23865   4.542   9.419   7.734 -0.3284  3.0353 -0.4687
  177MOL0     H23866   4.436   9.538   7.810 -0.4769 -0.5028 -1.2396
  177MOL0     H23867   4.410   9.241   7.889  0.7049 -0.2880 -2.0982
  177MOL0     H23868   4.285   9.373   7.889 -0.5542 -0.4565 -1.2545
  177MOL0     H23869   4.249   9.197   7.735 -1.3768  1.0521  0.4774
  177MOL0     H23870   4.396   9.224   7.653  0.1262 -0.5077  0.9519
  177MOL0     H23871   4.159   9.428   7.663  1.2899 -2.8870  2.7422
  177MOL0     H23872   4.311   9.459   7.593 -1.9209  2.3821  0.3158
  177MOL0     H23873   4.150   9.399   7.431  0.6334 -0.9988  0.5652
  177MOL0     H23874   4.108   9.250   7.509  1.3436 -1.6975  0.2090
  177MOL0     H23875   4.237   9.208   7.309 -2.2439 -1.9052  1.4939
  177MOL0     H23876   4.331   9.159   7.454  0.2592 -0.4256 -0.5808
  177MOL0     H23877   4.848   9.069   7.906 -0.3292 -1.6290 -0.6121
  177MOL0     H23878   4.867   8.879   8.074  1.0803  2.1529 -0.1093
  177MOL0     H23879   4.611   8.633   8.373  0.8073  0.9988 -0.5581
  177MOL0     H23880   4.511   8.521   8.570 -2.0355  2.5256 -1.0622
  177MOL0     H23881   4.924   8.818   9.997  0.0211 -2.3570  1.5491
  177MOL0     H23882   4.974   8.665  10.201  4.5509 -2.4917  1.0142
  177MOL0     H23883   5.457   8.425  10.340 -0.8738  4.4492 -1.1889
  177MOL0     H23884   5.476   8.212  10.446  0.5342  0.2821  1.6970
  177MOL0     H23885   5.442   7.984  10.500 -0.0098  0.8039 -0.8529
  177MOL0     H23886   5.486   8.080  10.631  0.5866 -0.5896  2.2170
  177MOL0     H23887   5.353   7.950  10.785  1.9621  3.0894 -0.3569
  177MOL0     H23888   5.500   7.884  10.708  0.9993  4.3086  3.5438
  177MOL0     H23889   5.374   7.737  10.565  0.8745  0.1966  0.4279
  177MOL0     H23890   5.214   7.812  10.606 -0.5587 -0.6799  0.9108
  177MOL0     H23891   5.211   7.632  10.704  0.3535  2.1098 -1.6310
  177MOL0     H23892   5.232   7.758  10.832 -0.7544  1.8346 -1.7073
  177MOL0     H23893   5.562   7.477  10.842 -0.8692 -1.3826 -3.2161
  177MOL0     H23894   5.072   8.245  10.598 -1.2895  0.9416  0.4827
  177MOL0     H23895   5.058   8.474  10.477  0.5854  1.1703  0.7409
  178MOL0     O23896   1.107   6.052   2.652  0.3233  0.8654 -0.2952
  178MOL0     C23897   1.025   6.128   2.694  0.4742  0.9012 -0.4309
  178MOL0     O23898   0.918   6.083   2.778 -0.8962 -0.0617  0.3304
  178MOL0     C23899   0.882   5.947   2.797 -0.5511 -0.1522  0.0853
  178MOL0     C23900   0.772   5.923   2.884  0.5127  0.0337 -0.1558
  178MOL0     C23901   0.721   5.793   2.921  0.0662  0.2374  0.2918
  178MOL0     C23902   0.776   5.680   2.846 -0.5822 -0.1417 -1.0166
  178MOL0     O23903   0.739   5.548   2.866  0.4974  0.1423  0.6323
  178MOL0     C23904   0.722   5.505   3.001  0.4278 -0.5117 -0.1223
  178MOL0     C23905   0.734   5.354   2.997 -0.2460  0.8751  0.0336
  178MOL0     C23906   0.724   5.280   3.137  0.0320 -0.1830 -0.0500
  178MOL0     C23907   0.707   5.126   3.135 -0.5407 -0.2804  0.6077
  178MOL0     C23908   0.668   5.077   3.271  0.0172 -0.0067 -0.2395
  178MOL0     C23909   0.659   4.924   3.260 -0.4299  0.6760 -0.2257
  178MOL0     C23910   0.614   4.872   3.395  0.7232  0.5574  0.1730
  178MOL0     C23911   0.612   4.717   3.410 -0.2769 -0.2457  0.1440
  178MOL0     N23912   0.504   4.655   3.327  0.5622  0.8642 -0.3145
  178MOL0     C23913   0.374   4.624   3.374 -0.9282 -0.0676  0.0514
  178MOL0     C23914   0.312   4.589   3.266 -0.6052  0.2529 -0.1801
  178MOL0     C23915   0.162   4.582   3.247 -0.5870  0.2334  0.1997
  178MOL0     C23916   0.117   4.437   3.279  0.0781 -0.5353  0.9473
  178MOL0     C23917  -0.009   4.406   3.205 -0.1876  0.3200  0.3153
  178MOL0     C23918  -0.130   4.494   3.254 -0.2384  0.1037  0.5954
  178MOL0     O23919  -0.119   4.631   3.215  0.3593 -0.6021  0.9382
  178MOL0     C23920  -0.142   4.657   3.077 -0.4361  0.0019 -0.1643
  178MOL0     C23921  -0.185   4.570   2.984 -0.0454  0.7875 -0.2082
  178MOL0     C23922  -0.204   4.595   2.848 -0.4698  0.6439  1.2494
  178MOL0     C23923  -0.249   4.481   2.752  0.4753 -0.5668 -0.5014
  178MOL0     C23924  -0.171   4.725   2.800 -0.8524  0.4412  0.3151
  178MOL0     C23925  -0.171   4.778   2.663 -0.3144 -0.1872 -0.1046
  178MOL0     O23926  -0.256   4.876   2.642 -0.1084  0.0745 -0.2922
  178MOL0     C23927  -0.250   4.945   2.528  0.0613  0.3358  0.2881
  178MOL0     C23928  -0.169   5.058   2.526  0.5600 -0.0208  1.2083
  178MOL0     C23929  -0.151   5.126   2.406 -1.1557  0.0862 -1.7055
  178MOL0     C23930  -0.235   5.098   2.295  0.3125  0.6297 -0.6349
  178MOL0     O23931  -0.258   5.178   2.182  0.4859 -0.7608 -0.6164
  178MOL0     C23932  -0.142   5.238   2.109 -1.4412  0.5009  0.2045
  178MOL0     C23933  -0.178   5.278   1.951  0.5219  0.7976 -0.9162
  178MOL0     C23934  -0.049   5.318   1.863 -1.0214  0.2211  0.3856
  178MOL0     C23935  -0.072   5.312   1.705 -0.3316  1.6910 -0.2902
  178MOL0     C23936   0.062   5.333   1.627 -0.1756  0.8926  0.7410
  178MOL0     C23937   0.060   5.339   1.468  0.6402 -0.2680 -0.6543
  178MOL0     C23938   0.016   5.208   1.402 -1.1889  0.8156  0.2324
  178MOL0     C23939   0.071   5.195   1.261  0.3023  0.6098 -0.2387
  178MOL0    Cl23940  -0.019   5.304   1.159  0.0509 -0.1562  0.3386
  178MOL0     C23941  -0.320   4.987   2.300  0.4197  0.1157 -0.3091
  178MOL0     C23942  -0.325   4.911   2.413  0.6256 -0.2977 -0.0535
  178MOL0     O23943  -0.107   4.718   2.578 -0.5282  0.4671  0.3164
  178MOL0     C23944  -0.126   4.816   2.894  0.2796  0.1221 -0.0568
  178MOL0     C23945  -0.116   4.776   3.028  0.0409 -0.4759  0.9999
  178MOL0     N23946   0.392   4.582   3.156  0.9628  0.2558  0.0173
  178MOL0     N23947   0.511   4.629   3.193 -0.0072 -0.6621 -0.2560
  178MOL0     C23948   0.889   5.709   2.765  0.5736  0.0485 -0.3603
  178MOL0     C23949   0.941   5.837   2.730 -0.2625  1.1199 -0.6208
  178MOL0     C23950   1.030   6.279   2.685 -0.0330 -0.6449 -0.0449
  178MOL0     C23951   0.918   6.357   2.722 -0.6882  0.6359  0.5009
  178MOL0     C23952   0.928   6.494   2.732  1.2080  1.2494 -0.7140
  178MOL0     C23953   1.031   6.568   2.674  0.2546 -1.3392  0.3309
  178MOL0     O23954   1.020   6.703   2.668  0.2816 -0.6194  0.5115
  178MOL0     C23955   1.127   6.787   2.619  0.3202 -0.5896 -0.0106
  178MOL0     C23956   1.195   6.836   2.752 -1.1778 -0.8211 -0.2968
  178MOL0     C23957   1.322   6.921   2.716  0.6154  0.4760  0.9447
  178MOL0     C23958   1.417   6.925   2.829  0.5487 -0.3447  0.1516
  178MOL0     C23959   1.545   6.978   2.782  0.4191 -0.6536  0.5120
  178MOL0     C23960   1.639   7.039   2.731 -0.3541  0.3482 -0.2792
  178MOL0     C23961   1.148   6.500   2.641 -0.4668  0.4886 -0.4335
  178MOL0     C23962   1.150   6.355   2.655  0.7043 -0.6181 -0.3418
  178MOL0     H23963   0.720   6.002   2.937 -1.9077 -2.2846  1.1896
  178MOL0     H23964   0.645   5.771   2.996  0.8447 -2.4273  0.3889
  178MOL0     H23965   0.796   5.543   3.072  0.4388 -1.0924  0.1790
  178MOL0     H23966   0.618   5.523   3.028  0.6397  0.3730  0.1363
  178MOL0     H23967   0.654   5.324   2.930 -0.6258  4.1965 -1.1773
  178MOL0     H23968   0.832   5.330   2.954 -0.2162 -0.0168  0.5653
  178MOL0     H23969   0.814   5.309   3.192  0.3276  5.9270 -2.8630
  178MOL0     H23970   0.633   5.327   3.177  0.5730 -0.8182  2.0137
  178MOL0     H23971   0.632   5.101   3.059  0.6455  0.4171 -0.8491
  178MOL0     H23972   0.801   5.081   3.102 -1.2782 -1.6350  0.2912
  178MOL0     H23973   0.747   5.101   3.344 -0.3724  1.9442 -0.3874
  178MOL0     H23974   0.575   5.116   3.314  0.0508 -1.6673  1.4722
  178MOL0     H23975   0.585   4.891   3.186 -0.5839 -2.9273  1.3787
  178MOL0     H23976   0.759   4.884   3.245  0.7597  3.0283  0.8445
  178MOL0     H23977   0.676   4.915   3.474 -0.6386  1.8145  0.6151
  178MOL0     H23978   0.514   4.910   3.418 -0.4558  0.7366 -4.2701
  178MOL0     H23979   0.627   4.689   3.515  4.1587  2.1565  0.3788
  178MOL0     H23980   0.700   4.674   3.362 -1.7362 -1.4671 -1.6089
  178MOL0     H23981   0.341   4.648   3.475 -0.5496  1.1707 -0.0926
  178MOL0     H23982   0.125   4.654   3.321  1.2846 -0.3482  1.7685
  178MOL0     H23983   0.129   4.619   3.149 -2.1631 -0.7850  0.3133
  178MOL0     H23984   0.111   4.407   3.384 -1.5459  0.6002  1.2129
  178MOL0     H23985   0.183   4.368   3.225 -0.0561 -1.7885  2.3333
  178MOL0     H23986  -0.048   4.305   3.214  0.7445 -0.0058  0.9486
  178MOL0     H23987   0.015   4.430   3.101  1.4422  1.8868  0.9910
  178MOL0     H23988  -0.128   4.500   3.364  3.5503  3.8181  0.5834
  178MOL0     H23989  -0.227   4.455   3.222 -0.0673  0.1353  0.0326
  178MOL0     H23990  -0.205   4.469   3.018 -1.9973  1.5931  1.2346
  178MOL0     H23991  -0.355   4.483   2.724  0.4722  0.4272 -0.4638
  178MOL0     H23992  -0.200   4.494   2.654  0.0580 -2.1903 -0.9573
  178MOL0     H23993  -0.213   4.385   2.790 -0.5104 -1.7392 -2.3608
  178MOL0     H23994  -0.113   5.097   2.611  0.8027 -2.8144  2.4232
  178MOL0     H23995  -0.088   5.214   2.397 -1.3203  1.2688  4.3670
  178MOL0     H23996  -0.100   5.325   2.161 -1.4938  1.3691 -1.1645
  178MOL0     H23997  -0.063   5.163   2.103 -0.8496  0.6509  3.7665
  178MOL0     H23998  -0.250   5.218   1.895  2.6299  1.0849 -4.2107
  178MOL0     H23999  -0.232   5.371   1.972  0.7513  0.7176  0.1032
  178MOL0     H24000   0.034   5.250   1.887  0.7341  1.9536 -0.4760
  178MOL0     H24001  -0.006   5.415   1.889  0.8825 -0.4821  0.0734
  178MOL0     H24002  -0.117   5.215   1.682  0.7795  0.8137  1.0039
  178MOL0     H24003  -0.155   5.377   1.676  0.8084  3.0955 -0.5075
  178MOL0     H24004   0.123   5.244   1.644 -1.2762 -0.7634 -2.8176
  178MOL0     H24005   0.104   5.424   1.670  0.0188  0.7454  0.8622
  178MOL0     H24006  -0.014   5.418   1.450  0.6534  1.3093  4.5636
  178MOL0     H24007   0.152   5.364   1.414  0.9394 -3.0320 -1.5822
  178MOL0     H24008  -0.093   5.209   1.410 -1.1616  0.8193  0.6530
  178MOL0     H24009   0.050   5.129   1.470  2.8362  1.3379 -0.8908
  178MOL0     H24010   0.045   5.097   1.221 -1.0284  0.3562  1.1841
  178MOL0     H24011   0.178   5.218   1.255 -0.0572  2.6836  0.3230
  178MOL0     H24012  -0.391   4.967   2.220 -1.7502  0.3799  1.4660
  178MOL0     H24013  -0.391   4.824   2.417  0.1766  0.0263 -0.3730
  178MOL0     H24014  -0.087   4.911   2.858  0.0430 -0.0053 -0.6781
  178MOL0     H24015  -0.071   4.852   3.091  1.8437 -0.7891  0.1424
  178MOL0     H24016   0.936   5.616   2.734 -0.8197 -1.1718  0.9990
  178MOL0     H24017   1.014   5.829   2.651  0.9203 -0.0422  0.5472
  178MOL0     H24018   0.829   6.308   2.760  0.1968 -3.5517 -2.1526
  178MOL0     H24019   0.844   6.541   2.782  2.1068 -0.5989  2.8371
  178MOL0     H24020   1.192   6.744   2.543 -2.7242 -0.4103 -2.9708
  178MOL0     H24021   1.086   6.872   2.564 -1.0275 -2.0924 -1.4248
  178MOL0     H24022   1.215   6.757   2.825 -0.9864  0.0072  0.5516
  178MOL0     H24023   1.122   6.901   2.800  0.4075 -0.7612  2.1801
  178MOL0     H24024   1.297   7.025   2.694  0.8318  0.9229  2.7050
  178MOL0     H24025   1.371   6.879   2.627  1.8118  2.3741  0.6656
  178MOL0     H24026   1.426   6.832   2.885 -4.1555 -1.1020  0.0017
  178MOL0     H24027   1.369   6.986   2.906  0.9655 -3.0815  2.7817
  178MOL0     H24028   1.724   7.095   2.698  0.2136 -1.3478 -1.8365
  178MOL0     H24029   1.240   6.552   2.616 -0.0103  0.0208  0.2645
  178MOL0     H24030   1.237   6.290   2.649  1.4209 -0.0284  2.4821
  179MOL0     O24031   2.521   2.403   4.022  0.7195 -0.7713 -0.3825
  179MOL0     C24032   2.523   2.443   3.905  0.4109 -0.4319 -0.2581
  179MOL0     O24033   2.602   2.401   3.806 -0.3685 -0.6535 -0.4260
  179MOL0     C24034   2.674   2.292   3.814  0.5737 -0.1756  0.9704
  179MOL0     C24035   2.794   2.309   3.746  0.5979  0.2011  0.0087
  179MOL0     C24036   2.888   2.211   3.736 -0.5656 -0.0669 -0.7293
  179MOL0     C24037   2.862   2.091   3.795  0.2639 -0.1578 -0.1822
  179MOL0     O24038   2.956   1.991   3.779 -0.2313  0.0940 -0.3223
  179MOL0     C24039   2.985   1.937   3.910  0.5984 -0.8030 -0.7651
  179MOL0     C24040   3.117   1.857   3.897 -0.4378 -0.8531 -0.2871
  179MOL0     C24041   3.221   1.963   3.856 -0.2015 -0.4921  0.2109
  179MOL0     C24042   3.355   1.954   3.933 -0.3468  0.3459  0.0811
  179MOL0     C24043   3.477   2.015   3.861 -0.4641  0.1886  0.4209
  179MOL0     C24044   3.612   1.961   3.902 -0.1418 -0.6437 -0.4405
  179MOL0     C24045   3.665   2.031   4.026  0.4345  0.1194  0.0178
  179MOL0     C24046   3.608   1.966   4.154  0.0825  0.0664  0.3754
  179MOL0     N24047   3.636   2.023   4.286 -0.3971 -0.7045 -0.2177
  179MOL0     C24048   3.763   2.054   4.331 -0.2441 -1.0121 -0.2315
  179MOL0     C24049   3.740   2.125   4.446  0.0846 -0.5502  0.2048
  179MOL0     C24050   3.845   2.172   4.541  0.2498  0.0492 -0.8265
  179MOL0     C24051   3.965   2.251   4.468  0.0481  0.8820 -0.5175
  179MOL0     C24052   4.022   2.350   4.571  0.1992 -0.2955 -0.0667
  179MOL0     C24053   4.153   2.414   4.530  0.0755  1.0624  0.2785
  179MOL0     O24054   4.200   2.486   4.646 -0.2942  0.4477  0.4956
  179MOL0     C24055   4.226   2.621   4.643  0.5369  0.3305 -0.5740
  179MOL0     C24056   4.156   2.705   4.554 -0.1701 -0.2977 -0.5766
  179MOL0     C24057   4.186   2.840   4.540 -0.7625 -0.7951  0.5659
  179MOL0     C24058   4.110   2.913   4.435  0.7602  0.4534 -0.0858
  179MOL0     C24059   4.277   2.897   4.639  0.2158  0.5736 -0.0461
  179MOL0     C24060   4.316   3.040   4.647  0.1130 -0.1278  0.3517
  179MOL0     O24061   4.424   3.074   4.717 -0.2676  0.2006 -0.2698
  179MOL0     C24062   4.431   3.201   4.772 -0.0988  0.0069  0.3989
  179MOL0     C24063   4.353   3.245   4.882 -0.7057 -0.6272  0.7390
  179MOL0     C24064   4.367   3.386   4.919 -0.2100  0.9505  0.4351
  179MOL0     C24065   4.457   3.469   4.852 -0.1874  0.1018 -0.8966
  179MOL0     O24066   4.468   3.596   4.902 -0.4155  0.2896  0.1615
  179MOL0     C24067   4.571   3.695   4.851  0.2133 -0.7356 -0.2578
  179MOL0     C24068   4.655   3.728   4.967  0.8045 -0.1362 -0.3534
  179MOL0     C24069   4.760   3.620   5.014  0.4238  0.0671  0.0526
  179MOL0     C24070   4.841   3.665   5.136 -0.4028 -1.5269 -0.1123
  179MOL0     C24071   4.964   3.760   5.101  0.1923 -0.1763 -0.3102
  179MOL0     C24072   5.052   3.816   5.215 -0.0402 -0.0282 -1.2853
  179MOL0     C24073   5.001   3.940   5.293 -0.2286  0.7352  0.1214
  179MOL0     C24074   5.024   4.057   5.187 -0.1113 -1.2402  0.9663
  179MOL0    Cl24075   4.975   4.217   5.261 -0.3003  0.6334 -0.0604
  179MOL0     C24076   4.540   3.419   4.754  0.0452  0.2217  0.5480
  179MOL0     C24077   4.524   3.285   4.711  0.3917 -0.3227  0.4130
  179MOL0     O24078   4.257   3.130   4.578  0.9238  0.0902 -0.2469
  179MOL0     C24079   4.338   2.813   4.730  0.2626  0.7420 -0.7042
  179MOL0     C24080   4.318   2.670   4.731 -0.3387  0.2290 -0.2173
  179MOL0     N24081   3.604   2.152   4.447  0.4316  0.4804 -0.8518
  179MOL0     N24082   3.545   2.097   4.351 -0.0809 -0.4259 -0.0448
  179MOL0     C24083   2.740   2.064   3.863 -0.3325 -0.6240  0.2281
  179MOL0     C24084   2.645   2.166   3.878  0.4159 -0.8327 -0.8192
  179MOL0     C24085   2.424   2.547   3.869  0.3228 -0.0922 -0.3053
  179MOL0     C24086   2.346   2.612   3.972  0.2133  0.3707 -0.2291
  179MOL0     C24087   2.260   2.709   3.938  0.2950  0.2797 -0.7754
  179MOL0     C24088   2.254   2.745   3.804  0.3084 -1.1672  0.3696
  179MOL0     O24089   2.169   2.849   3.764  0.3241 -0.3506  0.1798
  179MOL0     C24090   2.062   2.802   3.672  1.2464 -0.2817 -0.3844
  179MOL0     C24091   1.935   2.831   3.759 -0.4451 -0.4395  0.4968
  179MOL0     C24092   1.933   2.974   3.825 -0.0821 -0.6898 -0.6192
  179MOL0     C24093   1.790   3.010   3.862  0.6937 -0.6234  0.8995
  179MOL0     C24094   1.757   2.927   3.978 -1.1070 -0.2154 -0.6240
  179MOL0     C24095   1.733   2.864   4.083  0.0230 -0.3391  0.6047
  179MOL0     C24096   2.331   2.685   3.699  0.2396 -0.0730  0.1586
  179MOL0     C24097   2.424   2.587   3.735  0.4565 -0.3201  1.0440
  179MOL0     H24098   2.802   2.406   3.697 -0.8787  0.2401 -0.2046
  179MOL0     H24099   2.986   2.230   3.695  1.4513 -4.0869  1.7049
  179MOL0     H24100   2.998   2.014   3.986 -0.2300  1.6704 -2.9578
  179MOL0     H24101   2.920   1.857   3.944  0.4279 -0.7106 -0.8720
  179MOL0     H24102   3.148   1.830   3.998  2.6529 -0.8963 -1.1476
  179MOL0     H24103   3.111   1.771   3.830  2.1659  0.3647 -2.2677
  179MOL0     H24104   3.255   1.942   3.754  2.0987  0.5106  0.7055
  179MOL0     H24105   3.194   2.069   3.863  0.3874 -0.3123 -0.1862
  179MOL0     H24106   3.353   2.007   4.028  2.4496 -0.7090  0.8502
  179MOL0     H24107   3.371   1.853   3.972 -1.8250 -0.2767 -0.8252
  179MOL0     H24108   3.469   2.009   3.752 -1.7605 -1.6084  0.5663
  179MOL0     H24109   3.477   2.123   3.880 -0.9785  0.1152  0.8615
  179MOL0     H24110   3.604   1.855   3.926 -2.2376 -0.7866 -1.6029
  179MOL0     H24111   3.681   1.985   3.820  1.0137  0.5346  0.8108
  179MOL0     H24112   3.773   2.016   4.019  0.0452 -2.4017 -1.8053
  179MOL0     H24113   3.627   2.133   4.037 -0.9540 -0.2902 -0.7675
  179MOL0     H24114   3.652   1.866   4.147 -1.1608 -0.3740 -2.4976
  179MOL0     H24115   3.500   1.961   4.137  0.2634  2.4032 -2.2162
  179MOL0     H24116   3.859   2.015   4.301 -0.0287 -2.3484  1.9706
  179MOL0     H24117   3.794   2.231   4.617  1.9424 -0.2690  0.6255
  179MOL0     H24118   3.899   2.097   4.599 -0.6541  0.4835  0.6187
  179MOL0     H24119   3.937   2.309   4.380 -1.7017  2.3518  0.9350
  179MOL0     H24120   4.040   2.174   4.444 -1.2889 -0.6095 -0.0644
  179MOL0     H24121   4.038   2.295   4.665 -0.0265 -0.9537 -0.4091
  179MOL0     H24122   3.938   2.420   4.581 -0.5666 -0.8469 -2.1122
  179MOL0     H24123   4.146   2.478   4.441 -1.4571  2.7772  1.5498
  179MOL0     H24124   4.224   2.336   4.504 -1.8334 -1.6818  2.6926
  179MOL0     H24125   4.080   2.665   4.488 -0.6313 -2.9040  1.3615
  179MOL0     H24126   4.040   2.988   4.473  1.1768  0.9466 -0.2714
  179MOL0     H24127   4.181   2.955   4.363  1.4401 -2.5692 -1.3099
  179MOL0     H24128   4.040   2.847   4.383 -2.2498  2.0909  1.6230
  179MOL0     H24129   4.295   3.172   4.939  3.4412 -2.8378  2.6480
  179MOL0     H24130   4.313   3.412   5.010  0.8982 -2.3680  2.2436
  179MOL0     H24131   4.641   3.662   4.774  0.5478  2.1865 -1.3252
  179MOL0     H24132   4.546   3.789   4.801  0.3824  0.1897  1.3128
  179MOL0     H24133   4.712   3.818   4.943  0.1472  0.4088  0.1031
  179MOL0     H24134   4.585   3.753   5.046  0.2994 -1.2884 -0.4172
  179MOL0     H24135   4.831   3.616   4.930  0.5940 -2.0790  0.2551
  179MOL0     H24136   4.713   3.526   5.041 -0.4268 -0.4211 -2.7902
  179MOL0     H24137   4.767   3.721   5.195  0.4731 -1.7785  1.2852
  179MOL0     H24138   4.879   3.571   5.177 -0.5204 -1.4838  0.0998
  179MOL0     H24139   4.921   3.838   5.038 -0.0092  3.6554  4.0177
  179MOL0     H24140   5.036   3.714   5.032  3.3759  2.2961  1.0731
  179MOL0     H24141   5.061   3.728   5.279  1.3381  0.6256 -0.5116
  179MOL0     H24142   5.151   3.850   5.182  1.2555 -2.1482  0.1681
  179MOL0     H24143   5.045   3.950   5.392 -0.7557 -3.7738  1.0186
  179MOL0     H24144   4.893   3.935   5.311  0.2520  1.8069  4.4475
  179MOL0     H24145   4.955   4.041   5.103 -0.6488  1.2036  0.8777
  179MOL0     H24146   5.125   4.061   5.147 -0.4377  2.9561  0.1576
  179MOL0     H24147   4.615   3.478   4.703  0.0782 -0.0820  0.2388
  179MOL0     H24148   4.602   3.252   4.643  1.8056 -0.5529  2.0727
  179MOL0     H24149   4.398   2.855   4.810  2.5259 -1.6439 -1.0070
  179MOL0     H24150   4.352   2.618   4.820 -2.3724  0.3672  0.7024
  179MOL0     H24151   2.720   1.973   3.919 -0.6001  0.9042  2.8059
  179MOL0     H24152   2.554   2.160   3.937 -2.0575  1.2168 -4.0968
  179MOL0     H24153   2.354   2.578   4.075 -0.2483  1.4898  0.1837
  179MOL0     H24154   2.198   2.765   4.007  0.0968  0.1981 -0.8861
  179MOL0     H24155   2.062   2.850   3.574  0.7966 -2.1281 -1.3353
  179MOL0     H24156   2.063   2.694   3.657 -4.1611 -0.6726 -0.0405
  179MOL0     H24157   1.935   2.754   3.837  1.2238 -0.8343  0.1630
  179MOL0     H24158   1.848   2.809   3.696 -0.4011 -2.2440  0.9871
  179MOL0     H24159   1.980   3.047   3.758 -1.2208  0.9509  0.3059
  179MOL0     H24160   1.987   2.974   3.920  0.5687  4.3853 -0.7156
  179MOL0     H24161   1.722   2.989   3.779  1.2144 -0.9835  0.5627
  179MOL0     H24162   1.784   3.116   3.891  0.6244 -0.5100  0.4746
  179MOL0     H24163   1.718   2.810   4.174 -0.6033  1.6463  1.7360
  179MOL0     H24164   2.326   2.719   3.596 -0.1084 -1.9412 -0.4859
  179MOL0     H24165   2.504   2.571   3.664  1.7361  0.5306  2.2559
  180MOL0     O24166   0.274  10.167   4.201  0.1827  0.5263 -0.1334
  180MOL0     C24167   0.163  10.133   4.164 -0.5454  0.3920  0.7112
  180MOL0     O24168   0.136  10.099   4.031 -0.6579 -0.3530 -0.5227
  180MOL0     C24169   0.207  10.160   3.931  0.0378 -0.5560  0.2983
  180MOL0     C24170   0.275  10.279   3.931  0.4635  0.1252  1.0015
  180MOL0     C24171   0.358  10.325   3.826  0.3000  1.2239 -0.0493
  180MOL0     C24172   0.350  10.245   3.708 -0.4918 -0.0686 -0.1230
  180MOL0     O24173   0.437  10.281   3.601  0.2636 -0.0661  0.2831
  180MOL0     C24174   0.582  10.272   3.620  0.8193  0.1301  0.2676
  180MOL0     C24175   0.645  10.361   3.510 -0.6989  0.1305  0.4753
  180MOL0     C24176   0.652  10.514   3.548  0.0047 -0.3221  0.2027
  180MOL0     C24177   0.789  10.577   3.572 -0.7488  0.8393 -0.1652
  180MOL0     C24178   0.779  10.727   3.611  0.4040 -0.2799 -0.9494
  180MOL0     C24179   0.762  10.827   3.496 -0.8745  0.3731 -0.3873
  180MOL0     C24180   0.767  10.972   3.551  0.2753  0.4119  0.1501
  180MOL0     C24181   0.729  11.065   3.430  1.5111  0.7245  0.0959
  180MOL0     N24182   0.779  11.200   3.456 -0.7947  0.1139  0.1262
  180MOL0     C24183   0.757  11.273   3.572 -0.3647 -0.0219  1.1082
  180MOL0     C24184   0.804  11.400   3.536 -0.1098  0.8934 -0.1172
  180MOL0     C24185   0.820  11.520   3.623  0.5001  0.2457 -0.2283
  180MOL0     C24186   0.687  11.565   3.677  0.0812  0.4401 -0.3971
  180MOL0     C24187   0.734  11.662   3.796 -0.3433 -0.1555 -0.2429
  180MOL0     C24188   0.623  11.660   3.899 -0.7138  0.0386  0.4779
  180MOL0     O24189   0.500  11.712   3.844 -0.3773 -0.1818  0.0490
  180MOL0     C24190   0.369  11.703   3.890 -0.1669  0.8393  0.3227
  180MOL0     C24191   0.262  11.758   3.824  0.3033 -0.0375 -0.2822
  180MOL0     C24192   0.125  11.720   3.845 -0.2602 -0.3950 -0.7695
  180MOL0     C24193   0.036  11.758   3.732  0.4838 -0.0576  1.5572
  180MOL0     C24194   0.093  11.636   3.959 -0.2440  0.6568  0.3322
  180MOL0     C24195  -0.040  11.584   3.980  0.3788  0.7612  0.3758
  180MOL0     O24196  -0.142  11.661   3.940 -0.4759  0.0938 -0.0782
  180MOL0     C24197  -0.272  11.627   4.003  0.3301 -0.0674  0.1809
  180MOL0     C24198  -0.349  11.716   4.080  0.8692  0.2010 -0.5450
  180MOL0     C24199  -0.482  11.678   4.115  0.7165  0.4364  0.7160
  180MOL0     C24200  -0.530  11.551   4.101 -0.7109 -0.6109 -0.7300
  180MOL0     O24201  -0.651  11.517   4.161  0.1311  0.0820  0.1131
  180MOL0     C24202  -0.673  11.385   4.192 -0.0763  0.7243  0.3754
  180MOL0     C24203  -0.795  11.371   4.284  0.0970 -0.2355  0.0689
  180MOL0     C24204  -0.756  11.383   4.431  0.3968 -0.0811  0.6658
  180MOL0     C24205  -0.893  11.364   4.504  0.9562 -0.2945 -0.0155
  180MOL0     C24206  -0.884  11.407   4.654 -0.5010 -0.3199 -0.6217
  180MOL0     C24207  -0.993  11.334   4.742  0.4832  2.1159 -0.0743
  180MOL0     C24208  -0.948  11.354   4.894  0.4518  0.5247  0.3537
  180MOL0     C24209  -1.064  11.310   4.982 -0.0211  1.2401  1.5865
  180MOL0    Cl24210  -1.204  11.388   4.943  0.6650  0.1003  0.1795
  180MOL0     C24211  -0.451  11.461   4.029  0.4418 -0.5630  0.4315
  180MOL0     C24212  -0.322  11.496   3.980  0.2178  0.4301  0.7519
  180MOL0     O24213  -0.053  11.467   4.037 -0.0065  0.5907  0.1747
  180MOL0     C24214   0.202  11.596   4.039 -0.1152  0.8065 -0.3003
  180MOL0     C24215   0.336  11.624   4.006  0.5161  0.0745 -0.2700
  180MOL0     N24216   0.835  11.403   3.406  0.0688  0.3804 -0.7923
  180MOL0     N24217   0.816  11.289   3.353  0.5421  0.3161  0.2807
  180MOL0     C24218   0.270  10.137   3.703  0.0237 -0.1933  0.7099
  180MOL0     C24219   0.203  10.078   3.811 -0.3114 -0.2235 -0.4067
  180MOL0     C24220   0.038  10.132   4.249  1.2995  0.2094 -0.4723
  180MOL0     C24221   0.034  10.200   4.368 -1.0023  0.2272 -1.1238
  180MOL0     C24222  -0.093  10.223   4.435  0.0658  0.1147  1.5394
  180MOL0     C24223  -0.217  10.178   4.387 -0.1440  1.2401 -0.3324
  180MOL0     O24224  -0.329  10.220   4.455  0.0152 -0.6603 -0.0842
  180MOL0     C24225  -0.449  10.232   4.382 -0.1888  0.4504  0.0455
  180MOL0     C24226  -0.433  10.353   4.296  1.4244  0.0293  0.3443
  180MOL0     C24227  -0.577  10.409   4.251  0.7867  0.7357 -0.4081
  180MOL0     C24228  -0.575  10.508   4.130  0.2240  0.8840 -0.1950
  180MOL0     C24229  -0.722  10.527   4.090 -0.5307  0.0988 -0.1662
  180MOL0     C24230  -0.842  10.531   4.068 -0.3710  0.4190 -0.0693
  180MOL0     C24231  -0.213  10.105   4.262  0.0491 -0.7029  0.3375
  180MOL0     C24232  -0.087  10.085   4.191 -0.0810  0.6203 -0.8768
  180MOL0     H24233   0.255  10.338   4.021 -1.1576 -2.0333  2.1376
  180MOL0     H24234   0.412  10.419   3.828 -2.4825  2.9724 -0.5143
  180MOL0     H24235   0.612  10.309   3.718  0.0027  4.4079 -0.9028
  180MOL0     H24236   0.616  10.170   3.598  1.6602  1.1362 -4.2949
  180MOL0     H24237   0.749  10.336   3.488 -0.7013 -0.5481  1.2049
  180MOL0     H24238   0.599  10.355   3.411  1.5148 -0.5472 -0.5731
  180MOL0     H24239   0.596  10.568   3.472  0.6881 -0.6521 -0.5509
  180MOL0     H24240   0.595  10.520   3.642 -1.0409 -1.0394 -0.3702
  180MOL0     H24241   0.843  10.525   3.652 -0.7905  2.0865  0.6949
  180MOL0     H24242   0.845  10.570   3.479  2.5152 -1.6929  1.7597
  180MOL0     H24243   0.693  10.739   3.677  0.9935 -1.7026  0.1188
  180MOL0     H24244   0.868  10.754   3.668 -2.7912  2.0835  3.5966
  180MOL0     H24245   0.853  10.810   3.439  0.3977  3.4448  0.5387
  180MOL0     H24246   0.671  10.797   3.443 -1.0055 -1.0178  0.5903
  180MOL0     H24247   0.703  10.989   3.638  0.3270  2.6128 -0.1856
  180MOL0     H24248   0.873  10.996   3.564  0.1031  1.0800  0.3738
  180MOL0     H24249   0.621  11.067   3.411  1.2619  0.7842  1.4157
  180MOL0     H24250   0.775  11.020   3.341  0.5982  1.9058 -1.0311
  180MOL0     H24251   0.738  11.230   3.670 -0.2613 -2.1835  0.2504
  180MOL0     H24252   0.885  11.491   3.706 -0.4812 -0.6460  0.2499
  180MOL0     H24253   0.878  11.603   3.581  0.0654  0.2683 -0.7963
  180MOL0     H24254   0.621  11.485   3.713 -5.3697  3.9549 -1.3125
  180MOL0     H24255   0.627  11.617   3.601 -1.8629  0.5199  1.1127
  180MOL0     H24256   0.759  11.758   3.751 -0.6447 -0.7976 -1.8626
  180MOL0     H24257   0.827  11.634   3.847 -0.1334 -1.5526 -1.3237
  180MOL0     H24258   0.659  11.720   3.984  2.7974 -0.6753 -0.3479
  180MOL0     H24259   0.602  11.566   3.951  2.7630 -1.2978 -0.2275
  180MOL0     H24260   0.284  11.814   3.733  0.4349 -1.3267 -1.0601
  180MOL0     H24261  -0.008  11.662   3.703  1.1717  0.0897 -0.1050
  180MOL0     H24262  -0.041  11.826   3.767 -0.3318  0.1110 -0.4103
  180MOL0     H24263   0.084  11.794   3.640 -0.7869 -2.8350 -0.3382
  180MOL0     H24264  -0.317  11.816   4.108  0.1583  0.1378  0.5534
  180MOL0     H24265  -0.551  11.743   4.167 -1.0723 -1.7295  1.1952
  180MOL0     H24266  -0.707  11.335   4.100 -3.3210  2.0677  0.6968
  180MOL0     H24267  -0.586  11.339   4.239  0.7375  0.4435 -1.3269
  180MOL0     H24268  -0.864  11.454   4.265 -1.4490 -1.5802 -0.5037
  180MOL0     H24269  -0.855  11.288   4.247  1.4261 -1.6329  0.9330
  180MOL0     H24270  -0.719  11.484   4.455 -0.8292  0.4215  0.4946
  180MOL0     H24271  -0.691  11.304   4.470 -3.1177 -3.1154  0.9119
  180MOL0     H24272  -0.963  11.420   4.441  0.8512 -1.5139 -1.0171
  180MOL0     H24273  -0.940  11.265   4.504  3.5185 -1.6038  0.4189
  180MOL0     H24274  -0.905  11.514   4.667 -2.2717 -0.5477 -1.4013
  180MOL0     H24275  -0.790  11.374   4.699 -1.6826 -4.3854 -0.7955
  180MOL0     H24276  -1.094  11.363   4.711  0.7988 -0.3055 -3.9199
  180MOL0     H24277  -0.976  11.231   4.712  1.9548  1.9954  1.0447
  180MOL0     H24278  -0.936  11.459   4.923  0.0431  0.7016 -0.1058
  180MOL0     H24279  -0.855  11.301   4.912  1.2974  1.9323  0.2634
  180MOL0     H24280  -1.036  11.323   5.088  1.5672  0.3109  1.3161
  180MOL0     H24281  -1.093  11.206   4.964  2.1269  1.0258 -1.2341
  180MOL0     H24282  -0.493  11.363   4.009 -0.7828  0.5962 -3.4851
  180MOL0     H24283  -0.270  11.421   3.923  0.3565 -0.5230  2.0818
  180MOL0     H24284   0.184  11.523   4.117  0.4149 -1.1259 -1.8941
  180MOL0     H24285   0.420  11.606   4.073  0.5473  1.7557  0.1695
  180MOL0     H24286   0.272  10.091   3.605  4.9528  1.8975 -0.4960
  180MOL0     H24287   0.149   9.985   3.816 -1.1889  0.3358  1.1655
  180MOL0     H24288   0.131  10.237   4.398 -0.7409  0.2826 -1.9941
  180MOL0     H24289  -0.090  10.284   4.525  1.7356  0.7382  1.1015
  180MOL0     H24290  -0.479  10.147   4.321 -0.2293  0.5829 -0.1199
  180MOL0     H24291  -0.535  10.248   4.448 -0.5177 -0.6928 -0.0894
  180MOL0     H24292  -0.376  10.333   4.205 -2.7996 -1.4964 -2.2724
  180MOL0     H24293  -0.380  10.434   4.348 -0.4810  0.2826  2.0240
  180MOL0     H24294  -0.634  10.448   4.336  3.0069  0.7112  1.1842
  180MOL0     H24295  -0.639  10.320   4.232 -1.8312  1.4651  3.3758
  180MOL0     H24296  -0.514  10.454   4.057  1.5443 -2.2011  2.9092
  180MOL0     H24297  -0.542  10.608   4.157  1.5262  0.7650 -1.2475
  180MOL0     H24298  -0.945  10.541   4.038 -1.1614 -1.5299  1.7337
  180MOL0     H24299  -0.306  10.082   4.211  0.2060 -0.9401  0.1539
  180MOL0     H24300  -0.092  10.051   4.088 -3.6038  1.6897 -1.1922
  181MOL0     O24301   9.969  10.801   3.217 -0.0133 -0.0222 -0.2856
  181MOL0     C24302   9.981  10.872   3.118  0.3353  0.4209 -0.3545
  181MOL0     O24303  10.094  10.930   3.081 -0.3905  0.7008  0.1252
  181MOL0     C24304  10.213  10.896   3.139  0.4721  0.7515 -0.1167
  181MOL0     C24305  10.294  10.982   3.205  0.5674 -0.7379  0.2855
  181MOL0     C24306  10.420  10.949   3.257  0.1913 -0.7148 -0.4343
  181MOL0     C24307  10.461  10.817   3.250 -0.4343 -0.3305 -0.7122
  181MOL0     O24308  10.583  10.811   3.306 -0.2115  0.1820  0.0509
  181MOL0     C24309  10.659  10.694   3.286 -0.9458 -0.0138  0.4045
  181MOL0     C24310  10.599  10.569   3.354 -0.2479 -1.0137 -1.3577
  181MOL0     C24311  10.708  10.465   3.386  0.8915 -1.0315  0.7369
  181MOL0     C24312  10.646  10.335   3.458 -1.0048  0.3256  0.0232
  181MOL0     C24313  10.749  10.233   3.506  0.0498 -0.2656 -0.8580
  181MOL0     C24314  10.831  10.308   3.617  0.0813 -0.4944  0.0653
  181MOL0     C24315  10.877  10.208   3.720 -0.5716 -0.3667 -0.1945
  181MOL0     C24316  10.928  10.283   3.841  0.6091 -0.7558 -1.7903
  181MOL0     N24317  10.949  10.194   3.960  0.1650 -0.2624 -0.0434
  181MOL0     C24318  10.848  10.125   4.024 -0.0478  0.3431 -0.3295
  181MOL0     C24319  10.906  10.026   4.093 -0.8570  0.1701  0.6663
  181MOL0     C24320  10.821   9.941   4.173 -0.6852  0.6207  0.0959
  181MOL0     C24321  10.869   9.791   4.182  0.8864 -0.2725 -0.3177
  181MOL0     C24322  10.994   9.779   4.275 -0.1269  0.0782 -0.1094
  181MOL0     C24323  10.974   9.797   4.420  0.2656 -0.7839 -0.4396
  181MOL0     O24324  11.102   9.776   4.486  0.6962 -0.0285  0.3189
  181MOL0     C24325  11.112   9.821   4.610 -0.7810  0.5466 -0.3851
  181MOL0     C24326  11.193   9.936   4.631 -0.6875 -0.1573 -0.2605
  181MOL0     C24327  11.221   9.974   4.761 -0.5809  1.0037 -0.3549
  181MOL0     C24328  11.335  10.078   4.773 -0.2771 -1.0177 -0.6843
  181MOL0     C24329  11.153   9.912   4.873  0.2826  0.1975 -0.2634
  181MOL0     C24330  11.171   9.940   5.019  0.3806  0.8236 -0.5377
  181MOL0     O24331  11.079   9.883   5.098  0.1142  0.5163 -0.7273
  181MOL0     C24332  11.116   9.853   5.229 -1.5191  0.0956  1.1328
  181MOL0     C24333  11.252   9.814   5.258  0.5706 -0.7258  0.5277
  181MOL0     C24334  11.290   9.807   5.395  0.0961  0.8022  0.2973
  181MOL0     C24335  11.199   9.835   5.504 -0.1097 -0.0345  0.6283
  181MOL0     O24336  11.238   9.831   5.635 -0.8688  0.2130 -0.4107
  181MOL0     C24337  11.137   9.802   5.735  0.0484 -0.0176 -0.0373
  181MOL0     C24338  11.205   9.751   5.863  0.0135 -0.2816 -0.3340
  181MOL0     C24339  11.099   9.701   5.958  0.8770 -0.7814 -0.5271
  181MOL0     C24340  11.126   9.666   6.105  0.9250 -0.0753 -0.5872
  181MOL0     C24341  11.246   9.578   6.143  0.1561 -0.0782 -0.2290
  181MOL0     C24342  11.236   9.499   6.283  0.6819 -1.0568  0.0555
  181MOL0     C24343  11.372   9.431   6.324  0.8909 -0.5473  0.0013
  181MOL0     C24344  11.358   9.349   6.440 -0.3127 -0.2169  0.3326
  181MOL0    Cl24345  11.524   9.290   6.490 -0.5542  0.4148 -0.0361
  181MOL0     C24346  11.070   9.877   5.467 -0.1350 -0.4193 -0.5885
  181MOL0     C24347  11.029   9.891   5.335  0.6806 -0.2310 -0.4997
  181MOL0     O24348  11.265  10.014   5.057  0.2316 -0.5759 -0.6881
  181MOL0     C24349  11.067   9.802   4.848  0.3990  0.0820 -0.5342
  181MOL0     C24350  11.049   9.758   4.714 -0.3162 -0.0418 -0.6625
  181MOL0     N24351  11.039  10.035   4.065 -0.3876  0.0217  0.0481
  181MOL0     N24352  11.069  10.133   3.990 -0.1223 -0.2013  0.2966
  181MOL0     C24353  10.387  10.726   3.169 -0.0649  0.3520  0.2092
  181MOL0     C24354  10.266  10.764   3.114 -0.3111 -0.5732  0.5888
  181MOL0     C24355   9.862  10.906   3.036 -0.1445 -0.3064  0.0308
  181MOL0     C24356   9.873  10.970   2.913  0.2795  0.7509  0.1024
  181MOL0     C24357   9.765  11.034   2.850  0.0276 -0.5049  0.0387
  181MOL0     C24358   9.645  11.038   2.913  0.1545 -1.2418 -0.6327
  181MOL0     O24359   9.534  11.099   2.853 -0.7043  0.0612  0.3334
  181MOL0     C24360   9.395  11.112   2.885  0.2309  0.2084  0.3316
  181MOL0     C24361   9.323  10.977   2.868 -1.3740 -1.2776  1.2457
  181MOL0     C24362   9.371  10.899   2.744 -0.4360 -0.4234 -0.3054
  181MOL0     C24363   9.299  10.762   2.734 -0.0882 -0.3883  0.1326
  181MOL0     C24364   9.163  10.774   2.672 -0.7809  1.4571  0.1501
  181MOL0     C24365   9.040  10.766   2.637 -0.0782  0.6156  0.3797
  181MOL0     C24366   9.633  10.965   3.029 -0.3880  0.2324 -0.9620
  181MOL0     C24367   9.742  10.905   3.095 -0.2418 -0.9731  0.9928
  181MOL0     H24368  10.267  11.084   3.231  0.1009 -1.5622  3.4427
  181MOL0     H24369  10.473  11.026   3.313 -0.8717 -0.5179  0.3403
  181MOL0     H24370  10.701  10.667   3.189  4.6987 -1.5839  2.8816
  181MOL0     H24371  10.747  10.721   3.344 -0.3781  0.1238 -0.4961
  181MOL0     H24372  10.549  10.602   3.446  0.8647 -4.2084  0.5893
  181MOL0     H24373  10.520  10.524   3.294 -2.0324 -0.1794  0.2759
  181MOL0     H24374  10.754  10.429   3.294  0.2295  2.1818 -0.9789
  181MOL0     H24375  10.788  10.516   3.441 -0.5926  0.6824  1.4108
  181MOL0     H24376  10.585  10.369   3.543  1.8734  0.7201  2.0591
  181MOL0     H24377  10.577  10.283   3.391 -0.8756  1.2494 -0.8506
  181MOL0     H24378  10.691  10.155   3.556  0.8574  0.1742  0.8474
  181MOL0     H24379  10.819  10.204   3.427  2.6785 -2.8685  2.0977
  181MOL0     H24380  10.911  10.361   3.565  1.0079 -2.6470 -0.7971
  181MOL0     H24381  10.773  10.383   3.671  1.3430  0.4717  0.1203
  181MOL0     H24382  10.794  10.148   3.757  0.3179 -0.5648  1.5706
  181MOL0     H24383  10.945  10.139   3.668  0.6151 -0.6099  1.5757
  181MOL0     H24384  10.865  10.370   3.861  1.0692 -0.6111 -0.9405
  181MOL0     H24385  11.028  10.320   3.815  0.3118 -1.0172 -3.4226
  181MOL0     H24386  10.742  10.152   4.023 -0.4051 -0.8038 -3.3854
  181MOL0     H24387  10.818   9.989   4.271  1.2290 -1.1673  1.1338
  181MOL0     H24388  10.717   9.942   4.141 -0.8855  0.5403  0.7312
  181MOL0     H24389  10.903   9.762   4.082 -1.6053 -1.7817 -0.8114
  181MOL0     H24390  10.794   9.718   4.212  0.4381 -0.5056 -1.9444
  181MOL0     H24391  11.071   9.854   4.251 -0.7152  0.5478 -0.5867
  181MOL0     H24392  11.035   9.678   4.267  3.9714  1.6700 -2.0736
  181MOL0     H24393  10.885   9.740   4.449 -1.8492  1.5973 -1.8241
  181MOL0     H24394  10.947   9.901   4.439  2.1229 -0.5801  1.4108
  181MOL0     H24395  11.236   9.983   4.543  2.2246 -1.9534  0.0698
  181MOL0     H24396  11.326  10.137   4.864 -1.0095 -0.5599 -1.0470
  181MOL0     H24397  11.438  10.039   4.767  1.3833  2.6762  0.8551
  181MOL0     H24398  11.310  10.138   4.685 -4.3386 -4.1452 -1.9514
  181MOL0     H24399  11.322   9.775   5.185  0.6908 -1.4205  1.0008
  181MOL0     H24400  11.386   9.760   5.412 -0.9722 -2.4211 -1.5127
  181MOL0     H24401  11.076   9.888   5.764 -0.0961 -1.0425  3.1430
  181MOL0     H24402  11.067   9.729   5.694 -1.6409  1.4513  0.1070
  181MOL0     H24403  11.290   9.686   5.839  2.5416  2.4066  0.7631
  181MOL0     H24404  11.247   9.835   5.918 -1.5160 -0.0242  0.4937
  181MOL0     H24405  11.072   9.607   5.909  1.7475 -0.1806 -2.2513
  181MOL0     H24406  11.008   9.761   5.948  0.7322 -1.1002 -1.1699
  181MOL0     H24407  11.138   9.756   6.167 -0.8379  1.2365 -2.0362
  181MOL0     H24408  11.034   9.621   6.144 -0.8468  3.8906  0.3805
  181MOL0     H24409  11.332   9.641   6.118  0.0435 -0.4997 -1.8114
  181MOL0     H24410  11.259   9.500   6.068  0.5988 -1.0241  0.8129
  181MOL0     H24411  11.205   9.576   6.354 -1.0828 -0.3136 -1.4435
  181MOL0     H24412  11.149   9.432   6.277 -1.3793  1.5653 -2.8744
  181MOL0     H24413  11.454   9.503   6.330  2.1152 -1.7369 -1.4201
  181MOL0     H24414  11.386   9.374   6.232  1.2278  1.3351 -1.1611
  181MOL0     H24415  11.289   9.267   6.421  0.9553 -1.1347 -0.4592
  181MOL0     H24416  11.321   9.413   6.521  0.6898  1.3696 -0.4199
  181MOL0     H24417  10.995   9.911   5.539  0.5287 -3.3030  1.6579
  181MOL0     H24418  10.940   9.947   5.309  1.4543  2.7045  2.4688
  181MOL0     H24419  11.004   9.751   4.921 -0.6056  0.8585 -0.8411
  181MOL0     H24420  10.993   9.665   4.707  1.0650 -1.3336  3.1388
  181MOL0     H24421  10.435  10.634   3.136  0.9280  1.3690 -1.2672
  181MOL0     H24422  10.204  10.696   3.055  0.0476  0.8279 -1.5298
  181MOL0     H24423   9.974  10.985   2.877  1.9449 -2.1473  2.9627
  181MOL0     H24424   9.782  11.086   2.756  0.1135  0.0121  0.3321
  181MOL0     H24425   9.371  11.149   2.985 -1.0836 -0.3763  0.2587
  181MOL0     H24426   9.359  11.184   2.810 -2.3611 -0.1288  1.1477
  181MOL0     H24427   9.215  10.990   2.869 -1.1189  2.2621  4.4837
  181MOL0     H24428   9.347  10.923   2.960 -0.8563  1.8242  3.0492
  181MOL0     H24429   9.479  10.879   2.744 -0.1167  0.9589 -2.1844
  181MOL0     H24430   9.353  10.957   2.653 -3.9593  2.6792  2.0328
  181MOL0     H24431   9.276  10.709   2.827 -2.7669 -3.1179 -1.9077
  181MOL0     H24432   9.350  10.685   2.676  0.0440  0.5188 -0.9975
  181MOL0     H24433   8.939  10.768   2.604  0.4164 -1.3021 -1.4474
  181MOL0     H24434   9.534  10.936   3.063 -1.3065 -0.1633 -3.6753
  181MOL0     H24435   9.741  10.851   3.189 -0.9641  1.8215  2.7340
  182MOL0     O24436   6.120   6.883  10.891 -0.4982 -0.4286 -0.4563
  182MOL0     C24437   6.018   6.935  10.863  0.3085 -0.1387  0.8941
  182MOL0     O24438   5.897   6.908  10.915  0.5374  0.5122 -0.7919
  182MOL0     C24439   5.883   6.831  11.024  0.1068 -0.2205  1.5913
  182MOL0     C24440   5.843   6.899  11.146 -0.3341 -0.5611  0.5631
  182MOL0     C24441   5.810   6.817  11.255 -0.6770 -0.2296 -0.8898
  182MOL0     C24442   5.828   6.681  11.260 -0.5729  0.7442  0.0589
  182MOL0     O24443   5.792   6.615  11.372 -0.0870 -0.5743 -0.2737
  182MOL0     C24444   5.702   6.503  11.361  0.5615  0.2000  0.0300
  182MOL0     C24445   5.552   6.537  11.324 -0.1244 -0.5477 -0.4550
  182MOL0     C24446   5.494   6.636  11.422  1.2176 -0.3391  0.6604
  182MOL0     C24447   5.358   6.685  11.376 -0.2143 -0.5715 -0.3538
  182MOL0     C24448   5.305   6.799  11.458 -0.1473 -0.9194  0.0182
  182MOL0     C24449   5.262   6.750  11.596  0.4404 -0.4499  0.0338
  182MOL0     C24450   5.173   6.857  11.663 -0.1862  0.5573 -0.5270
  182MOL0     C24451   5.110   6.812  11.798  0.3867 -0.6712  0.3388
  182MOL0     N24452   5.226   6.817  11.888  0.3119 -0.5705  0.5285
  182MOL0     C24453   5.311   6.715  11.919  0.3193  0.1041 -0.1726
  182MOL0     C24454   5.407   6.758  12.004 -0.5412 -0.3514  0.3086
  182MOL0     C24455   5.527   6.685  12.068  0.2645 -0.2536  0.1848
  182MOL0     C24456   5.639   6.636  11.961  0.8206  0.3951 -0.5898
  182MOL0     C24457   5.739   6.747  11.945  1.0495 -0.0895 -1.1411
  182MOL0     C24458   5.831   6.713  11.838  0.1901  0.0058  0.3138
  182MOL0     O24459   5.909   6.600  11.864 -0.1928 -0.1482  0.2082
  182MOL0     C24460   5.959   6.524  11.761 -0.1321 -0.5670  0.9084
  182MOL0     C24461   5.970   6.381  11.767 -0.8725 -0.2038  0.5708
  182MOL0     C24462   6.033   6.305  11.664  1.0881  0.7358 -0.0722
  182MOL0     C24463   6.078   6.156  11.687 -0.2607 -0.0925  0.3714
  182MOL0     C24464   6.056   6.374  11.548 -0.7621 -0.7901  0.6426
  182MOL0     C24465   6.122   6.313  11.429  0.1764 -0.5619  0.1172
  182MOL0     O24466   6.223   6.369  11.348 -0.0280  0.2440 -0.7604
  182MOL0     C24467   6.273   6.290  11.245  0.3546  0.4468 -0.7698
  182MOL0     C24468   6.328   6.156  11.261  0.3711 -0.4280 -0.6861
  182MOL0     C24469   6.387   6.089  11.148 -0.7812 -0.2819  1.2931
  182MOL0     C24470   6.379   6.151  11.020 -0.2240  0.1387 -0.2502
  182MOL0     O24471   6.424   6.091  10.903 -0.3044  0.1152  0.4583
  182MOL0     C24472   6.460   5.956  10.894 -0.4311 -0.1028  0.7494
  182MOL0     C24473   6.468   5.871  10.758  0.1861  1.2753  0.5911
  182MOL0     C24474   6.325   5.838  10.715  0.2231 -0.8662 -0.7578
  182MOL0     C24475   6.331   5.731  10.603 -0.0752 -0.4422  1.1685
  182MOL0     C24476   6.195   5.662  10.563 -0.7643 -0.1913 -0.2613
  182MOL0     C24477   6.220   5.568  10.453  0.3628  0.1655  0.0179
  182MOL0     C24478   6.100   5.552  10.351  0.0312 -0.0472 -0.6131
  182MOL0     C24479   6.109   5.653  10.236  0.1736  0.0671  0.8927
  182MOL0    Cl24480   5.971   5.605  10.125  0.0203  0.3077 -0.0225
  182MOL0     C24481   6.324   6.279  11.010  0.1231 -0.3329  0.6042
  182MOL0     C24482   6.276   6.342  11.116  0.8407  0.6145 -0.8670
  182MOL0     O24483   6.077   6.202  11.403 -0.3600  0.2464 -0.0114
  182MOL0     C24484   6.047   6.512  11.543  0.3305 -0.6346  0.5933
  182MOL0     C24485   5.995   6.586  11.646 -0.4511 -0.4079 -0.1618
  182MOL0     N24486   5.389   6.887  12.022  0.0017  0.7394 -0.4055
  182MOL0     N24487   5.273   6.923  11.966 -0.3790  0.4848 -0.3643
  182MOL0     C24488   5.888   6.619  11.149  0.3507 -0.3883 -0.4824
  182MOL0     C24489   5.907   6.694  11.028  1.2306 -0.0902  0.4304
  182MOL0     C24490   6.005   7.003  10.731 -0.4734 -0.0284 -0.1434
  182MOL0     C24491   6.118   7.003  10.644  0.6505 -0.2874  1.1523
  182MOL0     C24492   6.110   7.079  10.524 -0.1447  1.0372  0.3548
  182MOL0     C24493   5.986   7.132  10.486 -0.0899 -0.1496  1.1762
  182MOL0     O24494   5.979   7.169  10.352 -0.4239 -1.1599 -0.1049
  182MOL0     C24495   5.866   7.247  10.291 -0.1581 -0.7655  0.2895
  182MOL0     C24496   5.918   7.349  10.198 -0.6772 -1.1835  0.3198
  182MOL0     C24497   5.978   7.276  10.069 -0.2631  0.1791 -0.1375
  182MOL0     C24498   6.043   7.355   9.962 -0.1872  0.6957 -0.3716
  182MOL0     C24499   5.937   7.433   9.902 -0.5061 -0.3697 -0.4412
  182MOL0     C24500   5.843   7.504   9.877  0.1336 -0.6174  0.2904
  182MOL0     C24501   5.877   7.123  10.574 -1.0379 -0.0468 -0.5300
  182MOL0     C24502   5.888   7.066  10.699 -0.7443 -0.0152 -0.1656
  182MOL0     H24503   5.838   7.007  11.142  0.1706 -0.4629  2.0748
  182MOL0     H24504   5.761   6.863  11.340 -2.9293 -2.4438 -0.8761
  182MOL0     H24505   5.752   6.442  11.285  0.8244  1.5882 -0.9487
  182MOL0     H24506   5.710   6.450  11.456 -0.5216 -2.0586 -1.0567
  182MOL0     H24507   5.546   6.575  11.222  0.1381  1.4174  0.2108
  182MOL0     H24508   5.488   6.449  11.333 -1.3402  0.2908 -0.5772
  182MOL0     H24509   5.490   6.598  11.524  3.2392 -2.0672  0.1809
  182MOL0     H24510   5.550   6.729  11.416  3.0058 -1.2493  2.1352
  182MOL0     H24511   5.365   6.716  11.271  0.3100  0.6010  0.0109
  182MOL0     H24512   5.291   6.598  11.384 -1.2540  0.3388  1.3784
  182MOL0     H24513   5.385   6.873  11.471 -1.1294 -0.3348  4.0475
  182MOL0     H24514   5.228   6.853  11.402  3.0587  0.9517 -2.9686
  182MOL0     H24515   5.194   6.665  11.584 -1.5936  1.0547  0.3974
  182MOL0     H24516   5.346   6.714  11.656 -1.6439 -1.7034  2.4123
  182MOL0     H24517   5.232   6.949  11.671  1.6462 -0.6886  0.7961
  182MOL0     H24518   5.079   6.882  11.611 -0.7741  1.1486  0.7765
  182MOL0     H24519   5.060   6.715  11.805 -2.1518  0.6415  2.7111
  182MOL0     H24520   5.032   6.884  11.824  0.3261 -0.6521  0.1142
  182MOL0     H24521   5.311   6.613  11.883 -2.3654  1.0819 -3.4384
  182MOL0     H24522   5.574   6.749  12.143  0.7829  1.6752 -1.6762
  182MOL0     H24523   5.499   6.596  12.124  1.6721  0.8937  2.9005
  182MOL0     H24524   5.593   6.606  11.867  0.9262  0.2392 -0.5911
  182MOL0     H24525   5.678   6.540  11.996 -1.3738  0.3168  1.9357
  182MOL0     H24526   5.792   6.770  12.038 -2.9863  1.3026  1.0656
  182MOL0     H24527   5.693   6.843  11.920 -0.2322  0.5674  2.9619
  182MOL0     H24528   5.900   6.798  11.833  2.5929 -1.9196 -1.9651
  182MOL0     H24529   5.774   6.710  11.745 -1.3322  2.6983  1.0607
  182MOL0     H24530   5.942   6.333  11.861  1.7046  0.1264  1.5980
  182MOL0     H24531   6.080   6.140  11.796 -1.7687  0.2666  0.4828
  182MOL0     H24532   6.010   6.084  11.639  0.8000 -0.1923 -1.0404
  182MOL0     H24533   6.176   6.141  11.642 -1.1777  3.8011 -3.5566
  182MOL0     H24534   6.337   6.111  11.360 -0.5863  1.9096  0.5284
  182MOL0     H24535   6.450   6.002  11.165 -0.0373  0.2490  1.2585
  182MOL0     H24536   6.561   5.944  10.932 -0.7058 -2.3373  0.9295
  182MOL0     H24537   6.392   5.908  10.966 -1.2850  0.8654  0.6173
  182MOL0     H24538   6.523   5.920  10.678  0.4369  3.0619  1.8128
  182MOL0     H24539   6.518   5.777  10.786 -1.7524 -0.4870 -1.4432
  182MOL0     H24540   6.281   5.929  10.673 -0.1193 -0.6457  0.0494
  182MOL0     H24541   6.256   5.806  10.794 -0.8051 -1.6784 -1.9551
  182MOL0     H24542   6.370   5.776  10.511  0.9478  0.5742  2.0664
  182MOL0     H24543   6.401   5.653  10.635  0.5290 -0.2073  0.4421
  182MOL0     H24544   6.136   5.743  10.520 -0.0353  0.2390 -0.4841
  182MOL0     H24545   6.142   5.609  10.642 -1.1532  0.6347  0.0445
  182MOL0     H24546   6.320   5.588  10.412  0.8732 -1.7578  0.2512
  182MOL0     H24547   6.230   5.473  10.505  0.8419  0.8845  1.2886
  182MOL0     H24548   6.008   5.572  10.407 -0.5804 -1.7424 -0.9710
  182MOL0     H24549   6.092   5.455  10.301  0.0003  0.4758 -1.6522
  182MOL0     H24550   6.201   5.636  10.179 -0.5523 -0.5948 -0.1217
  182MOL0     H24551   6.097   5.749  10.286 -0.0815  0.3321  0.3316
  182MOL0     H24552   6.310   6.329  10.915 -0.3835 -0.4753  0.6036
  182MOL0     H24553   6.240   6.444  11.109  1.2112  0.6215 -3.1204
  182MOL0     H24554   6.086   6.564  11.457  0.2307  1.0917  1.5461
  182MOL0     H24555   5.995   6.693  11.627 -2.2979 -0.3192  0.1334
  182MOL0     H24556   5.904   6.512  11.149  1.8526 -0.1894  0.2937
  182MOL0     H24557   5.935   6.633  10.943 -1.5797  1.3793 -1.7004
  182MOL0     H24558   6.203   6.948  10.682 -1.4736 -2.5253  3.0006
  182MOL0     H24559   6.202   7.093  10.468 -2.2139 -0.1649 -3.7314
  182MOL0     H24560   5.810   7.164  10.249 -1.9375  1.1384 -1.2993
  182MOL0     H24561   5.808   7.304  10.365  0.5237  0.3528 -0.0047
  182MOL0     H24562   5.981   7.418  10.256 -2.0613 -2.0119  2.9529
  182MOL0     H24563   5.838   7.415  10.163  0.3836  2.2012  3.5779
  182MOL0     H24564   5.895   7.213  10.035 -0.3825  0.4609 -0.3620
  182MOL0     H24565   6.058   7.208  10.100 -0.9628 -1.6176 -2.0741
  182MOL0     H24566   6.080   7.277   9.895 -2.9835 -1.3540  0.2444
  182MOL0     H24567   6.122   7.422   9.997 -0.6777 -0.1634  2.6843
  182MOL0     H24568   5.754   7.562   9.868  0.8667  0.8535  1.9678
  182MOL0     H24569   5.777   7.160  10.553 -0.3226  2.8461  0.5157
  182MOL0     H24570   5.797   7.058  10.758  1.2105  0.1523  3.0901
  183MOL0     O24571  11.315   0.019   7.437  0.1009 -0.2773  0.2746
  183MOL0     C24572  11.269  -0.065   7.511  0.9135  0.1733  0.0960
  183MOL0     O24573  11.352  -0.139   7.595  0.3522 -0.1390  0.1583
  183MOL0     C24574  11.488  -0.110   7.599 -0.5488  0.7098 -0.1594
  183MOL0     C24575  11.539  -0.009   7.675  0.6241  0.1428 -0.9279
  183MOL0     C24576  11.673   0.003   7.692 -0.9211  0.7628  0.3490
  183MOL0     C24577  11.772  -0.079   7.632  0.9648  0.2065  0.0420
  183MOL0     O24578  11.911  -0.075   7.644 -0.2949 -0.1395 -0.0702
  183MOL0     C24579  11.982   0.001   7.747 -0.4471 -0.2725  0.0660
  183MOL0     C24580  12.115   0.059   7.685 -0.2288  0.4110  0.4110
  183MOL0     C24581  12.224  -0.057   7.657 -0.1019  0.1841  0.3081
  183MOL0     C24582  12.327  -0.081   7.767 -0.3657 -0.3833 -0.1789
  183MOL0     C24583  12.443  -0.178   7.731 -0.6386  0.7740 -0.0546
  183MOL0     C24584  12.544  -0.091   7.659  0.2036 -0.6552 -0.2246
  183MOL0     C24585  12.678  -0.166   7.635 -0.5054 -0.0295 -0.5713
  183MOL0     C24586  12.782  -0.114   7.539 -0.8916  0.1916 -0.1656
  183MOL0     N24587  12.801   0.026   7.568 -0.1807 -0.3707  0.0622
  183MOL0     C24588  12.858   0.082   7.677 -0.3870 -0.5655 -0.2610
  183MOL0     C24589  12.857   0.217   7.655  0.0492  0.0575 -1.0236
  183MOL0     C24590  12.903   0.334   7.735  0.8281 -0.4579 -0.4990
  183MOL0     C24591  12.832   0.338   7.876 -0.0805 -0.3883 -1.0381
  183MOL0     C24592  12.899   0.426   7.977  0.2152  0.5132  0.8432
  183MOL0     C24593  12.818   0.439   8.107 -1.0333  0.1402 -0.0563
  183MOL0     O24594  12.736   0.552   8.120  0.3820 -0.5264  0.3659
  183MOL0     C24595  12.791   0.653   8.187 -0.6836  0.6540 -0.7325
  183MOL0     C24596  12.708   0.729   8.264 -0.5391 -1.1864  0.2608
  183MOL0     C24597  12.745   0.844   8.332 -0.2163 -1.0394  0.3439
  183MOL0     C24598  12.659   0.906   8.442 -0.0687 -0.9106 -0.0476
  183MOL0     C24599  12.881   0.882   8.321  0.0162  0.2906 -0.9922
  183MOL0     C24600  12.936   0.987   8.400 -0.6483  0.2308 -0.0721
  183MOL0     O24601  13.057   0.950   8.456 -0.9068 -0.3494 -0.3492
  183MOL0     C24602  13.129   1.038   8.534 -0.1299  0.3582 -0.5580
  183MOL0     C24603  13.270   1.053   8.504 -0.1076 -0.5867  0.7942
  183MOL0     C24604  13.338   1.137   8.594 -1.6506  0.1234 -0.5054
  183MOL0     C24605  13.282   1.197   8.706 -0.4551  0.1316 -1.2260
  183MOL0     O24606  13.361   1.265   8.793 -0.0098 -1.1039 -0.2574
  183MOL0     C24607  13.299   1.378   8.861 -1.3525  0.3132  0.4290
  183MOL0     C24608  13.379   1.513   8.837  0.2663  0.7753 -1.0248
  183MOL0     C24609  13.431   1.584   8.965 -0.2961 -0.3301 -0.1509
  183MOL0     C24610  13.538   1.507   9.037  0.2597 -0.4464 -0.5285
  183MOL0     C24611  13.562   1.576   9.178  0.1039  0.4485  0.0352
  183MOL0     C24612  13.697   1.525   9.239 -0.2174 -0.3652  0.2683
  183MOL0     C24613  13.676   1.389   9.291 -0.7548  0.7746  0.4736
  183MOL0     C24614  13.780   1.349   9.391 -0.4564  0.0275  0.3473
  183MOL0    Cl24615  13.751   1.177   9.459 -0.0549  0.0362  0.0794
  183MOL0     C24616  13.142   1.170   8.726 -0.1493 -1.2983  0.2120
  183MOL0     C24617  13.063   1.098   8.637 -0.2861  1.0361  0.0935
  183MOL0     O24618  12.889   1.098   8.380  0.0261 -0.1979  0.0098
  183MOL0     C24619  12.965   0.816   8.228  0.6559 -0.9649  0.2250
  183MOL0     C24620  12.923   0.701   8.167  0.2336 -0.1765  0.4581
  183MOL0     N24621  12.796   0.238   7.531 -0.8991 -0.5230  0.4999
  183MOL0     N24622  12.782   0.126   7.479 -0.1985  0.0886 -0.0852
  183MOL0     C24623  11.715  -0.181   7.552 -0.4580 -0.4128 -0.6170
  183MOL0     C24624  11.576  -0.202   7.541  0.7042  0.6633 -0.1142
  183MOL0     C24625  11.121  -0.110   7.515  0.2783  0.2168  0.0102
  183MOL0     C24626  11.016  -0.026   7.462 -0.0798  0.3248  0.2610
  183MOL0     C24627  10.888  -0.072   7.468  0.8025  0.1541 -0.3002
  183MOL0     C24628  10.851  -0.195   7.517 -0.1617  0.4095  0.1610
  183MOL0     O24629  10.718  -0.237   7.529  0.1115  0.8776 -0.5614
  183MOL0     C24630  10.673  -0.357   7.462  0.0401  0.1622  0.4052
  183MOL0     C24631  10.643  -0.303   7.323 -0.4211  0.4945  0.1753
  183MOL0     C24632  10.542  -0.388   7.264 -0.3243 -1.0905  0.1957
  183MOL0     C24633  10.605  -0.510   7.205  0.3387 -0.4580 -0.6867
  183MOL0     C24634  10.570  -0.541   7.070  0.4257 -0.0146 -0.4396
  183MOL0     C24635  10.541  -0.559   6.954  0.3138 -0.3048 -1.3719
  183MOL0     C24636  10.956  -0.281   7.562  0.3336  0.2168  0.0312
  183MOL0     C24637  11.089  -0.239   7.572  0.3409 -0.6480  0.2173
  183MOL0     H24638  11.465   0.058   7.717  1.6022 -0.1958  1.4923
  183MOL0     H24639  11.715   0.083   7.753  2.7102  1.3417 -2.5894
  183MOL0     H24640  11.918   0.086   7.772  0.7673  1.1550 -1.4592
  183MOL0     H24641  12.010  -0.061   7.833  2.9677 -3.1141 -2.7750
  183MOL0     H24642  12.082   0.111   7.595  0.5101 -0.5448 -0.4312
  183MOL0     H24643  12.158   0.143   7.740 -0.9772  1.5324 -0.6575
  183MOL0     H24644  12.171  -0.152   7.650 -1.0307  0.6533  0.8336
  183MOL0     H24645  12.267  -0.040   7.558 -3.0006  0.0587 -1.0776
  183MOL0     H24646  12.367   0.014   7.803 -0.4002 -1.0269  1.6262
  183MOL0     H24647  12.267  -0.127   7.846  0.8639 -2.6504 -0.4563
  183MOL0     H24648  12.486  -0.213   7.825  0.8106  1.3553 -0.4808
  183MOL0     H24649  12.411  -0.265   7.674 -0.3993  1.5317 -1.3826
  183MOL0     H24650  12.515  -0.078   7.554  0.6130 -1.9164 -0.5124
  183MOL0     H24651  12.565   0.004   7.709 -3.3699 -2.2609  5.1382
  183MOL0     H24652  12.725  -0.173   7.733  1.6758  1.7074 -1.3876
  183MOL0     H24653  12.661  -0.265   7.593  0.2256 -0.6039  0.4359
  183MOL0     H24654  12.749  -0.121   7.435 -2.7761  1.6462  0.2617
  183MOL0     H24655  12.877  -0.167   7.541 -0.9886 -0.0229 -0.9599
  183MOL0     H24656  12.890   0.033   7.768  3.6670  1.4352 -0.3914
  183MOL0     H24657  13.012   0.345   7.739  0.7963  0.7473 -1.7875
  183MOL0     H24658  12.874   0.428   7.687  2.1041  0.6909  0.8807
  183MOL0     H24659  12.828   0.239   7.921  1.7823 -0.4221 -0.8735
  183MOL0     H24660  12.730   0.379   7.880  0.2332  0.4892  3.5493
  183MOL0     H24661  12.915   0.525   7.933 -0.6961  0.5176  0.5026
  183MOL0     H24662  12.995   0.382   8.005 -1.3153 -2.0839  2.3997
  183MOL0     H24663  12.901   0.427   8.178 -0.0493 -1.6516 -1.4213
  183MOL0     H24664  12.757   0.349   8.117  0.6010 -1.0665 -0.3791
  183MOL0     H24665  12.607   0.696   8.286  0.0062 -2.6315  0.7155
  183MOL0     H24666  12.564   0.851   8.436  0.4259 -1.6135 -2.1982
  183MOL0     H24667  12.693   0.906   8.546 -1.0944 -1.6563  0.3128
  183MOL0     H24668  12.651   1.012   8.419  0.7090 -1.1563 -1.5486
  183MOL0     H24669  13.310   1.002   8.418 -1.1232 -0.9009  0.4923
  183MOL0     H24670  13.444   1.160   8.583 -1.6576 -0.9171 -3.7492
  183MOL0     H24671  13.198   1.397   8.823 -1.8751 -0.5305  1.3483
  183MOL0     H24672  13.292   1.373   8.970 -1.1192 -0.3174  0.4246
  183MOL0     H24673  13.465   1.490   8.773  0.7339  0.9678 -0.4795
  183MOL0     H24674  13.304   1.576   8.788  1.3139  5.2039  2.3981
  183MOL0     H24675  13.349   1.614   9.031  0.7383  2.0243  0.1483
  183MOL0     H24676  13.491   1.670   8.933 -3.4062  1.4866 -1.6126
  183MOL0     H24677  13.535   1.399   9.057  1.1137 -0.2413  0.8302
  183MOL0     H24678  13.632   1.518   8.983  5.1702 -1.9689  6.3685
  183MOL0     H24679  13.476   1.568   9.245  0.0046  1.8930  0.0974
  183MOL0     H24680  13.566   1.685   9.176  0.0449  0.6136  3.2849
  183MOL0     H24681  13.776   1.522   9.163 -1.3379 -1.6969 -0.9059
  183MOL0     H24682  13.717   1.597   9.319  1.0667  1.7359 -1.7929
  183MOL0     H24683  13.697   1.306   9.222 -0.8589  0.0012  1.3540
  183MOL0     H24684  13.574   1.369   9.327 -1.3592  0.6775 -1.1928
  183MOL0     H24685  13.783   1.425   9.469  0.8737  1.5659 -1.1074
  183MOL0     H24686  13.881   1.341   9.350 -0.2193 -2.7286  1.2879
  183MOL0     H24687  13.086   1.199   8.815  0.8305 -2.1359  1.1436
  183MOL0     H24688  12.959   1.082   8.664 -0.1626  0.8799  0.4969
  183MOL0     H24689  13.071   0.838   8.223  0.2594  3.6023  4.5325
  183MOL0     H24690  12.989   0.655   8.094 -0.8292 -0.8933 -0.0934
  183MOL0     H24691  11.781  -0.247   7.497  0.8139  0.3243 -0.0274
  183MOL0     H24692  11.533  -0.279   7.478  0.0423  0.8412  0.1169
  183MOL0     H24693  11.036   0.064   7.405  0.3048 -0.6781 -1.2626
  183MOL0     H24694  10.810  -0.005   7.431  0.5081  0.5249  0.9384
  183MOL0     H24695  10.742  -0.441   7.460 -1.1953 -0.8981  1.1152
  183MOL0     H24696  10.584  -0.398   7.511 -1.5138  2.3905 -0.3514
  183MOL0     H24697  10.732  -0.281   7.262  0.2499 -0.0654  0.9360
  183MOL0     H24698  10.596  -0.206   7.339 -0.7232  0.2674  0.6625
  183MOL0     H24699  10.487  -0.330   7.189 -3.1291 -2.8628  0.7187
  183MOL0     H24700  10.466  -0.410   7.340  0.7125  2.4583  2.4747
  183MOL0     H24701  10.571  -0.594   7.266 -1.2770 -0.1635 -1.1367
  183MOL0     H24702  10.715  -0.505   7.205  0.5338 -1.5173 -4.5704
  183MOL0     H24703  10.501  -0.588   6.858  0.3102 -1.6626 -0.9761
  183MOL0     H24704  10.926  -0.384   7.582  0.7445 -0.3090 -1.8685
  183MOL0     H24705  11.173  -0.303   7.596  2.3126  1.7348  0.1154
  184MOL0     O24706   4.079   4.022   7.991  0.7751  0.8684 -0.1594
  184MOL0     C24707   4.088   3.965   8.098  1.1993  0.0851 -0.7375
  184MOL0     O24708   3.983   3.899   8.161 -0.2897 -0.2121 -0.4499
  184MOL0     C24709   3.854   3.919   8.113 -0.2538  0.5310 -0.2742
  184MOL0     C24710   3.782   4.034   8.137 -0.0439  0.7979  0.3434
  184MOL0     C24711   3.660   4.059   8.084  0.5062 -0.3740  0.4868
  184MOL0     C24712   3.598   3.961   8.015  0.3787  0.6947  1.7307
  184MOL0     O24713   3.468   3.963   7.956  0.0082 -0.3737 -0.5241
  184MOL0     C24714   3.394   4.081   7.957  0.1396 -0.9494  0.5880
  184MOL0     C24715   3.258   4.042   7.893 -0.5452 -0.9365  0.1008
  184MOL0     C24716   3.198   3.936   7.983 -1.1607 -0.4040 -0.3829
  184MOL0     C24717   3.225   3.784   7.927  0.6041  0.3902 -0.3913
  184MOL0     C24718   3.153   3.683   8.015 -0.6294  0.1743 -0.0599
  184MOL0     C24719   3.015   3.723   8.074 -0.5620 -0.8403 -0.0625
  184MOL0     C24720   2.938   3.607   8.155 -1.2092 -0.0962 -0.5311
  184MOL0     C24721   3.021   3.554   8.276 -0.1609  0.8761 -0.3824
  184MOL0     N24722   2.940   3.463   8.354  0.2139  0.0406 -0.2094
  184MOL0     C24723   2.968   3.323   8.360  0.2802 -0.3579 -0.3790
  184MOL0     C24724   2.872   3.274   8.441  0.5243 -0.2273 -0.2118
  184MOL0     C24725   2.857   3.127   8.475 -0.1569  0.7023  0.3976
  184MOL0     C24726   2.750   3.057   8.380 -0.1115  0.1826 -0.5483
  184MOL0     C24727   2.742   2.903   8.405  0.1577  0.0887  0.4208
  184MOL0     C24728   2.876   2.838   8.409 -0.0210  1.3622 -0.6382
  184MOL0     O24729   2.958   2.861   8.291  0.5594  0.4827 -0.4194
  184MOL0     C24730   2.946   2.771   8.190  0.0321  0.0312 -0.2242
  184MOL0     C24731   2.863   2.812   8.090  0.2130 -0.4490 -0.9294
  184MOL0     C24732   2.835   2.722   7.986  0.5004 -0.0585  0.9077
  184MOL0     C24733   2.750   2.777   7.873 -0.3463 -0.0318  0.7433
  184MOL0     C24734   2.886   2.586   7.990 -1.1078 -0.4743  0.3275
  184MOL0     C24735   2.859   2.492   7.883 -0.9699  0.2825 -0.4003
  184MOL0     O24736   2.937   2.381   7.885  0.6826  0.0872  0.0031
  184MOL0     C24737   2.892   2.273   7.814  0.1774 -0.4143  0.2061
  184MOL0     C24738   2.888   2.283   7.671 -1.2677 -0.1373 -0.3994
  184MOL0     C24739   2.838   2.169   7.601 -0.0890  0.0410  0.1462
  184MOL0     C24740   2.791   2.050   7.666  0.7627  0.4973  0.1543
  184MOL0     O24741   2.738   1.940   7.602  0.2957  0.0136 -0.0318
  184MOL0     C24742   2.749   1.935   7.460 -0.3732 -1.2474  0.0881
  184MOL0     C24743   2.644   1.858   7.392 -1.1119  0.5831 -0.2264
  184MOL0     C24744   2.501   1.879   7.442  0.2585  0.0689  0.5857
  184MOL0     C24745   2.393   1.837   7.337  0.2105  0.1995 -0.5308
  184MOL0     C24746   2.251   1.852   7.387  0.3970  0.8155 -0.5537
  184MOL0     C24747   2.134   1.815   7.281  0.5493  0.8014 -0.5088
  184MOL0     C24748   1.982   1.858   7.323 -0.4823  1.4541 -0.9884
  184MOL0     C24749   1.888   1.903   7.221  0.2403 -0.3871  0.0569
  184MOL0    Cl24750   1.953   2.035   7.125 -0.2876 -0.4047  0.1930
  184MOL0     C24751   2.788   2.058   7.806  0.6043 -0.6976  0.4244
  184MOL0     C24752   2.828   2.169   7.877 -0.0088  0.6825  0.1642
  184MOL0     O24753   2.765   2.506   7.806 -0.0907  0.0512 -0.6936
  184MOL0     C24754   2.970   2.552   8.101  1.1232 -0.5306 -0.1144
  184MOL0     C24755   2.998   2.647   8.199 -0.5060  0.8833 -0.9344
  184MOL0     N24756   2.792   3.385   8.485  0.4523  0.6909 -0.1224
  184MOL0     N24757   2.834   3.491   8.426 -1.0281 -0.2563 -0.3682
  184MOL0     C24758   3.669   3.844   7.984 -0.7347 -1.2817 -0.3086
  184MOL0     C24759   3.795   3.821   8.031  0.1751  0.7999 -1.0756
  184MOL0     C24760   4.223   3.959   8.156 -0.8548 -0.2001  0.2628
  184MOL0     C24761   4.334   4.027   8.106 -0.9981 -0.4889 -0.7718
  184MOL0     C24762   4.452   4.028   8.181 -0.1044  0.0988 -1.0433
  184MOL0     C24763   4.469   3.945   8.292 -0.2029 -0.7902  0.6138
  184MOL0     O24764   4.580   3.928   8.374 -0.5278 -0.2643  0.0024
  184MOL0     C24765   4.708   3.953   8.313 -0.3379  1.2428  0.4887
  184MOL0     C24766   4.827   3.884   8.380  0.5931  0.1200  0.2089
  184MOL0     C24767   4.812   3.729   8.388  0.5192 -0.6088  0.4874
  184MOL0     C24768   4.903   3.668   8.500  0.3052 -0.4622 -0.2265
  184MOL0     C24769   5.038   3.705   8.501 -1.0887 -0.1058 -0.2505
  184MOL0     C24770   5.157   3.714   8.491 -0.9379  0.0329  1.3982
  184MOL0     C24771   4.361   3.876   8.331  0.1053 -0.0124 -0.7546
  184MOL0     C24772   4.241   3.878   8.267  0.1183 -0.7202  0.2897
  184MOL0     H24773   3.824   4.114   8.197 -1.9391  2.3496 -0.2930
  184MOL0     H24774   3.605   4.153   8.093  1.5411  0.4525 -1.2979
  184MOL0     H24775   3.372   4.127   8.054 -1.3757  0.3410 -0.3281
  184MOL0     H24776   3.444   4.156   7.894 -0.9489 -1.0294 -0.3945
  184MOL0     H24777   3.197   4.133   7.896 -2.9951 -2.5100  0.5021
  184MOL0     H24778   3.278   3.994   7.797 -0.4327 -0.2317 -0.2356
  184MOL0     H24779   3.228   3.948   8.088 -0.9407  0.7349 -0.5600
  184MOL0     H24780   3.091   3.958   7.993 -0.8416  1.9595 -1.5537
  184MOL0     H24781   3.192   3.766   7.825  1.2734 -2.8125 -0.1367
  184MOL0     H24782   3.331   3.757   7.933 -0.0686 -2.3287  1.3157
  184MOL0     H24783   3.138   3.596   7.950 -0.6132  0.2089 -0.1102
  184MOL0     H24784   3.218   3.648   8.096 -0.7862  1.5870  0.7131
  184MOL0     H24785   3.016   3.814   8.135 -2.5292 -0.6341 -0.2685
  184MOL0     H24786   2.943   3.749   7.995 -1.0221 -1.3444  0.1854
  184MOL0     H24787   2.838   3.639   8.184 -1.1968 -2.2373  2.3359
  184MOL0     H24788   2.935   3.523   8.085  2.5314 -0.5861 -0.3310
  184MOL0     H24789   3.047   3.640   8.338  0.6345  1.8852 -2.0465
  184MOL0     H24790   3.119   3.511   8.255  1.0393  2.5616  1.4582
  184MOL0     H24791   3.044   3.261   8.313  0.7975 -3.2769  3.7867
  184MOL0     H24792   2.955   3.081   8.460  1.8914  4.5121  0.9231
  184MOL0     H24793   2.843   3.114   8.583  2.5290 -2.2773  0.5304
  184MOL0     H24794   2.775   3.077   8.276  2.9252  1.9408  0.3625
  184MOL0     H24795   2.656   3.108   8.407  0.4393 -0.3536  2.9280
  184MOL0     H24796   2.679   2.858   8.328 -0.7997  0.8651  0.7378
  184MOL0     H24797   2.711   2.888   8.508  1.6379 -1.7296  0.6626
  184MOL0     H24798   2.841   2.735   8.416 -2.2585  2.1671  1.8392
  184MOL0     H24799   2.926   2.873   8.500 -3.0022  4.9354 -0.1095
  184MOL0     H24800   2.815   2.909   8.090  0.0732 -0.4353  2.2820
  184MOL0     H24801   2.649   2.738   7.888 -0.5111  1.4292  4.1536
  184MOL0     H24802   2.750   2.886   7.876 -0.6178  0.0211 -0.4349
  184MOL0     H24803   2.790   2.752   7.774 -1.2669 -0.8411  0.5617
  184MOL0     H24804   2.891   2.371   7.609 -2.0766 -0.8763 -1.5408
  184MOL0     H24805   2.846   2.183   7.494  0.0936 -1.1637 -0.0099
  184MOL0     H24806   2.729   2.034   7.418 -1.8317 -0.3012  2.8028
  184MOL0     H24807   2.848   1.901   7.428 -0.4719 -1.4810  0.0247
  184MOL0     H24808   2.657   1.878   7.285  1.1065  1.5694  0.1805
  184MOL0     H24809   2.669   1.753   7.410  4.8462  1.4357 -1.3348
  184MOL0     H24810   2.484   1.981   7.476  0.5826 -0.4214  2.3513
  184MOL0     H24811   2.482   1.824   7.535 -0.8983 -1.5832 -0.5777
  184MOL0     H24812   2.404   1.907   7.254 -0.9444  2.1560  0.8809
  184MOL0     H24813   2.410   1.734   7.304  0.3362  0.3616 -0.9719
  184MOL0     H24814   2.239   1.958   7.411  0.2163  0.7132 -0.1749
  184MOL0     H24815   2.249   1.792   7.479  3.9240  1.2824 -0.0515
  184MOL0     H24816   2.160   1.873   7.193  0.0832  1.0904 -0.4569
  184MOL0     H24817   2.134   1.707   7.260  0.0413  0.4938  0.8951
  184MOL0     H24818   1.985   1.940   7.396 -4.3423  0.6703  0.2706
  184MOL0     H24819   1.938   1.770   7.369  1.3476  1.1183  0.2466
  184MOL0     H24820   1.795   1.927   7.273 -0.0927 -4.0735  1.4240
  184MOL0     H24821   1.882   1.814   7.158  3.4191 -1.1705  0.6857
  184MOL0     H24822   2.738   1.973   7.851 -1.2047 -0.1674 -0.4754
  184MOL0     H24823   2.824   2.178   7.985  2.2009 -3.4475  0.7856
  184MOL0     H24824   3.020   2.456   8.118 -1.1201 -2.0041 -1.3076
  184MOL0     H24825   3.053   2.626   8.290  0.0826  0.1533 -1.4609
  184MOL0     H24826   3.612   3.768   7.930 -0.7680  0.5064 -2.9769
  184MOL0     H24827   3.844   3.725   8.018  0.0114 -0.0652  3.3004
  184MOL0     H24828   4.320   4.086   8.016 -0.8646 -0.3854 -0.7258
  184MOL0     H24829   4.537   4.084   8.142  1.7420 -0.8271  1.3589
  184MOL0     H24830   4.715   3.917   8.210  2.8869 -0.4102  1.1371
  184MOL0     H24831   4.731   4.060   8.311 -0.8129  1.3287 -0.6539
  184MOL0     H24832   4.823   3.916   8.485  0.7247 -0.5287  0.4178
  184MOL0     H24833   4.927   3.901   8.339  0.8001  0.5734  0.8795
  184MOL0     H24834   4.855   3.685   8.298  0.5090  0.8268 -0.2528
  184MOL0     H24835   4.706   3.705   8.405  0.2690  0.4039  0.4300
  184MOL0     H24836   4.904   3.558   8.494  0.2899 -0.3772 -2.7605
  184MOL0     H24837   4.844   3.698   8.587 -3.2571  0.1526 -2.6209
  184MOL0     H24838   5.263   3.720   8.483 -0.8766 -1.9029  0.1278
  184MOL0     H24839   4.362   3.815   8.421  1.1494  3.3586  1.7087
  184MOL0     H24840   4.160   3.820   8.311 -0.2503 -1.4260 -1.2724
  185MOL0     O24841   0.694   1.234   4.052  0.1285 -0.7909  0.1304
  185MOL0     C24842   0.584   1.283   4.032  0.4719 -1.0532 -0.2261
  185MOL0     O24843   0.488   1.309   4.116 -0.2451  0.2180 -1.0384
  185MOL0     C24844   0.480   1.240   4.240  0.4640 -0.2693 -1.0201
  185MOL0     C24845   0.566   1.141   4.286 -0.0714  0.6634  0.3746
  185MOL0     C24846   0.558   1.086   4.416  0.1811 -1.0445  0.1739
  185MOL0     C24847   0.456   1.124   4.494  0.1440  0.0675 -0.3967
  185MOL0     O24848   0.435   1.093   4.623  0.2474  0.9397 -0.3620
  185MOL0     C24849   0.530   1.001   4.696  1.2819  0.3033 -0.4487
  185MOL0     C24850   0.472   0.963   4.832 -0.6464  0.2974 -0.4116
  185MOL0     C24851   0.393   0.828   4.814 -0.0180 -0.5583 -0.1910
  185MOL0     C24852   0.344   0.761   4.949 -0.4266  0.0527  0.0031
  185MOL0     C24853   0.252   0.652   4.906 -0.1389  0.0486 -0.0731
  185MOL0     C24854   0.181   0.572   5.026 -0.2777  0.5821 -0.0558
  185MOL0     C24855   0.279   0.511   5.118 -0.1237 -0.0185  0.2718
  185MOL0     C24856   0.373   0.408   5.086 -0.5224 -0.0327  0.4560
  185MOL0     N24857   0.295   0.282   5.051  0.2974  0.0745  0.1668
  185MOL0     C24858   0.302   0.164   5.124 -0.0513 -1.9391 -0.6590
  185MOL0     C24859   0.261   0.066   5.048  0.2851  0.0934  0.6531
  185MOL0     C24860   0.247  -0.079   5.099  0.4252  0.2842  0.0670
  185MOL0     C24861   0.378  -0.153   5.116 -0.7185 -0.4658  0.1556
  185MOL0     C24862   0.406  -0.237   4.990 -0.2807 -0.2387 -0.3112
  185MOL0     C24863   0.559  -0.271   4.965  0.7053  0.4030 -0.3351
  185MOL0     O24864   0.600  -0.317   5.091  0.1933  0.3598  0.0187
  185MOL0     C24865   0.713  -0.389   5.110 -0.3952  0.4888 -0.4358
  185MOL0     C24866   0.771  -0.417   5.243 -0.0127  0.8013 -0.2433
  185MOL0     C24867   0.905  -0.471   5.263 -0.3266 -0.2925  0.3966
  185MOL0     C24868   0.951  -0.505   5.409 -0.1851 -0.1750 -0.0945
  185MOL0     C24869   0.981  -0.504   5.146 -0.1386  0.6499 -0.8424
  185MOL0     C24870   1.108  -0.573   5.161  0.1353  0.2842 -0.1256
  185MOL0     O24871   1.158  -0.613   5.283 -0.0086 -0.2946  0.7712
  185MOL0     C24872   1.294  -0.640   5.301  1.2955  0.3067 -0.6859
  185MOL0     C24873   1.340  -0.768   5.318  0.2227  0.9303  0.3606
  185MOL0     C24874   1.476  -0.800   5.347  0.0967 -1.1667 -0.2869
  185MOL0     C24875   1.566  -0.690   5.370  0.6777  0.5185 -1.1280
  185MOL0     O24876   1.699  -0.709   5.387 -0.2324 -0.5569 -0.6274
  185MOL0     C24877   1.762  -0.836   5.386  0.3916 -0.4396  0.0114
  185MOL0     C24878   1.913  -0.821   5.363  0.5693 -0.3658  0.9986
  185MOL0     C24879   1.978  -0.953   5.373 -0.3131  0.7664  0.4203
  185MOL0     C24880   1.986  -1.019   5.234 -0.5477  0.5645 -0.5625
  185MOL0     C24881   2.035  -1.169   5.235 -0.2126  0.3048  0.7054
  185MOL0     C24882   2.192  -1.187   5.251  0.7442 -0.5811  0.6199
  185MOL0     C24883   2.247  -1.324   5.214  0.4939  0.1835 -0.0318
  185MOL0     C24884   2.232  -1.361   5.057  0.1026 -0.5049 -0.9069
  185MOL0    Cl24885   2.315  -1.254   4.941  0.1411 -0.4077  0.1308
  185MOL0     C24886   1.517  -0.561   5.350 -1.1647  0.3576 -0.0994
  185MOL0     C24887   1.385  -0.544   5.318  0.3648 -0.6702  0.8528
  185MOL0     O24888   1.167  -0.592   5.060  0.2125  0.0429  0.7242
  185MOL0     C24889   0.931  -0.480   5.019  0.0061  0.0334  0.5343
  185MOL0     C24890   0.805  -0.423   5.008 -0.2460 -0.6888  0.1634
  185MOL0     N24891   0.217   0.116   4.928 -0.2396  0.1456 -0.0591
  185MOL0     N24892   0.233   0.253   4.935 -0.2712  0.3566  0.5846
  185MOL0     C24893   0.361   1.216   4.451 -1.0636  0.6740 -0.6389
  185MOL0     C24894   0.376   1.275   4.325  0.1152 -0.1871  0.4095
  185MOL0     C24895   0.568   1.334   3.896 -0.4594 -0.1487 -0.4885
  185MOL0     C24896   0.463   1.420   3.872 -0.0993  0.2092 -0.9955
  185MOL0     C24897   0.431   1.465   3.745 -0.6674 -0.1410  0.0365
  185MOL0     C24898   0.496   1.413   3.632  1.8722  0.5606 -0.8713
  185MOL0     O24899   0.470   1.455   3.519  0.9015 -0.4152  0.1084
  185MOL0     C24900   0.348   1.408   3.457 -0.9330  0.5892  0.1771
  185MOL0     C24901   0.374   1.284   3.368 -0.5986  0.6145 -0.2085
  185MOL0     C24902   0.471   1.317   3.252  0.3522  0.8062  0.1412
  185MOL0     C24903   0.460   1.225   3.135  0.0135  1.2196  0.0473
  185MOL0     C24904   0.481   1.280   3.002 -0.3019 -0.4597  0.0765
  185MOL0     C24905   0.500   1.327   2.888 -0.1401  0.5674  0.5122
  185MOL0     C24906   0.605   1.330   3.657  0.5072 -0.5500  0.1228
  185MOL0     C24907   0.643   1.289   3.787 -0.5471 -0.1261 -1.2022
  185MOL0     H24908   0.644   1.096   4.226 -2.4562 -0.8435 -1.8052
  185MOL0     H24909   0.643   1.034   4.459  0.4075 -1.1903 -0.4494
  185MOL0     H24910   0.536   0.910   4.635 -2.3625 -0.3080 -0.1151
  185MOL0     H24911   0.624   1.053   4.716  0.2322  1.3013  2.3750
  185MOL0     H24912   0.561   0.942   4.892  1.6530  2.4857 -2.7759
  185MOL0     H24913   0.415   1.042   4.881  1.4309  0.2477  2.3115
  185MOL0     H24914   0.329   0.857   4.730  0.7405 -2.0075 -1.2992
  185MOL0     H24915   0.465   0.754   4.778  1.8709  0.7468  0.7185
  185MOL0     H24916   0.435   0.717   4.991 -0.6599 -1.2864 -0.8368
  185MOL0     H24917   0.304   0.846   5.004 -0.1571 -0.7653  1.5153
  185MOL0     H24918   0.172   0.706   4.854  1.1336  1.8617 -0.2511
  185MOL0     H24919   0.290   0.578   4.835 -1.4572  0.8962 -1.7510
  185MOL0     H24920   0.130   0.640   5.095  3.3567  1.7656  1.7174
  185MOL0     H24921   0.130   0.483   4.988  1.3505 -1.0568  1.4192
  185MOL0     H24922   0.333   0.598   5.158 -1.5245  1.8442 -1.6351
  185MOL0     H24923   0.229   0.476   5.208  0.0567 -1.2512 -0.0856
  185MOL0     H24924   0.437   0.396   5.174  2.1445 -2.7087 -1.6355
  185MOL0     H24925   0.438   0.440   5.003 -2.1435  2.0730 -0.0995
  185MOL0     H24926   0.336   0.154   5.227 -2.4162  0.3365  0.4709
  185MOL0     H24927   0.197  -0.081   5.196 -2.9831 -0.4035 -1.5457
  185MOL0     H24928   0.172  -0.124   5.033 -1.5510  2.6918  0.5134
  185MOL0     H24929   0.388  -0.228   5.196 -0.7456 -0.0500  0.5554
  185MOL0     H24930   0.459  -0.082   5.134 -2.1245  0.2434  5.5762
  185MOL0     H24931   0.370  -0.184   4.901  0.3448  1.0976  0.1948
  185MOL0     H24932   0.352  -0.331   4.994  0.1948 -0.4795  0.5865
  185MOL0     H24933   0.604  -0.177   4.931  0.3933 -1.0085 -5.3601
  185MOL0     H24934   0.568  -0.343   4.884  1.6028  0.7474 -0.5502
  185MOL0     H24935   0.697  -0.393   5.319 -2.7268 -0.6430 -2.2316
  185MOL0     H24936   1.046  -0.456   5.434 -1.9675  3.8080 -0.2931
  185MOL0     H24937   0.878  -0.483   5.488 -0.7517 -0.7986 -0.4386
  185MOL0     H24938   0.965  -0.613   5.418 -3.0501 -0.6750 -0.7293
  185MOL0     H24939   1.272  -0.851   5.302  2.3287 -0.7386 -0.3567
  185MOL0     H24940   1.516  -0.900   5.360  1.0904 -0.8994 -1.1207
  185MOL0     H24941   1.737  -0.892   5.477 -1.5253 -2.5109 -1.6790
  185MOL0     H24942   1.715  -0.902   5.312 -1.0123  0.5618 -0.0400
  185MOL0     H24943   1.944  -0.775   5.269  1.4685 -4.2820 -0.8342
  185MOL0     H24944   1.943  -0.762   5.450 -0.0581 -0.9395  1.6118
  185MOL0     H24945   1.930  -1.030   5.433 -1.3752 -0.4638 -1.8721
  185MOL0     H24946   2.080  -0.954   5.412 -1.7601 -1.4332  4.7951
  185MOL0     H24947   1.885  -1.017   5.192 -0.0739 -1.1910 -1.8858
  185MOL0     H24948   2.042  -0.952   5.168 -2.2493  1.9849 -0.6251
  185MOL0     H24949   1.999  -1.211   5.141  0.7921  1.6404 -0.3263
  185MOL0     H24950   1.987  -1.219   5.319  1.3276 -1.6529  0.4984
  185MOL0     H24951   2.232  -1.107   5.188 -2.3686 -0.6642 -1.7321
  185MOL0     H24952   2.227  -1.166   5.352  1.2572 -0.0401  0.3361
  185MOL0     H24953   2.206  -1.400   5.281 -0.6290 -0.8404 -1.8183
  185MOL0     H24954   2.353  -1.327   5.242  0.6737  1.6510 -0.5148
  185MOL0     H24955   2.125  -1.366   5.034 -0.2440  2.1134 -0.1425
  185MOL0     H24956   2.274  -1.461   5.044  0.0178 -0.6636 -0.0202
  185MOL0     H24957   1.565  -0.466   5.373 -1.5218  0.3926  0.5237
  185MOL0     H24958   1.363  -0.439   5.309 -2.4492 -1.2996 -0.5979
  185MOL0     H24959   0.981  -0.509   4.928 -5.1390 -1.3135 -2.2289
  185MOL0     H24960   0.769  -0.416   4.906  1.4858 -2.5672 -0.6422
  185MOL0     H24961   0.284   1.254   4.517 -1.1187 -2.4480  1.3157
  185MOL0     H24962   0.313   1.360   4.300 -0.5761 -0.7882  0.0529
  185MOL0     H24963   0.411   1.469   3.954  1.5099  2.0577 -1.0074
  185MOL0     H24964   0.356   1.543   3.738  1.1150  1.9401  2.5069
  185MOL0     H24965   0.269   1.381   3.528 -1.9401 -2.2017 -1.8117
  185MOL0     H24966   0.304   1.486   3.394 -2.6834  0.3851  1.0686
  185MOL0     H24967   0.275   1.258   3.327 -1.5289  3.3405  0.0932
  185MOL0     H24968   0.430   1.209   3.425 -0.9549  0.0206 -0.6217
  185MOL0     H24969   0.571   1.318   3.297  0.1467  3.5013  0.7213
  185MOL0     H24970   0.447   1.419   3.220 -0.4885  1.4490  2.6101
  185MOL0     H24971   0.357   1.187   3.136  0.2000  0.4397  3.5984
  185MOL0     H24972   0.528   1.140   3.132 -0.3092  0.8778 -4.5512
  185MOL0     H24973   0.531   1.378   2.799 -0.2770  3.2742  1.8977
  185MOL0     H24974   0.667   1.317   3.569 -0.1469 -1.2469 -0.2552
  185MOL0     H24975   0.732   1.229   3.803 -0.4153  0.4232  0.3220
  186MOL0     O24976   6.358   2.635   4.334 -0.4344 -0.0944 -0.6021
  186MOL0     C24977   6.318   2.588   4.232  0.0538 -0.5623  1.0718
  186MOL0     O24978   6.229   2.648   4.145 -0.0985  0.0099 -0.3653
  186MOL0     C24979   6.228   2.792   4.142  0.7095  0.3775 -0.4605
  186MOL0     C24980   6.182   2.882   4.236  0.7675  0.2159 -0.0765
  186MOL0     C24981   6.188   3.021   4.225 -0.3599  0.7476 -0.3458
  186MOL0     C24982   6.251   3.065   4.110 -0.3096 -0.2680  0.5944
  186MOL0     O24983   6.282   3.193   4.085 -0.4981  0.0155 -0.6620
  186MOL0     C24984   6.263   3.297   4.182  0.4723  0.0542 -0.0964
  186MOL0     C24985   6.254   3.425   4.096  0.0083  0.4469  0.4810
  186MOL0     C24986   6.115   3.406   4.024 -0.8704 -0.0676 -0.2910
  186MOL0     C24987   6.097   3.513   3.927  0.1552 -0.5129  0.5153
  186MOL0     C24988   6.066   3.655   3.980  0.4197  0.0072 -0.6777
  186MOL0     C24989   6.053   3.758   3.866  0.0892  0.7600 -1.4086
  186MOL0     C24990   5.931   3.718   3.786 -0.4493 -0.8722 -0.5006
  186MOL0     C24991   5.888   3.837   3.698  0.0868  0.0326  0.0371
  186MOL0     N24992   5.829   3.949   3.767  0.3683  0.0329  0.0212
  186MOL0     C24993   5.696   3.971   3.766  0.3027 -0.4768 -0.3813
  186MOL0     C24994   5.670   4.075   3.839  0.0406  0.8426 -1.0811
  186MOL0     C24995   5.521   4.108   3.850 -0.2362  0.9512 -0.2222
  186MOL0     C24996   5.447   4.015   3.948  0.9695  0.2853  0.6432
  186MOL0     C24997   5.293   4.019   3.947 -0.3770  0.0722  0.2905
  186MOL0     C24998   5.224   3.900   4.018  0.4948  0.3255 -1.1992
  186MOL0     O24999   5.247   3.907   4.164  0.0772 -0.4018 -0.3547
  186MOL0     C25000   5.145   3.933   4.253 -0.2119  0.3029  0.2040
  186MOL0     C25001   5.166   3.888   4.373  0.0640  0.6445 -0.7416
  186MOL0     C25002   5.089   3.930   4.486 -0.4970  0.7440  0.3414
  186MOL0     C25003   5.131   3.885   4.621 -0.2815 -0.1622 -0.2684
  186MOL0     C25004   4.969   4.004   4.459  0.2472 -0.3329  0.2872
  186MOL0     C25005   4.856   4.040   4.550 -1.1955  0.1868 -0.2394
  186MOL0     O25006   4.752   4.116   4.502  0.1959  0.4543  0.4362
  186MOL0     C25007   4.639   4.137   4.585  0.7412  0.3997  0.5741
  186MOL0     C25008   4.563   4.040   4.650  0.0238 -0.9116  0.2612
  186MOL0     C25009   4.458   4.058   4.738 -0.0864  0.3409  0.9587
  186MOL0     C25010   4.433   4.194   4.775  0.6664  0.9490 -0.3139
  186MOL0     O25011   4.348   4.222   4.874  0.7887 -0.9566 -0.4942
  186MOL0     C25012   4.289   4.116   4.952 -0.7598  0.8779  0.0648
  186MOL0     C25013   4.376   4.057   5.067 -0.6210  0.7476  0.2008
  186MOL0     C25014   4.497   4.140   5.121 -0.1423 -0.1935  1.2159
  186MOL0     C25015   4.553   4.088   5.258  0.0615 -0.0418  0.2689
  186MOL0     C25016   4.617   4.189   5.351  0.1272 -0.3364 -0.5339
  186MOL0     C25017   4.672   4.139   5.487 -0.0141 -1.0189 -0.1078
  186MOL0     C25018   4.747   4.242   5.565  0.7696  0.3713 -0.2344
  186MOL0     C25019   4.793   4.172   5.695  0.7023 -0.6952 -0.0881
  186MOL0    Cl25020   4.750   4.280   5.829 -0.1837  0.1825  0.3871
  186MOL0     C25021   4.514   4.292   4.717  0.5383  1.4754 -0.7654
  186MOL0     C25022   4.611   4.271   4.618  0.2322  0.2266 -0.5602
  186MOL0     O25023   4.862   3.988   4.656  0.0729 -0.6801  0.0811
  186MOL0     C25024   4.950   4.039   4.325 -0.2657 -0.4645 -0.4760
  186MOL0     C25025   5.033   4.010   4.223 -0.8125  1.1119 -0.0062
  186MOL0     N25026   5.789   4.121   3.894 -0.8735 -0.2003  0.9310
  186MOL0     N25027   5.883   4.043   3.849 -0.2620  0.1507 -0.1910
  186MOL0     C25028   6.310   2.977   4.012  0.2569  0.9644  0.7232
  186MOL0     C25029   6.303   2.835   4.034  0.8286  0.1529 -0.4210
  186MOL0     C25030   6.356   2.453   4.188  0.1047 -0.9453  0.7045
  186MOL0     C25031   6.410   2.360   4.273 -0.2246 -0.6270  0.5012
  186MOL0     C25032   6.447   2.232   4.225 -0.7177 -1.0415 -0.3854
  186MOL0     C25033   6.425   2.197   4.099  0.9181 -0.1317  0.3560
  186MOL0     O25034   6.468   2.080   4.052 -0.1362 -0.1562 -0.0824
  186MOL0     C25035   6.376   1.972   4.035 -0.0685  0.9616 -0.2844
  186MOL0     C25036   6.451   1.868   3.955 -0.0997  0.0124 -0.0824
  186MOL0     C25037   6.375   1.727   3.955  0.4042  0.3836 -0.1594
  186MOL0     C25038   6.221   1.730   3.979 -1.0611  0.5998  0.5652
  186MOL0     C25039   6.154   1.790   3.861 -0.4875 -0.5885  0.2016
  186MOL0     C25040   6.118   1.840   3.757  0.3255  1.5267 -0.1101
  186MOL0     C25041   6.367   2.288   4.010  0.4548 -0.2661 -0.5246
  186MOL0     C25042   6.329   2.412   4.056 -0.8425 -0.1533  0.9827
  186MOL0     H25043   6.139   2.846   4.329  1.1381  0.2308  0.1021
  186MOL0     H25044   6.150   3.087   4.303  1.7950 -0.4922  1.9201
  186MOL0     H25045   6.173   3.287   4.244  0.5533 -1.3792 -0.1819
  186MOL0     H25046   6.352   3.295   4.244  0.2050 -0.6507  0.2764
  186MOL0     H25047   6.245   3.515   4.159 -1.3339  0.9163 -0.3188
  186MOL0     H25048   6.331   3.439   4.020 -0.2106 -0.2191  0.1282
  186MOL0     H25049   6.115   3.304   3.985 -1.6792 -1.1814  2.3885
  186MOL0     H25050   6.038   3.404   4.101 -2.0594 -0.2482 -1.4495
  186MOL0     H25051   6.189   3.522   3.869  0.9178  0.1674  1.7806
  186MOL0     H25052   6.010   3.473   3.873 -0.8965 -2.8617  3.6042
  186MOL0     H25053   5.975   3.642   4.041  2.2950  0.1494  2.3889
  186MOL0     H25054   6.144   3.682   4.052 -0.0176 -1.7733  0.5630
  186MOL0     H25055   6.034   3.854   3.915  1.0578  1.2586 -1.9729
  186MOL0     H25056   6.149   3.763   3.814  0.5098 -3.4927 -1.4275
  186MOL0     H25057   5.949   3.626   3.729 -1.3514 -0.2168 -1.9126
  186MOL0     H25058   5.844   3.702   3.850 -1.8028 -0.8853 -2.2702
  186MOL0     H25059   5.815   3.792   3.631  1.7265 -0.9062 -1.1997
  186MOL0     H25060   5.976   3.857   3.636  1.1796 -0.4201  1.4065
  186MOL0     H25061   5.615   3.926   3.709 -0.1961  2.7143 -2.4556
  186MOL0     H25062   5.520   4.203   3.904  2.4380  0.2106  1.3149
  186MOL0     H25063   5.472   4.112   3.753 -1.2628 -1.8323  0.0819
  186MOL0     H25064   5.481   4.062   4.040  0.5408  3.3127 -0.6192
  186MOL0     H25065   5.483   3.913   3.936 -0.3669  0.0202 -1.9180
  186MOL0     H25066   5.264   4.017   3.841  0.2579  0.1229  0.1157
  186MOL0     H25067   5.253   4.110   3.993 -3.4263 -0.4217 -1.1051
  186MOL0     H25068   5.256   3.801   3.984  0.3139 -1.1779  2.5245
  186MOL0     H25069   5.115   3.901   4.016  0.2532  0.8557  3.0882
  186MOL0     H25070   5.253   3.828   4.397 -1.7004 -1.7480  0.0541
  186MOL0     H25071   5.236   3.858   4.605  0.0046  0.9842 -0.4013
  186MOL0     H25072   5.126   3.968   4.692  1.7043  0.1297 -0.4059
  186MOL0     H25073   5.084   3.788   4.643 -1.5904 -0.2817 -3.1928
  186MOL0     H25074   4.597   3.942   4.618  2.4230 -0.3015  0.7565
  186MOL0     H25075   4.402   3.974   4.778  0.3864  1.3433  3.9630
  186MOL0     H25076   4.211   4.170   5.007 -0.0553 -1.5496  3.7904
  186MOL0     H25077   4.232   4.038   4.901  0.6012 -0.3416  0.3314
  186MOL0     H25078   4.306   4.029   5.146  1.8366  0.5998  2.4451
  186MOL0     H25079   4.413   3.959   5.034  0.3238  1.1348  0.0602
  186MOL0     H25080   4.471   4.245   5.131  2.6088  0.7273 -0.4845
  186MOL0     H25081   4.576   4.136   5.046 -2.7910  1.3524 -1.8976
  186MOL0     H25082   4.472   4.043   5.317  0.4901 -0.8835  0.2318
  186MOL0     H25083   4.624   4.008   5.233 -1.1613 -0.1803 -3.3318
  186MOL0     H25084   4.540   4.258   5.387 -0.1481 -1.2876  0.7522
  186MOL0     H25085   4.702   4.233   5.297  0.8982 -0.7648  0.2995
  186MOL0     H25086   4.593   4.100   5.552  2.3733 -1.5553  2.6896
  186MOL0     H25087   4.741   4.055   5.477  0.0918 -1.5074  3.4245
  186MOL0     H25088   4.683   4.327   5.592  1.5395  0.5338  1.1570
  186MOL0     H25089   4.830   4.291   5.512  1.6523  0.8778  1.5609
  186MOL0     H25090   4.900   4.147   5.691  1.1239  0.8425  0.8060
  186MOL0     H25091   4.729   4.084   5.707 -1.9759  1.1012 -0.3256
  186MOL0     H25092   4.512   4.395   4.750  1.0577  1.0491  0.6609
  186MOL0     H25093   4.662   4.347   4.559  3.6056 -2.2433 -1.0818
  186MOL0     H25094   4.864   4.099   4.296 -0.5364  0.0361  1.2246
  186MOL0     H25095   5.011   4.056   4.128  0.8924  0.0424 -0.9688
  186MOL0     H25096   6.360   3.038   3.938  1.9978  0.8799  1.7853
  186MOL0     H25097   6.369   2.780   3.968  1.2600  3.1652 -2.7543
  186MOL0     H25098   6.418   2.387   4.378 -1.4104 -0.7715  0.6399
  186MOL0     H25099   6.495   2.156   4.286 -0.4306 -2.0422 -1.8046
  186MOL0     H25100   6.346   1.920   4.126  2.7492 -2.1508 -0.9277
  186MOL0     H25101   6.284   2.009   3.989 -1.2990 -0.0733  1.2652
  186MOL0     H25102   6.545   1.849   4.007 -1.4581 -1.0535  2.1863
  186MOL0     H25103   6.469   1.891   3.850 -1.5882 -2.2236 -0.9104
  186MOL0     H25104   6.430   1.667   4.029  1.9706 -0.1652 -1.7011
  186MOL0     H25105   6.401   1.672   3.863  1.8548  0.1531  0.3538
  186MOL0     H25106   6.191   1.773   4.076  0.9856 -1.5109  2.2588
  186MOL0     H25107   6.184   1.628   3.991 -2.8667  0.7603 -2.6461
  186MOL0     H25108   6.100   1.893   3.665 -2.1872 -1.1745 -1.3607
  186MOL0     H25109   6.369   2.267   3.904 -0.8123 -0.2887 -0.5598
  186MOL0     H25110   6.290   2.475   3.976 -1.3728  0.4900  1.7377
  187MOL0     O25111  10.841   8.118   2.034  0.0676  0.5846 -0.3039
  187MOL0     C25112  10.917   8.044   2.100  0.1859  0.2829 -0.2200
  187MOL0     O25113  10.907   7.904   2.096  0.0444 -0.0590 -0.4017
  187MOL0     C25114  10.822   7.830   2.010 -0.0748 -0.5411 -0.1555
  187MOL0     C25115  10.875   7.747   1.908  0.7238  0.4107  0.2347
  187MOL0     C25116  10.790   7.678   1.816 -0.6699  0.3391 -0.5621
  187MOL0     C25117  10.647   7.693   1.832 -0.2123 -0.4344 -0.3340
  187MOL0     O25118  10.549   7.642   1.743 -0.4294  0.7379  0.4594
  187MOL0     C25119  10.586   7.540   1.651  0.4755  0.3931 -0.7227
  187MOL0     C25120  10.474   7.509   1.552  0.1047  0.6440  1.1075
  187MOL0     C25121  10.410   7.632   1.479 -0.1257  1.1615 -0.8228
  187MOL0     C25122  10.310   7.708   1.565 -0.4926  0.1978 -0.1279
  187MOL0     C25123  10.275   7.843   1.495  0.5540  0.0191  0.0133
  187MOL0     C25124  10.193   7.832   1.373  0.4067  0.8833 -0.2153
  187MOL0     C25125  10.162   7.955   1.283  0.0605 -1.3294 -0.1148
  187MOL0     C25126  10.042   8.037   1.350 -0.4897 -0.4778 -0.4857
  187MOL0     N25127   9.988   8.145   1.264 -0.6373  0.1077  0.4573
  187MOL0     C25128   9.917   8.130   1.155 -0.0124 -0.2802  0.5362
  187MOL0     C25129   9.881   8.261   1.125 -0.0677  0.6447 -0.2657
  187MOL0     C25130   9.826   8.307   1.005  0.2832  0.3018 -0.1900
  187MOL0     C25131   9.832   8.456   0.960 -0.5103 -0.9194 -0.0222
  187MOL0     C25132   9.834   8.475   0.813 -0.1303 -0.8631  0.4516
  187MOL0     C25133   9.699   8.435   0.753  0.4510 -0.1016 -1.5501
  187MOL0     O25134   9.694   8.478   0.613 -0.2224 -0.4187 -0.1491
  187MOL0     C25135   9.755   8.412   0.509 -0.6245 -0.3000 -0.4211
  187MOL0     C25136   9.755   8.477   0.382  0.5408  0.3040  0.0752
  187MOL0     C25137   9.815   8.415   0.276  0.0550  0.9168 -0.5450
  187MOL0     C25138   9.802   8.477   0.144  0.0083 -0.2246 -0.9149
  187MOL0     C25139   9.886   8.297   0.298 -0.4494  0.9070  0.0970
  187MOL0     C25140   9.960   8.217   0.186 -0.5564 -0.4594 -0.3216
  187MOL0     O25141   9.992   8.297   0.073 -0.0299 -0.0859 -0.3431
  187MOL0     C25142  10.081   8.264  -0.032  0.2907 -0.3612 -0.5285
  187MOL0     C25143  10.116   8.134  -0.065 -1.1060  0.5355 -0.8794
  187MOL0     C25144  10.203   8.105  -0.181 -0.5580 -0.4083  0.4969
  187MOL0     C25145  10.265   8.206  -0.250  0.8339 -0.6851  0.8960
  187MOL0     O25146  10.361   8.166  -0.352  0.2027 -0.5941 -0.3472
  187MOL0     C25147  10.494   8.218  -0.312  0.1936 -0.0595  0.3712
  187MOL0     C25148  10.599   8.197  -0.426  0.5609  0.1296 -0.3031
  187MOL0     C25149  10.587   8.298  -0.537 -0.4948 -0.3081 -0.3665
  187MOL0     C25150  10.650   8.435  -0.498  0.1141  0.4950 -0.3282
  187MOL0     C25151  10.801   8.425  -0.470  0.4804 -1.0429 -0.8447
  187MOL0     C25152  10.850   8.565  -0.452 -0.7274 -0.1842 -0.4705
  187MOL0     C25153  10.980   8.569  -0.377 -0.0982  0.3400  0.1396
  187MOL0     C25154  11.100   8.503  -0.444  0.5127 -0.1024 -1.3149
  187MOL0    Cl25155  11.237   8.525  -0.325 -0.0125  0.2843  0.2148
  187MOL0     C25156  10.233   8.332  -0.211 -0.0204 -0.2697  0.5599
  187MOL0     C25157  10.141   8.366  -0.107  1.3081  0.0022 -0.8058
  187MOL0     O25158   9.978   8.091   0.195 -0.1059 -0.6966  0.1484
  187MOL0     C25159   9.891   8.235   0.425 -0.8229  0.8833 -0.5076
  187MOL0     C25160   9.818   8.289   0.526 -0.1722 -1.0556  0.1806
  187MOL0     N25161   9.950   8.339   1.213  0.0808  0.1569  0.6489
  187MOL0     N25162  10.003   8.268   1.303  0.3105  0.3939 -0.1023
  187MOL0     C25163  10.603   7.774   1.930  0.0076 -0.3501 -0.6172
  187MOL0     C25164  10.687   7.852   2.013 -0.8319  0.4371 -0.6848
  187MOL0     C25165  11.003   8.114   2.197  0.2883 -0.9453  0.6543
  187MOL0     C25166  11.003   8.256   2.217  0.4242 -0.1522 -0.3767
  187MOL0     C25167  11.084   8.316   2.314  0.1177  0.1055  0.4464
  187MOL0     C25168  11.176   8.243   2.392  0.8978  0.6447  0.2620
  187MOL0     O25169  11.257   8.311   2.471 -0.2681  0.0015  0.0418
  187MOL0     C25170  11.333   8.224   2.555 -0.8044  0.4043  0.8057
  187MOL0     C25171  11.469   8.186   2.489 -0.8142 -0.3905 -0.0167
  187MOL0     C25172  11.566   8.101   2.579  0.4030 -0.0154  0.8962
  187MOL0     C25173  11.689   8.060   2.503 -0.4448  0.8855 -0.1633
  187MOL0     C25174  11.754   8.176   2.435 -0.2574 -0.1469  0.3358
  187MOL0     C25175  11.798   8.271   2.373  0.9301  0.0228 -0.2716
  187MOL0     C25176  11.191   8.105   2.357 -0.3574 -0.7540  1.0621
  187MOL0     C25177  11.111   8.041   2.263 -0.4806 -0.5429  0.1255
  187MOL0     H25178  10.983   7.741   1.910  0.9239  2.9743  1.2278
  187MOL0     H25179  10.840   7.625   1.736  2.2406  1.1642  0.5741
  187MOL0     H25180  10.674   7.575   1.595  1.5392  0.4927  0.9266
  187MOL0     H25181  10.622   7.450   1.702  2.3319  1.7210  0.4518
  187MOL0     H25182  10.514   7.442   1.476 -2.6646  2.6444 -2.4280
  187MOL0     H25183  10.395   7.455   1.606  0.2930  1.4516  2.2327
  187MOL0     H25184  10.488   7.701   1.445  3.4808 -2.2850 -0.3844
  187MOL0     H25185  10.355   7.604   1.389 -0.9129 -0.8755  0.2282
  187MOL0     H25186  10.227   7.651   1.609  0.3502 -3.3589 -2.7039
  187MOL0     H25187  10.369   7.744   1.650  1.1097  0.2999 -1.2296
  187MOL0     H25188  10.219   7.897   1.572 -0.0101 -1.4121  0.6399
  187MOL0     H25189  10.366   7.896   1.464 -0.5116  0.7582 -2.0886
  187MOL0     H25190  10.267   7.775   1.315  1.0362  1.3554  0.1031
  187MOL0     H25191  10.102   7.777   1.393  0.0729  0.8157 -1.7720
  187MOL0     H25192  10.251   8.018   1.292 -1.6893  1.0668  2.0868
  187MOL0     H25193  10.143   7.930   1.178 -2.0279 -0.5069  0.0223
  187MOL0     H25194  10.076   8.081   1.444 -4.2155 -0.1478  0.8752
  187MOL0     H25195   9.961   7.972   1.387 -0.7495  1.2230  2.2026
  187MOL0     H25196   9.878   8.039   1.112 -2.5218  0.9725 -0.0474
  187MOL0     H25197   9.868   8.253   0.920  0.4377  0.4670 -0.2212
  187MOL0     H25198   9.719   8.284   1.009  0.3936 -0.6691 -1.8874
  187MOL0     H25199   9.929   8.497   0.992 -0.0817  0.5721 -2.8202
  187MOL0     H25200   9.753   8.511   1.011  1.0974  0.1848  1.4144
  187MOL0     H25201   9.916   8.412   0.776  0.5101 -0.2538  0.8251
  187MOL0     H25202   9.865   8.577   0.789 -0.0892 -1.0412 -0.3050
  187MOL0     H25203   9.638   8.505   0.811  0.9535  1.2786 -2.6104
  187MOL0     H25204   9.666   8.331   0.754 -3.6087  1.0203 -3.0186
  187MOL0     H25205   9.706   8.573   0.378  0.4981  0.2802  0.0275
  187MOL0     H25206   9.745   8.416   0.073 -0.4140 -0.4094 -0.4262
  187MOL0     H25207   9.745   8.570   0.147  1.2660  0.5715  2.0211
  187MOL0     H25208   9.896   8.516   0.106 -0.2561 -2.2455 -3.9706
  187MOL0     H25209  10.076   8.052  -0.007 -0.7907  0.7927 -0.2810
  187MOL0     H25210  10.232   8.006  -0.214  1.4438  0.0481  0.6951
  187MOL0     H25211  10.482   8.326  -0.297  0.0195 -0.1829  1.1617
  187MOL0     H25212  10.531   8.170  -0.221  1.6480  0.9996  0.3723
  187MOL0     H25213  10.700   8.197  -0.383 -0.3059  2.2996  1.9829
  187MOL0     H25214  10.580   8.096  -0.464 -1.3930 -0.9679  3.1502
  187MOL0     H25215  10.482   8.321  -0.561  0.1390  1.9435 -1.1888
  187MOL0     H25216  10.639   8.260  -0.626  2.1322  0.6408  0.6917
  187MOL0     H25217  10.612   8.499  -0.578 -1.0742  0.3827  0.1384
  187MOL0     H25218  10.610   8.471  -0.403  4.1305  1.7982  1.0963
  187MOL0     H25219  10.847   8.363  -0.549 -1.3537 -3.5413 -0.0949
  187MOL0     H25220  10.805   8.375  -0.373 -0.1131  2.1115  0.9061
  187MOL0     H25221  10.872   8.605  -0.551 -0.8971 -2.3511 -1.4359
  187MOL0     H25222  10.770   8.620  -0.402 -2.7457  0.0556 -3.6572
  187MOL0     H25223  10.976   8.519  -0.280  2.1385  0.5358  0.3768
  187MOL0     H25224  10.994   8.673  -0.344 -2.3071  0.3137  1.3906
  187MOL0     H25225  11.098   8.549  -0.543 -1.4925  0.5418 -1.0233
  187MOL0     H25226  11.058   8.402  -0.448  0.4075 -0.1006 -0.4901
  187MOL0     H25227  10.276   8.419  -0.260  0.3202 -0.6524  0.1844
  187MOL0     H25228  10.139   8.471  -0.079  4.2329 -0.0152 -0.1754
  187MOL0     H25229   9.963   8.153   0.434  0.1375  1.5799 -1.5970
  187MOL0     H25230   9.818   8.229   0.617  4.2583 -2.6792 -0.6350
  187MOL0     H25231  10.495   7.790   1.933 -0.0989 -0.7130  3.7030
  187MOL0     H25232  10.650   7.921   2.088  0.1432  0.4178 -0.1702
  187MOL0     H25233  10.928   8.316   2.167  0.5943  1.6989  1.4696
  187MOL0     H25234  11.094   8.422   2.336 -0.9232 -0.0737  1.9373
  187MOL0     H25235  11.361   8.289   2.639  0.4492 -0.5299  1.1325
  187MOL0     H25236  11.291   8.132   2.595 -1.1704  0.5992  0.8802
  187MOL0     H25237  11.509   8.283   2.458 -2.6611  0.3717 -0.1683
  187MOL0     H25238  11.445   8.124   2.402 -2.0365 -1.4291  1.0053
  187MOL0     H25239  11.513   8.010   2.607 -0.5002  0.2780  0.1811
  187MOL0     H25240  11.579   8.142   2.680 -2.0032 -0.7325  1.5523
  187MOL0     H25241  11.667   7.996   2.417 -1.9669 -2.1976  2.3339
  187MOL0     H25242  11.764   8.005   2.562  0.6158 -2.0406 -3.8727
  187MOL0     H25243  11.835   8.362   2.331  1.5239  0.5778  1.3773
  187MOL0     H25244  11.267   8.036   2.393  0.7752  0.6841  1.5429
  187MOL0     H25245  11.138   7.940   2.234  2.8802  0.2197  0.1186
  188MOL0     O25246   5.275   0.807   0.338  0.0438  0.1898 -0.6091
  188MOL0     C25247   5.162   0.763   0.315  1.1986 -0.4036  0.1299
  188MOL0     O25248   5.130   0.683   0.209 -0.3731 -0.0887  0.4751
  188MOL0     C25249   5.226   0.630   0.130 -0.1030  0.3578  0.3655
  188MOL0     C25250   5.302   0.531   0.193  0.0932  0.7636  0.0598
  188MOL0     C25251   5.410   0.478   0.125 -0.3301 -0.4205  1.1161
  188MOL0     C25252   5.446   0.519  -0.006 -0.9068 -1.3835  0.3541
  188MOL0     O25253   5.534   0.445  -0.074  0.0699  0.4043  0.5124
  188MOL0     C25254   5.651   0.512  -0.128  0.5718  1.3510 -1.5340
  188MOL0     C25255   5.750   0.407  -0.196  0.7707 -0.1365 -0.2287
  188MOL0     C25256   5.713   0.393  -0.349  0.1488 -0.5064 -0.0600
  188MOL0     C25257   5.579   0.327  -0.378  0.6887 -0.0186  0.4808
  188MOL0     C25258   5.574   0.175  -0.359  0.4879  0.2469  0.6219
  188MOL0     C25259   5.440   0.117  -0.382  0.3262  0.3122  0.1079
  188MOL0     C25260   5.354   0.127  -0.261  0.7970  0.7936 -0.1421
  188MOL0     C25261   5.361  -0.009  -0.188  0.1852  0.1996 -0.2104
  188MOL0     N25262   5.292   0.001  -0.061 -0.2366  0.6216 -0.6180
  188MOL0     C25263   5.306   0.093   0.044  0.7384 -0.7880 -1.4886
  188MOL0     C25264   5.216   0.043   0.139  0.1568  0.7761 -0.1945
  188MOL0     C25265   5.179   0.099   0.269  0.8228  0.5231 -0.6116
  188MOL0     C25266   5.052   0.184   0.245 -0.3165 -0.6471 -0.5672
  188MOL0     C25267   5.036   0.284   0.360 -0.6058  0.4621  0.1134
  188MOL0     C25268   4.899   0.347   0.360  0.2659  0.4010  1.0459
  188MOL0     O25269   4.795   0.247   0.387  0.3079  0.0712 -0.3705
  188MOL0     C25270   4.722   0.251   0.504  0.7040  0.7736 -0.5250
  188MOL0     C25271   4.780   0.194   0.617  0.9651  0.1114  0.6331
  188MOL0     C25272   4.720   0.194   0.744 -0.3764  0.6218  0.2691
  188MOL0     C25273   4.784   0.118   0.851  1.1164 -0.2057 -0.2945
  188MOL0     C25274   4.594   0.255   0.760  0.2824  0.6546  0.2192
  188MOL0     C25275   4.510   0.262   0.878 -0.5131 -1.1798 -0.3288
  188MOL0     O25276   4.421   0.360   0.867  0.0374  0.0054  0.5534
  188MOL0     C25277   4.331   0.369   0.974  0.4272  0.5673  0.2771
  188MOL0     C25278   4.345   0.459   1.069  0.3093  1.1310  0.3514
  188MOL0     C25279   4.262   0.457   1.190 -0.1099 -1.0710  0.4994
  188MOL0     C25280   4.167   0.359   1.206 -0.2859  0.9466  0.0735
  188MOL0     O25281   4.114   0.367   1.333 -0.7075 -0.1473 -0.4360
  188MOL0     C25282   4.037   0.253   1.372  0.6114 -0.0230 -0.4218
  188MOL0     C25283   4.027   0.247   1.524  0.5067  0.1284 -0.6310
  188MOL0     C25284   3.981   0.379   1.589 -0.0422  1.3614 -0.2179
  188MOL0     C25285   3.909   0.349   1.723  0.2310 -0.2550 -0.0037
  188MOL0     C25286   4.011   0.316   1.832  1.0830  0.0017  0.0525
  188MOL0     C25287   3.951   0.312   1.973 -0.3747  1.2302  0.1887
  188MOL0     C25288   3.922   0.452   2.038  0.6145 -0.2519  0.2400
  188MOL0     C25289   3.794   0.441   2.129  0.4267 -0.7030  0.9036
  188MOL0    Cl25290   3.644   0.405   2.033 -0.4069  0.3977  0.0932
  188MOL0     C25291   4.133   0.274   1.094 -0.4395  0.9949  0.1878
  188MOL0     C25292   4.227   0.269   0.989 -0.2500  0.4322 -0.4858
  188MOL0     O25293   4.546   0.201   0.980  0.7118 -0.0307 -0.4823
  188MOL0     C25294   4.542   0.319   0.644  0.0670 -0.0886 -0.2552
  188MOL0     C25295   4.602   0.315   0.520  0.4964 -0.2341  0.4586
  188MOL0     N25296   5.172  -0.086   0.093 -0.4006 -0.5245  0.1062
  188MOL0     N25297   5.204  -0.102  -0.026 -0.7235  1.1472  0.5790
  188MOL0     C25298   5.355   0.603  -0.071  0.1948 -0.2868  0.0552
  188MOL0     C25299   5.244   0.657  -0.005 -0.6319 -0.8439  0.1904
  188MOL0     C25300   5.049   0.806   0.406 -0.0368 -0.0402  0.5192
  188MOL0     C25301   4.914   0.765   0.370 -0.6155 -0.0769  1.0406
  188MOL0     C25302   4.800   0.822   0.435  0.3196  0.8231 -0.3026
  188MOL0     C25303   4.825   0.898   0.548  0.0696  0.0315  0.7678
  188MOL0     O25304   4.718   0.950   0.620  0.5738 -0.7185  0.2945
  188MOL0     C25305   4.630   1.056   0.566 -0.0657  0.7274 -0.0643
  188MOL0     C25306   4.597   1.150   0.688  0.1121 -0.3785  0.0420
  188MOL0     C25307   4.555   1.291   0.640 -0.1681  0.2821 -0.5330
  188MOL0     C25308   4.500   1.370   0.766 -0.8146 -0.0097 -0.9813
  188MOL0     C25309   4.443   1.501   0.741  0.8641 -1.6848  0.1213
  188MOL0     C25310   4.374   1.598   0.712 -0.0281 -1.0437 -0.2169
  188MOL0     C25311   4.957   0.933   0.590  0.0873  0.1525  0.4453
  188MOL0     C25312   5.069   0.876   0.523  1.0409  0.6393 -0.0893
  188MOL0     H25313   5.294   0.499   0.296 -2.4866  0.1146 -0.2799
  188MOL0     H25314   5.467   0.394   0.164  2.1114  0.1854 -0.8538
  188MOL0     H25315   5.621   0.589  -0.200 -1.7841  1.1630 -0.8214
  188MOL0     H25316   5.695   0.560  -0.040  3.5310 -1.1218 -1.4793
  188MOL0     H25317   5.855   0.439  -0.199  0.2469  1.6140 -1.8004
  188MOL0     H25318   5.738   0.314  -0.141  1.1623 -0.5092 -0.7665
  188MOL0     H25319   5.718   0.493  -0.392  5.5217  0.5480  2.1947
  188MOL0     H25320   5.786   0.338  -0.409 -0.8203  0.3055 -2.0707
  188MOL0     H25321   5.490   0.370  -0.331 -0.5275 -0.2163 -1.5374
  188MOL0     H25322   5.560   0.323  -0.486 -3.9612 -0.1573  1.1363
  188MOL0     H25323   5.630   0.125  -0.439  2.7937 -0.3215  2.4767
  188MOL0     H25324   5.613   0.154  -0.259  2.3562  0.9698  0.0780
  188MOL0     H25325   5.391   0.170  -0.464  0.3989  2.4993  1.4125
  188MOL0     H25326   5.462   0.015  -0.417  1.7126  0.8172 -0.5942
  188MOL0     H25327   5.376   0.214  -0.198 -1.2145  0.9392  0.4296
  188MOL0     H25328   5.249   0.142  -0.290  0.4081  0.8128  1.1963
  188MOL0     H25329   5.462  -0.030  -0.154 -0.2838  0.0909  1.1728
  188MOL0     H25330   5.323  -0.098  -0.240  0.2749 -0.0497  0.1439
  188MOL0     H25331   5.364   0.184   0.036  1.2848 -0.9591  0.0546
  188MOL0     H25332   5.169   0.022   0.346 -0.9105  1.3269 -0.0093
  188MOL0     H25333   5.262   0.158   0.309 -0.0303  1.4913 -0.2386
  188MOL0     H25334   4.958   0.128   0.234 -0.7739 -0.1100  0.4439
  188MOL0     H25335   5.069   0.242   0.153  0.9680  1.1205  0.7118
  188MOL0     H25336   5.103   0.370   0.351  2.2169 -1.4998  1.0353
  188MOL0     H25337   5.060   0.234   0.454 -0.5409  0.8743  0.3207
  188MOL0     H25338   4.880   0.383   0.258  1.2864 -2.5645 -0.3070
  188MOL0     H25339   4.887   0.426   0.434  2.9694  0.0104  1.9904
  188MOL0     H25340   4.871   0.140   0.597  0.9916  0.9070 -1.7449
  188MOL0     H25341   4.883   0.086   0.818  0.1614 -2.3305 -1.2950
  188MOL0     H25342   4.798   0.180   0.940  0.1423  0.8753 -0.8522
  188MOL0     H25343   4.720   0.032   0.872 -2.0478  1.9810 -0.1677
  188MOL0     H25344   4.417   0.539   1.053  2.1307 -0.1535  1.6368
  188MOL0     H25345   4.289   0.528   1.266 -0.2633 -1.3090  0.7781
  188MOL0     H25346   3.931   0.265   1.349 -1.1112 -0.7494  5.4482
  188MOL0     H25347   4.076   0.159   1.331 -0.2889 -1.2716  1.4163
  188MOL0     H25348   3.967   0.162   1.558  1.8372 -0.2900  0.7743
  188MOL0     H25349   4.128   0.233   1.563 -0.4965  1.4290  2.8061
  188MOL0     H25350   3.912   0.434   1.524  0.6257  1.4615 -0.8608
  188MOL0     H25351   4.066   0.448   1.587 -1.5291  3.2514 -1.4875
  188MOL0     H25352   3.848   0.435   1.751  2.1794  1.1030  0.2006
  188MOL0     H25353   3.834   0.271   1.702 -0.5186  0.0544  1.4171
  188MOL0     H25354   4.088   0.394   1.825  2.6734 -1.1880  2.7717
  188MOL0     H25355   4.061   0.221   1.812  0.3528 -0.4636  0.4060
  188MOL0     H25356   3.865   0.245   1.967 -0.4581  1.1374  1.9282
  188MOL0     H25357   4.014   0.255   2.042 -2.1252  0.4272  1.1944
  188MOL0     H25358   3.912   0.528   1.961  0.5816 -3.1218 -2.8517
  188MOL0     H25359   4.004   0.485   2.103 -1.2012  3.2582  0.9763
  188MOL0     H25360   3.787   0.533   2.187  0.3147  0.8196 -1.4019
  188MOL0     H25361   3.813   0.360   2.200  3.4549 -4.0341 -3.1883
  188MOL0     H25362   4.059   0.196   1.105  1.3407 -0.5523  2.0427
  188MOL0     H25363   4.215   0.200   0.905 -1.4902  2.0217 -1.6832
  188MOL0     H25364   4.449   0.375   0.643 -2.0646 -3.2669  1.6018
  188MOL0     H25365   4.542   0.361   0.442 -0.2827 -0.9676  0.6042
  188MOL0     H25366   5.373   0.617  -0.178 -0.0845  0.9678  0.1506
  188MOL0     H25367   5.180   0.734  -0.047 -0.7324 -1.1003 -0.1317
  188MOL0     H25368   4.910   0.689   0.292  3.5361 -2.8231  3.0761
  188MOL0     H25369   4.696   0.800   0.409 -1.0064  4.9330  0.8222
  188MOL0     H25370   4.677   1.112   0.485 -6.2662  0.0990 -4.8533
  188MOL0     H25371   4.545   1.013   0.514  0.1719  1.4612 -1.0903
  188MOL0     H25372   4.675   1.167   0.762 -1.6541 -2.1019  2.4548
  188MOL0     H25373   4.510   1.108   0.739 -1.1202  0.6333 -1.1160
  188MOL0     H25374   4.477   1.274   0.566  0.3830 -2.3591 -0.6011
  188MOL0     H25375   4.636   1.349   0.596 -1.9554  4.9442  1.5614
  188MOL0     H25376   4.586   1.376   0.834 -0.9687  1.2450 -0.8675
  188MOL0     H25377   4.423   1.299   0.799 -0.2295 -1.9782 -3.5859
  188MOL0     H25378   4.312   1.679   0.682  0.7085  0.1177  1.2685
  188MOL0     H25379   4.955   0.998   0.677  0.8524  1.1607 -0.2661
  188MOL0     H25380   5.170   0.885   0.560  2.6650 -1.8407 -3.4024
  189MOL0     O25381   6.350   3.677   1.346 -0.3816  0.1931 -0.0928
  189MOL0     C25382   6.249   3.693   1.275  0.1770  0.6481  0.3938
  189MOL0     O25383   6.178   3.596   1.217  0.3695  1.1182  0.1672
  189MOL0     C25384   6.243   3.474   1.200 -1.0667  0.9245  0.5197
  189MOL0     C25385   6.371   3.469   1.148  0.7185 -0.1528  0.3802
  189MOL0     C25386   6.445   3.348   1.142 -0.0165 -0.2861 -0.6172
  189MOL0     C25387   6.401   3.227   1.204  0.6977  0.0134  0.2676
  189MOL0     O25388   6.493   3.121   1.210 -0.3350  0.1287  0.5646
  189MOL0     C25389   6.465   3.019   1.300 -1.3308  0.6699 -0.7310
  189MOL0     C25390   6.579   2.919   1.296 -0.9051 -0.9387 -0.7975
  189MOL0     C25391   6.708   2.972   1.379 -0.2368  0.4107 -0.0034
  189MOL0     C25392   6.828   2.964   1.296 -0.3609  0.5050 -0.8530
  189MOL0     C25393   6.818   3.061   1.179 -0.2213  0.2928 -0.8302
  189MOL0     C25394   6.947   3.074   1.096  1.2968 -0.1158 -0.1544
  189MOL0     C25395   6.928   3.155   0.972  0.8906  0.1850  0.0897
  189MOL0     C25396   6.877   3.289   1.002  0.4060 -0.7657 -0.3394
  189MOL0     N25397   6.884   3.384   0.888  0.2117  0.6308 -0.7388
  189MOL0     C25398   6.963   3.502   0.875 -0.1240  0.5607 -0.4225
  189MOL0     C25399   6.973   3.522   0.745  0.2322 -0.1031  0.1405
  189MOL0     C25400   7.070   3.618   0.685  1.0085 -0.2132 -0.8665
  189MOL0     C25401   6.998   3.744   0.642 -0.4476  0.9564  0.5479
  189MOL0     C25402   7.083   3.826   0.551  0.0481 -0.9866  0.4140
  189MOL0     C25403   7.117   3.949   0.640 -0.0647  0.1457 -0.1394
  189MOL0     O25404   7.214   3.900   0.736  0.1287 -1.0944 -0.0994
  189MOL0     C25405   7.311   3.990   0.786 -0.5259  0.0854  0.2749
  189MOL0     C25406   7.355   4.107   0.730 -1.2054  0.4352 -1.1148
  189MOL0     C25407   7.473   4.176   0.778 -0.3608 -0.3884  0.3252
  189MOL0     C25408   7.533   4.288   0.702  0.3888 -0.7071 -0.9742
  189MOL0     C25409   7.546   4.136   0.898  0.3039 -0.1551  0.4552
  189MOL0     C25410   7.651   4.203   0.984  0.5001 -0.2274  0.1683
  189MOL0     O25411   7.720   4.120   1.069  0.1027 -0.4496 -0.3322
  189MOL0     C25412   7.810   4.177   1.152 -0.1924 -0.5883  1.4977
  189MOL0     C25413   7.935   4.202   1.099  0.0491 -0.3646  0.6666
  189MOL0     C25414   8.030   4.259   1.179  0.0274 -1.2510  0.3602
  189MOL0     C25415   7.992   4.308   1.300 -1.0150  0.0979 -0.1567
  189MOL0     O25416   8.096   4.372   1.371  0.3588 -0.6502 -0.5150
  189MOL0     C25417   8.071   4.514   1.375  0.3711  0.4204 -0.0913
  189MOL0     C25418   8.205   4.587   1.397 -0.0359 -0.8263  1.0246
  189MOL0     C25419   8.166   4.735   1.368 -0.9552 -0.3203 -0.0443
  189MOL0     C25420   8.297   4.809   1.349 -0.2844 -0.3955 -0.8452
  189MOL0     C25421   8.277   4.959   1.306 -0.5313 -0.3008  1.0486
  189MOL0     C25422   8.211   5.053   1.415 -0.2677 -0.2279 -0.2881
  189MOL0     C25423   8.208   5.196   1.363 -0.5302 -0.5892  1.1782
  189MOL0     C25424   8.094   5.269   1.433  0.1179  0.8552 -0.8414
  189MOL0    Cl25425   7.923   5.215   1.411  0.7958  0.8172  0.1312
  189MOL0     C25426   7.872   4.294   1.354  0.0854 -0.1179  0.7229
  189MOL0     C25427   7.770   4.236   1.273 -0.3313  0.0479 -0.1388
  189MOL0     O25428   7.655   4.330   0.989 -0.0076  0.0695  0.5514
  189MOL0     C25429   7.489   4.014   0.954  0.3056  0.1216 -0.6952
  189MOL0     C25430   7.387   3.940   0.888  0.6700  0.4082 -0.8511
  189MOL0     N25431   6.910   3.417   0.682  0.5934  0.4791  0.5021
  189MOL0     N25432   6.852   3.339   0.769  1.3115  0.7049  0.8891
  189MOL0     C25433   6.259   3.229   1.248 -0.8342  0.2028 -0.2591
  189MOL0     C25434   6.183   3.350   1.251 -0.5221 -0.8919 -0.2167
  189MOL0     C25435   6.190   3.835   1.281 -0.6198 -0.2196  1.1927
  189MOL0     C25436   6.072   3.868   1.216 -0.3784  0.6810 -0.1574
  189MOL0     C25437   6.025   4.002   1.229 -0.0276  0.1626 -0.1415
  189MOL0     C25438   6.099   4.104   1.291 -0.7182 -0.1294  0.6889
  189MOL0     O25439   6.038   4.235   1.294 -0.0117  0.4249  0.3797
  189MOL0     C25440   6.136   4.346   1.288  0.1793 -1.2122 -0.3444
  189MOL0     C25441   6.228   4.338   1.162 -0.2296 -0.0533 -0.6821
  189MOL0     C25442   6.335   4.448   1.127 -0.1362 -0.4791 -0.3068
  189MOL0     C25443   6.288   4.589   1.136 -0.5132  0.6052  1.0797
  189MOL0     C25444   6.399   4.673   1.092  0.3910  0.8763 -0.0559
  189MOL0     C25445   6.486   4.738   1.028  0.1984 -0.2740  0.6548
  189MOL0     C25446   6.213   4.073   1.361 -0.4457  0.1846  0.6105
  189MOL0     C25447   6.263   3.942   1.348  0.7226 -0.6451 -0.4300
  189MOL0     H25448   6.414   3.564   1.120 -1.1091  0.7051  0.2949
  189MOL0     H25449   6.547   3.342   1.106 -0.6391 -1.2831 -2.3720
  189MOL0     H25450   6.443   3.048   1.403  1.1779  2.1876 -0.5384
  189MOL0     H25451   6.374   2.973   1.260  1.0767 -3.4794 -2.0380
  189MOL0     H25452   6.534   2.836   1.350 -1.3102  0.3144  0.8944
  189MOL0     H25453   6.609   2.888   1.196 -2.0219 -4.2050 -0.2179
  189MOL0     H25454   6.692   3.077   1.403  1.1891  1.3948 -2.9381
  189MOL0     H25455   6.731   2.914   1.469  2.0443 -3.1145 -2.6050
  189MOL0     H25456   6.922   2.975   1.351  0.5870  1.5820 -2.5684
  189MOL0     H25457   6.844   2.865   1.254 -0.6297 -0.8903  2.1102
  189MOL0     H25458   6.746   3.020   1.108  1.3094 -0.7652 -1.8414
  189MOL0     H25459   6.791   3.160   1.217  0.9441  0.5918 -0.7562
  189MOL0     H25460   7.027   3.114   1.159 -0.4585  4.2812 -0.3374
  189MOL0     H25461   6.976   2.972   1.070  0.1019 -0.6627  0.5501
  189MOL0     H25462   7.021   3.149   0.914 -1.2296 -0.3049 -3.6298
  189MOL0     H25463   6.851   3.112   0.907  0.2833  0.8013  0.3922
  189MOL0     H25464   6.940   3.336   1.079 -0.8351 -1.9140  1.4741
  189MOL0     H25465   6.773   3.300   1.034  0.8345  2.6329  0.2660
  189MOL0     H25466   7.002   3.567   0.952 -2.1945  3.1586 -1.3955
  189MOL0     H25467   7.154   3.636   0.753  0.7238  1.1860 -0.8676
  189MOL0     H25468   7.118   3.569   0.600 -0.0518 -0.3903 -1.3877
  189MOL0     H25469   6.975   3.794   0.737  1.6374  2.2884  0.4071
  189MOL0     H25470   6.899   3.728   0.597  0.3249 -0.5014 -0.7279
  189MOL0     H25471   7.032   3.873   0.466  3.3437  0.8425 -0.7396
  189MOL0     H25472   7.184   3.796   0.522  0.3243  2.2555 -2.6457
  189MOL0     H25473   7.037   3.999   0.696  0.7528 -0.6157  1.7769
  189MOL0     H25474   7.148   4.036   0.580  1.4234 -1.5535 -1.9634
  189MOL0     H25475   7.299   4.142   0.643 -1.5250  1.1938 -0.6159
  189MOL0     H25476   7.527   4.293   0.593 -3.1960  3.2443 -0.8683
  189MOL0     H25477   7.479   4.377   0.735 -1.4389 -2.3619  0.7829
  189MOL0     H25478   7.639   4.303   0.723  0.0111  1.8444 -0.5417
  189MOL0     H25479   7.967   4.177   0.998 -2.1008 -0.2988 -0.0847
  189MOL0     H25480   8.130   4.278   1.142  0.5483  2.7668  3.1616
  189MOL0     H25481   8.021   4.543   1.282  0.2309 -0.8076 -0.4190
  189MOL0     H25482   8.015   4.534   1.467 -2.3090 -6.3695  0.3474
  189MOL0     H25483   8.253   4.576   1.495 -1.5593 -2.6582  1.6349
  189MOL0     H25484   8.274   4.554   1.318 -2.9892  3.6402 -4.0644
  189MOL0     H25485   8.125   4.788   1.455  3.5439  2.3903  0.7176
  189MOL0     H25486   8.096   4.755   1.286 -1.4283  4.2395  1.2186
  189MOL0     H25487   8.347   4.801   1.446  1.7001  0.1723 -1.7590
  189MOL0     H25488   8.363   4.760   1.276  1.3233  2.8424 -1.7297
  189MOL0     H25489   8.218   4.959   1.214 -0.9132 -0.2969  1.2896
  189MOL0     H25490   8.378   4.998   1.295  1.0551 -4.4254 -1.3300
  189MOL0     H25491   8.107   5.028   1.438 -0.6070  1.8004  0.6201
  189MOL0     H25492   8.265   5.055   1.510  0.8557  0.9971 -0.9182
  189MOL0     H25493   8.198   5.202   1.254  1.3656  0.4589  1.0247
  189MOL0     H25494   8.296   5.256   1.389 -3.5155  2.4482  5.5664
  189MOL0     H25495   8.104   5.370   1.391 -2.0291  1.6360  0.3333
  189MOL0     H25496   8.121   5.269   1.539  1.8838  0.0086 -1.2561
  189MOL0     H25497   7.836   4.333   1.448 -2.5886  0.8048 -0.5711
  189MOL0     H25498   7.666   4.220   1.301 -0.2460  0.8899  0.7068
  189MOL0     H25499   7.532   3.968   1.042  0.7058 -2.5282 -2.1581
  189MOL0     H25500   7.340   3.850   0.927  0.9855  1.4423  2.1212
  189MOL0     H25501   6.214   3.137   1.284 -4.4716  2.9428  3.1025
  189MOL0     H25502   6.091   3.328   1.305 -1.0524 -0.9993 -1.1547
  189MOL0     H25503   6.011   3.782   1.189 -0.1290 -0.8819  3.6415
  189MOL0     H25504   5.931   4.033   1.184  0.2358  0.4327 -0.5236
  189MOL0     H25505   6.068   4.431   1.284 -2.0254 -2.5761  3.1071
  189MOL0     H25506   6.209   4.347   1.369  4.0007  1.4256 -3.4684
  189MOL0     H25507   6.168   4.309   1.075 -2.6077  0.4174  0.7049
  189MOL0     H25508   6.304   4.260   1.171  0.4450  0.6055 -0.5917
  189MOL0     H25509   6.398   4.429   1.039  3.3471  0.9018  1.6896
  189MOL0     H25510   6.401   4.444   1.214 -1.5503 -3.0159  0.7587
  189MOL0     H25511   6.255   4.613   1.237 -0.1730  0.0191  1.3331
  189MOL0     H25512   6.220   4.602   1.051  2.5053 -0.2781 -1.6578
  189MOL0     H25513   6.574   4.792   1.000  2.6711 -4.2362 -0.0273
  189MOL0     H25514   6.256   4.151   1.424 -0.8283  0.6036  0.3640
  189MOL0     H25515   6.360   3.926   1.395  1.6145  3.7542 -0.3355
  190MOL0     O25516   0.608  11.492   5.912  0.1904 -0.0707  0.2104
  190MOL0     C25517   0.597  11.552   6.018  0.0073  0.7264  0.0036
  190MOL0     O25518   0.692  11.645   6.060  0.5925 -0.1907 -0.6989
  190MOL0     C25519   0.794  11.670   5.970 -0.3393  0.2915 -0.7320
  190MOL0     C25520   0.922  11.617   5.991 -1.6636  0.5870 -0.9814
  190MOL0     C25521   1.021  11.629   5.888  0.3915 -1.0707 -0.7175
  190MOL0     C25522   0.999  11.720   5.778  0.6215 -0.0444 -1.0170
  190MOL0     O25523   1.103  11.728   5.688  0.6141 -0.2516  0.0024
  190MOL0     C25524   1.090  11.809   5.569 -0.2658 -0.1789  0.0989
  190MOL0     C25525   1.183  11.748   5.459  0.2085 -0.3921 -0.3784
  190MOL0     C25526   1.204  11.851   5.346 -0.9051 -0.0049 -0.6273
  190MOL0     C25527   1.321  11.804   5.261  0.3675  0.8494  0.4855
  190MOL0     C25528   1.336  11.874   5.128  1.4583 -0.8490  0.3443
  190MOL0     C25529   1.465  11.840   5.053  0.2942  0.2218 -0.2885
  190MOL0     C25530   1.506  11.921   4.929  0.6193 -0.4384  0.9564
  190MOL0     C25531   1.499  12.071   4.951  0.1139  1.2436 -0.6145
  190MOL0     N25532   1.537  12.134   4.826 -0.3674  0.2000 -0.5452
  190MOL0     C25533   1.669  12.130   4.780  0.6590 -0.0521  0.7867
  190MOL0     C25534   1.665  12.196   4.660 -0.5849  0.5369  0.3059
  190MOL0     C25535   1.791  12.233   4.588 -0.0129  0.4692 -0.3939
  190MOL0     C25536   1.786  12.335   4.465  0.1276  0.8431  0.4950
  190MOL0     C25537   1.699  12.286   4.345  0.0710 -0.4884 -0.6923
  190MOL0     C25538   1.770  12.180   4.256  0.9212  0.7084 -1.6366
  190MOL0     O25539   1.854  12.259   4.170 -0.7087 -0.0201 -0.2999
  190MOL0     C25540   1.963  12.202   4.101  0.5031 -0.1468 -0.7595
  190MOL0     C25541   2.042  12.295   4.042 -0.3348 -0.5200 -0.2251
  190MOL0     C25542   2.158  12.258   3.970  0.2436 -0.0812  0.0665
  190MOL0     C25543   2.247  12.383   3.928  0.0915 -0.1369  0.0076
  190MOL0     C25544   2.184  12.121   3.941  1.7285 -0.0361 -0.5562
  190MOL0     C25545   2.297  12.067   3.872  0.1425 -0.4355 -0.5798
  190MOL0     O25546   2.297  11.936   3.864  0.4790  0.1074  0.0552
  190MOL0     C25547   2.409  11.874   3.808  0.5211 -0.0295 -0.7092
  190MOL0     C25548   2.541  11.894   3.870 -0.2195 -0.2463  0.0464
  190MOL0     C25549   2.646  11.814   3.819  0.0264  0.4162  0.8283
  190MOL0     C25550   2.637  11.722   3.713 -0.3180 -0.4587 -0.4159
  190MOL0     O25551   2.742  11.641   3.665 -1.2147 -0.1416 -0.1630
  190MOL0     C25552   2.843  11.582   3.758 -0.1646 -0.1506 -0.1746
  190MOL0     C25553   2.880  11.437   3.728 -0.3941 -1.2276  0.8886
  190MOL0     C25554   2.767  11.346   3.760 -0.1141  1.0082 -0.4857
  190MOL0     C25555   2.812  11.194   3.749  0.4581 -0.1736 -0.2695
  190MOL0     C25556   2.685  11.110   3.790  0.0377  0.4212  0.7141
  190MOL0     C25557   2.619  11.139   3.930 -0.9950  0.0875 -0.4708
  190MOL0     C25558   2.519  11.034   3.974 -0.7008 -0.0261 -0.2323
  190MOL0     C25559   2.504  11.036   4.124  0.1592 -0.2452  0.6868
  190MOL0    Cl25560   2.440  11.188   4.182 -0.6156 -0.4663 -0.1228
  190MOL0     C25561   2.520  11.723   3.647  0.6870  1.0800  0.5293
  190MOL0     C25562   2.413  11.792   3.692 -0.2584 -0.7879  0.4739
  190MOL0     O25563   2.386  12.144   3.828  0.0076  0.2533 -0.3457
  190MOL0     C25564   2.087  12.025   3.997 -0.8560 -0.6421  0.1230
  190MOL0     C25565   1.985  12.065   4.076  0.0963  0.1709 -0.7729
  190MOL0     N25566   1.537  12.228   4.637 -0.0421 -0.1621  0.2937
  190MOL0     N25567   1.464  12.186   4.729  0.8535  0.6158  0.0917
  190MOL0     C25568   0.872  11.778   5.762  0.0775  0.4216  0.4133
  190MOL0     C25569   0.768  11.746   5.851  0.6877 -0.8047 -0.0314
  190MOL0     C25570   0.481  11.526   6.101 -0.3438 -0.5885 -0.9230
  190MOL0     C25571   0.450  11.614   6.208  0.0780  0.7226  0.0409
  190MOL0     C25572   0.343  11.576   6.289 -0.7659 -0.0178  0.0562
  190MOL0     C25573   0.280  11.456   6.273 -0.3787  0.8546  0.3123
  190MOL0     O25574   0.189  11.415   6.366  1.0549  0.2245 -0.3019
  190MOL0     C25575   0.109  11.499   6.444 -0.0082 -0.3778  0.0258
  190MOL0     C25576  -0.019  11.544   6.376  0.3956  0.1576 -0.0995
  190MOL0     C25577  -0.103  11.617   6.486 -0.6083  0.2560  0.7005
  190MOL0     C25578  -0.218  11.695   6.428 -1.5954  0.2912  0.1763
  190MOL0     C25579  -0.326  11.606   6.401 -0.0659  0.2320  1.1814
  190MOL0     C25580  -0.407  11.518   6.371  0.8183 -0.3787  0.1241
  190MOL0     C25581   0.311  11.361   6.173 -0.0170 -0.7014  0.5909
  190MOL0     C25582   0.409  11.401   6.087  0.4938  1.0155  0.0504
  190MOL0     H25583   0.942  11.554   6.078 -0.7131 -0.5732 -2.0045
  190MOL0     H25584   1.115  11.576   5.892  2.4159  2.1708 -1.0497
  190MOL0     H25585   0.988  11.794   5.531 -0.2128  1.7486 -0.9505
  190MOL0     H25586   1.116  11.909   5.604  0.1939 -0.2738  0.0281
  190MOL0     H25587   1.280  11.720   5.501  1.0946  0.5450 -1.6947
  190MOL0     H25588   1.129  11.659   5.425  0.7357 -1.0040  0.3568
  190MOL0     H25589   1.110  11.854   5.290  0.2664 -2.7136 -3.0224
  190MOL0     H25590   1.236  11.947   5.385 -0.4494 -0.3854 -0.0539
  190MOL0     H25591   1.408  11.804   5.326  0.6621 -3.2032  0.3732
  190MOL0     H25592   1.297  11.700   5.236 -1.3154  1.1686  0.6221
  190MOL0     H25593   1.259  11.851   5.054  2.2428  0.3579 -0.9099
  190MOL0     H25594   1.340  11.979   5.158  2.1020 -1.1197  1.2520
  190MOL0     H25595   1.547  11.839   5.126 -0.6221  0.4475  0.7873
  190MOL0     H25596   1.463  11.736   5.022  0.5465  0.5274 -1.3715
  190MOL0     H25597   1.606  11.901   4.890  1.2486  0.8510  1.8031
  190MOL0     H25598   1.447  11.894   4.841 -0.6544  0.5177  1.4792
  190MOL0     H25599   1.572  12.087   5.031  1.1572  0.6178 -1.4039
  190MOL0     H25600   1.402  12.112   4.981 -0.1339  0.0486  0.2680
  190MOL0     H25601   1.753  12.083   4.830 -1.6698 -1.7953  3.3951
  190MOL0     H25602   1.864  12.288   4.649 -0.9603  4.2730 -2.3591
  190MOL0     H25603   1.831  12.139   4.551 -1.7481  0.7005 -3.1883
  190MOL0     H25604   1.885  12.370   4.434  1.0147 -0.4577  1.7028
  190MOL0     H25605   1.737  12.422   4.508  1.5362  1.1824  1.5044
  190MOL0     H25606   1.679  12.369   4.277 -0.4935  3.9864  4.2805
  190MOL0     H25607   1.611  12.230   4.377  1.9421 -2.9473  0.5601
  190MOL0     H25608   1.695  12.134   4.191 -1.8775  0.3976  1.5567
  190MOL0     H25609   1.820  12.101   4.312 -4.2428 -1.1261  1.0644
  190MOL0     H25610   2.012  12.399   4.048 -0.4974 -0.6612  2.9313
  190MOL0     H25611   2.332  12.399   3.995  0.2655  1.6286 -0.5621
  190MOL0     H25612   2.282  12.363   3.826  0.7483  1.5518 -0.1261
  190MOL0     H25613   2.189  12.474   3.909 -1.4488 -0.9919  0.5138
  190MOL0     H25614   2.565  11.956   3.956 -0.9235 -1.2413  0.9872
  190MOL0     H25615   2.744  11.823   3.866  0.0638  0.9228  0.6530
  190MOL0     H25616   2.929  11.644   3.731  1.1635 -2.2367 -0.9529
  190MOL0     H25617   2.803  11.591   3.860 -0.8209  0.9925 -0.5100
  190MOL0     H25618   2.890  11.418   3.621  1.2602 -0.6128  0.9079
  190MOL0     H25619   2.976  11.406   3.771 -0.2683 -2.0921  0.0304
  190MOL0     H25620   2.673  11.371   3.710  0.4452  0.2132 -2.0069
  190MOL0     H25621   2.743  11.362   3.866 -1.8641 -4.4185  0.2415
  190MOL0     H25622   2.829  11.172   3.644  2.1064  1.4783 -0.3950
  190MOL0     H25623   2.897  11.173   3.814 -0.9713  1.5330  2.3461
  190MOL0     H25624   2.704  11.003   3.778  1.5937  0.9595 -2.9741
  190MOL0     H25625   2.605  11.143   3.723 -0.1529  1.3187  1.3719
  190MOL0     H25626   2.701  11.133   4.003 -2.1264 -3.4621  0.7360
  190MOL0     H25627   2.574  11.238   3.930  0.2849  0.8708 -4.7981
  190MOL0     H25628   2.564  10.938   3.944 -1.4413  0.3045 -2.6306
  190MOL0     H25629   2.424  11.043   3.920 -0.8265 -2.0142 -0.4399
  190MOL0     H25630   2.598  11.021   4.178 -0.3286 -1.1433  1.3245
  190MOL0     H25631   2.439  10.952   4.151  1.0576 -1.0207  0.5004
  190MOL0     H25632   2.519  11.653   3.564  1.7208  0.0666  1.3294
  190MOL0     H25633   2.324  11.774   3.632  0.8946  0.9250 -1.9336
  190MOL0     H25634   2.101  11.920   3.977 -0.0712 -0.2532 -1.4998
  190MOL0     H25635   1.915  11.985   4.099  2.2929 -1.5562  0.3133
  190MOL0     H25636   0.850  11.843   5.678  0.0714  2.7507  2.1126
  190MOL0     H25637   0.670  11.790   5.834 -1.2253 -4.5926 -0.0698
  190MOL0     H25638   0.502  11.705   6.236 -2.3082  1.8894  0.8851
  190MOL0     H25639   0.322  11.628   6.382  3.0492  2.7321 -0.3770
  190MOL0     H25640   0.083  11.442   6.534  0.3631 -2.5316 -1.1664
  190MOL0     H25641   0.155  11.592   6.479 -0.3737 -0.0441 -0.3620
  190MOL0     H25642  -0.074  11.455   6.343  2.5292 -0.6963 -1.5280
  190MOL0     H25643   0.009  11.606   6.290  3.1694 -0.2262  0.4268
  190MOL0     H25644  -0.028  11.684   6.528  0.1751  1.2680 -2.1371
  190MOL0     H25645  -0.140  11.544   6.560 -0.7320 -1.1136 -0.6644
  190MOL0     H25646  -0.198  11.742   6.331 -0.1825  1.4651  0.9814
  190MOL0     H25647  -0.246  11.774   6.499  0.1415 -0.1796  1.4602
  190MOL0     H25648  -0.469  11.434   6.344  1.3928 -1.1205  1.0288
  190MOL0     H25649   0.263  11.264   6.169  0.3060 -0.8704  0.7423
  190MOL0     H25650   0.426  11.332   6.006 -2.0730  3.1068 -2.4699
  191MOL0     O25651   7.625   8.329  10.655  0.4334 -0.6682 -0.6179
  191MOL0     C25652   7.622   8.436  10.596 -0.2031 -0.8440 -0.0493
  191MOL0     O25653   7.637   8.560  10.652  0.0834 -0.4365  0.3317
  191MOL0     C25654   7.645   8.590  10.785  0.4588  0.1938 -0.5780
  191MOL0     C25655   7.589   8.707  10.831 -0.0687 -0.6059 -0.6405
  191MOL0     C25656   7.614   8.735  10.971  0.8925  0.7620  1.4030
  191MOL0     C25657   7.674   8.649  11.067  0.3683  0.0243  1.3497
  191MOL0     O25658   7.652   8.683  11.191  0.2637 -0.3547 -0.9736
  191MOL0     C25659   7.742   8.623  11.284 -0.0611 -0.0113  0.9943
  191MOL0     C25660   7.762   8.701  11.419  0.1853  0.4669 -0.6934
  191MOL0     C25661   7.641   8.757  11.491  0.8091 -0.2542 -0.3701
  191MOL0     C25662   7.578   8.640  11.574 -1.0911  0.6015 -0.2543
  191MOL0     C25663   7.477   8.694  11.672  0.3357  0.0053 -0.1284
  191MOL0     C25664   7.354   8.789  11.637 -0.7622 -0.1452 -1.7280
  191MOL0     C25665   7.236   8.734  11.551 -0.3002 -0.0315  0.1546
  191MOL0     C25666   7.121   8.690  11.639 -0.3458 -0.0339  0.7348
  191MOL0     N25667   7.033   8.592  11.569 -0.5483  0.7579  0.0984
  191MOL0     C25668   7.071   8.464  11.544  0.2380  0.4062  0.6994
  191MOL0     C25669   6.964   8.418  11.472 -0.0962  1.4965 -0.1488
  191MOL0     C25670   6.934   8.276  11.434 -0.5587  0.1739 -0.0662
  191MOL0     C25671   7.030   8.233  11.321 -0.9298  0.0354  0.3650
  191MOL0     C25672   6.961   8.140  11.217 -1.0571 -0.0055  0.9908
  191MOL0     C25673   7.066   8.053  11.141 -0.4554  0.3909 -0.4133
  191MOL0     O25674   7.115   7.942  11.223 -0.2709  0.6119 -0.6916
  191MOL0     C25675   7.171   7.841  11.151 -0.6723  0.8390  0.0685
  191MOL0     C25676   7.239   7.861  11.040 -1.0186 -0.3173  0.1496
  191MOL0     C25677   7.261   7.753  10.950 -0.6369 -0.2885 -1.0692
  191MOL0     C25678   7.330   7.771  10.824 -0.8332  0.4371  0.6811
  191MOL0     C25679   7.236   7.619  10.989  0.6592  0.1707 -0.4830
  191MOL0     C25680   7.252   7.496  10.909  0.1188  0.9574  0.3755
  191MOL0     O25681   7.279   7.385  10.986 -0.9460  1.3022  0.5258
  191MOL0     C25682   7.348   7.284  10.931  0.0220 -0.6453  0.2443
  191MOL0     C25683   7.486   7.286  10.885 -0.1622 -0.3802 -0.4796
  191MOL0     C25684   7.554   7.188  10.830  0.2309  1.8382  0.1280
  191MOL0     C25685   7.494   7.059  10.846  0.1247 -0.0242  0.3849
  191MOL0     O25686   7.563   6.942  10.804  1.0138  0.4762 -0.1488
  191MOL0     C25687   7.704   6.945  10.764 -0.2491 -0.4915  0.1671
  191MOL0     C25688   7.760   6.799  10.770  0.1877  0.9859  0.0436
  191MOL0     C25689   7.674   6.714  10.678  0.4771  0.2139 -0.0075
  191MOL0     C25690   7.733   6.577  10.658  0.7291  0.1477  0.5266
  191MOL0     C25691   7.721   6.537  10.511  0.0251  0.1416 -0.0993
  191MOL0     C25692   7.814   6.424  10.476  0.1574 -0.1754  0.1984
  191MOL0     C25693   7.798   6.289  10.547 -0.6645 -0.2460  0.5183
  191MOL0     C25694   7.878   6.183  10.468  0.3141 -0.1505 -0.6487
  191MOL0    Cl25695   7.823   6.148  10.304 -0.1676 -0.0984  0.5707
  191MOL0     C25696   7.366   7.048  10.886 -0.2269 -0.2579  0.3902
  191MOL0     C25697   7.289   7.159  10.930 -0.8935  0.1556 -0.4067
  191MOL0     O25698   7.249   7.506  10.790  0.0994  0.2554 -0.4037
  191MOL0     C25699   7.177   7.604  11.115 -0.4365  0.6594  0.0759
  191MOL0     C25700   7.154   7.707  11.198 -0.0638 -0.2476 -0.4629
  191MOL0     N25701   6.863   8.511  11.454  0.3590 -0.0985 -0.2505
  191MOL0     N25702   6.913   8.620  11.510 -0.4049  0.4295 -0.3074
  191MOL0     C25703   7.720   8.531  11.016 -0.1812 -0.4412  0.6748
  191MOL0     C25704   7.710   8.505  10.880  0.7073  0.7735  0.4911
  191MOL0     C25705   7.636   8.429  10.448  0.4940 -0.3916  1.2186
  191MOL0     C25706   7.621   8.303  10.391  0.9756 -0.2450  0.2344
  191MOL0     C25707   7.622   8.284  10.247 -0.8551 -0.6782 -0.3132
  191MOL0     C25708   7.646   8.394  10.164 -0.5564  0.1053  0.2027
  191MOL0     O25709   7.658   8.382  10.026  0.0783  0.5467 -0.0908
  191MOL0     C25710   7.654   8.250   9.968 -0.4662 -0.4636  0.3424
  191MOL0     C25711   7.683   8.271   9.815 -0.0834  0.1559 -0.4127
  191MOL0     C25712   7.572   8.312   9.725 -0.0340 -1.3055  0.3567
  191MOL0     C25713   7.579   8.452   9.675  0.1586  0.7936 -0.4813
  191MOL0     C25714   7.606   8.558   9.772 -1.0561 -0.3345  0.2669
  191MOL0     C25715   7.643   8.653   9.838  0.7318  0.0362  0.4393
  191MOL0     C25716   7.665   8.518  10.220  0.2943  0.2369 -0.2055
  191MOL0     C25717   7.660   8.532  10.356 -0.4090  0.3180 -0.5600
  191MOL0     H25718   7.557   8.774  10.752 -0.6445 -0.0226  0.0730
  191MOL0     H25719   7.584   8.828  11.019 -2.2712 -0.1243  1.3801
  191MOL0     H25720   7.690   8.530  11.308 -1.0877 -0.6902 -3.1572
  191MOL0     H25721   7.839   8.611  11.235 -0.1098  1.1212  0.5885
  191MOL0     H25722   7.810   8.628  11.484  0.1026  1.6470  0.7323
  191MOL0     H25723   7.821   8.792  11.406 -0.6751  1.5281  2.2127
  191MOL0     H25724   7.686   8.822  11.567 -0.5003 -1.2069  1.2951
  191MOL0     H25725   7.573   8.797  11.416  2.9802  2.3087 -1.1165
  191MOL0     H25726   7.537   8.570  11.501 -1.0078  0.8269 -0.5202
  191MOL0     H25727   7.652   8.585  11.634 -3.1742 -0.4233  1.5217
  191MOL0     H25728   7.430   8.607  11.720  1.0624  1.2215  3.1021
  191MOL0     H25729   7.531   8.740  11.755 -0.2281  0.1238  0.1784
  191MOL0     H25730   7.327   8.830  11.734  3.8453 -1.4477  0.3853
  191MOL0     H25731   7.402   8.871  11.583  3.9163 -2.3759 -1.5557
  191MOL0     H25732   7.200   8.819  11.493  1.4208  0.2212 -0.6132
  191MOL0     H25733   7.269   8.656  11.481 -0.7407 -0.2890  0.2354
  191MOL0     H25734   7.063   8.770  11.686 -0.1820 -1.7820  4.2178
  191MOL0     H25735   7.158   8.646  11.732 -1.8861 -0.7011  1.0565
  191MOL0     H25736   7.159   8.405  11.571 -0.9478 -3.2204 -2.4161
  191MOL0     H25737   6.957   8.209  11.517  2.2414  0.9145 -0.1654
  191MOL0     H25738   6.829   8.267  11.401 -0.4168  0.5461 -0.6382
  191MOL0     H25739   7.118   8.184  11.365 -1.1076  1.2119  2.1421
  191MOL0     H25740   7.058   8.317  11.258  2.0824 -0.8448  0.3611
  191MOL0     H25741   6.907   8.199  11.143  0.0287  0.7099  0.7417
  191MOL0     H25742   6.888   8.076  11.267 -1.9151  1.1702  1.2849
  191MOL0     H25743   7.146   8.124  11.115 -3.0321  4.3478  1.5102
  191MOL0     H25744   7.009   8.007  11.060 -2.1741 -1.2895  1.6533
  191MOL0     H25745   7.287   7.955  11.018 -0.8040 -0.1154  1.3923
  191MOL0     H25746   7.369   7.873  10.821  1.0921 -0.1751  2.5063
  191MOL0     H25747   7.406   7.692  10.816 -2.3123 -1.0968  1.1757
  191MOL0     H25748   7.252   7.764  10.748 -1.3492  3.2932  0.8515
  191MOL0     H25749   7.531   7.385  10.892  2.4225 -1.6023  2.8239
  191MOL0     H25750   7.656   7.210  10.800 -0.2519  1.7192 -1.6993
  191MOL0     H25751   7.724   6.989  10.666  1.5820 -3.7470 -1.1063
  191MOL0     H25752   7.745   7.010  10.841 -2.0335 -0.1546  0.8874
  191MOL0     H25753   7.859   6.816  10.726  0.2607  2.9601  0.8925
  191MOL0     H25754   7.777   6.765  10.872  2.0438 -2.5412 -1.2426
  191MOL0     H25755   7.658   6.775  10.589  0.9602  1.1309  0.5165
  191MOL0     H25756   7.570   6.693  10.707  0.3715 -0.1717 -0.6327
  191MOL0     H25757   7.841   6.586  10.672  1.1867  0.3914 -2.4157
  191MOL0     H25758   7.692   6.502  10.727  1.1841  1.1318  1.9034
  191MOL0     H25759   7.758   6.616  10.446  2.4545 -1.4838 -0.8198
  191MOL0     H25760   7.618   6.507  10.488 -0.4897  1.4631  0.3613
  191MOL0     H25761   7.799   6.404  10.369 -0.8887  3.0100 -0.3516
  191MOL0     H25762   7.919   6.452  10.492 -0.0256 -0.3822  2.0023
  191MOL0     H25763   7.690   6.272  10.557 -1.2282  1.2532 -2.1911
  191MOL0     H25764   7.836   6.294  10.650 -2.7757 -1.6633  1.4526
  191MOL0     H25765   7.871   6.091  10.527 -1.2944  0.9011  0.9081
  191MOL0     H25766   7.985   6.208  10.478  0.0144  1.2392 -0.6228
  191MOL0     H25767   7.313   6.956  10.865 -0.9135  0.6205 -2.1417
  191MOL0     H25768   7.188   7.140  10.964 -1.2841 -0.4774 -1.8332
  191MOL0     H25769   7.140   7.508  11.152  1.2220  1.5848  4.8121
  191MOL0     H25770   7.096   7.698  11.290 -0.5713 -0.9340 -0.8396
  191MOL0     H25771   7.769   8.464  11.086 -3.6203 -2.7274  1.1288
  191MOL0     H25772   7.760   8.423  10.829  2.2389  2.5233 -0.9901
  191MOL0     H25773   7.587   8.228  10.461 -4.1457  0.9782 -0.5642
  191MOL0     H25774   7.601   8.187  10.204  0.0577 -1.3492  0.7015
  191MOL0     H25775   7.732   8.190  10.016  0.2470 -2.3764 -2.9233
  191MOL0     H25776   7.554   8.207   9.981 -1.4777  1.7621  0.3062
  191MOL0     H25777   7.715   8.174   9.775 -0.5730  0.0237 -0.4938
  191MOL0     H25778   7.768   8.340   9.811  0.6197 -0.6680 -0.1547
  191MOL0     H25779   7.481   8.299   9.783  0.3114 -0.7100  1.0381
  191MOL0     H25780   7.565   8.257   9.631 -4.2234 -0.3775 -0.0823
  191MOL0     H25781   7.486   8.483   9.626 -0.7605  2.0593  1.8817
  191MOL0     H25782   7.664   8.437   9.608 -1.6744 -1.4858 -2.4882
  191MOL0     H25783   7.671   8.729   9.908 -0.7332 -0.6578  1.8376
  191MOL0     H25784   7.680   8.605  10.156 -1.8484  0.1467 -0.9062
  191MOL0     H25785   7.660   8.632  10.398  0.6029  0.3049 -0.5180
  192MOL0     O25786   7.489   2.522   8.291  0.1436 -0.1014 -0.1994
  192MOL0     C25787   7.540   2.560   8.190 -0.7478  0.3193 -0.5039
  192MOL0     O25788   7.534   2.678   8.144 -0.0115 -0.3392  0.3433
  192MOL0     C25789   7.459   2.767   8.226  0.8681  1.0212  0.6634
  192MOL0     C25790   7.511   2.894   8.226 -0.4390 -0.0889  0.4012
  192MOL0     C25791   7.447   2.999   8.278  0.3007 -0.6188 -1.8860
  192MOL0     C25792   7.328   2.981   8.346 -0.4367 -0.1942  0.2314
  192MOL0     O25793   7.256   3.084   8.411 -0.4990  0.2951 -0.4757
  192MOL0     C25794   7.214   3.190   8.332  0.3382 -0.3890  0.4051
  192MOL0     C25795   7.090   3.153   8.250 -0.1964  1.1444 -0.5399
  192MOL0     C25796   7.017   3.275   8.190 -0.0554 -1.2763 -0.0149
  192MOL0     C25797   6.922   3.233   8.075  0.7002 -0.2452  1.3103
  192MOL0     C25798   6.823   3.348   8.052 -0.0368 -1.2189  1.0765
  192MOL0     C25799   6.675   3.322   8.002 -0.1613  0.0782  0.3186
  192MOL0     C25800   6.579   3.439   8.007 -0.0210 -0.0405 -0.4912
  192MOL0     C25801   6.510   3.454   8.135 -0.2370 -0.1465  0.0077
  192MOL0     N25802   6.412   3.567   8.119 -0.2924  0.2829 -0.1737
  192MOL0     C25803   6.435   3.697   8.082 -0.1533  0.5383  0.3940
  192MOL0     C25804   6.310   3.750   8.075 -0.1209  0.1698  0.4073
  192MOL0     C25805   6.259   3.875   8.007 -1.0742  0.6251 -0.3505
  192MOL0     C25806   6.336   3.996   8.077 -0.3524 -0.0541  0.6845
  192MOL0     C25807   6.362   4.086   7.963  0.3130 -0.0572 -0.3979
  192MOL0     C25808   6.370   4.239   8.005  0.1270  1.7266  0.0148
  192MOL0     O25809   6.378   4.309   7.886  0.3741  0.1945  0.4055
  192MOL0     C25810   6.285   4.411   7.861  0.4943 -0.0603 -0.4623
  192MOL0     C25811   6.245   4.419   7.729 -0.6869  0.3340 -0.7588
  192MOL0     C25812   6.159   4.518   7.678 -0.6411 -0.4717 -0.9487
  192MOL0     C25813   6.127   4.515   7.533  0.3676 -0.7298  0.8284
  192MOL0     C25814   6.109   4.614   7.776  0.4032  0.3458  0.1017
  192MOL0     C25815   6.020   4.728   7.744  0.2087 -0.1900  0.2659
  192MOL0     O25816   5.915   4.763   7.822 -0.3681 -0.6490  0.6002
  192MOL0     C25817   5.846   4.874   7.788  0.5387  0.9542 -0.1605
  192MOL0     C25818   5.902   4.993   7.816 -0.2502 -0.5577  0.4006
  192MOL0     C25819   5.818   5.107   7.808 -0.1779  0.3612 -0.1768
  192MOL0     C25820   5.683   5.097   7.772 -0.7311  0.6649 -0.2240
  192MOL0     O25821   5.615   5.212   7.774  0.4665  0.1282  0.3827
  192MOL0     C25822   5.586   5.271   7.655 -0.5446 -0.8434 -0.1086
  192MOL0     C25823   5.508   5.397   7.682  0.4795  0.0697  0.4624
  192MOL0     C25824   5.595   5.503   7.746  1.1417  0.2433  0.1352
  192MOL0     C25825   5.504   5.633   7.750  0.2294  1.6332  1.4959
  192MOL0     C25826   5.557   5.744   7.845 -0.1713 -0.2160 -0.5063
  192MOL0     C25827   5.656   5.847   7.780 -1.3570  0.4238  0.7893
  192MOL0     C25828   5.588   5.943   7.686 -0.7350 -0.8680 -0.8673
  192MOL0     C25829   5.688   6.052   7.644 -0.3866  0.5859  1.3443
  192MOL0    Cl25830   5.766   5.993   7.490  0.7417  0.5252 -0.3479
  192MOL0     C25831   5.631   4.970   7.747  0.7647  0.6947  0.7599
  192MOL0     C25832   5.710   4.857   7.761  0.2109 -0.0408 -0.4419
  192MOL0     O25833   6.051   4.792   7.640 -0.3064 -0.6810 -0.1024
  192MOL0     C25834   6.151   4.603   7.909 -0.6514  0.3035  0.5074
  192MOL0     C25835   6.230   4.502   7.949 -0.9162 -0.9582 -0.7913
  192MOL0     N25836   6.220   3.657   8.123  1.2248  0.5850 -0.3464
  192MOL0     N25837   6.282   3.548   8.144 -0.6622  0.4745 -0.4340
  192MOL0     C25838   7.267   2.851   8.344  0.4375 -0.1867  0.0480
  192MOL0     C25839   7.333   2.748   8.284 -0.3073  0.5095 -0.7519
  192MOL0     C25840   7.618   2.471   8.113  0.5148 -0.2052 -0.1561
  192MOL0     C25841   7.581   2.352   8.073 -0.0248 -0.1970  0.8033
  192MOL0     C25842   7.669   2.272   7.994 -0.5502 -0.0646 -0.4570
  192MOL0     C25843   7.800   2.313   7.954  0.2597  0.4697  0.0704
  192MOL0     O25844   7.892   2.246   7.880 -0.4781  0.2188  0.3900
  192MOL0     C25845   7.850   2.129   7.820  0.2822  0.5194  0.4709
  192MOL0     C25846   7.955   2.079   7.717  0.4863 -0.0069  0.8067
  192MOL0     C25847   7.974   2.169   7.596  0.7163 -0.3493  0.4486
  192MOL0     C25848   8.083   2.096   7.521 -0.0345  0.3588 -0.5273
  192MOL0     C25849   8.109   2.181   7.413  0.4446 -0.6189  0.3434
  192MOL0     C25850   8.124   2.232   7.304 -0.4753  0.4817 -1.0384
  192MOL0     C25851   7.829   2.447   7.997  0.0304  0.7982 -0.6452
  192MOL0     C25852   7.743   2.519   8.068 -0.5355 -0.3734 -0.7774
  192MOL0     H25853   7.602   2.921   8.173  0.5985  0.6093  2.4533
  192MOL0     H25854   7.487   3.100   8.284 -2.5586  0.4878  1.1638
  192MOL0     H25855   7.190   3.270   8.403  0.2141  0.6854 -0.8105
  192MOL0     H25856   7.295   3.227   8.268  1.5069  0.9338  2.5300
  192MOL0     H25857   7.121   3.102   8.159 -2.5600  0.9986 -1.3170
  192MOL0     H25858   7.030   3.081   8.307 -0.1462  2.9416  1.9787
  192MOL0     H25859   6.962   3.326   8.270  1.1413 -1.4804  0.9581
  192MOL0     H25860   7.083   3.347   8.142 -0.8952 -1.2016 -1.0779
  192MOL0     H25861   6.974   3.198   7.986 -1.0735 -1.9816  0.8846
  192MOL0     H25862   6.858   3.146   8.091 -0.8913  0.7887  0.8512
  192MOL0     H25863   6.818   3.397   8.149  3.9914 -2.3550  2.0127
  192MOL0     H25864   6.855   3.423   7.978 -0.6929  0.0655  2.0626
  192MOL0     H25865   6.693   3.289   7.900  0.6657 -0.2209  0.5521
  192MOL0     H25866   6.637   3.241   8.065 -0.0442  1.7314  2.6504
  192MOL0     H25867   6.628   3.534   7.987  2.1893 -1.3725 -1.9192
  192MOL0     H25868   6.495   3.418   7.940 -2.7611 -1.6791  3.0941
  192MOL0     H25869   6.579   3.484   8.214  0.9431 -1.2185 -0.5822
  192MOL0     H25870   6.447   3.369   8.162 -1.5147  0.8930  0.4537
  192MOL0     H25871   6.526   3.725   8.031 -1.7931 -1.3851 -4.1289
  192MOL0     H25872   6.262   3.857   7.899  1.3549 -0.7274 -0.1272
  192MOL0     H25873   6.154   3.889   8.034 -1.5881  2.8445 -3.0931
  192MOL0     H25874   6.431   3.954   8.113 -0.5485  0.7341  2.1714
  192MOL0     H25875   6.282   4.049   8.155 -2.7083  3.5816 -3.0377
  192MOL0     H25876   6.286   4.070   7.885  0.0479 -0.8266  0.0130
  192MOL0     H25877   6.465   4.070   7.931  2.8716  2.8894  5.0761
  192MOL0     H25878   6.463   4.271   8.053  1.3792  0.6967 -1.5784
  192MOL0     H25879   6.283   4.264   8.065 -1.0323  2.0027 -1.7135
  192MOL0     H25880   6.286   4.340   7.668  1.5834  0.6765  0.2367
  192MOL0     H25881   6.020   4.538   7.530 -0.2724 -3.2126  2.2495
  192MOL0     H25882   6.199   4.569   7.470 -0.2388 -0.9302 -0.0630
  192MOL0     H25883   6.123   4.411   7.499  1.2907 -0.3759 -0.4625
  192MOL0     H25884   6.009   5.005   7.829 -0.0314  2.8527 -2.9616
  192MOL0     H25885   5.843   5.209   7.835 -0.4132  1.0633 -2.3893
  192MOL0     H25886   5.677   5.293   7.599 -0.0188  2.1973  1.7232
  192MOL0     H25887   5.508   5.220   7.598 -2.4539  2.4419 -0.7236
  192MOL0     H25888   5.487   5.441   7.584  4.3259 -0.4220 -0.7567
  192MOL0     H25889   5.411   5.386   7.731  1.1480  1.3136  2.1628
  192MOL0     H25890   5.693   5.507   7.697  0.3224 -3.2751 -2.1289
  192MOL0     H25891   5.610   5.477   7.852 -1.3741 -0.6327  0.3267
  192MOL0     H25892   5.492   5.673   7.649  1.6745  0.0941  0.6600
  192MOL0     H25893   5.411   5.607   7.801 -0.2999  2.9785  1.2526
  192MOL0     H25894   5.604   5.702   7.935  1.6252  2.7076  0.0436
  192MOL0     H25895   5.465   5.797   7.871 -0.3471 -1.7690  2.4750
  192MOL0     H25896   5.702   5.890   7.870 -1.1609 -0.8709  1.3302
  192MOL0     H25897   5.734   5.790   7.729 -0.6278  1.5193  0.6386
  192MOL0     H25898   5.507   5.996   7.737 -2.2422 -0.5876 -3.3935
  192MOL0     H25899   5.558   5.889   7.595 -0.2208  1.2570 -2.3737
  192MOL0     H25900   5.770   6.063   7.715  2.1228 -1.8278 -0.8898
  192MOL0     H25901   5.638   6.147   7.627  0.6767  1.3094  2.1860
  192MOL0     H25902   5.524   4.969   7.731  0.9209 -1.4526 -0.6361
  192MOL0     H25903   5.666   4.758   7.748 -4.1644  1.8295 -1.8701
  192MOL0     H25904   6.117   4.663   7.993 -1.0017 -1.1938  1.4706
  192MOL0     H25905   6.258   4.503   8.053  1.9990  1.6959 -1.4479
  192MOL0     H25906   7.173   2.830   8.395  1.3034 -2.5518  0.8330
  192MOL0     H25907   7.276   2.656   8.276  0.0764  0.2772 -0.8423
  192MOL0     H25908   7.484   2.309   8.092 -1.1206  0.8423 -1.9102
  192MOL0     H25909   7.625   2.174   7.975  0.3014 -0.8088  1.1619
  192MOL0     H25910   7.818   2.043   7.881 -0.6399  0.8820  0.5156
  192MOL0     H25911   7.753   2.148   7.772  0.7162  3.0660  0.5098
  192MOL0     H25912   7.917   1.982   7.683 -1.1218  0.2818  1.6895
  192MOL0     H25913   8.049   2.062   7.770  0.2443  0.0920  1.2745
  192MOL0     H25914   8.013   2.268   7.621 -0.9649  1.0166 -1.9532
  192MOL0     H25915   7.879   2.185   7.543  1.0463  3.7487  0.8025
  192MOL0     H25916   8.054   1.999   7.478 -0.1180 -0.9317  2.2110
  192MOL0     H25917   8.168   2.079   7.587 -1.2311 -3.1196  0.3606
  192MOL0     H25918   8.140   2.265   7.204  1.3845 -2.6159 -1.8965
  192MOL0     H25919   7.929   2.478   7.970  0.7032  0.1884  0.9950
  192MOL0     H25920   7.773   2.611   8.116 -2.5238 -0.9195  1.7188
  193MOL0     O25921   9.715   8.632   8.505  0.2465  0.5938 -0.1739
  193MOL0     C25922   9.651   8.740   8.489  0.0439 -0.1821 -0.1968
  193MOL0     O25923   9.627   8.835   8.595  0.1128  0.2462  0.2754
  193MOL0     C25924   9.649   8.788   8.719 -0.5884 -0.4492  0.6258
  193MOL0     C25925   9.543   8.718   8.782 -0.0530  1.3475  0.7391
  193MOL0     C25926   9.565   8.682   8.918  0.0383  0.0928  0.6431
  193MOL0     C25927   9.685   8.711   8.983  0.0287 -0.0264  0.4385
  193MOL0     O25928   9.707   8.658   9.105  1.1054  0.0562  0.1174
  193MOL0     C25929   9.785   8.730   9.202 -0.2498 -0.2490 -0.6294
  193MOL0     C25930   9.762   8.677   9.346 -0.6610  1.0177 -0.2106
  193MOL0     C25931   9.829   8.539   9.375 -0.1067 -0.7573 -0.3466
  193MOL0     C25932   9.748   8.426   9.312 -0.2691 -0.1865  0.6660
  193MOL0     C25933   9.738   8.294   9.393  0.0052  1.2677 -0.1446
  193MOL0     C25934   9.620   8.299   9.497  0.3325 -0.3243  1.4415
  193MOL0     C25935   9.626   8.202   9.610 -0.0666 -0.6398  0.1586
  193MOL0     C25936   9.504   8.199   9.701  0.4289  0.8457 -0.4329
  193MOL0     N25937   9.512   8.295   9.819 -1.2749 -0.2730 -0.8606
  193MOL0     C25938   9.611   8.292   9.920  0.6976 -0.4670 -0.1043
  193MOL0     C25939   9.577   8.391  10.007 -0.0486 -0.4096 -0.4010
  193MOL0     C25940   9.632   8.450  10.137  0.5110  0.9659 -0.7555
  193MOL0     C25941   9.564   8.407  10.272  0.0477 -0.3811 -0.1651
  193MOL0     C25942   9.670   8.384  10.380  0.5438  0.5423 -0.1574
  193MOL0     C25943   9.617   8.316  10.512  0.4738  0.5879 -0.2547
  193MOL0     O25944   9.722   8.252  10.582 -0.4435 -0.0774  0.7320
  193MOL0     C25945   9.773   8.132  10.532  0.3619  0.2455  0.0417
  193MOL0     C25946   9.880   8.085  10.600 -0.0843  0.4404 -0.0821
  193MOL0     C25947   9.949   7.969  10.564  0.3090  0.2307 -0.2208
  193MOL0     C25948  10.075   7.928  10.626 -0.3841  0.1752  0.4509
  193MOL0     C25949   9.894   7.889  10.460  0.5990  0.1427 -0.7707
  193MOL0     C25950   9.951   7.751  10.424  0.3623  0.2089  0.3157
  193MOL0     O25951  10.082   7.709  10.462  0.2837 -0.1927  0.0189
  193MOL0     C25952  10.164   7.621  10.395  0.1791  0.8486  0.6241
  193MOL0     C25953  10.135   7.544  10.277  0.0771  0.5491  0.1433
  193MOL0     C25954  10.235   7.461  10.218 -0.1883 -0.4735  0.4001
  193MOL0     C25955  10.362   7.455  10.273 -0.0225 -0.5925  0.6415
  193MOL0     O25956  10.452   7.362  10.220  0.4333 -0.3937 -0.1193
  193MOL0     C25957  10.590   7.385  10.232  0.4799  0.1203 -0.2169
  193MOL0     C25958  10.662   7.285  10.137 -1.4619 -0.1007  0.0261
  193MOL0     C25959  10.811   7.314  10.129 -0.3076  0.1470  0.3233
  193MOL0     C25960  10.880   7.216  10.034  1.4500  0.5919  0.4196
  193MOL0     C25961  11.024   7.189  10.074  0.8443 -0.0732 -0.0355
  193MOL0     C25962  11.109   7.318  10.054 -0.2495 -0.3567 -0.8342
  193MOL0     C25963  11.172   7.338   9.914 -0.2406 -0.2500 -0.4194
  193MOL0     C25964  11.265   7.454   9.928  0.7216  0.0847 -0.5430
  193MOL0    Cl25965  11.158   7.608   9.910 -0.3491 -0.3295  0.0564
  193MOL0     C25966  10.392   7.537  10.384 -0.2558 -0.1705 -1.0458
  193MOL0     C25967  10.285   7.610  10.443 -0.7663  0.1945  0.6790
  193MOL0     O25968   9.886   7.681  10.346 -0.6131  0.5629  0.1305
  193MOL0     C25969   9.778   7.935  10.388  0.3575  0.4371  0.0537
  193MOL0     C25970   9.729   8.064  10.416 -0.0058  0.7396  0.5843
  193MOL0     N25971   9.467   8.446   9.963 -0.6231  0.5757  1.0303
  193MOL0     N25972   9.420   8.390   9.848 -0.0119  0.3738  1.5163
  193MOL0     C25973   9.780   8.782   8.901  0.5298 -0.3876  0.4090
  193MOL0     C25974   9.767   8.833   8.772 -0.3085  0.1208  0.2251
  193MOL0     C25975   9.616   8.780   8.351 -0.7659 -0.2305 -0.1693
  193MOL0     C25976   9.681   8.713   8.248  0.1851 -0.1278 -1.0717
  193MOL0     C25977   9.658   8.754   8.121 -0.6975 -0.4882  0.4635
  193MOL0     C25978   9.579   8.874   8.094 -0.2969  1.3123  0.7172
  193MOL0     O25979   9.526   8.915   7.978  0.0530 -0.4228  0.6558
  193MOL0     C25980   9.423   8.826   7.920 -0.1674  0.3944  0.6594
  193MOL0     C25981   9.480   8.727   7.815  0.0487 -0.6229  0.0143
  193MOL0     C25982   9.495   8.799   7.682 -0.0494 -1.1020 -0.2808
  193MOL0     C25983   9.559   8.696   7.582 -0.2985  0.4172  0.4277
  193MOL0     C25984   9.680   8.757   7.513  1.0240 -0.4686 -0.3879
  193MOL0     C25985   9.782   8.805   7.472 -0.0717 -0.2787  0.4594
  193MOL0     C25986   9.518   8.942   8.194  0.4357 -0.1051 -0.0081
  193MOL0     C25987   9.530   8.889   8.322  0.1599  0.7549 -0.6861
  193MOL0     H25988   9.455   8.700   8.721 -1.2528 -3.5951  3.3137
  193MOL0     H25989   9.498   8.620   8.978 -3.3957  1.8714 -1.0447
  193MOL0     H25990   9.891   8.716   9.178 -1.4126 -0.6896 -7.2388
  193MOL0     H25991   9.755   8.835   9.192 -0.8955 -0.1451  1.7407
  193MOL0     H25992   9.805   8.746   9.420  4.3243 -2.7051  0.8820
  193MOL0     H25993   9.653   8.670   9.357 -0.7059  1.5176 -0.2805
  193MOL0     H25994   9.934   8.533   9.348  0.2521  1.8124  0.2343
  193MOL0     H25995   9.839   8.537   9.484  1.0794 -2.6870 -0.4452
  193MOL0     H25996   9.649   8.464   9.285 -0.0544 -0.3198 -0.3545
  193MOL0     H25997   9.791   8.407   9.213 -1.4187  3.0406 -0.5791
  193MOL0     H25998   9.723   8.217   9.317 -2.3371  1.9549 -0.4857
  193MOL0     H25999   9.831   8.262   9.441 -1.0144 -1.0067  0.4500
  193MOL0     H26000   9.611   8.400   9.537 -2.0918 -0.7621  2.2067
  193MOL0     H26001   9.533   8.284   9.431  1.7451  0.1923 -0.6245
  193MOL0     H26002   9.625   8.104   9.560  0.7276 -0.1616 -0.8208
  193MOL0     H26003   9.722   8.224   9.658  0.7852 -1.9920 -0.8419
  193MOL0     H26004   9.494   8.096   9.737  1.5481  1.0770  0.6112
  193MOL0     H26005   9.412   8.225   9.647 -1.5961 -3.2302  0.6223
  193MOL0     H26006   9.696   8.227   9.934  0.1736 -0.8637  1.4484
  193MOL0     H26007   9.740   8.430  10.148  0.3955 -0.0986 -1.4018
  193MOL0     H26008   9.621   8.558  10.124  3.7218  1.8343  2.1311
  193MOL0     H26009   9.511   8.314  10.252 -2.3983  1.0399 -0.7432
  193MOL0     H26010   9.489   8.477  10.310 -0.0978  0.1954 -1.4582
  193MOL0     H26011   9.723   8.478  10.396 -0.5229  0.9387  1.2258
  193MOL0     H26012   9.749   8.321  10.339  1.6015  1.3039  0.6514
  193MOL0     H26013   9.542   8.241  10.486 -0.2314  1.4887 -0.8872
  193MOL0     H26014   9.571   8.391  10.578  1.4223  0.7689  0.2179
  193MOL0     H26015   9.921   8.145  10.681  3.3490  2.7284 -3.1534
  193MOL0     H26016  10.065   7.830  10.673 -2.0384  0.5635  0.9735
  193MOL0     H26017  10.159   7.926  10.557 -0.6269 -1.9099  0.1584
  193MOL0     H26018  10.110   7.994  10.706 -1.6294 -2.3848  3.3306
  193MOL0     H26019  10.041   7.551  10.223 -0.5339  1.9675  1.3269
  193MOL0     H26020  10.216   7.401  10.129 -0.6321 -4.9223  3.1687
  193MOL0     H26021  10.618   7.486  10.201  1.2606 -0.1678 -0.4719
  193MOL0     H26022  10.612   7.368  10.338 -0.4197 -2.5067 -0.3821
  193MOL0     H26023  10.645   7.183  10.171 -3.6010  0.8708  2.1587
  193MOL0     H26024  10.625   7.290  10.034  3.2445  3.0890 -1.8557
  193MOL0     H26025  10.870   7.298  10.220  3.5607 -0.3123 -2.0119
  193MOL0     H26026  10.813   7.417  10.093  4.4627 -0.2247 -1.1482
  193MOL0     H26027  10.828   7.119  10.035  1.3525  0.6349 -0.0273
  193MOL0     H26028  10.881   7.264   9.936 -0.3871  1.6915  0.8972
  193MOL0     H26029  11.072   7.112  10.014 -1.0284  0.1532 -1.9286
  193MOL0     H26030  11.022   7.148  10.176 -0.6258  1.8576  0.7708
  193MOL0     H26031  11.045   7.404  10.080  1.7244  1.4415 -1.6534
  193MOL0     H26032  11.185   7.304  10.132 -1.6703  1.7545  1.0903
  193MOL0     H26033  11.102   7.364   9.835 -0.4770  0.9950  0.1745
  193MOL0     H26034  11.236   7.251   9.893 -1.2436 -1.6645  1.9471
  193MOL0     H26035  11.327   7.437   9.840  1.5968 -1.7547  0.3769
  193MOL0     H26036  11.331   7.450  10.016 -1.1339 -0.7373  0.8733
  193MOL0     H26037  10.488   7.542  10.434 -0.9092  0.4648  0.1838
  193MOL0     H26038  10.319   7.677  10.522  2.6480 -0.2692 -0.2257
  193MOL0     H26039   9.741   7.874  10.306 -1.7811  3.3137 -1.2922
  193MOL0     H26040   9.646   8.094  10.352 -0.3714  0.0561  0.7210
  193MOL0     H26041   9.878   8.796   8.946  0.6844  0.4847 -0.1739
  193MOL0     H26042   9.827   8.904   8.716 -0.7536  0.0960 -0.3049
  193MOL0     H26043   9.753   8.632   8.256  0.0135 -0.4765 -2.7125
  193MOL0     H26044   9.713   8.716   8.036 -1.3000  3.8692 -2.1991
  193MOL0     H26045   9.372   8.763   7.994 -1.9522 -2.7662 -2.9060
  193MOL0     H26046   9.341   8.881   7.873  1.4824  0.0030 -3.0007
  193MOL0     H26047   9.398   8.654   7.812 -2.0029  1.5940 -1.7148
  193MOL0     H26048   9.577   8.687   7.846  1.6333  1.3037 -2.1162
  193MOL0     H26049   9.557   8.889   7.691  1.2402 -2.0942  1.4471
  193MOL0     H26050   9.397   8.829   7.644  0.8065  3.1083  0.3032
  193MOL0     H26051   9.489   8.669   7.502  1.8595 -0.8404 -1.1489
  193MOL0     H26052   9.583   8.604   7.636  0.7245 -0.2684 -1.1338
  193MOL0     H26053   9.871   8.850   7.432  1.6877 -4.0564 -0.3122
  193MOL0     H26054   9.451   9.028   8.195 -1.2578 -1.3560  1.5835
  193MOL0     H26055   9.480   8.944   8.401 -2.2711 -0.1669 -1.4954
  194MOL0     O26056   3.097   7.750   4.096 -0.6170  0.3593  0.0938
  194MOL0     C26057   2.990   7.797   4.052 -0.0855  0.5160  0.3974
  194MOL0     O26058   2.948   7.801   3.922 -0.2825  0.0364  0.4394
  194MOL0     C26059   3.014   7.752   3.808 -0.7061 -0.3281 -1.6855
  194MOL0     C26060   2.937   7.700   3.709  0.3928 -0.9933 -0.9506
  194MOL0     C26061   2.994   7.618   3.611 -0.0773  0.7390  0.0239
  194MOL0     C26062   3.134   7.608   3.599  0.4033  0.4718 -0.5534
  194MOL0     O26063   3.203   7.543   3.495  0.0623 -0.0734  0.1296
  194MOL0     C26064   3.145   7.410   3.449  0.3425  0.2154 -0.1320
  194MOL0     C26065   3.263   7.313   3.455  1.4284 -0.2594  0.4033
  194MOL0     C26066   3.225   7.173   3.392  1.4861 -0.2708 -0.2534
  194MOL0     C26067   3.352   7.075   3.372  0.3641 -1.1213  0.2259
  194MOL0     C26068   3.389   7.004   3.500  0.4085  0.6706 -0.6216
  194MOL0     C26069   3.288   6.889   3.534 -0.1852 -0.1883  0.4267
  194MOL0     C26070   3.293   6.770   3.433 -0.7684  0.2632  0.1864
  194MOL0     C26071   3.259   6.643   3.512  0.1830  0.8263  0.7334
  194MOL0     N26072   3.240   6.517   3.424 -0.0642  0.1186 -0.0656
  194MOL0     C26073   3.302   6.399   3.443 -0.2674 -0.3472  0.3028
  194MOL0     C26074   3.259   6.316   3.334  0.2399 -0.3146 -2.1504
  194MOL0     C26075   3.285   6.174   3.306 -0.6773  0.8694 -0.5965
  194MOL0     C26076   3.407   6.153   3.218  0.2709 -0.2664 -0.1597
  194MOL0     C26077   3.371   6.202   3.072 -0.1266  1.2407 -0.4408
  194MOL0     C26078   3.480   6.280   3.014  0.0787 -0.1586 -0.1941
  194MOL0     O26079   3.592   6.199   3.001 -0.9475 -0.2674 -0.5517
  194MOL0     C26080   3.711   6.263   2.991  0.8721  0.0152  0.0007
  194MOL0     C26081   3.724   6.379   2.911  0.6818  0.1191  1.0196
  194MOL0     C26082   3.851   6.434   2.888  0.0641 -0.5852 -0.8667
  194MOL0     C26083   3.852   6.559   2.796  0.1092 -0.1794 -0.3173
  194MOL0     C26084   3.959   6.369   2.955 -0.1553 -0.5283  0.5412
  194MOL0     C26085   4.106   6.397   2.925 -0.1787  0.3075  0.1308
  194MOL0     O26086   4.208   6.312   2.946 -0.3261 -0.1506 -0.3433
  194MOL0     C26087   4.334   6.333   2.895  1.6977 -0.3233 -0.4974
  194MOL0     C26088   4.382   6.235   2.816  1.0975  0.4869  0.4034
  194MOL0     C26089   4.507   6.243   2.759 -0.3867  0.4546 -0.3412
  194MOL0     C26090   4.594   6.353   2.796  0.3290  0.8208  0.0359
  194MOL0     O26091   4.721   6.343   2.750  0.2629 -1.0769 -0.0506
  194MOL0     C26092   4.805   6.444   2.772  0.5121  0.0798  0.4832
  194MOL0     C26093   4.948   6.412   2.736  0.5651 -0.2201 -0.2550
  194MOL0     C26094   5.023   6.344   2.851 -0.5730  0.3528  0.1404
  194MOL0     C26095   5.025   6.190   2.840  0.9012 -0.0603  0.0607
  194MOL0     C26096   5.084   6.113   2.963  0.3638 -0.7577 -0.0455
  194MOL0     C26097   5.220   6.065   2.936 -0.4186 -0.2536  1.5814
  194MOL0     C26098   5.272   6.003   3.064 -0.5792  0.1513  0.3219
  194MOL0     C26099   5.420   5.948   3.062  0.2096 -0.3672 -0.3794
  194MOL0    Cl26100   5.532   6.076   3.026  0.5784 -0.0267 -0.3966
  194MOL0     C26101   4.541   6.457   2.874  0.1446  0.0383 -0.2383
  194MOL0     C26102   4.407   6.451   2.920 -0.5808  0.5430 -0.1491
  194MOL0     O26103   4.122   6.518   2.891  0.2701  0.1424  1.1414
  194MOL0     C26104   3.940   6.255   3.038  0.2931 -0.7500 -0.6973
  194MOL0     C26105   3.816   6.212   3.059 -0.0812 -0.4330  0.0994
  194MOL0     N26106   3.164   6.391   3.268 -0.1071 -0.4940  0.0337
  194MOL0     N26107   3.153   6.507   3.322  0.5135 -0.4466 -0.4272
  194MOL0     C26108   3.213   7.657   3.704 -0.3748  1.2120 -0.1756
  194MOL0     C26109   3.151   7.723   3.807 -0.3590 -1.0559 -0.2215
  194MOL0     C26110   2.901   7.861   4.144 -0.2893  0.9033  0.4555
  194MOL0     C26111   2.927   7.854   4.283  0.0009 -0.5531  0.0757
  194MOL0     C26112   2.839   7.900   4.371  0.3823 -0.4700 -0.8604
  194MOL0     C26113   2.725   7.956   4.336  0.6459  0.6259  0.6730
  194MOL0     O26114   2.648   7.994   4.440 -1.1461  0.2753  1.1092
  194MOL0     C26115   2.575   8.113   4.432 -1.0386  0.2550  0.2237
  194MOL0     C26116   2.537   8.179   4.557  1.3573  1.1539 -0.1621
  194MOL0     C26117   2.657   8.247   4.614  0.1811 -0.1546 -0.3283
  194MOL0     C26118   2.625   8.349   4.726  1.5333  0.2264 -0.4188
  194MOL0     C26119   2.576   8.266   4.841 -0.0274 -0.1734 -0.3868
  194MOL0     C26120   2.521   8.200   4.923 -0.6376 -0.1100 -0.8170
  194MOL0     C26121   2.690   7.969   4.193  0.4028 -0.3351 -0.9964
  194MOL0     C26122   2.776   7.917   4.095  0.1785 -0.1550  0.3315
  194MOL0     H26123   2.835   7.735   3.724  0.9632  0.0873  0.8535
  194MOL0     H26124   2.915   7.592   3.542 -0.3997 -1.7720  1.2522
  194MOL0     H26125   3.062   7.383   3.515  0.5394  0.2300  0.1236
  194MOL0     H26126   3.098   7.424   3.351  0.4463  1.1700 -0.0455
  194MOL0     H26127   3.341   7.357   3.393 -0.7419  3.9944  0.3385
  194MOL0     H26128   3.292   7.304   3.561  0.8573 -0.6930  0.5325
  194MOL0     H26129   3.158   7.129   3.467 -2.1040  0.6778 -2.6427
  194MOL0     H26130   3.167   7.182   3.300 -1.8986  0.7391  1.7937
  194MOL0     H26131   3.322   7.003   3.296  1.1802 -2.3743  1.0572
  194MOL0     H26132   3.434   7.134   3.331 -0.1541 -3.1409 -4.2057
  194MOL0     H26133   3.482   6.949   3.481 -0.0215 -0.3910  0.2750
  194MOL0     H26134   3.399   7.073   3.584 -1.5728  1.3239 -0.8838
  194MOL0     H26135   3.325   6.871   3.635 -1.7486 -0.0664  1.0566
  194MOL0     H26136   3.181   6.913   3.540 -0.7095 -2.2395 -0.0858
  194MOL0     H26137   3.236   6.792   3.342  0.5017 -0.4328 -0.8009
  194MOL0     H26138   3.394   6.753   3.396 -1.2806 -0.1398 -1.1072
  194MOL0     H26139   3.158   6.659   3.553 -0.6901  0.2340 -1.0854
  194MOL0     H26140   3.335   6.623   3.587  1.6573 -1.7976 -1.2926
  194MOL0     H26141   3.369   6.357   3.517 -1.6985 -1.8907  0.8054
  194MOL0     H26142   3.298   6.132   3.406 -0.2764 -0.1984 -1.0795
  194MOL0     H26143   3.195   6.121   3.271 -1.1735  0.4594  1.1806
  194MOL0     H26144   3.433   6.047   3.210 -0.0975 -0.4040  0.4380
  194MOL0     H26145   3.496   6.211   3.244 -1.3324  2.1568  0.2613
  194MOL0     H26146   3.283   6.266   3.074  0.0712  1.6273 -2.3551
  194MOL0     H26147   3.343   6.110   3.020  2.2044 -0.8693  1.7369
  194MOL0     H26148   3.490   6.373   3.071 -0.5026  1.2118 -2.2450
  194MOL0     H26149   3.456   6.321   2.916  0.7708  1.6609  0.3707
  194MOL0     H26150   3.640   6.414   2.852 -0.1824 -3.3611 -0.0748
  194MOL0     H26151   3.857   6.653   2.852  1.2680  1.4134 -2.9229
  194MOL0     H26152   3.945   6.571   2.739  1.5120 -2.8195  1.2300
  194MOL0     H26153   3.767   6.577   2.730  1.1563  0.7301 -1.4773
  194MOL0     H26154   4.317   6.155   2.782  1.5156  0.7205 -1.0225
  194MOL0     H26155   4.541   6.174   2.683  0.0986 -1.6729  1.6739
  194MOL0     H26156   4.769   6.527   2.709 -1.7264 -2.7630 -2.3205
  194MOL0     H26157   4.797   6.473   2.877 -0.4937  0.8730  0.2080
  194MOL0     H26158   4.945   6.358   2.641 -0.4556  0.8980 -0.8994
  194MOL0     H26159   5.017   6.497   2.728 -0.2892  0.3642 -1.8566
  194MOL0     H26160   4.985   6.368   2.950 -0.2624 -1.4422  0.7383
  194MOL0     H26161   5.126   6.380   2.857 -0.9284  1.1014  3.2136
  194MOL0     H26162   4.919   6.165   2.831  1.3148 -1.0453 -3.3518
  194MOL0     H26163   5.071   6.157   2.747  1.1017 -1.0910  0.5130
  194MOL0     H26164   5.023   6.023   2.978  0.3836 -0.3847  2.7174
  194MOL0     H26165   5.072   6.183   3.046  1.0188 -0.1691 -0.4440
  194MOL0     H26166   5.213   5.992   2.855  3.4650  0.5337  0.3269
  194MOL0     H26167   5.281   6.151   2.909  2.6152 -1.1477  4.8070
  194MOL0     H26168   5.210   5.921   3.099 -1.0509  0.0011 -0.8203
  194MOL0     H26169   5.267   6.076   3.146 -0.6873 -0.7140  1.0968
  194MOL0     H26170   5.427   5.858   2.999  0.7628 -2.1217  2.0481
  194MOL0     H26171   5.428   5.916   3.166 -0.9538  3.1200  0.9224
  194MOL0     H26172   4.595   6.549   2.894 -1.5060  0.9670  0.1639
  194MOL0     H26173   4.367   6.514   2.998 -0.5918  0.1533  0.1606
  194MOL0     H26174   4.026   6.203   3.079  3.4885  1.5352 -3.8998
  194MOL0     H26175   3.810   6.124   3.123  0.0833 -0.8154 -0.4023
  194MOL0     H26176   3.319   7.636   3.706 -0.3813  1.1973 -0.0171
  194MOL0     H26177   3.215   7.753   3.889 -0.8947  2.4709 -0.9670
  194MOL0     H26178   3.025   7.829   4.322  0.3105  1.6389  0.8296
  194MOL0     H26179   2.857   7.881   4.477  0.8217 -1.4948 -1.1094
  194MOL0     H26180   2.628   8.189   4.374  0.1088 -1.1834 -0.6789
  194MOL0     H26181   2.485   8.090   4.374 -0.2838 -1.1733 -0.4174
  194MOL0     H26182   2.488   8.111   4.627  1.3564  0.6481 -0.6453
  194MOL0     H26183   2.457   8.251   4.537 -1.3075 -0.4137  3.7108
  194MOL0     H26184   2.714   8.310   4.545  0.2984 -1.0086 -1.0303
  194MOL0     H26185   2.734   8.179   4.652 -1.7933 -1.4313  1.6557
  194MOL0     H26186   2.542   8.410   4.688  3.3244  2.4953 -0.9424
  194MOL0     H26187   2.714   8.407   4.756  3.8448 -2.0483 -2.4343
  194MOL0     H26188   2.478   8.137   4.999 -0.3154  1.2863  0.5735
  194MOL0     H26189   2.593   8.011   4.168 -0.5589 -2.3483 -0.8560
  194MOL0     H26190   2.744   7.932   3.992 -2.1077 -1.1588  0.8402
  195MOL0     O26191   0.073   2.516   2.025  0.4635  0.0852 -0.5707
  195MOL0     C26192   0.125   2.621   2.028 -0.2981 -0.4215  0.7514
  195MOL0     O26193   0.145   2.702   1.918  0.3942  0.1978  1.1896
  195MOL0     C26194   0.102   2.665   1.780 -0.4377  0.3148 -0.2051
  195MOL0     C26195  -0.025   2.608   1.745  0.4671  0.0282 -0.2630
  195MOL0     C26196  -0.072   2.593   1.614  0.2616  0.4858 -0.1054
  195MOL0     C26197   0.002   2.649   1.514 -0.5549  0.4482 -0.2643
  195MOL0     O26198  -0.033   2.647   1.377 -0.1445 -0.6607 -0.5380
  195MOL0     C26199  -0.131   2.555   1.327  0.5917  0.5750 -1.0026
  195MOL0     C26200  -0.063   2.422   1.286 -0.8168  0.6080 -0.4029
  195MOL0     C26201  -0.163   2.310   1.235  0.2115  0.3043 -0.0629
  195MOL0     C26202  -0.195   2.298   1.090 -1.0182  0.2857 -0.6983
  195MOL0     C26203  -0.274   2.175   1.051 -0.0166 -0.0256  0.0124
  195MOL0     C26204  -0.400   2.149   1.137 -0.3109 -0.6734 -0.1962
  195MOL0     C26205  -0.504   2.267   1.122 -0.3862  0.0052  0.5151
  195MOL0     C26206  -0.630   2.238   1.195  0.0454 -0.4613  0.7514
  195MOL0     N26207  -0.588   2.203   1.332  1.0551 -0.1190 -0.6018
  195MOL0     C26208  -0.513   2.263   1.423  0.3720 -0.6011 -0.1438
  195MOL0     C26209  -0.521   2.187   1.531  0.0739 -0.3689 -0.0216
  195MOL0     C26210  -0.450   2.222   1.659 -0.3239 -0.2439  0.0439
  195MOL0     C26211  -0.294   2.200   1.665 -0.2905 -0.5658 -0.9043
  195MOL0     C26212  -0.262   2.047   1.664  0.5695 -0.9741 -0.1788
  195MOL0     C26213  -0.253   1.984   1.527  0.4380  0.6340 -0.7090
  195MOL0     O26214  -0.215   1.851   1.554  0.8342 -0.7215  0.3364
  195MOL0     C26215  -0.174   1.776   1.442 -0.8882  0.2069 -0.0118
  195MOL0     C26216  -0.170   1.811   1.306 -0.0732 -0.4243 -0.3556
  195MOL0     C26217  -0.134   1.723   1.207  0.2977  0.8388  0.3204
  195MOL0     C26218  -0.130   1.777   1.066  0.2375  0.1945  0.2886
  195MOL0     C26219  -0.111   1.590   1.240 -0.0046  1.4844 -0.3651
  195MOL0     C26220  -0.071   1.500   1.139 -0.0014 -0.0527 -1.3768
  195MOL0     O26221   0.033   1.541   1.057 -0.0710 -0.8619 -0.7545
  195MOL0     C26222   0.076   1.457   0.963 -0.2351 -0.5427 -0.0225
  195MOL0     C26223  -0.004   1.420   0.849  0.3399 -0.7741  0.2153
  195MOL0     C26224   0.057   1.350   0.752  0.2206 -0.5053 -0.1664
  195MOL0     C26225   0.195   1.314   0.763 -0.7528  1.2796 -0.0547
  195MOL0     O26226   0.264   1.247   0.663  0.9289 -0.6227 -0.7311
  195MOL0     C26227   0.199   1.257   0.532  0.1876  0.3575  0.4702
  195MOL0     C26228   0.288   1.221   0.411  0.4444  0.0324  0.7958
  195MOL0     C26229   0.420   1.301   0.409 -0.8957 -0.2693 -0.1970
  195MOL0     C26230   0.512   1.275   0.285  0.7468  0.0943  0.2977
  195MOL0     C26231   0.647   1.347   0.303  0.3762 -0.1482  0.8294
  195MOL0     C26232   0.739   1.333   0.189  0.5274  0.1832  1.1625
  195MOL0     C26233   0.867   1.407   0.203  0.0757 -0.1370 -1.2549
  195MOL0     C26234   0.938   1.425   0.071 -0.4389  0.3150  0.5330
  195MOL0    Cl26235   1.063   1.553   0.051  0.1306 -0.0675 -0.2725
  195MOL0     C26236   0.271   1.356   0.867  0.4666 -0.3499  0.2455
  195MOL0     C26237   0.211   1.430   0.965 -0.0785 -0.5597 -0.3403
  195MOL0     O26238  -0.120   1.387   1.142  0.2299  0.4441 -0.1313
  195MOL0     C26239  -0.122   1.546   1.367  0.0481  0.0918 -0.1422
  195MOL0     C26240  -0.140   1.638   1.469  0.7247  0.4191  0.2653
  195MOL0     N26241  -0.611   2.082   1.514  0.3229 -0.4470  0.4760
  195MOL0     N26242  -0.647   2.094   1.390 -0.0184  0.0553  0.1644
  195MOL0     C26243   0.116   2.718   1.540 -0.3648  0.8918 -0.8656
  195MOL0     C26244   0.167   2.727   1.672  0.5956  0.5510  0.4319
  195MOL0     C26245   0.191   2.679   2.157  0.0149 -0.2935  0.5215
  195MOL0     C26246   0.219   2.611   2.267  1.1993  1.1085  0.3475
  195MOL0     C26247   0.260   2.667   2.391  0.0514 -0.3073  1.0203
  195MOL0     C26248   0.288   2.802   2.393  0.1569  0.0370 -0.6890
  195MOL0     O26249   0.343   2.845   2.514  0.2913  0.2357 -0.2113
  195MOL0     C26250   0.379   2.981   2.529  0.3915 -0.4719  0.2455
  195MOL0     C26251   0.442   3.000   2.671  0.0133  0.3285 -0.5031
  195MOL0     C26252   0.348   2.931   2.783 -0.1814 -0.6732 -0.1832
  195MOL0     C26253   0.392   2.994   2.917  0.4811 -0.2064  0.5020
  195MOL0     C26254   0.396   3.142   2.912 -0.3718 -0.4057  0.4405
  195MOL0     C26255   0.421   3.265   2.919  0.4098  0.4606 -0.2135
  195MOL0     C26256   0.266   2.887   2.283  0.2164 -0.7887 -0.2539
  195MOL0     C26257   0.216   2.819   2.169 -0.3783  0.1353 -0.2281
  195MOL0     H26258  -0.100   2.591   1.821 -0.9357  1.8170 -1.1746
  195MOL0     H26259  -0.165   2.542   1.593 -0.1037  2.2217 -3.3146
  195MOL0     H26260  -0.210   2.537   1.400  1.1209 -0.5707 -0.6842
  195MOL0     H26261  -0.174   2.595   1.234 -0.6246 -0.2110 -0.8058
  195MOL0     H26262   0.015   2.428   1.209  0.2877 -3.0117  0.2290
  195MOL0     H26263  -0.016   2.393   1.380 -2.9572  0.8659  0.8022
  195MOL0     H26264  -0.133   2.209   1.265 -0.1635 -0.0307 -0.7805
  195MOL0     H26265  -0.260   2.342   1.276  0.3439  5.6538 -3.0594
  195MOL0     H26266  -0.234   2.393   1.051  0.6614  2.4762  2.5443
  195MOL0     H26267  -0.103   2.293   1.031 -0.6309 -2.3255  0.0279
  195MOL0     H26268  -0.303   2.187   0.947 -2.4272  6.2063  0.9634
  195MOL0     H26269  -0.210   2.087   1.054 -0.2289 -0.1578  1.4546
  195MOL0     H26270  -0.442   2.053   1.105 -0.9900  0.1567 -1.9219
  195MOL0     H26271  -0.375   2.141   1.243  0.9482  0.8567 -0.3343
  195MOL0     H26272  -0.451   2.357   1.154  1.4727 -0.3256 -1.4178
  195MOL0     H26273  -0.520   2.287   1.016  0.5398 -0.0354  0.3568
  195MOL0     H26274  -0.678   2.150   1.151  1.4868  0.3247 -2.7155
  195MOL0     H26275  -0.691   2.329   1.193  2.9706  1.6579  1.2975
  195MOL0     H26276  -0.477   2.364   1.434 -2.5017  0.7263 -1.7323
  195MOL0     H26277  -0.472   2.328   1.673  1.6179  0.4487 -1.7153
  195MOL0     H26278  -0.498   2.160   1.735 -0.3546 -1.9498 -1.3019
  195MOL0     H26279  -0.257   2.251   1.754  0.5388  0.2969 -1.7325
  195MOL0     H26280  -0.248   2.265   1.590 -1.7807  0.3343 -1.0709
  195MOL0     H26281  -0.326   1.990   1.732 -2.6322  1.0661 -1.2407
  195MOL0     H26282  -0.164   2.031   1.710 -0.5928 -0.0491  2.9698
  195MOL0     H26283  -0.180   2.035   1.464 -1.3688  1.4450 -2.2334
  195MOL0     H26284  -0.347   1.993   1.472  2.0631 -0.2767 -3.8556
  195MOL0     H26285  -0.190   1.914   1.277 -0.6612 -0.8362 -1.4762
  195MOL0     H26286  -0.198   1.721   1.002 -0.9009  1.3019  0.4893
  195MOL0     H26287  -0.157   1.883   1.062  2.5046  0.9315  2.3059
  195MOL0     H26288  -0.029   1.773   1.025 -0.4226 -2.1872 -1.2591
  195MOL0     H26289  -0.109   1.447   0.855  0.2366 -0.8911 -0.9030
  195MOL0     H26290  -0.010   1.322   0.671 -1.2151 -1.7006  1.3809
  195MOL0     H26291   0.114   1.191   0.510  1.9623 -1.1917 -2.2840
  195MOL0     H26292   0.174   1.363   0.525  3.2439  1.2211  1.1247
  195MOL0     H26293   0.309   1.114   0.410 -0.0102 -0.0566 -0.0769
  195MOL0     H26294   0.240   1.256   0.320  2.6275  1.2870  0.0394
  195MOL0     H26295   0.482   1.293   0.498  3.0962  0.4199 -2.6634
  195MOL0     H26296   0.388   1.405   0.396 -1.3099  0.0486  2.7497
  195MOL0     H26297   0.544   1.171   0.285  2.0550  0.4596 -0.8212
  195MOL0     H26298   0.465   1.302   0.190  0.1845 -1.1699  0.1982
  195MOL0     H26299   0.697   1.300   0.388  0.3228 -1.2675  0.2620
  195MOL0     H26300   0.638   1.455   0.321 -1.9420  0.5293 -3.1545
  195MOL0     H26301   0.765   1.228   0.172 -0.3584 -0.0283  1.0465
  195MOL0     H26302   0.693   1.383   0.103  1.6538 -0.5819  0.0904
  195MOL0     H26303   0.926   1.347   0.273  0.2159 -1.0376 -2.1275
  195MOL0     H26304   0.850   1.509   0.240 -0.0430  0.5571 -3.1150
  195MOL0     H26305   0.859   1.453   0.002 -0.5978  1.7975  1.2853
  195MOL0     H26306   0.970   1.326   0.035  0.6745  0.5138  0.9318
  195MOL0     H26307   0.378   1.336   0.865  0.1681 -2.8357 -4.0019
  195MOL0     H26308   0.268   1.459   1.053  1.7727  0.9568 -1.9696
  195MOL0     H26309  -0.121   1.440   1.387 -1.1113 -0.9308 -4.4025
  195MOL0     H26310  -0.153   1.592   1.566 -4.6231 -0.9244 -0.7737
  195MOL0     H26311   0.146   2.775   1.453 -0.0110  4.1619  1.2173
  195MOL0     H26312   0.255   2.786   1.695  0.1933  0.0505  3.6226
  195MOL0     H26313   0.181   2.509   2.271 -1.1151  1.9452  1.0044
  195MOL0     H26314   0.277   2.612   2.483 -1.7659 -0.1030  1.5071
  195MOL0     H26315   0.436   3.019   2.444 -0.9237 -3.3054 -2.0804
  195MOL0     H26316   0.280   3.025   2.546  1.5237  1.3527  2.8059
  195MOL0     H26317   0.465   3.106   2.680  1.2746 -0.0180  0.7274
  195MOL0     H26318   0.538   2.948   2.669 -0.3276 -0.3672  0.2132
  195MOL0     H26319   0.358   2.823   2.767 -0.5252 -0.5768 -1.0844
  195MOL0     H26320   0.242   2.941   2.760  0.1973 -0.6927 -2.1213
  195MOL0     H26321   0.492   2.959   2.943  2.8357  2.5960 -3.5632
  195MOL0     H26322   0.321   2.959   2.993  1.1138  0.0987  1.2419
  195MOL0     H26323   0.450   3.367   2.932 -2.3507  1.1375  1.4686
  195MOL0     H26324   0.293   2.992   2.292 -1.0910 -0.3408 -1.2632
  195MOL0     H26325   0.199   2.882   2.082  1.0976 -0.1502 -0.7614
  196MOL0     O26326   0.646   9.384   3.353 -0.2836  0.8377  0.0900
  196MOL0     C26327   0.609   9.336   3.240  1.2895 -0.3282  0.6128
  196MOL0     O26328   0.639   9.215   3.189 -0.0586  0.4061 -0.5113
  196MOL0     C26329   0.720   9.126   3.252  1.0401 -0.6817  0.5971
  196MOL0     C26330   0.788   9.038   3.183 -0.3844  0.3553  0.0429
  196MOL0     C26331   0.853   8.938   3.249 -0.8459  0.3796  0.3619
  196MOL0     C26332   0.865   8.934   3.384  0.4973 -1.0372 -0.2684
  196MOL0     O26333   0.949   8.837   3.436 -0.1758  0.0645  0.1126
  196MOL0     C26334   0.889   8.734   3.511  0.8856 -0.2002  0.6916
  196MOL0     C26335   0.996   8.634   3.571  0.4779  0.2637  0.2857
  196MOL0     C26336   0.935   8.501   3.626  0.1224 -0.1496  0.0246
  196MOL0     C26337   0.812   8.520   3.719  0.2587  0.5180  0.6149
  196MOL0     C26338   0.679   8.503   3.642 -0.5124  0.0309 -0.3304
  196MOL0     C26339   0.547   8.500   3.723 -0.0311 -0.3650 -0.6320
  196MOL0     C26340   0.473   8.637   3.742 -0.0930 -0.2838 -0.1789
  196MOL0     C26341   0.371   8.649   3.860 -0.6760 -1.0602  0.5781
  196MOL0     N26342   0.434   8.627   3.994 -0.3626 -0.5369 -0.6199
  196MOL0     C26343   0.568   8.650   4.034 -0.2641  0.0373  0.2819
  196MOL0     C26344   0.577   8.623   4.171  0.5100  0.5203 -0.6256
  196MOL0     C26345   0.697   8.643   4.258  0.9603  0.6596  0.6668
  196MOL0     C26346   0.754   8.516   4.296 -0.6566  0.0270  0.1224
  196MOL0     C26347   0.867   8.523   4.397  0.6911 -0.1153 -0.8678
  196MOL0     C26348   0.984   8.596   4.346  0.8066  0.0396  0.0547
  196MOL0     O26349   1.036   8.527   4.229 -0.8571  0.2741  0.6679
  196MOL0     C26350   1.115   8.610   4.149 -0.7820  0.1568  0.9893
  196MOL0     C26351   1.174   8.734   4.177 -0.3866  1.7010 -0.2942
  196MOL0     C26352   1.244   8.801   4.086 -0.0458 -0.6518 -0.5906
  196MOL0     C26353   1.307   8.933   4.130  1.3060  0.5703 -0.0193
  196MOL0     C26354   1.271   8.747   3.955  0.0018  0.7543 -1.0544
  196MOL0     C26355   1.344   8.815   3.856 -0.0440  0.1599  0.0469
  196MOL0     O26356   1.313   8.790   3.727  0.1678  0.2005  0.4182
  196MOL0     C26357   1.418   8.801   3.632 -0.1173 -0.9141 -0.4966
  196MOL0     C26358   1.449   8.918   3.565  0.7530  0.3273  0.4620
  196MOL0     C26359   1.537   8.926   3.455 -0.2721 -0.1244  0.3037
  196MOL0     C26360   1.613   8.809   3.417  0.9562 -0.1343  0.1101
  196MOL0     O26361   1.713   8.797   3.329 -0.1739 -0.0416  0.3719
  196MOL0     C26362   1.675   8.819   3.192  0.6406 -0.3892  0.1255
  196MOL0     C26363   1.596   8.698   3.138  0.0937 -0.0917  0.0798
  196MOL0     C26364   1.688   8.584   3.105 -0.4699 -0.1664  0.0336
  196MOL0     C26365   1.618   8.452   3.088  1.6623  0.0152  0.1793
  196MOL0     C26366   1.688   8.359   2.987 -0.0283 -0.2815  0.1830
  196MOL0     C26367   1.606   8.238   2.960  0.0671 -0.1815  0.8431
  196MOL0     C26368   1.684   8.151   2.861 -0.2254 -0.7434 -0.1017
  196MOL0     C26369   1.668   8.002   2.874 -0.3363 -0.3699 -0.1988
  196MOL0    Cl26370   1.753   7.951   3.025  0.1501 -0.2444  0.2472
  196MOL0     C26371   1.580   8.692   3.483  0.0472  0.9683  0.4389
  196MOL0     C26372   1.478   8.684   3.591  0.0644 -0.0892  1.2205
  196MOL0     O26373   1.438   8.880   3.889 -1.1158  0.8688 -0.2650
  196MOL0     C26374   1.217   8.620   3.923 -0.2315  0.4308  0.5314
  196MOL0     C26375   1.139   8.553   4.021  0.6573  0.0966 -0.1070
  196MOL0     N26376   0.455   8.567   4.207 -0.1632  0.5437  0.3764
  196MOL0     N26377   0.376   8.560   4.096  0.4957  0.0940  0.0556
  196MOL0     C26378   0.787   9.020   3.461 -1.1287  0.8302 -0.5728
  196MOL0     C26379   0.701   9.111   3.394 -0.2725  0.0474 -0.5312
  196MOL0     C26380   0.523   9.432   3.157  0.0850 -0.2011  0.5872
  196MOL0     C26381   0.445   9.381   3.049 -0.2680  0.3198 -0.8257
  196MOL0     C26382   0.390   9.477   2.968  0.0256  0.1508  1.0638
  196MOL0     C26383   0.391   9.611   2.989 -0.1720 -1.2917  0.4206
  196MOL0     O26384   0.337   9.694   2.896 -0.2094 -0.2055 -0.1353
  196MOL0     C26385   0.224   9.775   2.927  1.0203 -1.5176 -1.0793
  196MOL0     C26386   0.240   9.921   2.868 -0.7412 -0.5131  0.2124
  196MOL0     C26387   0.108  10.006   2.874 -0.1479 -0.3347 -0.0187
  196MOL0     C26388  -0.007   9.928   2.830 -0.0257 -0.2830  0.2866
  196MOL0     C26389  -0.112  10.018   2.785  0.1605 -0.6267 -0.2921
  196MOL0     C26390  -0.192  10.098   2.747 -0.0289  0.5640  0.6752
  196MOL0     C26391   0.450   9.655   3.103 -1.0728 -0.2578 -0.0764
  196MOL0     C26392   0.517   9.569   3.184 -0.0726  0.0692 -0.0287
  196MOL0     H26393   0.799   9.043   3.075  0.0351  0.2504  0.0801
  196MOL0     H26394   0.907   8.861   3.194 -0.9294 -1.4276  2.6733
  196MOL0     H26395   0.826   8.770   3.593 -2.2643 -0.8783 -1.2379
  196MOL0     H26396   0.825   8.688   3.434 -1.0102  0.4225  1.8357
  196MOL0     H26397   1.066   8.609   3.491  0.9848  0.1774  0.7486
  196MOL0     H26398   1.056   8.687   3.644  0.9251  2.2774 -1.4563
  196MOL0     H26399   0.893   8.444   3.543 -2.0879  0.6212  0.5303
  196MOL0     H26400   1.012   8.448   3.681  2.0927  0.9344 -1.5375
  196MOL0     H26401   0.809   8.451   3.804 -2.7323 -1.0086 -0.6000
  196MOL0     H26402   0.814   8.625   3.752 -0.5767  0.6264  0.3304
  196MOL0     H26403   0.664   8.568   3.556 -0.5090  1.7438  0.9107
  196MOL0     H26404   0.668   8.400   3.607 -0.4422  0.5635 -2.0048
  196MOL0     H26405   0.474   8.442   3.666  0.8099 -1.8587 -0.2519
  196MOL0     H26406   0.580   8.455   3.818  2.2390 -0.8168 -1.5601
  196MOL0     H26407   0.547   8.715   3.759  0.2024 -0.1465 -1.9449
  196MOL0     H26408   0.415   8.654   3.651  0.1127 -0.2670 -0.3083
  196MOL0     H26409   0.285   8.582   3.853 -0.9883 -0.5689 -0.4411
  196MOL0     H26410   0.346   8.755   3.870  1.6471 -0.4607  0.4598
  196MOL0     H26411   0.656   8.671   3.973  0.8124  1.4701  2.2371
  196MOL0     H26412   0.770   8.703   4.203  0.0882  0.1379 -1.1251
  196MOL0     H26413   0.676   8.699   4.349  2.6716  1.2776  0.7208
  196MOL0     H26414   0.788   8.473   4.201 -0.9149  2.6016 -1.2236
  196MOL0     H26415   0.678   8.439   4.314 -1.1625 -0.3064 -2.9353
  196MOL0     H26416   0.896   8.420   4.420 -0.7126 -0.2174  0.6211
  196MOL0     H26417   0.832   8.571   4.488  0.2057  1.3661 -1.7934
  196MOL0     H26418   1.050   8.609   4.433 -0.7138 -0.7632  1.3926
  196MOL0     H26419   0.961   8.698   4.313 -0.1953 -0.9576 -2.5653
  196MOL0     H26420   1.170   8.754   4.284  0.3928 -1.0320  0.3398
  196MOL0     H26421   1.264   9.022   4.082  0.2463 -0.0065 -0.1780
  196MOL0     H26422   1.299   8.947   4.239  1.5908 -1.2773  0.2610
  196MOL0     H26423   1.412   8.941   4.103  1.0216 -1.0959 -1.8309
  196MOL0     H26424   1.406   9.012   3.597 -0.0794 -0.6181  2.2441
  196MOL0     H26425   1.552   9.028   3.423  0.5434  0.3799  2.1243
  196MOL0     H26426   1.617   8.911   3.185 -1.4443 -1.2081  4.0468
  196MOL0     H26427   1.767   8.826   3.133  1.8285 -1.2386  1.7837
  196MOL0     H26428   1.527   8.662   3.216 -0.0793  0.0784  0.0067
  196MOL0     H26429   1.532   8.731   3.055  1.3427  1.7800 -0.1980
  196MOL0     H26430   1.763   8.571   3.183  0.4679  2.6825 -0.2482
  196MOL0     H26431   1.756   8.603   3.022  0.4342 -1.4773  0.4616
  196MOL0     H26432   1.613   8.399   3.183  3.4836  0.6276  0.6731
  196MOL0     H26433   1.514   8.469   3.059  1.9517 -1.5637 -1.9631
  196MOL0     H26434   1.788   8.338   3.027  0.7082 -0.3691 -1.5699
  196MOL0     H26435   1.709   8.423   2.901  0.8047 -1.0298 -0.1895
  196MOL0     H26436   1.602   8.193   3.060  0.3356 -0.0942  0.8947
  196MOL0     H26437   1.513   8.265   2.910  0.0547 -0.2697  0.8186
  196MOL0     H26438   1.788   8.183   2.854  0.5580 -2.2996  2.7312
  196MOL0     H26439   1.644   8.183   2.764  2.0911 -0.5831 -1.0592
  196MOL0     H26440   1.705   7.957   2.781  2.3849  2.8679 -0.8882
  196MOL0     H26441   1.563   7.973   2.885 -0.7974  0.7874 -1.3540
  196MOL0     H26442   1.661   8.626   3.455  0.5163  2.9737 -3.5920
  196MOL0     H26443   1.478   8.583   3.630  3.1487 -2.2223 -3.3902
  196MOL0     H26444   1.223   8.584   3.821  1.3008  0.6627  0.5090
  196MOL0     H26445   1.081   8.462   4.013 -0.4883  0.2777  3.8763
  196MOL0     H26446   0.813   9.000   3.565  1.4395 -1.0256 -1.4730
  196MOL0     H26447   0.637   9.168   3.460  1.1710 -0.0240  0.9941
  196MOL0     H26448   0.444   9.279   3.011 -3.0105 -0.6139  1.4241
  196MOL0     H26449   0.344   9.446   2.874  1.2056  1.0338  0.1690
  196MOL0     H26450   0.131   9.732   2.888  0.3343 -2.5076  1.4386
  196MOL0     H26451   0.200   9.794   3.032  0.8066 -0.2163 -1.3451
  196MOL0     H26452   0.263   9.907   2.762  1.9041 -1.7403  0.8850
  196MOL0     H26453   0.325   9.970   2.917 -1.1191 -1.2901  1.7194
  196MOL0     H26454   0.117  10.097   2.814  0.2868 -1.2694 -1.4097
  196MOL0     H26455   0.094  10.050   2.974  0.9277 -2.5722  1.2018
  196MOL0     H26456  -0.039   9.860   2.910 -0.1025 -1.5372 -0.7742
  196MOL0     H26457   0.019   9.876   2.738 -3.1947  0.0374 -0.9329
  196MOL0     H26458  -0.242  10.184   2.706  0.0557 -0.1751 -1.0664
  196MOL0     H26459   0.464   9.757   3.136 -0.7921  0.6543 -2.7520
  196MOL0     H26460   0.559   9.617   3.272 -2.7442 -0.7339  1.8193
  197MOL0     O26461  10.281  11.464   2.318  0.5567 -1.1333  0.1637
  197MOL0     C26462  10.255  11.582   2.282 -0.3416 -0.3519 -0.3029
  197MOL0     O26463  10.319  11.696   2.328 -0.6599  0.1202 -0.3160
  197MOL0     C26464  10.423  11.687   2.407 -0.6023  0.1792  0.0208
  197MOL0     C26465  10.410  11.707   2.549  0.8998 -0.0351  0.5550
  197MOL0     C26466  10.529  11.705   2.630  0.1885 -0.0328 -0.4892
  197MOL0     C26467  10.655  11.707   2.566  0.7790  0.2584  0.0675
  197MOL0     O26468  10.763  11.714   2.635 -0.4026  0.0668 -1.2669
  197MOL0     C26469  10.824  11.834   2.632 -0.7011  0.2502  0.0435
  197MOL0     C26470  10.960  11.818   2.709  0.2575 -0.0550 -0.2091
  197MOL0     C26471  11.029  11.949   2.685 -0.3771 -0.2829  0.6928
  197MOL0     C26472  10.970  12.072   2.752 -0.3944  0.1200 -0.6105
  197MOL0     C26473  10.977  12.069   2.907  0.1569 -0.7713 -0.5459
  197MOL0     C26474  10.977  12.211   2.962 -1.2048 -0.6360  0.2554
  197MOL0     C26475  10.839  12.266   2.970 -0.5775  0.0273  0.0893
  197MOL0     C26476  10.837  12.418   2.961 -0.4192  0.2864  0.5697
  197MOL0     N26477  10.702  12.486   2.975  0.0679 -0.5877  0.1199
  197MOL0     C26478  10.651  12.601   2.905  0.2540  0.3673 -0.8953
  197MOL0     C26479  10.533  12.623   2.963 -0.3623 -0.3885  0.1265
  197MOL0     C26480  10.433  12.727   2.901 -0.0832  0.5396  0.7993
  197MOL0     C26481  10.472  12.877   2.890 -0.3170 -0.4435 -0.2533
  197MOL0     C26482  10.502  12.925   3.035  1.1619 -0.6050 -1.3524
  197MOL0     C26483  10.552  13.074   3.034 -0.6196 -0.1039 -0.3685
  197MOL0     O26484  10.673  13.109   2.967  0.8177  0.0057 -0.3153
  197MOL0     C26485  10.658  13.175   2.849 -0.7639  0.5366  1.1160
  197MOL0     C26486  10.762  13.149   2.764 -0.2858  1.1562 -0.2632
  197MOL0     C26487  10.777  13.211   2.640  0.2631 -0.2049 -1.2036
  197MOL0     C26488  10.907  13.177   2.566 -0.6288 -0.4009  0.0409
  197MOL0     C26489  10.668  13.295   2.591  0.5979 -0.9017 -0.1323
  197MOL0     C26490  10.648  13.358   2.459  0.0434 -0.5594 -0.5378
  197MOL0     O26491  10.535  13.431   2.440  0.3383  0.7133  0.0886
  197MOL0     C26492  10.521  13.504   2.328  0.2572  0.5910  0.6538
  197MOL0     C26493  10.387  13.509   2.269  0.3156 -0.3124  0.0867
  197MOL0     C26494  10.357  13.582   2.148 -0.4991 -0.8641  0.0029
  197MOL0     C26495  10.459  13.658   2.092 -0.3315 -0.3341  0.0009
  197MOL0     O26496  10.426  13.738   1.992 -0.2521 -0.2004  0.5291
  197MOL0     C26497  10.521  13.826   1.928 -0.2011 -0.7072 -0.6007
  197MOL0     C26498  10.619  13.752   1.831 -0.2057  0.0170 -0.3317
  197MOL0     C26499  10.698  13.850   1.736 -0.2290 -0.5701  0.5638
  197MOL0     C26500  10.646  13.848   1.591  0.7073  0.0454 -0.2348
  197MOL0     C26501  10.650  13.992   1.534 -0.1743  0.7269 -0.8540
  197MOL0     C26502  10.662  13.995   1.387  0.2206  0.1330  1.0115
  197MOL0     C26503  10.649  14.139   1.329  0.3964  0.0359 -0.4402
  197MOL0     C26504  10.652  14.144   1.172  0.3435 -0.0314  0.8071
  197MOL0    Cl26505  10.664  14.309   1.112 -0.0241  0.0119 -0.3261
  197MOL0     C26506  10.581  13.665   2.159 -0.2600  0.2651  0.1613
  197MOL0     C26507  10.618  13.576   2.264  0.4828 -0.7900 -0.8011
  197MOL0     O26508  10.744  13.364   2.382  0.6119  0.4576 -0.0266
  197MOL0     C26509  10.570  13.329   2.690 -0.2283  0.3243  0.2286
  197MOL0     C26510  10.567  13.273   2.819 -0.5014 -0.1719 -0.2471
  197MOL0     N26511  10.532  12.559   3.081  0.7898 -0.0833 -0.2788
  197MOL0     N26512  10.627  12.478   3.091 -0.1255 -0.1180 -0.3585
  197MOL0     C26513  10.663  11.674   2.427  0.3996  0.1771  0.1143
  197MOL0     C26514  10.551  11.664   2.352  0.4421  0.3031  0.4514
  197MOL0     C26515  10.116  11.611   2.220 -0.9516 -0.1963  0.4094
  197MOL0     C26516  10.033  11.500   2.179 -0.3661 -0.6803  0.2513
  197MOL0     C26517   9.931  11.525   2.085 -0.0950  0.1548  0.0128
  197MOL0     C26518   9.881  11.646   2.060  0.2259 -0.8109  0.0031
  197MOL0     O26519   9.764  11.664   1.989  0.1636  0.6433 -0.1747
  197MOL0     C26520   9.658  11.560   2.004  0.0961  0.2769  0.0605
  197MOL0     C26521   9.514  11.619   1.984 -0.9727 -1.0705  0.2948
  197MOL0     C26522   9.514  11.753   1.897  0.4389  0.3309  0.8163
  197MOL0     C26523   9.521  11.712   1.751 -0.3035 -0.6028 -0.5752
  197MOL0     C26524   9.542  11.820   1.662 -0.2796 -0.6163 -0.7482
  197MOL0     C26525   9.565  11.915   1.594  0.3681 -0.1563 -0.7002
  197MOL0     C26526   9.973  11.747   2.087  1.0127 -0.2084 -0.2964
  197MOL0     C26527  10.085  11.741   2.166 -0.7485 -0.4361 -0.8123
  197MOL0     H26528  10.311  11.715   2.593 -0.4543  0.7785 -2.3820
  197MOL0     H26529  10.514  11.696   2.737  3.3874  0.5011  0.1028
  197MOL0     H26530  10.858  11.853   2.530 -2.8365  0.5401 -0.6442
  197MOL0     H26531  10.759  11.912   2.673 -1.3735 -0.1182 -0.3127
  197MOL0     H26532  10.945  11.794   2.814 -0.6055  3.0020  0.4697
  197MOL0     H26533  11.013  11.738   2.657  0.6446  0.1505 -0.1370
  197MOL0     H26534  11.131  11.937   2.721  1.2892 -0.7993 -3.5500
  197MOL0     H26535  11.048  11.961   2.578  0.6310 -2.5096  0.5617
  197MOL0     H26536  11.028  12.163   2.736 -0.5915  1.3749  4.1095
  197MOL0     H26537  10.867  12.102   2.729 -0.3672  2.3719  1.6855
  197MOL0     H26538  10.894  12.015   2.954  0.0708  2.2550  3.2242
  197MOL0     H26539  11.075  12.032   2.939  0.1517  2.4493  4.1291
  197MOL0     H26540  11.021  12.200   3.061  1.9778 -2.1209 -1.1624
  197MOL0     H26541  11.045  12.278   2.908 -1.9680  1.4416  1.7473
  197MOL0     H26542  10.775  12.225   2.891 -0.3330  0.7244 -0.4820
  197MOL0     H26543  10.800  12.247   3.070  0.9478 -1.7851  0.3823
  197MOL0     H26544  10.880  12.441   2.862 -0.0230 -3.7120 -0.3779
  197MOL0     H26545  10.914  12.453   3.030 -0.5131 -0.9611  1.3262
  197MOL0     H26546  10.686  12.639   2.810  0.0554 -0.3213 -1.2500
  197MOL0     H26547  10.408  12.697   2.798  1.2892  2.3417 -0.1067
  197MOL0     H26548  10.340  12.713   2.956 -0.5692  0.9189  0.0775
  197MOL0     H26549  10.387  12.927   2.843  1.1672  1.3188 -1.2038
  197MOL0     H26550  10.560  12.900   2.829  1.7190 -0.6272  2.4489
  197MOL0     H26551  10.576  12.860   3.082  0.8293  1.7311  2.8550
  197MOL0     H26552  10.412  12.914   3.096  3.3047  1.2504  2.5071
  197MOL0     H26553  10.566  13.093   3.141  3.4392  0.0960 -0.7893
  197MOL0     H26554  10.466  13.135   3.003 -0.5700  0.7345  1.0688
  197MOL0     H26555  10.841  13.085   2.803 -1.5861 -1.5953 -1.9166
  197MOL0     H26556  10.996  13.156   2.626 -0.8897 -1.0091  0.2240
  197MOL0     H26557  10.891  13.079   2.520  0.6670 -1.7957  2.3764
  197MOL0     H26558  10.939  13.249   2.491  0.7702 -0.7853  0.2339
  197MOL0     H26559  10.319  13.435   2.310  1.8710 -2.3109 -0.7328
  197MOL0     H26560  10.254  13.596   2.118 -0.5225  1.9722  1.1174
  197MOL0     H26561  10.468  13.903   1.871  3.8171  2.6034 -0.3807
  197MOL0     H26562  10.567  13.874   2.015  0.4987 -0.4002 -1.1392
  197MOL0     H26563  10.690  13.688   1.885 -0.1203 -1.0910 -1.6845
  197MOL0     H26564  10.551  13.684   1.778  0.6786 -0.8100 -0.4493
  197MOL0     H26565  10.800  13.812   1.723  0.2126  0.7771 -0.0380
  197MOL0     H26566  10.714  13.950   1.777 -2.7612 -0.9010  2.6138
  197MOL0     H26567  10.714  13.784   1.533 -0.1092  1.1881 -2.5853
  197MOL0     H26568  10.543  13.812   1.592  0.9692 -0.7301 -0.0660
  197MOL0     H26569  10.737  14.044   1.575 -0.5644  0.9494 -0.2887
  197MOL0     H26570  10.559  14.032   1.580 -0.2603  2.5919 -2.5480
  197MOL0     H26571  10.762  13.959   1.359 -0.4596 -1.2806  0.3172
  197MOL0     H26572  10.588  13.927   1.344  1.1153 -0.5887  0.5832
  197MOL0     H26573  10.729  14.207   1.359  0.3677 -0.5506  1.0448
  197MOL0     H26574  10.553  14.177   1.365  1.2419 -0.2146  2.2892
  197MOL0     H26575  10.560  14.093   1.144  0.2056  1.1563 -1.0752
  197MOL0     H26576  10.735  14.080   1.140  0.3726  0.0107  0.7979
  197MOL0     H26577  10.653  13.732   2.114 -0.0670 -0.0353  0.0151
  197MOL0     H26578  10.719  13.572   2.305  0.5019 -3.4520 -0.9650
  197MOL0     H26579  10.501  13.412   2.674 -0.6884  0.4355  2.4449
  197MOL0     H26580  10.502  13.316   2.895  0.5497  0.0336  0.5574
  197MOL0     H26581  10.761  11.666   2.381 -0.4256 -1.6105 -1.4641
  197MOL0     H26582  10.555  11.654   2.244  1.7212  2.1778  0.2845
  197MOL0     H26583  10.077  11.402   2.198  2.9185  0.7543  0.6395
  197MOL0     H26584   9.870  11.444   2.048 -0.6202  0.5019  0.1122
  197MOL0     H26585   9.675  11.479   1.933 -0.8977  2.5359 -2.9679
  197MOL0     H26586   9.658  11.525   2.108  1.9506  2.9130  1.0367
  197MOL0     H26587   9.482  11.656   2.081  0.3576  1.0930 -0.0048
  197MOL0     H26588   9.443  11.539   1.960  1.6813 -3.8208  0.9133
  197MOL0     H26589   9.592  11.821   1.932  2.4310 -1.4928  0.1576
  197MOL0     H26590   9.415  11.795   1.917 -0.6469 -0.4687 -2.2277
  197MOL0     H26591   9.421  11.676   1.726  0.3166 -2.1794 -0.9204
  197MOL0     H26592   9.584  11.624   1.735 -2.9855 -3.1898  2.0973
  197MOL0     H26593   9.592  11.999   1.534 -0.2275 -0.2198 -1.0706
  197MOL0     H26594   9.953  11.843   2.040  1.9619 -0.6854 -1.7746
  197MOL0     H26595  10.148  11.829   2.172  0.2414 -1.0449 -1.8158
  198MOL0     O26596   0.190   3.503   4.126  0.1999  0.3438 -0.3437
  198MOL0     C26597   0.127   3.526   4.234 -0.2864 -0.4885 -0.5257
  198MOL0     O26598   0.024   3.452   4.294  0.0916  0.9142 -0.5317
  198MOL0     C26599  -0.027   3.334   4.257  0.8863 -0.3428  0.7056
  198MOL0     C26600  -0.018   3.279   4.132  0.5585  0.0154  0.5063
  198MOL0     C26601  -0.087   3.164   4.104  0.2413 -0.0088  1.1259
  198MOL0     C26602  -0.152   3.086   4.200 -0.0367 -0.3609  0.5197
  198MOL0     O26603  -0.215   2.972   4.161 -0.3087  0.4156  0.1457
  198MOL0     C26604  -0.229   2.860   4.250  1.1653 -0.4008  0.1062
  198MOL0     C26605  -0.286   2.727   4.186 -0.3679 -0.3953  0.1426
  198MOL0     C26606  -0.214   2.671   4.065 -0.3172  0.2084 -0.4043
  198MOL0     C26607  -0.070   2.612   4.086 -0.1170 -0.3267 -0.2454
  198MOL0     C26608  -0.042   2.508   3.979  0.1566  0.4187  0.5742
  198MOL0     C26609   0.099   2.512   3.933 -0.3827 -0.5791 -0.9912
  198MOL0     C26610   0.210   2.448   4.036  0.0903  0.4191 -0.7000
  198MOL0     C26611   0.365   2.486   4.013  0.3622  0.0515  0.6723
  198MOL0     N26612   0.383   2.598   4.094  0.2411  0.0785  0.2008
  198MOL0     C26613   0.326   2.724   4.092  0.1547  1.4088  0.3661
  198MOL0     C26614   0.355   2.783   4.214  0.1679  0.0366  0.3405
  198MOL0     C26615   0.309   2.915   4.242 -0.0350  0.4952 -0.5739
  198MOL0     C26616   0.427   3.006   4.280 -0.7839  0.4606  0.8109
  198MOL0     C26617   0.392   3.153   4.299 -0.3580 -0.0315 -0.1823
  198MOL0     C26618   0.290   3.178   4.413 -0.6648  0.2508  0.3917
  198MOL0     O26619   0.273   3.313   4.453 -0.0595  0.4839 -0.2598
  198MOL0     C26620   0.191   3.355   4.558  0.3884  0.2241 -0.0414
  198MOL0     C26621   0.092   3.276   4.608  0.8014  0.8918  0.1475
  198MOL0     C26622   0.005   3.332   4.705  0.1482 -0.8344 -0.5113
  198MOL0     C26623  -0.121   3.245   4.724 -0.5384 -0.3558  0.4588
  198MOL0     C26624   0.034   3.460   4.760  0.7129 -0.0852  1.1217
  198MOL0     C26625  -0.057   3.539   4.850 -0.7887  0.6324 -0.1584
  198MOL0     O26626  -0.004   3.662   4.888  0.6273  1.3597  0.1210
  198MOL0     C26627  -0.085   3.749   4.958 -0.7306  0.8241  0.4336
  198MOL0     C26628  -0.038   3.790   5.080 -0.8552 -0.0317  0.3299
  198MOL0     C26629  -0.116   3.867   5.169 -0.8808  0.0405  0.4070
  198MOL0     C26630  -0.238   3.912   5.120  0.5620 -1.0855  0.1877
  198MOL0     O26631  -0.310   3.992   5.203  0.2374  0.2040 -0.2962
  198MOL0     C26632  -0.446   3.998   5.193 -0.0150 -0.1827 -0.3283
  198MOL0     C26633  -0.498   4.038   5.333  0.2605 -0.0666  0.4805
  198MOL0     C26634  -0.450   3.943   5.444 -1.3240 -0.6690  0.5643
  198MOL0     C26635  -0.514   3.986   5.580  0.2604  0.1710 -0.5484
  198MOL0     C26636  -0.437   4.102   5.650 -0.3263  0.8056 -0.2923
  198MOL0     C26637  -0.510   4.142   5.782 -0.7303  0.0465 -0.0937
  198MOL0     C26638  -0.424   4.255   5.841  0.8636  0.0305 -0.6832
  198MOL0     C26639  -0.512   4.333   5.943  1.4817  0.3241  0.9470
  198MOL0    Cl26640  -0.587   4.231   6.061 -0.6001 -0.3503  0.2448
  198MOL0     C26641  -0.279   3.886   4.986 -0.5579 -0.0788  0.0828
  198MOL0     C26642  -0.198   3.803   4.899  0.4134  0.9546  0.1424
  198MOL0     O26643  -0.168   3.491   4.879 -0.0810  0.3238 -0.1788
  198MOL0     C26644   0.142   3.534   4.706 -1.2517 -0.1210  0.3724
  198MOL0     C26645   0.216   3.485   4.603  1.0845  0.5197 -0.1465
  198MOL0     N26646   0.431   2.697   4.292 -0.9424 -0.4572 -0.0231
  198MOL0     N26647   0.448   2.588   4.220  0.0369 -0.4043  0.7991
  198MOL0     C26648  -0.155   3.134   4.337  0.2879 -0.0163  0.4700
  198MOL0     C26649  -0.107   3.270   4.352  0.3448 -0.1990 -0.3754
  198MOL0     C26650   0.187   3.631   4.319 -0.3658 -0.4621 -0.5758
  198MOL0     C26651   0.111   3.734   4.372 -0.0409  0.1171  0.0540
  198MOL0     C26652   0.173   3.829   4.451  0.5547 -0.0514  0.5023
  198MOL0     C26653   0.305   3.815   4.490 -1.0365 -0.0581 -0.7603
  198MOL0     O26654   0.358   3.910   4.569 -0.5208  0.0718  0.2472
  198MOL0     C26655   0.376   3.873   4.706 -0.6257 -0.3671  0.3109
  198MOL0     C26656   0.255   3.918   4.781 -0.8123 -0.0751 -0.5076
  198MOL0     C26657   0.259   4.069   4.810 -0.0146 -0.8459 -0.2944
  198MOL0     C26658   0.176   4.100   4.929  0.4368 -0.3460 -0.7852
  198MOL0     C26659   0.217   4.228   4.987 -0.2182 -0.2771 -0.2044
  198MOL0     C26660   0.262   4.335   5.027  1.0525 -0.3396 -0.7851
  198MOL0     C26661   0.385   3.721   4.435  0.7091 -0.8620 -1.1179
  198MOL0     C26662   0.329   3.627   4.348  0.1241  0.4260 -0.4044
  198MOL0     H26663   0.039   3.312   4.046  0.0215 -0.6014 -0.0964
  198MOL0     H26664  -0.076   3.134   4.000 -1.9727  1.4075  0.4135
  198MOL0     H26665  -0.137   2.831   4.302 -0.1927 -1.9921  1.7608
  198MOL0     H26666  -0.302   2.891   4.324  2.3396 -0.5582  1.3840
  198MOL0     H26667  -0.282   2.647   4.261 -0.5922  0.3770  1.0027
  198MOL0     H26668  -0.393   2.739   4.171 -1.0816 -1.1704  3.6977
  198MOL0     H26669  -0.282   2.596   4.022 -1.3667  0.8671  0.0664
  198MOL0     H26670  -0.198   2.750   3.992  1.8945  1.3483  1.2104
  198MOL0     H26671   0.006   2.691   4.096  0.9745 -1.5491  1.8988
  198MOL0     H26672  -0.066   2.559   4.181  3.2028 -1.3597 -0.8230
  198MOL0     H26673  -0.064   2.407   4.013  0.1702 -0.2956 -1.4288
  198MOL0     H26674  -0.104   2.522   3.891  0.5003 -3.6126 -0.5010
  198MOL0     H26675   0.109   2.472   3.831 -3.9088 -3.9596 -0.2214
  198MOL0     H26676   0.109   2.621   3.933 -0.3303 -0.5283  1.7402
  198MOL0     H26677   0.180   2.480   4.136  2.5851 -0.0905  0.2872
  198MOL0     H26678   0.214   2.339   4.034  2.9144  0.3492  1.6980
  198MOL0     H26679   0.377   2.509   3.907  1.0205  0.1274  0.7570
  198MOL0     H26680   0.434   2.407   4.043  1.3652  1.2467  1.6334
  198MOL0     H26681   0.289   2.774   4.003  0.8045 -0.8313 -1.2539
  198MOL0     H26682   0.253   2.961   4.161 -1.7905  2.5315  1.6602
  198MOL0     H26683   0.251   2.914   4.335  0.1243  2.0239 -0.4462
  198MOL0     H26684   0.486   2.999   4.188  0.7552 -0.9587  1.8535
  198MOL0     H26685   0.489   2.972   4.362 -2.9051  0.1914  2.3891
  198MOL0     H26686   0.351   3.201   4.209 -2.4583 -1.0175  0.1748
  198MOL0     H26687   0.489   3.199   4.318 -0.7148  1.1738 -1.1360
  198MOL0     H26688   0.324   3.122   4.500 -2.0019 -1.2912 -0.0293
  198MOL0     H26689   0.190   3.144   4.383 -0.8821 -1.2739  2.6332
  198MOL0     H26690   0.071   3.176   4.574  1.3622  0.7591  0.1767
  198MOL0     H26691  -0.113   3.142   4.689  0.3946 -0.9604  2.3437
  198MOL0     H26692  -0.129   3.239   4.833  0.3529  1.3081  0.6487
  198MOL0     H26693  -0.213   3.296   4.695  1.3873  3.0873 -0.1132
  198MOL0     H26694   0.054   3.752   5.123 -0.4438  0.7966  0.2066
  198MOL0     H26695  -0.078   3.902   5.265  1.8090  1.1890 -0.9997
  198MOL0     H26696  -0.477   4.071   5.117  0.7389 -0.5278 -0.9921
  198MOL0     H26697  -0.495   3.900   5.184  1.9620 -1.3714  1.1030
  198MOL0     H26698  -0.467   4.143   5.344 -1.4383  0.7787 -1.8931
  198MOL0     H26699  -0.607   4.033   5.336  0.1292  1.7881  3.4379
  198MOL0     H26700  -0.341   3.941   5.448 -1.2161  2.4522  2.3543
  198MOL0     H26701  -0.473   3.838   5.424 -0.6555 -0.1980 -3.6490
  198MOL0     H26702  -0.621   4.010   5.572  1.0446  4.1997 -0.9881
  198MOL0     H26703  -0.502   3.906   5.655 -1.1545 -3.7894 -4.1074
  198MOL0     H26704  -0.427   4.195   5.593 -0.4088 -0.8642 -3.2573
  198MOL0     H26705  -0.336   4.063   5.664 -0.1760  1.2649 -0.0866
  198MOL0     H26706  -0.614   4.172   5.766 -1.2601 -1.0263  1.1361
  198MOL0     H26707  -0.511   4.062   5.857 -0.6411  2.3482  2.5400
  198MOL0     H26708  -0.369   4.318   5.770  0.2627  2.5175  0.9328
  198MOL0     H26709  -0.357   4.207   5.913 -0.8323 -0.8692  0.3600
  198MOL0     H26710  -0.589   4.380   5.881 -0.1216 -3.9984 -0.7613
  198MOL0     H26711  -0.458   4.404   6.006  1.2294 -1.9216  3.9147
  198MOL0     H26712  -0.363   3.931   4.935  0.0265 -1.5419 -2.3299
  198MOL0     H26713  -0.226   3.783   4.796 -0.5077  1.6665  0.2420
  198MOL0     H26714   0.165   3.632   4.746  1.6747 -0.7604  0.5025
  198MOL0     H26715   0.301   3.538   4.561  0.5919  0.5111 -1.1614
  198MOL0     H26716  -0.203   3.079   4.417 -0.6745  0.6760  0.3844
  198MOL0     H26717  -0.146   3.323   4.438 -0.9875 -0.9000 -0.5256
  198MOL0     H26718   0.010   3.751   4.336 -0.1081  0.3062  0.3240
  198MOL0     H26719   0.116   3.905   4.503 -0.7215  0.4511 -1.5305
  198MOL0     H26720   0.392   3.765   4.706  2.8995  0.0031 -1.6459
  198MOL0     H26721   0.459   3.919   4.760 -2.5444  2.0484  1.4039
  198MOL0     H26722   0.252   3.862   4.875  2.0921 -0.8099 -0.7804
  198MOL0     H26723   0.170   3.883   4.722  0.7272 -2.0449 -1.6730
  198MOL0     H26724   0.229   4.121   4.719  1.0987  0.3681  0.0029
  198MOL0     H26725   0.361   4.101   4.833 -0.3358  0.7564 -1.0194
  198MOL0     H26726   0.176   4.027   5.011  0.4591  0.9068  0.3780
  198MOL0     H26727   0.072   4.111   4.896 -0.3206 -0.3715  1.4047
  198MOL0     H26728   0.296   4.428   5.067  2.5357 -0.1656 -2.3604
  198MOL0     H26729   0.488   3.724   4.470  0.4431 -3.5794  0.2485
  198MOL0     H26730   0.383   3.546   4.299 -1.1330 -1.2293  0.7973
  199MOL0     O26731   4.356   9.877   6.747 -0.3781  0.2058  0.2299
  199MOL0     C26732   4.321   9.965   6.671 -0.4642  0.3282 -0.0080
  199MOL0     O26733   4.190  10.002   6.660  0.1527  0.6476  0.6959
  199MOL0     C26734   4.122  10.045   6.771 -0.6854  0.2445 -0.0123
  199MOL0     C26735   4.037   9.966   6.842  0.7633 -0.8680 -0.8144
  199MOL0     C26736   3.964  10.016   6.948 -0.4814 -0.7744  1.1187
  199MOL0     C26737   3.979  10.155   6.982  0.1994 -0.9068 -0.1422
  199MOL0     O26738   3.916  10.204   7.095  0.9601  0.3476 -0.0274
  199MOL0     C26739   3.843  10.331   7.092 -0.0820  0.0930  0.8955
  199MOL0     C26740   3.877  10.417   7.212 -0.2918 -0.2518 -0.0892
  199MOL0     C26741   4.031  10.432   7.219 -0.6804  0.8585 -0.3504
  199MOL0     C26742   4.074  10.491   7.353 -0.7777 -0.7845 -0.5216
  199MOL0     C26743   4.070  10.638   7.340  0.0472  0.0106 -0.3848
  199MOL0     C26744   4.156  10.705   7.442 -0.3079 -0.2477  0.6469
  199MOL0     C26745   4.158  10.860   7.425  0.5678 -0.2178 -0.2613
  199MOL0     C26746   4.249  10.945   7.522  0.4386  0.0030  0.2733
  199MOL0     N26747   4.388  10.929   7.490 -0.1003  0.4146  0.1773
  199MOL0     C26748   4.456  10.833   7.556 -0.1074 -1.2219 -0.2593
  199MOL0     C26749   4.583  10.849   7.516  1.3011  0.0373  0.4239
  199MOL0     C26750   4.702  10.756   7.537 -0.4773 -0.9661 -0.3092
  199MOL0     C26751   4.746  10.718   7.679 -0.6963  0.2509 -0.7444
  199MOL0     C26752   4.759  10.842   7.771  0.6069  0.3037 -0.7427
  199MOL0     C26753   4.830  10.970   7.715 -0.1674 -0.5440 -0.2507
  199MOL0     O26754   4.857  11.052   7.834 -0.6517 -1.1788  0.6061
  199MOL0     C26755   4.790  11.176   7.830 -1.2685 -0.6320 -0.3390
  199MOL0     C26756   4.665  11.195   7.776 -0.2093  0.0637 -0.5818
  199MOL0     C26757   4.607  11.325   7.773 -0.3184  0.0855  0.3161
  199MOL0     C26758   4.483  11.330   7.693 -0.3792  0.1322 -0.1529
  199MOL0     C26759   4.671  11.438   7.832 -0.4801  0.8175 -0.4368
  199MOL0     C26760   4.610  11.574   7.821  0.1549  0.0825  0.4820
  199MOL0     O26761   4.664  11.669   7.744 -0.0305 -0.4446  0.2512
  199MOL0     C26762   4.603  11.792   7.734  0.1809 -0.8441 -1.2713
  199MOL0     C26763   4.661  11.897   7.788  0.2191 -0.0453  0.5175
  199MOL0     C26764   4.607  12.019   7.773  0.3874 -0.3520 -0.4535
  199MOL0     C26765   4.481  12.040   7.708  0.8954 -0.3233  0.6199
  199MOL0     O26766   4.411  12.157   7.685  0.1788 -0.4303 -0.9716
  199MOL0     C26767   4.389  12.226   7.807  0.1880 -0.0717  0.4953
  199MOL0     C26768   4.247  12.265   7.799  0.2322 -0.0779 -0.2659
  199MOL0     C26769   4.231  12.423   7.799  0.6779 -0.0279 -0.0370
  199MOL0     C26770   4.086  12.456   7.875 -0.5058  0.4211 -0.2158
  199MOL0     C26771   3.960  12.437   7.789  0.9993 -0.7942  0.7662
  199MOL0     C26772   3.832  12.435   7.875  0.6542 -0.0171 -0.0714
  199MOL0     C26773   3.714  12.484   7.794 -0.6691 -0.1023 -0.7069
  199MOL0     C26774   3.597  12.458   7.877  0.6033 -0.3992 -0.2387
  199MOL0    Cl26775   3.449  12.503   7.770  0.2860  0.3471  0.0331
  199MOL0     C26776   4.421  11.935   7.641 -0.4160 -0.1014 -0.0892
  199MOL0     C26777   4.480  11.808   7.662  0.0441 -1.0477  0.1026
  199MOL0     O26778   4.506  11.579   7.885 -0.2759 -0.5700 -1.4366
  199MOL0     C26779   4.789  11.413   7.902 -0.4365 -0.5662  0.1603
  199MOL0     C26780   4.852  11.290   7.890 -0.1105 -0.8522 -0.2500
  199MOL0     N26781   4.585  10.949   7.420 -0.3680  0.1079 -0.8858
  199MOL0     N26782   4.465  11.006   7.420 -0.6734 -0.2324 -0.2265
  199MOL0     C26783   4.068  10.240   6.909 -0.3675 -0.4732  0.4599
  199MOL0     C26784   4.140  10.183   6.801  0.1928 -0.8931  0.1311
  199MOL0     C26785   4.434  10.037   6.600  0.1736  0.3439  1.0783
  199MOL0     C26786   4.563   9.997   6.624 -0.3267  0.3517 -0.0456
  199MOL0     C26787   4.671  10.051   6.552 -0.5649 -0.0382  0.3023
  199MOL0     C26788   4.646  10.153   6.451  0.8354  0.3809 -1.1144
  199MOL0     O26789   4.762  10.209   6.399  0.6152  0.8199  0.2902
  199MOL0     C26790   4.790  10.339   6.444 -0.2273 -0.6418 -0.3056
  199MOL0     C26791   4.931  10.360   6.424 -0.0877 -0.6951  0.0349
  199MOL0     C26792   4.975  10.354   6.265 -0.7442 -0.6837 -0.8228
  199MOL0     C26793   5.121  10.400   6.248  0.3146 -0.8553  0.2650
  199MOL0     C26794   5.150  10.364   6.110 -0.5896  0.1581 -0.4778
  199MOL0     C26795   5.177  10.336   5.995 -0.6045 -0.1362 -0.1842
  199MOL0     C26796   4.514  10.193   6.425 -0.6621  0.1416 -0.0440
  199MOL0     C26797   4.408  10.134   6.500 -0.2347  0.1494  0.1629
  199MOL0     H26798   4.014   9.865   6.809 -0.5824 -0.7605 -0.2705
  199MOL0     H26799   3.907   9.940   7.000  0.4975 -0.5700  2.5550
  199MOL0     H26800   3.863  10.395   7.006 -2.4036  0.8693  0.8761
  199MOL0     H26801   3.736  10.311   7.079 -0.4148  1.7469  0.8687
  199MOL0     H26802   3.821  10.509   7.195 -0.1018  0.6750  3.4640
  199MOL0     H26803   3.842  10.376   7.307 -0.3326  2.5149  1.1627
  199MOL0     H26804   4.070  10.330   7.227 -3.2201 -0.3737 -2.2183
  199MOL0     H26805   4.073  10.478   7.129 -0.6965  0.2875 -0.6548
  199MOL0     H26806   4.019  10.452   7.439  0.2820 -0.1336  0.4799
  199MOL0     H26807   4.179  10.471   7.372 -0.2137  3.8250  2.7682
  199MOL0     H26808   4.085  10.674   7.238 -0.1775  3.2503  0.5892
  199MOL0     H26809   3.964  10.663   7.356  0.2649  1.1487 -0.6442
  199MOL0     H26810   4.127  10.683   7.546  0.5102 -1.2542  0.6698
  199MOL0     H26811   4.260  10.674   7.432  1.1313  3.8709  1.0499
  199MOL0     H26812   4.196  10.880   7.325  0.2698  3.7968  0.2592
  199MOL0     H26813   4.051  10.870   7.447  0.8871 -1.1325  1.9832
  199MOL0     H26814   4.222  10.922   7.626  0.2197 -0.8294  0.0402
  199MOL0     H26815   4.217  11.046   7.494  0.9705 -0.2227 -1.1998
  199MOL0     H26816   4.420  10.754   7.621 -0.5445 -0.8679 -0.0758
  199MOL0     H26817   4.687  10.676   7.463  0.2081 -0.8274 -0.6044
  199MOL0     H26818   4.783  10.819   7.499 -0.1133  0.9211  3.2177
  199MOL0     H26819   4.843  10.668   7.683 -0.5059  0.6140 -0.8274
  199MOL0     H26820   4.676  10.646   7.722  1.2232 -1.3112 -0.1168
  199MOL0     H26821   4.836  10.823   7.846 -0.2399  0.1102  0.0916
  199MOL0     H26822   4.659  10.878   7.798  0.5062  0.4621 -1.3072
  199MOL0     H26823   4.783  11.025   7.633 -0.4621 -0.0544  0.2426
  199MOL0     H26824   4.921  10.931   7.667  1.1818  2.5230 -0.4081
  199MOL0     H26825   4.616  11.113   7.725 -2.7342  0.4087  1.1078
  199MOL0     H26826   4.396  11.362   7.751 -0.9991  0.8774 -1.4755
  199MOL0     H26827   4.492  11.407   7.617 -2.2978  1.3337  0.7485
  199MOL0     H26828   4.450  11.237   7.645  2.6971 -2.6276  2.5612
  199MOL0     H26829   4.758  11.889   7.836  0.8779 -1.3152 -0.9664
  199MOL0     H26830   4.628  12.107   7.833 -2.4029  1.0756 -1.3710
  199MOL0     H26831   4.397  12.161   7.895 -0.0513  1.3931  1.6291
  199MOL0     H26832   4.453  12.314   7.809 -0.5124  0.5225 -1.4615
  199MOL0     H26833   4.194  12.215   7.717 -2.3723 -0.7227  1.6867
  199MOL0     H26834   4.190  12.226   7.884 -2.1253  0.0261 -1.7107
  199MOL0     H26835   4.231  12.455   7.694 -2.0160  2.5828  0.6408
  199MOL0     H26836   4.315  12.473   7.848 -0.2393 -0.2460  1.8284
  199MOL0     H26837   4.081  12.393   7.965  0.5571  3.1351  1.8800
  199MOL0     H26838   4.090  12.554   7.923 -0.8296 -0.9162  2.7744
  199MOL0     H26839   3.981  12.346   7.732  1.3956 -1.5264  2.0621
  199MOL0     H26840   3.956  12.520   7.717  2.3141 -1.0507  0.3676
  199MOL0     H26841   3.819  12.335   7.916 -2.5555  0.9148  1.5190
  199MOL0     H26842   3.845  12.506   7.958 -0.9587  0.6557 -0.3690
  199MOL0     H26843   3.698  12.443   7.694 -1.8480  1.6135 -1.2663
  199MOL0     H26844   3.737  12.591   7.786  0.0162 -0.3931 -5.5492
  199MOL0     H26845   3.601  12.523   7.965 -0.6409 -1.4324  0.6086
  199MOL0     H26846   3.590  12.354   7.908  1.9426 -0.8155 -1.2341
  199MOL0     H26847   4.335  11.928   7.576 -3.3278  4.2586  2.7755
  199MOL0     H26848   4.430  11.721   7.619  1.9871 -2.5067  0.6413
  199MOL0     H26849   4.842  11.493   7.952  0.2545  0.0645 -1.5150
  199MOL0     H26850   4.957  11.289   7.916 -0.0020  1.8650 -0.3590
  199MOL0     H26851   4.073  10.344   6.938  2.0305  0.1675 -1.9184
  199MOL0     H26852   4.215  10.250   6.760  3.7073 -4.6968 -0.3878
  199MOL0     H26853   4.602   9.937   6.706 -0.1870 -0.8980 -1.0006
  199MOL0     H26854   4.768  10.025   6.594 -1.2046 -2.4525  0.4554
  199MOL0     H26855   4.734  10.414   6.386 -0.3653 -1.8064 -1.7381
  199MOL0     H26856   4.758  10.351   6.548 -2.4082  1.5725 -1.1066
  199MOL0     H26857   4.989  10.278   6.466  2.4960 -0.4123 -2.5760
  199MOL0     H26858   4.980  10.446   6.472 -1.2764 -0.8724  1.6300
  199MOL0     H26859   4.906  10.411   6.202 -2.0306  2.0675  2.7306
  199MOL0     H26860   4.960  10.246   6.255 -0.6587 -0.9071  1.1152
  199MOL0     H26861   5.192  10.340   6.306 -0.3249 -1.1834  0.7248
  199MOL0     H26862   5.150  10.504   6.262 -2.4744  0.3155 -1.8613
  199MOL0     H26863   5.181  10.312   5.891  1.1328 -2.1180  0.2644
  199MOL0     H26864   4.497  10.290   6.377  0.1744  0.1540 -0.3165
  199MOL0     H26865   4.302  10.153   6.503 -0.3884 -0.5625  4.0523
  200MOL0     O26866   9.531   1.446   2.552  0.3519 -0.1493  0.2328
  200MOL0     C26867   9.441   1.452   2.636  0.8584  0.7110 -0.1876
  200MOL0     O26868   9.320   1.527   2.624 -0.0389 -0.7272  0.5053
  200MOL0     C26869   9.290   1.573   2.496 -1.2743 -0.7313  0.5393
  200MOL0     C26870   9.259   1.713   2.489  0.4598  0.1515  0.8221
  200MOL0     C26871   9.232   1.763   2.365  0.2357 -0.2202 -0.0258
  200MOL0     C26872   9.258   1.693   2.242 -0.8728 -0.5850  0.5870
  200MOL0     O26873   9.224   1.755   2.126  0.2082 -0.1020  0.2627
  200MOL0     C26874   9.331   1.760   2.024  0.8017 -0.1559  0.2685
  200MOL0     C26875   9.254   1.777   1.889 -0.2899  0.8954  0.6056
  200MOL0     C26876   9.226   1.920   1.858  0.2477 -1.4638 -0.5927
  200MOL0     C26877   9.138   1.938   1.735  0.0890  0.7073  0.2135
  200MOL0     C26878   9.069   2.081   1.734 -0.3037  0.4699  0.3588
  200MOL0     C26879   9.159   2.214   1.727  0.0187 -0.0087 -0.1505
  200MOL0     C26880   9.217   2.220   1.580 -0.3443 -0.5091 -0.2077
  200MOL0     C26881   9.308   2.344   1.567  0.3626  1.1589  0.5772
  200MOL0     N26882   9.333   2.366   1.416 -0.8192 -0.5828 -0.3923
  200MOL0     C26883   9.296   2.482   1.353  0.1907 -0.6318  0.8694
  200MOL0     C26884   9.324   2.457   1.222 -0.3042  0.0018 -0.7690
  200MOL0     C26885   9.323   2.538   1.100  0.4859  0.0116  0.1019
  200MOL0     C26886   9.180   2.532   1.038 -0.4128  0.0381  0.6968
  200MOL0     C26887   9.086   2.607   1.134  0.3573  0.1838 -0.1158
  200MOL0     C26888   8.944   2.616   1.083  0.5995 -0.0917  0.7878
  200MOL0     O26889   8.949   2.732   0.985 -0.1110  0.0583  0.1381
  200MOL0     C26890   8.890   2.715   0.864  0.4533  0.6166 -0.1170
  200MOL0     C26891   8.823   2.595   0.808  0.4946  0.5769  0.2085
  200MOL0     C26892   8.765   2.594   0.675 -0.5567 -0.4365  0.3128
  200MOL0     C26893   8.739   2.464   0.607 -0.4320 -0.0794  1.0367
  200MOL0     C26894   8.771   2.715   0.599 -0.5454  0.8794 -0.5534
  200MOL0     C26895   8.729   2.718   0.463  0.4415  0.7880  0.4003
  200MOL0     O26896   8.616   2.650   0.431  0.6988 -0.2300 -0.1503
  200MOL0     C26897   8.598   2.602   0.313  1.0784  1.3342  0.3509
  200MOL0     C26898   8.583   2.464   0.289  0.7320  0.7108 -0.0432
  200MOL0     C26899   8.530   2.431   0.163 -0.3527 -1.1519  0.4535
  200MOL0     C26900   8.495   2.511   0.053  0.4115 -1.2614 -1.5159
  200MOL0     O26901   8.455   2.449  -0.065  0.3471  0.3990  0.3630
  200MOL0     C26902   8.498   2.530  -0.178 -0.0541  0.2267  1.0279
  200MOL0     C26903   8.450   2.445  -0.297  0.5166 -0.0098  0.0545
  200MOL0     C26904   8.559   2.450  -0.409 -0.6452  0.3304  0.4813
  200MOL0     C26905   8.662   2.337  -0.395 -0.1410  0.5837 -0.9028
  200MOL0     C26906   8.760   2.349  -0.512  0.2279  0.7979  0.2524
  200MOL0     C26907   8.855   2.223  -0.494  0.6845 -1.2685  0.6315
  200MOL0     C26908   8.942   2.207  -0.375 -0.2265 -0.8834 -0.6247
  200MOL0     C26909   9.007   2.070  -0.371  0.9580 -1.2278  0.2200
  200MOL0    Cl26910   9.116   2.037  -0.241 -0.2055  0.9083  0.1157
  200MOL0     C26911   8.530   2.646   0.076  0.3805  0.0801  0.1156
  200MOL0     C26912   8.580   2.680   0.205 -0.4429  0.4726 -0.1475
  200MOL0     O26913   8.789   2.784   0.380  0.0217  1.0135  0.0834
  200MOL0     C26914   8.827   2.825   0.648  0.1759  0.2510  0.4726
  200MOL0     C26915   8.889   2.831   0.777  0.1180 -0.6537 -0.4475
  200MOL0     N26916   9.361   2.327   1.220  0.3616 -0.2280  0.0809
  200MOL0     N26917   9.375   2.270   1.332  0.4911 -0.1728  0.5378
  200MOL0     C26918   9.290   1.561   2.256  0.2618  0.5555  0.5640
  200MOL0     C26919   9.302   1.498   2.379 -0.2135 -0.4126 -0.2167
  200MOL0     C26920   9.475   1.391   2.766 -0.0245 -0.0193  0.1250
  200MOL0     C26921   9.599   1.335   2.808  0.7730  1.1430  0.3919
  200MOL0     C26922   9.619   1.292   2.944  0.4706  0.5730  0.0858
  200MOL0     C26923   9.506   1.294   3.034  0.0001 -0.8767 -0.5022
  200MOL0     O26924   9.522   1.246   3.159 -0.7672 -0.3791 -0.0265
  200MOL0     C26925   9.635   1.177   3.199  0.5949 -0.6000 -0.4346
  200MOL0     C26926   9.638   1.143   3.354  0.4881  0.0538  0.5803
  200MOL0     C26927   9.652   1.275   3.437 -0.0489 -0.8138  0.0468
  200MOL0     C26928   9.519   1.340   3.474 -0.6271 -0.2355  0.2705
  200MOL0     C26929   9.440   1.260   3.565  0.0682  0.0503 -0.5911
  200MOL0     C26930   9.367   1.199   3.637  0.9454 -0.0101  0.3099
  200MOL0     C26931   9.393   1.352   3.000  0.7644  0.3234  0.3172
  200MOL0     C26932   9.379   1.405   2.872 -0.2407 -0.5289  0.2913
  200MOL0     H26933   9.239   1.782   2.571  2.7045  0.5230  1.1170
  200MOL0     H26934   9.184   1.861   2.359  0.4195 -0.2160 -2.2669
  200MOL0     H26935   9.409   1.835   2.039  4.1558 -3.4019  0.5595
  200MOL0     H26936   9.384   1.664   2.024  1.3274  0.0962  2.3010
  200MOL0     H26937   9.301   1.720   1.808 -2.5196 -1.0840  0.5892
  200MOL0     H26938   9.158   1.726   1.900  0.2003 -0.2374 -0.1464
  200MOL0     H26939   9.155   1.946   1.937 -1.4665 -2.1589 -1.8277
  200MOL0     H26940   9.320   1.975   1.851 -0.6671 -0.0264 -2.6730
  200MOL0     H26941   9.204   1.913   1.652  0.1783 -3.6958  1.3381
  200MOL0     H26942   9.049   1.874   1.731  0.4567  0.1412  0.8841
  200MOL0     H26943   8.999   2.085   1.650 -0.3083 -0.9760  0.2690
  200MOL0     H26944   9.000   2.088   1.819 -1.3209  2.8154 -0.5727
  200MOL0     H26945   9.094   2.302   1.732 -2.5951 -1.8873  1.6125
  200MOL0     H26946   9.224   2.213   1.815 -0.1884 -0.5288 -0.0024
  200MOL0     H26947   9.265   2.122   1.566  0.8437  0.3136 -2.4734
  200MOL0     H26948   9.123   2.227   1.525 -0.3534  2.7211  0.0419
  200MOL0     H26949   9.404   2.328   1.617  0.2402 -2.9666 -0.1682
  200MOL0     H26950   9.254   2.428   1.612 -1.2817 -1.0162  2.9519
  200MOL0     H26951   9.261   2.578   1.390  1.5931  1.5898 -3.0475
  200MOL0     H26952   9.331   2.646   1.116  0.0728  0.1383 -0.5274
  200MOL0     H26953   9.397   2.498   1.029 -0.1901 -1.1086 -0.0028
  200MOL0     H26954   9.137   2.434   1.013  1.4030 -0.1367 -2.1514
  200MOL0     H26955   9.197   2.564   0.935 -0.8749  1.2743  0.9950
  200MOL0     H26956   9.115   2.710   1.153  0.3446  0.3350 -0.8618
  200MOL0     H26957   9.073   2.547   1.225  0.6917 -1.7119 -1.2490
  200MOL0     H26958   8.884   2.634   1.173  2.1193 -0.7616  1.9868
  200MOL0     H26959   8.925   2.518   1.038 -2.1417  0.2966  0.9318
  200MOL0     H26960   8.812   2.502   0.861 -1.1561  0.5805 -0.0823
  200MOL0     H26961   8.790   2.381   0.657 -0.7973  0.3755  2.2221
  200MOL0     H26962   8.631   2.453   0.602 -0.2373 -1.5056 -0.6194
  200MOL0     H26963   8.775   2.483   0.506 -1.2630  1.2942  0.9697
  200MOL0     H26964   8.594   2.385   0.362 -1.0088 -1.0630 -1.5961
  200MOL0     H26965   8.519   2.324   0.147  1.5369 -1.2786 -0.2431
  200MOL0     H26966   8.455   2.631  -0.182 -1.5277 -0.4045 -0.0515
  200MOL0     H26967   8.606   2.535  -0.167 -0.2534  2.3300  2.9369
  200MOL0     H26968   8.428   2.339  -0.283  0.2098 -0.0594 -0.7572
  200MOL0     H26969   8.359   2.493  -0.334  0.1900 -1.8072 -1.6201
  200MOL0     H26970   8.607   2.548  -0.417  0.3524  0.0999  2.9062
  200MOL0     H26971   8.501   2.435  -0.501  3.2966 -1.1689 -2.0344
  200MOL0     H26972   8.717   2.350  -0.301  2.1830 -1.2177 -1.9131
  200MOL0     H26973   8.615   2.239  -0.400  1.9478 -0.5394 -0.0635
  200MOL0     H26974   8.800   2.450  -0.502 -1.4063  1.2477  3.4291
  200MOL0     H26975   8.707   2.338  -0.606 -0.7754 -1.9304  1.0355
  200MOL0     H26976   8.784   2.140  -0.502  1.3230 -2.5540  5.2478
  200MOL0     H26977   8.933   2.212  -0.569  1.6927 -0.5604  1.5455
  200MOL0     H26978   8.876   2.201  -0.288 -4.1817 -1.9088 -3.4018
  200MOL0     H26979   9.024   2.279  -0.364 -1.9698  1.3165 -1.3535
  200MOL0     H26980   9.062   2.054  -0.464  1.7721  0.1754  0.4362
  200MOL0     H26981   8.921   2.002  -0.361 -0.4068  0.4221  0.2159
  200MOL0     H26982   8.521   2.723   0.000  4.1518 -0.1870 -0.8064
  200MOL0     H26983   8.603   2.785   0.220  3.3040  0.1419 -2.2988
  200MOL0     H26984   8.820   2.909   0.579 -1.0573 -0.8010 -0.7490
  200MOL0     H26985   8.939   2.920   0.814 -1.1474 -0.2214  0.2889
  200MOL0     H26986   9.299   1.489   2.174  3.7141  1.3430  0.0792
  200MOL0     H26987   9.329   1.394   2.394  1.8896  0.0781 -0.2450
  200MOL0     H26988   9.675   1.313   2.734 -1.2810 -1.5093 -1.0877
  200MOL0     H26989   9.719   1.253   2.955 -0.2374 -2.1608 -2.0379
  200MOL0     H26990   9.636   1.082   3.145  0.8490 -1.1585  0.5399
  200MOL0     H26991   9.721   1.243   3.182 -1.0579  2.6439  2.6397
  200MOL0     H26992   9.727   1.080   3.363 -0.2173 -1.5199 -2.2439
  200MOL0     H26993   9.542   1.096   3.377 -0.6839  0.5328 -2.7933
  200MOL0     H26994   9.706   1.354   3.385 -1.3416  1.1609  1.5355
  200MOL0     H26995   9.700   1.248   3.532  2.5673 -2.1884 -1.5633
  200MOL0     H26996   9.460   1.370   3.387  0.2432 -1.6880 -0.8649
  200MOL0     H26997   9.534   1.433   3.530 -0.4400 -0.3779  0.4616
  200MOL0     H26998   9.296   1.142   3.694 -0.3157 -0.5200 -1.6784
  200MOL0     H26999   9.309   1.369   3.067  1.6216  0.1887  1.4560
  200MOL0     H27000   9.285   1.451   2.847  0.3257  0.5481  0.0727
  201MOL0     O27001   8.648   2.642   5.461  0.6233  0.7346  0.0275
  201MOL0     C27002   8.557   2.668   5.383 -0.4802  0.3833 -0.2765
  201MOL0     O27003   8.571   2.678   5.242  0.3895 -0.5484 -0.0992
  201MOL0     C27004   8.695   2.690   5.193  0.8283 -0.0399 -0.8565
  201MOL0     C27005   8.753   2.809   5.165 -0.4289 -0.1817  0.8317
  201MOL0     C27006   8.885   2.820   5.113  0.1568 -0.1088 -0.4842
  201MOL0     C27007   8.965   2.706   5.113  0.0072 -0.2126 -0.1338
  201MOL0     O27008   9.087   2.700   5.059 -0.2556 -0.0903  0.9221
  201MOL0     C27009   9.115   2.796   4.951 -0.2600 -0.4544  0.0428
  201MOL0     C27010   9.254   2.777   4.890  0.2998  0.5139 -0.7299
  201MOL0     C27011   9.280   2.847   4.751  0.1697  0.1327  1.5522
  201MOL0     C27012   9.421   2.839   4.701 -0.5480 -0.0443  0.7569
  201MOL0     C27013   9.441   2.902   4.567 -0.7901  0.0797 -0.4760
  201MOL0     C27014   9.380   2.826   4.452 -0.1794  0.6985 -0.3016
  201MOL0     C27015   9.399   2.677   4.457  0.6402  0.5758 -0.8462
  201MOL0     C27016   9.399   2.602   4.319  0.2433 -0.3034 -0.8596
  201MOL0     N27017   9.321   2.659   4.210  0.0173  0.0515 -0.9716
  201MOL0     C27018   9.389   2.733   4.114  1.1411  0.3076 -0.5070
  201MOL0     C27019   9.289   2.762   4.032  0.0739  0.3518  0.2400
  201MOL0     C27020   9.320   2.850   3.910  0.4092  0.0305  0.7966
  201MOL0     C27021   9.228   2.814   3.787 -1.2961  0.5444 -0.7818
  201MOL0     C27022   9.253   2.927   3.687 -0.3448 -0.5022  0.2064
  201MOL0     C27023   9.172   2.904   3.561 -1.2831 -0.4234 -0.1979
  201MOL0     O27024   9.213   2.999   3.457  1.0016  0.6770  0.3256
  201MOL0     C27025   9.145   3.015   3.340 -0.2920 -0.8994  0.7634
  201MOL0     C27026   9.175   3.132   3.276  0.1412 -0.5944 -0.1052
  201MOL0     C27027   9.116   3.171   3.158  0.3520  0.6103  0.0197
  201MOL0     C27028   9.163   3.301   3.102 -0.4013 -0.3435  0.7986
  201MOL0     C27029   9.008   3.095   3.096  0.3088 -0.0424  0.3064
  201MOL0     C27030   8.945   3.116   2.968 -0.6926 -0.4964  0.3638
  201MOL0     O27031   8.848   3.029   2.933  0.8540  0.0138 -0.2847
  201MOL0     C27032   8.761   3.046   2.821  0.3032 -0.3077  0.0719
  201MOL0     C27033   8.774   2.982   2.702 -0.3234  0.2481  0.8864
  201MOL0     C27034   8.683   3.010   2.596 -0.2310 -0.9528 -0.3487
  201MOL0     C27035   8.577   3.096   2.613  0.7275 -0.2943 -0.5523
  201MOL0     O27036   8.499   3.130   2.515  0.6420 -1.1277  0.3816
  201MOL0     C27037   8.370   3.188   2.528  0.5484  0.0881  0.4808
  201MOL0     C27038   8.257   3.100   2.594  0.1044  0.3456  0.7419
  201MOL0     C27039   8.126   3.140   2.536  1.0286 -0.0443  0.1491
  201MOL0     C27040   8.016   3.054   2.586 -0.0605 -0.2947 -0.2597
  201MOL0     C27041   7.995   2.913   2.513  0.5035 -0.5801 -0.1715
  201MOL0     C27042   7.903   2.917   2.389  0.8539 -0.9682 -0.1679
  201MOL0     C27043   7.905   2.778   2.324  0.4440  0.2709  0.1868
  201MOL0     C27044   7.776   2.734   2.261  1.2471 -0.6111 -0.9747
  201MOL0    Cl27045   7.796   2.564   2.230  0.0168 -0.1326 -0.0646
  201MOL0     C27046   8.557   3.153   2.741  0.8155 -0.0330 -0.4867
  201MOL0     C27047   8.653   3.131   2.843  0.9340  0.4704  0.3898
  201MOL0     O27048   8.982   3.209   2.899  0.4405  0.3929  0.2806
  201MOL0     C27049   8.985   2.970   3.165  1.5257 -0.5131  0.4596
  201MOL0     C27050   9.043   2.935   3.288 -0.1806 -0.5224  0.7606
  201MOL0     N27051   9.166   2.727   4.092 -0.7243  1.8416 -0.0876
  201MOL0     N27052   9.186   2.662   4.200 -0.2150 -1.0470  0.8635
  201MOL0     C27053   8.907   2.576   5.140  0.1766 -0.1774 -0.1193
  201MOL0     C27054   8.773   2.572   5.183  0.9107  0.0532  0.1584
  201MOL0     C27055   8.423   2.694   5.447  0.7927 -0.1554  0.4155
  201MOL0     C27056   8.312   2.725   5.373 -0.1663 -0.9882 -0.1696
  201MOL0     C27057   8.198   2.754   5.441  0.0270  0.6906  0.0772
  201MOL0     C27058   8.179   2.729   5.576 -0.1888 -0.7232 -0.4359
  201MOL0     O27059   8.054   2.760   5.631  0.1235 -0.4803  0.0900
  201MOL0     C27060   8.014   2.707   5.760 -0.7964 -0.1165  0.3190
  201MOL0     C27061   7.868   2.730   5.784 -0.4506  0.2223 -0.0477
  201MOL0     C27062   7.778   2.624   5.709 -0.2847 -0.8959  0.7543
  201MOL0     C27063   7.636   2.664   5.728 -0.1095 -0.0299 -0.7008
  201MOL0     C27064   7.578   2.609   5.861 -0.4057 -0.2337  0.4408
  201MOL0     C27065   7.520   2.583   5.963  0.4549 -0.2328 -0.5102
  201MOL0     C27066   8.284   2.678   5.645  0.0574  0.4016 -0.6184
  201MOL0     C27067   8.407   2.671   5.586 -0.5355  0.8997  0.1398
  201MOL0     H27068   8.694   2.899   5.182  1.8173  1.2585  1.5487
  201MOL0     H27069   8.919   2.920   5.090  1.7052 -0.1893  1.1616
  201MOL0     H27070   9.043   2.786   4.869 -1.3803  0.4679  0.8791
  201MOL0     H27071   9.115   2.894   4.999  0.1254 -0.1539 -0.5567
  201MOL0     H27072   9.333   2.805   4.960 -0.8940 -2.2673  1.9809
  201MOL0     H27073   9.270   2.669   4.874 -0.1116  0.6784 -2.4009
  201MOL0     H27074   9.207   2.820   4.674 -0.9833  1.3990  2.1515
  201MOL0     H27075   9.266   2.954   4.770 -2.9987 -0.1019  1.0602
  201MOL0     H27076   9.492   2.885   4.770  0.7170  0.1114 -0.5959
  201MOL0     H27077   9.459   2.737   4.708 -0.2266  0.0234  0.0252
  201MOL0     H27078   9.383   2.995   4.563 -0.5625  0.2906  0.6610
  201MOL0     H27079   9.550   2.913   4.559 -1.0036  2.7236 -0.5870
  201MOL0     H27080   9.274   2.848   4.443 -0.8134 -1.1075  1.6799
  201MOL0     H27081   9.432   2.857   4.361 -0.5928 -0.2285 -0.8664
  201MOL0     H27082   9.501   2.668   4.497  0.6242  0.7883 -0.7592
  201MOL0     H27083   9.323   2.644   4.528  1.3542 -0.8187 -0.6868
  201MOL0     H27084   9.355   2.507   4.349 -1.4915  1.5425  3.3026
  201MOL0     H27085   9.500   2.580   4.283  1.3011 -1.0723  2.1996
  201MOL0     H27086   9.495   2.754   4.109  1.3830  0.7323  3.4438
  201MOL0     H27087   9.299   2.951   3.946  0.5623  0.7868 -1.1148
  201MOL0     H27088   9.424   2.859   3.877 -0.6876 -0.0086 -3.2243
  201MOL0     H27089   9.122   2.821   3.814 -1.4754  4.8489 -1.8142
  201MOL0     H27090   9.253   2.717   3.744  2.2260  0.5042  0.9878
  201MOL0     H27091   9.361   2.932   3.668 -0.2022 -0.1856  1.0658
  201MOL0     H27092   9.217   3.020   3.733  0.0080 -0.2077 -0.0979
  201MOL0     H27093   9.064   2.905   3.578 -0.9902  1.7704  2.2820
  201MOL0     H27094   9.208   2.804   3.536 -0.9389 -0.3296 -0.0882
  201MOL0     H27095   9.252   3.197   3.317 -0.3376 -0.5006  0.6555
  201MOL0     H27096   9.197   3.291   2.999 -0.7463  1.0223  0.5351
  201MOL0     H27097   9.086   3.378   3.111 -0.8203 -0.5798 -0.5784
  201MOL0     H27098   9.251   3.340   3.155 -0.2668 -2.4118  2.2219
  201MOL0     H27099   8.846   2.903   2.685  0.7710  1.4884 -0.4863
  201MOL0     H27100   8.712   2.978   2.497  4.2589 -2.8564  1.3051
  201MOL0     H27101   8.378   3.282   2.585 -0.5802 -0.2640  1.2512
  201MOL0     H27102   8.349   3.221   2.426  2.1623  0.6624  0.3075
  201MOL0     H27103   8.270   2.999   2.556 -3.9846  0.3527 -1.1855
  201MOL0     H27104   8.259   3.097   2.703  1.0391 -0.8397  0.7103
  201MOL0     H27105   8.127   3.156   2.428 -1.7363 -0.0149  0.0523
  201MOL0     H27106   8.111   3.237   2.585  4.2730 -0.0180  1.3139
  201MOL0     H27107   8.036   3.045   2.693 -1.2894  3.0849  0.3736
  201MOL0     H27108   7.925   3.114   2.573  1.1964  1.3331 -1.9997
  201MOL0     H27109   7.959   2.833   2.578 -0.6065 -0.3973 -0.5434
  201MOL0     H27110   8.097   2.884   2.483  0.3340 -1.5738  0.1890
  201MOL0     H27111   7.801   2.957   2.395  2.2604  3.0223  0.2567
  201MOL0     H27112   7.946   2.997   2.328  0.9297  1.6966  3.0575
  201MOL0     H27113   7.934   2.701   2.396  0.2072  1.2401  1.3469
  201MOL0     H27114   7.979   2.779   2.244  0.6082 -2.0475  0.2553
  201MOL0     H27115   7.771   2.786   2.165  2.0722  1.1593 -0.1013
  201MOL0     H27116   7.695   2.766   2.327  1.5660 -0.1640 -0.7994
  201MOL0     H27117   8.481   3.227   2.765  0.3582 -0.5247 -0.4209
  201MOL0     H27118   8.648   3.164   2.946  3.1030 -2.3388  1.5222
  201MOL0     H27119   8.919   2.894   3.124 -1.6034  0.5184  3.1266
  201MOL0     H27120   9.004   2.855   3.350 -0.7207  0.3608  1.5849
  201MOL0     H27121   8.965   2.484   5.138  1.3284  0.4960  0.8995
  201MOL0     H27122   8.730   2.475   5.209  2.6254 -2.0303 -3.7797
  201MOL0     H27123   8.332   2.733   5.267  1.4591  0.3624  0.2000
  201MOL0     H27124   8.103   2.777   5.393  0.1436 -0.1825 -0.6126
  201MOL0     H27125   8.024   2.598   5.764 -2.6237 -0.2794  1.3345
  201MOL0     H27126   8.062   2.766   5.839 -3.2182  1.1345  0.9390
  201MOL0     H27127   7.837   2.834   5.775 -0.0482  0.6101  2.3470
  201MOL0     H27128   7.869   2.695   5.888 -0.3161 -0.2510 -0.2056
  201MOL0     H27129   7.805   2.525   5.745 -1.0282 -0.7932  1.6352
  201MOL0     H27130   7.803   2.628   5.602  2.4371 -2.0781  1.2680
  201MOL0     H27131   7.587   2.622   5.639  0.9011  0.4392 -1.5036
  201MOL0     H27132   7.622   2.772   5.736  1.5020  0.0916  1.3709
  201MOL0     H27133   7.475   2.544   6.052 -1.6287  0.1577 -1.3179
  201MOL0     H27134   8.266   2.632   5.742 -2.3496 -1.2120 -1.7225
  201MOL0     H27135   8.489   2.630   5.643  0.1339  2.6814  0.5196
  202MOL0     O27136  11.225  11.007   6.242  0.3087 -0.4530  0.1656
  202MOL0     C27137  11.301  11.079   6.310 -0.3325  0.0043  0.8363
  202MOL0     O27138  11.387  11.177   6.256 -0.2462  0.8222 -0.8865
  202MOL0     C27139  11.372  11.216   6.123 -0.0727 -0.1168 -0.2460
  202MOL0     C27140  11.498  11.231   6.062  0.0767  0.1098  0.3804
  202MOL0     C27141  11.494  11.251   5.922 -0.0185  0.4241  1.1778
  202MOL0     C27142  11.373  11.260   5.848  0.3735 -0.5272  0.0565
  202MOL0     O27143  11.363  11.267   5.713  0.1460  0.4321 -0.0684
  202MOL0     C27144  11.478  11.216   5.642  0.3080  0.0202  0.6045
  202MOL0     C27145  11.470  11.237   5.489  0.2662  0.8402 -0.2794
  202MOL0     C27146  11.435  11.388   5.468 -0.5176  0.0490  0.1415
  202MOL0     C27147  11.416  11.391   5.326 -0.1312 -0.1241 -0.0451
  202MOL0     C27148  11.406  11.536   5.273  0.5471  0.4957  0.1567
  202MOL0     C27149  11.370  11.538   5.128  0.0195  0.5704  0.8330
  202MOL0     C27150  11.361  11.680   5.076  0.7324  0.1777 -0.0732
  202MOL0     C27151  11.220  11.726   5.008 -0.1552  0.0334  0.2874
  202MOL0     N27152  11.231  11.859   4.963 -0.0114  0.5926 -0.7830
  202MOL0     C27153  11.263  11.903   4.836 -0.1314 -0.5583  0.3515
  202MOL0     C27154  11.285  12.033   4.847  0.4689 -0.4010 -0.3861
  202MOL0     C27155  11.308  12.135   4.736 -0.2739 -0.6890  1.2419
  202MOL0     C27156  11.441  12.132   4.659  0.1514 -0.1697 -0.0812
  202MOL0     C27157  11.484  12.280   4.623  0.5951 -0.3473 -0.0071
  202MOL0     C27158  11.401  12.380   4.545 -0.6938 -0.5072 -1.2280
  202MOL0     O27159  11.459  12.501   4.525 -0.0908  0.6317  0.3575
  202MOL0     C27160  11.513  12.565   4.637 -1.1240  0.4557 -0.5910
  202MOL0     C27161  11.433  12.592   4.754  0.6332  0.0086  0.5490
  202MOL0     C27162  11.473  12.657   4.869  0.0022 -0.1409 -0.1503
  202MOL0     C27163  11.389  12.669   4.993 -1.1227 -0.4076 -0.3021
  202MOL0     C27164  11.606  12.708   4.870 -0.6641  0.1507 -0.5321
  202MOL0     C27165  11.682  12.768   4.988  0.5434 -0.1024  0.6191
  202MOL0     O27166  11.725  12.901   4.969  0.2794 -1.0517  0.9326
  202MOL0     C27167  11.803  12.958   5.062 -0.1663  0.3753 -0.7579
  202MOL0     C27168  11.780  13.098   5.081 -0.5814 -0.4377 -1.1701
  202MOL0     C27169  11.861  13.168   5.168  0.2553 -0.1218  0.9339
  202MOL0     C27170  11.963  13.114   5.239 -0.0300 -0.5863  0.3662
  202MOL0     O27171  12.046  13.164   5.332  0.6212 -0.2149  0.4108
  202MOL0     C27172  12.066  13.308   5.337  0.5066 -0.6187 -0.3549
  202MOL0     C27173  12.159  13.363   5.231 -0.7543  0.8432 -0.9018
  202MOL0     C27174  12.302  13.358   5.293 -0.8368 -0.2544 -0.4349
  202MOL0     C27175  12.396  13.451   5.212 -0.2589 -0.7251 -0.2565
  202MOL0     C27176  12.548  13.439   5.252 -0.0316 -0.7118  0.1740
  202MOL0     C27177  12.633  13.540   5.190  0.2661 -0.7525 -0.7150
  202MOL0     C27178  12.650  13.512   5.047  0.5621 -0.0289  0.6680
  202MOL0     C27179  12.766  13.572   4.980  0.1208 -0.3487  0.1522
  202MOL0    Cl27180  12.811  13.750   5.012 -0.2394  0.6837 -0.5848
  202MOL0     C27181  11.981  12.980   5.223 -0.2090  0.3603  0.4287
  202MOL0     C27182  11.896  12.894   5.147  1.1690 -0.2250 -0.0439
  202MOL0     O27183  11.692  12.711   5.097  0.3018 -0.1851  0.0709
  202MOL0     C27184  11.684  12.692   4.755 -0.7262 -0.1756 -1.7115
  202MOL0     C27185  11.634  12.622   4.645  0.0511 -0.2998  0.2200
  202MOL0     N27186  11.244  12.069   4.975 -0.3169 -0.2209  0.5219
  202MOL0     N27187  11.218  11.967   5.044 -0.6459  0.3278 -0.0199
  202MOL0     C27188  11.255  11.253   5.925 -1.0686  0.2305  0.3494
  202MOL0     C27189  11.252  11.234   6.062  0.0874  0.1130  0.1268
  202MOL0     C27190  11.304  11.052   6.460  0.2000 -0.2704 -0.1373
  202MOL0     C27191  11.388  11.131   6.545  0.2823 -0.1332  1.2890
  202MOL0     C27192  11.368  11.140   6.690  0.2341  0.4069  0.6957
  202MOL0     C27193  11.287  11.048   6.752  0.0827 -0.1514 -0.5136
  202MOL0     O27194  11.258  11.040   6.892 -0.5920  0.2712  0.1119
  202MOL0     C27195  11.276  11.154   6.983  0.5993 -0.1581  0.9194
  202MOL0     C27196  11.226  11.126   7.132  0.7852  0.3859  0.0122
  202MOL0     C27197  11.090  11.063   7.144  0.6079  0.5484  0.4937
  202MOL0     C27198  11.064  11.017   7.287  0.0693 -0.8820 -0.7982
  202MOL0     C27199  10.944  10.941   7.296  0.5589  0.3665  0.4131
  202MOL0     C27200  10.876  10.843   7.330 -0.4848 -0.6434  0.1064
  202MOL0     C27201  11.232  10.942   6.668  1.2543 -0.3297 -0.7613
  202MOL0     C27202  11.228  10.961   6.526  0.3884 -0.3831  0.0784
  202MOL0     H27203  11.591  11.248   6.116 -0.7476  1.8341  1.3650
  202MOL0     H27204  11.588  11.268   5.872  0.1050 -1.0858  0.8262
  202MOL0     H27205  11.570  11.275   5.650  2.5154 -3.0436 -0.3280
  202MOL0     H27206  11.506  11.114   5.670  4.8845  0.1254 -2.3902
  202MOL0     H27207  11.568  11.223   5.443  0.5152 -1.3100  0.8005
  202MOL0     H27208  11.390  11.191   5.431 -0.7635  4.1785 -1.7537
  202MOL0     H27209  11.352  11.434   5.523 -0.8685 -0.2715 -0.1111
  202MOL0     H27210  11.530  11.431   5.498 -0.9421 -0.8084  2.9471
  202MOL0     H27211  11.492  11.356   5.255  0.3153  1.1199 -0.2085
  202MOL0     H27212  11.319  11.350   5.296 -0.9013  1.4021  0.2206
  202MOL0     H27213  11.325  11.584   5.328 -1.5375 -1.7843 -0.7523
  202MOL0     H27214  11.506  11.581   5.278  2.3832 -3.0967 -0.8037
  202MOL0     H27215  11.455  11.499   5.071  1.1384  3.6292  0.2193
  202MOL0     H27216  11.282  11.478   5.104  0.1957  0.3028  0.8475
  202MOL0     H27217  11.373  11.742   5.165  1.5672 -0.1374  0.0381
  202MOL0     H27218  11.437  11.705   5.002  3.5930 -3.3177  1.4274
  202MOL0     H27219  11.149  11.724   5.091 -0.6981 -1.2009 -0.1852
  202MOL0     H27220  11.185  11.653   4.934  0.8458 -1.5880  1.3453
  202MOL0     H27221  11.286  11.846   4.747  2.4678  0.6742  0.1373
  202MOL0     H27222  11.235  12.123   4.655  1.9221  3.1618 -1.6789
  202MOL0     H27223  11.288  12.235   4.775  0.8524 -0.4430  1.2146
  202MOL0     H27224  11.428  12.076   4.566  1.4983 -0.1173 -0.3280
  202MOL0     H27225  11.512  12.074   4.719 -0.1486  0.1885  0.6262
  202MOL0     H27226  11.573  12.279   4.561 -0.2217  1.8616 -1.2999
  202MOL0     H27227  11.514  12.310   4.724 -1.1343 -1.4728  0.8911
  202MOL0     H27228  11.308  12.394   4.600  1.3509  1.3925  2.0667
  202MOL0     H27229  11.381  12.340   4.445  0.3046  0.9286 -2.0419
  202MOL0     H27230  11.331  12.560   4.774  0.9171  1.1901  4.9281
  202MOL0     H27231  11.452  12.626   5.072  0.1142  0.4929 -0.7775
  202MOL0     H27232  11.374  12.773   5.022 -4.8893 -0.9705  0.2558
  202MOL0     H27233  11.300  12.607   5.005 -0.2276 -1.6235  0.3125
  202MOL0     H27234  11.706  13.157   5.028 -1.6010 -0.2007  0.4544
  202MOL0     H27235  11.851  13.276   5.179 -3.6654 -0.1206 -0.8327
  202MOL0     H27236  11.967  13.354   5.335  0.4298 -0.7731 -0.1766
  202MOL0     H27237  12.107  13.333   5.436  2.1254  1.6664 -1.5034
  202MOL0     H27238  12.156  13.314   5.134  0.5442 -1.7238  0.2526
  202MOL0     H27239  12.132  13.469   5.223  1.3007  1.4507 -0.3043
  202MOL0     H27240  12.356  13.266   5.317 -1.3053 -0.3294  0.3606
  202MOL0     H27241  12.289  13.404   5.391 -1.4767 -2.8327  0.7596
  202MOL0     H27242  12.384  13.438   5.104 -2.4219  0.1371 -0.1672
  202MOL0     H27243  12.359  13.550   5.240 -0.2176 -0.2412 -1.8344
  202MOL0     H27244  12.574  13.335   5.231  2.6612  0.2605 -1.7816
  202MOL0     H27245  12.561  13.451   5.360  0.1867 -3.1092  0.4718
  202MOL0     H27246  12.586  13.637   5.208 -1.6677 -1.6438 -0.6611
  202MOL0     H27247  12.735  13.525   5.226  0.2833  0.5762 -0.1350
  202MOL0     H27248  12.559  13.544   4.994  0.1803 -1.4209  0.4410
  202MOL0     H27249  12.664  13.404   5.032 -1.2669 -0.1223 -0.8240
  202MOL0     H27250  12.764  13.555   4.871 -0.7530 -2.4837  0.4383
  202MOL0     H27251  12.841  13.500   5.015 -1.5417 -2.2769 -0.0139
  202MOL0     H27252  12.063  12.931   5.274 -1.5726 -0.3651  2.0418
  202MOL0     H27253  11.923  12.789   5.150  0.8183 -0.3035  0.7808
  202MOL0     H27254  11.784  12.733   4.759 -0.6195  0.1112  5.2399
  202MOL0     H27255  11.692  12.609   4.554 -0.7377 -0.1468 -0.3165
  202MOL0     H27256  11.156  11.251   5.881 -1.0018  0.9645  0.1424
  202MOL0     H27257  11.157  11.236   6.114  1.1924 -0.3265  2.2875
  202MOL0     H27258  11.460  11.191   6.489 -1.7649 -0.5403 -2.0085
  202MOL0     H27259  11.434  11.209   6.741 -0.9774  1.7576  0.5004
  202MOL0     H27260  11.379  11.192   6.981  1.8966 -3.4048 -1.1950
  202MOL0     H27261  11.218  11.240   6.948 -1.4386 -1.9804 -0.4279
  202MOL0     H27262  11.223  11.224   7.180  2.3003  0.4905 -0.0406
  202MOL0     H27263  11.302  11.066   7.183  2.4475  0.1491 -2.5117
  202MOL0     H27264  11.087  10.975   7.080  1.0423  1.1733 -0.3900
  202MOL0     H27265  11.010  11.124   7.101  1.9419  0.2175 -2.7074
  202MOL0     H27266  11.051  11.101   7.355 -1.4927  1.6144 -3.9420
  202MOL0     H27267  11.142  10.952   7.329 -0.4665 -2.2578 -1.8379
  202MOL0     H27268  10.810  10.763   7.357  1.2038 -1.5967  1.6440
  202MOL0     H27269  11.164  10.882   6.726  2.3852 -0.2448  0.6951
  202MOL0     H27270  11.180  10.884   6.466  0.0415  0.9438 -1.4407
  203MOL0     O27271   6.032   3.983   6.308 -0.1181  0.5163  0.3367
  203MOL0     C27272   6.140   4.042   6.297 -0.1219  0.4491  0.5717
  203MOL0     O27273   6.229   4.029   6.197 -0.2648 -0.5836 -0.1616
  203MOL0     C27274   6.178   3.952   6.097  1.5350  0.1705  1.0023
  203MOL0     C27275   6.228   3.826   6.082 -0.7765 -0.3082 -0.0382
  203MOL0     C27276   6.197   3.745   5.974  0.8642 -0.4575  0.2608
  203MOL0     C27277   6.114   3.803   5.870  0.1352 -0.1777  0.0020
  203MOL0     O27278   6.101   3.751   5.742 -0.0640  0.0173 -0.3912
  203MOL0     C27279   6.062   3.615   5.729  0.6860  0.6710  0.4998
  203MOL0     C27280   5.987   3.583   5.601  0.0877 -0.3130 -0.1497
  203MOL0     C27281   5.934   3.432   5.598 -0.5307 -0.3162  0.5536
  203MOL0     C27282   6.051   3.326   5.581  0.9816  0.8104  0.0258
  203MOL0     C27283   6.000   3.177   5.599 -0.9131  0.1130 -0.2742
  203MOL0     C27284   6.077   3.078   5.507  0.2055 -0.1312  0.0254
  203MOL0     C27285   6.226   3.053   5.527 -0.0855 -0.5820 -0.2923
  203MOL0     C27286   6.279   2.973   5.409 -0.2783 -0.5341  0.6376
  203MOL0     N27287   6.251   2.832   5.425  0.7933 -0.7707 -0.0737
  203MOL0     C27288   6.293   2.745   5.522  0.5611 -0.1535 -0.4665
  203MOL0     C27289   6.256   2.623   5.485 -0.0435  0.0328  0.1140
  203MOL0     C27290   6.287   2.500   5.550 -0.5997  1.1065 -0.3718
  203MOL0     C27291   6.192   2.438   5.651  0.1367 -0.2259 -0.0148
  203MOL0     C27292   6.074   2.379   5.576  0.2938 -0.7186  0.0283
  203MOL0     C27293   5.994   2.267   5.644 -0.7415 -0.2725  0.8239
  203MOL0     O27294   5.935   2.309   5.769 -0.2881 -0.1314 -0.4420
  203MOL0     C27295   5.820   2.378   5.766 -0.1113 -0.3747 -0.2542
  203MOL0     C27296   5.752   2.431   5.658  0.1243  0.7923 -0.2887
  203MOL0     C27297   5.634   2.504   5.676 -0.3807 -0.2743 -0.4605
  203MOL0     C27298   5.565   2.550   5.551 -0.7495  0.6035  0.0386
  203MOL0     C27299   5.569   2.509   5.803  0.0899  0.8743  0.1010
  203MOL0     C27300   5.460   2.606   5.837 -0.4958  0.1359  0.2020
  203MOL0     O27301   5.362   2.615   5.743  0.0688  0.7543 -0.4306
  203MOL0     C27302   5.239   2.668   5.763 -0.1913 -0.1435  0.0497
  203MOL0     C27303   5.163   2.729   5.663 -0.7228 -0.2980  0.1743
  203MOL0     C27304   5.034   2.784   5.685  0.2184  0.3132 -0.0253
  203MOL0     C27305   4.972   2.766   5.814 -0.7135 -0.0546 -0.4173
  203MOL0     O27306   4.846   2.820   5.835  0.8279  0.7831 -0.1718
  203MOL0     C27307   4.781   2.786   5.964  0.8371 -0.8235  0.9424
  203MOL0     C27308   4.651   2.872   5.956 -0.2446 -0.2759 -0.0452
  203MOL0     C27309   4.549   2.804   5.867  0.6440 -0.3199  0.6697
  203MOL0     C27310   4.424   2.897   5.833  0.0000 -0.4026 -1.3431
  203MOL0     C27311   4.371   2.872   5.693 -0.4377  0.1300  0.4934
  203MOL0     C27312   4.256   2.953   5.651 -0.7705 -0.5157  0.1131
  203MOL0     C27313   4.217   2.941   5.505 -0.6604  0.3981  0.1250
  203MOL0     C27314   4.070   2.913   5.500 -1.2843  0.6859  0.0680
  203MOL0    Cl27315   4.042   2.729   5.496  0.0884  0.3459  0.5852
  203MOL0     C27316   5.045   2.695   5.917  0.2950  0.5963 -1.8103
  203MOL0     C27317   5.177   2.650   5.889 -0.5060  0.1993  0.0383
  203MOL0     O27318   5.465   2.666   5.951 -0.1228 -0.5932 -0.0555
  203MOL0     C27319   5.638   2.459   5.911 -0.1984  0.2145  0.9502
  203MOL0     C27320   5.758   2.398   5.894  0.1167 -0.5776  1.0506
  203MOL0     N27321   6.176   2.641   5.371  0.1465  0.1283  0.0575
  203MOL0     N27322   6.166   2.766   5.343 -0.4285 -1.0249  0.0425
  203MOL0     C27323   6.055   3.932   5.887 -0.1924 -0.2373 -0.2447
  203MOL0     C27324   6.094   4.014   6.000  0.6389  0.0881  0.6199
  203MOL0     C27325   6.171   4.149   6.406  0.0394 -0.4734 -0.1906
  203MOL0     C27326   6.082   4.154   6.522 -0.6997 -0.1213  0.4676
  203MOL0     C27327   6.114   4.243   6.626  0.6903 -0.0155 -0.0596
  203MOL0     C27328   6.219   4.336   6.613  0.1071 -0.0928  0.4184
  203MOL0     O27329   6.250   4.420   6.724  0.2694 -0.5150  0.0324
  203MOL0     C27330   6.376   4.496   6.727  0.3308 -0.1380 -0.6363
  203MOL0     C27331   6.397   4.561   6.865  0.2154  1.4565  1.0255
  203MOL0     C27332   6.277   4.651   6.913 -0.7188  0.0666 -0.3603
  203MOL0     C27333   6.303   4.700   7.051  0.6651  0.4069 -0.2253
  203MOL0     C27334   6.172   4.763   7.086 -0.3440  1.2164  0.0611
  203MOL0     C27335   6.068   4.808   7.137 -0.2289  0.4204  0.3753
  203MOL0     C27336   6.307   4.316   6.500 -0.1388  0.1737 -0.4076
  203MOL0     C27337   6.279   4.231   6.392  0.1236 -1.2353 -0.5176
  203MOL0     H27338   6.291   3.798   6.166 -0.0830 -1.6655 -0.9817
  203MOL0     H27339   6.251   3.653   5.954 -0.5014 -0.9071 -1.5323
  203MOL0     H27340   6.141   3.540   5.725 -2.0874 -2.8208  3.5954
  203MOL0     H27341   6.000   3.591   5.816  2.0969  0.1526  1.3951
  203MOL0     H27342   5.914   3.663   5.584  2.4382  2.4204  1.6238
  203MOL0     H27343   6.066   3.591   5.525  0.9429  0.0127  0.7430
  203MOL0     H27344   5.877   3.417   5.690 -0.8201 -1.6673  0.1811
  203MOL0     H27345   5.861   3.437   5.517 -3.4981  4.0156  3.0886
  203MOL0     H27346   6.101   3.337   5.485 -2.5130  0.4903 -1.9846
  203MOL0     H27347   6.129   3.331   5.659  1.1835 -3.7488  0.4249
  203MOL0     H27348   6.016   3.165   5.706  2.0208  1.4289 -0.4630
  203MOL0     H27349   5.897   3.164   5.564 -0.7378  0.2061 -0.8415
  203MOL0     H27350   6.022   2.985   5.521  1.7877 -0.9802  0.9250
  203MOL0     H27351   6.063   3.108   5.403  1.9768 -0.4588 -0.3464
  203MOL0     H27352   6.261   3.153   5.553  1.7246 -1.4324  0.7575
  203MOL0     H27353   6.238   2.990   5.616 -3.4675 -4.7900 -2.4437
  203MOL0     H27354   6.388   2.971   5.413 -0.2641  0.9488  2.0082
  203MOL0     H27355   6.250   3.018   5.314  0.4521 -0.2195  0.5574
  203MOL0     H27356   6.351   2.773   5.609  6.0455  0.3486 -3.8467
  203MOL0     H27357   6.327   2.431   5.475 -0.5571 -0.9686  1.4669
  203MOL0     H27358   6.378   2.516   5.610 -2.5551  0.6621  2.9702
  203MOL0     H27359   6.166   2.516   5.723  2.8083 -0.0900  0.9242
  203MOL0     H27360   6.242   2.354   5.701 -1.6879 -1.2507  0.1886
  203MOL0     H27361   6.116   2.339   5.483  1.9045  1.5956 -0.3310
  203MOL0     H27362   5.999   2.453   5.547 -0.6401  0.0373  3.8758
  203MOL0     H27363   6.057   2.179   5.660  2.5329  0.5251 -5.0602
  203MOL0     H27364   5.929   2.225   5.567  0.4261 -0.0241 -0.3344
  203MOL0     H27365   5.792   2.425   5.558  2.8162  0.9086  0.6893
  203MOL0     H27366   5.549   2.659   5.553  1.0749  0.9534 -1.3554
  203MOL0     H27367   5.626   2.530   5.463  2.8044 -0.3291  2.4598
  203MOL0     H27368   5.469   2.498   5.554  0.2760 -1.3698  0.5301
  203MOL0     H27369   5.212   2.753   5.569  1.6415 -0.8197  1.1987
  203MOL0     H27370   4.976   2.827   5.604  1.3685  4.4970  1.1089
  203MOL0     H27371   4.762   2.680   5.983 -0.8246 -0.4788  1.3391
  203MOL0     H27372   4.831   2.834   6.049 -0.7393  1.9590  0.4258
  203MOL0     H27373   4.618   2.878   6.060  0.4618  0.3058  0.1565
  203MOL0     H27374   4.672   2.969   5.910 -1.2094 -0.0076  0.0626
  203MOL0     H27375   4.507   2.714   5.913 -1.0909 -0.6692 -1.3992
  203MOL0     H27376   4.609   2.782   5.778  1.9474  4.1248  0.1995
  203MOL0     H27377   4.356   2.893   5.919  0.2742 -2.0783 -1.1744
  203MOL0     H27378   4.455   3.001   5.841  0.5285 -0.6217 -0.4906
  203MOL0     H27379   4.333   2.769   5.685 -1.5945  0.2549  3.3625
  203MOL0     H27380   4.450   2.889   5.619  0.5547  1.2732  1.7628
  203MOL0     H27381   4.176   2.927   5.721 -1.9261 -0.3794 -1.1223
  203MOL0     H27382   4.286   3.056   5.670 -1.9366 -0.2949  0.8540
  203MOL0     H27383   4.265   2.861   5.447  0.3772 -0.1312  1.6340
  203MOL0     H27384   4.230   3.039   5.459 -1.4730  0.6852  0.4848
  203MOL0     H27385   4.021   2.958   5.413 -1.7936 -1.9349 -1.1039
  203MOL0     H27386   4.022   2.958   5.587 -1.8247  0.1096  0.0800
  203MOL0     H27387   5.008   2.678   6.018  3.4189  1.5806 -0.3929
  203MOL0     H27388   5.239   2.598   5.961  1.8507  1.5885 -0.8740
  203MOL0     H27389   5.594   2.471   6.010  2.1509 -0.8881  2.2044
  203MOL0     H27390   5.818   2.362   5.976 -0.2077 -1.1317  1.0584
  203MOL0     H27391   6.001   3.966   5.800  1.6101  0.6611 -1.0754
  203MOL0     H27392   6.054   4.115   6.005 -0.7324 -0.4578  1.2371
  203MOL0     H27393   6.007   4.078   6.542  1.1095 -1.9468  0.7391
  203MOL0     H27394   6.048   4.244   6.713  0.9260 -0.3027  0.1206
  203MOL0     H27395   6.468   4.441   6.705  2.1715  2.2236  0.6408
  203MOL0     H27396   6.364   4.572   6.650  2.6994  0.7666 -0.2153
  203MOL0     H27397   6.490   4.619   6.874  0.4251  1.0029  1.9842
  203MOL0     H27398   6.406   4.475   6.932 -2.3001  0.7181  0.4887
  203MOL0     H27399   6.179   4.603   6.908  0.7432 -3.0281 -2.4390
  203MOL0     H27400   6.279   4.749   6.864  2.5217  0.6688  0.7330
  203MOL0     H27401   6.386   4.771   7.048 -0.2913  1.5204 -1.6794
  203MOL0     H27402   6.337   4.625   7.124  0.8358  1.2053  0.5373
  203MOL0     H27403   5.978   4.839   7.186 -0.3052  1.2153 -0.2494
  203MOL0     H27404   6.392   4.382   6.499  1.5453 -1.8793 -1.9908
  203MOL0     H27405   6.341   4.227   6.303 -1.6654  1.1208 -1.9749
  204MOL0     O27406   2.466   9.669  11.062 -0.4673  0.2522 -0.4062
  204MOL0     C27407   2.348   9.681  11.097 -0.5373  0.1707 -0.2737
  204MOL0     O27408   2.287   9.629  11.202 -1.1622 -0.4839  0.6448
  204MOL0     C27409   2.370   9.562  11.288 -0.5791  0.0251  0.1079
  204MOL0     C27410   2.445   9.451  11.257  0.0792  1.0008  0.1891
  204MOL0     C27411   2.536   9.398  11.354  0.9858 -0.3405 -0.0816
  204MOL0     C27412   2.538   9.433  11.484  0.1269 -0.6407 -0.0081
  204MOL0     O27413   2.621   9.356  11.565  0.0589  0.6399 -0.7150
  204MOL0     C27414   2.581   9.362  11.702  1.0964  0.1647 -0.3323
  204MOL0     C27415   2.656   9.236  11.762  0.9591 -0.2449  0.2896
  204MOL0     C27416   2.606   9.203  11.903  0.5292  0.6653  1.2131
  204MOL0     C27417   2.551   9.067  11.907 -0.0740 -0.1902 -0.1885
  204MOL0     C27418   2.486   9.047  12.039  0.1234 -0.0067 -0.8365
  204MOL0     C27419   2.440   8.898  12.045 -0.6323 -1.1211  0.2185
  204MOL0     C27420   2.543   8.805  12.106 -0.1191 -0.1808  0.1015
  204MOL0     C27421   2.489   8.660  12.099  0.7582 -0.0526  0.1263
  204MOL0     N27422   2.454   8.613  11.957  0.6002 -0.1948  0.4427
  204MOL0     C27423   2.544   8.586  11.857 -0.5645 -0.9127 -1.1221
  204MOL0     C27424   2.469   8.562  11.744 -0.0267  0.3670 -0.2100
  204MOL0     C27425   2.531   8.522  11.611  0.8766  0.6418 -0.2905
  204MOL0     C27426   2.651   8.610  11.579 -0.0451  0.1612 -0.3666
  204MOL0     C27427   2.620   8.753  11.566  0.8437 -0.6951 -0.4864
  204MOL0     C27428   2.749   8.838  11.566  0.0552  0.7719  0.2055
  204MOL0     O27429   2.815   8.846  11.695  0.5329 -0.3003  0.2734
  204MOL0     C27430   2.954   8.851  11.700 -0.0568 -0.4042  0.5891
  204MOL0     C27431   3.034   8.912  11.589  0.2440  0.4387 -0.1747
  204MOL0     C27432   3.162   8.896  11.596 -0.8506 -0.4414  0.7924
  204MOL0     C27433   3.237   8.953  11.475  0.5706  0.6405 -0.4704
  204MOL0     C27434   3.225   8.855  11.720  0.4386  0.1246  0.2975
  204MOL0     C27435   3.369   8.858  11.731 -0.3957  0.7395  0.7414
  204MOL0     O27436   3.404   8.832  11.863  0.2760 -0.1665  1.3551
  204MOL0     C27437   3.473   8.711  11.890  0.2840 -0.1377  0.0291
  204MOL0     C27438   3.592   8.677  11.834  0.4466  0.4562 -1.2657
  204MOL0     C27439   3.662   8.564  11.870 -0.2802 -0.3513 -0.3020
  204MOL0     C27440   3.606   8.483  11.976  0.4615 -0.5767  0.4447
  204MOL0     O27441   3.665   8.373  12.040  0.0649  0.1385 -0.1440
  204MOL0     C27442   3.739   8.280  11.962 -0.1237  0.3808  0.3939
  204MOL0     C27443   3.682   8.154  11.989 -0.0515  0.3752  0.0234
  204MOL0     C27444   3.531   8.140  11.959 -0.0300  0.5501 -0.1745
  204MOL0     C27445   3.511   8.028  11.855 -0.3701 -0.7330  0.1512
  204MOL0     C27446   3.349   8.027  11.845 -1.0140  0.4709  0.2801
  204MOL0     C27447   3.297   7.926  11.743  0.1291  0.3977 -0.0437
  204MOL0     C27448   3.367   7.940  11.603  0.2830 -0.0633  0.1686
  204MOL0     C27449   3.301   7.841  11.497  0.0425  0.3296 -0.1227
  204MOL0    Cl27450   3.134   7.914  11.449  0.3749 -0.0927  0.5750
  204MOL0     C27451   3.485   8.518  12.028 -0.5985  0.2405 -1.3894
  204MOL0     C27452   3.423   8.632  11.989  0.4205  1.0847 -0.1397
  204MOL0     O27453   3.451   8.872  11.643  0.5924  0.5189 -0.3895
  204MOL0     C27454   3.147   8.819  11.832 -0.2701  0.3670 -0.3007
  204MOL0     C27455   3.013   8.808  11.816 -0.5050 -1.0366 -0.1818
  204MOL0     N27456   2.341   8.571  11.783  0.9111  0.6190  0.4103
  204MOL0     N27457   2.328   8.604  11.908 -0.1429  0.3136 -0.1241
  204MOL0     C27458   2.451   9.540  11.517 -0.5490 -0.4339  0.7974
  204MOL0     C27459   2.371   9.608  11.420 -0.5106  0.1280 -0.2334
  204MOL0     C27460   2.261   9.787  11.030 -0.5411 -0.0961  0.6247
  204MOL0     C27461   2.318   9.902  10.961 -0.0647  0.6372  0.6125
  204MOL0     C27462   2.243  10.014  10.907  0.3779 -0.3043  0.2055
  204MOL0     C27463   2.116  10.031  10.948  0.5212  0.3948  0.0962
  204MOL0     O27464   2.029  10.134  10.936  0.1220  0.8557 -0.5657
  204MOL0     C27465   2.067  10.248  10.865  0.1713 -0.3466  0.1425
  204MOL0     C27466   2.118  10.349  10.974  0.3565  0.1781  1.1143
  204MOL0     C27467   2.267  10.359  11.012 -0.4301 -0.1946 -0.8084
  204MOL0     C27468   2.303  10.474  11.105  0.5319 -0.1283  0.2091
  204MOL0     C27469   2.436  10.544  11.072 -0.2720 -0.1687  0.0255
  204MOL0     C27470   2.543  10.599  11.046 -0.0997 -0.1372  0.4187
  204MOL0     C27471   2.058   9.927  11.013 -0.6138 -1.3820 -0.0669
  204MOL0     C27472   2.129   9.813  11.068 -1.1673 -0.3319  0.1487
  204MOL0     H27473   2.433   9.409  11.158 -1.4422  1.5393  0.1273
  204MOL0     H27474   2.607   9.318  11.335  1.8146 -0.4721  3.0001
  204MOL0     H27475   2.611   9.447  11.764 -0.4500 -0.8130  1.8730
  204MOL0     H27476   2.473   9.345  11.704  0.3968  3.8332 -0.0828
  204MOL0     H27477   2.651   9.153  11.691  0.1743 -0.5418  0.6820
  204MOL0     H27478   2.761   9.267  11.766  1.1124 -0.8232  3.9148
  204MOL0     H27479   2.686   9.217  11.976  0.9217 -2.3054  1.4427
  204MOL0     H27480   2.520   9.270  11.918  0.1195  0.6426 -0.7746
  204MOL0     H27481   2.483   9.051  11.823  0.7101  2.3505 -1.3863
  204MOL0     H27482   2.633   8.996  11.894  1.0033  0.6348  1.7100
  204MOL0     H27483   2.563   9.068  12.114  0.7016  0.3201 -1.5024
  204MOL0     H27484   2.396   9.108  12.038 -1.0158 -1.5885  0.3361
  204MOL0     H27485   2.345   8.892  12.099 -0.4672 -2.0086  0.4406
  204MOL0     H27486   2.415   8.872  11.942 -1.9676 -3.1402  0.9788
  204MOL0     H27487   2.631   8.814  12.040 -0.2487 -0.9967 -0.1946
  204MOL0     H27488   2.571   8.837  12.206  1.4710 -1.8006  0.2234
  204MOL0     H27489   2.396   8.665  12.155  0.8088 -0.5937  0.2550
  204MOL0     H27490   2.562   8.589  12.137  0.1135  0.0790  1.6581
  204MOL0     H27491   2.652   8.582  11.866 -0.7784 -2.9611  1.8359
  204MOL0     H27492   2.537   8.413  11.610  4.2368  0.7020  0.9335
  204MOL0     H27493   2.459   8.536  11.530  0.7183 -2.1321 -0.7143
  204MOL0     H27494   2.681   8.559  11.487 -2.0279 -2.5085  0.3446
  204MOL0     H27495   2.729   8.594  11.654 -0.3987 -1.6229 -0.3451
  204MOL0     H27496   2.570   8.785  11.658  3.0439 -0.4458  0.6889
  204MOL0     H27497   2.552   8.779  11.484  0.0821  3.0472  1.1515
  204MOL0     H27498   2.717   8.936  11.529  0.2096  1.2472  1.2809
  204MOL0     H27499   2.817   8.783  11.500 -0.5984 -3.2667  2.5458
  204MOL0     H27500   2.995   8.949  11.495  0.5257  1.7566  0.2092
  204MOL0     H27501   3.299   8.876  11.430  0.7248  1.1294 -1.0945
  204MOL0     H27502   3.178   9.017  11.408 -2.8026 -2.0711 -0.3569
  204MOL0     H27503   3.313   9.020  11.517  1.3975 -1.4748  1.6112
  204MOL0     H27504   3.641   8.747  11.767 -0.8889  3.4497  0.6629
  204MOL0     H27505   3.754   8.535  11.821  0.2058  2.2869 -1.0911
  204MOL0     H27506   3.746   8.295  11.854  1.5206 -2.1443  0.0613
  204MOL0     H27507   3.840   8.268  12.001 -1.2511 -0.3591  3.3907
  204MOL0     H27508   3.748   8.094  11.926  3.6825  0.9338  3.0332
  204MOL0     H27509   3.707   8.133  12.094  1.1465  2.1855  0.1446
  204MOL0     H27510   3.492   8.229  11.909 -4.5314 -2.3413 -2.4928
  204MOL0     H27511   3.468   8.121  12.047  0.8863 -4.0976 -0.2580
  204MOL0     H27512   3.567   8.039  11.762 -2.1698  2.2313 -0.7263
  204MOL0     H27513   3.546   7.940  11.908  2.1629  0.8472  1.2869
  204MOL0     H27514   3.324   8.129  11.814  0.5427 -0.0065 -2.9198
  204MOL0     H27515   3.303   8.004  11.942 -0.3530  1.9537  0.9868
  204MOL0     H27516   3.318   7.831  11.792  0.1021  0.8355  0.8278
  204MOL0     H27517   3.188   7.938  11.732  0.1391 -0.5726 -1.5434
  204MOL0     H27518   3.466   7.895  11.608  0.3411  0.1418  1.0632
  204MOL0     H27519   3.380   8.047  11.583 -0.4297  0.4981  2.3786
  204MOL0     H27520   3.301   7.738  11.534 -0.2917 -0.0033 -1.0178
  204MOL0     H27521   3.368   7.843  11.411  0.4231 -2.1563  0.0257
  204MOL0     H27522   3.433   8.455  12.100  0.2790  2.0469  0.9602
  204MOL0     H27523   3.324   8.657  12.026 -0.4432  2.4664 -3.0710
  204MOL0     H27524   3.194   8.807  11.930  1.3249  0.7910 -0.9792
  204MOL0     H27525   2.960   8.769  11.902 -0.0981  0.4322  0.7563
  204MOL0     H27526   2.441   9.579  11.618 -2.5171 -0.7688  0.7719
  204MOL0     H27527   2.323   9.703  11.442  0.7495  0.6293  0.4427
  204MOL0     H27528   2.422   9.907  10.930 -1.1932 -3.1112 -5.3900
  204MOL0     H27529   2.286  10.087  10.840  2.0214 -1.3216  0.1028
  204MOL0     H27530   2.146  10.227  10.793 -1.5363 -1.4521 -1.4892
  204MOL0     H27531   1.989  10.288  10.800  1.0790  1.1556 -0.0692
  204MOL0     H27532   2.058  10.337  11.065 -1.1785  0.6803  0.2142
  204MOL0     H27533   2.091  10.450  10.941 -1.0825 -0.1038  1.3452
  204MOL0     H27534   2.325  10.358  10.919  0.7365  0.2290 -0.1162
  204MOL0     H27535   2.292  10.265  11.060 -0.1788  1.0849  1.7274
  204MOL0     H27536   2.313  10.434  11.207  2.4529 -1.6973 -0.5336
  204MOL0     H27537   2.227  10.552  11.103  2.5836  1.9908 -1.5932
  204MOL0     H27538   2.630  10.662  11.034 -1.4552  1.5362 -1.2094
  204MOL0     H27539   1.953   9.934  11.040 -1.0914 -2.1740 -1.5906
  204MOL0     H27540   2.064   9.744  11.122 -1.4701 -2.5068 -2.7610
  205MOL0     O27541   8.916   7.177   3.341  0.8711 -0.4050  0.0518
  205MOL0     C27542   8.998   7.237   3.271 -0.7430 -0.5158  0.5535
  205MOL0     O27543   9.124   7.263   3.321  0.8008 -0.0511 -0.1245
  205MOL0     C27544   9.149   7.240   3.456  0.6331 -0.1593  0.3274
  205MOL0     C27545   9.155   7.117   3.514  0.2361  0.0252  0.2436
  205MOL0     C27546   9.172   7.098   3.662  1.2261  0.0419 -0.2069
  205MOL0     C27547   9.186   7.216   3.748  0.5391 -0.1501 -0.2636
  205MOL0     O27548   9.217   7.225   3.877 -0.7933  0.7324  0.3440
  205MOL0     C27549   9.107   7.185   3.957  0.1119  0.1495  0.5546
  205MOL0     C27550   9.132   7.202   4.102  0.7288  0.2427  0.5636
  205MOL0     C27551   9.015   7.136   4.182  0.5113  0.2744 -0.6811
  205MOL0     C27552   9.023   7.186   4.326  0.1123 -0.1324  0.6728
  205MOL0     C27553   8.896   7.144   4.407  0.4946  0.6844 -0.5090
  205MOL0     C27554   8.899   7.002   4.452 -0.4928 -0.9679 -1.1064
  205MOL0     C27555   8.769   6.925   4.481 -0.6293 -0.4401  0.3341
  205MOL0     C27556   8.682   6.913   4.354 -0.6066  0.9613 -0.5940
  205MOL0     N27557   8.565   6.826   4.398  0.0335  0.0886 -0.1886
  205MOL0     C27558   8.555   6.695   4.428  1.0784 -0.1458  0.8210
  205MOL0     C27559   8.433   6.674   4.473 -0.8349 -0.5979 -0.3171
  205MOL0     C27560   8.374   6.533   4.492  0.0079 -0.7034  0.7246
  205MOL0     C27561   8.346   6.455   4.357 -0.7388 -0.1249  0.4852
  205MOL0     C27562   8.347   6.300   4.375 -0.0293 -0.1761 -0.5616
  205MOL0     C27563   8.348   6.213   4.245  0.1916 -0.5325  0.7178
  205MOL0     O27564   8.214   6.210   4.190  0.4200 -0.3118 -0.0952
  205MOL0     C27565   8.105   6.147   4.243 -0.6093  1.1165  0.1595
  205MOL0     C27566   8.098   6.062   4.352 -0.1820  0.7130  0.0752
  205MOL0     C27567   7.994   5.980   4.387 -0.6213  0.2380 -0.6323
  205MOL0     C27568   8.012   5.891   4.502 -0.5037  0.2168  0.2113
  205MOL0     C27569   7.868   6.009   4.325  0.5878 -0.2238  0.0294
  205MOL0     C27570   7.740   5.955   4.359  0.5850 -0.1713  0.8878
  205MOL0     O27571   7.639   5.968   4.267 -0.0412 -0.4253  0.8459
  205MOL0     C27572   7.510   5.980   4.313  0.4528 -0.4836  0.6060
  205MOL0     C27573   7.462   5.955   4.437 -0.0890 -0.7280  0.3223
  205MOL0     C27574   7.318   5.955   4.457 -0.4705  0.4196  0.5901
  205MOL0     C27575   7.232   5.966   4.352  0.2334 -0.3777  0.3288
  205MOL0     O27576   7.097   5.965   4.348 -0.1071 -0.5577 -0.5864
  205MOL0     C27577   7.031   5.883   4.444  0.4503 -0.6265 -0.2722
  205MOL0     C27578   6.884   5.929   4.441 -0.7768  0.3158  0.7303
  205MOL0     C27579   6.810   5.921   4.303 -0.6856  0.9119  0.3218
  205MOL0     C27580   6.657   5.925   4.327  0.8391 -0.5785 -0.4854
  205MOL0     C27581   6.597   5.829   4.228  0.4340  0.2269  0.4488
  205MOL0     C27582   6.557   5.688   4.282  0.5699 -0.2032 -0.9872
  205MOL0     C27583   6.419   5.648   4.240 -0.2939  0.1589 -0.1762
  205MOL0     C27584   6.426   5.627   4.086  0.0594  0.2663 -0.1808
  205MOL0    Cl27585   6.277   5.560   4.026 -0.3028 -0.4860  0.1852
  205MOL0     C27586   7.279   5.986   4.224 -1.3900 -0.1300 -0.6683
  205MOL0     C27587   7.418   5.995   4.207 -0.3756 -0.5268 -0.1716
  205MOL0     O27588   7.727   5.884   4.458 -0.5643 -0.4863  0.3188
  205MOL0     C27589   7.865   6.106   4.218 -0.3721 -0.3141  0.3331
  205MOL0     C27590   7.981   6.173   4.184 -0.3715  0.2862  1.0816
  205MOL0     N27591   8.366   6.792   4.476  0.5706 -0.2570  0.0386
  205MOL0     N27592   8.445   6.881   4.428 -0.0643 -0.3351 -0.4176
  205MOL0     C27593   9.187   7.336   3.680  1.1650  0.1512  0.3844
  205MOL0     C27594   9.170   7.354   3.536  0.1616  1.0298 -0.9840
  205MOL0     C27595   8.966   7.258   3.130  0.6326 -0.1329 -1.5738
  205MOL0     C27596   9.042   7.346   3.050  0.4066 -0.1449  0.3999
  205MOL0     C27597   8.991   7.385   2.922  0.6452  0.5939 -0.1436
  205MOL0     C27598   8.868   7.338   2.878 -0.3293  1.1311 -0.7281
  205MOL0     O27599   8.819   7.366   2.749 -0.4554 -0.6985  0.4008
  205MOL0     C27600   8.704   7.300   2.696 -0.6246 -0.6253  0.1167
  205MOL0     C27601   8.673   7.335   2.542 -0.8014  0.4957 -0.6360
  205MOL0     C27602   8.595   7.223   2.475 -0.3435  1.1137 -1.0966
  205MOL0     C27603   8.551   7.233   2.321  0.5318  0.5112 -0.7716
  205MOL0     C27604   8.517   7.368   2.286 -0.4381 -0.0848  0.7122
  205MOL0     C27605   8.484   7.481   2.257 -0.3534 -0.0889  0.3248
  205MOL0     C27606   8.805   7.232   2.952  0.6235  0.2281  1.1072
  205MOL0     C27607   8.847   7.191   3.077  0.2519  0.7781  0.1022
  205MOL0     H27608   9.144   7.028   3.452 -2.8541  1.1758 -1.0939
  205MOL0     H27609   9.165   6.998   3.704 -1.1609 -0.2187 -1.0379
  205MOL0     H27610   9.019   7.241   3.922  0.3083 -0.3990 -0.9155
  205MOL0     H27611   9.079   7.079   3.955 -2.1154  0.5912  2.9777
  205MOL0     H27612   9.233   7.169   4.125  1.8215  4.1205  2.0422
  205MOL0     H27613   9.127   7.309   4.127 -2.3323 -0.2197  2.4687
  205MOL0     H27614   8.920   7.163   4.135 -0.9949 -4.2277 -0.6980
  205MOL0     H27615   9.014   7.027   4.172  1.1129  0.3312 -1.4497
  205MOL0     H27616   9.107   7.145   4.383 -0.5318  1.3755  2.8163
  205MOL0     H27617   9.035   7.295   4.327  0.7246 -0.1860  2.5915
  205MOL0     H27618   8.887   7.216   4.489  2.4555  1.1704 -0.6789
  205MOL0     H27619   8.806   7.157   4.345 -0.3081 -1.5500  0.0866
  205MOL0     H27620   8.949   6.944   4.374 -1.3248 -0.2097 -2.2304
  205MOL0     H27621   8.956   6.995   4.545 -2.5816  0.1237  0.3216
  205MOL0     H27622   8.777   6.825   4.525 -2.7575 -0.7127  0.2337
  205MOL0     H27623   8.709   6.979   4.555  2.5977  1.9520  1.4149
  205MOL0     H27624   8.735   6.872   4.268 -1.3502 -1.6037  0.0754
  205MOL0     H27625   8.644   7.011   4.324  0.5399  1.9461  1.0210
  205MOL0     H27626   8.638   6.627   4.414  1.9320  1.1481 -0.7495
  205MOL0     H27627   8.448   6.478   4.550  1.3761  1.3246  1.0110
  205MOL0     H27628   8.285   6.547   4.553  0.2785  1.4522  0.6819
  205MOL0     H27629   8.413   6.488   4.277 -2.3852 -0.6097 -1.1381
  205MOL0     H27630   8.258   6.481   4.299  1.1431  0.5396 -2.2513
  205MOL0     H27631   8.265   6.275   4.443  0.5076 -0.0336  0.1419
  205MOL0     H27632   8.435   6.263   4.427 -2.2199 -1.0383  2.8638
  205MOL0     H27633   8.397   6.115   4.252 -0.9817 -1.1016  1.0782
  205MOL0     H27634   8.409   6.276   4.179 -0.6625 -0.3718  0.0551
  205MOL0     H27635   8.183   6.055   4.420 -1.1686  2.6854  1.6021
  205MOL0     H27636   8.118   5.880   4.526 -0.1966  2.0957 -0.1841
  205MOL0     H27637   7.958   5.927   4.590 -1.6372  0.7442 -0.6728
  205MOL0     H27638   7.963   5.794   4.486 -0.2166 -0.3221  2.2450
  205MOL0     H27639   7.523   5.960   4.527  0.0241  0.6053  0.1875
  205MOL0     H27640   7.287   5.933   4.559 -0.6996 -2.3204  0.0009
  205MOL0     H27641   7.049   5.776   4.433  1.7165 -0.7407  2.2409
  205MOL0     H27642   7.064   5.910   4.545 -3.2563 -1.9323  1.4407
  205MOL0     H27643   6.830   5.864   4.511  1.3488  0.4747  2.6460
  205MOL0     H27644   6.877   6.034   4.471 -2.8020  0.7694 -1.0432
  205MOL0     H27645   6.852   5.828   4.265 -0.1114 -0.2135  3.4136
  205MOL0     H27646   6.839   5.999   4.232 -1.9442  2.3081  1.2726
  205MOL0     H27647   6.635   5.907   4.433 -0.1204  2.9540  0.0255
  205MOL0     H27648   6.625   6.029   4.317  0.8749 -0.0541  3.4721
  205MOL0     H27649   6.650   5.825   4.132 -0.4616 -1.8421 -0.0260
  205MOL0     H27650   6.504   5.882   4.206  0.6475  1.6205  2.5913
  205MOL0     H27651   6.632   5.614   4.253  0.6769  0.7787 -3.4090
  205MOL0     H27652   6.569   5.690   4.391 -0.7570  1.5130 -0.8333
  205MOL0     H27653   6.336   5.717   4.257  1.5329  2.2470  0.8597
  205MOL0     H27654   6.400   5.551   4.286  0.7783 -0.6175 -1.3077
  205MOL0     H27655   6.513   5.579   4.040  0.7088  1.9894 -0.7914
  205MOL0     H27656   6.433   5.731   4.054  1.3551 -0.1867 -1.4541
  205MOL0     H27657   7.215   6.002   4.138  1.2117  0.4821 -2.6267
  205MOL0     H27658   7.464   6.014   4.110 -0.3156 -1.1866 -0.2769
  205MOL0     H27659   7.777   6.135   4.161  0.5697 -0.5193 -1.2984
  205MOL0     H27660   7.985   6.245   4.103 -1.2486 -2.3277 -1.4603
  205MOL0     H27661   9.191   7.430   3.734  0.2707  0.5526 -0.2221
  205MOL0     H27662   9.177   7.455   3.494 -1.3061  1.7151  0.3132
  205MOL0     H27663   9.140   7.387   3.072  0.1132 -0.1581  1.7858
  205MOL0     H27664   9.033   7.462   2.858 -4.5487  2.5644 -1.7114
  205MOL0     H27665   8.739   7.196   2.697  0.0044 -0.4173  0.2034
  205MOL0     H27666   8.614   7.301   2.757 -0.5942  0.3133  0.1538
  205MOL0     H27667   8.761   7.364   2.484  0.5346  0.4384  1.2769
  205MOL0     H27668   8.613   7.427   2.538 -0.1451  0.9412 -0.3730
  205MOL0     H27669   8.502   7.213   2.531 -0.2801  1.4998 -0.9242
  205MOL0     H27670   8.645   7.126   2.483  0.3380  1.3865 -1.8903
  205MOL0     H27671   8.467   7.163   2.309  0.2979  0.9446 -1.8010
  205MOL0     H27672   8.636   7.202   2.259 -1.5514  0.1586 -3.6683
  205MOL0     H27673   8.463   7.580   2.220  0.2875 -0.1777 -0.3041
  205MOL0     H27674   8.714   7.182   2.921  0.8812  1.0104 -1.0780
  205MOL0     H27675   8.797   7.115   3.134 -0.7307  0.6750 -0.8564
  206MOL0     O27676   7.266   0.967   0.303 -0.0321  0.1789  0.5281
  206MOL0     C27677   7.298   1.040   0.388  0.5269  0.0906  0.7079
  206MOL0     O27678   7.260   1.170   0.404  0.4582 -0.3158  0.5251
  206MOL0     C27679   7.164   1.215   0.313 -0.9717 -0.2595  0.3533
  206MOL0     C27680   7.035   1.174   0.305 -0.6923  0.5508  0.4381
  206MOL0     C27681   6.939   1.230   0.213 -0.4366 -0.6859  0.8578
  206MOL0     C27682   6.973   1.331   0.120 -0.3307 -0.7042  0.6968
  206MOL0     O27683   6.889   1.392   0.031 -0.6862 -0.1094 -1.1887
  206MOL0     C27684   6.766   1.315   0.003  0.3367  1.1635 -0.1689
  206MOL0     C27685   6.689   1.397  -0.097 -1.1959 -0.4624 -0.7014
  206MOL0     C27686   6.776   1.419  -0.219 -1.0675 -0.6025 -1.1358
  206MOL0     C27687   6.707   1.503  -0.324 -0.3460  0.2820 -0.5308
  206MOL0     C27688   6.688   1.644  -0.294  0.0892 -0.6354  0.6747
  206MOL0     C27689   6.831   1.702  -0.329 -0.0579 -0.6121  0.7400
  206MOL0     C27690   6.845   1.856  -0.324 -0.8195  0.6270 -0.3162
  206MOL0     C27691   6.763   1.903  -0.439  0.3686 -1.0047 -0.6029
  206MOL0     N27692   6.658   1.994  -0.393  0.4149 -0.4403  0.1655
  206MOL0     C27693   6.564   1.975  -0.293 -0.1930 -0.8228 -0.2462
  206MOL0     C27694   6.489   2.085  -0.320  0.1416 -0.1825 -0.1156
  206MOL0     C27695   6.367   2.122  -0.246  1.5042  0.3562  0.2529
  206MOL0     C27696   6.358   2.261  -0.185 -1.0234  0.3055  0.2448
  206MOL0     C27697   6.234   2.309  -0.128  0.7945 -0.6646  0.0142
  206MOL0     C27698   6.111   2.276  -0.214 -0.3130  0.3853 -1.5647
  206MOL0     O27699   6.047   2.159  -0.167  0.3778 -0.0563 -0.8198
  206MOL0     C27700   5.918   2.127  -0.202  0.5402 -0.3906  0.8579
  206MOL0     C27701   5.855   2.025  -0.134 -0.1476 -0.4998  0.9790
  206MOL0     C27702   5.720   1.994  -0.159 -0.0782 -0.1468 -0.0060
  206MOL0     C27703   5.647   1.879  -0.098 -1.4064  0.9043 -0.0133
  206MOL0     C27704   5.646   2.076  -0.253 -0.3036 -0.4671  0.0762
  206MOL0     C27705   5.498   2.048  -0.291  0.1171 -0.5630 -0.1470
  206MOL0     O27706   5.465   2.091  -0.415 -0.5369 -0.3011  0.6909
  206MOL0     C27707   5.360   2.027  -0.469  0.5196 -0.1652 -0.6159
  206MOL0     C27708   5.235   2.085  -0.479  0.4694  0.0955 -0.5538
  206MOL0     C27709   5.128   2.015  -0.520 -0.7571  0.7441  0.6326
  206MOL0     C27710   5.144   1.881  -0.557 -0.2662 -0.0647  0.8852
  206MOL0     O27711   5.037   1.821  -0.617 -0.8905 -0.1729 -0.5164
  206MOL0     C27712   4.966   1.880  -0.722 -0.4192 -0.5593 -0.5274
  206MOL0     C27713   5.058   1.909  -0.841  0.1403 -0.1650  0.3910
  206MOL0     C27714   4.990   1.959  -0.957 -0.4068 -0.6454 -0.8080
  206MOL0     C27715   4.928   1.850  -1.044 -0.3324  0.7502  0.0386
  206MOL0     C27716   4.854   1.920  -1.155  0.6660  0.0056 -0.0598
  206MOL0     C27717   4.788   1.832  -1.259 -0.2554 -0.5898 -0.3592
  206MOL0     C27718   4.724   1.908  -1.385 -0.4447  0.2083 -0.8844
  206MOL0     C27719   4.813   1.912  -1.506 -0.5894 -0.7162  0.8675
  206MOL0    Cl27720   4.738   2.024  -1.619 -0.1812 -0.1335  0.0380
  206MOL0     C27721   5.272   1.821  -0.559 -0.1561 -0.4516  0.8813
  206MOL0     C27722   5.379   1.892  -0.514 -0.8810  0.6066  0.3167
  206MOL0     O27723   5.418   2.004  -0.207  0.2239 -0.1386  0.2118
  206MOL0     C27724   5.711   2.182  -0.318  0.1112  1.3725  0.0775
  206MOL0     C27725   5.843   2.204  -0.296  0.7211 -0.6156  0.4705
  206MOL0     N27726   6.531   2.157  -0.423  1.0261  0.7081  1.3111
  206MOL0     N27727   6.636   2.096  -0.472 -0.5412  0.0094  0.4464
  206MOL0     C27728   7.109   1.374   0.130  0.2855 -0.8241  0.3326
  206MOL0     C27729   7.210   1.321   0.220  0.6072  0.4785 -0.6209
  206MOL0     C27730   7.370   0.983   0.502 -0.1257 -1.2924  0.2310
  206MOL0     C27731   7.438   0.859   0.494 -0.5528  0.0043  0.0318
  206MOL0     C27732   7.515   0.802   0.599 -0.8960 -0.7012  0.1183
  206MOL0     C27733   7.528   0.880   0.716 -0.2323 -0.0500  0.6715
  206MOL0     O27734   7.598   0.846   0.827  0.6461 -0.0264  0.2581
  206MOL0     C27735   7.639   0.712   0.851  0.2844 -0.4266 -0.2423
  206MOL0     C27736   7.796   0.700   0.836 -0.2613  0.1374  0.5687
  206MOL0     C27737   7.875   0.810   0.888  0.6589  0.9943 -0.6905
  206MOL0     C27738   8.024   0.779   0.912  0.0127  0.2195  0.1754
  206MOL0     C27739   8.089   0.745   0.778  0.7945 -0.9054  0.7475
  206MOL0     C27740   8.165   0.722   0.688 -0.5805  0.8766 -0.0972
  206MOL0     C27741   7.477   1.008   0.721 -0.2245 -0.2211 -0.0815
  206MOL0     C27742   7.405   1.053   0.619 -0.0615 -1.2071 -0.8541
  206MOL0     H27743   6.996   1.102   0.376 -1.6349  2.3513  1.8346
  206MOL0     H27744   6.843   1.188   0.241 -0.7425  0.9053  2.4018
  206MOL0     H27745   6.796   1.221  -0.046 -4.5107  0.1616 -1.8450
  206MOL0     H27746   6.706   1.304   0.094 -2.0221  2.3099 -1.5028
  206MOL0     H27747   6.593   1.356  -0.130 -1.9096 -0.1561  0.9113
  206MOL0     H27748   6.670   1.490  -0.042  3.6286 -0.0223  0.6473
  206MOL0     H27749   6.866   1.471  -0.185 -1.0070 -2.0900  1.1873
  206MOL0     H27750   6.814   1.328  -0.265 -0.4307 -1.7942  1.5355
  206MOL0     H27751   6.770   1.478  -0.410  2.2501 -1.7686  1.7594
  206MOL0     H27752   6.611   1.452  -0.339  0.2203 -0.3957 -2.0158
  206MOL0     H27753   6.612   1.684  -0.362  4.8537  2.5738 -3.5644
  206MOL0     H27754   6.670   1.656  -0.187 -1.2117  0.5727  0.3426
  206MOL0     H27755   6.911   1.661  -0.267  0.3881  1.3583  1.5371
  206MOL0     H27756   6.855   1.674  -0.432  2.8597  0.9242  0.9078
  206MOL0     H27757   6.814   1.895  -0.227  2.3052  1.2045  0.5649
  206MOL0     H27758   6.948   1.889  -0.339  0.0101  0.0365  3.1664
  206MOL0     H27759   6.711   1.821  -0.489 -0.8234 -0.3271 -0.5117
  206MOL0     H27760   6.833   1.948  -0.511  1.0791 -0.6477  0.2852
  206MOL0     H27761   6.526   1.895  -0.231  0.2721  0.6110  2.0208
  206MOL0     H27762   6.285   2.109  -0.317  1.6236 -1.2565  0.3653
  206MOL0     H27763   6.356   2.058  -0.158  2.1225 -0.1974 -0.0612
  206MOL0     H27764   6.385   2.326  -0.269  0.0180  2.6149  2.2025
  206MOL0     H27765   6.435   2.255  -0.107 -1.5772 -1.1785  0.7076
  206MOL0     H27766   6.244   2.417  -0.136 -0.2731 -0.5489  0.1023
  206MOL0     H27767   6.211   2.264  -0.031 -3.3116 -0.8855 -0.8893
  206MOL0     H27768   6.138   2.265  -0.320  2.7009 -2.6334 -0.6719
  206MOL0     H27769   6.029   2.345  -0.193 -0.9516 -1.1745  1.6517
  206MOL0     H27770   5.918   1.969  -0.066  2.4165  1.3600  0.2622
  206MOL0     H27771   5.720   1.836  -0.029 -2.6044 -2.0345 -0.4306
  206MOL0     H27772   5.551   1.904  -0.052 -1.5208  1.2913 -0.4622
  206MOL0     H27773   5.632   1.809  -0.181 -0.4865  0.5434  0.1042
  206MOL0     H27774   5.215   2.183  -0.439  2.1840 -0.3407  1.5659
  206MOL0     H27775   5.032   2.066  -0.516  0.0733  2.3187  1.6219
  206MOL0     H27776   4.892   1.806  -0.753 -1.0491 -1.5278  2.8524
  206MOL0     H27777   4.927   1.974  -0.683  1.1887 -1.1397  2.8873
  206MOL0     H27778   5.125   1.993  -0.820 -0.7096  0.9865 -1.2938
  206MOL0     H27779   5.127   1.825  -0.858  1.5117  1.0645 -0.3859
  206MOL0     H27780   5.060   2.014  -1.021  1.0082 -0.6394  0.6962
  206MOL0     H27781   4.914   2.034  -0.935 -0.6186 -1.3820  1.1326
  206MOL0     H27782   5.006   1.787  -1.090 -0.8431  0.5948 -0.6270
  206MOL0     H27783   4.855   1.788  -0.992 -0.6012  0.1939 -0.9717
  206MOL0     H27784   4.923   1.978  -1.218 -0.4474 -0.1233 -1.4648
  206MOL0     H27785   4.780   1.987  -1.110  1.5060  0.6248  0.4214
  206MOL0     H27786   4.862   1.753  -1.275 -0.7126 -0.7469 -1.7844
  206MOL0     H27787   4.702   1.782  -1.213  0.9469 -3.8026 -1.3196
  206MOL0     H27788   4.688   2.008  -1.360  1.7931  1.1041 -1.0484
  206MOL0     H27789   4.634   1.847  -1.400 -1.6501  1.2699  1.4715
  206MOL0     H27790   4.810   1.818  -1.562 -0.2257  1.1277 -2.4745
  206MOL0     H27791   4.915   1.938  -1.474 -0.0324 -2.6158  0.7716
  206MOL0     H27792   5.275   1.717  -0.592 -0.4679 -0.5783  1.2415
  206MOL0     H27793   5.468   1.833  -0.496 -1.4508 -1.2195 -2.3448
  206MOL0     H27794   5.665   2.245  -0.394 -1.8119  1.4664  1.2590
  206MOL0     H27795   5.886   2.287  -0.350  2.5048 -2.2659 -0.7748
  206MOL0     H27796   7.141   1.463   0.077 -3.9482  0.1017 -1.0297
  206MOL0     H27797   7.314   1.350   0.223  1.1135 -1.1796 -0.7264
  206MOL0     H27798   7.430   0.820   0.393  1.7029  1.7375 -0.8960
  206MOL0     H27799   7.550   0.699   0.599  0.5874 -0.2934  2.6178
  206MOL0     H27800   7.614   0.696   0.956  0.8566  1.4727  0.2289
  206MOL0     H27801   7.576   0.638   0.800 -0.9325 -1.1756  2.1944
  206MOL0     H27802   7.810   0.681   0.729 -1.9070 -0.8169  0.4887
  206MOL0     H27803   7.824   0.603   0.876 -1.7398 -1.0179 -1.0560
  206MOL0     H27804   7.832   0.851   0.980 -0.2903  3.7994 -2.2493
  206MOL0     H27805   7.858   0.900   0.828 -0.0629  1.6958  0.5332
  206MOL0     H27806   8.033   0.687   0.971  0.6274 -1.6288 -2.6186
  206MOL0     H27807   8.075   0.860   0.965  1.5805 -0.9870  0.5812
  206MOL0     H27808   8.223   0.693   0.603 -0.2404 -0.1397  0.4696
  206MOL0     H27809   7.493   1.062   0.814 -1.1800 -0.4389  0.2179
  206MOL0     H27810   7.373   1.157   0.630 -1.1873 -1.6654  0.4856
  207MOL0     O27811   3.229   7.565   7.527 -0.1611  0.4447 -0.0056
  207MOL0     C27812   3.309   7.587   7.617  0.0825 -0.1123  0.3631
  207MOL0     O27813   3.279   7.635   7.736  0.2270  0.2360  0.1691
  207MOL0     C27814   3.148   7.657   7.770 -0.2702 -0.6291 -0.0412
  207MOL0     C27815   3.042   7.710   7.693  0.1076  0.1801 -0.7740
  207MOL0     C27816   2.920   7.741   7.750 -0.1679  1.1135  0.2659
  207MOL0     C27817   2.902   7.718   7.894  0.0750  0.0249  0.3238
  207MOL0     O27818   2.777   7.743   7.940  0.5110 -0.8030  0.2930
  207MOL0     C27819   2.694   7.637   7.988 -0.9330 -0.6315  0.4818
  207MOL0     C27820   2.608   7.690   8.107 -1.3619  0.3547 -0.2771
  207MOL0     C27821   2.690   7.763   8.216  0.6981 -0.2122  0.3401
  207MOL0     C27822   2.782   7.673   8.285  0.8581 -0.3306 -0.3085
  207MOL0     C27823   2.895   7.747   8.359  0.5110 -0.0064  0.9920
  207MOL0     C27824   2.976   7.657   8.447 -1.2014 -0.7327  0.6584
  207MOL0     C27825   2.907   7.598   8.569 -0.4287  0.1755  0.3044
  207MOL0     C27826   2.828   7.700   8.647  0.7412 -0.2111  0.9217
  207MOL0     N27827   2.763   7.654   8.774 -0.1755  0.9893  0.2468
  207MOL0     C27828   2.832   7.578   8.866 -0.0189  0.1472 -0.2190
  207MOL0     C27829   2.742   7.558   8.967  0.1389  0.4872  0.3677
  207MOL0     C27830   2.772   7.510   9.107  1.1833 -0.2476 -0.6448
  207MOL0     C27831   2.834   7.363   9.123 -0.3275  0.3859  0.0557
  207MOL0     C27832   2.728   7.247   9.151 -0.4049  0.2129  0.0266
  207MOL0     C27833   2.601   7.256   9.061  0.1957 -0.3837 -0.6371
  207MOL0     O27834   2.480   7.216   9.120  0.2867  0.0350 -1.0531
  207MOL0     C27835   2.452   7.086   9.161  0.3874 -0.5762  0.1275
  207MOL0     C27836   2.540   6.977   9.136  0.3562  0.8530  1.1505
  207MOL0     C27837   2.514   6.853   9.195 -0.7188  0.6579  0.7683
  207MOL0     C27838   2.614   6.753   9.152 -0.5090  0.2270 -0.4278
  207MOL0     C27839   2.399   6.831   9.274  0.0642  0.5429  1.0235
  207MOL0     C27840   2.362   6.701   9.336 -0.2537  0.7195  0.2569
  207MOL0     O27841   2.236   6.700   9.387 -0.3801 -0.2911 -0.5362
  207MOL0     C27842   2.168   6.585   9.435 -1.5904 -0.9803  0.1390
  207MOL0     C27843   2.167   6.458   9.368 -0.3903 -0.5634  0.0561
  207MOL0     C27844   2.087   6.355   9.401 -0.0329 -0.6812 -0.1575
  207MOL0     C27845   2.008   6.365   9.511  0.3055  0.2853 -0.5985
  207MOL0     O27846   1.924   6.251   9.536 -1.1819 -0.1965 -0.3611
  207MOL0     C27847   1.849   6.245   9.661  0.8661  0.0395 -1.4593
  207MOL0     C27848   1.748   6.128   9.662  0.5042  0.4156 -0.5721
  207MOL0     C27849   1.818   5.991   9.644  0.4226 -0.2647 -0.1804
  207MOL0     C27850   1.723   5.869   9.628 -0.8412  0.8012 -0.1957
  207MOL0     C27851   1.692   5.815   9.763  0.3751  1.0391 -0.8287
  207MOL0     C27852   1.598   5.704   9.768  0.4260  0.5095  0.0497
  207MOL0     C27853   1.631   5.576   9.691  0.0560 -0.1171  0.1871
  207MOL0     C27854   1.513   5.508   9.624  0.4763 -0.8775 -0.2325
  207MOL0    Cl27855   1.539   5.400   9.479 -0.5169  0.3975 -0.1054
  207MOL0     C27856   1.999   6.490   9.585 -0.1420  0.1428  0.2123
  207MOL0     C27857   2.078   6.594   9.546  0.4431 -0.9200 -0.8856
  207MOL0     O27858   2.437   6.607   9.338 -0.5788 -0.2562 -0.4763
  207MOL0     C27859   2.307   6.945   9.292  0.5635 -0.1202  0.0056
  207MOL0     C27860   2.336   7.068   9.234  0.6631  0.0458  0.1948
  207MOL0     N27861   2.625   7.632   8.935 -0.4976 -0.0279 -0.6829
  207MOL0     N27862   2.643   7.689   8.823  0.0152 -0.4400  0.6553
  207MOL0     C27863   3.012   7.674   7.968 -0.3081  0.3596  0.5546
  207MOL0     C27864   3.132   7.663   7.905  0.1694 -0.0193 -0.3886
  207MOL0     C27865   3.453   7.561   7.585  0.2870  0.1079 -0.5194
  207MOL0     C27866   3.498   7.484   7.477 -0.1376  0.1391 -0.3583
  207MOL0     C27867   3.635   7.451   7.463 -0.4305 -0.3757 -0.1028
  207MOL0     C27868   3.724   7.495   7.564  1.0346  0.4095  0.6336
  207MOL0     O27869   3.849   7.468   7.533  0.4799  0.3981  0.3694
  207MOL0     C27870   3.946   7.490   7.633 -0.1215 -0.4121 -0.7164
  207MOL0     C27871   4.076   7.461   7.558  1.0586  0.3930  0.2433
  207MOL0     C27872   4.201   7.521   7.632  0.3669 -0.0272 -0.0291
  207MOL0     C27873   4.325   7.467   7.567 -0.2005  0.2822  0.2545
  207MOL0     C27874   4.338   7.546   7.441 -0.5324  0.0920 -0.1102
  207MOL0     C27875   4.349   7.627   7.356 -0.3636 -0.0389  1.1435
  207MOL0     C27876   3.677   7.564   7.682  0.8120 -0.8677  0.0761
  207MOL0     C27877   3.545   7.597   7.690 -0.6431 -0.0357 -0.6866
  207MOL0     H27878   3.048   7.741   7.589  0.7894  1.9573 -0.2418
  207MOL0     H27879   2.842   7.775   7.683 -0.7870 -4.2207 -2.2992
  207MOL0     H27880   2.632   7.607   7.902 -0.6858  2.2261 -0.8197
  207MOL0     H27881   2.765   7.561   8.021  1.9241  2.2936  1.6090
  207MOL0     H27882   2.526   7.757   8.079 -2.8141  0.4799  3.6748
  207MOL0     H27883   2.557   7.601   8.146  1.4963 -1.7005 -0.9009
  207MOL0     H27884   2.736   7.853   8.175 -1.9476  2.1490  2.1427
  207MOL0     H27885   2.629   7.807   8.295  3.2449  0.9389  1.8033
  207MOL0     H27886   2.730   7.619   8.365 -0.4414  1.3670  0.0596
  207MOL0     H27887   2.827   7.602   8.216  1.7598 -0.2613  0.1971
  207MOL0     H27888   2.964   7.784   8.283  1.6058 -0.8048  1.5487
  207MOL0     H27889   2.874   7.837   8.417  1.3537  2.8012 -2.6993
  207MOL0     H27890   3.019   7.575   8.388 -1.3259  0.6028 -1.3653
  207MOL0     H27891   3.056   7.714   8.496  0.6219 -2.6034  0.0113
  207MOL0     H27892   2.835   7.529   8.526 -1.0053  0.3749  0.9249
  207MOL0     H27893   2.984   7.548   8.628  1.7714  1.5619 -1.2472
  207MOL0     H27894   2.757   7.752   8.583  2.1765  1.4225  0.5849
  207MOL0     H27895   2.897   7.779   8.679  0.0131  0.0985  1.7576
  207MOL0     H27896   2.934   7.541   8.862 -0.3568 -0.8076 -0.3230
  207MOL0     H27897   2.826   7.590   9.158 -0.4683 -1.6248  3.6958
  207MOL0     H27898   2.675   7.526   9.156 -1.5486 -1.9105 -4.9514
  207MOL0     H27899   2.919   7.368   9.192 -0.9767  6.4450  0.9215
  207MOL0     H27900   2.878   7.339   9.025  0.4597  3.2783 -0.3861
  207MOL0     H27901   2.689   7.249   9.254 -0.0724 -1.6339  0.2237
  207MOL0     H27902   2.780   7.152   9.138  2.3365  1.7647 -1.1194
  207MOL0     H27903   2.636   7.185   8.985  1.5392  0.5045 -0.8867
  207MOL0     H27904   2.575   7.355   9.024 -2.0095 -1.0593 -1.0576
  207MOL0     H27905   2.634   6.986   9.082 -0.4940  0.0513 -0.5401
  207MOL0     H27906   2.691   6.751   9.230 -0.5497  1.1848 -0.3499
  207MOL0     H27907   2.570   6.668   9.101 -2.1025  2.1667 -2.4523
  207MOL0     H27908   2.668   6.796   9.067 -2.0917  1.7686 -0.7165
  207MOL0     H27909   2.231   6.454   9.281  1.3220  1.1957  1.1436
  207MOL0     H27910   2.092   6.265   9.342  4.5613 -1.3579  0.9165
  207MOL0     H27911   1.932   6.223   9.728  0.7592 -2.0546 -1.9221
  207MOL0     H27912   1.804   6.342   9.685  2.0276 -0.3031  2.8175
  207MOL0     H27913   1.689   6.128   9.754 -1.5782 -1.5747 -1.7865
  207MOL0     H27914   1.679   6.129   9.577 -0.6655 -3.0691  0.1542
  207MOL0     H27915   1.894   5.965   9.717  1.3035  1.3341 -0.4661
  207MOL0     H27916   1.870   6.019   9.552  0.7099  2.1053  0.6324
  207MOL0     H27917   1.628   5.884   9.576 -0.3906 -1.7419 -1.8949
  207MOL0     H27918   1.774   5.787   9.578 -0.4236 -0.6707  2.4674
  207MOL0     H27919   1.657   5.899   9.824 -0.0451  0.8884 -0.8580
  207MOL0     H27920   1.787   5.774   9.799  0.8868  1.8654 -1.2179
  207MOL0     H27921   1.578   5.672   9.871  4.5138 -1.9532  0.3326
  207MOL0     H27922   1.507   5.752   9.731  0.6404  0.0153 -1.1782
  207MOL0     H27923   1.674   5.501   9.759 -1.6744  0.0261  1.5059
  207MOL0     H27924   1.705   5.600   9.615  0.1136  3.9440  1.2619
  207MOL0     H27925   1.432   5.579   9.603 -0.0897 -0.6062  2.4783
  207MOL0     H27926   1.481   5.431   9.695  3.0208  0.0927  2.1746
  207MOL0     H27927   1.930   6.500   9.669  2.4778  1.3727  2.3738
  207MOL0     H27928   2.066   6.687   9.601 -1.2757 -0.7026 -1.5579
  207MOL0     H27929   2.213   6.929   9.344 -0.5989  1.2574 -1.5808
  207MOL0     H27930   2.266   7.151   9.244 -1.0436 -0.5624 -4.3729
  207MOL0     H27931   3.011   7.659   8.076  1.9929 -2.1871  0.3285
  207MOL0     H27932   3.227   7.648   7.955  2.0304  4.5027 -2.0090
  207MOL0     H27933   3.429   7.442   7.404  0.8481 -3.8044  0.6984
  207MOL0     H27934   3.670   7.393   7.379  0.4613 -1.6433  1.1190
  207MOL0     H27935   3.944   7.597   7.655 -0.2189 -0.1870 -1.7573
  207MOL0     H27936   3.934   7.427   7.721 -1.4013 -2.6856 -2.4095
  207MOL0     H27937   4.072   7.504   7.458  0.0438  0.9133  0.4879
  207MOL0     H27938   4.087   7.352   7.562 -1.4179  0.0432 -0.3666
  207MOL0     H27939   4.193   7.483   7.735 -0.2344  2.2868  0.8348
  207MOL0     H27940   4.199   7.630   7.638  3.3935  0.0619  3.0682
  207MOL0     H27941   4.335   7.359   7.547  0.9070  0.4870 -0.4133
  207MOL0     H27942   4.408   7.501   7.630  0.6896  0.6702 -1.0808
  207MOL0     H27943   4.365   7.712   7.294  1.8450  0.4191  2.2334
  207MOL0     H27944   3.750   7.601   7.753  1.8909  1.5621 -2.1212
  207MOL0     H27945   3.519   7.656   7.777 -0.1136  1.9648 -1.8046
  208MOL0     O27946  11.303   1.480   4.883 -0.1544  0.3418 -0.1390
  208MOL0     C27947  11.201   1.536   4.873  0.3706  0.0543  0.1399
  208MOL0     O27948  11.074   1.482   4.869 -0.4904 -0.5868 -0.0644
  208MOL0     C27949  11.061   1.350   4.871  0.3798  0.0162  0.7383
  208MOL0     C27950  11.030   1.277   4.751 -0.7430  0.3553  0.3916
  208MOL0     C27951  11.013   1.137   4.753  0.0184  0.4786  0.4403
  208MOL0     C27952  11.028   1.072   4.882 -0.9725  0.8653 -0.2172
  208MOL0     O27953  11.018   0.938   4.912 -0.6427  0.6842  0.3195
  208MOL0     C27954  10.979   0.847   4.806 -0.3091 -0.3286 -0.3025
  208MOL0     C27955  10.911   0.732   4.881  0.6609 -0.3281 -0.2814
  208MOL0     C27956  10.858   0.630   4.775  0.6922 -0.2101 -0.4580
  208MOL0     C27957  10.829   0.500   4.840  0.7244  0.0545 -0.9306
  208MOL0     C27958  10.798   0.388   4.747  0.3896  0.8655  0.0580
  208MOL0     C27959  10.921   0.337   4.677  0.6648  0.7597 -0.4965
  208MOL0     C27960  10.879   0.231   4.566  0.5179  0.0851 -0.2568
  208MOL0     C27961  11.004   0.185   4.482 -0.1052  0.4864  0.3484
  208MOL0     N27962  11.041   0.297   4.394  0.6347  0.0431  0.0026
  208MOL0     C27963  10.964   0.384   4.324  0.5863  0.5968  0.5437
  208MOL0     C27964  11.042   0.489   4.295 -0.5606 -0.1615 -0.2858
  208MOL0     C27965  11.002   0.621   4.236  0.8770  0.3693  0.5002
  208MOL0     C27966  10.905   0.700   4.319  0.9493  0.0170 -0.6531
  208MOL0     C27967  10.967   0.757   4.443 -0.0641  0.5143 -0.2789
  208MOL0     C27968  11.019   0.902   4.433  0.3706 -0.7100 -0.6096
  208MOL0     O27969  10.912   0.997   4.409  0.2451  0.2114 -0.1720
  208MOL0     C27970  10.958   1.123   4.380 -0.8336 -0.1731 -0.3017
  208MOL0     C27971  11.087   1.176   4.409  0.0608  0.1588  0.5185
  208MOL0     C27972  11.124   1.309   4.398 -0.3056  0.1905  0.2857
  208MOL0     C27973  11.256   1.360   4.433  0.0856  0.4591 -0.3167
  208MOL0     C27974  11.033   1.403   4.335 -0.6755  0.6986 -0.1764
  208MOL0     C27975  11.051   1.554   4.310 -0.6452  0.5671  0.6546
  208MOL0     O27976  10.947   1.627   4.263  0.7475 -1.0398  0.0341
  208MOL0     C27977  10.941   1.765   4.282  0.0080  0.4205  0.3761
  208MOL0     C27978  10.985   1.832   4.392  0.9775 -0.2169  0.2387
  208MOL0     C27979  10.990   1.973   4.400  1.4080  0.7155 -0.5933
  208MOL0     C27980  10.928   2.056   4.306  0.1358 -0.0476  0.2775
  208MOL0     O27981  10.906   2.191   4.311  0.9350  0.6196  0.3198
  208MOL0     C27982  10.915   2.258   4.444 -0.3051 -0.8362  0.2801
  208MOL0     C27983  10.817   2.373   4.454  0.5043 -0.2025 -1.1673
  208MOL0     C27984  10.672   2.317   4.451 -0.0706  0.4502 -0.1081
  208MOL0     C27985  10.570   2.422   4.505  0.4806  0.0221  0.4856
  208MOL0     C27986  10.426   2.370   4.477  0.5239 -1.2029 -1.2051
  208MOL0     C27987  10.314   2.476   4.505 -0.9078 -0.1937  0.1106
  208MOL0     C27988  10.298   2.564   4.382  0.2549  0.2582  0.2880
  208MOL0     C27989  10.174   2.647   4.384  0.4672 -0.8338 -0.1054
  208MOL0    Cl27990  10.028   2.538   4.397 -0.1294 -0.2470 -0.6300
  208MOL0     C27991  10.876   1.992   4.198  0.6795  0.0889  0.2398
  208MOL0     C27992  10.888   1.852   4.182 -0.1264 -0.2964 -0.1287
  208MOL0     O27993  11.166   1.601   4.334 -0.5661 -0.0980 -0.0061
  208MOL0     C27994  10.909   1.349   4.305 -0.6226 -0.4798  0.7588
  208MOL0     C27995  10.869   1.212   4.324 -0.7192 -0.6589  1.1691
  208MOL0     N27996  11.168   0.453   4.340 -0.0209 -0.4637  0.3700
  208MOL0     N27997  11.169   0.341   4.401 -0.2163  0.5607 -0.3716
  208MOL0     C27998  11.049   1.147   4.993 -0.1395 -0.4344 -0.6456
  208MOL0     C27999  11.062   1.284   4.994  0.7454  0.3513  0.9171
  208MOL0     C28000  11.228   1.684   4.845 -0.9325  0.6128 -1.2970
  208MOL0     C28001  11.129   1.755   4.784  0.0026 -0.0605 -0.9808
  208MOL0     C28002  11.128   1.895   4.753  0.2003  0.1218  0.4866
  208MOL0     C28003  11.252   1.962   4.758  0.0266 -0.3211 -0.5003
  208MOL0     O28004  11.249   2.091   4.714 -0.1098 -0.2083  0.2815
  208MOL0     C28005  11.377   2.133   4.680  0.6089  0.0331  0.1278
  208MOL0     C28006  11.348   2.207   4.553  0.2684 -0.7141  0.4335
  208MOL0     C28007  11.471   2.265   4.480 -1.1031  0.8880 -0.2618
  208MOL0     C28008  11.460   2.372   4.366  0.5592  0.6714  1.3949
  208MOL0     C28009  11.353   2.324   4.291  0.4398 -0.1711 -1.1625
  208MOL0     C28010  11.247   2.278   4.247 -0.5085  0.5110 -0.1472
  208MOL0     C28011  11.361   1.879   4.792  0.6218  0.7080  0.0551
  208MOL0     C28012  11.349   1.748   4.846  0.5379 -0.4320 -0.7956
  208MOL0     H28013  11.018   1.327   4.655 -0.0128 -1.5153 -0.7250
  208MOL0     H28014  10.998   1.083   4.661  0.8245 -1.5755  1.4585
  208MOL0     H28015  10.914   0.885   4.727  1.0419 -1.1872 -1.9041
  208MOL0     H28016  11.070   0.812   4.755 -0.8291  0.3963 -1.8004
  208MOL0     H28017  10.982   0.682   4.948  1.0475 -2.5589 -2.2149
  208MOL0     H28018  10.826   0.755   4.946 -1.5146 -2.3761 -2.2036
  208MOL0     H28019  10.766   0.659   4.724  0.9665 -0.7154 -1.2424
  208MOL0     H28020  10.930   0.616   4.694  0.8579 -0.3138 -0.2937
  208MOL0     H28021  10.914   0.473   4.902 -1.4970 -0.7343  1.9687
  208MOL0     H28022  10.745   0.518   4.908  0.4717 -0.6896 -1.0352
  208MOL0     H28023  10.743   0.312   4.803  1.4213  0.7845  0.9884
  208MOL0     H28024  10.731   0.432   4.672  1.6658 -0.2631 -1.8410
  208MOL0     H28025  10.985   0.421   4.649 -0.4426  2.5732  2.0436
  208MOL0     H28026  10.974   0.276   4.750 -4.6042 -0.7178  2.6107
  208MOL0     H28027  10.844   0.141   4.618 -0.4035  1.3293  1.3627
  208MOL0     H28028  10.795   0.259   4.502  2.7266  2.2089 -2.4289
  208MOL0     H28029  10.973   0.101   4.419 -2.3439  0.6998  1.1033
  208MOL0     H28030  11.087   0.142   4.539 -0.9701  0.0053  1.2710
  208MOL0     H28031  10.856   0.387   4.307  0.5357 -1.0788  0.3312
  208MOL0     H28032  11.090   0.687   4.232 -1.0248  3.2935  2.5008
  208MOL0     H28033  10.950   0.599   4.142 -3.0610 -0.3418  2.6597
  208MOL0     H28034  10.818   0.637   4.336  0.9129  0.0064 -0.8758
  208MOL0     H28035  10.878   0.792   4.265 -1.4390 -0.1370  0.1691
  208MOL0     H28036  11.054   0.693   4.458 -1.6005 -1.3112  1.3156
  208MOL0     H28037  10.889   0.744   4.519 -0.7842  0.3493 -1.0373
  208MOL0     H28038  11.091   0.906   4.351  1.1728  3.6576  0.0350
  208MOL0     H28039  11.075   0.932   4.522 -0.6356 -0.2796 -0.0986
  208MOL0     H28040  11.163   1.114   4.455  0.0228  0.1315  0.5439
  208MOL0     H28041  11.243   1.447   4.498 -0.6799  0.4307 -0.4134
  208MOL0     H28042  11.304   1.271   4.476 -0.0216 -2.6622 -5.7678
  208MOL0     H28043  11.316   1.383   4.345  0.6922 -0.8748 -0.2838
  208MOL0     H28044  11.028   1.775   4.473  2.4063  1.0915  0.4523
  208MOL0     H28045  11.033   2.023   4.486  0.3952 -0.4845  0.6725
  208MOL0     H28046  10.895   2.189   4.527 -1.4798 -1.8680 -0.8168
  208MOL0     H28047  11.014   2.302   4.459 -0.1008 -0.7123 -1.3448
  208MOL0     H28048  10.829   2.438   4.541 -3.6437  2.8937 -2.5943
  208MOL0     H28049  10.836   2.440   4.369  0.8414  1.3185  0.0642
  208MOL0     H28050  10.665   2.219   4.499 -0.4238 -1.4264 -3.6691
  208MOL0     H28051  10.652   2.274   4.352 -5.4720  0.6909  0.5675
  208MOL0     H28052  10.594   2.448   4.608  0.0616 -3.0213  1.4542
  208MOL0     H28053  10.591   2.515   4.450  0.3684  1.2481  2.4232
  208MOL0     H28054  10.422   2.292   4.554  3.3851  0.7520  1.1675
  208MOL0     H28055  10.403   2.313   4.386  1.5316 -2.2596 -0.8303
  208MOL0     H28056  10.225   2.414   4.516  1.4559 -4.8014 -3.0762
  208MOL0     H28057  10.343   2.536   4.592 -0.1436  2.3021 -1.7428
  208MOL0     H28058  10.294   2.519   4.282  0.0816  1.0450 -0.0595
  208MOL0     H28059  10.378   2.638   4.375 -0.5477  1.1627  0.5490
  208MOL0     H28060  10.165   2.695   4.286 -1.6446 -0.7574  0.0817
  208MOL0     H28061  10.182   2.725   4.460 -3.7004  2.4382 -2.5662
  208MOL0     H28062  10.800   2.046   4.142  0.8033  0.9206  0.8590
  208MOL0     H28063  10.834   1.823   4.092 -0.6632  3.4173 -1.1778
  208MOL0     H28064  10.833   1.418   4.270 -0.7737 -1.7935 -1.7959
  208MOL0     H28065  10.768   1.183   4.297 -1.2717  0.0639  2.3534
  208MOL0     H28066  11.051   1.085   5.082  1.5292 -2.3352 -1.9057
  208MOL0     H28067  11.061   1.346   5.083 -1.0052  3.1852 -0.9163
  208MOL0     H28068  11.039   1.695   4.782  0.2897 -0.6288  0.8293
  208MOL0     H28069  11.035   1.937   4.716 -0.1827  1.1350  2.4719
  208MOL0     H28070  11.425   2.185   4.763  2.3532  0.0327 -0.8228
  208MOL0     H28071  11.457   2.063   4.652  0.7405  1.0799 -2.4569
  208MOL0     H28072  11.282   2.293   4.571  3.3107  1.4907  1.8307
  208MOL0     H28073  11.303   2.141   4.478 -1.2182  2.9770 -2.2504
  208MOL0     H28074  11.526   2.182   4.436 -1.0272  1.6135 -1.6033
  208MOL0     H28075  11.535   2.305   4.560 -0.4800 -1.9758  0.7861
  208MOL0     H28076  11.553   2.389   4.310  1.6207 -3.0019  1.7924
  208MOL0     H28077  11.430   2.471   4.402  1.5601  1.5390 -0.0502
  208MOL0     H28078  11.151   2.249   4.209  0.9867 -2.3398 -2.1051
  208MOL0     H28079  11.463   1.912   4.812  0.0713  0.6265  3.8166
  208MOL0     H28080  11.432   1.705   4.901 -0.8399 -0.7175  1.1731
  209MOL0     O28081   7.595   3.636  10.627  0.5710 -0.0512 -0.1163
  209MOL0     C28082   7.635   3.749  10.648  0.1950  0.4123  1.0457
  209MOL0     O28083   7.555   3.865  10.638  0.1462  0.0979 -0.7079
  209MOL0     C28084   7.428   3.854  10.623  0.3318  0.3415 -0.5019
  209MOL0     C28085   7.374   3.905  10.504 -0.4251  0.7090  0.5336
  209MOL0     C28086   7.235   3.891  10.481 -0.2144 -0.3891  0.8455
  209MOL0     C28087   7.147   3.831  10.570 -0.3932  0.2592 -0.9673
  209MOL0     O28088   7.008   3.825  10.550  0.2593 -0.1967 -0.2603
  209MOL0     C28089   6.962   3.844  10.414 -0.1802  0.6550  0.0724
  209MOL0     C28090   6.821   3.796  10.439 -0.1668  0.5177  0.4386
  209MOL0     C28091   6.734   3.881  10.544 -0.4629 -0.5353 -0.8014
  209MOL0     C28092   6.599   3.821  10.568 -0.5699  0.0036  0.1001
  209MOL0     C28093   6.511   3.924  10.647 -0.0782  0.0421  0.8809
  209MOL0     C28094   6.556   3.957  10.785 -0.7287  0.4977  0.4904
  209MOL0     C28095   6.585   3.839  10.879  0.1159 -0.4661  0.3499
  209MOL0     C28096   6.602   3.883  11.022 -0.2451 -0.3229 -0.6081
  209MOL0     N28097   6.719   3.964  11.048  0.0782 -0.4652 -0.6413
  209MOL0     C28098   6.844   3.913  11.051  0.1475  0.2415 -0.1301
  209MOL0     C28099   6.922   4.011  11.099  0.0360  0.2404  0.6413
  209MOL0     C28100   7.070   4.002  11.128 -0.1769 -0.8133 -1.2156
  209MOL0     C28101   7.160   4.056  11.018 -0.1498 -0.3618  0.2809
  209MOL0     C28102   7.298   4.068  11.068 -0.8974 -0.0063  0.8969
  209MOL0     C28103   7.358   3.930  11.087  0.2947  0.1257 -0.4699
  209MOL0     O28104   7.487   3.942  11.140 -0.1648  0.0837  0.2190
  209MOL0     C28105   7.535   3.859  11.243  0.3021  0.7310  0.7636
  209MOL0     C28106   7.510   3.721  11.255  0.3861 -0.1211  1.1846
  209MOL0     C28107   7.572   3.640  11.344 -0.2841  0.6624 -0.1009
  209MOL0     C28108   7.527   3.496  11.343 -0.4850  0.3307  0.6052
  209MOL0     C28109   7.651   3.699  11.447  0.1790 -0.1005 -0.0984
  209MOL0     C28110   7.703   3.629  11.564  0.1041 -0.5936 -1.0012
  209MOL0     O28111   7.653   3.505  11.600  0.1292 -0.4413  0.5687
  209MOL0     C28112   7.741   3.418  11.659 -0.4647 -0.3219  0.4234
  209MOL0     C28113   7.705   3.354  11.779 -0.6331  0.2447 -0.4739
  209MOL0     C28114   7.791   3.257  11.836  0.2404  0.5435  0.7082
  209MOL0     C28115   7.912   3.228  11.771 -0.0355 -0.8249 -0.0514
  209MOL0     O28116   8.002   3.136  11.812 -0.1589 -0.3045 -0.0936
  209MOL0     C28117   7.995   3.079  11.948 -0.0833  0.1162  0.0000
  209MOL0     C28118   7.989   2.935  11.924  1.1575  0.4720  0.4462
  209MOL0     C28119   7.882   2.892  11.821 -0.3846  0.0914  0.0152
  209MOL0     C28120   7.863   2.740  11.814 -0.2432  0.7285 -0.1208
  209MOL0     C28121   7.754   2.696  11.716  0.5770  0.1683 -0.4469
  209MOL0     C28122   7.612   2.714  11.792  0.3110  0.0313 -0.2734
  209MOL0     C28123   7.514   2.794  11.704  0.0222 -0.0939  0.4198
  209MOL0     C28124   7.402   2.721  11.648 -0.0532 -0.1806 -0.0446
  209MOL0    Cl28125   7.448   2.592  11.529  0.3106  0.3000 -0.1325
  209MOL0     C28126   7.939   3.284  11.641  0.0341  0.2669 -0.0598
  209MOL0     C28127   7.851   3.379  11.592 -0.1630 -1.1059  0.0830
  209MOL0     O28128   7.793   3.685  11.618  0.0602 -1.1264  0.1384
  209MOL0     C28129   7.672   3.838  11.440 -0.9070 -0.0874  0.4060
  209MOL0     C28130   7.623   3.911  11.332  0.1967  0.4337  0.5188
  209MOL0     N28131   6.841   4.128  11.111 -0.0081 -0.3367 -0.4728
  209MOL0     N28132   6.723   4.097  11.062 -0.2225 -1.3145 -0.5239
  209MOL0     C28133   7.202   3.795  10.695  0.5838 -0.1362  0.0850
  209MOL0     C28134   7.335   3.794  10.717 -0.7636 -0.4351 -0.5722
  209MOL0     C28135   7.773   3.775  10.678 -0.4476  0.3329  0.3683
  209MOL0     C28136   7.825   3.902  10.674 -0.6975 -0.7287  0.6463
  209MOL0     C28137   7.955   3.928  10.709  0.5145  0.2564 -0.9040
  209MOL0     C28138   8.037   3.818  10.740 -0.4599 -0.7484  0.3688
  209MOL0     O28139   8.178   3.846  10.766  0.8999  0.5201  0.1877
  209MOL0     C28140   8.239   3.971  10.761  0.2721  0.0058 -0.3999
  209MOL0     C28141   8.359   3.955  10.855 -0.0296  0.1818  0.7807
  209MOL0     C28142   8.456   4.079  10.845 -0.4580 -0.0555 -0.8679
  209MOL0     C28143   8.594   4.031  10.880 -0.3522 -0.2600  0.1243
  209MOL0     C28144   8.691   4.124  10.836 -1.6542  0.2689  0.9303
  209MOL0     C28145   8.772   4.216  10.819 -0.3337  0.5842 -0.0943
  209MOL0     C28146   7.990   3.685  10.743 -0.4371 -0.1412 -0.7579
  209MOL0     C28147   7.861   3.668  10.720  0.0211 -0.2500  0.2081
  209MOL0     H28148   7.430   3.959  10.429 -2.2146  0.8609 -0.7506
  209MOL0     H28149   7.196   3.949  10.397 -0.8380 -2.2123 -0.1686
  209MOL0     H28150   6.946   3.950  10.390  0.1504  0.8352  0.6271
  209MOL0     H28151   7.015   3.792  10.334  0.0609 -0.1362  0.7408
  209MOL0     H28152   6.775   3.786  10.340  4.5973  2.7205 -2.3757
  209MOL0     H28153   6.826   3.693  10.475 -0.5109  0.2030 -0.3904
  209MOL0     H28154   6.792   3.890  10.636 -0.7322  1.9980 -0.8145
  209MOL0     H28155   6.731   3.983  10.506 -2.5796  0.1863  1.0697
  209MOL0     H28156   6.553   3.802  10.471 -2.7723  1.3823  0.7834
  209MOL0     H28157   6.603   3.728  10.625  1.2855  0.3221  0.5486
  209MOL0     H28158   6.517   4.022  10.599  0.9979 -0.0378  0.8368
  209MOL0     H28159   6.409   3.884  10.642 -0.6275  1.4884 -1.0722
  209MOL0     H28160   6.653   4.006  10.780  1.0570 -2.6735  1.2337
  209MOL0     H28161   6.481   4.028  10.821  0.8927  1.4099  2.2238
  209MOL0     H28162   6.503   3.768  10.872 -0.6434  0.2401  1.6582
  209MOL0     H28163   6.680   3.791  10.853  0.0569  0.8686 -2.6855
  209MOL0     H28164   6.606   3.797  11.089  2.0777 -0.0695 -0.3397
  209MOL0     H28165   6.521   3.950  11.051  0.9163  0.8603  0.0291
  209MOL0     H28166   6.868   3.818  11.006  1.4171  0.0390  0.8872
  209MOL0     H28167   7.082   4.064  11.217 -1.6575 -0.8571 -0.9664
  209MOL0     H28168   7.108   3.902  11.150  1.9287 -0.2327 -1.9237
  209MOL0     H28169   7.119   4.154  10.992 -1.9272 -1.7881 -2.9096
  209MOL0     H28170   7.145   3.991  10.931 -0.1582  0.8268 -0.6272
  209MOL0     H28171   7.311   4.125  11.160  3.8746  0.3949  0.2465
  209MOL0     H28172   7.356   4.119  10.990 -0.4757  2.2426  2.5721
  209MOL0     H28173   7.363   3.880  10.990  1.2850  3.3732 -2.2525
  209MOL0     H28174   7.304   3.871  11.162  0.0162  0.7211 -0.1996
  209MOL0     H28175   7.434   3.683  11.189  0.5307  0.5205  0.6364
  209MOL0     H28176   7.480   3.472  11.248 -1.5581  0.6840  1.0308
  209MOL0     H28177   7.613   3.429  11.356 -1.9477 -1.1831  3.5320
  209MOL0     H28178   7.454   3.470  11.421 -2.4413 -0.9367 -1.5374
  209MOL0     H28179   7.613   3.379  11.830  0.1705 -1.9410  2.3215
  209MOL0     H28180   7.755   3.189  11.912 -0.6815 -0.8136 -0.8615
  209MOL0     H28181   8.094   3.095  11.992  0.2005 -3.1021  0.7634
  209MOL0     H28182   7.921   3.115  12.020 -0.8178 -2.7240  0.8100
  209MOL0     H28183   8.089   2.904  11.891  0.9051  1.1136 -1.0208
  209MOL0     H28184   7.962   2.888  12.019 -3.5219  0.5237 -0.6026
  209MOL0     H28185   7.917   2.921  11.722 -1.6671 -0.3066 -0.5789
  209MOL0     H28186   7.788   2.943  11.844 -0.0372  0.1354  1.4458
  209MOL0     H28187   7.958   2.714  11.766 -1.1417 -1.0323 -1.0665
  209MOL0     H28188   7.870   2.691  11.911  2.2607  1.1420 -0.0384
  209MOL0     H28189   7.764   2.591  11.687 -2.5225  0.4055 -2.7971
  209MOL0     H28190   7.755   2.757  11.625 -1.9688 -0.7469 -1.1567
  209MOL0     H28191   7.568   2.616  11.813 -2.4251  1.6117  2.0452
  209MOL0     H28192   7.623   2.760  11.891  0.9255  1.6535 -1.0483
  209MOL0     H28193   7.559   2.839  11.615 -1.9325 -0.2694 -0.7256
  209MOL0     H28194   7.463   2.874  11.759 -0.9457 -0.6842  0.4154
  209MOL0     H28195   7.339   2.794  11.597 -1.5131 -3.3288 -3.1324
  209MOL0     H28196   7.341   2.676  11.726 -0.4739  3.2440  1.7772
  209MOL0     H28197   8.026   3.248  11.587  0.9565 -1.1918  2.2481
  209MOL0     H28198   7.885   3.428  11.501  3.0312 -3.1016  0.0130
  209MOL0     H28199   7.716   3.896  11.521 -2.3013  0.4539  0.8072
  209MOL0     H28200   7.651   4.016  11.329  1.4717  0.1126  0.7717
  209MOL0     H28201   7.139   3.741  10.766 -0.1270  0.6789  0.1002
  209MOL0     H28202   7.382   3.745  10.801 -0.2545 -0.5356 -0.9131
  209MOL0     H28203   7.770   3.992  10.651  0.7830  0.7128  2.4409
  209MOL0     H28204   8.001   4.026  10.710  0.5516  0.2433 -1.2028
  209MOL0     H28205   8.267   3.998  10.659  1.3823  1.8600  0.3307
  209MOL0     H28206   8.182   4.059  10.794 -1.2189 -0.5095 -1.4630
  209MOL0     H28207   8.413   3.863  10.832  0.7248  1.2783 -2.5080
  209MOL0     H28208   8.317   3.952  10.956  1.8710  1.3287  1.6532
  209MOL0     H28209   8.440   4.165  10.909 -2.8778 -0.4511 -0.8573
  209MOL0     H28210   8.456   4.126  10.746 -1.1971 -2.2792 -1.9940
  209MOL0     H28211   8.623   3.941  10.826  2.0200  0.2140  0.5210
  209MOL0     H28212   8.602   4.007  10.986 -0.3597  1.9947  0.6874
  209MOL0     H28213   8.846   4.292  10.826  0.2653  0.2445 -2.0522
  209MOL0     H28214   8.055   3.602  10.767  0.1499  1.1684  2.9959
  209MOL0     H28215   7.839   3.562  10.720  1.7143 -0.6288 -0.4171
  210MOL0     O28216   6.911   0.718  10.370  0.6605 -1.0320 -0.7818
  210MOL0     C28217   6.866   0.746  10.484  0.5015  0.5549  0.0502
  210MOL0     O28218   6.739   0.794  10.497  0.6784 -0.1960 -0.5468
  210MOL0     C28219   6.651   0.807  10.390 -0.3815  0.5605 -0.4817
  210MOL0     C28220   6.613   0.686  10.335  0.1635  0.6122 -0.4167
  210MOL0     C28221   6.519   0.692  10.241  0.9845  0.0576 -0.7350
  210MOL0     C28222   6.462   0.812  10.197  0.1135 -0.6123  0.0598
  210MOL0     O28223   6.375   0.797  10.100 -0.0508 -0.0286 -0.2189
  210MOL0     C28224   6.292   0.910  10.061  0.9783 -0.1545  0.2266
  210MOL0     C28225   6.180   0.864   9.968 -0.1313 -0.3588  1.6509
  210MOL0     C28226   6.225   0.779   9.850 -1.1459 -0.6959 -0.2319
  210MOL0     C28227   6.249   0.854   9.724  0.2905 -0.0538 -0.2272
  210MOL0     C28228   6.278   0.764   9.601  0.1584 -0.4850 -0.5282
  210MOL0     C28229   6.261   0.850   9.470 -1.4926 -0.4918  0.2517
  210MOL0     C28230   6.115   0.855   9.428 -0.1613  0.0636 -0.6665
  210MOL0     C28231   6.078   0.981   9.342 -0.3614  0.6589 -0.7030
  210MOL0     N28232   6.123   0.990   9.207  0.0759  0.1299 -0.1380
  210MOL0     C28233   6.070   1.068   9.107  0.4046 -1.9032 -1.1086
  210MOL0     C28234   6.152   1.072   9.002  0.7760 -0.1329 -0.1521
  210MOL0     C28235   6.134   1.150   8.873 -0.2784  0.2824  0.6831
  210MOL0     C28236   6.158   1.063   8.753  0.0023  0.4376  0.3122
  210MOL0     C28237   6.195   1.157   8.636  0.3663 -0.1589  0.3022
  210MOL0     C28238   6.157   1.107   8.506 -1.1693  0.0598 -0.2242
  210MOL0     O28239   6.165   1.209   8.411 -0.0555  0.9584  0.4150
  210MOL0     C28240   6.122   1.188   8.284 -0.6619  0.5370 -0.7118
  210MOL0     C28241   6.099   1.062   8.227  0.4455  0.1957 -0.4771
  210MOL0     C28242   6.072   1.041   8.085 -0.7560 -0.2970 -0.7403
  210MOL0     C28243   6.061   0.893   8.041 -0.3560 -1.2240 -0.1306
  210MOL0     C28244   6.066   1.150   7.999 -0.4986  0.1373  0.7466
  210MOL0     C28245   6.048   1.146   7.858 -0.1133  0.1168 -0.0777
  210MOL0     O28246   6.021   1.264   7.802  0.2641  0.0403 -1.2274
  210MOL0     C28247   6.065   1.280   7.677  0.5108 -0.1289  0.5798
  210MOL0     C28248   6.002   1.220   7.577  0.3297  0.4143  0.7252
  210MOL0     C28249   6.042   1.248   7.442 -0.0547 -0.1374  0.5708
  210MOL0     C28250   6.137   1.353   7.409  0.8108  0.2591  0.2853
  210MOL0     O28251   6.174   1.396   7.288  0.2434  1.1054  0.5421
  210MOL0     C28252   6.096   1.347   7.171 -0.0515  0.8002  0.2635
  210MOL0     C28253   6.123   1.438   7.052  0.9725  0.1730 -0.2777
  210MOL0     C28254   6.269   1.497   7.059  0.2364 -0.2183 -0.0748
  210MOL0     C28255   6.316   1.557   6.935  0.8810 -0.2526  1.1098
  210MOL0     C28256   6.466   1.602   6.958 -0.7319  0.4123 -0.1947
  210MOL0     C28257   6.543   1.624   6.822 -0.1733  0.2124  0.6344
  210MOL0     C28258   6.702   1.632   6.853  1.1404 -1.1327 -0.3537
  210MOL0     C28259   6.776   1.666   6.729  1.4494  0.2820 -0.6206
  210MOL0    Cl28260   6.943   1.654   6.769  0.0216  0.5720  0.2907
  210MOL0     C28261   6.207   1.401   7.517  0.2922  0.7539  0.2845
  210MOL0     C28262   6.175   1.366   7.645  0.3210 -0.3818 -0.1850
  210MOL0     O28263   6.058   1.039   7.795  0.0131  0.7166  0.1816
  210MOL0     C28264   6.089   1.272   8.061  0.4282 -1.0225  0.4147
  210MOL0     C28265   6.120   1.299   8.199  0.8545  0.3438 -0.7897
  210MOL0     N28266   6.265   1.001   9.044  0.4981  0.7046 -0.2361
  210MOL0     N28267   6.253   0.959   9.163 -0.0352  0.2536  0.5320
  210MOL0     C28268   6.518   0.934  10.249 -1.0978 -0.1061  0.2200
  210MOL0     C28269   6.603   0.927  10.352  0.0525 -0.7912  0.4783
  210MOL0     C28270   6.932   0.710  10.605 -0.5634 -0.1931 -0.2638
  210MOL0     C28271   6.854   0.695  10.719  0.3883 -0.5475  0.3438
  210MOL0     C28272   6.912   0.664  10.836  0.1804  1.1267  1.4340
  210MOL0     C28273   7.050   0.638  10.842  0.5804 -0.0535 -0.5049
  210MOL0     O28274   7.114   0.615  10.961 -0.3568 -0.4220  0.0079
  210MOL0     C28275   7.031   0.573  11.068  0.1456  0.1790  0.6591
  210MOL0     C28276   7.112   0.581  11.192 -0.2076  0.3247  0.0041
  210MOL0     C28277   7.179   0.720  11.200 -1.3779 -0.2629  0.8877
  210MOL0     C28278   7.273   0.726  11.325 -0.3469 -0.8862 -0.3482
  210MOL0     C28279   7.397   0.656  11.302  0.5618 -0.1299  0.1016
  210MOL0     C28280   7.492   0.588  11.260  0.3148  0.9750 -0.1357
  210MOL0     C28281   7.121   0.653  10.728  0.5278  0.1767  0.2815
  210MOL0     C28282   7.073   0.695  10.607  0.4602  0.6803 -1.5442
  210MOL0     H28283   6.637   0.594  10.387  0.7317  2.1285  2.1447
  210MOL0     H28284   6.482   0.597  10.203  0.1127 -0.2065  0.6888
  210MOL0     H28285   6.246   0.960  10.146 -2.1030  1.4444 -2.1716
  210MOL0     H28286   6.359   0.979  10.009  2.1269 -2.5632 -1.7270
  210MOL0     H28287   6.109   0.799  10.022  0.4329 -0.1651  2.6509
  210MOL0     H28288   6.123   0.953   9.941 -1.7067 -1.5421  0.9313
  210MOL0     H28289   6.322   0.731   9.865 -0.8361 -0.5902 -1.7462
  210MOL0     H28290   6.152   0.699   9.834  0.6092 -2.4948  0.1992
  210MOL0     H28291   6.170   0.926   9.705  0.4559  0.0784 -0.4225
  210MOL0     H28292   6.337   0.918   9.739  2.9714 -1.6466 -6.1505
  210MOL0     H28293   6.381   0.727   9.608  0.0171 -0.5562  1.6125
  210MOL0     H28294   6.212   0.677   9.596  1.2218 -1.3244 -0.3058
  210MOL0     H28295   6.300   0.952   9.480 -1.8463 -0.2304 -0.9169
  210MOL0     H28296   6.315   0.802   9.388  0.8097  1.1208  0.7102
  210MOL0     H28297   6.084   0.760   9.384  1.3253 -2.4097  3.1232
  210MOL0     H28298   6.054   0.873   9.516  1.4932  4.1039 -0.1091
  210MOL0     H28299   6.109   1.076   9.387 -0.8431  0.0278  1.0511
  210MOL0     H28300   5.970   0.970   9.339 -0.0653 -2.9148 -3.0673
  210MOL0     H28301   5.970   1.110   9.122  0.9369 -0.5300 -1.2617
  210MOL0     H28302   6.035   1.196   8.859  0.2810  0.7070 -2.8540
  210MOL0     H28303   6.202   1.236   8.876  0.4754 -0.3039  0.3826
  210MOL0     H28304   6.065   1.007   8.739 -1.0871  2.7696 -3.1349
  210MOL0     H28305   6.242   0.999   8.782 -1.4004 -1.9754 -0.7067
  210MOL0     H28306   6.300   1.186   8.633  0.8233 -1.6900 -3.0862
  210MOL0     H28307   6.145   1.253   8.650 -0.1848 -0.6524  2.0940
  210MOL0     H28308   6.058   1.062   8.524 -0.4467 -1.2777  0.6123
  210MOL0     H28309   6.223   1.024   8.481 -0.7280  0.0695  0.8645
  210MOL0     H28310   6.102   0.963   8.272 -2.2022 -0.3827 -1.3435
  210MOL0     H28311   6.150   0.870   7.981 -0.6922  1.6786 -1.9733
  210MOL0     H28312   6.055   0.829   8.129 -1.8514  0.5924  1.1658
  210MOL0     H28313   5.972   0.884   7.979 -1.3994  3.3192  0.3632
  210MOL0     H28314   5.922   1.153   7.606  0.9022 -1.3329 -1.4549
  210MOL0     H28315   6.004   1.201   7.351  1.9893  1.5494 -1.2723
  210MOL0     H28316   6.138   1.247   7.155 -0.7702  0.7000 -1.1074
  210MOL0     H28317   5.988   1.337   7.187  0.1916 -3.5095  0.4832
  210MOL0     H28318   6.107   1.389   6.955 -2.6013  0.3334  0.0805
  210MOL0     H28319   6.048   1.517   7.063  2.7937  1.9505 -0.0635
  210MOL0     H28320   6.339   1.422   7.098  0.6286  0.0734 -0.2102
  210MOL0     H28321   6.290   1.568   7.139  0.2286 -0.8026  0.4515
  210MOL0     H28322   6.292   1.494   6.849 -0.8878  1.7948 -0.0028
  210MOL0     H28323   6.265   1.653   6.920 -1.3382 -1.3067  1.5457
  210MOL0     H28324   6.503   1.505   6.993 -3.1903 -1.3463 -2.0389
  210MOL0     H28325   6.477   1.687   7.025 -2.3512 -1.1548  2.2409
  210MOL0     H28326   6.505   1.551   6.749 -4.1618  2.4552  0.1378
  210MOL0     H28327   6.518   1.719   6.774 -1.7554  0.6336  2.1584
  210MOL0     H28328   6.736   1.534   6.886  1.6510 -1.0324 -0.5700
  210MOL0     H28329   6.714   1.694   6.942 -2.5911 -1.1410  0.3394
  210MOL0     H28330   6.764   1.771   6.700  0.6145  1.8891  4.5691
  210MOL0     H28331   6.750   1.590   6.655  0.0092  2.0113 -1.9951
  210MOL0     H28332   6.297   1.457   7.494  0.8151 -1.3311 -3.5225
  210MOL0     H28333   6.230   1.408   7.728  2.0191 -2.0343 -0.4187
  210MOL0     H28334   6.067   1.366   8.011 -2.9251  0.6078  4.3422
  210MOL0     H28335   6.153   1.391   8.246  0.9916 -0.3981  0.6117
  210MOL0     H28336   6.473   1.024  10.208 -0.0169  0.1404 -0.4851
  210MOL0     H28337   6.645   1.017  10.395  1.7741 -1.4942  0.3726
  210MOL0     H28338   6.746   0.700  10.726 -0.0319 -1.9385 -3.0715
  210MOL0     H28339   6.848   0.655  10.923  2.4833  1.5781  3.2796
  210MOL0     H28340   6.946   0.639  11.086 -0.5521 -0.5927  0.2423
  210MOL0     H28341   6.998   0.472  11.044 -0.1321  0.1456  1.1679
  210MOL0     H28342   7.193   0.507  11.193 -1.2537 -0.9155 -1.1151
  210MOL0     H28343   7.041   0.567  11.274  1.0720  1.1258  1.2717
  210MOL0     H28344   7.108   0.803  11.208 -2.3949 -1.1578  1.6044
  210MOL0     H28345   7.245   0.748  11.118 -1.6495  2.0214  1.3877
  210MOL0     H28346   7.220   0.686  11.413  0.2320 -1.4341 -0.2472
  210MOL0     H28347   7.289   0.829  11.358  1.2458 -2.0888  3.1299
  210MOL0     H28348   7.573   0.542  11.209 -0.5869 -0.4492 -0.3398
  210MOL0     H28349   7.222   0.613  10.730 -0.3660 -2.5659 -2.1571
  210MOL0     H28350   7.128   0.711  10.515  3.7446  0.8349  0.3041
  211MOL0     O28351   2.478   3.924   3.154 -0.3773 -0.2163 -0.6745
  211MOL0     C28352   2.496   3.843   3.068  0.0373 -0.0077 -0.5122
  211MOL0     O28353   2.574   3.864   2.965 -0.4676 -0.1937  0.0255
  211MOL0     C28354   2.660   3.964   2.958 -0.8863 -0.2768 -0.0767
  211MOL0     C28355   2.778   3.973   3.041  0.0084  0.3055 -0.1981
  211MOL0     C28356   2.849   4.089   3.042 -0.4553 -0.6212  0.6766
  211MOL0     C28357   2.829   4.191   2.949  0.0141  0.0872 -0.3531
  211MOL0     O28358   2.908   4.309   2.953 -0.1901  0.4702  0.2417
  211MOL0     C28359   2.911   4.405   2.850  0.5044  0.5273 -0.0170
  211MOL0     C28360   3.010   4.512   2.875  0.8270  0.0916 -0.0194
  211MOL0     C28361   2.993   4.637   2.777 -1.0867 -0.1387  0.2870
  211MOL0     C28362   2.871   4.719   2.816 -0.1178  0.2033 -0.0096
  211MOL0     C28363   2.881   4.842   2.736 -0.6753  0.0403  0.2891
  211MOL0     C28364   2.763   4.938   2.757 -0.1251  0.3413 -0.1825
  211MOL0     C28365   2.796   5.094   2.742 -0.5801 -0.2993 -0.6587
  211MOL0     C28366   2.670   5.168   2.706 -0.5882  0.0981 -0.0042
  211MOL0     N28367   2.665   5.302   2.758 -0.5987 -0.2726 -0.2489
  211MOL0     C28368   2.586   5.329   2.870  0.0740  0.4405 -0.2819
  211MOL0     C28369   2.579   5.469   2.870  1.3527 -0.2407  0.9294
  211MOL0     C28370   2.527   5.544   2.990 -0.2790 -0.2501 -0.6729
  211MOL0     C28371   2.649   5.606   3.068 -0.1872  1.4108  1.8499
  211MOL0     C28372   2.740   5.482   3.105  1.0812 -0.3944  0.5423
  211MOL0     C28373   2.827   5.510   3.231  0.5605  1.4698 -0.5155
  211MOL0     O28374   2.738   5.544   3.347 -1.1414  0.4840 -0.2555
  211MOL0     C28375   2.674   5.437   3.398 -0.3125 -0.1035  0.6375
  211MOL0     C28376   2.744   5.343   3.473 -0.3455  0.0289 -0.0896
  211MOL0     C28377   2.690   5.221   3.506 -0.8045 -0.1977  0.2434
  211MOL0     C28378   2.792   5.118   3.570  1.2029 -0.3617  0.4006
  211MOL0     C28379   2.553   5.189   3.479  0.7910 -1.1399  0.5327
  211MOL0     C28380   2.480   5.062   3.523  0.1076  0.6888 -0.9694
  211MOL0     O28381   2.359   5.054   3.477  0.6601  0.0103  0.3884
  211MOL0     C28382   2.313   4.935   3.445 -0.0926 -0.0811 -0.6288
  211MOL0     C28383   2.212   4.891   3.532  0.7521 -0.4469  0.5376
  211MOL0     C28384   2.165   4.762   3.525 -0.3550 -0.2333  0.6072
  211MOL0     C28385   2.211   4.680   3.427  0.3553  0.1502 -0.3902
  211MOL0     O28386   2.160   4.553   3.406  0.2085  0.6901 -0.0678
  211MOL0     C28387   2.170   4.471   3.528  0.4151 -0.0091  0.2276
  211MOL0     C28388   2.112   4.330   3.502  0.8040 -0.6680  0.1024
  211MOL0     C28389   2.077   4.254   3.626  0.4312 -0.5933 -0.0712
  211MOL0     C28390   1.925   4.264   3.659  1.3409  0.0951 -0.4639
  211MOL0     C28391   1.883   4.239   3.806  0.2408 -0.0392  0.3898
  211MOL0     C28392   1.730   4.263   3.828  0.4060 -1.2570  0.3638
  211MOL0     C28393   1.703   4.244   3.978 -0.4804  0.3080  0.2926
  211MOL0     C28394   1.554   4.251   4.005 -0.4023  0.4672 -0.5533
  211MOL0    Cl28395   1.455   4.103   3.952  0.3025 -0.0463  0.1007
  211MOL0     C28396   2.317   4.725   3.348 -0.9770 -0.1815  1.6059
  211MOL0     C28397   2.365   4.851   3.349  0.5052 -0.2634  1.6128
  211MOL0     O28398   2.527   4.977   3.598 -0.1378 -0.3473 -0.2127
  211MOL0     C28399   2.478   5.285   3.411  0.9322 -0.9837 -0.0964
  211MOL0     C28400   2.538   5.416   3.375  0.5023 -0.1485 -0.6932
  211MOL0     N28401   2.650   5.520   2.760  0.6069  0.8750  1.8576
  211MOL0     N28402   2.706   5.414   2.694  0.0783  0.4379  0.0332
  211MOL0     C28403   2.713   4.182   2.863 -1.1198 -0.1648  0.0979
  211MOL0     C28404   2.639   4.067   2.864  0.2104 -0.5563 -0.4941
  211MOL0     C28405   2.410   3.730   3.049 -0.2688 -0.2831 -1.0052
  211MOL0     C28406   2.376   3.674   2.921 -0.6356  0.1572 -0.9531
  211MOL0     C28407   2.305   3.558   2.906 -0.6461  1.0100  0.2756
  211MOL0     C28408   2.264   3.479   3.015 -0.2367 -0.3310  0.7975
  211MOL0     O28409   2.177   3.376   2.998 -0.0276 -0.7023  0.2118
  211MOL0     C28410   2.215   3.258   3.060 -0.1343 -0.1535 -0.4170
  211MOL0     C28411   2.319   3.183   2.978 -1.0339 -0.2645  0.0570
  211MOL0     C28412   2.281   3.140   2.838  0.2808  0.4695  0.1269
  211MOL0     C28413   2.411   3.120   2.757  1.3707  0.6097  0.0493
  211MOL0     C28414   2.487   3.014   2.823  0.3254  0.3280  0.8437
  211MOL0     C28415   2.554   2.928   2.876  0.2018 -0.7520 -0.0638
  211MOL0     C28416   2.286   3.548   3.139 -0.4540  0.3024  0.1482
  211MOL0     C28417   2.363   3.663   3.163  0.0004 -0.2920 -0.3824
  211MOL0     H28418   2.787   3.900   3.121  0.6371  1.6421  1.0217
  211MOL0     H28419   2.923   4.115   3.117 -1.4084  0.6065  1.2301
  211MOL0     H28420   2.925   4.357   2.753 -0.9118  1.3728 -0.6731
  211MOL0     H28421   2.822   4.468   2.842  1.3158  2.1890  2.5002
  211MOL0     H28422   3.007   4.539   2.981  0.0776 -0.6574  0.1589
  211MOL0     H28423   3.113   4.476   2.870  0.5772 -0.9910  2.0022
  211MOL0     H28424   3.084   4.696   2.789 -1.5956  0.7720 -0.1999
  211MOL0     H28425   3.005   4.596   2.676  0.7395  2.8011 -0.8146
  211MOL0     H28426   2.782   4.670   2.775  0.8404 -0.2243 -1.6580
  211MOL0     H28427   2.856   4.744   2.922 -1.5897 -0.9374  0.0864
  211MOL0     H28428   2.963   4.905   2.770  3.1560 -4.2453 -0.0600
  211MOL0     H28429   2.901   4.809   2.633  2.0508 -3.0992  1.6617
  211MOL0     H28430   2.699   4.912   2.672  2.8523 -0.3461 -2.3823
  211MOL0     H28431   2.707   4.924   2.850 -0.2468 -0.4236 -0.3649
  211MOL0     H28432   2.846   5.123   2.835 -1.2366  3.5141 -1.3262
  211MOL0     H28433   2.866   5.103   2.659 -0.6569 -0.9918 -0.8001
  211MOL0     H28434   2.600   5.103   2.760  0.6886 -1.6251 -0.3484
  211MOL0     H28435   2.654   5.165   2.598  0.5891 -1.4200 -0.1685
  211MOL0     H28436   2.549   5.260   2.945 -0.2217 -1.4146 -2.0244
  211MOL0     H28437   2.481   5.633   2.946  2.0782  1.2915 -0.1587
  211MOL0     H28438   2.460   5.493   3.060 -0.6238  2.8900  1.4864
  211MOL0     H28439   2.608   5.656   3.156 -1.5786  3.5441  0.0808
  211MOL0     H28440   2.719   5.662   3.005 -1.1400 -0.9640 -1.6206
  211MOL0     H28441   2.809   5.453   3.025 -0.9945 -3.4334 -0.3284
  211MOL0     H28442   2.672   5.399   3.127 -0.3237  0.6060  0.1010
  211MOL0     H28443   2.894   5.592   3.204  0.0192  1.5676 -1.6241
  211MOL0     H28444   2.892   5.424   3.247  2.3231  2.1936 -3.1828
  211MOL0     H28445   2.846   5.371   3.498 -0.5228  1.6867 -1.1225
  211MOL0     H28446   2.886   5.121   3.515 -0.3753 -1.4750 -2.5634
  211MOL0     H28447   2.794   5.128   3.679 -0.0160 -0.2422  0.4252
  211MOL0     H28448   2.757   5.016   3.551 -0.2180  0.1959 -0.0781
  211MOL0     H28449   2.178   4.956   3.613 -0.5309 -2.3985  1.6447
  211MOL0     H28450   2.082   4.723   3.585 -2.1226  1.2253 -0.7856
  211MOL0     H28451   2.271   4.463   3.570  0.4712 -2.7885 -0.2440
  211MOL0     H28452   2.101   4.511   3.603  3.2269 -0.0572  3.0232
  211MOL0     H28453   2.023   4.340   3.439  0.2496 -1.2474  0.7803
  211MOL0     H28454   2.192   4.277   3.450  0.5043 -0.1769 -0.8824
  211MOL0     H28455   2.147   4.288   3.702  3.1936 -1.2095 -2.1824
  211MOL0     H28456   2.095   4.148   3.604 -2.2211 -1.5732  1.8805
  211MOL0     H28457   1.888   4.366   3.645  2.7481  0.8635  1.1155
  211MOL0     H28458   1.860   4.196   3.603  0.6549 -1.1870  1.7532
  211MOL0     H28459   1.947   4.302   3.869 -1.0704  0.3344  1.3695
  211MOL0     H28460   1.894   4.134   3.834 -0.8290 -0.5023 -0.8350
  211MOL0     H28461   1.721   4.372   3.821  0.5092 -1.1535  1.6604
  211MOL0     H28462   1.667   4.201   3.763  1.5140 -1.7684 -0.2354
  211MOL0     H28463   1.743   4.335   4.023 -0.6102  0.6178 -0.2093
  211MOL0     H28464   1.750   4.158   4.027 -0.5073  0.4765  0.6113
  211MOL0     H28465   1.508   4.340   3.961  1.0181  0.7068 -1.6057
  211MOL0     H28466   1.556   4.247   4.114  0.0728  0.6171 -0.5544
  211MOL0     H28467   2.348   4.653   3.273 -1.2542  3.2150 -2.0923
  211MOL0     H28468   2.422   4.895   3.267 -2.1928  1.3808  0.4965
  211MOL0     H28469   2.375   5.262   3.387 -0.3006  3.2059  0.5273
  211MOL0     H28470   2.479   5.487   3.318  0.1674 -0.5044 -0.7898
  211MOL0     H28471   2.689   4.260   2.792 -4.0478 -1.1323 -0.1235
  211MOL0     H28472   2.560   4.056   2.791  0.2715 -0.1232 -0.6265
  211MOL0     H28473   2.418   3.717   2.830 -1.0804  3.7015  0.3710
  211MOL0     H28474   2.309   3.527   2.802  0.0576  2.0525 -0.0241
  211MOL0     H28475   2.268   3.272   3.155  3.0069 -1.4114 -1.8332
  211MOL0     H28476   2.125   3.199   3.076 -0.5481  0.2495 -1.2601
  211MOL0     H28477   2.354   3.096   3.034 -2.4493  0.1010  1.5863
  211MOL0     H28478   2.402   3.254   2.980 -0.3939 -0.9992  2.2268
  211MOL0     H28479   2.215   3.220   2.803  0.1131  0.3425  0.1531
  211MOL0     H28480   2.214   3.054   2.847 -0.3436  1.0932  2.0716
  211MOL0     H28481   2.469   3.211   2.774 -0.5074  1.6376  1.4212
  211MOL0     H28482   2.385   3.099   2.653 -1.7742  0.8602  0.6699
  211MOL0     H28483   2.607   2.848   2.923  0.2651 -0.4944  0.3053
  211MOL0     H28484   2.241   3.497   3.223  0.2763 -2.5949 -1.0930
  211MOL0     H28485   2.371   3.697   3.266  2.9201  2.2522 -1.2868
  212MOL0     O28486   2.380   7.548   7.535 -0.1974 -0.3543 -0.1235
  212MOL0     C28487   2.494   7.517   7.576 -0.4623 -0.2853 -0.2319
  212MOL0     O28488   2.514   7.440   7.684 -0.4502  0.4530  0.8688
  212MOL0     C28489   2.405   7.385   7.754 -0.2296  0.7840 -0.4248
  212MOL0     C28490   2.334   7.472   7.840  0.4270  0.0774  0.4872
  212MOL0     C28491   2.243   7.410   7.928  0.7442  0.0879  0.8020
  212MOL0     C28492   2.221   7.274   7.923 -0.5361  0.0803  0.7537
  212MOL0     O28493   2.142   7.203   8.008 -0.0442  0.9419 -0.4450
  212MOL0     C28494   2.066   7.263   8.114  0.6127  0.9303 -0.3508
  212MOL0     C28495   2.163   7.253   8.235 -0.0957  0.3787 -0.1834
  212MOL0     C28496   2.095   7.230   8.367 -0.0726 -0.2378 -0.9537
  212MOL0     C28497   2.046   7.088   8.392 -0.2276  0.2782  0.4654
  212MOL0     C28498   1.940   7.087   8.496  0.7707 -0.4206  0.5833
  212MOL0     C28499   1.799   7.143   8.440  1.1916 -0.1657  1.0020
  212MOL0     C28500   1.703   7.146   8.552  0.3429  0.8616 -0.0955
  212MOL0     C28501   1.563   7.175   8.505  0.4604  0.2232  0.2927
  212MOL0     N28502   1.477   7.216   8.622 -0.2792  0.4527 -0.1387
  212MOL0     C28503   1.411   7.332   8.638 -0.5321 -0.0806  0.4449
  212MOL0     C28504   1.350   7.314   8.765 -0.2211 -0.2566  0.8827
  212MOL0     C28505   1.272   7.413   8.843  0.0125 -0.5759 -0.2084
  212MOL0     C28506   1.321   7.558   8.812 -0.2170  0.8263  0.4913
  212MOL0     C28507   1.240   7.662   8.886  0.0167  0.7336 -0.2926
  212MOL0     C28508   1.312   7.789   8.914  0.1603  0.5865  0.2568
  212MOL0     O28509   1.444   7.766   8.984  0.6412 -0.5409  0.0267
  212MOL0     C28510   1.526   7.880   9.013  0.3964 -0.0562 -0.4269
  212MOL0     C28511   1.655   7.843   9.060 -0.5267  0.1230 -0.2000
  212MOL0     C28512   1.750   7.943   9.075 -0.8470  0.7877 -0.2963
  212MOL0     C28513   1.879   7.884   9.125  0.8111  0.0600 -0.6056
  212MOL0     C28514   1.728   8.072   9.038 -0.2681  0.2214 -0.9281
  212MOL0     C28515   1.828   8.179   9.058 -0.6122  0.2196 -1.3004
  212MOL0     O28516   1.886   8.196   9.188 -0.2502  0.3600 -0.1927
  212MOL0     C28517   1.975   8.294   9.210 -1.0098  0.8923  1.1192
  212MOL0     C28518   1.942   8.419   9.259 -0.4769 -0.7063 -0.1859
  212MOL0     C28519   2.039   8.524   9.288 -0.3112  0.1448  1.0299
  212MOL0     C28520   2.174   8.487   9.281 -1.0587  0.7314  0.3730
  212MOL0     O28521   2.277   8.563   9.318 -0.4631 -0.9334  0.3778
  212MOL0     C28522   2.340   8.629   9.201  0.5992  0.3045 -0.9721
  212MOL0     C28523   2.435   8.748   9.237  0.4266 -0.3716  0.1032
  212MOL0     C28524   2.558   8.711   9.325  0.0992 -0.5784  0.6754
  212MOL0     C28525   2.524   8.721   9.472 -0.0148  0.0583  0.0625
  212MOL0     C28526   2.642   8.719   9.567 -0.1148 -0.0596  0.4483
  212MOL0     C28527   2.756   8.819   9.532  0.0355  0.2885  0.7743
  212MOL0     C28528   2.859   8.833   9.646 -0.2950 -1.0389 -0.7374
  212MOL0     C28529   2.867   8.973   9.712 -0.3344  1.0773 -0.1256
  212MOL0    Cl28530   2.945   8.957   9.876 -0.5553  0.0669 -0.0721
  212MOL0     C28531   2.208   8.353   9.234 -0.8782 -0.0610  0.1768
  212MOL0     C28532   2.104   8.263   9.191  0.2536  0.1621 -0.4195
  212MOL0     O28533   1.824   8.271   8.976  0.1986  0.2758 -0.6328
  212MOL0     C28534   1.608   8.108   8.982  0.1751  0.1801 -0.2968
  212MOL0     C28535   1.506   8.013   8.972 -0.8434 -0.4006  0.7458
  212MOL0     N28536   1.382   7.191   8.827 -0.2452  0.3951  0.5366
  212MOL0     N28537   1.458   7.140   8.735 -0.2762 -0.1144  0.2761
  212MOL0     C28538   2.290   7.196   7.828 -0.8553  0.1094 -0.6239
  212MOL0     C28539   2.383   7.247   7.741  0.6942  0.2123 -0.2058
  212MOL0     C28540   2.620   7.564   7.502  0.2964 -0.1136 -0.7275
  212MOL0     C28541   2.749   7.540   7.539  0.4098  1.1565  0.0925
  212MOL0     C28542   2.859   7.557   7.451 -0.1218  0.3864 -0.7483
  212MOL0     C28543   2.840   7.620   7.330  0.6269 -0.3456  1.1384
  212MOL0     O28544   2.919   7.649   7.227 -0.0366 -0.1321  0.0589
  212MOL0     C28545   3.058   7.656   7.255  0.6011  0.3955  0.7366
  212MOL0     C28546   3.125   7.782   7.193 -1.0111 -0.2130 -0.3660
  212MOL0     C28547   3.103   7.807   7.045 -0.4459 -0.0549  0.1003
  212MOL0     C28548   3.111   7.678   6.971  0.4538 -0.0980  0.0430
  212MOL0     C28549   3.103   7.716   6.827  0.1399  0.6740 -0.1645
  212MOL0     C28550   3.092   7.743   6.713 -0.6777  0.1439  0.3832
  212MOL0     C28551   2.706   7.663   7.307 -0.4236 -0.0499 -0.3032
  212MOL0     C28552   2.603   7.647   7.390 -1.3863  0.2009 -0.1968
  212MOL0     H28553   2.362   7.577   7.839 -0.2110  0.2515 -0.8637
  212MOL0     H28554   2.201   7.473   8.007 -3.4433 -1.2521 -0.0629
  212MOL0     H28555   2.023   7.362   8.101  0.5092  1.9353  5.2037
  212MOL0     H28556   1.981   7.196   8.134 -1.0837  2.9014 -0.6912
  212MOL0     H28557   2.239   7.174   8.232  0.1750  0.1336  5.0909
  212MOL0     H28558   2.220   7.346   8.239 -2.0320  1.5887  0.2651
  212MOL0     H28559   2.160   7.262   8.450  3.6034  1.2030 -4.0948
  212MOL0     H28560   2.010   7.299   8.355  2.4101  3.0375 -1.2925
  212MOL0     H28561   2.027   7.033   8.300 -2.4713 -1.3370  1.7963
  212MOL0     H28562   2.127   7.030   8.438  0.0722  1.7797  1.9570
  212MOL0     H28563   1.913   6.983   8.515  0.6512 -0.4740  0.1261
  212MOL0     H28564   1.965   7.137   8.590 -3.7628  0.1326  1.7165
  212MOL0     H28565   1.807   7.242   8.394  0.1679 -0.6037 -0.1728
  212MOL0     H28566   1.765   7.082   8.356  2.9986 -0.0843  0.1392
  212MOL0     H28567   1.694   7.048   8.600 -1.3373  0.6396 -0.7674
  212MOL0     H28568   1.741   7.204   8.636 -0.4224 -3.6515  3.7795
  212MOL0     H28569   1.518   7.080   8.474 -3.0972  2.2759 -1.5850
  212MOL0     H28570   1.558   7.259   8.434 -0.1190  0.4196  0.5604
  212MOL0     H28571   1.408   7.416   8.570  2.1987 -3.0941 -3.9060
  212MOL0     H28572   1.165   7.406   8.821 -0.1721  2.1097 -0.4516
  212MOL0     H28573   1.288   7.389   8.948 -1.8199 -2.0902 -0.2170
  212MOL0     H28574   1.304   7.591   8.709  1.8903 -0.4276 -0.3214
  212MOL0     H28575   1.428   7.566   8.831  0.7375 -4.1212 -1.3006
  212MOL0     H28576   1.197   7.632   8.982 -0.6862  2.1675 -0.1190
  212MOL0     H28577   1.151   7.680   8.825 -1.7275 -1.1000  1.5713
  212MOL0     H28578   1.249   7.861   8.967 -2.0543 -0.8324 -0.2981
  212MOL0     H28579   1.344   7.834   8.820  1.2108 -0.8110 -0.1056
  212MOL0     H28580   1.672   7.738   9.083  1.7901  0.8732  2.0546
  212MOL0     H28581   1.948   7.963   9.155 -1.5837  1.6917  1.0023
  212MOL0     H28582   1.861   7.816   9.208 -1.9622 -0.4690 -1.5124
  212MOL0     H28583   1.936   7.840   9.042  2.3741  2.1104 -0.6933
  212MOL0     H28584   1.838   8.443   9.277 -0.1054 -0.4121  1.8346
  212MOL0     H28585   2.020   8.627   9.316 -2.5116 -0.5093  2.2247
  212MOL0     H28586   2.398   8.562   9.137  0.6748  1.9592 -2.7369
  212MOL0     H28587   2.254   8.678   9.155 -1.5412 -1.7566  0.5870
  212MOL0     H28588   2.463   8.795   9.143 -0.5126  0.2273  0.1154
  212MOL0     H28589   2.370   8.822   9.285  0.1933 -0.2878 -0.3403
  212MOL0     H28590   2.640   8.780   9.303  0.3743 -2.0292 -4.0330
  212MOL0     H28591   2.595   8.611   9.301  1.2047 -0.0218 -0.0078
  212MOL0     H28592   2.472   8.814   9.495 -0.2902 -0.2836  0.8284
  212MOL0     H28593   2.452   8.640   9.490 -1.4059  0.4543 -3.0549
  212MOL0     H28594   2.679   8.616   9.577 -1.8262 -1.1668 -2.9069
  212MOL0     H28595   2.608   8.743   9.668 -0.4049 -2.3099  0.9544
  212MOL0     H28596   2.810   8.772   9.449  0.5973  0.2203  1.1734
  212MOL0     H28597   2.726   8.921   9.509 -2.8720 -0.7082 -0.4128
  212MOL0     H28598   2.964   8.813   9.622  0.3129 -0.0072  0.8611
  212MOL0     H28599   2.845   8.764   9.729  2.7453 -0.5656  0.2990
  212MOL0     H28600   2.770   9.021   9.726 -2.2661 -1.7635 -2.4673
  212MOL0     H28601   2.932   9.034   9.648 -0.6699 -0.0537 -1.6031
  212MOL0     H28602   2.310   8.318   9.219 -0.5693 -0.4385  2.7349
  212MOL0     H28603   2.128   8.168   9.144 -1.0041  1.1689 -3.3092
  212MOL0     H28604   1.574   8.206   8.949  0.1475 -0.3008 -1.7668
  212MOL0     H28605   1.417   8.042   8.917  1.9415  2.1029 -2.9137
  212MOL0     H28606   2.255   7.093   7.822 -1.3679  0.1800  0.7780
  212MOL0     H28607   2.444   7.186   7.676  2.3482  1.2097  0.3472
  212MOL0     H28608   2.756   7.482   7.630 -0.7969  1.5284  0.4483
  212MOL0     H28609   2.955   7.514   7.478 -0.8161 -0.1421  0.9806
  212MOL0     H28610   3.080   7.664   7.362  3.5137  0.7443  0.1994
  212MOL0     H28611   3.097   7.568   7.204  0.7455  0.3811  0.8717
  212MOL0     H28612   3.233   7.767   7.206 -1.1514 -0.8193  0.1775
  212MOL0     H28613   3.094   7.866   7.255 -2.3945 -2.2772  1.9156
  212MOL0     H28614   3.188   7.868   7.013 -2.9671  3.5083 -0.4795
  212MOL0     H28615   3.002   7.848   7.032 -0.2287  1.1251  1.8491
  212MOL0     H28616   3.022   7.617   6.987 -2.9224  3.8221 -1.8721
  212MOL0     H28617   3.199   7.623   7.005  1.6958  2.5287  1.3634
  212MOL0     H28618   3.058   7.747   6.611 -0.2892  1.7292  0.2891
  212MOL0     H28619   2.697   7.726   7.218  0.5804  2.2805  1.1458
  212MOL0     H28620   2.499   7.679   7.379 -1.9788 -0.2860  2.9884
  213MOL0     O28621   7.040  10.185   2.658 -0.3609  0.1532 -0.1121
  213MOL0     C28622   7.154  10.142   2.629 -0.2234  0.0850  0.3266
  213MOL0     O28623   7.258  10.104   2.715  0.0107 -0.6244 -0.4544
  213MOL0     C28624   7.253  10.099   2.855 -0.7134  0.4774  1.0936
  213MOL0     C28625   7.347  10.028   2.924  0.5350  0.6542 -0.2836
  213MOL0     C28626   7.342  10.004   3.065 -0.2772  0.5457  0.1278
  213MOL0     C28627   7.233  10.045   3.136 -0.2625 -0.7467 -0.5510
  213MOL0     O28628   7.228  10.021   3.270  0.3068  0.2457  0.2317
  213MOL0     C28629   7.100  10.056   3.345 -0.0344  0.9557  0.9330
  213MOL0     C28630   7.123  10.016   3.489  0.3204 -1.0821 -0.2560
  213MOL0     C28631   7.179   9.876   3.513 -0.1446 -0.0618 -0.1437
  213MOL0     C28632   7.129   9.806   3.648  0.1809  0.0564  0.4089
  213MOL0     C28633   7.115   9.902   3.764  1.1774 -0.5026 -0.2212
  213MOL0     C28634   7.142   9.845   3.907  0.6887  0.1019 -0.4414
  213MOL0     C28635   7.144   9.957   4.013  0.3822 -0.6969  0.7105
  213MOL0     C28636   7.019  10.039   4.023 -0.3431  0.0904  0.3392
  213MOL0     N28637   6.915   9.952   4.090  0.3827 -0.3117  0.4216
  213MOL0     C28638   6.888   9.982   4.226 -0.6892 -0.6872 -0.2662
  213MOL0     C28639   6.782   9.913   4.262  0.4212  0.1906 -0.3427
  213MOL0     C28640   6.753   9.895   4.407  0.1372  0.5568  0.0249
  213MOL0     C28641   6.605   9.911   4.450  0.6747  0.2232 -1.1428
  213MOL0     C28642   6.567  10.055   4.470 -0.2366 -0.5062  0.6507
  213MOL0     C28643   6.418  10.085   4.506 -0.2887 -0.2022 -0.5669
  213MOL0     O28644   6.403  10.222   4.499  1.0527 -0.3031  0.6631
  213MOL0     C28645   6.384  10.273   4.367  0.0661  0.5442  0.2443
  213MOL0     C28646   6.370  10.202   4.239  1.0125  0.1510  0.9994
  213MOL0     C28647   6.332  10.259   4.120  0.1844 -0.3505 -0.3871
  213MOL0     C28648   6.305  10.164   4.001 -0.4317  0.4557  0.4034
  213MOL0     C28649   6.334  10.400   4.116  0.3527 -0.7452 -0.7386
  213MOL0     C28650   6.303  10.479   3.996  0.6714 -0.0295  0.1007
  213MOL0     O28651   6.392  10.585   3.978 -0.3905  0.1608  0.8643
  213MOL0     C28652   6.356  10.678   3.880  0.0373  0.2643  0.7749
  213MOL0     C28653   6.246  10.756   3.884  0.7777 -0.7096 -0.4412
  213MOL0     C28654   6.227  10.860   3.782  0.6010  0.3170  0.6516
  213MOL0     C28655   6.326  10.881   3.688 -0.1870  0.5224  0.1992
  213MOL0     O28656   6.308  10.985   3.599  1.0416 -0.1494 -0.4704
  213MOL0     C28657   6.428  11.043   3.546  0.1299  0.7243 -0.8726
  213MOL0     C28658   6.415  11.195   3.547  0.3879 -0.2888  0.0559
  213MOL0     C28659   6.534  11.263   3.494  0.2023  0.7430  0.0755
  213MOL0     C28660   6.559  11.397   3.556  0.1189 -0.8366  0.0294
  213MOL0     C28661   6.690  11.474   3.498  0.2268 -0.5142 -0.6290
  213MOL0     C28662   6.664  11.519   3.356 -0.3835  0.4511  0.4290
  213MOL0     C28663   6.787  11.615   3.315  0.9610  0.9579 -0.0881
  213MOL0     C28664   6.806  11.627   3.168 -0.2078 -0.5999  0.1979
  213MOL0    Cl28665   6.966  11.695   3.135  0.3981  0.2495  0.2900
  213MOL0     C28666   6.445  10.803   3.690  0.5819 -0.2296 -0.0413
  213MOL0     C28667   6.453  10.705   3.784  0.3685  0.6561 -0.3112
  213MOL0     O28668   6.208  10.452   3.921  0.1871  0.3852 -0.1888
  213MOL0     C28669   6.363  10.473   4.232 -0.3668  0.5181 -0.4348
  213MOL0     C28670   6.387  10.406   4.351  0.3040 -1.5075  0.0243
  213MOL0     N28671   6.726   9.859   4.145  0.2094  0.0089 -0.3896
  213MOL0     N28672   6.816   9.872   4.052 -0.8945 -0.7675  0.0161
  213MOL0     C28673   7.137  10.122   3.070  0.4710 -0.2906  0.5545
  213MOL0     C28674   7.143  10.143   2.929 -0.6518 -0.2901 -0.4554
  213MOL0     C28675   7.188  10.126   2.484  0.0852  0.4143 -0.7460
  213MOL0     C28676   7.313  10.089   2.437  0.0582 -0.2305  1.0617
  213MOL0     C28677   7.350  10.098   2.304  0.7396 -0.4480  0.1022
  213MOL0     C28678   7.254  10.140   2.207  0.2852 -0.5986 -0.2415
  213MOL0     O28679   7.310  10.167   2.085  0.8569  0.4674 -0.6420
  213MOL0     C28680   7.222  10.209   1.975  0.9061 -0.8242  0.1398
  213MOL0     C28681   7.192  10.361   1.969 -0.2732 -0.0281 -0.6153
  213MOL0     C28682   7.319  10.452   1.941 -0.0599  1.5492 -0.0692
  213MOL0     C28683   7.406  10.407   1.823  0.3623 -0.8168 -0.0511
  213MOL0     C28684   7.522  10.497   1.792  0.0989 -0.7105 -0.7967
  213MOL0     C28685   7.619  10.568   1.768 -0.1268  1.5800  0.0735
  213MOL0     C28686   7.122  10.149   2.252  0.0832 -0.2449  0.2371
  213MOL0     C28687   7.093  10.160   2.383  0.1309 -0.2220 -0.1664
  213MOL0     H28688   7.425   9.980   2.865  3.6119  1.5073  2.8227
  213MOL0     H28689   7.411   9.941   3.120 -0.5651  1.6224  1.8149
  213MOL0     H28690   7.085  10.164   3.339 -2.4223  0.6567  0.5004
  213MOL0     H28691   7.015   9.996   3.310  1.0044 -1.1717  1.8695
  213MOL0     H28692   7.173  10.097   3.542 -1.7375  0.4937 -0.5738
  213MOL0     H28693   7.023  10.019   3.534 -0.7932  0.3632 -2.5664
  213MOL0     H28694   7.152   9.819   3.424 -2.3745  0.4876  0.1307
  213MOL0     H28695   7.288   9.881   3.514 -0.1215 -0.4622  1.2725
  213MOL0     H28696   7.030   9.769   3.621  0.3364  0.5757 -0.9688
  213MOL0     H28697   7.188   9.718   3.676  0.7058  0.5786  0.9710
  213MOL0     H28698   7.182   9.987   3.754  0.7808 -0.3179 -1.6008
  213MOL0     H28699   7.012   9.940   3.764  0.1605 -3.0182  0.0600
  213MOL0     H28700   7.078   9.768   3.951 -0.0852  0.4537 -0.9388
  213MOL0     H28701   7.243   9.802   3.914  0.1676 -1.9153 -3.4659
  213MOL0     H28702   7.176   9.920   4.111  4.3744 -0.0138 -0.1995
  213MOL0     H28703   7.230  10.022   3.996  0.6451 -1.0904  0.5117
  213MOL0     H28704   6.977  10.074   3.928  0.0515  0.6208  0.3555
  213MOL0     H28705   7.044  10.120   4.092  0.9681 -2.9649  3.7010
  213MOL0     H28706   6.941  10.056   4.286 -0.8988 -1.4719  0.9351
  213MOL0     H28707   6.788   9.799   4.446 -1.5720 -0.8918 -1.7864
  213MOL0     H28708   6.806   9.972   4.463 -0.0631 -0.1502  1.2226
  213MOL0     H28709   6.585   9.852   4.540  4.5007 -1.0136 -0.9393
  213MOL0     H28710   6.537   9.866   4.377  0.5104 -0.5869 -0.5094
  213MOL0     H28711   6.591  10.115   4.381 -2.4700 -1.5258 -0.7386
  213MOL0     H28712   6.623  10.091   4.556 -0.0769  2.4744 -0.5498
  213MOL0     H28713   6.407  10.059   4.612  0.9985 -2.2324 -0.8769
  213MOL0     H28714   6.338  10.032   4.453 -1.7132  3.5351 -2.4589
  213MOL0     H28715   6.387  10.095   4.252  2.4601 -0.3970 -3.5268
  213MOL0     H28716   6.275  10.218   3.911  1.3500  3.7879  1.6618
  213MOL0     H28717   6.399  10.112   3.983  0.8301  2.2292  1.5166
  213MOL0     H28718   6.227  10.096   4.037  0.2171 -0.5712 -0.0742
  213MOL0     H28719   6.176  10.740   3.965  1.6235 -1.3971  0.1606
  213MOL0     H28720   6.148  10.933   3.796  0.5689  0.4250 -0.0594
  213MOL0     H28721   6.512  11.015   3.611 -0.0371  2.2952  0.0951
  213MOL0     H28722   6.450  11.004   3.447  5.9469  0.4272  0.1572
  213MOL0     H28723   6.335  11.217   3.476  1.3847 -1.8436 -1.6431
  213MOL0     H28724   6.375  11.221   3.645 -5.8231 -1.6064 -1.7195
  213MOL0     H28725   6.535  11.256   3.385  0.3504 -0.0947  0.1248
  213MOL0     H28726   6.619  11.200   3.520  0.6356  0.9020 -0.9267
  213MOL0     H28727   6.477  11.469   3.546  1.1214  0.2122 -1.0236
  213MOL0     H28728   6.572  11.390   3.664  0.3148 -1.0086 -0.0055
  213MOL0     H28729   6.776  11.407   3.502 -1.4939 -2.9432 -1.8220
  213MOL0     H28730   6.695  11.569   3.552 -2.6529  0.1079 -1.3225
  213MOL0     H28731   6.653  11.436   3.285 -3.0336  3.0798 -2.5955
  213MOL0     H28732   6.568  11.567   3.334 -0.7903 -1.1360 -1.6377
  213MOL0     H28733   6.877  11.573   3.361  1.5263  1.2726 -0.8709
  213MOL0     H28734   6.780  11.709   3.370  0.4887  0.1444  1.2938
  213MOL0     H28735   6.735  11.703   3.136  3.0603  3.6789  2.1248
  213MOL0     H28736   6.784  11.533   3.115 -0.6090 -0.8355  0.7731
  213MOL0     H28737   6.522  10.811   3.615  0.2897 -1.1740 -0.4609
  213MOL0     H28738   6.542  10.644   3.780  0.8114  0.8913  2.9239
  213MOL0     H28739   6.361  10.582   4.237  3.5556  0.7061 -0.2084
  213MOL0     H28740   6.404  10.473   4.434  1.3114 -1.0298 -0.5414
  213MOL0     H28741   7.050  10.166   3.118 -0.4928  0.7006 -1.9251
  213MOL0     H28742   7.058  10.198   2.891  0.3691 -0.1111 -2.6385
  213MOL0     H28743   7.395  10.070   2.506  1.4847  1.1059 -0.1825
  213MOL0     H28744   7.456  10.090   2.284  0.3848 -0.9967 -1.8369
  213MOL0     H28745   7.266  10.185   1.878 -2.0053  1.6297 -2.0179
  213MOL0     H28746   7.125  10.158   1.968  0.2678  0.5507 -2.4725
  213MOL0     H28747   7.127  10.391   2.052 -0.1912  0.4481 -0.7231
  213MOL0     H28748   7.129  10.383   1.882  1.1168  0.7315 -1.4620
  213MOL0     H28749   7.368  10.451   2.038  0.3661  0.8185 -0.2845
  213MOL0     H28750   7.287  10.555   1.922  0.7351  2.1963  1.9265
  213MOL0     H28751   7.338  10.387   1.740 -2.7334  1.0733  1.8351
  213MOL0     H28752   7.453  10.311   1.846 -0.3755 -1.3839 -0.8797
  213MOL0     H28753   7.702  10.632   1.743  0.4224  0.7951 -0.1512
  213MOL0     H28754   7.033  10.158   2.190  0.9466  2.1510 -0.7959
  213MOL0     H28755   6.993  10.176   2.422  0.0401  0.4824 -0.6723
  214MOL0     O28756   3.869   6.997   4.349 -0.7731  0.0044 -0.1586
  214MOL0     C28757   3.880   7.023   4.230  0.6404  0.1255  0.0790
  214MOL0     O28758   3.992   7.025   4.156  0.4873 -0.1525 -0.1439
  214MOL0     C28759   4.111   7.004   4.209 -1.0490  0.3365 -0.2122
  214MOL0     C28760   4.191   6.930   4.130 -0.0005 -0.0350  0.5290
  214MOL0     C28761   4.325   6.915   4.160  0.5126  0.1115 -0.5504
  214MOL0     C28762   4.386   6.984   4.271  0.7408 -1.0946 -0.1907
  214MOL0     O28763   4.511   6.969   4.296  0.1813  0.0655  0.6674
  214MOL0     C28764   4.600   7.077   4.308  1.1600  0.4923  0.5042
  214MOL0     C28765   4.635   7.129   4.158  0.0286 -0.0867  0.4382
  214MOL0     C28766   4.542   7.240   4.105  1.2249  0.6113 -0.3054
  214MOL0     C28767   4.549   7.365   4.198  0.2622 -0.2310  1.0945
  214MOL0     C28768   4.432   7.464   4.153 -0.7161  1.4009 -0.3301
  214MOL0     C28769   4.468   7.534   4.013 -0.5378 -0.1107  0.5213
  214MOL0     C28770   4.382   7.658   3.991  0.0981 -0.1530  0.2183
  214MOL0     C28771   4.235   7.630   3.956 -0.3090  0.3228  0.2878
  214MOL0     N28772   4.219   7.512   3.858 -0.4012 -0.4555  0.8898
  214MOL0     C28773   4.253   7.523   3.724  0.3816  0.1580  0.3422
  214MOL0     C28774   4.230   7.409   3.666  0.3371 -0.1980  0.2010
  214MOL0     C28775   4.275   7.363   3.528  1.7346  1.0848  0.1368
  214MOL0     C28776   4.152   7.374   3.428 -0.3573 -0.1599  0.1272
  214MOL0     C28777   4.197   7.347   3.274  0.3571  0.4347 -0.2496
  214MOL0     C28778   4.072   7.329   3.188  0.3218  0.9072 -0.2408
  214MOL0     O28779   4.111   7.338   3.051  0.4900 -0.2525  0.1762
  214MOL0     C28780   4.018   7.385   2.963 -0.6278  0.0729  0.5751
  214MOL0     C28781   4.068   7.439   2.843 -0.4485 -0.1526 -0.1529
  214MOL0     C28782   3.993   7.500   2.745 -1.0766 -0.5506 -0.0291
  214MOL0     C28783   4.070   7.568   2.632  0.5414 -0.3395 -0.4811
  214MOL0     C28784   3.858   7.501   2.765  0.2739  0.3779 -0.5475
  214MOL0     C28785   3.753   7.564   2.681 -0.5273 -0.7211  0.2248
  214MOL0     O28786   3.667   7.476   2.626 -0.2943  0.8901  0.3403
  214MOL0     C28787   3.563   7.522   2.551 -0.7611 -1.3655 -0.3833
  214MOL0     C28788   3.587   7.569   2.425 -0.6485 -0.3197 -0.2315
  214MOL0     C28789   3.483   7.608   2.337 -0.8136  0.2246 -0.8728
  214MOL0     C28790   3.345   7.606   2.384 -0.0903 -0.1822 -0.1426
  214MOL0     O28791   3.248   7.645   2.294  0.4549 -0.0752  0.1336
  214MOL0     C28792   3.106   7.650   2.332 -0.5840  0.4496 -0.1329
  214MOL0     C28793   3.024   7.653   2.199  0.1378 -0.7611  0.4127
  214MOL0     C28794   3.047   7.532   2.097  0.1522 -0.1324 -0.3894
  214MOL0     C28795   3.072   7.571   1.951 -0.3111 -0.6653  0.2012
  214MOL0     C28796   2.946   7.641   1.896 -0.3801  0.1217  0.5307
  214MOL0     C28797   2.949   7.673   1.745  0.5316 -0.0381 -0.9667
  214MOL0     C28798   3.035   7.787   1.690  0.1167 -0.0854  0.7832
  214MOL0     C28799   3.104   7.743   1.552  0.5247  0.0634  0.1538
  214MOL0    Cl28800   2.981   7.721   1.425  0.3480 -0.1964 -0.4001
  214MOL0     C28801   3.326   7.562   2.518  0.3279  0.1020  0.1400
  214MOL0     C28802   3.430   7.514   2.595  0.0083  0.6767 -0.5621
  214MOL0     O28803   3.761   7.685   2.664 -0.2757  0.2084 -0.3208
  214MOL0     C28804   3.805   7.441   2.887 -0.2857  0.5419  0.0289
  214MOL0     C28805   3.882   7.379   2.983 -0.3740 -0.3532  0.4605
  214MOL0     N28806   4.178   7.332   3.768  0.0574  0.6111 -0.0281
  214MOL0     N28807   4.168   7.388   3.880  0.4249  0.7525  2.0394
  214MOL0     C28808   4.308   7.060   4.351  0.6926 -1.1358 -0.2318
  214MOL0     C28809   4.167   7.057   4.325 -1.1137 -0.4305 -0.0339
  214MOL0     C28810   3.754   7.067   4.167  0.7278 -0.2925 -0.0706
  214MOL0     C28811   3.728   7.056   4.029 -0.1187  0.0721 -0.2692
  214MOL0     C28812   3.604   7.089   3.966 -0.7986 -0.1336  0.3872
  214MOL0     C28813   3.503   7.148   4.049 -0.3335 -0.5442  0.5031
  214MOL0     O28814   3.374   7.174   4.005  0.0901 -0.3192  0.3141
  214MOL0     C28815   3.352   7.275   3.893 -0.0470  0.5103 -0.2611
  214MOL0     C28816   3.201   7.267   3.868  0.1729  0.1905  0.5646
  214MOL0     C28817   3.153   7.128   3.825 -0.0717  0.1599  0.6388
  214MOL0     C28818   3.008   7.109   3.799 -0.0475 -0.9967 -0.4848
  214MOL0     C28819   2.960   7.025   3.685  1.1776 -0.2569  0.8820
  214MOL0     C28820   2.902   6.974   3.582 -0.2918  0.6022 -0.9121
  214MOL0     C28821   3.520   7.163   4.188 -0.4637  0.2205 -0.0775
  214MOL0     C28822   3.646   7.125   4.237  0.8308 -0.0298  0.0975
  214MOL0     H28823   4.147   6.865   4.056 -2.2087  0.4295  1.3546
  214MOL0     H28824   4.382   6.852   4.091  3.1896  2.0180 -0.2311
  214MOL0     H28825   4.568   7.159   4.373 -1.0324  2.1260 -2.3822
  214MOL0     H28826   4.686   7.027   4.353 -0.8252  0.1103  4.2077
  214MOL0     H28827   4.741   7.154   4.157  0.5041 -1.7623  2.3581
  214MOL0     H28828   4.623   7.043   4.091 -2.1922  1.5252 -1.4224
  214MOL0     H28829   4.582   7.257   4.005  0.6347  0.1673 -0.6240
  214MOL0     H28830   4.444   7.192   4.091  1.7124 -0.7191  0.5955
  214MOL0     H28831   4.523   7.338   4.300  0.6044 -2.9219  0.5410
  214MOL0     H28832   4.655   7.393   4.196  0.4562 -0.7242  2.9971
  214MOL0     H28833   4.333   7.418   4.143 -1.1434  1.7381  1.9154
  214MOL0     H28834   4.434   7.538   4.234  0.2113  0.4139  0.5907
  214MOL0     H28835   4.572   7.569   4.021 -0.3645  0.0366 -1.7737
  214MOL0     H28836   4.462   7.466   3.928  3.4911  0.0005 -0.0696
  214MOL0     H28837   4.382   7.716   4.084  1.8323  1.0945 -0.5293
  214MOL0     H28838   4.432   7.721   3.918  0.6365 -1.7122 -0.8164
  214MOL0     H28839   4.187   7.720   3.916  2.1804  1.8143  0.4781
  214MOL0     H28840   4.189   7.603   4.052  1.8082 -0.0756  1.2470
  214MOL0     H28841   4.292   7.613   3.677 -1.7112  0.9897  0.0866
  214MOL0     H28842   4.345   7.437   3.489  0.8804  1.9067  0.1113
  214MOL0     H28843   4.327   7.268   3.537  1.7292  0.9653 -0.9546
  214MOL0     H28844   4.114   7.475   3.445  3.5409  0.8618  5.2450
  214MOL0     H28845   4.079   7.299   3.458 -0.1156 -2.1338 -3.5496
  214MOL0     H28846   4.254   7.253   3.266 -0.9432 -0.3269 -0.9061
  214MOL0     H28847   4.253   7.430   3.230  0.1068 -0.6711 -2.7931
  214MOL0     H28848   4.003   7.409   3.218 -1.5757 -0.5751 -0.5117
  214MOL0     H28849   4.011   7.241   3.207 -0.5946  1.8220  1.2846
  214MOL0     H28850   4.176   7.450   2.835 -0.2332 -1.8447  0.0541
  214MOL0     H28851   4.119   7.488   2.576  0.6721 -0.6590  0.0875
  214MOL0     H28852   4.007   7.628   2.564 -2.5328 -3.1833 -0.3845
  214MOL0     H28853   4.144   7.642   2.663  0.8000 -0.0252 -1.7878
  214MOL0     H28854   3.693   7.583   2.404 -0.5795  0.4111  0.5248
  214MOL0     H28855   3.494   7.664   2.245 -2.5860  0.3261 -1.0491
  214MOL0     H28856   3.077   7.559   2.385  1.4063 -0.3389 -0.2962
  214MOL0     H28857   3.083   7.741   2.388 -1.8503 -1.6225  2.9553
  214MOL0     H28858   2.917   7.643   2.215  0.1005  0.6617  1.2653
  214MOL0     H28859   3.038   7.747   2.145  0.3102 -1.5721 -1.0007
  214MOL0     H28860   2.959   7.467   2.093  0.8038 -1.4505  3.1630
  214MOL0     H28861   3.125   7.464   2.131  0.6068 -1.2556 -3.3610
  214MOL0     H28862   3.155   7.641   1.949  1.8172 -3.0460 -0.1536
  214MOL0     H28863   3.089   7.488   1.882 -4.0731 -0.6548 -0.9729
  214MOL0     H28864   2.936   7.731   1.956  1.5201 -1.3471  3.2690
  214MOL0     H28865   2.858   7.578   1.911  0.7160 -1.8648 -0.8598
  214MOL0     H28866   2.962   7.580   1.690  0.4937  0.1449 -1.2897
  214MOL0     H28867   2.847   7.700   1.716 -0.3618  2.3793  3.5213
  214MOL0     H28868   3.115   7.804   1.763 -0.8084  0.9914  1.5919
  214MOL0     H28869   2.977   7.876   1.664 -0.8859 -1.5221 -2.4303
  214MOL0     H28870   3.163   7.656   1.581  0.7247  0.3704  0.6649
  214MOL0     H28871   3.179   7.813   1.514 -0.0606  1.8638  2.1336
  214MOL0     H28872   3.229   7.578   2.563  0.4015  4.9622 -0.9231
  214MOL0     H28873   3.408   7.467   2.690  0.0298  2.0138  0.1341
  214MOL0     H28874   3.699   7.432   2.908 -0.0527  1.7563  1.9509
  214MOL0     H28875   3.839   7.336   3.073  2.9253  0.4639  2.5987
  214MOL0     H28876   4.340   7.115   4.439 -1.0816  2.9452 -1.9219
  214MOL0     H28877   4.107   7.099   4.405  0.8147 -0.8019  1.7268
  214MOL0     H28878   3.815   7.042   3.966  2.1409  2.5092  2.0609
  214MOL0     H28879   3.570   7.087   3.863 -5.3817 -0.6614  1.7242
  214MOL0     H28880   3.374   7.379   3.918 -4.9114  1.2786  2.1130
  214MOL0     H28881   3.409   7.232   3.810 -0.9154 -1.6622  0.1821
  214MOL0     H28882   3.175   7.336   3.787  2.6024 -0.8707 -1.2446
  214MOL0     H28883   3.142   7.297   3.954  2.1642  3.8245  0.8803
  214MOL0     H28884   3.182   7.054   3.900  2.1743  0.6931  0.3881
  214MOL0     H28885   3.223   7.104   3.743 -2.5534 -0.9621 -1.2744
  214MOL0     H28886   2.975   7.212   3.782  3.3110  0.0252 -1.4911
  214MOL0     H28887   2.961   7.083   3.895 -0.8449  2.9700  0.3784
  214MOL0     H28888   2.848   6.937   3.498  2.5825 -0.7275 -2.3105
  214MOL0     H28889   3.449   7.209   4.256  0.2408  0.6499  0.3788
  214MOL0     H28890   3.650   7.111   4.344  1.4966 -0.2366  0.0485
  215MOL0     O28891   7.175   5.166   3.453  0.1499  0.8560 -0.1196
  215MOL0     C28892   7.144   5.124   3.568 -0.2375 -0.5478  0.9089
  215MOL0     O28893   7.069   5.021   3.600  0.2764  1.8437 -0.3260
  215MOL0     C28894   6.987   4.969   3.500 -0.1939  0.2265  0.5984
  215MOL0     C28895   6.860   5.006   3.495  0.3923  0.2500 -0.5342
  215MOL0     C28896   6.772   4.940   3.405  0.6336 -0.7403 -1.0305
  215MOL0     C28897   6.815   4.840   3.317 -0.7908  0.9999 -0.1734
  215MOL0     O28898   6.732   4.773   3.230  0.4695 -0.4807 -0.2826
  215MOL0     C28899   6.603   4.740   3.270  0.1060 -0.4866 -1.0958
  215MOL0     C28900   6.608   4.668   3.408 -0.3202 -1.0209  0.8738
  215MOL0     C28901   6.705   4.538   3.394  0.3704 -0.3707  0.4977
  215MOL0     C28902   6.838   4.556   3.467  0.6334 -0.7251 -0.1507
  215MOL0     C28903   6.879   4.416   3.533  0.6826  0.0943  0.7594
  215MOL0     C28904   6.906   4.302   3.436  0.6338 -0.3916 -0.9102
  215MOL0     C28905   6.876   4.163   3.498 -0.2655 -0.4341  0.1873
  215MOL0     C28906   6.974   4.114   3.608  0.6822  0.2470 -0.2907
  215MOL0     N28907   7.107   4.101   3.560  0.0563  0.5961  0.6094
  215MOL0     C28908   7.156   3.976   3.519 -0.0640 -0.7123  0.0314
  215MOL0     C28909   7.287   4.004   3.506  0.2075  0.1597  0.4112
  215MOL0     C28910   7.386   3.922   3.443  0.4108 -1.2954  0.3357
  215MOL0     C28911   7.383   3.955   3.294 -0.0369  0.5443 -0.8439
  215MOL0     C28912   7.382   4.102   3.251 -0.1746 -0.1802  1.0751
  215MOL0     C28913   7.507   4.182   3.293 -0.0430 -0.0677  1.1123
  215MOL0     O28914   7.497   4.290   3.200 -0.2591 -0.0814 -0.8708
  215MOL0     C28915   7.590   4.383   3.180  0.2841 -0.7522 -0.4952
  215MOL0     C28916   7.570   4.453   3.061  0.0197 -0.3254  0.1403
  215MOL0     C28917   7.670   4.539   3.008 -0.0040 -0.8150 -0.1718
  215MOL0     C28918   7.640   4.598   2.870 -1.1243 -0.3317 -0.1009
  215MOL0     C28919   7.778   4.583   3.092  0.3700 -0.9753  0.2221
  215MOL0     C28920   7.880   4.690   3.060  0.9190 -0.0614  0.0306
  215MOL0     O28921   7.942   4.749   3.171 -0.7699  0.5396 -0.8113
  215MOL0     C28922   8.048   4.832   3.149  0.0256 -0.0558 -0.4679
  215MOL0     C28923   8.029   4.951   3.077 -0.6906 -0.3398  0.7223
  215MOL0     C28924   8.136   5.052   3.053  0.0333  0.6357  0.9852
  215MOL0     C28925   8.260   5.021   3.090 -0.4686 -0.0502  0.5132
  215MOL0     O28926   8.363   5.110   3.051  0.1045 -0.0786  0.6671
  215MOL0     C28927   8.490   5.051   3.017 -0.2206 -0.1759 -0.1207
  215MOL0     C28928   8.617   5.135   3.023  0.5822 -0.2923 -0.0927
  215MOL0     C28929   8.611   5.276   2.954  0.2253  0.5774 -0.1972
  215MOL0     C28930   8.673   5.294   2.816  0.7313  0.0156  0.7609
  215MOL0     C28931   8.669   5.431   2.764 -0.5622 -0.2319  0.1186
  215MOL0     C28932   8.701   5.447   2.615  1.1852 -0.7296  1.3555
  215MOL0     C28933   8.652   5.579   2.565  0.0949  0.0412 -0.3028
  215MOL0     C28934   8.666   5.593   2.414 -0.4179  0.0632 -0.9760
  215MOL0    Cl28935   8.513   5.548   2.326 -0.4004 -0.1908  0.0273
  215MOL0     C28936   8.286   4.895   3.161  0.0504  0.0387  0.2212
  215MOL0     C28937   8.175   4.812   3.197 -0.5175  0.5082 -0.2941
  215MOL0     O28938   7.907   4.706   2.940  0.2489 -0.1604  0.5778
  215MOL0     C28939   7.780   4.527   3.221 -0.0665 -0.0759 -0.7994
  215MOL0     C28940   7.695   4.414   3.265  0.4468  1.1191  0.5145
  215MOL0     N28941   7.320   4.127   3.570 -0.2268 -0.0911  0.6103
  215MOL0     N28942   7.206   4.184   3.590 -0.1952 -0.1842  0.4882
  215MOL0     C28943   6.953   4.805   3.320 -0.3295 -0.5990 -0.0783
  215MOL0     C28944   7.041   4.864   3.420  0.0780 -0.3567  0.5650
  215MOL0     C28945   7.196   5.203   3.689 -0.5415  0.1407  0.8060
  215MOL0     C28946   7.131   5.204   3.812 -0.2616  1.0395  1.2117
  215MOL0     C28947   7.175   5.282   3.922 -0.7978 -0.3582 -0.1868
  215MOL0     C28948   7.284   5.358   3.910 -0.1427 -0.3729 -0.2006
  215MOL0     O28949   7.317   5.438   4.024  0.6959 -0.3154  0.1618
  215MOL0     C28950   7.458   5.455   4.051  0.3248  0.2469 -0.4080
  215MOL0     C28951   7.483   5.458   4.208 -0.3453 -0.4476  0.2729
  215MOL0     C28952   7.410   5.580   4.280 -0.1184  0.8514 -0.3507
  215MOL0     C28953   7.449   5.595   4.433 -0.1441 -1.4233 -0.6524
  215MOL0     C28954   7.387   5.499   4.534  1.3900  0.7541 -0.0411
  215MOL0     C28955   7.319   5.409   4.592 -0.1991 -0.8378  0.8565
  215MOL0     C28956   7.357   5.354   3.788  0.5369  0.0734  0.2269
  215MOL0     C28957   7.310   5.279   3.680 -0.5858  0.1966  0.2760
  215MOL0     H28958   6.816   5.081   3.560 -2.1734 -2.7841  1.5492
  215MOL0     H28959   6.667   4.968   3.413  0.4143 -1.2296 -1.9917
  215MOL0     H28960   6.535   4.826   3.267 -0.7352 -1.1554 -3.6002
  215MOL0     H28961   6.559   4.676   3.193 -2.7514 -1.0284  0.8094
  215MOL0     H28962   6.648   4.722   3.494  0.1553 -0.7486  0.4827
  215MOL0     H28963   6.509   4.629   3.435 -0.1346 -1.6563  0.6709
  215MOL0     H28964   6.654   4.460   3.452  3.4957  0.6721  5.2420
  215MOL0     H28965   6.720   4.514   3.289 -1.4899  1.5331 -0.2730
  215MOL0     H28966   6.916   4.569   3.391  0.8620 -2.1914 -0.2035
  215MOL0     H28967   6.830   4.641   3.536 -2.5852 -0.7091 -0.4114
  215MOL0     H28968   6.970   4.418   3.594  0.1405 -0.9618  1.6182
  215MOL0     H28969   6.799   4.391   3.603 -2.1617  0.4418 -2.1310
  215MOL0     H28970   6.852   4.317   3.342  2.3577 -1.4504 -2.1540
  215MOL0     H28971   7.015   4.294   3.423  0.9383  0.4494  0.8347
  215MOL0     H28972   6.775   4.167   3.539  0.3890 -0.6025  1.8843
  215MOL0     H28973   6.886   4.085   3.422  0.5428 -2.2063  2.0372
  215MOL0     H28974   6.935   4.024   3.656 -2.0423  0.7541 -1.3857
  215MOL0     H28975   6.980   4.186   3.690 -0.3237 -0.2802  0.2647
  215MOL0     H28976   7.107   3.883   3.490 -3.2675  1.3788 -1.8718
  215MOL0     H28977   7.482   3.945   3.491  0.9127 -1.6016 -0.4984
  215MOL0     H28978   7.366   3.815   3.450 -0.8685 -1.0170  1.1422
  215MOL0     H28979   7.298   3.894   3.263 -0.1467  0.6162 -0.6839
  215MOL0     H28980   7.471   3.902   3.257 -0.6552 -0.3716 -1.0282
  215MOL0     H28981   7.295   4.153   3.292 -0.0190  1.3709 -0.4085
  215MOL0     H28982   7.373   4.089   3.143 -3.5074 -1.3378  1.3788
  215MOL0     H28983   7.596   4.121   3.275  0.4760  1.5581 -2.6426
  215MOL0     H28984   7.507   4.207   3.400 -0.2767  1.3136  0.8102
  215MOL0     H28985   7.474   4.436   3.012 -0.6264  1.9217  0.5396
  215MOL0     H28986   7.557   4.543   2.824 -1.7944 -2.1448  2.9388
  215MOL0     H28987   7.592   4.692   2.898  2.3827  0.8178  2.8348
  215MOL0     H28988   7.731   4.618   2.814  2.6732  0.1661  5.3853
  215MOL0     H28989   7.928   4.983   3.056 -0.9603 -1.6934 -0.1155
  215MOL0     H28990   8.116   5.149   3.008 -1.2871  1.9393  4.0925
  215MOL0     H28991   8.513   4.958   3.070  0.5268 -0.1544 -0.3881
  215MOL0     H28992   8.473   5.018   2.914  1.5775 -0.2797 -0.4161
  215MOL0     H28993   8.646   5.149   3.128  3.4208 -0.4827 -0.7596
  215MOL0     H28994   8.706   5.084   2.984  1.0007  2.5153 -3.2064
  215MOL0     H28995   8.675   5.342   3.013  0.5830 -1.3219  1.6394
  215MOL0     H28996   8.505   5.304   2.951  0.2242  0.5960  0.0153
  215MOL0     H28997   8.773   5.249   2.810  1.8155  1.9944  2.7925
  215MOL0     H28998   8.610   5.237   2.747 -0.3850  0.9835  0.9618
  215MOL0     H28999   8.731   5.497   2.825  0.9471 -0.7744 -0.7524
  215MOL0     H29000   8.567   5.468   2.780 -0.7929  0.3900 -2.3027
  215MOL0     H29001   8.804   5.430   2.583  0.5071 -1.2259 -0.7772
  215MOL0     H29002   8.641   5.376   2.557 -0.0906  1.3115  0.0258
  215MOL0     H29003   8.721   5.646   2.616 -0.9916  0.8354  0.1542
  215MOL0     H29004   8.547   5.598   2.591  0.3556 -0.3859  1.1791
  215MOL0     H29005   8.745   5.527   2.376 -1.8967 -1.0501 -2.2552
  215MOL0     H29006   8.689   5.698   2.395  3.2116 -0.5682 -0.8488
  215MOL0     H29007   8.383   4.869   3.202 -0.9672 -3.7971  0.6502
  215MOL0     H29008   8.190   4.721   3.254  1.3136  0.6287 -0.5256
  215MOL0     H29009   7.844   4.574   3.295  3.4327 -0.6498 -3.1972
  215MOL0     H29010   7.679   4.380   3.367 -3.0034  3.0174  0.7821
  215MOL0     H29011   6.990   4.733   3.248 -2.7612 -0.0968 -1.9269
  215MOL0     H29012   7.138   4.819   3.438 -0.4266 -0.6146  2.9750
  215MOL0     H29013   7.042   5.145   3.832  0.9251 -0.6630  1.6697
  215MOL0     H29014   7.123   5.277   4.017 -3.5270  1.6892 -1.4361
  215MOL0     H29015   7.515   5.378   3.998  0.8351  2.0597 -2.6659
  215MOL0     H29016   7.506   5.544   4.011  2.1321  0.5732  2.1863
  215MOL0     H29017   7.591   5.468   4.222 -0.4111 -0.2496  0.6314
  215MOL0     H29018   7.463   5.359   4.251  5.5006 -2.4180 -0.6679
  215MOL0     H29019   7.302   5.566   4.275  0.2839 -3.9970 -0.8300
  215MOL0     H29020   7.422   5.676   4.229  0.5512  1.1315  0.3149
  215MOL0     H29021   7.416   5.697   4.452 -0.7550 -2.1910  3.5367
  215MOL0     H29022   7.556   5.600   4.453 -0.1571  5.0384 -0.2923
  215MOL0     H29023   7.259   5.333   4.638 -0.8127  0.8361  2.9570
  215MOL0     H29024   7.452   5.404   3.771  2.1487 -2.7773  0.0340
  215MOL0     H29025   7.365   5.268   3.587 -1.2842  0.5095 -0.1716
  216MOL0     O29026   7.000   3.176   2.883 -0.0263 -0.0707  0.2853
  216MOL0     C29027   6.999   3.256   2.975 -0.3101 -0.4482 -0.3289
  216MOL0     O29028   6.907   3.343   2.998  0.2955 -0.1378  0.0154
  216MOL0     C29029   6.812   3.382   2.902 -0.1270  0.3156  0.3141
  216MOL0     C29030   6.844   3.490   2.820 -0.3623  0.6453 -1.1216
  216MOL0     C29031   6.766   3.526   2.711 -1.1320 -0.0844  0.2923
  216MOL0     C29032   6.647   3.455   2.676 -0.7933 -0.1906  1.1355
  216MOL0     O29033   6.556   3.495   2.578  0.5830 -0.0811  0.8951
  216MOL0     C29034   6.580   3.609   2.485 -0.2766 -0.7246  0.0667
  216MOL0     C29035   6.451   3.649   2.413 -0.4816  0.2026 -0.5214
  216MOL0     C29036   6.459   3.789   2.345 -0.4216  1.2422 -0.1066
  216MOL0     C29037   6.463   3.914   2.437 -0.4629  0.3599 -0.1201
  216MOL0     C29038   6.321   3.947   2.497 -0.2733 -0.3647  0.8069
  216MOL0     C29039   6.243   4.039   2.399 -0.7395 -0.8475 -0.5583
  216MOL0     C29040   6.102   4.066   2.452  0.8015 -0.5026 -0.3936
  216MOL0     C29041   5.999   3.953   2.455 -0.2756  0.4211 -0.0604
  216MOL0     N29042   6.047   3.846   2.367 -0.3229 -0.4557 -0.4575
  216MOL0     C29043   6.030   3.715   2.394  0.6500  0.6859 -0.4075
  216MOL0     C29044   6.053   3.648   2.279  0.4044  0.3019 -0.5614
  216MOL0     C29045   6.045   3.493   2.271  0.9613 -0.2167 -0.8481
  216MOL0     C29046   6.171   3.429   2.219  0.5493 -0.5625  0.1230
  216MOL0     C29047   6.198   3.433   2.057 -0.4826 -0.1591 -0.0702
  216MOL0     C29048   6.348   3.407   2.014 -0.4948  0.6887  0.1083
  216MOL0     O29049   6.441   3.499   2.073  0.5537  1.2259  0.3531
  216MOL0     C29050   6.526   3.568   1.987 -0.1180  0.0439  0.6953
  216MOL0     C29051   6.482   3.669   1.901  0.7150  0.8851 -0.8265
  216MOL0     C29052   6.566   3.745   1.820  0.1882 -0.0530 -0.2005
  216MOL0     C29053   6.504   3.843   1.718  0.4111 -0.8297  0.0702
  216MOL0     C29054   6.706   3.733   1.828  1.0736  0.1683  0.0571
  216MOL0     C29055   6.807   3.833   1.763  0.0320 -0.1932  0.3198
  216MOL0     O29056   6.938   3.804   1.799 -0.8239 -0.4119 -0.0009
  216MOL0     C29057   7.025   3.911   1.810  0.0838 -0.3790  0.0653
  216MOL0     C29058   7.076   3.958   1.687  0.1549  0.2401  0.2553
  216MOL0     C29059   7.163   4.066   1.685 -0.3498 -0.2452 -0.0658
  216MOL0     C29060   7.195   4.131   1.808  0.1140  0.5321  0.4687
  216MOL0     O29061   7.297   4.227   1.808 -0.1313  1.2568 -0.0907
  216MOL0     C29062   7.314   4.310   1.916  0.0728  0.2909 -0.8042
  216MOL0     C29063   7.388   4.427   1.874  0.0529  0.0800  0.5175
  216MOL0     C29064   7.436   4.525   1.983  0.5491 -0.0077 -1.2398
  216MOL0     C29065   7.477   4.661   1.922 -0.1429 -0.2908 -0.9490
  216MOL0     C29066   7.490   4.783   2.013 -1.2050 -0.5398 -0.9089
  216MOL0     C29067   7.380   4.797   2.120  0.5615 -0.7051  0.3212
  216MOL0     C29068   7.241   4.814   2.070  0.4458  0.1316  0.1818
  216MOL0     C29069   7.145   4.852   2.194  0.3368 -0.3302  0.6765
  216MOL0    Cl29070   7.075   4.700   2.260  0.2598 -0.0872  0.0798
  216MOL0     C29071   7.156   4.080   1.934 -0.8007  0.3714  0.2494
  216MOL0     C29072   7.061   3.971   1.930  1.0990 -0.2247 -0.7456
  216MOL0     O29073   6.772   3.922   1.690 -0.2361 -0.1129  0.0666
  216MOL0     C29074   6.751   3.636   1.925  0.2372 -0.6528 -0.4574
  216MOL0     C29075   6.668   3.551   2.005 -0.2392 -0.9867 -0.9930
  216MOL0     N29076   6.084   3.730   2.181 -0.1119 -0.5108  1.3065
  216MOL0     N29077   6.090   3.846   2.232 -0.0939  0.2438 -0.4299
  216MOL0     C29078   6.620   3.344   2.750  1.0306 -0.0249  0.2752
  216MOL0     C29079   6.698   3.303   2.862 -0.8995 -0.3567  0.2956
  216MOL0     C29080   7.094   3.233   3.083 -1.2889  0.3298  1.0799
  216MOL0     C29081   7.226   3.181   3.056  0.3874 -0.0850  0.2119
  216MOL0     C29082   7.323   3.186   3.157  0.3331 -0.7499  0.2210
  216MOL0     C29083   7.294   3.218   3.287  0.5053 -0.2281 -0.5417
  216MOL0     O29084   7.368   3.209   3.407  0.2632 -0.0148 -0.1595
  216MOL0     C29085   7.496   3.141   3.398  0.6332 -0.2496  0.4072
  216MOL0     C29086   7.527   3.129   3.545 -0.0091 -0.8686 -0.6827
  216MOL0     C29087   7.676   3.125   3.560  0.1676 -0.1253 -0.0046
  216MOL0     C29088   7.720   3.184   3.699  0.3293 -0.5261 -0.9841
  216MOL0     C29089   7.865   3.194   3.697 -0.3298  0.8982  0.2427
  216MOL0     C29090   7.984   3.196   3.700 -0.0406 -0.8045  0.0170
  216MOL0     C29091   7.163   3.258   3.316  1.2885  0.0015 -0.0826
  216MOL0     C29092   7.063   3.273   3.211  0.1192  0.8956  0.2191
  216MOL0     H29093   6.941   3.539   2.825 -1.1373  2.1156  0.5389
  216MOL0     H29094   6.795   3.613   2.654  0.2672  0.4741  1.8102
  216MOL0     H29095   6.631   3.690   2.538  0.1326  1.4324 -3.3190
  216MOL0     H29096   6.658   3.580   2.414 -0.9555 -0.9440 -0.5997
  216MOL0     H29097   6.419   3.572   2.343  0.7435 -0.4877 -0.3559
  216MOL0     H29098   6.378   3.664   2.493 -0.6991  1.8732 -0.9868
  216MOL0     H29099   6.550   3.779   2.287 -1.2877 -1.0418 -1.1800
  216MOL0     H29100   6.382   3.784   2.267 -0.0092 -0.0667 -0.4517
  216MOL0     H29101   6.521   3.889   2.527  0.4369  3.3366  0.2541
  216MOL0     H29102   6.508   4.004   2.394 -1.5673 -0.0718 -2.3379
  216MOL0     H29103   6.265   3.854   2.513  1.2008 -1.6974 -1.3124
  216MOL0     H29104   6.343   3.998   2.591  2.3588  1.2235 -0.5422
  216MOL0     H29105   6.303   4.131   2.390 -1.7688 -0.2383 -1.3613
  216MOL0     H29106   6.253   3.992   2.300 -1.3547 -0.3520 -0.8612
  216MOL0     H29107   6.116   4.096   2.556 -0.9791 -2.7560  0.5684
  216MOL0     H29108   6.060   4.146   2.390  0.1962 -1.6515 -1.5243
  216MOL0     H29109   5.898   3.985   2.431 -0.2566  2.2046  1.9742
  216MOL0     H29110   6.006   3.899   2.550  1.9149 -1.8431 -1.3670
  216MOL0     H29111   6.027   3.663   2.490 -0.8527  1.4493 -0.0045
  216MOL0     H29112   6.042   3.458   2.374 -0.7454  5.1821  1.2705
  216MOL0     H29113   5.965   3.455   2.206  2.3843  0.0202 -2.8328
  216MOL0     H29114   6.164   3.323   2.246  1.6739 -1.1581 -1.6834
  216MOL0     H29115   6.260   3.475   2.263  1.9298 -0.4364 -2.5745
  216MOL0     H29116   6.177   3.534   2.020 -0.0014 -0.0903 -0.1628
  216MOL0     H29117   6.140   3.369   1.990  0.7563 -0.8575 -0.4932
  216MOL0     H29118   6.341   3.407   1.905 -1.6130 -1.4466  0.1378
  216MOL0     H29119   6.380   3.308   2.046 -4.5417 -0.6264  0.6263
  216MOL0     H29120   6.374   3.667   1.897  0.5756 -1.6829  1.4505
  216MOL0     H29121   6.404   3.798   1.715  1.5894 -3.5326 -1.9005
  216MOL0     H29122   6.511   3.951   1.736  2.5662 -0.9776  0.3624
  216MOL0     H29123   6.547   3.816   1.622  0.5852 -1.2409  0.2636
  216MOL0     H29124   7.059   3.907   1.592  3.0756 -0.2563 -0.1102
  216MOL0     H29125   7.207   4.096   1.591  2.1412 -0.2195  1.0401
  216MOL0     H29126   7.220   4.347   1.959 -0.2929  1.4122 -2.4560
  216MOL0     H29127   7.378   4.257   1.987  0.1535 -3.9351 -3.6419
  216MOL0     H29128   7.468   4.395   1.807  1.5666 -0.3052  2.4260
  216MOL0     H29129   7.318   4.490   1.817  0.7664  0.7849  0.3987
  216MOL0     H29130   7.520   4.476   2.034 -0.5182 -0.2692  0.3376
  216MOL0     H29131   7.359   4.538   2.060 -1.0810 -4.7784 -1.7218
  216MOL0     H29132   7.580   4.656   1.885  0.4190  0.2248  0.4939
  216MOL0     H29133   7.402   4.693   1.849 -0.8063  3.1485  1.0323
  216MOL0     H29134   7.505   4.880   1.966  2.2253  0.3994  1.7221
  216MOL0     H29135   7.576   4.766   2.078  0.8418 -0.3329 -3.4343
  216MOL0     H29136   7.379   4.712   2.190 -2.6162  0.1883  1.5410
  216MOL0     H29137   7.406   4.876   2.191 -0.3060 -1.0006  0.9900
  216MOL0     H29138   7.221   4.720   2.019 -3.5811  1.8377 -1.8709
  216MOL0     H29139   7.240   4.899   2.001 -0.5679  0.1458  0.1866
  216MOL0     H29140   7.069   4.924   2.164  0.2353 -0.8811 -0.4248
  216MOL0     H29141   7.178   4.905   2.284  0.0383  0.2422  0.4520
  216MOL0     H29142   7.216   4.100   2.022  2.0628  0.7935 -1.6763
  216MOL0     H29143   7.022   3.931   2.024 -1.8689  4.3514  0.3697
  216MOL0     H29144   6.855   3.628   1.954  0.2139  0.4881  0.0375
  216MOL0     H29145   6.720   3.474   2.060  1.5222  0.4760 -0.5286
  216MOL0     H29146   6.520   3.304   2.738 -1.3015  3.9278  3.7094
  216MOL0     H29147   6.656   3.215   2.910  0.1536 -1.6709 -1.0877
  216MOL0     H29148   7.250   3.155   2.953  3.4440 -0.5076  0.9333
  216MOL0     H29149   7.426   3.170   3.126  1.0248 -2.4316  3.0532
  216MOL0     H29150   7.493   3.041   3.355 -0.5134  0.1728 -0.5208
  216MOL0     H29151   7.568   3.202   3.343  0.7740  1.9016  2.7536
  216MOL0     H29152   7.489   3.033   3.583 -1.4431  0.0572  0.3042
  216MOL0     H29153   7.483   3.215   3.596 -0.1169  0.7638 -3.3496
  216MOL0     H29154   7.724   3.177   3.476  0.8425  1.0353  1.0682
  216MOL0     H29155   7.706   3.020   3.562 -0.0273 -0.1876 -0.2404
  216MOL0     H29156   7.687   3.126   3.785  0.5816 -1.6726 -1.6445
  216MOL0     H29157   7.674   3.283   3.709 -0.4062 -1.0733  1.6157
  216MOL0     H29158   8.090   3.209   3.692 -0.1262 -0.8396 -1.5880
  216MOL0     H29159   7.125   3.272   3.417  2.8158  1.7073  0.3231
  216MOL0     H29160   6.967   3.319   3.229  0.5650  1.4509  1.2360
  217MOL0     O29161   3.153   8.384   0.428  0.1313 -0.2142  0.1099
  217MOL0     C29162   3.084   8.382   0.324  0.2849 -0.0666  0.4150
  217MOL0     O29163   2.948   8.383   0.313 -0.0634  0.4231 -0.1482
  217MOL0     C29164   2.878   8.352   0.428 -0.2323  0.0558 -1.0470
  217MOL0     C29165   2.826   8.458   0.511  0.2461  0.3517  0.0857
  217MOL0     C29166   2.748   8.429   0.624 -0.2966 -1.0873  0.8582
  217MOL0     C29167   2.727   8.293   0.659 -0.2861 -0.4024  1.0921
  217MOL0     O29168   2.667   8.250   0.771 -0.9930  0.7006 -0.3099
  217MOL0     C29169   2.570   8.336   0.829 -0.5853 -0.9719  0.1050
  217MOL0     C29170   2.473   8.265   0.918 -0.3170 -0.5001 -0.1409
  217MOL0     C29171   2.361   8.198   0.844  0.2002  0.5669  0.5985
  217MOL0     C29172   2.268   8.127   0.942  0.0934 -0.0452  0.1958
  217MOL0     C29173   2.143   8.070   0.884 -0.6976 -0.0344  0.4415
  217MOL0     C29174   2.050   8.173   0.818  0.3008 -0.3041  0.7581
  217MOL0     C29175   1.931   8.103   0.752 -0.1046  0.0531  0.4726
  217MOL0     C29176   1.813   8.204   0.718  0.2941 -0.0171 -1.5989
  217MOL0     N29177   1.697   8.167   0.624 -0.4897 -0.5349 -0.6098
  217MOL0     C29178   1.717   8.080   0.512  0.0911 -0.3006  1.0288
  217MOL0     C29179   1.588   8.055   0.481 -0.3695 -0.3527  0.3787
  217MOL0     C29180   1.544   7.974   0.358 -0.0679 -0.0071 -0.0353
  217MOL0     C29181   1.450   8.041   0.253  0.0832 -0.0855 -0.0046
  217MOL0     C29182   1.302   8.045   0.307 -0.1359 -0.8403 -0.4125
  217MOL0     C29183   1.224   8.134   0.215 -0.0186 -0.9438 -0.2003
  217MOL0     O29184   1.190   8.073   0.091  0.0382  0.0431  0.3838
  217MOL0     C29185   1.119   8.156   0.003 -0.7962 -0.6307 -0.1384
  217MOL0     C29186   1.073   8.087  -0.109  0.1986 -0.4880  0.5414
  217MOL0     C29187   0.994   8.158  -0.201 -0.9102 -0.2735 -0.0665
  217MOL0     C29188   0.943   8.077  -0.324 -0.6160  0.0372  0.1339
  217MOL0     C29189   0.975   8.300  -0.187 -0.1271  0.4730  0.7569
  217MOL0     C29190   0.910   8.388  -0.295  1.3711  0.3984 -1.4694
  217MOL0     O29191   0.857   8.505  -0.249 -0.1586  0.1964  0.0573
  217MOL0     C29192   0.768   8.578  -0.330 -0.3968  0.5070 -0.6724
  217MOL0     C29193   0.776   8.714  -0.319  0.1852  0.2179  0.2911
  217MOL0     C29194   0.699   8.803  -0.393  0.5183  0.0316  0.2667
  217MOL0     C29195   0.622   8.753  -0.501 -0.2050  0.5786  0.5680
  217MOL0     O29196   0.547   8.835  -0.590  0.1937 -1.0687 -0.0385
  217MOL0     C29197   0.571   8.975  -0.577 -0.0084 -0.1558  0.4657
  217MOL0     C29198   0.504   9.036  -0.696  0.1630 -0.1254 -0.3293
  217MOL0     C29199   0.354   9.050  -0.677 -1.2254  0.7118 -0.6403
  217MOL0     C29200   0.286   9.135  -0.787 -0.1137 -0.5084 -0.8937
  217MOL0     C29201   0.154   9.074  -0.843 -0.0051  0.0519 -0.1505
  217MOL0     C29202   0.055   9.064  -0.728  0.2827  0.1468  0.3939
  217MOL0     C29203  -0.067   9.155  -0.750 -0.4385  0.2165  0.0152
  217MOL0     C29204  -0.032   9.307  -0.752 -0.3108  0.5680 -0.0729
  217MOL0    Cl29205   0.012   9.354  -0.588 -0.5880  0.0901 -0.2096
  217MOL0     C29206   0.607   8.620  -0.518  0.0032  0.6061  0.5560
  217MOL0     C29207   0.678   8.531  -0.434  0.0464 -0.1173 -0.1488
  217MOL0     O29208   0.912   8.341  -0.412  0.6953 -1.3796 -0.7931
  217MOL0     C29209   1.038   8.361  -0.081  0.6194 -1.6006 -0.7556
  217MOL0     C29210   1.096   8.294   0.017  0.2705  0.1801 -0.1554
  217MOL0     N29211   1.503   8.118   0.566 -0.2238  0.5264  0.0117
  217MOL0     N29212   1.566   8.181   0.656 -0.2416 -0.2281 -0.4567
  217MOL0     C29213   2.779   8.190   0.573  0.4437 -0.3938 -0.6444
  217MOL0     C29214   2.853   8.219   0.458  0.1714  0.4134 -0.4043
  217MOL0     C29215   3.162   8.415   0.186  0.3185  0.4307  0.1247
  217MOL0     C29216   3.302   8.417   0.176  0.4586 -0.8407 -0.2965
  217MOL0     C29217   3.357   8.439   0.055 -0.1283  1.2739 -0.0783
  217MOL0     C29218   3.286   8.469  -0.065 -0.3129  0.1422  0.4531
  217MOL0     O29219   3.363   8.485  -0.175 -0.1592 -0.7613  0.8090
  217MOL0     C29220   3.295   8.494  -0.310 -0.0018  0.2851 -0.7586
  217MOL0     C29221   3.391   8.534  -0.431 -1.1772  0.7406  0.5437
  217MOL0     C29222   3.491   8.423  -0.472 -0.2293 -0.0843 -0.1650
  217MOL0     C29223   3.600   8.482  -0.564  0.4350  0.1640  0.3961
  217MOL0     C29224   3.719   8.395  -0.591  0.7006 -0.4352 -0.4038
  217MOL0     C29225   3.816   8.326  -0.606 -0.9385 -0.8590  0.7096
  217MOL0     C29226   3.144   8.462  -0.055 -0.7617 -0.3600  0.0632
  217MOL0     C29227   3.084   8.439   0.066  0.0277  1.6754 -0.0663
  217MOL0     H29228   2.863   8.555   0.480 -2.3518  1.3386 -0.1233
  217MOL0     H29229   2.721   8.515   0.683  0.5048  2.1585 -3.0273
  217MOL0     H29230   2.612   8.422   0.884 -0.3450 -0.3110 -1.0749
  217MOL0     H29231   2.512   8.389   0.753  1.8752  3.4501  0.9557
  217MOL0     H29232   2.529   8.192   0.978 -2.0930 -0.5847  1.5278
  217MOL0     H29233   2.431   8.347   0.977 -1.5231  0.3082 -2.0447
  217MOL0     H29234   2.307   8.272   0.784 -1.4139 -2.8412 -2.5770
  217MOL0     H29235   2.407   8.124   0.777  0.8059 -1.6067  3.2311
  217MOL0     H29236   2.334   8.056   0.992 -0.3088 -1.3829 -1.1221
  217MOL0     H29237   2.241   8.202   1.018 -1.1066  0.3737 -0.6058
  217MOL0     H29238   2.171   7.992   0.813 -2.0866 -0.1131 -0.0573
  217MOL0     H29239   2.086   8.025   0.967 -3.8687 -1.0563 -2.0513
  217MOL0     H29240   2.037   8.263   0.878 -1.0151  0.4555 -0.5982
  217MOL0     H29241   2.102   8.223   0.736  0.9594 -1.5085  0.4062
  217MOL0     H29242   1.962   8.063   0.655 -0.7350  2.8043 -0.9884
  217MOL0     H29243   1.906   8.013   0.809  1.1375 -2.4770 -2.6131
  217MOL0     H29244   1.848   8.297   0.673 -1.1959  0.2733 -2.2243
  217MOL0     H29245   1.773   8.229   0.817 -2.8356 -0.7477 -2.5615
  217MOL0     H29246   1.798   8.038   0.454 -1.1022 -1.5149  0.1776
  217MOL0     H29247   1.633   7.949   0.300  1.1278  2.0362  0.8296
  217MOL0     H29248   1.495   7.881   0.387 -0.2363  0.5689  1.5905
  217MOL0     H29249   1.447   7.993   0.154  0.2524  0.3072 -0.1991
  217MOL0     H29250   1.473   8.145   0.232  0.1413 -0.3642 -1.4140
  217MOL0     H29251   1.303   8.087   0.408  0.2827 -1.8429  0.0167
  217MOL0     H29252   1.249   7.952   0.328 -1.2085  0.3413  2.7494
  217MOL0     H29253   1.274   8.232   0.210  1.0947 -1.4254  0.7510
  217MOL0     H29254   1.131   8.148   0.271  0.0853  0.9113 -0.3986
  217MOL0     H29255   1.079   7.979  -0.116 -3.6661 -0.7960 -0.5978
  217MOL0     H29256   0.933   7.970  -0.301 -1.5411  0.0194 -0.2993
  217MOL0     H29257   0.843   8.111  -0.350 -1.6826  0.3235  4.0283
  217MOL0     H29258   1.010   8.089  -0.410  1.3448 -1.3435  1.3720
  217MOL0     H29259   0.837   8.763  -0.243  1.0137 -1.0028  0.4398
  217MOL0     H29260   0.723   8.908  -0.378 -0.5289  0.7309 -2.4328
  217MOL0     H29261   0.530   9.017  -0.484 -0.6906  3.3190 -1.2617
  217MOL0     H29262   0.676   8.997  -0.554 -0.7787  2.0289  2.2392
  217MOL0     H29263   0.545   9.137  -0.706 -0.4820  0.1566 -0.2037
  217MOL0     H29264   0.526   8.992  -0.794 -1.9825 -0.6313 -0.6474
  217MOL0     H29265   0.325   9.090  -0.580 -2.8628  1.7382 -1.5044
  217MOL0     H29266   0.315   8.947  -0.677 -2.8238  1.2785 -0.4066
  217MOL0     H29267   0.262   9.231  -0.740 -2.2814 -2.9265  3.4784
  217MOL0     H29268   0.364   9.155  -0.861 -0.5985  1.2635 -0.9926
  217MOL0     H29269   0.186   8.974  -0.875 -3.7510 -0.6836 -2.2340
  217MOL0     H29270   0.122   9.126  -0.934 -2.0494  1.5411  1.3062
  217MOL0     H29271   0.020   8.962  -0.716  0.0609  0.4431  2.5351
  217MOL0     H29272   0.096   9.092  -0.631  0.2350  3.5317 -0.4084
  217MOL0     H29273  -0.142   9.131  -0.675 -1.0699 -2.3877 -1.3157
  217MOL0     H29274  -0.112   9.116  -0.842 -0.9286 -0.5081  0.5529
  217MOL0     H29275  -0.117   9.368  -0.786  1.1642  1.2981 -2.7726
  217MOL0     H29276   0.040   9.345  -0.825  2.3054 -0.3005  1.9456
  217MOL0     H29277   0.543   8.588  -0.600 -2.9005 -0.0001  2.8885
  217MOL0     H29278   0.646   8.431  -0.459 -3.7040  0.6705  0.8004
  217MOL0     H29279   1.021   8.464  -0.052  3.2329 -1.9249  2.6189
  217MOL0     H29280   1.122   8.348   0.107 -0.4180  0.4342 -0.1080
  217MOL0     H29281   2.753   8.092   0.610 -0.7584 -0.5243 -1.7304
  217MOL0     H29282   2.871   8.141   0.385  2.9374  1.1216 -0.5919
  217MOL0     H29283   3.370   8.405   0.260 -0.3972 -0.6652  0.4294
  217MOL0     H29284   3.465   8.448   0.051  0.1335  0.9380  3.5775
  217MOL0     H29285   3.273   8.389  -0.328 -1.3755 -0.0608  2.3468
  217MOL0     H29286   3.203   8.553  -0.299 -2.1019 -3.0338  1.1101
  217MOL0     H29287   3.437   8.628  -0.398  0.6564 -1.1641  4.0519
  217MOL0     H29288   3.331   8.558  -0.519  0.8279 -1.4107 -1.5271
  217MOL0     H29289   3.430   8.339  -0.506 -0.3236 -0.2311  0.3630
  217MOL0     H29290   3.547   8.384  -0.386 -0.7694  0.5109  0.4755
  217MOL0     H29291   3.637   8.571  -0.514 -2.2690  2.7903 -1.8839
  217MOL0     H29292   3.555   8.512  -0.659  0.7610 -2.1642 -0.5581
  217MOL0     H29293   3.899   8.264  -0.633 -0.1160  1.1541 -1.7342
  217MOL0     H29294   3.083   8.482  -0.143 -2.3129 -0.6436  1.0323
  217MOL0     H29295   2.977   8.420   0.066 -0.0044  1.7022 -1.8535
  218MOL0     O29296  11.049   9.116   6.137 -0.8159 -0.5925 -0.2632
  218MOL0     C29297  11.059   9.196   6.045 -0.1129  0.6734  0.2725
  218MOL0     O29298  11.152   9.183   5.944  0.6724  0.1279 -0.2959
  218MOL0     C29299  11.249   9.082   5.953  0.1555  0.1877 -0.1353
  218MOL0     C29300  11.383   9.111   5.947 -0.7976 -0.0865  1.0270
  218MOL0     C29301  11.476   9.002   5.935 -1.3141 -0.3826  0.2037
  218MOL0     C29302  11.436   8.868   5.948 -1.0067  0.7220 -0.1060
  218MOL0     O29303  11.530   8.762   5.927  0.0508  0.1711  0.1660
  218MOL0     C29304  11.664   8.766   5.987  0.6373 -0.5558 -0.0554
  218MOL0     C29305  11.784   8.770   5.875  0.6929  0.9859 -1.4074
  218MOL0     C29306  11.793   8.636   5.802  0.2488  0.0321 -0.4606
  218MOL0     C29307  11.929   8.624   5.734  0.4444  0.6220  0.2465
  218MOL0     C29308  11.935   8.498   5.650  0.5200  0.1490  1.1345
  218MOL0     C29309  12.079   8.467   5.593 -0.5663  0.7042 -0.0452
  218MOL0     C29310  12.103   8.567   5.476  0.1452  0.0907  0.2539
  218MOL0     C29311  12.237   8.545   5.411  0.2051  0.2685  0.6364
  218MOL0     N29312  12.258   8.419   5.339 -0.3491  0.1208  0.9880
  218MOL0     C29313  12.222   8.386   5.207 -0.2993 -0.4056  0.3222
  218MOL0     C29314  12.258   8.252   5.187 -0.2039  0.3877  0.3404
  218MOL0     C29315  12.251   8.177   5.062  0.7509  0.3231 -0.0794
  218MOL0     C29316  12.208   8.028   5.073 -0.8298 -0.2788  0.0738
  218MOL0     C29317  12.236   7.957   4.934 -0.7526  0.2348 -0.3093
  218MOL0     C29318  12.139   7.995   4.820  1.4062 -0.6308 -0.0698
  218MOL0     O29319  12.003   7.939   4.851 -0.7477 -0.1405 -0.4372
  218MOL0     C29320  11.895   7.988   4.795  0.5332 -0.7403 -0.6809
  218MOL0     C29321  11.781   7.929   4.844  0.0411 -0.7300  0.3134
  218MOL0     C29322  11.664   7.950   4.774 -0.5010 -1.0478  0.0145
  218MOL0     C29323  11.546   7.867   4.816 -0.9238  0.3991 -0.1490
  218MOL0     C29324  11.653   8.045   4.669 -1.4550  0.5693 -1.1158
  218MOL0     C29325  11.535   8.079   4.599  0.5135  1.1294  0.4003
  218MOL0     O29326  11.557   8.111   4.462  0.0549 -0.0153 -0.1847
  218MOL0     C29327  11.493   8.220   4.413 -0.0502 -0.6985 -0.1093
  218MOL0     C29328  11.461   8.220   4.282  0.8846 -1.0393  0.2754
  218MOL0     C29329  11.396   8.334   4.215 -0.2437 -0.3814 -0.5102
  218MOL0     C29330  11.362   8.439   4.296 -0.7486  0.0168 -0.2659
  218MOL0     O29331  11.313   8.553   4.250  0.3167  0.1704  0.3519
  218MOL0     C29332  11.168   8.552   4.255  0.2076  0.3969  0.2185
  218MOL0     C29333  11.125   8.688   4.312 -0.1375 -0.9495  0.4327
  218MOL0     C29334  10.974   8.691   4.339  0.6573 -0.5133 -0.2540
  218MOL0     C29335  10.890   8.825   4.360  0.1981  0.6075  0.4025
  218MOL0     C29336  10.747   8.780   4.395 -0.0230 -1.1486 -0.3099
  218MOL0     C29337  10.635   8.895   4.383  0.4818  0.4864  0.2102
  218MOL0     C29338  10.501   8.832   4.439 -0.3193 -0.5179 -0.0934
  218MOL0     C29339  10.427   8.747   4.325 -0.0873 -0.5882  1.0713
  218MOL0    Cl29340  10.362   8.863   4.190 -0.2014 -0.3744  0.0607
  218MOL0     C29341  11.382   8.428   4.437  0.8470 -0.4455  0.6506
  218MOL0     C29342  11.455   8.328   4.489 -0.1525  0.2227  0.7106
  218MOL0     O29343  11.428   8.085   4.654 -0.2088 -0.5191  0.6452
  218MOL0     C29344  11.768   8.114   4.632 -0.4999  0.7374  0.5807
  218MOL0     C29345  11.888   8.079   4.688 -1.4388  0.3887 -0.5724
  218MOL0     N29346  12.296   8.204   5.305  0.9745  0.0895 -0.2863
  218MOL0     N29347  12.288   8.296   5.394 -0.7994  0.3256 -0.7670
  218MOL0     C29348  11.300   8.841   5.964  0.8064  0.9747  0.6005
  218MOL0     C29349  11.209   8.944   5.965  1.0232 -1.2599  0.4791
  218MOL0     C29350  10.954   9.302   6.037 -1.2639  0.0363 -0.8843
  218MOL0     C29351  10.861   9.320   6.147 -1.0671  0.4238  0.8818
  218MOL0     C29352  10.776   9.424   6.133  0.7177 -0.0160 -0.3921
  218MOL0     C29353  10.769   9.505   6.015 -1.0266 -0.0906  0.2879
  218MOL0     O29354  10.669   9.598   5.999 -0.0708  0.2206 -0.7590
  218MOL0     C29355  10.546   9.533   6.011  0.8657 -1.0068  0.6275
  218MOL0     C29356  10.415   9.615   5.970 -0.5154  0.1522  0.2441
  218MOL0     C29357  10.385   9.640   5.818  0.5981 -0.2772 -0.1630
  218MOL0     C29358  10.233   9.670   5.809  0.8428 -1.0658 -0.1231
  218MOL0     C29359  10.190   9.705   5.674 -0.2154  0.0198  0.3307
  218MOL0     C29360  10.148   9.729   5.560 -0.6402 -0.6736  0.2045
  218MOL0     C29361  10.850   9.479   5.907  0.5452 -0.1436 -0.7232
  218MOL0     C29362  10.946   9.376   5.918  0.4196 -0.6322 -0.2249
  218MOL0     H29363  11.417   9.213   5.959 -3.5470  0.8363  1.7531
  218MOL0     H29364  11.580   9.017   5.909 -1.2500 -0.2394  0.5408
  218MOL0     H29365  11.681   8.855   6.048 -1.0789 -0.2669  0.0412
  218MOL0     H29366  11.659   8.675   6.048 -0.5932 -0.8125 -0.5154
  218MOL0     H29367  11.780   8.856   5.808 -0.1649 -1.9174 -5.4613
  218MOL0     H29368  11.873   8.785   5.937  0.1133 -0.8210 -0.0456
  218MOL0     H29369  11.782   8.559   5.880 -1.4141 -0.1365 -0.8257
  218MOL0     H29370  11.711   8.631   5.730 -0.8031  1.8993  0.5312
  218MOL0     H29371  11.944   8.716   5.677  1.9703  2.3626  3.2249
  218MOL0     H29372  12.007   8.626   5.810  2.3069  0.1204 -1.5604
  218MOL0     H29373  11.913   8.412   5.714  2.8840 -0.6930  0.9432
  218MOL0     H29374  11.856   8.513   5.576  0.0886  3.0552  2.1009
  218MOL0     H29375  12.163   8.476   5.663 -1.0225 -1.8189  0.8983
  218MOL0     H29376  12.089   8.363   5.561 -0.1572 -0.4346  3.3783
  218MOL0     H29377  12.021   8.559   5.405  1.0314 -0.3543 -0.7642
  218MOL0     H29378  12.107   8.671   5.508  1.0643 -0.0039  0.4880
  218MOL0     H29379  12.317   8.562   5.483  2.7823  3.1944 -2.6027
  218MOL0     H29380  12.258   8.626   5.342  1.0585  0.3485  0.9738
  218MOL0     H29381  12.177   8.453   5.135  0.1579  1.3045  1.5481
  218MOL0     H29382  12.178   8.229   4.999  1.0551 -0.2127 -0.8914
  218MOL0     H29383  12.347   8.177   5.009  0.5010  1.0790 -0.5512
  218MOL0     H29384  12.101   8.018   5.096 -1.0595 -0.7407 -1.1168
  218MOL0     H29385  12.272   7.973   5.142 -1.7197 -4.7040 -2.2416
  218MOL0     H29386  12.236   7.849   4.954 -1.1207  0.5628  1.5971
  218MOL0     H29387  12.340   7.980   4.908  0.0521  0.0825  2.4650
  218MOL0     H29388  12.169   7.964   4.719 -1.9138 -5.5045  0.1261
  218MOL0     H29389  12.143   8.104   4.810 -4.1328 -0.2438 -1.2933
  218MOL0     H29390  11.788   7.849   4.917  2.0556 -2.2142 -1.3876
  218MOL0     H29391  11.465   7.916   4.871 -2.3589 -1.4412 -0.5471
  218MOL0     H29392  11.490   7.828   4.731 -2.5289 -0.2898  1.1661
  218MOL0     H29393  11.588   7.779   4.866  0.9607  0.9257 -0.7150
  218MOL0     H29394  11.473   8.130   4.222 -0.3757 -0.1070 -1.4841
  218MOL0     H29395  11.377   8.350   4.109 -0.6051  2.6502 -0.0681
  218MOL0     H29396  11.124   8.529   4.157 -2.0144 -0.7579  1.4152
  218MOL0     H29397  11.128   8.473   4.319 -0.8939  1.3867  0.7751
  218MOL0     H29398  11.174   8.708   4.408  0.0153 -0.9700  0.3602
  218MOL0     H29399  11.144   8.775   4.249  0.1643 -2.2869 -1.4354
  218MOL0     H29400  10.954   8.632   4.429 -0.2242 -1.9684 -1.3432
  218MOL0     H29401  10.930   8.637   4.255  1.9722  0.5387 -1.6741
  218MOL0     H29402  10.931   8.879   4.445 -2.1013  1.7484  0.8805
  218MOL0     H29403  10.902   8.887   4.271  2.2097 -1.6156 -1.0043
  218MOL0     H29404  10.752   8.759   4.502  0.5682  0.1783 -0.0600
  218MOL0     H29405  10.716   8.688   4.345  0.7721 -1.4748 -0.2102
  218MOL0     H29406  10.666   8.978   4.446  2.1108  0.8476 -1.0032
  218MOL0     H29407  10.613   8.936   4.284 -1.7951 -1.0341 -0.0042
  218MOL0     H29408  10.431   8.910   4.470  0.0218 -1.0695  2.2388
  218MOL0     H29409  10.527   8.778   4.531 -0.3281 -1.9196 -0.8736
  218MOL0     H29410  10.338   8.698   4.366  1.1895 -2.3699  1.8494
  218MOL0     H29411  10.497   8.673   4.285  1.2236  2.1209 -2.1643
  218MOL0     H29412  11.356   8.514   4.498  1.0385  1.0452 -1.2536
  218MOL0     H29413  11.479   8.351   4.592  0.3244  1.5423  0.3145
  218MOL0     H29414  11.765   8.192   4.557  0.3360 -0.6514 -0.9530
  218MOL0     H29415  11.980   8.132   4.667 -1.9884  1.6945  0.2134
  218MOL0     H29416  11.275   8.735   5.973 -0.4154  1.2868  1.1063
  218MOL0     H29417  11.105   8.918   5.976  1.0616 -1.5040  0.2810
  218MOL0     H29418  10.855   9.260   6.237  2.4249 -1.7072 -0.1283
  218MOL0     H29419  10.705   9.433   6.215  0.0189  0.2894 -1.0123
  218MOL0     H29420  10.542   9.453   5.937 -3.6785  2.8189 -4.0202
  218MOL0     H29421  10.525   9.505   6.115 -3.2991 -1.0013 -0.0308
  218MOL0     H29422  10.411   9.715   6.014 -2.5428  1.3380 -2.3208
  218MOL0     H29423  10.330   9.556   6.006  1.0094 -2.6810 -0.4858
  218MOL0     H29424  10.410   9.554   5.755 -0.8443 -0.3117 -0.7127
  218MOL0     H29425  10.450   9.721   5.783 -0.4488  1.2832  1.3452
  218MOL0     H29426  10.194   9.753   5.868 -3.4326 -0.8672 -2.7927
  218MOL0     H29427  10.164   9.597   5.853 -1.4078  2.1303  2.0257
  218MOL0     H29428  10.110   9.750   5.463  0.9982  1.1171 -0.0982
  218MOL0     H29429  10.839   9.538   5.817 -2.2920  0.4461 -0.0801
  218MOL0     H29430  11.019   9.345   5.844  2.4053 -1.4508  1.9372
  219MOL0     O29431  10.370   8.323  10.792  1.0318  0.8908 -1.3483
  219MOL0     C29432  10.368   8.224  10.721 -0.6979  0.0235  0.6564
  219MOL0     O29433  10.393   8.229  10.585 -0.4565 -0.3000  0.5315
  219MOL0     C29434  10.431   8.350  10.534 -0.0975 -0.5264 -0.2918
  219MOL0     C29435  10.360   8.465  10.521 -0.2978  0.1708  0.3043
  219MOL0     C29436  10.416   8.585  10.465  0.2196 -0.5603  0.7356
  219MOL0     C29437  10.545   8.588  10.422  0.8683 -0.3471  0.8465
  219MOL0     O29438  10.589   8.710  10.368  0.3243  0.0925  0.5793
  219MOL0     C29439  10.701   8.692  10.273 -0.9012 -0.2555 -0.0064
  219MOL0     C29440  10.763   8.822  10.200  0.5059 -0.4354 -0.3093
  219MOL0     C29441  10.656   8.884  10.099 -0.3220 -0.4410 -0.4686
  219MOL0     C29442  10.645   8.795   9.978 -0.6850 -0.8503 -0.1572
  219MOL0     C29443  10.543   8.839   9.871  0.6512 -0.1801  0.8439
  219MOL0     C29444  10.569   8.769   9.746 -0.4468 -0.7452  0.4501
  219MOL0     C29445  10.687   8.837   9.663 -0.2278  0.5832  0.2760
  219MOL0     C29446  10.758   8.727   9.591 -0.2071  0.3551  0.8775
  219MOL0     N29447  10.855   8.783   9.493 -0.2503  0.1104  0.4515
  219MOL0     C29448  10.827   8.865   9.386 -0.2651 -1.1124 -0.6839
  219MOL0     C29449  10.936   8.856   9.310 -0.0182 -0.3681  0.7736
  219MOL0     C29450  10.950   8.937   9.179  0.4985  0.3060  0.0663
  219MOL0     C29451  10.900   8.851   9.064  0.4493 -0.3516  0.2295
  219MOL0     C29452  10.893   8.909   8.917 -0.0638 -0.4986 -0.3855
  219MOL0     C29453  10.889   8.806   8.800 -0.5732  0.6911 -0.4516
  219MOL0     O29454  10.960   8.854   8.688 -0.6091 -0.5633  0.1157
  219MOL0     C29455  10.902   8.872   8.570  0.0152 -0.7106  1.1059
  219MOL0     C29456  10.766   8.869   8.544  0.6884  0.0993 -0.1238
  219MOL0     C29457  10.722   8.889   8.411 -0.2845 -0.0927 -0.2379
  219MOL0     C29458  10.576   8.853   8.395  0.4415  0.2322  0.9179
  219MOL0     C29459  10.805   8.921   8.303 -0.3488 -0.1412 -0.6296
  219MOL0     C29460  10.766   8.900   8.159  0.4670  0.1838 -0.3865
  219MOL0     O29461  10.661   8.822   8.123 -0.5440 -0.1723 -0.2700
  219MOL0     C29462  10.606   8.851   8.006  0.4232  0.2581  0.6962
  219MOL0     C29463  10.628   8.782   7.880 -0.5940  0.1629 -0.2556
  219MOL0     C29464  10.537   8.804   7.769  0.6265 -0.9567 -0.1954
  219MOL0     C29465  10.443   8.910   7.775 -0.5596  1.0740  0.2467
  219MOL0     O29466  10.361   8.941   7.674  0.3734  0.0688  0.2498
  219MOL0     C29467  10.375   8.874   7.547  0.4460 -0.6553 -0.2188
  219MOL0     C29468  10.235   8.915   7.477 -0.2857 -0.4342  0.1373
  219MOL0     C29469  10.249   8.937   7.328 -1.0150  0.3371 -0.4684
  219MOL0     C29470  10.112   8.961   7.261 -0.6049 -0.0735 -0.5524
  219MOL0     C29471  10.110   8.954   7.115  0.0547  0.6678  0.5848
  219MOL0     C29472  10.182   9.073   7.046 -0.2417  0.3851 -0.9398
  219MOL0     C29473  10.144   9.211   7.093  0.7376 -0.4658  0.4576
  219MOL0     C29474  10.006   9.266   7.046 -0.1906  0.0792 -0.2733
  219MOL0    Cl29475   9.884   9.228   7.166 -0.1643  0.5632 -0.0443
  219MOL0     C29476  10.439   8.986   7.890 -0.1618 -0.1095 -0.5823
  219MOL0     C29477  10.511   8.949   8.004  0.9146 -0.2585  0.6565
  219MOL0     O29478  10.834   8.965   8.076 -0.2499 -0.1515 -0.4231
  219MOL0     C29479  10.940   8.928   8.335 -0.3825 -0.4937 -0.4898
  219MOL0     C29480  10.988   8.904   8.467 -0.3084  0.2994 -0.1664
  219MOL0     N29481  11.023   8.765   9.364  0.3957  1.9295  0.1680
  219MOL0     N29482  10.978   8.725   9.472  0.0099 -0.1049  0.5863
  219MOL0     C29483  10.621   8.482  10.453 -0.4415  0.1769  0.0703
  219MOL0     C29484  10.566   8.361  10.497  1.0838 -0.6230 -0.6736
  219MOL0     C29485  10.365   8.090  10.774  0.0263 -0.8617 -0.0136
  219MOL0     C29486  10.403   7.975  10.715  0.4593 -0.2327  0.3113
  219MOL0     C29487  10.376   7.848  10.777 -0.9830  0.1705 -0.1905
  219MOL0     C29488  10.313   7.832  10.899  0.3717 -0.3713  0.2253
  219MOL0     O29489  10.293   7.712  10.975  1.4644 -0.4625  0.0642
  219MOL0     C29490  10.324   7.593  10.915  0.2652 -0.5686  1.1281
  219MOL0     C29491  10.299   7.480  11.014  0.0053  0.2362  0.1404
  219MOL0     C29492  10.368   7.513  11.148  0.9240 -0.6833 -0.3918
  219MOL0     C29493  10.432   7.396  11.227  0.7052  0.1951 -0.6998
  219MOL0     C29494  10.483   7.428  11.356  0.1932 -0.3828 -0.1427
  219MOL0     C29495  10.549   7.453  11.455  1.3692  0.0992  0.3754
  219MOL0     C29496  10.275   7.953  10.958 -0.0495  0.6942 -0.6765
  219MOL0     C29497  10.303   8.081  10.906  0.5498  0.0914 -0.2343
  219MOL0     H29498  10.259   8.463  10.560 -0.4576 -0.3922 -0.1188
  219MOL0     H29499  10.365   8.678  10.443  0.1742 -1.1112 -1.8346
  219MOL0     H29500  10.783   8.660  10.337  1.3126  2.1976 -1.3967
  219MOL0     H29501  10.683   8.618  10.194 -0.5683  2.2594 -2.5983
  219MOL0     H29502  10.772   8.894  10.282  0.4763 -2.6976  1.7914
  219MOL0     H29503  10.863   8.806  10.158  2.6121  1.2664  3.5481
  219MOL0     H29504  10.566   8.887  10.161  1.2990  1.3059  1.9775
  219MOL0     H29505  10.680   8.990  10.084 -0.5124 -0.3381 -0.0638
  219MOL0     H29506  10.739   8.791   9.920 -0.6711  1.6346 -0.3932
  219MOL0     H29507  10.615   8.695  10.011 -1.3459 -1.6411 -2.9103
  219MOL0     H29508  10.443   8.814   9.908  0.4362 -2.7705 -1.2700
  219MOL0     H29509  10.541   8.948   9.861 -1.3339 -0.2601 -0.0662
  219MOL0     H29510  10.612   8.670   9.764  1.5738  0.3053  1.8105
  219MOL0     H29511  10.477   8.757   9.688 -0.5585  2.2568 -0.1757
  219MOL0     H29512  10.664   8.916   9.591  5.4856  2.1333 -0.3503
  219MOL0     H29513  10.758   8.874   9.737 -0.6805  1.5410  0.2481
  219MOL0     H29514  10.682   8.674   9.533 -0.8816  0.6887  1.4492
  219MOL0     H29515  10.803   8.652   9.657 -0.9998  1.4179  2.6716
  219MOL0     H29516  10.737   8.925   9.377  1.2883  1.5253  0.1411
  219MOL0     H29517  10.899   9.033   9.190 -0.0030  0.1550 -0.8356
  219MOL0     H29518  11.054   8.969   9.169  0.3706  0.8758  0.5141
  219MOL0     H29519  10.798   8.822   9.091  0.1448 -1.7253 -2.0808
  219MOL0     H29520  10.965   8.765   9.076  0.5692  0.0066  2.4679
  219MOL0     H29521  10.986   8.965   8.907  1.2874 -1.5479  4.0921
  219MOL0     H29522  10.814   8.984   8.906  0.4881  0.4754  1.6595
  219MOL0     H29523  10.790   8.770   8.771 -0.1860  1.0182 -2.2767
  219MOL0     H29524  10.950   8.725   8.843 -1.1872  1.4520  1.9981
  219MOL0     H29525  10.692   8.856   8.623  1.0527  0.0223  0.2038
  219MOL0     H29526  10.528   8.929   8.332 -0.5600 -1.5736 -0.6114
  219MOL0     H29527  10.574   8.767   8.328  3.7028  0.0636  0.8925
  219MOL0     H29528  10.525   8.842   8.491 -2.9494 -3.2050 -1.0243
  219MOL0     H29529  10.695   8.698   7.871 -0.5790  0.1836 -0.3432
  219MOL0     H29530  10.551   8.750   7.676 -0.8887  4.2327 -3.8602
  219MOL0     H29531  10.468   8.911   7.505  0.7756 -0.7592  0.4000
  219MOL0     H29532  10.380   8.765   7.558 -0.0443 -0.5783  0.9417
  219MOL0     H29533  10.158   8.842   7.505 -0.1962  0.5739  3.4692
  219MOL0     H29534  10.198   9.011   7.514  1.3678  1.4015 -2.6022
  219MOL0     H29535  10.293   8.850   7.278 -1.8896  0.4815 -1.5075
  219MOL0     H29536  10.309   9.028   7.316 -1.6861  1.0489  1.2790
  219MOL0     H29537  10.051   8.877   7.296 -0.6652  1.0222  2.2725
  219MOL0     H29538  10.066   9.056   7.288 -1.9865 -0.7692 -0.3527
  219MOL0     H29539  10.006   8.972   7.085  1.2875  0.4074 -5.1463
  219MOL0     H29540  10.149   8.865   7.064 -0.2831  0.9521 -0.1832
  219MOL0     H29541  10.289   9.056   7.063 -0.4554  0.9282  1.3558
  219MOL0     H29542  10.168   9.072   6.938  1.3368 -3.0160 -1.2421
  219MOL0     H29543  10.218   9.278   7.048  4.3160 -4.5768 -0.4318
  219MOL0     H29544  10.166   9.232   7.198 -0.2826  0.0161  0.5917
  219MOL0     H29545   9.994   9.218   6.948 -3.0618 -2.1007  1.0193
  219MOL0     H29546  10.015   9.375   7.042  5.1685 -0.0316  0.6128
  219MOL0     H29547  10.384   9.079   7.902  2.3039  1.6784 -2.2715
  219MOL0     H29548  10.490   9.010   8.091 -0.1472  1.0893 -0.4998
  219MOL0     H29549  11.020   8.924   8.262  1.2033  2.1213  0.9437
  219MOL0     H29550  11.088   8.936   8.495 -1.5320  2.0606  2.7237
  219MOL0     H29551  10.728   8.488  10.438 -0.3834  2.0685  0.8653
  219MOL0     H29552  10.637   8.284  10.526 -2.2146 -3.7630 -0.2859
  219MOL0     H29553  10.459   7.978  10.622 -0.4035  6.3218 -0.4511
  219MOL0     H29554  10.406   7.757  10.727 -2.3599  0.7240 -2.1171
  219MOL0     H29555  10.260   7.588  10.827 -0.1757  0.5756  1.3729
  219MOL0     H29556  10.425   7.592  10.872 -0.1428 -3.1359  0.0807
  219MOL0     H29557  10.338   7.385  10.975 -2.9588 -2.2516  2.6921
  219MOL0     H29558  10.192   7.469  11.035  0.8038 -1.3745  4.3223
  219MOL0     H29559  10.290   7.573  11.196  1.0406  1.9719 -3.1470
  219MOL0     H29560  10.448   7.585  11.125 -1.6268  1.9164 -1.7937
  219MOL0     H29561  10.519   7.349  11.179  0.2859 -1.0684 -0.2494
  219MOL0     H29562  10.364   7.311  11.230  1.0291 -0.0436  0.4787
  219MOL0     H29563  10.587   7.459  11.555 -2.6114 -1.5890  2.2052
  219MOL0     H29564  10.217   7.937  11.049  1.5558 -0.1961  0.2297
  219MOL0     H29565  10.265   8.168  10.958 -1.5102 -1.2552  0.6188
  220MOL0     O29566   1.479   7.880  10.555 -0.8160  1.3725 -0.1414
  220MOL0     C29567   1.385   7.934  10.489  0.1386  0.2982 -0.1950
  220MOL0     O29568   1.378   8.063  10.442 -0.2222 -0.2534  0.2360
  220MOL0     C29569   1.475   8.156  10.468 -0.1670  0.5604 -0.5994
  220MOL0     C29570   1.437   8.269  10.541  1.4469  0.7619  0.3991
  220MOL0     C29571   1.538   8.339  10.612 -0.6253 -0.3618  0.0674
  220MOL0     C29572   1.672   8.308  10.594  0.1344  0.3525  0.0144
  220MOL0     O29573   1.740   8.414  10.628 -0.4220 -0.1760 -0.3513
  220MOL0     C29574   1.879   8.413  10.580  0.3170 -0.4751 -0.4098
  220MOL0     C29575   1.950   8.531  10.661  0.2371  0.4100  0.2843
  220MOL0     C29576   1.897   8.673  10.626  0.4003  0.1763 -0.9770
  220MOL0     C29577   1.980   8.774  10.700 -0.7495  0.1072 -0.1904
  220MOL0     C29578   1.920   8.920  10.663 -0.4176  0.0645 -0.6651
  220MOL0     C29579   1.975   8.961  10.522 -0.6100  0.0428  0.1345
  220MOL0     C29580   1.965   9.109  10.505  0.7232 -0.0008 -0.5980
  220MOL0     C29581   1.950   9.151  10.358  0.3164 -0.7664 -1.0957
  220MOL0     N29582   2.075   9.166  10.289  0.2476 -0.0917 -0.4543
  220MOL0     C29583   2.115   9.279  10.217 -0.6965 -0.0922 -0.2320
  220MOL0     C29584   2.205   9.230  10.127 -0.0508  0.2614  0.3867
  220MOL0     C29585   2.274   9.310  10.024  0.0285  0.4534 -0.3872
  220MOL0     C29586   2.345   9.432  10.076 -0.4556 -0.8245 -0.1132
  220MOL0     C29587   2.384   9.539   9.971 -0.4713  0.9763 -0.0152
  220MOL0     C29588   2.528   9.547   9.923  0.8492  0.3734 -0.3437
  220MOL0     O29589   2.596   9.615  10.036  0.1439  0.0956  0.5961
  220MOL0     C29590   2.672   9.721   9.989  0.8717  0.1489  0.3325
  220MOL0     C29591   2.785   9.701   9.917 -0.3127  0.3980 -0.3822
  220MOL0     C29592   2.870   9.799   9.880 -0.2564  0.0417  0.3231
  220MOL0     C29593   2.992   9.755   9.814 -1.3037  0.0249 -1.3863
  220MOL0     C29594   2.850   9.939   9.901  1.0185  0.7545 -0.6739
  220MOL0     C29595   2.929  10.058   9.854 -0.3673 -0.2023  0.8263
  220MOL0     O29596   3.013  10.044   9.747 -0.4215 -0.5705  0.8143
  220MOL0     C29597   3.116  10.130   9.732  0.0100  0.1565  0.0454
  220MOL0     C29598   3.246  10.082   9.696  0.3606  0.4518 -1.1149
  220MOL0     C29599   3.356  10.161   9.679 -0.3728 -0.5086 -0.1686
  220MOL0     C29600   3.343  10.301   9.695 -0.3390 -0.4367  0.0373
  220MOL0     O29601   3.456  10.380   9.666  0.5847  0.7219 -0.7484
  220MOL0     C29602   3.560  10.322   9.590  0.3301 -0.1634  0.2479
  220MOL0     C29603   3.669  10.425   9.555  0.7269 -0.6835  0.6249
  220MOL0     C29604   3.741  10.475   9.678  0.6028 -0.4052  0.0409
  220MOL0     C29605   3.864  10.562   9.666  0.2970 -0.5476  0.6206
  220MOL0     C29606   3.935  10.598   9.792  0.4431 -0.1479  0.8820
  220MOL0     C29607   3.835  10.669   9.898  0.0424  0.2146 -0.2268
  220MOL0     C29608   3.923  10.715  10.012  0.6012 -0.1165 -0.4641
  220MOL0     C29609   3.839  10.772  10.129 -0.1878 -0.6660  0.6182
  220MOL0    Cl29610   3.788  10.933  10.075 -0.6413 -0.5750 -0.0990
  220MOL0     C29611   3.218  10.357   9.728 -1.3514 -0.6195  0.1493
  220MOL0     C29612   3.106  10.269   9.756 -0.4451 -0.3145  1.6686
  220MOL0     O29613   2.924  10.151   9.934 -0.5111 -0.0153 -0.3549
  220MOL0     C29614   2.729   9.960   9.976 -0.3351 -0.1321 -0.2139
  220MOL0     C29615   2.641   9.856  10.023  0.2031  0.5450  0.2894
  220MOL0     N29616   2.230   9.101  10.152  0.1506 -0.3393  0.0686
  220MOL0     N29617   2.144   9.058  10.242 -0.5773  1.4828  0.4126
  220MOL0     C29618   1.711   8.196  10.526  0.1203  0.9164 -0.5071
  220MOL0     C29619   1.611   8.126  10.460 -0.0687 -0.8745  0.3808
  220MOL0     C29620   1.268   7.851  10.453  0.0051 -0.3157  0.6333
  220MOL0     C29621   1.146   7.900  10.400  0.8391  0.6229  0.1929
  220MOL0     C29622   1.048   7.807  10.363 -0.5960  0.2989 -0.6747
  220MOL0     C29623   1.065   7.676  10.402 -0.0080 -0.1195  0.9625
  220MOL0     O29624   0.961   7.600  10.348  0.0528 -0.3596  0.0916
  220MOL0     C29625   0.914   7.498  10.434 -0.6920 -0.7742  0.5635
  220MOL0     C29626   0.770   7.484  10.407 -0.3238  1.3470  0.7358
  220MOL0     C29627   0.702   7.394  10.522  0.0788 -0.1552 -0.0257
  220MOL0     C29628   0.572   7.324  10.472  0.3507 -0.4276 -0.1571
  220MOL0     C29629   0.458   7.414  10.426 -0.1391 -0.3861 -0.0149
  220MOL0     C29630   0.367   7.485  10.378 -0.0508  0.7851 -0.0007
  220MOL0     C29631   1.183   7.620  10.457  0.3187  0.0624 -0.1936
  220MOL0     C29632   1.287   7.714  10.471 -0.4459 -0.3695 -0.7804
  220MOL0     H29633   1.332   8.291  10.555  1.5978  0.8008  1.6598
  220MOL0     H29634   1.507   8.428  10.666  0.4896 -0.3449  0.7349
  220MOL0     H29635   1.928   8.318  10.602  0.0417 -0.3340  0.9190
  220MOL0     H29636   1.885   8.418  10.471 -0.4412 -0.9861 -0.4871
  220MOL0     H29637   1.944   8.523  10.770  1.4173  0.6027  0.3749
  220MOL0     H29638   2.056   8.522  10.635  0.4938  2.7162  0.3150
  220MOL0     H29639   1.907   8.689  10.518 -1.1964  2.6590 -0.8313
  220MOL0     H29640   1.794   8.690  10.657  0.9660 -2.2830  3.0594
  220MOL0     H29641   1.982   8.759  10.808  3.1629  3.5115  0.4666
  220MOL0     H29642   2.081   8.760  10.663 -0.4242  0.9447  0.3542
  220MOL0     H29643   1.811   8.922  10.674 -0.5482  1.3806 -1.9050
  220MOL0     H29644   1.950   8.989  10.741 -0.1954 -0.8543  0.0795
  220MOL0     H29645   2.080   8.931  10.527 -0.6124 -0.1537 -0.7762
  220MOL0     H29646   1.926   8.898  10.447 -1.0974  1.0467 -0.4091
  220MOL0     H29647   1.887   9.155  10.565 -0.3480  1.3135 -2.8654
  220MOL0     H29648   2.059   9.147  10.547  1.9803 -3.0096 -0.3930
  220MOL0     H29649   1.897   9.247  10.355 -0.1284 -0.9990 -0.7488
  220MOL0     H29650   1.890   9.077  10.303 -1.3936  0.5270 -1.0676
  220MOL0     H29651   2.079   9.380  10.237 -2.0750 -0.8240  1.2747
  220MOL0     H29652   2.343   9.238   9.979  0.9885  0.9750  0.2436
  220MOL0     H29653   2.206   9.330   9.940 -1.0490 -2.6581 -0.4030
  220MOL0     H29654   2.440   9.400  10.120  0.7488  0.2732 -1.7689
  220MOL0     H29655   2.289   9.493  10.147  0.4738  3.5094 -2.6871
  220MOL0     H29656   2.353   9.637  10.008  2.8928  2.5012 -0.9091
  220MOL0     H29657   2.325   9.534   9.879  1.7132 -3.5237 -1.4396
  220MOL0     H29658   2.530   9.602   9.829  0.0985  2.2262  0.6690
  220MOL0     H29659   2.565   9.444   9.911  1.7281  0.2532  2.5279
  220MOL0     H29660   2.818   9.599   9.900  1.5605  0.9655 -0.3463
  220MOL0     H29661   3.001   9.646   9.822  0.1298  0.2063  0.1357
  220MOL0     H29662   2.990   9.788   9.709 -0.9688  1.8911 -0.8373
  220MOL0     H29663   3.079   9.798   9.864 -0.4689 -2.1533 -0.8292
  220MOL0     H29664   3.255   9.973   9.693  1.5859  0.5754 -2.7807
  220MOL0     H29665   3.454  10.115   9.667 -0.6028 -1.3619  1.0327
  220MOL0     H29666   3.619  10.235   9.620  1.5368  0.2006 -0.9303
  220MOL0     H29667   3.520  10.299   9.491  3.5179  2.8622 -2.0156
  220MOL0     H29668   3.739  10.377   9.486 -0.0666  0.0919 -0.7671
  220MOL0     H29669   3.623  10.504   9.496  1.4371  0.2098  1.2351
  220MOL0     H29670   3.774  10.397   9.747  0.8319  1.4500  2.1160
  220MOL0     H29671   3.661  10.522   9.737 -1.6574 -0.9836 -2.3479
  220MOL0     H29672   3.929  10.506   9.597  3.1281  0.9574  1.8963
  220MOL0     H29673   3.843  10.657   9.616 -1.5085  0.4810  3.1146
  220MOL0     H29674   4.018  10.670   9.785 -0.8237  1.3968  1.1528
  220MOL0     H29675   3.976  10.506   9.834  1.2824 -0.6941 -1.0531
  220MOL0     H29676   3.770  10.746   9.856 -2.2797 -1.2884  0.4128
  220MOL0     H29677   3.770  10.586   9.929  2.5193 -2.3858 -1.5112
  220MOL0     H29678   3.996  10.786   9.971 -0.3098  0.7594 -0.5958
  220MOL0     H29679   3.980  10.630  10.052 -1.4039 -1.5844 -0.5543
  220MOL0     H29680   3.898  10.773  10.221  1.6737 -0.8499 -0.5247
  220MOL0     H29681   3.745  10.717  10.143 -0.7020 -0.2620 -1.0889
  220MOL0     H29682   3.192  10.462   9.740  0.6362 -0.2687  1.9117
  220MOL0     H29683   3.013  10.323   9.771 -1.3649 -1.6146  0.7990
  220MOL0     H29684   2.705  10.063   9.999 -2.0460 -0.7147  0.7797
  220MOL0     H29685   2.545   9.873  10.070  0.4292 -0.1949  1.0573
  220MOL0     H29686   1.814   8.162  10.525  0.3632  1.5662  0.9451
  220MOL0     H29687   1.642   8.037  10.406 -0.5619 -2.1692  2.1495
  220MOL0     H29688   1.115   8.004  10.404 -1.3315  0.0985 -1.3202
  220MOL0     H29689   0.954   7.841  10.321 -0.9473 -2.9484 -2.9600
  220MOL0     H29690   0.966   7.405  10.408  0.2019  0.0355 -0.5934
  220MOL0     H29691   0.930   7.528  10.538 -0.8489  2.4168 -0.2463
  220MOL0     H29692   0.768   7.437  10.309 -0.2779  0.0266  1.3385
  220MOL0     H29693   0.710   7.574  10.395 -1.8060  0.3552  0.3873
  220MOL0     H29694   0.683   7.458  10.608  1.2756  0.9900 -0.5763
  220MOL0     H29695   0.774   7.326  10.567  1.5824  0.9947 -0.5898
  220MOL0     H29696   0.534   7.249  10.542  1.8336  0.3780  1.6091
  220MOL0     H29697   0.600   7.271  10.380 -1.4626 -1.1851 -0.3092
  220MOL0     H29698   0.285   7.538  10.334 -1.0020 -1.7091 -1.4438
  220MOL0     H29699   1.213   7.517  10.470  1.1635  0.3717  0.3994
  220MOL0     H29700   1.384   7.676  10.500 -1.5450 -1.4727  1.6898
  221MOL0     O29701   7.446   9.267   0.051  0.4645  0.0294  0.1218
  221MOL0     C29702   7.385   9.334  -0.044 -0.4491 -0.3375  0.2904
  221MOL0     O29703   7.303   9.436  -0.035  0.8256  0.2957 -0.3657
  221MOL0     C29704   7.292   9.488   0.097  0.2165  0.3221 -1.2490
  221MOL0     C29705   7.186   9.444   0.182  0.0816 -0.7664 -0.8834
  221MOL0     C29706   7.177   9.496   0.310 -0.4494  0.9816 -1.2943
  221MOL0     C29707   7.267   9.601   0.356 -0.0003  0.1709  0.1346
  221MOL0     O29708   7.246   9.691   0.461 -0.2086  0.3305  0.7640
  221MOL0     C29709   7.140   9.661   0.559 -0.0049 -0.4934  0.9433
  221MOL0     C29710   7.186   9.537   0.655 -0.3967  0.5012  0.8497
  221MOL0     C29711   7.080   9.507   0.759 -0.0214 -0.5371  1.0158
  221MOL0     C29712   7.108   9.372   0.814  0.3652  0.1854 -0.1272
  221MOL0     C29713   7.033   9.353   0.948 -0.7827 -0.2081  0.2517
  221MOL0     C29714   6.881   9.311   0.926 -0.1882 -0.3455  0.1007
  221MOL0     C29715   6.819   9.246   1.050  0.3359  0.0113 -0.1097
  221MOL0     C29716   6.807   9.100   1.028 -0.5099 -0.1294 -0.0255
  221MOL0     N29717   6.705   9.064   0.934 -0.0917 -0.0248  0.6401
  221MOL0     C29718   6.569   9.069   0.959 -0.5646 -0.1280 -0.8405
  221MOL0     C29719   6.516   9.033   0.847  1.6602 -0.1268  0.2862
  221MOL0     C29720   6.363   9.028   0.839  0.2761  0.3887  0.2516
  221MOL0     C29721   6.293   9.153   0.889 -0.2415 -0.0394  0.0624
  221MOL0     C29722   6.139   9.136   0.898  0.1567 -0.4389  0.7503
  221MOL0     C29723   6.078   9.248   0.987 -0.1845 -0.1296 -0.5078
  221MOL0     O29724   6.146   9.368   0.980  0.4400  0.0186 -0.2082
  221MOL0     C29725   6.140   9.430   0.858 -0.1791 -0.0639 -0.1442
  221MOL0     C29726   6.234   9.535   0.836  0.2870  0.3642 -0.0180
  221MOL0     C29727   6.254   9.601   0.712  0.6671 -0.2400  0.2419
  221MOL0     C29728   6.366   9.706   0.689  0.1356  1.0894  0.3818
  221MOL0     C29729   6.154   9.572   0.608  0.1143  0.2909 -0.2443
  221MOL0     C29730   6.157   9.632   0.469 -0.1001  0.2617  0.7497
  221MOL0     O29731   6.073   9.576   0.372 -0.4785  0.5574 -0.7827
  221MOL0     C29732   6.080   9.621   0.238  0.0997 -0.7137  1.3969
  221MOL0     C29733   6.200   9.599   0.156  0.3835 -0.2573  0.3919
  221MOL0     C29734   6.179   9.612   0.013 -0.0069 -0.0908 -0.2838
  221MOL0     C29735   6.060   9.664  -0.045  0.7558  0.4846  0.2389
  221MOL0     O29736   6.032   9.689  -0.181  0.0122  0.0579 -1.2891
  221MOL0     C29737   6.139   9.662  -0.270 -0.5773  1.0272  0.4137
  221MOL0     C29738   6.219   9.795  -0.308 -0.8432 -0.0965  0.4323
  221MOL0     C29739   6.249   9.802  -0.459  0.0769  0.6360  0.4352
  221MOL0     C29740   6.311   9.941  -0.487 -1.0033  0.0826 -0.2356
  221MOL0     C29741   6.354   9.962  -0.635 -0.2278 -0.4847  0.3756
  221MOL0     C29742   6.228   9.940  -0.718 -1.7094  0.7733 -0.3918
  221MOL0     C29743   6.262   9.951  -0.867  0.8190  0.5738  0.6421
  221MOL0     C29744   6.223   9.815  -0.928 -0.5415  0.3768  0.7630
  221MOL0    Cl29745   6.312   9.669  -0.868  0.2880 -0.6506  0.1761
  221MOL0     C29746   5.953   9.696   0.031  0.2822 -0.0013  0.3204
  221MOL0     C29747   5.965   9.672   0.171  0.5021  1.2638  0.6739
  221MOL0     O29748   6.230   9.725   0.446 -0.1063 -0.1187 -0.6561
  221MOL0     C29749   6.047   9.486   0.637  0.2121  0.3160  0.0177
  221MOL0     C29750   6.047   9.402   0.755 -0.2603 -1.0753  0.0566
  221MOL0     N29751   6.607   9.011   0.750 -0.1225 -0.4933 -0.5435
  221MOL0     N29752   6.724   9.031   0.799 -0.6334  0.2959 -0.5044
  221MOL0     C29753   7.381   9.623   0.274  1.1415 -1.7209 -0.3433
  221MOL0     C29754   7.390   9.570   0.150  0.2303  0.2533 -0.1451
  221MOL0     C29755   7.400   9.284  -0.175  0.2132  0.0885 -0.1776
  221MOL0     C29756   7.430   9.153  -0.199 -0.4058  1.3738 -0.1123
  221MOL0     C29757   7.447   9.112  -0.326 -0.2645  0.0748  0.0964
  221MOL0     C29758   7.435   9.195  -0.439 -1.0798  0.1406  0.6930
  221MOL0     O29759   7.488   9.151  -0.555  0.1798  0.2579  0.3501
  221MOL0     C29760   7.416   9.046  -0.628  0.2300 -0.2171  0.3620
  221MOL0     C29761   7.312   9.095  -0.723  0.3798 -0.3447  0.0821
  221MOL0     C29762   7.262   8.978  -0.809 -0.3771 -0.4618  0.8999
  221MOL0     C29763   7.148   9.013  -0.907  0.2860 -0.6940  0.2263
  221MOL0     C29764   7.025   9.055  -0.827 -0.3099 -0.3095  0.4744
  221MOL0     C29765   6.920   9.072  -0.776 -0.1773 -0.0775 -0.3260
  221MOL0     C29766   7.409   9.327  -0.412 -0.1703 -0.8452  1.2245
  221MOL0     C29767   7.392   9.374  -0.282  0.5985  0.5494  0.0539
  221MOL0     H29768   7.109   9.377   0.145  0.7620 -2.3353  0.4398
  221MOL0     H29769   7.096   9.466   0.375  1.6617  0.6439  1.3388
  221MOL0     H29770   7.116   9.752   0.615 -3.7142 -0.5442 -0.3203
  221MOL0     H29771   7.053   9.634   0.499  0.1359  0.6559  0.1926
  221MOL0     H29772   7.208   9.451   0.591 -1.0730 -0.4176  1.8231
  221MOL0     H29773   7.273   9.576   0.709 -1.1102 -0.7466  3.0267
  221MOL0     H29774   7.089   9.584   0.836  2.7890 -2.3427  2.7058
  221MOL0     H29775   6.979   9.514   0.718 -0.2941  2.5618  1.9949
  221MOL0     H29776   7.064   9.290   0.756  0.0792 -0.0930  0.4674
  221MOL0     H29777   7.215   9.355   0.824  0.2747 -1.5487 -1.4819
  221MOL0     H29778   7.101   9.282   0.997 -0.7207 -2.0636 -2.3287
  221MOL0     H29779   7.042   9.445   1.005  2.6085 -0.8529  0.9818
  221MOL0     H29780   6.821   9.396   0.896 -2.1191 -2.6919 -3.3568
  221MOL0     H29781   6.871   9.241   0.842  0.6860  0.6201 -0.8238
  221MOL0     H29782   6.877   9.262   1.142 -0.9640  1.9415  0.4544
  221MOL0     H29783   6.724   9.298   1.065  1.0264  0.5146  3.4663
  221MOL0     H29784   6.783   9.063   1.128  0.1127  2.7218  1.2754
  221MOL0     H29785   6.903   9.060   0.993 -1.7492 -1.3586 -2.1609
  221MOL0     H29786   6.528   9.076   1.059 -3.2759 -3.8962 -1.4491
  221MOL0     H29787   6.345   9.020   0.732  0.4321  2.3865  0.0364
  221MOL0     H29788   6.328   8.943   0.899 -0.1438  1.7459  2.0430
  221MOL0     H29789   6.312   9.234   0.819  1.6061 -0.5692 -0.1014
  221MOL0     H29790   6.322   9.194   0.987 -0.0066  0.6129 -0.2726
  221MOL0     H29791   6.102   9.036   0.923 -0.0556 -0.0942  1.8660
  221MOL0     H29792   6.094   9.145   0.798 -2.7650 -0.9908  1.8934
  221MOL0     H29793   6.085   9.206   1.088  3.6856 -1.5653 -1.1927
  221MOL0     H29794   5.972   9.255   0.963 -0.1578  2.5344 -0.1711
  221MOL0     H29795   6.315   9.540   0.908  2.0762 -0.2835 -1.8653
  221MOL0     H29796   6.328   9.808   0.679 -2.0971  0.1272 -2.1525
  221MOL0     H29797   6.440   9.693   0.769 -0.9617 -1.5706  1.0750
  221MOL0     H29798   6.413   9.683   0.593  0.3187  0.6480  0.5750
  221MOL0     H29799   6.293   9.551   0.183 -0.1894 -1.5537  0.1495
  221MOL0     H29800   6.268   9.588  -0.044  1.1169 -1.0531  1.7499
  221MOL0     H29801   6.211   9.586  -0.238 -1.1031  0.7209  0.8796
  221MOL0     H29802   6.087   9.610  -0.351 -0.1333 -2.2605  2.0980
  221MOL0     H29803   6.173   9.889  -0.278  1.2781  1.8121 -1.8129
  221MOL0     H29804   6.317   9.792  -0.259 -2.0294 -1.9156  2.8962
  221MOL0     H29805   6.148   9.788  -0.499 -1.1556  0.2637  3.4388
  221MOL0     H29806   6.307   9.719  -0.501 -2.5756 -0.3251 -1.6122
  221MOL0     H29807   6.236  10.016  -0.458  0.8641  2.4343 -1.1360
  221MOL0     H29808   6.402   9.953  -0.427 -0.7484 -0.3586 -0.5292
  221MOL0     H29809   6.423   9.878  -0.647  2.6324  1.5359  1.6198
  221MOL0     H29810   6.401  10.060  -0.641  0.5921 -0.8922  0.0259
  221MOL0     H29811   6.181   9.842  -0.703 -0.3049 -0.1519 -1.7627
  221MOL0     H29812   6.161  10.019  -0.683 -1.4914  1.8124 -2.2135
  221MOL0     H29813   6.359   9.994  -0.891  0.7759 -0.6486 -2.1461
  221MOL0     H29814   6.197  10.029  -0.906 -1.2340 -1.9366 -1.3854
  221MOL0     H29815   6.246   9.819  -1.035  0.9747  0.0630  1.0528
  221MOL0     H29816   6.115   9.801  -0.921 -0.3592 -1.1580  0.9000
  221MOL0     H29817   5.856   9.702  -0.017  0.2210 -0.8805  0.3316
  221MOL0     H29818   5.874   9.672   0.230 -0.5594  0.6746 -0.9220
  221MOL0     H29819   5.964   9.476   0.567  0.2020  5.1846 -1.0426
  221MOL0     H29820   5.975   9.321   0.755 -0.2956 -1.1371 -2.3712
  221MOL0     H29821   7.450   9.699   0.308  1.7137 -1.8901 -1.1086
  221MOL0     H29822   7.478   9.595   0.092 -0.5973  0.8466 -1.1818
  221MOL0     H29823   7.427   9.076  -0.123  0.0954  2.4106  1.0174
  221MOL0     H29824   7.478   9.009  -0.341  2.2733  0.1677  3.5495
  221MOL0     H29825   7.487   8.971  -0.665  0.3688 -1.6858  3.3207
  221MOL0     H29826   7.350   8.992  -0.560 -2.8283 -0.3641 -2.4769
  221MOL0     H29827   7.356   9.173  -0.787 -2.3350  1.7939  0.6132
  221MOL0     H29828   7.221   9.130  -0.673 -0.4875 -2.8567  0.3924
  221MOL0     H29829   7.235   8.895  -0.744 -0.6143  0.4824  2.0313
  221MOL0     H29830   7.345   8.938  -0.868 -0.0533 -3.0115  2.8763
  221MOL0     H29831   7.140   8.931  -0.978 -3.0331 -2.0314  1.9547
  221MOL0     H29832   7.179   9.097  -0.970  4.7107 -4.0709 -2.7571
  221MOL0     H29833   6.821   9.074  -0.735  0.1873 -0.5819  0.5928
  221MOL0     H29834   7.417   9.396  -0.496  0.6651  0.5273  2.3730
  221MOL0     H29835   7.360   9.478  -0.286 -3.3780 -0.5202 -1.5714
  222MOL0     O29836   6.543   3.399  11.312  0.0481 -0.0496  0.2651
  222MOL0     C29837   6.563   3.514  11.345  0.2292  0.9084 -0.5036
  222MOL0     O29838   6.657   3.600  11.295  0.2990  0.4563 -0.5829
  222MOL0     C29839   6.733   3.572  11.189 -0.3521 -0.2819  0.5843
  222MOL0     C29840   6.870   3.596  11.196  0.0192 -0.2938  0.0688
  222MOL0     C29841   6.953   3.586  11.087  0.5376 -0.2939 -0.5698
  222MOL0     C29842   6.901   3.546  10.962  0.9771  0.3086 -0.3020
  222MOL0     O29843   6.992   3.533  10.855 -0.5007 -1.2489  0.2776
  222MOL0     C29844   7.076   3.420  10.868 -0.1402 -1.0530 -0.8413
  222MOL0     C29845   7.083   3.351  10.730  0.5641  0.7210  0.8194
  222MOL0     C29846   7.141   3.446  10.617 -0.6598  0.3192 -1.2535
  222MOL0     C29847   7.165   3.379  10.485  0.5191 -0.2596  0.0050
  222MOL0     C29848   7.155   3.488  10.367 -0.4486 -0.1238 -0.4601
  222MOL0     C29849   7.247   3.447  10.258  0.3727 -0.1954 -0.3178
  222MOL0     C29850   7.199   3.512  10.125  1.1567  0.3252  0.0880
  222MOL0     C29851   7.317   3.527  10.035  0.3758  1.1013 -0.0740
  222MOL0     N29852   7.375   3.400   9.983  0.4599 -0.1890 -0.0950
  222MOL0     C29853   7.473   3.323  10.045 -0.4465 -0.1439 -0.5794
  222MOL0     C29854   7.485   3.209   9.979 -0.1533 -0.0775  0.1223
  222MOL0     C29855   7.561   3.081   9.999 -0.7974  0.0778 -0.6482
  222MOL0     C29856   7.489   2.986  10.095 -0.3061 -0.1213 -0.3875
  222MOL0     C29857   7.579   2.860  10.107  0.3242  0.7750  0.2851
  222MOL0     C29858   7.531   2.763  10.221  0.0781  0.0808 -0.0355
  222MOL0     O29859   7.397   2.703  10.202  0.2461 -0.3111 -0.0685
  222MOL0     C29860   7.289   2.745  10.278  0.7204  0.0931 -0.8618
  222MOL0     C29861   7.262   2.864  10.347  0.9259  0.3068 -0.3805
  222MOL0     C29862   7.139   2.899  10.402 -0.2483  0.1359  1.3142
  222MOL0     C29863   7.110   3.028  10.468 -0.6425  0.6838 -0.7653
  222MOL0     C29864   7.034   2.793  10.417  0.0035  0.9692  0.5629
  222MOL0     C29865   6.900   2.789  10.501  0.0773 -0.6125 -0.0810
  222MOL0     O29866   6.827   2.674  10.510  0.7974 -0.0782 -0.3959
  222MOL0     C29867   6.715   2.660  10.598 -0.5261  0.4607  0.8553
  222MOL0     C29868   6.632   2.541  10.582 -0.3486  0.5390  0.2523
  222MOL0     C29869   6.522   2.523  10.674  0.4227  0.0684 -1.0101
  222MOL0     C29870   6.484   2.614  10.769 -0.0133 -0.2706  0.1471
  222MOL0     O29871   6.376   2.603  10.853  0.1580  0.1528 -0.3870
  222MOL0     C29872   6.336   2.472  10.902  0.3014 -0.0331  0.0540
  222MOL0     C29873   6.245   2.489  11.025  0.8362 -0.4817  0.0750
  222MOL0     C29874   6.142   2.597  10.993  0.2884  0.8612  0.1835
  222MOL0     C29875   6.027   2.604  11.100 -1.2290 -0.5397  0.0936
  222MOL0     C29876   5.924   2.715  11.079 -0.1364 -0.7060 -0.0779
  222MOL0     C29877   5.817   2.672  10.981  0.0856  0.0237  0.5267
  222MOL0     C29878   5.700   2.773  10.978  0.5874  0.1165  0.7780
  222MOL0     C29879   5.635   2.766  10.839 -0.3954  0.6886  0.0671
  222MOL0    Cl29880   5.486   2.851  10.821  0.0655 -0.6152 -0.1302
  222MOL0     C29881   6.565   2.725  10.786 -0.0696 -0.0635  0.4130
  222MOL0     C29882   6.671   2.750  10.699 -0.0653  0.0166  0.8170
  222MOL0     O29883   6.866   2.895  10.551 -0.2020 -1.2423  1.3150
  222MOL0     C29884   7.063   2.669  10.349 -0.1558 -1.0966  0.4442
  222MOL0     C29885   7.185   2.653  10.284 -0.3343  0.0298  0.0094
  222MOL0     N29886   7.401   3.218   9.875  0.3463 -0.7521  1.0984
  222MOL0     N29887   7.339   3.333   9.870  0.6481  0.8719 -0.2614
  222MOL0     C29888   6.763   3.510  10.950 -1.1301  0.0382 -0.1421
  222MOL0     C29889   6.686   3.531  11.061  1.2363  0.4772 -0.1752
  222MOL0     C29890   6.502   3.551  11.474  0.1291 -0.4895  1.1071
  222MOL0     C29891   6.530   3.669  11.536  0.0395  0.4152  0.5186
  222MOL0     C29892   6.466   3.697  11.658 -0.0298 -0.8443  0.0165
  222MOL0     C29893   6.372   3.616  11.715 -0.9154 -0.0833 -0.6474
  222MOL0     O29894   6.323   3.659  11.840 -0.0916  0.3852 -0.2262
  222MOL0     C29895   6.210   3.595  11.913 -0.5592  0.8834  0.1843
  222MOL0     C29896   6.083   3.631  11.854 -0.2987 -0.0009  0.7288
  222MOL0     C29897   5.977   3.675  11.958 -0.8840  0.5480 -0.9484
  222MOL0     C29898   5.839   3.681  11.902 -0.8906 -0.7746  0.0987
  222MOL0     C29899   5.789   3.562  11.855  0.4997  0.7350 -0.5996
  222MOL0     C29900   5.769   3.452  11.798  0.1903 -0.0672  0.4333
  222MOL0     C29901   6.336   3.501  11.651 -0.0459  0.5663 -0.4141
  222MOL0     C29902   6.400   3.470  11.535  0.4521  0.1384 -0.0018
  222MOL0     H29903   6.926   3.638  11.278  0.9393 -2.5262  0.6831
  222MOL0     H29904   7.056   3.617  11.088 -0.5741  3.9643 -0.8400
  222MOL0     H29905   7.174   3.454  10.904  0.8453 -3.4838 -0.9897
  222MOL0     H29906   7.041   3.345  10.939 -4.0077 -0.6305 -2.1135
  222MOL0     H29907   7.148   3.264  10.747 -3.1292 -2.0476  1.9827
  222MOL0     H29908   6.984   3.316  10.702  1.9617 -0.2381 -3.7790
  222MOL0     H29909   7.059   3.515  10.597 -1.7849 -0.5138  0.2860
  222MOL0     H29910   7.231   3.498  10.653  0.0180  0.1911 -2.6885
  222MOL0     H29911   7.260   3.325  10.496  0.5875 -0.8084 -2.6889
  222MOL0     H29912   7.082   3.311  10.465  0.1039  0.3844 -0.4845
  222MOL0     H29913   7.055   3.490  10.324  0.6424  2.9798 -3.3567
  222MOL0     H29914   7.176   3.589  10.406  1.1526 -0.4967 -0.2900
  222MOL0     H29915   7.340   3.486  10.300 -1.1257  1.3140  1.8321
  222MOL0     H29916   7.250   3.338  10.246  1.2329 -0.1044 -1.0567
  222MOL0     H29917   7.134   3.436  10.081 -2.7078  3.7144 -0.6303
  222MOL0     H29918   7.143   3.605  10.141 -0.1173  0.3835 -3.7799
  222MOL0     H29919   7.393   3.589  10.083  0.1591  0.9563  0.4690
  222MOL0     H29920   7.275   3.588   9.955  0.8009  0.8392 -0.4994
  222MOL0     H29921   7.514   3.342  10.144 -4.3513 -0.1210  1.2350
  222MOL0     H29922   7.571   3.030   9.903 -1.2306  0.5691 -0.9645
  222MOL0     H29923   7.665   3.096  10.027 -0.8900 -0.5409  0.0416
  222MOL0     H29924   7.390   2.961  10.056  0.7636 -0.9415 -2.8107
  222MOL0     H29925   7.486   3.041  10.189  3.8311  0.3066 -0.2920
  222MOL0     H29926   7.677   2.884  10.149  1.3878  2.6260 -2.9370
  222MOL0     H29927   7.586   2.805  10.013  0.9399  3.5383 -1.3789
  222MOL0     H29928   7.550   2.812  10.317 -0.3402  0.2346 -0.0309
  222MOL0     H29929   7.611   2.689  10.234  0.6560  0.8605  1.0280
  222MOL0     H29930   7.345   2.934  10.342  0.4706  0.7540 -2.4530
  222MOL0     H29931   7.017   3.073  10.434 -0.6689  4.2832  3.2059
  222MOL0     H29932   7.098   3.015  10.576  5.0577  1.5496  0.2758
  222MOL0     H29933   7.194   3.098  10.471 -1.4714  1.6644  1.3811
  222MOL0     H29934   6.647   2.458  10.514  1.6984 -2.4833  3.9850
  222MOL0     H29935   6.473   2.427  10.681  1.8291 -0.6094 -0.0816
  222MOL0     H29936   6.298   2.411  10.820  2.3063  3.7606 -4.1746
  222MOL0     H29937   6.416   2.414  10.949 -1.1143 -2.3873 -0.2984
  222MOL0     H29938   6.196   2.395  11.051 -1.2475  0.2494 -0.9223
  222MOL0     H29939   6.310   2.522  11.107  0.0322  0.1760  0.4723
  222MOL0     H29940   6.101   2.578  10.893  0.2606  0.6340  0.2386
  222MOL0     H29941   6.180   2.700  10.993 -0.6588  1.2565  2.3139
  222MOL0     H29942   5.975   2.509  11.116 -0.6902 -0.7314  0.7956
  222MOL0     H29943   6.080   2.616  11.196  2.3365  1.8356 -1.9470
  222MOL0     H29944   5.964   2.813  11.052 -1.2436 -0.1609  0.2233
  222MOL0     H29945   5.867   2.728  11.172  1.1998  0.6899  0.6005
  222MOL0     H29946   5.856   2.654  10.881  0.1216 -4.6949  1.1539
  222MOL0     H29947   5.772   2.578  11.015 -1.7332 -0.8902 -3.7177
  222MOL0     H29948   5.730   2.875  11.002  2.3529 -0.4562  1.1884
  222MOL0     H29949   5.633   2.733  11.054  1.0068  0.0133  1.0976
  222MOL0     H29950   5.618   2.661  10.816  0.0725  0.5200  0.4626
  222MOL0     H29951   5.709   2.795  10.764 -0.4821 -1.4000 -0.8800
  222MOL0     H29952   6.550   2.809  10.854 -3.2586  1.4754 -1.9433
  222MOL0     H29953   6.718   2.848  10.703 -2.7324  1.3296  1.7944
  222MOL0     H29954   6.988   2.591  10.342 -1.3546  0.1215 -0.9829
  222MOL0     H29955   7.192   2.556  10.234  0.5935  0.5880 -0.9747
  222MOL0     H29956   6.720   3.487  10.853 -0.3700  0.0393 -0.4799
  222MOL0     H29957   6.580   3.511  11.058  1.2101  0.6042 -0.0885
  222MOL0     H29958   6.599   3.745  11.501 -1.5533  0.6616 -2.3283
  222MOL0     H29959   6.494   3.797  11.688 -0.2097  0.1634 -2.9048
  222MOL0     H29960   6.222   3.486  11.905 -1.2703  0.6005  2.4417
  222MOL0     H29961   6.215   3.613  12.021 -4.6789  2.8742  0.2027
  222MOL0     H29962   6.052   3.540  11.802 -3.6518  1.7068 -0.5289
  222MOL0     H29963   6.097   3.715  11.786 -3.2009 -0.1568 -0.1852
  222MOL0     H29964   6.002   3.772  12.001 -2.0988 -0.8178  3.3420
  222MOL0     H29965   5.985   3.599  12.036  2.3327  2.5488  0.9363
  222MOL0     H29966   5.829   3.764  11.831  0.7426  2.4265  3.2536
  222MOL0     H29967   5.779   3.714  11.988 -0.2087 -0.3063  0.4054
  222MOL0     H29968   5.748   3.368  11.734  1.7036 -1.5197  1.7258
  222MOL0     H29969   6.259   3.436  11.692 -0.4712 -0.1589 -2.2260
  222MOL0     H29970   6.369   3.373  11.499  4.8884 -1.2299 -0.7830
  223MOL0     O29971   6.347  10.035   9.895  0.1806 -0.7129 -0.3828
  223MOL0     C29972   6.311  10.100   9.993 -0.2769  0.6010 -0.2216
  223MOL0     O29973   6.292  10.049  10.125  0.2490 -0.7644 -0.2024
  223MOL0     C29974   6.310   9.913  10.141 -0.9570 -0.5429  0.6164
  223MOL0     C29975   6.428   9.856  10.092 -0.9869  0.2389  0.2278
  223MOL0     C29976   6.439   9.721  10.120 -0.7821 -0.3830 -0.8462
  223MOL0     C29977   6.355   9.636  10.192 -0.0248 -0.0820  0.0462
  223MOL0     O29978   6.373   9.502  10.205  0.8909  0.7289 -0.3003
  223MOL0     C29979   6.492   9.460  10.267 -0.0982  0.3240 -0.1025
  223MOL0     C29980   6.471   9.395  10.405 -0.3530 -0.5230  1.3239
  223MOL0     C29981   6.584   9.318  10.453  0.3136  0.0928  0.0606
  223MOL0     C29982   6.548   9.260  10.589 -0.3040  0.1328 -0.0430
  223MOL0     C29983   6.550   9.351  10.705  0.0612  0.0113  0.7580
  223MOL0     C29984   6.531   9.282  10.839  0.9858  0.2178 -0.2874
  223MOL0     C29985   6.580   9.380  10.942 -0.4290  0.8254 -0.5477
  223MOL0     C29986   6.477   9.493  10.975  0.1262  0.3709 -1.5907
  223MOL0     N29987   6.535   9.571  11.078 -0.8647  0.2273  0.3036
  223MOL0     C29988   6.640   9.657  11.063  0.3479 -0.0852 -0.4783
  223MOL0     C29989   6.653   9.717  11.189  0.1838  0.1987  0.6690
  223MOL0     C29990   6.753   9.827  11.218 -0.5881 -0.0706 -0.0957
  223MOL0     C29991   6.688   9.959  11.256 -0.8383  0.3377  1.3596
  223MOL0     C29992   6.741  10.042  11.371  0.2924  0.6396 -0.6772
  223MOL0     C29993   6.887  10.075  11.352 -0.9271 -0.1181 -0.2397
  223MOL0     O29994   6.959   9.954  11.358 -0.6280 -0.5682 -0.0323
  223MOL0     C29995   7.093   9.953  11.376  0.7679  0.0052  1.0588
  223MOL0     C29996   7.183  10.032  11.300  0.1887 -0.5130 -1.1009
  223MOL0     C29997   7.320  10.006  11.295 -0.8066  0.3033  0.2395
  223MOL0     C29998   7.392  10.100  11.206 -0.3935 -0.7843  1.7436
  223MOL0     C29999   7.369   9.883  11.353  0.3173 -0.7093 -0.8360
  223MOL0     C30000   7.501   9.823  11.328  0.5033  0.7965 -0.7787
  223MOL0     O30001   7.542   9.849  11.210 -0.2669  0.3671 -0.4090
  223MOL0     C30002   7.670   9.824  11.177  0.6223 -0.1597  1.1052
  223MOL0     C30003   7.767   9.867  11.256 -0.8288  0.0086 -0.7326
  223MOL0     C30004   7.905   9.830  11.234  0.6543  0.1096  0.1335
  223MOL0     C30005   7.932   9.773  11.114  0.4397 -0.4398  0.7871
  223MOL0     O30006   8.067   9.736  11.088  0.6429  1.0679 -0.6452
  223MOL0     C30007   8.134   9.851  11.035  0.5411 -0.7900  0.6996
  223MOL0     C30008   8.186   9.812  10.893 -0.8078 -0.1992  0.0729
  223MOL0     C30009   8.295   9.909  10.820  0.5703  0.0602  0.1705
  223MOL0     C30010   8.226  10.033  10.765  0.1639 -0.5802 -0.4498
  223MOL0     C30011   8.325  10.152  10.740  0.5586  0.6454 -0.6321
  223MOL0     C30012   8.257  10.280  10.686  0.2631  0.9419  0.5686
  223MOL0     C30013   8.199  10.258  10.543 -0.4679  0.3880  0.0101
  223MOL0     C30014   8.151  10.388  10.478 -0.2203  0.9225 -1.2168
  223MOL0    Cl30015   8.049  10.494  10.582  0.2750  0.2124  0.1020
  223MOL0     C30016   7.826   9.736  11.028 -0.0304  0.4380 -0.6235
  223MOL0     C30017   7.696   9.763  11.053  0.6598 -0.1519 -1.0165
  223MOL0     O30018   7.553   9.737  11.396  0.5749 -0.2111 -0.2038
  223MOL0     C30019   7.285   9.806  11.429  1.1178 -0.0883  0.7056
  223MOL0     C30020   7.143   9.836  11.440 -0.5923 -0.1253  1.0501
  223MOL0     N30021   6.565   9.661  11.278 -0.2227  0.1267  0.6051
  223MOL0     N30022   6.488   9.581  11.208  0.2277 -0.3622 -0.1471
  223MOL0     C30023   6.236   9.703  10.238  0.4323  0.2892  0.6642
  223MOL0     C30024   6.220   9.842  10.215 -0.4140  1.1580  0.2460
  223MOL0     C30025   6.309  10.249   9.973  0.0003  0.3241 -0.0146
  223MOL0     C30026   6.306  10.304   9.849 -0.3590  1.0291  0.0688
  223MOL0     C30027   6.345  10.437   9.828 -0.1538  0.0991 -0.2287
  223MOL0     C30028   6.358  10.520   9.939 -0.2436  0.4863 -0.1792
  223MOL0     O30029   6.403  10.648   9.910  0.7336 -0.1309 -0.2201
  223MOL0     C30030   6.458  10.714  10.026  0.2890  0.0568 -0.4402
  223MOL0     C30031   6.343  10.790  10.103  0.3261 -0.3618  0.1616
  223MOL0     C30032   6.263  10.899  10.026  0.7301  0.1274  0.0150
  223MOL0     C30033   6.161  10.958  10.114  0.9756  0.4038 -0.5184
  223MOL0     C30034   6.065  11.042  10.037 -0.9966  0.0143  0.3440
  223MOL0     C30035   5.996  11.122   9.978  0.4626 -0.8257 -0.4822
  223MOL0     C30036   6.336  10.467  10.066 -0.2646 -0.5931 -0.4329
  223MOL0     C30037   6.315  10.332  10.080 -0.3784  0.1405 -0.4445
  223MOL0     H30038   6.497   9.907  10.025  0.4814 -1.1345  0.6365
  223MOL0     H30039   6.534   9.678  10.093 -0.9226 -1.1090 -0.2201
  223MOL0     H30040   6.546   9.381  10.215  1.7172  2.5394 -1.8108
  223MOL0     H30041   6.562   9.543  10.282 -0.8818  0.8439  0.7361
  223MOL0     H30042   6.451   9.479  10.471  1.7504 -0.8136  2.4020
  223MOL0     H30043   6.383   9.332  10.386  0.0185 -0.4725 -0.9099
  223MOL0     H30044   6.623   9.245  10.381  2.9642  2.2053 -0.8028
  223MOL0     H30045   6.675   9.377  10.463  0.6998 -0.3856 -0.5479
  223MOL0     H30046   6.453   9.206  10.581 -0.6765  0.6764  0.6215
  223MOL0     H30047   6.623   9.183  10.612  0.5485  0.3822 -1.7804
  223MOL0     H30048   6.637   9.417  10.699  1.2526 -1.3688  2.0988
  223MOL0     H30049   6.469   9.423  10.688  2.5985  2.8150 -0.3337
  223MOL0     H30050   6.423   9.267  10.848  0.1414  4.4363 -1.1205
  223MOL0     H30051   6.586   9.188  10.828  0.3346 -0.0169 -1.8531
  223MOL0     H30052   6.592   9.330  11.039 -0.0911  2.0328  0.0477
  223MOL0     H30053   6.670   9.431  10.906 -1.0358  1.7993 -0.6940
  223MOL0     H30054   6.374   9.462  10.994  0.4388 -0.8431 -1.8009
  223MOL0     H30055   6.468   9.565  10.893 -2.2084  0.9687 -0.8761
  223MOL0     H30056   6.692   9.670  10.968 -0.9841 -0.4426 -1.2848
  223MOL0     H30057   6.803   9.784  11.306 -1.2901 -1.3049 -0.2904
  223MOL0     H30058   6.828   9.847  11.141 -0.4495  3.4741  0.7812
  223MOL0     H30059   6.585   9.934  11.284 -0.4084 -2.8238  0.4680
  223MOL0     H30060   6.679  10.019  11.165 -2.2391 -0.4365  0.9522
  223MOL0     H30061   6.727   9.994  11.468  4.4120 -0.9456 -0.6730
  223MOL0     H30062   6.686  10.137  11.370 -0.6876  0.1821  1.9066
  223MOL0     H30063   6.921  10.149  11.425 -1.6176  0.4015 -0.4249
  223MOL0     H30064   6.896  10.117  11.251 -1.8259 -0.7300 -0.5927
  223MOL0     H30065   7.140  10.115  11.245 -1.8178 -0.5197  0.3305
  223MOL0     H30066   7.364  10.204  11.223 -3.6208 -1.3318  0.4263
  223MOL0     H30067   7.500  10.090  11.220  0.3334 -3.9664 -3.3293
  223MOL0     H30068   7.377  10.064  11.104  1.1210 -2.5489  2.0823
  223MOL0     H30069   7.741   9.927  11.342 -2.0458  0.7082 -1.5593
  223MOL0     H30070   7.977   9.844  11.314 -3.0580  1.5187  3.5748
  223MOL0     H30071   8.067   9.937  11.041 -1.7663 -2.4442  0.1627
  223MOL0     H30072   8.218   9.879  11.099 -0.7716  3.7144  0.7853
  223MOL0     H30073   8.240   9.718  10.910 -1.2426 -0.2075  1.5842
  223MOL0     H30074   8.100   9.798  10.827 -0.9723  2.7463 -0.4420
  223MOL0     H30075   8.340   9.850  10.740 -0.4076 -0.0851 -0.2867
  223MOL0     H30076   8.373   9.938  10.891 -0.4696  2.6098  0.3661
  223MOL0     H30077   8.183  10.008  10.668 -0.3186 -0.0196 -0.3904
  223MOL0     H30078   8.136  10.061  10.822  2.3221  0.3924  2.7679
  223MOL0     H30079   8.409  10.125  10.675 -0.6105  1.4838 -2.5999
  223MOL0     H30080   8.371  10.174  10.836  1.0031  0.6183 -0.8363
  223MOL0     H30081   8.179  10.304  10.760 -0.7260 -1.7255  0.5216
  223MOL0     H30082   8.339  10.351  10.693  1.8521 -0.9953  3.9731
  223MOL0     H30083   8.122  10.179  10.544 -0.2660  0.1943  0.8367
  223MOL0     H30084   8.283  10.218  10.485  1.0963 -4.0535  4.6387
  223MOL0     H30085   8.095  10.369  10.386  0.3705 -3.4284 -0.8858
  223MOL0     H30086   8.248  10.434  10.454  1.9127 -3.0610 -1.0652
  223MOL0     H30087   7.849   9.681  10.937  0.3986  2.2252 -1.6432
  223MOL0     H30088   7.613   9.733  10.990 -2.5620  0.3841  2.5608
  223MOL0     H30089   7.330   9.718  11.472 -0.1002 -0.6603  0.8456
  223MOL0     H30090   7.070   9.774  11.491 -1.8108  0.7887  0.4720
  223MOL0     H30091   6.158   9.647  10.288 -0.8469  0.6111 -0.8862
  223MOL0     H30092   6.128   9.889  10.246 -0.0822  0.4448  2.5107
  223MOL0     H30093   6.288  10.244   9.760 -2.0610  0.6988  0.5928
  223MOL0     H30094   6.368  10.481   9.732  3.2830  0.3104  0.5572
  223MOL0     H30095   6.501  10.644  10.098 -1.5312  0.7736  1.4651
  223MOL0     H30096   6.535  10.787  10.002 -1.3559  2.5720  1.3555
  223MOL0     H30097   6.399  10.827  10.189  0.9099 -0.8324 -0.0088
  223MOL0     H30098   6.269  10.719  10.139  0.6729 -2.2620 -2.5660
  223MOL0     H30099   6.219  10.852   9.937  0.4772 -0.3175  0.3717
  223MOL0     H30100   6.340  10.965   9.986  1.5907 -1.3323 -0.8336
  223MOL0     H30101   6.215  11.028  10.179  0.8760 -0.6523  0.7506
  223MOL0     H30102   6.119  10.877  10.175 -3.5055  1.9823 -1.1419
  223MOL0     H30103   5.930  11.193   9.931 -1.9154 -1.6797  1.3479
  223MOL0     H30104   6.339  10.518  10.161  3.2867 -3.1443  1.0780
  223MOL0     H30105   6.315  10.286  10.179 -2.1040  1.1979  0.0845
  224MOL0     O30106   5.791   0.969   5.121  0.0683 -0.0117 -0.4456
  224MOL0     C30107   5.787   1.070   5.051  0.3184 -0.1994 -0.5217
  224MOL0     O30108   5.890   1.162   5.045 -0.3309  0.4413 -0.2901
  224MOL0     C30109   5.984   1.166   5.143  0.9221  0.0754 -0.2663
  224MOL0     C30110   6.125   1.140   5.110 -0.3058  0.4766  0.1257
  224MOL0     C30111   6.221   1.143   5.215 -0.2627 -0.2665 -0.1865
  224MOL0     C30112   6.181   1.196   5.345  0.1913  0.1178 -0.2639
  224MOL0     O30113   6.270   1.216   5.443 -0.4149 -0.6688  0.7150
  224MOL0     C30114   6.412   1.220   5.411  0.8968 -0.3574 -0.0386
  224MOL0     C30115   6.492   1.241   5.535 -0.1009  0.2782 -0.0408
  224MOL0     C30116   6.466   1.379   5.602  0.2185  0.6639  0.6260
  224MOL0     C30117   6.576   1.412   5.705 -0.4377 -0.2196  0.4200
  224MOL0     C30118   6.549   1.550   5.757 -0.2919 -0.8551  0.0382
  224MOL0     C30119   6.665   1.594   5.852  0.5491  0.6065  0.3207
  224MOL0     C30120   6.640   1.748   5.878  0.0108 -0.7062  0.3125
  224MOL0     C30121   6.758   1.806   5.962  0.3352  1.3942  1.0083
  224MOL0     N30122   6.768   1.752   6.097 -0.9344  0.2765 -0.1579
  224MOL0     C30123   6.767   1.842   6.199  0.3058 -0.2875  0.0210
  224MOL0     C30124   6.845   1.783   6.297 -0.2297  0.2333  0.3040
  224MOL0     C30125   6.867   1.839   6.438 -0.2897  0.1078 -0.1967
  224MOL0     C30126   6.950   1.964   6.455  0.6481 -1.0541 -0.6466
  224MOL0     C30127   7.103   1.932   6.447  1.3724 -0.5098 -0.3340
  224MOL0     C30128   7.193   2.034   6.505  0.9592  0.6087  0.0552
  224MOL0     O30129   7.223   2.136   6.418  0.4342 -0.5725  0.4079
  224MOL0     C30130   7.204   2.265   6.468  0.7387  0.9902  0.5602
  224MOL0     C30131   7.086   2.300   6.542 -0.6772 -0.1057  1.3338
  224MOL0     C30132   7.070   2.432   6.596 -0.3126 -0.8083  1.0069
  224MOL0     C30133   6.960   2.473   6.697 -0.2200  0.1813  0.0633
  224MOL0     C30134   7.172   2.531   6.566 -0.4368 -0.0094 -0.4764
  224MOL0     C30135   7.162   2.679   6.604 -0.5774  0.1401  0.4536
  224MOL0     O30136   7.278   2.753   6.594 -1.1279 -0.7206 -0.1350
  224MOL0     C30137   7.272   2.882   6.549 -0.1703  0.5237 -0.3268
  224MOL0     C30138   7.376   2.904   6.447  0.8050 -0.4201 -0.5569
  224MOL0     C30139   7.391   3.039   6.401 -0.6383  0.4239  0.4252
  224MOL0     C30140   7.324   3.142   6.452 -0.1893 -0.3499  0.0699
  224MOL0     O30141   7.345   3.274   6.417  1.0056  0.4802 -0.5708
  224MOL0     C30142   7.318   3.390   6.502 -0.2159 -0.2334  0.5117
  224MOL0     C30143   7.367   3.519   6.412  0.3694  0.7196  0.7523
  224MOL0     C30144   7.325   3.648   6.474  1.0584  0.6384  0.2352
  224MOL0     C30145   7.386   3.766   6.400 -0.0284  0.5578  0.2854
  224MOL0     C30146   7.358   3.899   6.462 -0.7463  0.0364  0.3808
  224MOL0     C30147   7.421   3.902   6.604  0.6547 -0.1032 -0.0335
  224MOL0     C30148   7.437   4.033   6.669 -0.4157  0.1318 -0.0438
  224MOL0     C30149   7.474   4.028   6.818 -0.3914 -0.5917  0.1521
  224MOL0    Cl30150   7.488   4.196   6.884  0.0320  0.1177  0.2231
  224MOL0     C30151   7.231   3.119   6.552  0.1905  0.0775  0.6907
  224MOL0     C30152   7.207   2.991   6.598  0.7228 -0.8142 -0.2967
  224MOL0     O30153   7.067   2.724   6.661  0.2285  0.2613  0.2448
  224MOL0     C30154   7.273   2.492   6.476 -0.3921 -0.5709 -0.8379
  224MOL0     C30155   7.289   2.366   6.428 -0.1024  0.2590  0.5043
  224MOL0     N30156   6.894   1.662   6.250 -0.3855 -0.0582 -0.8348
  224MOL0     N30157   6.846   1.642   6.134  0.6519  0.6147  1.0970
  224MOL0     C30158   6.043   1.227   5.365 -0.9582  0.4943  0.0440
  224MOL0     C30159   5.946   1.201   5.268  0.7730  0.0042  0.3177
  224MOL0     C30160   5.665   1.092   4.978  0.8104 -0.0085 -0.3055
  224MOL0     C30161   5.548   1.017   4.999  0.1477  0.6488 -0.7617
  224MOL0     C30162   5.435   1.038   4.921 -0.2349 -0.1905 -0.0820
  224MOL0     C30163   5.427   1.121   4.804 -0.0689 -0.4015  0.1259
  224MOL0     O30164   5.316   1.154   4.737  0.4316 -0.5743 -0.3180
  224MOL0     C30165   5.176   1.109   4.755  0.2851 -0.1160  1.0958
  224MOL0     C30166   5.087   1.224   4.803 -0.8556  0.2304  0.6246
  224MOL0     C30167   4.935   1.211   4.791 -0.3974 -0.5565 -0.3896
  224MOL0     C30168   4.870   1.127   4.687 -0.0852 -0.0122  0.7785
  224MOL0     C30169   4.882   1.177   4.550 -0.3850 -0.6240 -0.6475
  224MOL0     C30170   4.917   1.233   4.448  0.5620 -0.7739  0.3170
  224MOL0     C30171   5.544   1.191   4.780  0.3641  0.3720  0.1583
  224MOL0     C30172   5.654   1.185   4.872 -0.6170 -0.9123 -0.6353
  224MOL0     H30173   6.128   1.112   5.005  0.9389  0.1392  0.2290
  224MOL0     H30174   6.327   1.126   5.201 -0.4501 -0.6329 -1.2525
  224MOL0     H30175   6.429   1.115   5.382  4.9055 -0.5656  2.4144
  224MOL0     H30176   6.427   1.296   5.334 -0.5811  3.7809  3.4140
  224MOL0     H30177   6.491   1.153   5.600  1.4048  1.6218  1.9171
  224MOL0     H30178   6.595   1.244   5.500 -0.3906 -1.7424 -1.2204
  224MOL0     H30179   6.470   1.457   5.525  0.8440 -0.4417 -0.5070
  224MOL0     H30180   6.365   1.380   5.646  0.2416  1.0721  0.6686
  224MOL0     H30181   6.584   1.339   5.786  1.9452  1.3967  1.7753
  224MOL0     H30182   6.676   1.416   5.660 -0.7382  2.2080 -0.1792
  224MOL0     H30183   6.537   1.623   5.677 -5.3446 -2.0047 -0.5781
  224MOL0     H30184   6.456   1.550   5.816 -0.4624  0.4293 -0.2080
  224MOL0     H30185   6.659   1.537   5.945 -3.3753  1.8863  1.0333
  224MOL0     H30186   6.758   1.576   5.798  0.0654  0.1817 -0.4040
  224MOL0     H30187   6.649   1.809   5.787  1.8324 -2.1641 -0.5527
  224MOL0     H30188   6.547   1.778   5.928  0.5781  0.1652  0.8761
  224MOL0     H30189   6.752   1.915   5.965 -4.6616  1.4113 -0.5891
  224MOL0     H30190   6.851   1.784   5.910 -0.3678  0.3961  0.1488
  224MOL0     H30191   6.709   1.933   6.209  1.0459 -0.0627  4.0880
  224MOL0     H30192   6.764   1.855   6.469 -0.6585 -1.6907 -0.3721
  224MOL0     H30193   6.906   1.761   6.505 -0.3696  0.4715  0.2766
  224MOL0     H30194   6.940   1.994   6.559  2.8984  0.5640 -0.8086
  224MOL0     H30195   6.916   2.037   6.380 -0.3830 -2.5954 -1.7342
  224MOL0     H30196   7.126   1.903   6.344 -1.8242 -2.1959 -0.6919
  224MOL0     H30197   7.109   1.839   6.505 -1.5085 -2.0104 -2.1813
  224MOL0     H30198   7.284   1.993   6.548 -0.5012 -0.9608  1.8458
  224MOL0     H30199   7.146   2.068   6.598  1.3798 -0.6550  0.7439
  224MOL0     H30200   7.006   2.234   6.572 -2.5011  0.9112 -0.9935
  224MOL0     H30201   7.007   2.520   6.785 -1.0667  1.0706  0.0595
  224MOL0     H30202   6.897   2.549   6.651 -0.0238 -1.1103 -2.4744
  224MOL0     H30203   6.916   2.380   6.733  0.5722 -0.8859 -1.6098
  224MOL0     H30204   7.428   2.821   6.401  2.9286  0.2087  0.6015
  224MOL0     H30205   7.459   3.069   6.322 -0.2395  0.3941  0.7548
  224MOL0     H30206   7.210   3.392   6.520 -0.2657 -3.2097  1.1724
  224MOL0     H30207   7.368   3.364   6.596 -2.1700 -0.5707  1.5061
  224MOL0     H30208   7.476   3.514   6.400  0.2864  0.9673 -0.1118
  224MOL0     H30209   7.327   3.518   6.311 -1.7077  0.9753  1.5229
  224MOL0     H30210   7.364   3.648   6.576  1.9113 -4.0953  0.1379
  224MOL0     H30211   7.216   3.640   6.477  1.1803 -1.8272  1.0513
  224MOL0     H30212   7.492   3.741   6.392  0.5997  2.5932  1.4116
  224MOL0     H30213   7.339   3.762   6.302 -1.3076  0.7242  0.8717
  224MOL0     H30214   7.250   3.913   6.458 -0.6140  2.8239  3.0915
  224MOL0     H30215   7.386   3.989   6.408 -2.8202 -0.3050 -1.3639
  224MOL0     H30216   7.369   3.838   6.676 -0.0969  0.7978  0.2483
  224MOL0     H30217   7.521   3.862   6.584 -0.4344 -2.4125 -1.2306
  224MOL0     H30218   7.345   4.092   6.662  0.4748  1.3565 -3.5633
  224MOL0     H30219   7.518   4.083   6.615 -1.0434 -0.8382 -2.0141
  224MOL0     H30220   7.562   3.964   6.826 -0.3906 -1.4051 -3.9968
  224MOL0     H30221   7.395   3.964   6.859  0.9315 -2.6096 -0.2885
  224MOL0     H30222   7.164   3.195   6.591 -1.1044 -2.3168  3.5405
  224MOL0     H30223   7.130   2.980   6.674  1.2788 -1.6006  0.1722
  224MOL0     H30224   7.355   2.555   6.442  0.3170 -1.3002 -0.5161
  224MOL0     H30225   7.377   2.344   6.369 -0.5327 -1.7688  0.5645
  224MOL0     H30226   6.019   1.270   5.461 -1.4661 -1.3935  0.8138
  224MOL0     H30227   5.844   1.225   5.294  0.4777 -0.1825 -0.6205
  224MOL0     H30228   5.547   0.942   5.077 -2.2854 -0.0703 -1.3732
  224MOL0     H30229   5.353   0.985   4.968 -1.5390  0.5020 -1.4935
  224MOL0     H30230   5.140   1.067   4.661  0.6993  0.6110  0.5934
  224MOL0     H30231   5.184   1.022   4.820  0.3018 -2.0977 -1.4267
  224MOL0     H30232   5.111   1.312   4.744  3.0539 -0.7615  0.4260
  224MOL0     H30233   5.116   1.241   4.907  2.6559 -2.2131  0.2517
  224MOL0     H30234   4.894   1.313   4.788  0.6663 -0.1377 -2.8864
  224MOL0     H30235   4.908   1.177   4.891 -0.0860  1.9371  0.6146
  224MOL0     H30236   4.766   1.134   4.721  0.5650  0.4393  2.7906
  224MOL0     H30237   4.912   1.027   4.701 -0.1275  0.0304  1.1982
  224MOL0     H30238   4.950   1.271   4.353 -2.1897 -0.7846 -0.7412
  224MOL0     H30239   5.552   1.262   4.698 -2.3405  1.1466  0.4572
  224MOL0     H30240   5.733   1.253   4.842 -3.0744  1.1729 -2.9585
  225MOL0     O30241  10.376   9.698   7.617  0.0298 -0.1886  0.6078
  225MOL0     C30242  10.322   9.734   7.713  0.5238 -0.1302 -0.5737
  225MOL0     O30243  10.179   9.762   7.726 -0.7271  0.1780 -0.5445
  225MOL0     C30244  10.084   9.751   7.630 -0.0115 -0.5617 -0.1748
  225MOL0     C30245   9.952   9.735   7.662 -0.8402 -0.6778 -1.0102
  225MOL0     C30246   9.850   9.723   7.564 -0.0488  0.9020  0.4835
  225MOL0     C30247   9.893   9.736   7.428  0.0189  0.3007 -1.0774
  225MOL0     O30248   9.804   9.712   7.327 -0.2199 -0.2745  0.5616
  225MOL0     C30249   9.790   9.572   7.309 -0.0418 -0.2149 -0.0467
  225MOL0     C30250   9.717   9.559   7.174 -0.1247 -0.1729  1.0378
  225MOL0     C30251   9.563   9.608   7.181 -0.0989  0.2460 -0.9138
  225MOL0     C30252   9.500   9.649   7.050  0.0680  0.8144  0.1773
  225MOL0     C30253   9.352   9.680   7.075 -0.8323 -0.9831 -0.0500
  225MOL0     C30254   9.294   9.759   6.958  0.4649  0.1869 -0.4632
  225MOL0     C30255   9.140   9.769   7.010  0.6326 -0.0511 -0.0283
  225MOL0     C30256   9.082   9.880   6.916 -0.0444  0.1119  0.0799
  225MOL0     N30257   9.100  10.012   6.969 -0.0918  0.3863  0.2786
  225MOL0     C30258   9.032  10.076   7.071  1.2062 -0.5264 -0.3560
  225MOL0     C30259   9.060  10.207   7.053  0.8245 -1.0734  0.4307
  225MOL0     C30260   9.008  10.299   7.150  1.3787  0.4193 -0.0123
  225MOL0     C30261   9.124  10.384   7.213  0.9502 -0.4819 -0.1537
  225MOL0     C30262   9.177  10.302   7.323  0.5318  0.9088  0.4422
  225MOL0     C30263   9.129  10.317   7.467  0.2071 -0.2118 -0.5297
  225MOL0     O30264   9.204  10.224   7.552 -0.2317  0.6260  0.2692
  225MOL0     C30265   9.126  10.180   7.658 -0.0246 -0.3674  0.3572
  225MOL0     C30266   9.071  10.053   7.643  0.4978 -0.2929  0.0324
  225MOL0     C30267   8.987   9.995   7.746  0.4508  0.2906 -0.5211
  225MOL0     C30268   8.907   9.874   7.699 -0.4474  0.1238  0.3094
  225MOL0     C30269   8.977  10.055   7.876  0.3012 -0.2035  0.2803
  225MOL0     C30270   8.919   9.981   7.990 -0.2378 -0.6238 -0.5135
  225MOL0     O30271   8.874  10.063   8.094  0.0561  0.4289  0.1896
  225MOL0     C30272   8.803  10.008   8.197  0.0776  0.7862 -0.5967
  225MOL0     C30273   8.665  10.012   8.220 -0.5625 -1.2593 -1.1658
  225MOL0     C30274   8.621   9.941   8.336 -0.0947 -0.3884  0.7439
  225MOL0     C30275   8.700   9.876   8.428 -0.1975  0.3067 -0.5400
  225MOL0     O30276   8.655   9.809   8.541  0.4089 -0.2894  1.0095
  225MOL0     C30277   8.520   9.773   8.561  0.2717 -0.9326 -0.0560
  225MOL0     C30278   8.498   9.743   8.711 -0.4337  0.0566 -0.9072
  225MOL0     C30279   8.407   9.612   8.731 -0.5242 -1.3725 -0.7759
  225MOL0     C30280   8.377   9.591   8.884 -0.1985 -0.0683 -0.3018
  225MOL0     C30281   8.303   9.459   8.884 -0.5870  1.1559  0.1561
  225MOL0     C30282   8.276   9.422   9.028  0.3056 -0.5708  0.2042
  225MOL0     C30283   8.189   9.296   9.033  0.6914  0.0745 -0.2465
  225MOL0     C30284   8.124   9.284   9.171  0.0372  0.2968 -0.8540
  225MOL0    Cl30285   8.246   9.306   9.297  0.2235 -0.3368 -0.1945
  225MOL0     C30286   8.836   9.871   8.394  0.4278 -0.5919  0.8897
  225MOL0     C30287   8.885   9.939   8.296 -0.0907 -0.2148 -0.1352
  225MOL0     O30288   8.923   9.860   7.992 -0.4625 -0.5345 -1.0492
  225MOL0     C30289   9.057  10.174   7.894  1.0267  1.0235  0.8164
  225MOL0     C30290   9.122  10.242   7.788  0.9623  0.0956 -0.5976
  225MOL0     N30291   9.145  10.225   6.952  0.7112  0.0253  0.3447
  225MOL0     N30292   9.171  10.111   6.907  0.4757 -0.0729 -1.2011
  225MOL0     C30293  10.020   9.774   7.390 -0.2681 -0.5069  0.1689
  225MOL0     C30294  10.116   9.772   7.488  0.1823  0.1145 -0.7550
  225MOL0     C30295  10.411   9.731   7.837  0.8719  0.2198 -0.4135
  225MOL0     C30296  10.543   9.676   7.847  0.5233 -0.2237  0.1027
  225MOL0     C30297  10.612   9.655   7.970  0.7395  0.1876  0.3299
  225MOL0     C30298  10.562   9.714   8.076  0.8864  0.1137  0.7152
  225MOL0     O30299  10.643   9.713   8.188  0.7081  0.1811  0.3216
  225MOL0     C30300  10.600   9.647   8.307  0.0775 -0.1838 -0.7964
  225MOL0     C30301  10.675   9.705   8.432  0.0372  0.0474  0.1411
  225MOL0     C30302  10.649   9.635   8.559 -1.2847  0.1781 -0.3669
  225MOL0     C30303  10.533   9.681   8.647  0.3622 -0.0490 -0.2920
  225MOL0     C30304  10.410   9.610   8.610  0.2084 -0.4817  0.2848
  225MOL0     C30305  10.314   9.545   8.578 -0.3585 -1.0948 -0.5442
  225MOL0     C30306  10.431   9.761   8.079 -0.0035  0.0387  0.5743
  225MOL0     C30307  10.357   9.769   7.959 -0.2094  0.2600  0.8785
  225MOL0     H30308   9.921   9.725   7.765  3.2543 -1.0492  0.3750
  225MOL0     H30309   9.747   9.716   7.597 -0.6417  3.2132 -0.6016
  225MOL0     H30310   9.890   9.530   7.300  0.1191 -0.8545  3.4063
  225MOL0     H30311   9.749   9.518   7.394  1.2529  1.7795  1.9519
  225MOL0     H30312   9.767   9.628   7.105 -2.7430 -0.8428 -1.7666
  225MOL0     H30313   9.729   9.456   7.139 -1.4376  1.0039 -3.6054
  225MOL0     H30314   9.500   9.535   7.232 -0.5856 -0.0911 -1.9529
  225MOL0     H30315   9.571   9.697   7.244  0.3575 -0.0233 -0.5854
  225MOL0     H30316   9.553   9.727   6.994  0.8406 -0.2102 -0.5544
  225MOL0     H30317   9.512   9.556   6.994  0.9570  0.5918  0.7242
  225MOL0     H30318   9.310   9.578   7.072 -0.4188 -1.2288 -4.6222
  225MOL0     H30319   9.349   9.734   7.170 -1.0897 -1.3668  0.1644
  225MOL0     H30320   9.343   9.855   6.938 -0.1767  0.3722 -1.2104
  225MOL0     H30321   9.284   9.689   6.875 -1.4654 -1.8669  1.3567
  225MOL0     H30322   9.099   9.670   6.987  0.6659  0.5403 -3.0592
  225MOL0     H30323   9.116   9.790   7.115 -0.6834 -2.9916  0.3749
  225MOL0     H30324   8.977   9.851   6.903  0.4996 -1.9599 -0.0446
  225MOL0     H30325   9.115   9.875   6.812 -1.2029 -0.2427 -0.2856
  225MOL0     H30326   8.970  10.026   7.145  0.4423  0.3587 -0.3717
  225MOL0     H30327   8.939  10.363   7.094  1.0276 -0.8337 -1.0613
  225MOL0     H30328   8.938  10.258   7.223 -3.5515  2.0566 -3.3579
  225MOL0     H30329   9.077  10.477   7.245 -2.6285 -0.8908 -3.5157
  225MOL0     H30330   9.205  10.409   7.144  1.1556  2.3277  0.9742
  225MOL0     H30331   9.287  10.307   7.328  0.4482  2.5238  1.6177
  225MOL0     H30332   9.170  10.197   7.293  0.4070  1.2123 -0.6388
  225MOL0     H30333   9.022  10.293   7.466  0.3429 -0.8425 -0.7277
  225MOL0     H30334   9.142  10.419   7.504  1.9060  0.3513 -2.4767
  225MOL0     H30335   9.077   9.998   7.550 -1.1532  0.1045 -0.3429
  225MOL0     H30336   8.895   9.880   7.590 -0.1655 -0.6175  0.2353
  225MOL0     H30337   8.971   9.791   7.727 -0.0389  0.1452 -0.5086
  225MOL0     H30338   8.809   9.865   7.745  1.2109 -5.4867  3.7650
  225MOL0     H30339   8.602  10.052   8.141 -0.6645 -0.9614 -0.9343
  225MOL0     H30340   8.513   9.936   8.345 -0.2813  1.8811  0.4688
  225MOL0     H30341   8.454   9.856   8.538 -0.9554 -1.8198  0.1336
  225MOL0     H30342   8.476   9.688   8.508  0.1298 -0.5664 -0.5250
  225MOL0     H30343   8.592   9.726   8.764 -0.1520  0.3658 -1.3045
  225MOL0     H30344   8.440   9.824   8.755 -2.5126 -2.9124  2.4618
  225MOL0     H30345   8.457   9.529   8.680  1.2282  0.0514 -1.4624
  225MOL0     H30346   8.318   9.604   8.667 -3.0162 -2.0167  2.4967
  225MOL0     H30347   8.475   9.582   8.932  0.5253  0.7178 -1.5586
  225MOL0     H30348   8.326   9.671   8.939 -1.2767 -0.8217 -0.1909
  225MOL0     H30349   8.379   9.392   8.841 -0.7963  1.0278 -0.0178
  225MOL0     H30350   8.213   9.454   8.822  1.9841 -2.0875 -3.8591
  225MOL0     H30351   8.372   9.406   9.079  1.2258  1.3707 -0.8036
  225MOL0     H30352   8.228   9.500   9.087 -1.1435 -2.3806  1.5573
  225MOL0     H30353   8.250   9.205   9.030  1.0367  0.1833  1.7742
  225MOL0     H30354   8.108   9.300   8.959 -0.6443  2.6543  1.2211
  225MOL0     H30355   8.068   9.190   9.166  2.1001 -1.0067 -0.6344
  225MOL0     H30356   8.049   9.362   9.188 -0.2411 -0.5169  2.2711
  225MOL0     H30357   8.904   9.805   8.447  0.0351  0.0440  2.2288
  225MOL0     H30358   8.991   9.917   8.287 -0.1564 -1.4245  1.4982
  225MOL0     H30359   9.052  10.224   7.990  1.0104  0.0991  1.3075
  225MOL0     H30360   9.169  10.337   7.812 -4.5254  3.0335  0.1904
  225MOL0     H30361  10.032   9.798   7.285 -0.2444 -0.3893  0.1980
  225MOL0     H30362  10.213   9.810   7.456  0.3527  0.3454  0.0303
  225MOL0     H30363  10.585   9.643   7.753 -1.9570  1.1571 -1.5874
  225MOL0     H30364  10.713   9.617   7.970  0.8938  0.5613  1.2781
  225MOL0     H30365  10.492   9.660   8.306  0.2686  1.8938 -2.8700
  225MOL0     H30366  10.642   9.548   8.287  0.5605  0.4423 -3.2787
  225MOL0     H30367  10.657   9.812   8.450 -0.3591 -0.2781  1.7505
  225MOL0     H30368  10.778   9.693   8.398  0.9921  1.0454  2.4775
  225MOL0     H30369  10.734   9.645   8.627 -1.4929 -0.2221 -0.0423
  225MOL0     H30370  10.650   9.527   8.543  0.1355  0.1696 -0.3460
  225MOL0     H30371  10.520   9.790   8.641  3.5791  0.3588 -2.8448
  225MOL0     H30372  10.549   9.671   8.754  0.7852  2.9769  0.0254
  225MOL0     H30373  10.222   9.495   8.556 -2.5145  2.1476  0.2600
  225MOL0     H30374  10.394   9.792   8.177 -0.0048 -0.4977  0.7422
  225MOL0     H30375  10.254   9.802   7.968 -1.5584 -2.9157 -1.2404
  226MOL0     O30376   4.136   9.957   7.942  0.1922 -0.3474  0.0546
  226MOL0     C30377   4.150   9.843   7.998 -0.4864  0.6823  0.4671
  226MOL0     O30378   4.242   9.816   8.092 -0.3386 -0.0293 -0.6261
  226MOL0     C30379   4.296   9.923   8.165 -0.6335  0.0946  0.7429
  226MOL0     C30380   4.435   9.915   8.201 -0.1367  0.1995 -0.4530
  226MOL0     C30381   4.487  10.008   8.297  0.1255  0.0944  0.6765
  226MOL0     C30382   4.405  10.111   8.337 -0.3103 -0.6869 -0.2786
  226MOL0     O30383   4.464  10.204   8.431  0.3332 -0.4158  0.9613
  226MOL0     C30384   4.419  10.338   8.439  0.7726  0.4988  0.5567
  226MOL0     C30385   4.441  10.419   8.313  0.1834  0.5701 -0.5913
  226MOL0     C30386   4.442  10.576   8.330 -0.2582  0.7222  0.8023
  226MOL0     C30387   4.502  10.635   8.201  0.2596  0.7313  0.2342
  226MOL0     C30388   4.442  10.776   8.187 -0.1617 -0.7422 -0.1347
  226MOL0     C30389   4.517  10.848   8.068 -0.6495  0.2070  0.5861
  226MOL0     C30390   4.468  10.993   8.056 -0.4687  0.0369 -0.2838
  226MOL0     C30391   4.376  11.007   7.930 -0.6857  0.1736 -0.1703
  226MOL0     N30392   4.244  10.952   7.940  0.3249 -0.0912  0.5075
  226MOL0     C30393   4.147  10.981   8.028 -0.6082  0.0923  0.4271
  226MOL0     C30394   4.047  10.899   7.991  0.0830  0.2142 -0.2062
  226MOL0     C30395   3.906  10.895   8.062 -0.6258  0.5115  0.0401
  226MOL0     C30396   3.894  10.835   8.206 -0.1474  0.0460  0.7778
  226MOL0     C30397   3.758  10.872   8.274 -0.1473  0.0712 -0.7346
  226MOL0     C30398   3.732  10.810   8.415  0.1358 -0.0522  0.5498
  226MOL0     O30399   3.774  10.892   8.516 -0.6081 -0.4275  0.2675
  226MOL0     C30400   3.884  10.875   8.589  0.4595 -0.3085  1.1833
  226MOL0     C30401   3.988  10.787   8.562 -0.2259 -0.9933 -0.1959
  226MOL0     C30402   4.104  10.779   8.650 -0.4357  0.8059 -0.2035
  226MOL0     C30403   4.212  10.689   8.602 -1.2257 -0.4408 -0.4968
  226MOL0     C30404   4.102  10.853   8.775  1.0628  0.2598  0.4544
  226MOL0     C30405   4.214  10.837   8.868 -0.2969 -0.6010  1.0475
  226MOL0     O30406   4.238  10.953   8.948  0.6905 -0.1799  0.5472
  226MOL0     C30407   4.361  10.961   9.002 -0.1207 -0.3185 -0.3022
  226MOL0     C30408   4.405  10.872   9.098 -0.1242  0.6610  0.1299
  226MOL0     C30409   4.534  10.883   9.152  1.3367 -0.2805  0.9632
  226MOL0     C30410   4.623  10.976   9.109  0.4722  1.1317 -0.1104
  226MOL0     O30411   4.754  10.997   9.156  1.0853 -0.1274  0.6132
  226MOL0     C30412   4.769  10.985   9.294  0.6611  0.9297 -0.6689
  226MOL0     C30413   4.893  11.063   9.348  0.1432 -0.8865 -0.8327
  226MOL0     C30414   5.032  11.010   9.304  0.3497 -1.6396  0.4599
  226MOL0     C30415   5.159  11.068   9.376  0.2393  0.6411  0.0148
  226MOL0     C30416   5.273  10.981   9.349  0.0371  0.3200 -0.6749
  226MOL0     C30417   5.404  10.999   9.451 -0.3112  0.0874  1.1854
  226MOL0     C30418   5.496  11.111   9.399 -1.1267 -0.1898  0.2650
  226MOL0     C30419   5.470  11.246   9.458  0.6387 -0.9627 -0.6263
  226MOL0    Cl30420   5.583  11.369   9.370 -0.2681 -0.1218  0.2149
  226MOL0     C30421   4.565  11.079   9.033  0.4421 -0.7735 -0.2220
  226MOL0     C30422   4.434  11.072   8.974 -0.5194  0.2285 -0.1155
  226MOL0     O30423   4.281  10.735   8.857  0.2962  0.3385  0.4897
  226MOL0     C30424   3.996  10.929   8.806 -0.6364  0.0661 -0.2024
  226MOL0     C30425   3.886  10.945   8.711 -0.0890  0.2559 -0.9396
  226MOL0     N30426   4.078  10.840   7.865  0.6517 -0.1349 -0.1439
  226MOL0     N30427   4.196  10.867   7.839  0.0116 -0.9462 -0.5209
  226MOL0     C30428   4.279  10.125   8.290  0.2940  0.0915 -1.0987
  226MOL0     C30429   4.225  10.037   8.204 -0.8901 -0.2415  0.7872
  226MOL0     C30430   4.076   9.724   7.948 -0.2391  1.0458  0.2359
  226MOL0     C30431   4.128   9.593   7.980  0.8596  0.2308 -0.1947
  226MOL0     C30432   4.056   9.481   7.930 -0.2028 -0.9570 -0.0655
  226MOL0     C30433   3.949   9.497   7.842 -0.2318  0.5408  1.0990
  226MOL0     O30434   3.875   9.396   7.772  0.1669 -0.2425  1.0215
  226MOL0     C30435   3.917   9.259   7.789  0.2198 -0.3652  0.2116
  226MOL0     C30436   3.836   9.173   7.682  0.3686  0.6024  0.6716
  226MOL0     C30437   3.692   9.157   7.732  0.4888  0.9921  0.8611
  226MOL0     C30438   3.685   9.045   7.845  0.7397  0.1911  0.2165
  226MOL0     C30439   3.699   8.909   7.790 -0.6388  0.1444 -0.4758
  226MOL0     C30440   3.685   8.798   7.745 -0.4613  0.1512 -0.0006
  226MOL0     C30441   3.918   9.625   7.801 -0.1814  0.0624 -0.9110
  226MOL0     C30442   3.986   9.741   7.851  0.7209 -0.3620  0.0629
  226MOL0     H30443   4.506   9.836   8.181  0.0262  0.0026  0.8361
  226MOL0     H30444   4.586  10.002   8.341 -0.9773 -0.1258  3.3529
  226MOL0     H30445   4.309  10.340   8.444  0.7803  1.7573  0.5640
  226MOL0     H30446   4.468  10.369   8.531 -0.7137 -1.8695  2.2494
  226MOL0     H30447   4.538  10.386   8.275  0.7679 -1.3916  2.3175
  226MOL0     H30448   4.375  10.386   8.232 -0.7444 -1.7777  0.9983
  226MOL0     H30449   4.341  10.615   8.341 -0.2137  0.1971  3.9864
  226MOL0     H30450   4.492  10.604   8.423 -2.3781  2.4229  1.5004
  226MOL0     H30451   4.609  10.623   8.180 -0.3785  0.5169 -3.5386
  226MOL0     H30452   4.464  10.578   8.116  1.8121  2.0064 -1.4039
  226MOL0     H30453   4.338  10.781   8.155  0.2707  0.0727 -1.5067
  226MOL0     H30454   4.446  10.830   8.282 -1.4273  1.9088 -1.5046
  226MOL0     H30455   4.624  10.852   8.092 -0.7014  0.1232  0.8308
  226MOL0     H30456   4.506  10.797   7.972 -0.2801  1.7648 -0.3344
  226MOL0     H30457   4.397  11.017   8.135  0.5251  0.1499  0.5988
  226MOL0     H30458   4.552  11.063   8.054  0.3492 -0.8787  0.7738
  226MOL0     H30459   4.422  10.958   7.844 -2.9860  1.6006 -2.3257
  226MOL0     H30460   4.366  11.110   7.896 -1.1054  0.2378  0.1399
  226MOL0     H30461   4.155  11.045   8.115  1.7049 -0.9906  1.1003
  226MOL0     H30462   3.875  10.999   8.062 -1.1781  0.5047  4.4399
  226MOL0     H30463   3.836  10.836   8.000 -1.1328  0.7788  0.3532
  226MOL0     H30464   3.972  10.894   8.257  0.8998  0.1633 -0.8946
  226MOL0     H30465   3.923  10.730   8.220 -0.2169  0.1860  2.1265
  226MOL0     H30466   3.672  10.854   8.208  0.4549 -0.2662 -1.4340
  226MOL0     H30467   3.757  10.981   8.290 -3.3947  0.1884 -0.9743
  226MOL0     H30468   3.772  10.709   8.414  0.2700 -0.0473 -1.9997
  226MOL0     H30469   3.623  10.811   8.420  0.0378  0.6239 -1.0629
  226MOL0     H30470   3.983  10.730   8.469  2.3631 -0.5581 -0.6793
  226MOL0     H30471   4.183  10.641   8.508 -1.5987 -0.1713 -0.5225
  226MOL0     H30472   4.299  10.752   8.582 -0.7338 -1.1605 -0.6849
  226MOL0     H30473   4.228  10.606   8.672  0.7279 -0.7011 -1.1832
  226MOL0     H30474   4.351  10.784   9.129  0.4624  0.7739  1.5563
  226MOL0     H30475   4.563  10.804   9.222  2.7980  2.6110  3.8768
  226MOL0     H30476   4.687  11.016   9.360  0.7230 -2.3056  1.1555
  226MOL0     H30477   4.784  10.878   9.311 -2.9718  0.5751  1.2291
  226MOL0     H30478   4.887  11.171   9.334  3.2773 -0.4101  0.8520
  226MOL0     H30479   4.891  11.051   9.456 -2.5450  2.2722 -0.3726
  226MOL0     H30480   5.047  11.024   9.197  1.4843 -2.1861  0.5355
  226MOL0     H30481   5.032  10.901   9.316  0.5641 -1.7529 -0.5235
  226MOL0     H30482   5.184  11.168   9.338  0.0617 -0.4011 -3.1285
  226MOL0     H30483   5.143  11.073   9.484  1.0512 -2.5700  0.3771
  226MOL0     H30484   5.305  10.996   9.245  0.2074  0.2964 -0.6262
  226MOL0     H30485   5.247  10.876   9.366  0.9349  0.4501  1.9876
  226MOL0     H30486   5.371  11.020   9.553  0.1578  0.2292  1.3094
  226MOL0     H30487   5.452  10.902   9.432 -0.8055 -0.1498  1.1384
  226MOL0     H30488   5.493  11.112   9.290  0.3087 -3.7899  0.0666
  226MOL0     H30489   5.601  11.091   9.422 -2.6024 -5.6295  4.1771
  226MOL0     H30490   5.489  11.239   9.566 -0.4595 -1.6362 -0.4584
  226MOL0     H30491   5.364  11.269   9.448  0.5281 -1.5750 -0.9110
  226MOL0     H30492   4.628  11.158   8.995 -2.2530 -0.5346 -4.9133
  226MOL0     H30493   4.401  11.151   8.908 -3.0268 -1.5850 -1.2263
  226MOL0     H30494   4.004  10.985   8.899  1.2562  1.1675 -0.9728
  226MOL0     H30495   3.791  10.991   8.736 -1.8183 -2.5516 -1.8992
  226MOL0     H30496   4.209  10.204   8.314 -0.6650 -1.1205  0.3671
  226MOL0     H30497   4.124  10.061   8.172 -0.7686  0.4232  0.8947
  226MOL0     H30498   4.191   9.580   8.068 -1.0893 -4.0096  0.8124
  226MOL0     H30499   4.088   9.384   7.969 -0.3169 -0.3818  1.5563
  226MOL0     H30500   4.022   9.257   7.759  0.4578  2.1119  0.6564
  226MOL0     H30501   3.921   9.217   7.890 -2.8999 -0.8082  0.2554
  226MOL0     H30502   3.891   9.079   7.681 -1.7456 -0.6890  0.4432
  226MOL0     H30503   3.820   9.209   7.579 -0.3117  0.7495  0.8200
  226MOL0     H30504   3.638   9.117   7.646  1.5793  0.2385  0.5151
  226MOL0     H30505   3.651   9.257   7.752  1.7360  1.9875 -1.2324
  226MOL0     H30506   3.584   9.043   7.886  0.3449  0.0164 -0.7376
  226MOL0     H30507   3.766   9.044   7.918  1.3765 -0.7332 -0.4706
  226MOL0     H30508   3.689   8.694   7.721 -2.3228  0.6123 -2.6872
  226MOL0     H30509   3.844   9.633   7.721 -1.0087 -2.0453 -0.4143
  226MOL0     H30510   3.970   9.839   7.808 -0.6452 -1.8195 -3.0194
  227MOL0     O30511   6.856   4.215   5.221 -0.1330 -0.9599 -0.2912
  227MOL0     C30512   6.736   4.185   5.239  0.1610  0.3130 -0.5015
  227MOL0     O30513   6.681   4.102   5.338  0.0274  0.4991  0.1734
  227MOL0     C30514   6.769   4.082   5.443 -0.6643  0.5479 -0.3029
  227MOL0     C30515   6.725   4.103   5.576 -0.1158  0.5336  0.7771
  227MOL0     C30516   6.811   4.079   5.683 -0.0104 -0.7612  0.5508
  227MOL0     C30517   6.940   4.027   5.668 -0.3261 -0.6038  0.6323
  227MOL0     O30518   7.000   4.023   5.789  0.3418  0.9408 -1.1464
  227MOL0     C30519   7.120   3.953   5.809  0.6024  0.5890  0.5764
  227MOL0     C30520   7.149   3.962   5.963  0.0475  0.2243 -0.1193
  227MOL0     C30521   7.030   3.916   6.047 -0.1182  0.1929 -0.6038
  227MOL0     C30522   7.076   3.932   6.201 -0.4631  0.9983  0.4598
  227MOL0     C30523   6.969   3.875   6.304  0.7015  0.9865  0.5119
  227MOL0     C30524   6.966   3.721   6.290  0.8591 -0.9244 -0.0067
  227MOL0     C30525   6.888   3.668   6.412  0.2939 -0.6816  0.2056
  227MOL0     C30526   6.878   3.514   6.422  0.5328 -0.5851  0.2121
  227MOL0     N30527   6.828   3.460   6.554 -1.1688 -0.2148  0.3759
  227MOL0     C30528   6.706   3.486   6.615 -1.1191  0.6532  0.5943
  227MOL0     C30529   6.688   3.412   6.719 -1.1086 -0.3281 -0.1980
  227MOL0     C30530   6.565   3.405   6.802 -0.2052 -0.3899 -1.4909
  227MOL0     C30531   6.458   3.315   6.745 -1.1967 -0.7294  1.1838
  227MOL0     C30532   6.518   3.182   6.711  0.7724 -0.0444  0.0254
  227MOL0     C30533   6.397   3.085   6.694  0.5654 -0.2900 -0.6152
  227MOL0     O30534   6.319   3.070   6.816 -1.0757 -0.3899 -0.0312
  227MOL0     C30535   6.199   3.004   6.812 -0.6338  0.3224  0.1917
  227MOL0     C30536   6.163   2.894   6.736  0.6349 -1.0533 -0.5008
  227MOL0     C30537   6.036   2.833   6.737 -0.1945 -0.5076  0.1946
  227MOL0     C30538   6.024   2.700   6.664  0.1446 -0.4727  0.3518
  227MOL0     C30539   5.940   2.890   6.827  1.0295  0.5438  0.3678
  227MOL0     C30540   5.795   2.848   6.825 -0.4669  0.3578 -0.6840
  227MOL0     O30541   5.704   2.943   6.869 -0.1442 -0.8693  0.2822
  227MOL0     C30542   5.578   2.909   6.877  0.3442  0.2194  0.4910
  227MOL0     C30543   5.515   2.896   7.003 -0.0762 -0.6434  0.1943
  227MOL0     C30544   5.380   2.862   7.003 -0.0497 -0.6970 -0.4602
  227MOL0     C30545   5.310   2.846   6.886  0.4935 -0.8211  0.7034
  227MOL0     O30546   5.177   2.806   6.875 -0.1318  0.0354  0.2365
  227MOL0     C30547   5.086   2.871   6.968 -0.2596  0.0639 -0.0197
  227MOL0     C30548   4.954   2.797   6.945 -0.0821  0.5284  0.2051
  227MOL0     C30549   4.885   2.825   6.812  0.3114 -0.4469 -0.2768
  227MOL0     C30550   4.732   2.828   6.833  0.6544 -0.3386  0.7083
  227MOL0     C30551   4.653   2.847   6.702  0.0130  0.0587 -0.2792
  227MOL0     C30552   4.525   2.770   6.708 -0.3516  0.5910 -0.3198
  227MOL0     C30553   4.403   2.851   6.758  0.7821  0.5047 -0.9129
  227MOL0     C30554   4.326   2.900   6.637 -0.8307 -0.3109  0.1652
  227MOL0    Cl30555   4.193   3.003   6.686 -0.0008  0.3016  0.3989
  227MOL0     C30556   5.377   2.864   6.756  1.3753  0.2102 -0.7836
  227MOL0     C30557   5.511   2.901   6.753 -0.8165  0.7034 -0.4197
  227MOL0     O30558   5.769   2.729   6.817  0.2561 -0.8401 -0.9491
  227MOL0     C30559   5.976   2.985   6.917 -0.5206 -0.8354  0.5214
  227MOL0     C30560   6.101   3.044   6.901 -0.3245 -0.3500 -0.8849
  227MOL0     N30561   6.813   3.365   6.742 -0.8542 -0.2184 -0.5374
  227MOL0     N30562   6.898   3.387   6.643  0.9582 -1.0966 -0.4663
  227MOL0     C30563   6.979   3.988   5.534  0.1576  0.1410 -0.2791
  227MOL0     C30564   6.891   4.014   5.426 -0.1936 -0.4291 -0.1548
  227MOL0     C30565   6.646   4.263   5.155  1.0477 -0.0799 -0.2332
  227MOL0     C30566   6.689   4.310   5.025  1.4538 -0.5237  0.0911
  227MOL0     C30567   6.609   4.386   4.945 -0.0391 -0.2610  0.2180
  227MOL0     C30568   6.484   4.420   4.997 -0.1522 -0.4385  0.6050
  227MOL0     O30569   6.404   4.472   4.905  0.6615 -0.8123  0.1756
  227MOL0     C30570   6.285   4.536   4.951 -0.1085  0.4854 -0.2989
  227MOL0     C30571   6.180   4.606   4.855  0.3441  0.1463 -0.0738
  227MOL0     C30572   6.042   4.646   4.930  0.1541 -0.4124 -0.2199
  227MOL0     C30573   6.074   4.758   5.035 -0.6543  0.2817  0.4035
  227MOL0     C30574   5.966   4.836   5.093 -0.0274  1.2394 -0.2705
  227MOL0     C30575   5.870   4.891   5.142 -0.0422 -0.9015 -0.2837
  227MOL0     C30576   6.450   4.382   5.123  0.1322  0.1320  0.2029
  227MOL0     C30577   6.528   4.309   5.209  0.7076  0.9507  0.0522
  227MOL0     H30578   6.624   4.140   5.592 -1.7531 -1.3431 -3.5749
  227MOL0     H30579   6.761   4.099   5.778 -1.8257 -1.3570 -0.2253
  227MOL0     H30580   7.117   3.850   5.772  2.6807 -0.6666  3.5280
  227MOL0     H30581   7.200   4.002   5.753  0.2255 -2.7408 -3.3057
  227MOL0     H30582   7.243   3.909   5.981  1.1489  2.1047 -0.1082
  227MOL0     H30583   7.179   4.065   5.985  2.8043 -0.2638 -1.1827
  227MOL0     H30584   6.934   3.969   6.038 -1.4914 -1.0072  4.0666
  227MOL0     H30585   7.005   3.814   6.019 -2.0454  0.2112  0.8274
  227MOL0     H30586   7.173   3.882   6.214  1.2800  3.1888 -2.7267
  227MOL0     H30587   7.105   4.035   6.223 -0.2035  1.8685 -3.2737
  227MOL0     H30588   7.003   3.900   6.404 -0.1908 -0.3048  1.1643
  227MOL0     H30589   6.864   3.903   6.292 -0.6270 -3.1667  0.9821
  227MOL0     H30590   6.897   3.689   6.212 -1.0261  1.4359  0.5561
  227MOL0     H30591   7.070   3.688   6.284  0.6204 -1.4140 -2.0243
  227MOL0     H30592   6.932   3.714   6.501 -0.9961 -0.5858  0.8238
  227MOL0     H30593   6.787   3.712   6.410  1.4810  2.3052  0.1821
  227MOL0     H30594   6.979   3.473   6.414  0.5153 -0.9834  1.6970
  227MOL0     H30595   6.820   3.476   6.338  0.5019  2.6565 -1.3675
  227MOL0     H30596   6.626   3.550   6.579 -1.4118  1.3946  2.4438
  227MOL0     H30597   6.596   3.371   6.901 -1.2555 -2.1069 -1.7134
  227MOL0     H30598   6.517   3.503   6.814  0.6159 -0.1773  0.3907
  227MOL0     H30599   6.401   3.364   6.665 -0.4539 -1.2528  0.3115
  227MOL0     H30600   6.379   3.301   6.819 -0.6264  1.2046  2.2432
  227MOL0     H30601   6.580   3.152   6.796 -0.3907 -2.4265  0.0861
  227MOL0     H30602   6.576   3.175   6.619  1.5298 -0.3928  0.5236
  227MOL0     H30603   6.441   2.988   6.667 -0.7627 -0.7315 -1.2726
  227MOL0     H30604   6.338   3.109   6.605 -0.8250 -1.2529  0.0110
  227MOL0     H30605   6.242   2.856   6.672 -1.7932 -1.8418 -3.2602
  227MOL0     H30606   5.919   2.676   6.642 -0.0236 -1.5531  2.1198
  227MOL0     H30607   6.077   2.706   6.569  1.9367 -0.2370  1.3213
  227MOL0     H30608   6.059   2.616   6.725  2.7630 -0.7857 -1.4256
  227MOL0     H30609   5.573   2.924   7.090 -0.7398  1.1372  0.0901
  227MOL0     H30610   5.343   2.853   7.104 -0.9675  0.9046 -0.6321
  227MOL0     H30611   5.127   2.881   7.069  0.0755 -0.0608 -0.1422
  227MOL0     H30612   5.082   2.970   6.922 -0.1266 -0.8049 -1.9790
  227MOL0     H30613   4.960   2.689   6.965 -2.2052 -0.3638 -3.1773
  227MOL0     H30614   4.890   2.836   7.025 -0.7294 -0.7204  0.3217
  227MOL0     H30615   4.907   2.757   6.729  2.3374  2.0172 -1.9370
  227MOL0     H30616   4.908   2.927   6.780  0.8287  0.0663  1.6422
  227MOL0     H30617   4.696   2.737   6.882  2.0293 -1.3398 -0.0770
  227MOL0     H30618   4.703   2.908   6.902 -0.4117 -0.0365 -0.0699
  227MOL0     H30619   4.705   2.798   6.619  0.2059  2.4135 -1.6189
  227MOL0     H30620   4.637   2.950   6.671 -1.0286 -0.4329 -1.4609
  227MOL0     H30621   4.504   2.727   6.610 -2.9961  0.9928 -0.0033
  227MOL0     H30622   4.532   2.677   6.767 -4.5267 -1.9868 -3.3692
  227MOL0     H30623   4.431   2.932   6.825 -1.9885 -0.6599  1.8715
  227MOL0     H30624   4.333   2.789   6.814  1.7944  2.0784  2.2951
  227MOL0     H30625   4.290   2.820   6.572  0.0336 -0.9108  0.4071
  227MOL0     H30626   4.404   2.959   6.587  0.0563  3.0221  4.7873
  227MOL0     H30627   5.317   2.844   6.668  2.4532 -1.5009 -1.1771
  227MOL0     H30628   5.574   2.924   6.668  0.4979 -0.0360  0.3103
  227MOL0     H30629   5.905   3.020   6.991 -0.6404 -0.3763  0.1937
  227MOL0     H30630   6.136   3.112   6.978 -1.3626 -0.4202 -0.3351
  227MOL0     H30631   7.079   3.948   5.518 -0.1498 -0.5080 -0.6677
  227MOL0     H30632   6.926   3.997   5.325 -1.5205 -0.1215 -0.6890
  227MOL0     H30633   6.786   4.282   4.986  2.4168  2.4462  0.1159
  227MOL0     H30634   6.654   4.418   4.852  2.0128 -1.4763  0.7288
  227MOL0     H30635   6.247   4.454   5.013 -3.0121  2.2570  0.4815
  227MOL0     H30636   6.325   4.608   5.024 -0.3888 -0.7947  1.1819
  227MOL0     H30637   6.156   4.557   4.760  2.9692 -0.1412 -0.6740
  227MOL0     H30638   6.232   4.699   4.832  1.9243 -0.9690 -1.3147
  227MOL0     H30639   6.006   4.557   4.982  0.7505  0.1410  1.1908
  227MOL0     H30640   5.958   4.683   4.870 -0.2005  1.4699  1.3286
  227MOL0     H30641   6.136   4.828   4.979 -0.9722  1.9165  1.9945
  227MOL0     H30642   6.130   4.718   5.121 -2.1955  0.7305  1.6701
  227MOL0     H30643   5.787   4.958   5.151 -0.6110 -1.6154 -0.1292
  227MOL0     H30644   6.362   4.412   5.179  0.6575  0.8232  0.6754
  227MOL0     H30645   6.483   4.275   5.301 -1.5716  3.6387  0.0695
  228MOL0     O30646   7.390   2.781   1.581  0.3921 -0.2738  0.4546
  228MOL0     C30647   7.374   2.670   1.521 -0.3049  0.2401  0.2689
  228MOL0     O30648   7.426   2.552   1.562  0.6075 -0.0462 -0.2348
  228MOL0     C30649   7.530   2.555   1.648  0.4795 -0.6843 -0.1137
  228MOL0     C30650   7.658   2.527   1.596  0.3480 -0.5250  0.5616
  228MOL0     C30651   7.771   2.532   1.680 -0.0650  0.5019  1.0021
  228MOL0     C30652   7.763   2.585   1.817 -0.4772 -0.1723 -0.3531
  228MOL0     O30653   7.857   2.589   1.913 -0.1333 -0.2542  0.4313
  228MOL0     C30654   7.999   2.556   1.872 -0.1662 -0.4501 -0.7702
  228MOL0     C30655   8.012   2.393   1.864 -0.1718  0.3741 -0.0887
  228MOL0     C30656   8.139   2.341   1.823 -0.1319  0.5785  0.8849
  228MOL0     C30657   8.126   2.199   1.742 -0.5593 -0.5472  0.8836
  228MOL0     C30658   8.195   2.080   1.802 -0.0557  0.0308  1.2012
  228MOL0     C30659   8.187   1.947   1.724 -0.5696 -0.0598 -0.5350
  228MOL0     C30660   8.266   1.830   1.781  0.1351 -0.1655 -0.0640
  228MOL0     C30661   8.183   1.731   1.864 -0.6351 -0.4578 -0.2880
  228MOL0     N30662   8.134   1.617   1.775  0.1480  0.7540  0.3469
  228MOL0     C30663   8.010   1.568   1.758  0.6280  0.3159 -0.7928
  228MOL0     C30664   8.017   1.472   1.661  0.4022  0.5488 -0.0052
  228MOL0     C30665   7.916   1.379   1.608  0.5547  0.8833  0.3938
  228MOL0     C30666   7.911   1.397   1.449 -1.1893 -0.2546  0.0122
  228MOL0     C30667   7.886   1.527   1.389 -0.1053 -0.3475  0.4693
  228MOL0     C30668   7.747   1.577   1.430  0.6330 -0.5122 -0.5791
  228MOL0     O30669   7.630   1.517   1.377  0.4581  0.5132 -0.1823
  228MOL0     C30670   7.624   1.498   1.244  0.3098 -0.0082  0.0703
  228MOL0     C30671   7.612   1.605   1.157 -0.6726 -0.0677 -0.5467
  228MOL0     C30672   7.604   1.586   1.025  1.0210  0.8584  0.6427
  228MOL0     C30673   7.579   1.709   0.930  0.1797 -0.1702 -0.3373
  228MOL0     C30674   7.610   1.456   0.974  0.5394  0.3134  0.5116
  228MOL0     C30675   7.593   1.439   0.832  0.3030  1.0002 -0.6643
  228MOL0     O30676   7.706   1.470   0.760  0.4289  0.0232 -0.6525
  228MOL0     C30677   7.705   1.473   0.626  0.4622  0.2127 -0.0899
  228MOL0     C30678   7.691   1.602   0.571  0.1142  1.4301  0.4207
  228MOL0     C30679   7.705   1.631   0.439 -0.4258  0.6223  0.3751
  228MOL0     C30680   7.716   1.527   0.350 -0.2645 -0.1034  0.3862
  228MOL0     O30681   7.705   1.542   0.215 -0.3363  0.3077  0.2120
  228MOL0     C30682   7.829   1.588   0.170 -0.9337  0.8484  0.5746
  228MOL0     C30683   7.797   1.655   0.036 -0.3450  0.3747 -0.2968
  228MOL0     C30684   7.718   1.786   0.027  0.7558 -0.2304 -1.6142
  228MOL0     C30685   7.781   1.893   0.124  0.3344 -0.9137 -0.3904
  228MOL0     C30686   7.741   2.041   0.085 -0.0303  0.3113 -0.3081
  228MOL0     C30687   7.604   2.074   0.137  0.8841  0.4547  0.4878
  228MOL0     C30688   7.554   2.215   0.109 -0.0968  0.7517 -0.0290
  228MOL0     C30689   7.650   2.320   0.178  0.5639 -0.0621  0.4640
  228MOL0    Cl30690   7.705   2.277   0.342 -0.2338 -0.3445 -0.4957
  228MOL0     C30691   7.725   1.395   0.399  0.1411  0.3832 -0.0074
  228MOL0     C30692   7.716   1.364   0.538  0.1670  0.1538  0.1380
  228MOL0     O30693   7.478   1.418   0.784 -0.2533  0.1663 -0.3009
  228MOL0     C30694   7.629   1.345   1.060 -0.4446  0.0345  0.6169
  228MOL0     C30695   7.639   1.368   1.200  0.5964  0.8000 -0.6048
  228MOL0     N30696   8.142   1.466   1.621  0.4758 -0.0579  0.9614
  228MOL0     N30697   8.215   1.544   1.695 -0.4372 -1.2889  0.0741
  228MOL0     C30698   7.632   2.613   1.870 -0.0519  0.6347 -0.8818
  228MOL0     C30699   7.516   2.590   1.781 -0.3867 -1.4975 -0.5621
  228MOL0     C30700   7.300   2.673   1.401 -0.1447 -0.3924  0.5673
  228MOL0     C30701   7.219   2.786   1.360 -0.6779  0.7347 -1.0063
  228MOL0     C30702   7.139   2.793   1.251 -0.1602  0.1477 -1.1500
  228MOL0     C30703   7.116   2.669   1.174  0.7560 -0.6805  0.1200
  228MOL0     O30704   7.039   2.682   1.058 -0.3576  0.1183  1.3711
  228MOL0     C30705   6.983   2.559   0.987 -0.4321  0.0023 -0.7945
  228MOL0     C30706   6.863   2.502   1.065  1.5457  0.6914 -0.3154
  228MOL0     C30707   6.743   2.601   1.033  0.7277 -0.7661 -0.8750
  228MOL0     C30708   6.616   2.552   1.094 -0.9808  0.6024 -0.0135
  228MOL0     C30709   6.610   2.540   1.241  0.2594 -0.6663 -0.2686
  228MOL0     C30710   6.623   2.539   1.358  1.5299  0.4546  0.0035
  228MOL0     C30711   7.183   2.549   1.216 -0.0491 -0.0416  0.0679
  228MOL0     C30712   7.276   2.558   1.322  0.9206 -0.0356  0.7410
  228MOL0     H30713   7.675   2.512   1.490  0.6936  2.0638  0.2008
  228MOL0     H30714   7.866   2.502   1.637 -0.3166 -0.3006  0.9837
  228MOL0     H30715   8.035   2.604   1.781 -0.1009 -2.0917 -1.6503
  228MOL0     H30716   8.058   2.592   1.957 -0.5841  2.4371 -1.6076
  228MOL0     H30717   8.002   2.352   1.965 -0.6446 -0.4713 -0.4678
  228MOL0     H30718   7.927   2.354   1.807  0.1927 -2.4124  1.1490
  228MOL0     H30719   8.197   2.405   1.756  0.0221 -2.6339 -2.2867
  228MOL0     H30720   8.208   2.334   1.908  0.5159  0.7306  0.3841
  228MOL0     H30721   8.022   2.169   1.727 -0.7145 -0.6530  2.0977
  228MOL0     H30722   8.169   2.224   1.645  1.7321  3.4916  2.6712
  228MOL0     H30723   8.301   2.103   1.813  0.2806 -1.5452  1.4207
  228MOL0     H30724   8.162   2.062   1.905 -1.0422  1.7736  1.2237
  228MOL0     H30725   8.079   1.930   1.713 -0.7460  1.6208 -1.6608
  228MOL0     H30726   8.236   1.967   1.628  2.8678  0.5245  1.1900
  228MOL0     H30727   8.315   1.776   1.699 -2.0581 -1.1899 -0.7805
  228MOL0     H30728   8.349   1.869   1.841 -1.3943  3.5523 -0.0871
  228MOL0     H30729   8.108   1.781   1.925  2.4646  0.9131  2.7415
  228MOL0     H30730   8.253   1.687   1.935 -0.0590 -0.0908 -0.6246
  228MOL0     H30731   7.919   1.600   1.807 -1.3556 -3.5577 -1.4861
  228MOL0     H30732   7.942   1.275   1.628 -0.4322  0.8597  1.6056
  228MOL0     H30733   7.821   1.392   1.660  2.3534  0.3773  4.1303
  228MOL0     H30734   7.842   1.326   1.402  1.3956  0.2671 -5.3711
  228MOL0     H30735   8.012   1.379   1.410 -0.4787  3.3683 -0.1084
  228MOL0     H30736   7.890   1.489   1.286  0.3097  2.3829 -0.6102
  228MOL0     H30737   7.960   1.606   1.404 -0.2210 -0.4969  1.8715
  228MOL0     H30738   7.743   1.686   1.425  0.0422 -0.5761 -1.5964
  228MOL0     H30739   7.740   1.553   1.537 -3.5576 -1.1550 -0.8139
  228MOL0     H30740   7.620   1.707   1.194 -2.4675  0.9416 -2.6855
  228MOL0     H30741   7.625   1.705   0.830 -1.9015 -0.7464 -1.3286
  228MOL0     H30742   7.471   1.707   0.916  0.3881 -2.3348 -2.0936
  228MOL0     H30743   7.607   1.802   0.980  0.6024 -0.7400  0.5068
  228MOL0     H30744   7.675   1.687   0.636  0.7334  1.2828  0.7694
  228MOL0     H30745   7.711   1.734   0.404 -2.9017  0.0512 -2.1153
  228MOL0     H30746   7.874   1.658   0.241  0.4643  1.7549 -1.1280
  228MOL0     H30747   7.900   1.507   0.149  0.4034  1.1237  3.5299
  228MOL0     H30748   7.887   1.674  -0.024 -2.0112  0.6957 -2.8523
  228MOL0     H30749   7.741   1.581  -0.023 -1.3914  1.8144 -1.1497
  228MOL0     H30750   7.613   1.769   0.050  1.3176  0.9627  2.8890
  228MOL0     H30751   7.726   1.816  -0.077 -2.6000 -1.5522 -2.3547
  228MOL0     H30752   7.750   1.874   0.227 -1.2153 -0.1329 -0.6964
  228MOL0     H30753   7.888   1.887   0.102  0.5794 -0.4062  0.6101
  228MOL0     H30754   7.750   2.057  -0.023  0.7218 -1.0092 -0.4705
  228MOL0     H30755   7.805   2.112   0.138 -0.3162  1.7004 -1.7369
  228MOL0     H30756   7.540   2.017   0.069 -2.5577  0.8795  3.0992
  228MOL0     H30757   7.578   2.048   0.241 -0.1232 -0.6254 -0.0055
  228MOL0     H30758   7.447   2.225   0.130 -0.1738  3.5950 -1.3092
  228MOL0     H30759   7.561   2.220  -0.000  2.3657 -3.7306 -0.3223
  228MOL0     H30760   7.608   2.420   0.178 -1.6915 -0.9506 -0.4145
  228MOL0     H30761   7.734   2.319   0.108  0.5577 -0.5484  0.4572
  228MOL0     H30762   7.730   1.306   0.338  3.9227  1.0268 -0.8956
  228MOL0     H30763   7.723   1.263   0.578  1.0467 -0.3067 -1.0831
  228MOL0     H30764   7.646   1.245   1.021  0.1601  0.2666  0.2796
  228MOL0     H30765   7.653   1.283   1.266 -3.1095  1.7544  1.7025
  228MOL0     H30766   7.625   2.637   1.975  1.7309 -2.1183 -0.0144
  228MOL0     H30767   7.413   2.598   1.814 -0.0769  2.7374 -0.0890
  228MOL0     H30768   7.237   2.870   1.426 -2.3343 -0.7286  1.4857
  228MOL0     H30769   7.080   2.881   1.225  3.4640  2.1170 -3.4857
  228MOL0     H30770   6.945   2.586   0.888  0.1854 -0.4132 -1.1539
  228MOL0     H30771   7.065   2.486   0.982  0.9594  1.2878  1.5577
  228MOL0     H30772   6.873   2.509   1.174 -5.2387  3.2087  0.6156
  228MOL0     H30773   6.846   2.398   1.037  1.5717  0.3742  0.7929
  228MOL0     H30774   6.722   2.597   0.925 -0.4950 -3.2367 -0.6262
  228MOL0     H30775   6.753   2.706   1.062 -0.9014 -0.4532 -1.3382
  228MOL0     H30776   6.585   2.454   1.058 -1.0089 -1.2228  4.3627
  228MOL0     H30777   6.543   2.623   1.054  1.0273  0.3389 -4.7992
  228MOL0     H30778   6.652   2.525   1.461 -1.4698  2.2048  1.2033
  228MOL0     H30779   7.184   2.456   1.160  0.4429 -0.8206  1.3206
  228MOL0     H30780   7.324   2.465   1.350  1.2220 -0.6248 -1.5015
  229MOL0     O30781   3.038   3.079   8.788 -0.4196 -0.4609 -0.3257
  229MOL0     C30782   3.057   2.971   8.739 -0.2761 -0.7454 -0.2350
  229MOL0     O30783   2.969   2.862   8.740  0.8357 -0.0597 -0.4963
  229MOL0     C30784   2.854   2.864   8.820 -0.8705  0.2868  0.5439
  229MOL0     C30785   2.821   2.741   8.866 -0.0586  0.2201 -0.1460
  229MOL0     C30786   2.696   2.714   8.921 -0.5158 -0.2518  0.5342
  229MOL0     C30787   2.611   2.829   8.947 -0.6078  0.3119 -0.0380
  229MOL0     O30788   2.487   2.821   9.005  0.4928  1.3034  0.2053
  229MOL0     C30789   2.433   2.689   9.027  0.4447 -0.4256 -0.1040
  229MOL0     C30790   2.295   2.702   9.093  0.2961 -0.2538  0.4246
  229MOL0     C30791   2.203   2.817   9.049 -0.0285 -0.6591  0.3256
  229MOL0     C30792   2.073   2.784   9.114 -0.0025 -0.3764 -0.7903
  229MOL0     C30793   1.969   2.858   9.037  0.1750  0.1506 -0.3962
  229MOL0     C30794   1.823   2.842   9.077  0.1092  0.1845  1.1462
  229MOL0     C30795   1.723   2.852   8.958  0.2309 -0.1137 -0.6516
  229MOL0     C30796   1.574   2.818   9.002 -0.6603  1.0005  1.0224
  229MOL0     N30797   1.494   2.771   8.887  0.1955 -0.6994 -0.3405
  229MOL0     C30798   1.510   2.806   8.751 -0.8659 -0.3290 -1.0972
  229MOL0     C30799   1.422   2.719   8.694 -0.1421 -0.5982 -0.3536
  229MOL0     C30800   1.388   2.728   8.551  0.1385 -0.3756 -0.0924
  229MOL0     C30801   1.351   2.593   8.501 -0.1127 -0.3140  0.1622
  229MOL0     C30802   1.372   2.563   8.350  0.3316 -0.3505  0.3891
  229MOL0     C30803   1.286   2.437   8.326 -0.2808  0.2037  1.0267
  229MOL0     O30804   1.340   2.312   8.356  0.5901  0.4466 -0.8212
  229MOL0     C30805   1.276   2.202   8.302 -1.0498  0.1094 -0.1079
  229MOL0     C30806   1.142   2.190   8.269 -0.2833 -1.1334  0.8124
  229MOL0     C30807   1.077   2.072   8.213  0.1564 -0.4523 -1.3179
  229MOL0     C30808   0.929   2.070   8.189  0.4741 -0.2178  0.4265
  229MOL0     C30809   1.157   1.960   8.203  0.5674 -1.2463 -0.5899
  229MOL0     C30810   1.113   1.834   8.142  1.2474  0.2911  0.3886
  229MOL0     O30811   1.188   1.732   8.177 -1.1501  0.6100  0.2957
  229MOL0     C30812   1.179   1.607   8.110  0.0825  1.0514 -0.0161
  229MOL0     C30813   1.208   1.498   8.195  0.4893 -0.7779  0.3583
  229MOL0     C30814   1.197   1.369   8.142  0.1052  0.2142 -0.1554
  229MOL0     C30815   1.150   1.341   8.012 -0.6705 -0.1911 -0.4557
  229MOL0     O30816   1.109   1.217   7.977 -0.9590 -0.2056 -0.4165
  229MOL0     C30817   1.164   1.109   8.050 -1.0815 -0.3446 -0.1148
  229MOL0     C30818   1.090   0.983   7.990 -0.5398  0.1618  1.1996
  229MOL0     C30819   1.151   0.952   7.852  1.0805  0.0380  0.5171
  229MOL0     C30820   1.056   0.853   7.775 -0.4053 -0.0993  0.8461
  229MOL0     C30821   1.113   0.848   7.625 -0.5752 -0.0839 -0.6851
  229MOL0     C30822   1.217   0.739   7.620  0.6887  0.8122  0.0283
  229MOL0     C30823   1.237   0.720   7.465 -0.1526  0.0421 -0.2676
  229MOL0     C30824   1.306   0.581   7.444  0.4684 -0.0842 -0.9182
  229MOL0    Cl30825   1.468   0.576   7.519 -0.2279 -0.3885 -0.2210
  229MOL0     C30826   1.117   1.444   7.930  0.9092 -0.2011 -0.0689
  229MOL0     C30827   1.132   1.573   7.983 -0.1936 -0.5014 -0.0622
  229MOL0     O30828   1.012   1.826   8.068  0.5100  1.4238  0.8164
  229MOL0     C30829   1.295   1.965   8.238 -0.6401  0.6064 -0.1492
  229MOL0     C30830   1.348   2.086   8.293 -0.6145 -0.9513  0.4194
  229MOL0     N30831   1.364   2.639   8.788 -0.2891  0.0998  0.3356
  229MOL0     N30832   1.414   2.666   8.908  0.0641  0.1929  0.2432
  229MOL0     C30833   2.640   2.951   8.891 -0.4664  0.1691 -0.3480
  229MOL0     C30834   2.760   2.971   8.832  0.0343  0.4597  0.8063
  229MOL0     C30835   3.175   2.952   8.658  0.2104 -0.9408 -0.1919
  229MOL0     C30836   3.209   2.819   8.612 -1.0839 -0.1147  0.5871
  229MOL0     C30837   3.322   2.805   8.536  0.1563  0.1722 -0.6973
  229MOL0     C30838   3.421   2.904   8.516  1.5717 -0.7799 -0.5931
  229MOL0     O30839   3.548   2.879   8.462  0.0470 -0.0019  0.2860
  229MOL0     C30840   3.636   2.991   8.404  1.4428  0.1651  0.2079
  229MOL0     C30841   3.740   2.968   8.293 -0.3301  1.2204 -1.3806
  229MOL0     C30842   3.674   2.886   8.170  0.2478 -0.7437 -1.2078
  229MOL0     C30843   3.604   2.981   8.066  0.4261 -0.2278  0.0862
  229MOL0     C30844   3.473   3.025   8.095 -0.0258 -0.5584 -0.3659
  229MOL0     C30845   3.366   3.080   8.133  0.2644  0.4823 -0.6804
  229MOL0     C30846   3.401   3.030   8.569  0.0167  0.1432  0.4423
  229MOL0     C30847   3.273   3.056   8.645 -0.7668  0.4213  0.1492
  229MOL0     H30848   2.891   2.658   8.866 -0.0366  0.0692  3.4530
  229MOL0     H30849   2.675   2.613   8.953  1.5233 -0.5009  1.2491
  229MOL0     H30850   2.445   2.628   8.937  2.1048  0.1829 -0.3259
  229MOL0     H30851   2.490   2.627   9.098 -1.8412 -2.5109  0.0630
  229MOL0     H30852   2.250   2.604   9.076  0.5911 -0.0606 -1.8183
  229MOL0     H30853   2.316   2.712   9.200 -1.2069  4.2279  0.5542
  229MOL0     H30854   2.231   2.915   9.089 -2.4069 -0.4827  1.7412
  229MOL0     H30855   2.205   2.820   8.940  3.7063  0.4810  0.2624
  229MOL0     H30856   2.045   2.678   9.110 -2.5385  0.2373 -1.8477
  229MOL0     H30857   2.074   2.809   9.220 -1.9370 -2.4178 -0.2035
  229MOL0     H30858   1.995   2.964   9.026 -2.0687  0.5558 -2.7683
  229MOL0     H30859   1.975   2.815   8.936 -1.6424 -0.2661 -0.3608
  229MOL0     H30860   1.808   2.747   9.129  1.6099  1.2252  3.6635
  229MOL0     H30861   1.788   2.910   9.156  1.9378  0.6417  1.5943
  229MOL0     H30862   1.731   2.947   8.905  5.2628  0.1485  0.0726
  229MOL0     H30863   1.740   2.776   8.882  0.4296 -1.2710  0.5091
  229MOL0     H30864   1.527   2.910   9.037  0.3482  1.9699 -0.0914
  229MOL0     H30865   1.557   2.738   9.075  1.7399  2.0626  2.8920
  229MOL0     H30866   1.570   2.883   8.703  0.3813 -1.4574 -1.3898
  229MOL0     H30867   1.325   2.815   8.531  2.1292  1.5171  1.2843
  229MOL0     H30868   1.482   2.751   8.500  1.2441  0.1672  2.0414
  229MOL0     H30869   1.243   2.583   8.516  0.3417 -2.0433  2.9577
  229MOL0     H30870   1.396   2.510   8.556 -2.3218 -3.1291 -1.9184
  229MOL0     H30871   1.479   2.560   8.326  0.6377 -0.0404  1.6634
  229MOL0     H30872   1.327   2.640   8.286 -0.1062 -2.7572 -2.4479
  229MOL0     H30873   1.280   2.441   8.216 -1.2999  0.5423  1.0822
  229MOL0     H30874   1.189   2.446   8.376  0.1228 -0.2721  1.9021
  229MOL0     H30875   1.072   2.273   8.274 -1.5922 -2.1478  0.0979
  229MOL0     H30876   0.890   2.074   8.087 -0.2067 -0.1957  0.6782
  229MOL0     H30877   0.869   1.993   8.238 -3.8375  1.0819 -2.1742
  229MOL0     H30878   0.885   2.166   8.219  0.2389 -0.4796  0.9239
  229MOL0     H30879   1.233   1.511   8.300 -4.1651  0.7021  1.5301
  229MOL0     H30880   1.228   1.287   8.206 -1.5036  0.7084  1.3537
  229MOL0     H30881   1.273   1.109   8.039 -1.1609  0.9735 -1.0609
  229MOL0     H30882   1.129   1.108   8.154  2.2963  0.3264  1.1629
  229MOL0     H30883   1.103   0.891   8.047  1.2166 -0.8408 -0.6659
  229MOL0     H30884   0.981   0.983   7.987 -0.5904 -2.4010 -0.1721
  229MOL0     H30885   1.251   0.910   7.862  1.4700  0.8891  0.3190
  229MOL0     H30886   1.156   1.040   7.787 -1.1081 -0.8625 -1.0240
  229MOL0     H30887   1.038   0.762   7.834 -1.7926 -0.9615 -0.8215
  229MOL0     H30888   0.958   0.901   7.768  0.2840  1.4201  1.1277
  229MOL0     H30889   1.140   0.949   7.594 -2.0120  0.5360 -0.0117
  229MOL0     H30890   1.036   0.823   7.552 -3.2101 -1.2517  2.2554
  229MOL0     H30891   1.308   0.762   7.677  0.6162 -1.0571  0.9518
  229MOL0     H30892   1.172   0.652   7.669  1.2130  0.1683 -0.6090
  229MOL0     H30893   1.302   0.796   7.422  2.2371 -1.6315  0.1746
  229MOL0     H30894   1.143   0.728   7.410 -1.6388  0.8932  2.2806
  229MOL0     H30895   1.314   0.590   7.335 -2.0741  2.1934 -1.0526
  229MOL0     H30896   1.248   0.493   7.473 -1.5769  1.1847 -0.9620
  229MOL0     H30897   1.073   1.430   7.831  2.2207 -1.7182 -0.4934
  229MOL0     H30898   1.103   1.658   7.922 -2.2666 -1.0501  0.0764
  229MOL0     H30899   1.364   1.883   8.226 -1.1910  0.3633 -2.1003
  229MOL0     H30900   1.454   2.087   8.315  0.5008  0.0167 -3.9358
  229MOL0     H30901   2.568   3.031   8.876  0.2141  0.3407 -3.4861
  229MOL0     H30902   2.773   3.071   8.790  1.3548 -1.1710 -3.1279
  229MOL0     H30903   3.153   2.729   8.630 -1.0241 -0.9308 -2.6438
  229MOL0     H30904   3.339   2.705   8.498 -2.2009 -1.1450  1.4095
  229MOL0     H30905   3.565   3.068   8.373 -1.2052 -1.5168  1.6831
  229MOL0     H30906   3.695   3.044   8.479  0.0442  3.0651 -0.6151
  229MOL0     H30907   3.818   2.913   8.345 -0.7991  2.6879  0.9995
  229MOL0     H30908   3.777   3.067   8.267 -4.0633  2.9358 -0.7770
  229MOL0     H30909   3.610   2.811   8.217 -0.3191  0.8679  0.7561
  229MOL0     H30910   3.755   2.834   8.118  1.6583  0.7009 -0.5649
  229MOL0     H30911   3.589   2.926   7.973  0.9544  1.2810 -0.9162
  229MOL0     H30912   3.678   3.059   8.051  2.5435 -2.1229  0.2047
  229MOL0     H30913   3.272   3.131   8.141  1.3048  2.3344  0.4946
  229MOL0     H30914   3.483   3.099   8.551  1.1021 -1.1456  0.2364
  229MOL0     H30915   3.245   3.154   8.680 -1.2994  0.6317 -0.8355
  230MOL0     O30916   5.505   4.918   9.170  0.4518 -0.3811  0.5509
  230MOL0     C30917   5.522   4.853   9.067  0.8569  0.2963  0.3618
  230MOL0     O30918   5.531   4.719   9.066 -0.5581  0.6249  0.7549
  230MOL0     C30919   5.543   4.652   9.192  0.6348  0.7029  0.9604
  230MOL0     C30920   5.469   4.537   9.196  0.2133 -0.1068 -0.2006
  230MOL0     C30921   5.469   4.463   9.316 -0.2627  0.3552  0.2969
  230MOL0     C30922   5.555   4.487   9.420 -0.7315  0.4525  0.2927
  230MOL0     O30923   5.566   4.391   9.518  1.0672  0.0799  0.5748
  230MOL0     C30924   5.608   4.260   9.487 -1.3823 -0.4913 -0.3834
  230MOL0     C30925   5.650   4.185   9.614 -1.2591 -0.7789  0.7275
  230MOL0     C30926   5.720   4.055   9.567 -0.0657 -0.9516 -0.2670
  230MOL0     C30927   5.713   3.948   9.675 -0.6318  0.4987  0.0339
  230MOL0     C30928   5.593   3.890   9.744  0.3593 -0.1711 -0.7540
  230MOL0     C30929   5.456   3.895   9.679  0.3439  0.5448  0.4083
  230MOL0     C30930   5.342   3.848   9.759  0.7304 -0.0058  0.2783
  230MOL0     C30931   5.206   3.876   9.690 -0.5841  0.2663  0.2777
  230MOL0     N30932   5.202   3.797   9.570 -1.1166  0.6875 -0.3794
  230MOL0     C30933   5.170   3.669   9.576  0.7819  0.1338 -0.0725
  230MOL0     C30934   5.176   3.624   9.448  0.0038 -0.5960 -0.5274
  230MOL0     C30935   5.169   3.487   9.391 -0.1474 -0.3206  0.2890
  230MOL0     C30936   5.034   3.427   9.431 -0.5124 -0.4821  0.0814
  230MOL0     C30937   5.025   3.282   9.398  0.1128  1.2915  0.5644
  230MOL0     C30938   4.899   3.219   9.460  0.6300 -1.0015  0.3229
  230MOL0     O30939   4.785   3.270   9.386 -0.1240 -0.5139 -0.4204
  230MOL0     C30940   4.688   3.299   9.469  0.7495 -0.2113  0.9178
  230MOL0     C30941   4.617   3.423   9.468 -0.4921 -1.1338 -0.3490
  230MOL0     C30942   4.505   3.439   9.543 -0.7896 -0.4959 -0.1603
  230MOL0     C30943   4.444   3.580   9.530  1.1386  0.7123  0.5074
  230MOL0     C30944   4.462   3.338   9.634 -0.3500  0.0743 -0.6220
  230MOL0     C30945   4.333   3.357   9.707  0.3323  0.2557 -1.8418
  230MOL0     O30946   4.227   3.398   9.632  0.6822 -0.7391  0.0419
  230MOL0     C30947   4.102   3.411   9.696 -0.3659  0.5062 -0.5850
  230MOL0     C30948   4.092   3.493   9.807  0.8070 -0.9019  0.9112
  230MOL0     C30949   3.975   3.506   9.869  1.0619  0.8812 -0.5181
  230MOL0     C30950   3.861   3.439   9.816 -0.3695 -0.6852 -1.4466
  230MOL0     O30951   3.746   3.480   9.880  0.3820 -0.1444 -0.0410
  230MOL0     C30952   3.649   3.525   9.782 -0.3379  0.1418 -1.4279
  230MOL0     C30953   3.556   3.617   9.859  0.0923 -0.6958 -0.1512
  230MOL0     C30954   3.471   3.549   9.967  0.8239 -0.3363 -0.7026
  230MOL0     C30955   3.374   3.648  10.031  0.5257  0.2871 -1.1751
  230MOL0     C30956   3.431   3.789  10.083  1.1420  0.3522  0.7404
  230MOL0     C30957   3.552   3.764  10.175  0.7432  0.3328  1.0001
  230MOL0     C30958   3.615   3.900  10.213 -0.4545  1.0546  1.4832
  230MOL0     C30959   3.696   3.888  10.343 -0.2474  0.5511  0.5065
  230MOL0    Cl30960   3.733   4.043  10.435  0.4746 -0.1128 -0.0477
  230MOL0     C30961   3.873   3.347   9.716  0.2200  0.0979  0.2764
  230MOL0     C30962   3.995   3.326   9.654 -0.3302 -0.3249 -0.2873
  230MOL0     O30963   4.325   3.326   9.832  0.7924  0.4780  1.3721
  230MOL0     C30964   4.535   3.215   9.638  0.7667  0.0671 -0.8346
  230MOL0     C30965   4.644   3.207   9.565 -0.7203  0.0040  0.4551
  230MOL0     N30966   5.202   3.733   9.370 -0.4354 -0.5206  0.6749
  230MOL0     N30967   5.216   3.835   9.439 -0.3809  0.2234  0.1874
  230MOL0     C30968   5.642   4.596   9.413 -0.8829 -0.9038 -0.8652
  230MOL0     C30969   5.638   4.677   9.294  1.0577  0.4466 -0.6438
  230MOL0     C30970   5.535   4.930   8.935  0.5857 -0.0867  0.6789
  230MOL0     C30971   5.528   5.069   8.922  0.2413 -0.5975 -0.2275
  230MOL0     C30972   5.538   5.137   8.797 -0.6344  0.4617 -0.2473
  230MOL0     C30973   5.551   5.057   8.682 -0.7123 -0.0823  0.8582
  230MOL0     O30974   5.550   5.129   8.565  0.4735  0.4079  1.2391
  230MOL0     C30975   5.523   5.067   8.433  0.5365  0.3149  0.2632
  230MOL0     C30976   5.547   5.164   8.319 -0.4655  0.4305  0.5718
  230MOL0     C30977   5.645   5.112   8.216  0.0388  1.1635  0.2138
  230MOL0     C30978   5.694   5.219   8.116 -0.1244  1.0497 -0.0252
  230MOL0     C30979   5.730   5.357   8.168  0.2660 -0.6747  0.2946
  230MOL0     C30980   5.765   5.467   8.209  0.9694  0.2528  0.4396
  230MOL0     C30981   5.570   4.918   8.693  0.0979  0.2178  0.3878
  230MOL0     C30982   5.561   4.855   8.819 -0.3047 -0.8491 -0.8057
  230MOL0     H30983   5.408   4.503   9.113 -0.8291 -1.1296  0.9464
  230MOL0     H30984   5.410   4.373   9.308 -0.6015  0.6446 -0.7119
  230MOL0     H30985   5.542   4.201   9.424  1.2506 -1.0795 -2.8115
  230MOL0     H30986   5.696   4.277   9.424  0.6478  1.4498  2.6972
  230MOL0     H30987   5.719   4.243   9.675 -2.9878  0.4053  1.6454
  230MOL0     H30988   5.561   4.165   9.674  0.1294  1.4127  3.7054
  230MOL0     H30989   5.665   4.011   9.483  0.6954  0.1807 -1.3833
  230MOL0     H30990   5.825   4.071   9.541  0.7696 -0.7267  2.7877
  230MOL0     H30991   5.755   3.862   9.621 -2.3800 -0.2696 -0.1740
  230MOL0     H30992   5.798   3.969   9.741  0.2616 -0.8478 -0.6390
  230MOL0     H30993   5.608   3.791   9.788 -3.2025 -2.1184 -3.3603
  230MOL0     H30994   5.586   3.960   9.827 -0.5013  0.4668 -1.3441
  230MOL0     H30995   5.432   3.997   9.650 -1.0706  0.4997  1.2783
  230MOL0     H30996   5.454   3.839   9.585  0.3832  1.8460 -0.3906
  230MOL0     H30997   5.349   3.748   9.802 -0.7961 -0.4253 -0.3844
  230MOL0     H30998   5.337   3.925   9.837 -5.4826 -1.2485  1.5969
  230MOL0     H30999   5.203   3.979   9.654  1.0947 -0.2435 -1.4605
  230MOL0     H31000   5.122   3.868   9.760  0.7222 -0.1791  1.8657
  230MOL0     H31001   5.156   3.611   9.666 -0.6945 -1.5808 -1.3335
  230MOL0     H31002   5.180   3.505   9.284  0.0924  2.7159  0.7557
  230MOL0     H31003   5.247   3.422   9.432 -1.2715 -1.2434  1.0424
  230MOL0     H31004   4.957   3.480   9.374 -0.4884  0.3097  0.7615
  230MOL0     H31005   5.018   3.435   9.539  0.2879  0.4485  0.1487
  230MOL0     H31006   5.119   3.240   9.434  0.8157  2.6497  0.3636
  230MOL0     H31007   5.024   3.279   9.289  0.4625 -2.3816  0.5311
  230MOL0     H31008   4.904   3.239   9.567 -1.2756  1.4335  0.0289
  230MOL0     H31009   4.896   3.111   9.443 -1.7055 -0.8800 -0.3754
  230MOL0     H31010   4.644   3.498   9.395 -0.6501  0.2728  0.9920
  230MOL0     H31011   4.516   3.659   9.506 -0.0887  1.9126  0.6901
  230MOL0     H31012   4.371   3.574   9.449  1.0691  0.8017  0.5632
  230MOL0     H31013   4.388   3.600   9.622 -0.7608  0.0630 -0.4515
  230MOL0     H31014   4.173   3.555   9.843 -0.8043  0.0539  3.0957
  230MOL0     H31015   3.965   3.570   9.956 -1.2852  1.2353 -0.9819
  230MOL0     H31016   3.703   3.567   9.697  3.0978 -0.3404  0.3516
  230MOL0     H31017   3.583   3.445   9.748  1.6429 -1.2685 -2.1240
  230MOL0     H31018   3.614   3.699   9.903 -2.5663  0.4816  1.3463
  230MOL0     H31019   3.480   3.651   9.788 -0.7132  1.1502  1.4974
  230MOL0     H31020   3.545   3.498  10.030  1.1909 -2.1475 -2.4669
  230MOL0     H31021   3.411   3.466   9.928  0.4641 -0.4158  0.0176
  230MOL0     H31022   3.292   3.687   9.969  0.1681 -0.3949 -1.1442
  230MOL0     H31023   3.315   3.602  10.111 -0.7163 -0.4515 -2.4731
  230MOL0     H31024   3.355   3.853  10.129 -0.8182 -1.4633  0.2165
  230MOL0     H31025   3.474   3.835   9.994  0.8919 -3.2173 -1.4191
  230MOL0     H31026   3.523   3.712  10.267 -0.6544  0.4548  0.6501
  230MOL0     H31027   3.620   3.686  10.138  1.6854  1.3367  0.5582
  230MOL0     H31028   3.532   3.967  10.238 -0.6746  1.1888  0.4409
  230MOL0     H31029   3.674   3.930  10.126 -2.1449  1.3028  0.3617
  230MOL0     H31030   3.789   3.845  10.306  0.2522  0.3468  1.9326
  230MOL0     H31031   3.649   3.819  10.414  1.2733 -0.6684  0.3625
  230MOL0     H31032   3.787   3.300   9.671  2.7821 -0.9794 -4.0032
  230MOL0     H31033   3.993   3.251   9.575  0.1150 -1.2380  0.5466
  230MOL0     H31034   4.503   3.136   9.705  3.6428 -1.4553 -1.0680
  230MOL0     H31035   4.695   3.112   9.576 -5.8235 -2.9310  2.1743
  230MOL0     H31036   5.717   4.608   9.490 -2.9817 -0.4382  1.2087
  230MOL0     H31037   5.702   4.762   9.270 -0.0585  0.7722 -2.6785
  230MOL0     H31038   5.511   5.126   9.013 -0.1829 -1.3734  0.1880
  230MOL0     H31039   5.534   5.244   8.782 -1.4195  0.2120 -2.1064
  230MOL0     H31040   5.592   4.982   8.428  0.5479  0.3834 -0.8193
  230MOL0     H31041   5.417   5.038   8.434  0.9193 -1.3498 -1.5566
  230MOL0     H31042   5.600   5.253   8.353  1.2232  2.6254 -6.2630
  230MOL0     H31043   5.451   5.190   8.274 -0.9593 -4.7867 -2.1518
  230MOL0     H31044   5.596   5.035   8.156 -0.6246  1.9873 -0.3275
  230MOL0     H31045   5.731   5.082   8.276 -0.3484  4.8994  2.9997
  230MOL0     H31046   5.612   5.223   8.044  1.0521  2.7900 -1.3512
  230MOL0     H31047   5.772   5.173   8.056 -2.7060 -0.1939 -2.6587
  230MOL0     H31048   5.808   5.553   8.257  2.4170 -1.5248  2.5264
  230MOL0     H31049   5.575   4.857   8.603 -1.0335  0.4686  0.1401
  230MOL0     H31050   5.576   4.748   8.832 -2.9357 -1.0397  1.9277
  231MOL0     O31051   4.908   2.616   0.830 -0.2332  0.4377  0.3363
  231MOL0     C31052   4.878   2.532   0.733 -1.5562 -0.0006 -0.7315
  231MOL0     O31053   4.817   2.417   0.744 -0.5190  0.3260 -0.4781
  231MOL0     C31054   4.782   2.368   0.868 -0.5370  0.2584 -0.3850
  231MOL0     C31055   4.810   2.236   0.879 -0.2157 -0.0278  0.3186
  231MOL0     C31056   4.760   2.162   0.988  0.8245  0.1457  0.1449
  231MOL0     C31057   4.681   2.230   1.087 -0.3997 -0.0090  0.4140
  231MOL0     O31058   4.628   2.155   1.191  0.0508 -0.0206 -0.3239
  231MOL0     C31059   4.710   2.172   1.311  0.4500 -1.0995 -0.2081
  231MOL0     C31060   4.638   2.263   1.406  0.5058 -0.5474  0.1464
  231MOL0     C31061   4.705   2.275   1.540 -0.3822  0.1864  0.2405
  231MOL0     C31062   4.608   2.333   1.645 -0.5385  0.0863 -0.1726
  231MOL0     C31063   4.683   2.389   1.765 -0.1272  0.4817  0.2375
  231MOL0     C31064   4.727   2.270   1.860 -0.3221 -0.2213  0.5296
  231MOL0     C31065   4.801   2.321   1.985  0.6607  0.4116 -0.3376
  231MOL0     C31066   4.951   2.315   1.951 -0.4049  0.2468 -0.2048
  231MOL0     N31067   5.027   2.319   2.073  0.0753 -0.1508 -0.1609
  231MOL0     C31068   5.060   2.441   2.127 -0.0570 -0.1712 -0.9389
  231MOL0     C31069   5.134   2.404   2.238  0.1743 -0.0693 -1.0469
  231MOL0     C31070   5.205   2.507   2.328 -0.8724 -0.2703 -0.8857
  231MOL0     C31071   5.281   2.626   2.258 -0.4762 -1.0926 -0.1957
  231MOL0     C31072   5.406   2.562   2.188  0.3021  0.3282  0.0980
  231MOL0     C31073   5.459   2.653   2.077  0.5202 -0.6595 -0.1036
  231MOL0     O31074   5.474   2.788   2.113  0.1443  0.6531 -0.7892
  231MOL0     C31075   5.560   2.824   2.216  0.4154 -0.1151  0.7056
  231MOL0     C31076   5.558   2.960   2.259 -0.4838  1.2554  0.2745
  231MOL0     C31077   5.625   3.011   2.372 -0.3095  0.1516  0.0523
  231MOL0     C31078   5.586   3.155   2.421  0.4008  0.1296  0.1234
  231MOL0     C31079   5.708   2.919   2.445 -0.8521  0.4923 -0.1112
  231MOL0     C31080   5.785   2.955   2.570 -0.2059  0.2087 -0.8387
  231MOL0     O31081   5.807   2.849   2.658  0.2339  1.0828 -0.0464
  231MOL0     C31082   5.900   2.870   2.762  0.2242 -0.2607  0.3488
  231MOL0     C31083   6.039   2.886   2.736 -0.0727 -0.1191 -0.1969
  231MOL0     C31084   6.122   2.898   2.842 -0.4710 -0.6180  0.7465
  231MOL0     C31085   6.078   2.891   2.974  0.1778 -0.3535 -1.2204
  231MOL0     O31086   6.161   2.918   3.081 -0.1231  0.1434  0.2579
  231MOL0     C31087   6.248   3.029   3.065  0.2132 -0.2587  0.6593
  231MOL0     C31088   6.296   3.069   3.204 -0.1987  0.9871 -0.5858
  231MOL0     C31089   6.408   2.970   3.242 -0.4323 -0.3035  0.1992
  231MOL0     C31090   6.465   2.999   3.388  0.4604  0.2534  0.3046
  231MOL0     C31091   6.568   2.899   3.434 -0.1344 -0.3440 -0.4178
  231MOL0     C31092   6.588   2.924   3.584 -1.0873  0.0202 -0.6667
  231MOL0     C31093   6.659   2.810   3.635  0.1207 -0.4439 -0.7679
  231MOL0     C31094   6.739   2.863   3.761 -0.8270  0.4328 -0.0744
  231MOL0    Cl31095   6.654   2.897   3.912 -0.0831 -0.3110 -0.0176
  231MOL0     C31096   5.951   2.898   3.004 -0.2099 -0.6860 -0.1354
  231MOL0     C31097   5.860   2.882   2.894  0.3951  0.6411 -0.3556
  231MOL0     O31098   5.816   3.074   2.592  1.0187 -0.4807  0.1001
  231MOL0     C31099   5.717   2.784   2.397 -0.4715 -1.5358 -0.5305
  231MOL0     C31100   5.642   2.743   2.289  0.3123  0.4673  0.2805
  231MOL0     N31101   5.150   2.269   2.237 -0.1751  0.1440  0.1510
  231MOL0     N31102   5.085   2.220   2.140 -1.0893  0.2815 -0.6426
  231MOL0     C31103   4.668   2.371   1.071 -0.2547  0.5470  0.5263
  231MOL0     C31104   4.717   2.440   0.969  0.3883 -0.4066  0.1135
  231MOL0     C31105   4.959   2.550   0.603 -0.4795  0.4596 -0.1730
  231MOL0     C31106   4.999   2.445   0.524  0.3041 -0.0990 -0.0775
  231MOL0     C31107   5.090   2.464   0.411  0.1167 -0.6584 -0.0805
  231MOL0     C31108   5.146   2.589   0.388  0.3162 -0.0172 -0.2729
  231MOL0     O31109   5.218   2.605   0.275  0.1133  0.3009  0.2249
  231MOL0     C31110   5.222   2.742   0.216 -0.3807 -0.8640 -0.0409
  231MOL0     C31111   5.270   2.747   0.067 -0.9969  0.1849  0.0089
  231MOL0     C31112   5.151   2.681  -0.014 -0.5665 -0.0674  0.7873
  231MOL0     C31113   5.083   2.755  -0.133 -0.1309 -0.3539  0.4491
  231MOL0     C31114   5.169   2.827  -0.232 -0.2988  0.0727 -0.4128
  231MOL0     C31115   5.243   2.899  -0.290  0.6558 -0.5556  0.0452
  231MOL0     C31116   5.103   2.696   0.466 -0.0533 -0.4575 -0.2891
  231MOL0     C31117   5.012   2.673   0.570 -0.1004  0.4093  0.0218
  231MOL0     H31118   4.873   2.197   0.799  2.0353  3.2326  0.2956
  231MOL0     H31119   4.760   2.054   0.987 -0.3016  0.0927 -2.8273
  231MOL0     H31120   4.732   2.077   1.359  0.3683 -0.6853  0.6734
  231MOL0     H31121   4.806   2.217   1.284 -0.2180 -0.2627 -1.2933
  231MOL0     H31122   4.626   2.364   1.365  1.1819 -0.3504  0.4066
  231MOL0     H31123   4.533   2.238   1.422  0.0549  1.7637  1.1653
  231MOL0     H31124   4.749   2.179   1.569 -0.8424  0.9732  4.0634
  231MOL0     H31125   4.790   2.340   1.516 -1.8379  1.6869 -1.0859
  231MOL0     H31126   4.549   2.414   1.602  2.7049  3.6953  1.5273
  231MOL0     H31127   4.545   2.257   1.690  2.9825 -1.9889  1.7140
  231MOL0     H31128   4.769   2.455   1.744 -1.0950  1.6431 -0.1703
  231MOL0     H31129   4.610   2.446   1.824  1.8419 -0.6394  4.1179
  231MOL0     H31130   4.636   2.216   1.889 -0.1119 -0.6394  0.4156
  231MOL0     H31131   4.793   2.199   1.810 -2.1747  0.1826 -2.8145
  231MOL0     H31132   4.777   2.424   2.013 -0.0952  0.7372 -2.0499
  231MOL0     H31133   4.773   2.253   2.066 -2.0143  1.4145 -0.3286
  231MOL0     H31134   4.970   2.386   1.869 -1.3234 -0.8456 -1.4021
  231MOL0     H31135   4.980   2.216   1.915 -0.8123  0.5300 -1.3414
  231MOL0     H31136   5.035   2.543   2.100  3.1761  0.2393 -2.9487
  231MOL0     H31137   5.124   2.550   2.388  0.0341  0.5905 -0.2400
  231MOL0     H31138   5.264   2.446   2.397  0.2888 -1.1975 -2.6202
  231MOL0     H31139   5.320   2.697   2.332  1.4619 -2.9395  0.6886
  231MOL0     H31140   5.207   2.674   2.195 -1.6426 -2.4869  0.0503
  231MOL0     H31141   5.377   2.470   2.137 -1.2020  1.5071 -1.2778
  231MOL0     H31142   5.477   2.537   2.268 -2.0083  0.8479  2.4510
  231MOL0     H31143   5.405   2.634   1.984  4.6203 -1.9808 -2.4727
  231MOL0     H31144   5.561   2.631   2.045 -0.0553 -1.8819 -1.1917
  231MOL0     H31145   5.499   3.035   2.207  2.3045  1.6926 -2.5592
  231MOL0     H31146   5.561   3.145   2.527 -0.8707 -0.3469 -0.2030
  231MOL0     H31147   5.674   3.217   2.403  0.3502  0.4246  0.8697
  231MOL0     H31148   5.505   3.196   2.360  0.6072 -0.3324 -0.4743
  231MOL0     H31149   6.072   2.896   2.633  0.0874  2.0736  0.0205
  231MOL0     H31150   6.225   2.898   2.808 -1.2722 -2.3833 -1.9639
  231MOL0     H31151   6.323   3.014   2.988 -1.4710  2.2139 -1.6540
  231MOL0     H31152   6.191   3.119   3.040  1.7531  0.9910  1.4127
  231MOL0     H31153   6.321   3.175   3.207  1.0737  0.6752  2.0137
  231MOL0     H31154   6.225   3.042   3.282  0.8370 -0.0057  0.0423
  231MOL0     H31155   6.482   2.965   3.162 -1.9054  0.0203 -1.2223
  231MOL0     H31156   6.369   2.868   3.239  1.0507 -0.9133  0.3926
  231MOL0     H31157   6.493   3.103   3.404 -3.8390  1.2774  2.9609
  231MOL0     H31158   6.377   2.969   3.446  0.7858 -0.9735  0.1856
  231MOL0     H31159   6.661   2.916   3.378  2.1825  0.8109  3.3608
  231MOL0     H31160   6.542   2.795   3.418  1.1904 -1.1080  1.8295
  231MOL0     H31161   6.638   3.021   3.590 -2.1001  0.4907  4.8013
  231MOL0     H31162   6.494   2.930   3.639 -0.9525  0.6422 -0.4972
  231MOL0     H31163   6.731   2.764   3.567 -1.0718 -1.5237 -1.3486
  231MOL0     H31164   6.589   2.728   3.656  0.7133 -0.8161 -0.2108
  231MOL0     H31165   6.785   2.955   3.724 -0.7847 -0.4538 -2.4001
  231MOL0     H31166   6.809   2.788   3.799 -0.1033  1.7480  1.3019
  231MOL0     H31167   5.916   2.907   3.106 -0.5057 -1.4680 -0.1640
  231MOL0     H31168   5.753   2.881   2.916  0.9885 -0.3581  3.0170
  231MOL0     H31169   5.776   2.720   2.462 -3.2947 -1.7173  2.0180
  231MOL0     H31170   5.649   2.636   2.270  0.7428 -0.0688  3.0542
  231MOL0     H31171   4.605   2.409   1.150  0.3851  3.2415 -0.1858
  231MOL0     H31172   4.686   2.543   0.965  1.3465 -0.0753  0.7472
  231MOL0     H31173   4.963   2.345   0.547 -2.4759  1.0492  0.9723
  231MOL0     H31174   5.103   2.376   0.349 -1.7930  0.0768 -1.6071
  231MOL0     H31175   5.125   2.793   0.215  1.0488  2.1378  1.0130
  231MOL0     H31176   5.294   2.798   0.277 -1.1356 -0.0495  0.1162
  231MOL0     H31177   5.373   2.711   0.061  0.9297  4.7300  1.6842
  231MOL0     H31178   5.263   2.849   0.028 -0.6412 -0.9869 -3.5190
  231MOL0     H31179   5.083   2.643   0.063 -0.1938  2.1019  2.2748
  231MOL0     H31180   5.203   2.595  -0.056 -0.6940  0.0734  0.3288
  231MOL0     H31181   5.017   2.826  -0.083 -0.4018 -0.5434  0.3670
  231MOL0     H31182   5.018   2.679  -0.178  0.8522 -0.9899  0.0601
  231MOL0     H31183   5.306   2.969  -0.341 -0.3346  0.9470  0.8405
  231MOL0     H31184   5.140   2.797   0.485 -2.1198  0.3302 -0.1538
  231MOL0     H31185   4.989   2.756   0.635  0.9557 -0.8523  2.1364
  232MOL0     O31186   0.780   9.533   9.458  0.2069 -0.2990 -0.0404
  232MOL0     C31187   0.740   9.437   9.402 -0.3218 -0.1124 -0.3688
  232MOL0     O31188   0.727   9.427   9.266  0.3864 -0.0944 -0.3265
  232MOL0     C31189   0.800   9.517   9.195 -0.0063 -0.1729 -0.5601
  232MOL0     C31190   0.747   9.611   9.104 -0.0237  0.9499  0.0440
  232MOL0     C31191   0.823   9.717   9.042 -0.5687  0.8173 -0.6724
  232MOL0     C31192   0.959   9.709   9.069 -0.3223  0.3690 -0.3287
  232MOL0     O31193   1.060   9.789   9.023  0.8904 -0.2648  0.2816
  232MOL0     C31194   1.053   9.856   8.897 -0.0869  0.6348 -0.3825
  232MOL0     C31195   1.118   9.768   8.798 -0.1346  1.1019 -0.2817
  232MOL0     C31196   1.260   9.738   8.837 -0.5094 -0.4470 -1.1634
  232MOL0     C31197   1.356   9.731   8.725 -0.8433  0.5089  0.1723
  232MOL0     C31198   1.500   9.751   8.784  0.1214  0.1147 -0.5591
  232MOL0     C31199   1.617   9.773   8.682  0.8684 -0.3368 -0.5156
  232MOL0     C31200   1.751   9.786   8.754  0.9850 -0.0783 -0.4255
  232MOL0     C31201   1.774   9.928   8.818  0.0854  0.1961  0.4113
  232MOL0     N31202   1.902   9.922   8.879 -0.2303  0.7652  0.7965
  232MOL0     C31203   1.934   9.869   8.994 -1.1150  0.5065  0.4640
  232MOL0     C31204   2.064   9.902   9.004 -0.3880  0.3047 -0.4840
  232MOL0     C31205   2.144   9.871   9.130  0.0041 -0.2205 -0.7657
  232MOL0     C31206   2.261   9.773   9.095  0.5162 -0.1160  0.1842
  232MOL0     C31207   2.198   9.635   9.051  0.0970  0.0086  0.1179
  232MOL0     C31208   2.269   9.575   8.924 -0.0582  0.4362  0.2403
  232MOL0     O31209   2.408   9.575   8.942 -0.3547  0.3029  0.5648
  232MOL0     C31210   2.474   9.464   8.994 -0.3205 -0.3193 -0.7868
  232MOL0     C31211   2.414   9.344   9.038 -0.7652 -0.2342 -0.2091
  232MOL0     C31212   2.485   9.240   9.085 -0.7067  1.2297 -0.8386
  232MOL0     C31213   2.395   9.116   9.116 -0.0342 -0.3040 -0.1812
  232MOL0     C31214   2.624   9.241   9.109 -0.2843 -0.2938 -0.9544
  232MOL0     C31215   2.709   9.143   9.176 -0.6832 -0.1658  0.0549
  232MOL0     O31216   2.846   9.177   9.165  0.3587  0.4673  0.4193
  232MOL0     C31217   2.937   9.107   9.235  0.3511  0.1004  0.6343
  232MOL0     C31218   3.012   9.177   9.329  0.7549 -0.2573 -0.6762
  232MOL0     C31219   3.095   9.112   9.413 -0.2954  0.2389 -0.9751
  232MOL0     C31220   3.109   8.969   9.413 -0.0833  0.8662  0.2594
  232MOL0     O31221   3.204   8.918   9.503  0.1922  0.3402  0.0054
  232MOL0     C31222   3.236   8.778   9.488 -0.0987 -0.7863 -0.1619
  232MOL0     C31223   3.341   8.745   9.380  0.6843 -0.3536  0.0114
  232MOL0     C31224   3.369   8.592   9.372  0.9015 -0.6489  1.2252
  232MOL0     C31225   3.421   8.535   9.499 -0.7810  0.1914  0.7023
  232MOL0     C31226   3.501   8.407   9.477  0.4716 -0.5929 -0.4891
  232MOL0     C31227   3.555   8.354   9.613  0.6373  0.8183 -0.2123
  232MOL0     C31228   3.655   8.239   9.604  0.1322 -0.4409 -0.2280
  232MOL0     C31229   3.704   8.181   9.732  0.2915  1.2948 -0.9788
  232MOL0    Cl31230   3.588   8.101   9.843  0.0300  0.2691 -0.0428
  232MOL0     C31231   3.047   8.904   9.312  0.4332  1.1129  0.0936
  232MOL0     C31232   2.958   8.970   9.227 -0.1296 -0.4927  0.1641
  232MOL0     O31233   2.667   9.045   9.217  0.0407  0.5357 -1.0321
  232MOL0     C31234   2.689   9.363   9.071 -0.5476 -0.8529 -0.0457
  232MOL0     C31235   2.614   9.478   9.020  0.1819  0.1617 -0.2089
  232MOL0     N31236   2.108   9.971   8.892 -0.2805  0.2152  0.2459
  232MOL0     N31237   2.009   9.976   8.809 -0.0761 -0.4719 -0.8287
  232MOL0     C31238   1.018   9.611   9.139  0.0898 -0.0871 -0.5454
  232MOL0     C31239   0.939   9.517   9.209 -0.2411 -0.2273  0.1514
  232MOL0     C31240   0.681   9.325   9.482 -0.2188 -0.7010  0.7167
  232MOL0     C31241   0.636   9.353   9.615 -0.5370  0.1086  0.1197
  232MOL0     C31242   0.609   9.244   9.697  0.6656 -0.0761 -0.1196
  232MOL0     C31243   0.611   9.111   9.654 -0.2749  0.4612 -0.4207
  232MOL0     O31244   0.587   9.006   9.740  0.1679  0.7409  0.5587
  232MOL0     C31245   0.685   8.910   9.738 -0.2153 -0.0732  0.1408
  232MOL0     C31246   0.721   8.857   9.881  0.2484 -0.2539  0.6105
  232MOL0     C31247   0.606   8.782   9.949 -0.0674  0.3606 -0.7132
  232MOL0     C31248   0.578   8.639   9.907 -0.3452 -0.0807  0.5868
  232MOL0     C31249   0.693   8.550   9.893  0.0665  0.7626  0.3346
  232MOL0     C31250   0.793   8.488   9.868  0.6692  0.9412 -0.3297
  232MOL0     C31251   0.657   9.084   9.529 -0.2452 -0.4304 -0.5567
  232MOL0     C31252   0.706   9.191   9.447  0.3881 -0.2468  0.0663
  232MOL0     H31253   0.644   9.604   9.072  0.1735 -2.6298 -0.1479
  232MOL0     H31254   0.776   9.792   8.978  0.4585  0.8346 -1.4268
  232MOL0     H31255   0.949   9.866   8.865 -0.5854  4.3509  1.9079
  232MOL0     H31256   1.103   9.952   8.910 -1.6839  1.2593  1.9478
  232MOL0     H31257   1.061   9.675   8.804  1.2811  0.0862 -1.7374
  232MOL0     H31258   1.126   9.819   8.702  1.7599  3.3463  0.9691
  232MOL0     H31259   1.290   9.813   8.911 -0.3454 -2.1341  0.5669
  232MOL0     H31260   1.262   9.637   8.880  3.7818 -0.1668 -0.3326
  232MOL0     H31261   1.352   9.635   8.673 -0.1595 -0.3271  1.6061
  232MOL0     H31262   1.336   9.811   8.653  1.2722  1.1861  0.2740
  232MOL0     H31263   1.509   9.844   8.841 -0.9131  0.3397 -0.7390
  232MOL0     H31264   1.529   9.671   8.852  1.8194  0.0091 -1.3455
  232MOL0     H31265   1.631   9.679   8.628  0.9338 -0.5785 -0.0768
  232MOL0     H31266   1.595   9.860   8.619  1.5966  1.1268  1.1385
  232MOL0     H31267   1.751   9.716   8.838 -2.7072  0.4383  0.1765
  232MOL0     H31268   1.827   9.768   8.678  0.2937  2.8221 -1.9743
  232MOL0     H31269   1.694   9.951   8.890 -1.3438 -1.9135 -0.4044
  232MOL0     H31270   1.764  10.000   8.737 -0.7627 -1.3151 -0.8759
  232MOL0     H31271   1.869   9.824   9.068 -0.9740  2.0249  1.5737
  232MOL0     H31272   2.182   9.964   9.175  0.2530  0.1593 -1.7493
  232MOL0     H31273   2.088   9.817   9.207  2.1661 -2.2923 -0.5298
  232MOL0     H31274   2.331   9.755   9.177  0.5347 -2.7885 -0.3310
  232MOL0     H31275   2.313   9.823   9.014 -0.9041 -1.3652 -1.5913
  232MOL0     H31276   2.091   9.650   9.034 -0.6064 -3.7857  0.3057
  232MOL0     H31277   2.206   9.568   9.136  0.6681  0.6945  0.6118
  232MOL0     H31278   2.254   9.637   8.835  0.0041 -0.5302 -0.4584
  232MOL0     H31279   2.232   9.476   8.894  1.0325  0.9063 -2.9833
  232MOL0     H31280   2.307   9.325   9.028 -1.0962 -0.0468  2.2987
  232MOL0     H31281   2.402   9.031   9.048  0.9561 -0.7209  0.4244
  232MOL0     H31282   2.421   9.070   9.212 -2.7629  0.9376  1.3157
  232MOL0     H31283   2.290   9.147   9.122  0.5917  1.8066  1.6070
  232MOL0     H31284   3.000   9.285   9.332 -0.0749 -0.3543 -0.2316
  232MOL0     H31285   3.157   9.167   9.484 -0.8891 -0.8812  0.4717
  232MOL0     H31286   3.265   8.750   9.590 -1.6907 -2.1465 -0.0409
  232MOL0     H31287   3.143   8.724   9.465  0.6315 -1.2918 -2.1296
  232MOL0     H31288   3.303   8.768   9.280 -1.1499 -1.9059  0.3020
  232MOL0     H31289   3.434   8.801   9.392  0.1580  0.1293  2.2966
  232MOL0     H31290   3.449   8.593   9.298  0.4753  1.1780  0.7302
  232MOL0     H31291   3.285   8.532   9.335  0.9429 -0.2516  0.4734
  232MOL0     H31292   3.485   8.610   9.547 -2.7914  2.4658  0.0139
  232MOL0     H31293   3.333   8.516   9.560  0.7391  1.1850  3.3863
  232MOL0     H31294   3.585   8.436   9.413 -0.3018  2.0922 -0.4248
  232MOL0     H31295   3.440   8.341   9.415 -0.0488  1.1184 -1.9059
  232MOL0     H31296   3.589   8.438   9.674  0.0931  1.6845 -1.0647
  232MOL0     H31297   3.462   8.322   9.661  0.2080  0.7640 -1.0455
  232MOL0     H31298   3.741   8.280   9.549 -0.9430  1.5610 -0.5132
  232MOL0     H31299   3.618   8.159   9.539 -0.0031 -2.8364  2.5564
  232MOL0     H31300   3.768   8.246   9.791  1.6462 -1.8578  1.3296
  232MOL0     H31301   3.768   8.098   9.701  2.7471  2.8206 -0.2202
  232MOL0     H31302   3.060   8.797   9.299  0.4169  1.2451 -1.1027
  232MOL0     H31303   2.900   8.911   9.157  1.7108 -0.2534 -1.6460
  232MOL0     H31304   2.797   9.367   9.078 -0.6074 -1.3901  1.6911
  232MOL0     H31305   2.660   9.572   8.990  1.1886 -0.4481 -0.6200
  232MOL0     H31306   1.125   9.618   9.154 -0.2336  1.6816  1.4175
  232MOL0     H31307   1.001   9.462   9.279  1.9602  1.8750 -0.0525
  232MOL0     H31308   0.627   9.453   9.658  0.7357 -0.9197  3.0178
  232MOL0     H31309   0.569   9.254   9.798  3.6236 -2.2564  1.4176
  232MOL0     H31310   0.663   8.825   9.673  0.1795 -0.0837  0.0165
  232MOL0     H31311   0.779   8.956   9.705 -0.8274  1.6211  0.6479
  232MOL0     H31312   0.771   8.938   9.935  3.8369 -1.6656 -0.3070
  232MOL0     H31313   0.802   8.784   9.876 -0.2931 -0.8031 -2.0477
  232MOL0     H31314   0.516   8.842   9.959  0.6390  1.0693  3.9664
  232MOL0     H31315   0.635   8.752  10.051 -1.6758 -4.0515 -1.3125
  232MOL0     H31316   0.529   8.637   9.809 -1.9625 -1.4183  1.3678
  232MOL0     H31317   0.512   8.587   9.977  0.4064  1.9055  2.8918
  232MOL0     H31318   0.884   8.438   9.839  1.7586  1.4321  2.0589
  232MOL0     H31319   0.666   8.979   9.504  0.6022 -0.0709 -1.8844
  232MOL0     H31320   0.758   9.167   9.355  1.1693 -3.2093  1.1311
  233MOL0     O31321   9.288   0.140   2.323  0.4008 -0.0336 -1.1266
  233MOL0     C31322   9.170   0.119   2.346  0.3887  0.2550  0.2370
  233MOL0     O31323   9.071   0.168   2.269  0.0604  0.2436  1.3640
  233MOL0     C31324   9.097   0.187   2.138 -0.4860  0.3134  0.3118
  233MOL0     C31325   9.053   0.305   2.085 -0.0479  0.7176 -1.1323
  233MOL0     C31326   9.068   0.325   1.951 -0.2211  0.2784  0.9444
  233MOL0     C31327   9.110   0.227   1.865  0.3166  0.2701  1.2279
  233MOL0     O31328   9.143   0.276   1.739  0.0836 -0.6406  0.2743
  233MOL0     C31329   9.026   0.266   1.652 -0.1672  0.0992 -0.5794
  233MOL0     C31330   9.086   0.241   1.507  0.0254 -0.6186 -0.7403
  233MOL0     C31331   9.235   0.265   1.481  0.1011  0.5706 -0.2002
  233MOL0     C31332   9.275   0.247   1.343  0.6102 -0.5028  0.8776
  233MOL0     C31333   9.247   0.379   1.261 -0.5121  0.0237  0.0713
  233MOL0     C31334   9.365   0.481   1.239  0.2801 -0.3615  0.3382
  233MOL0     C31335   9.448   0.452   1.111  0.4906 -0.0790 -0.8960
  233MOL0     C31336   9.571   0.554   1.092  0.2636 -0.2025 -0.4494
  233MOL0     N31337   9.671   0.499   1.000 -0.1079 -0.1850 -0.5472
  233MOL0     C31338   9.668   0.550   0.869 -0.1844  0.2321  1.3355
  233MOL0     C31339   9.776   0.493   0.811  0.1957 -0.7930  0.3369
  233MOL0     C31340   9.802   0.508   0.662 -0.1228 -0.0790  0.1437
  233MOL0     C31341   9.677   0.493   0.557 -0.0641 -0.6128  0.3340
  233MOL0     C31342   9.588   0.362   0.540 -0.3770  0.3180 -0.5857
  233MOL0     C31343   9.454   0.386   0.623  0.4161 -0.5469  0.2010
  233MOL0     O31344   9.375   0.489   0.564  0.0975  0.0072  0.0710
  233MOL0     C31345   9.253   0.520   0.624  0.0008  0.8048  0.3032
  233MOL0     C31346   9.163   0.616   0.567 -0.4913  0.2627 -0.2065
  233MOL0     C31347   9.036   0.646   0.616  0.0374  0.2955  0.8255
  233MOL0     C31348   8.966   0.758   0.550  0.4704  0.1335  0.1649
  233MOL0     C31349   8.985   0.575   0.731  0.1491 -0.7410  0.4265
  233MOL0     C31350   8.846   0.590   0.775 -0.0242 -0.5684  0.3257
  233MOL0     O31351   8.825   0.560   0.907  0.4401 -0.9413  0.3258
  233MOL0     C31352   8.712   0.581   0.980 -0.3317  0.0132  0.2228
  233MOL0     C31353   8.601   0.668   0.961 -0.7421  0.0851 -0.1847
  233MOL0     C31354   8.499   0.677   1.055 -0.5526  0.5249 -0.1672
  233MOL0     C31355   8.522   0.591   1.175  1.4469 -0.1246  0.9204
  233MOL0     O31356   8.429   0.582   1.286 -0.0676 -0.0169  0.3018
  233MOL0     C31357   8.292   0.608   1.261  0.3537 -0.1014  0.3579
  233MOL0     C31358   8.247   0.751   1.287 -0.0977 -0.3002 -0.2803
  233MOL0     C31359   8.246   0.766   1.436  0.3119 -0.3952 -0.6798
  233MOL0     C31360   8.258   0.918   1.479 -0.7107  0.4509 -0.7287
  233MOL0     C31361   8.266   0.930   1.630 -0.1326  0.5934  0.0605
  233MOL0     C31362   8.125   0.940   1.696  0.1209 -0.6320 -0.3039
  233MOL0     C31363   8.136   0.905   1.852  0.3595  0.1468  0.9758
  233MOL0     C31364   8.152   0.755   1.886  0.2395 -0.2121 -0.9144
  233MOL0    Cl31365   8.093   0.714   2.059 -0.0344  0.1648  0.3322
  233MOL0     C31366   8.626   0.504   1.184 -0.3135  0.4836  0.6217
  233MOL0     C31367   8.719   0.501   1.095 -1.2656 -0.7722  0.1973
  233MOL0     O31368   8.763   0.626   0.698  1.0765 -0.1253  0.0951
  233MOL0     C31369   9.075   0.488   0.799 -0.1210 -0.7450  0.1418
  233MOL0     C31370   9.205   0.457   0.742  0.2001 -0.5658 -0.3134
  233MOL0     N31371   9.820   0.403   0.903  0.6859 -0.4247 -0.0960
  233MOL0     N31372   9.766   0.404   1.015  0.3953 -0.6300 -0.0355
  233MOL0     C31373   9.144   0.103   1.923 -0.2010 -0.8169 -0.6172
  233MOL0     C31374   9.134   0.075   2.063 -0.2485 -0.4559  0.3804
  233MOL0     C31375   9.131   0.040   2.464 -0.3944 -0.1584 -0.3904
  233MOL0     C31376   9.228   0.017   2.568  0.0444 -0.1611  1.2462
  233MOL0     C31377   9.184  -0.054   2.684  1.1861 -0.0914  0.2189
  233MOL0     C31378   9.055  -0.111   2.694  0.5072 -0.1724  0.3600
  233MOL0     O31379   9.016  -0.202   2.791  0.7800  0.8400 -0.7609
  233MOL0     C31380   9.097  -0.213   2.904 -0.2919  0.5478  0.5922
  233MOL0     C31381   9.019  -0.303   3.010 -0.1331  0.1415  0.3956
  233MOL0     C31382   8.901  -0.228   3.075  0.3572  0.4572  0.5123
  233MOL0     C31383   8.781  -0.205   2.983 -0.0322 -0.0448  0.6022
  233MOL0     C31384   8.672  -0.146   3.053  0.8275  0.4164 -0.3790
  233MOL0     C31385   8.588  -0.094   3.129 -0.0584 -0.3491 -0.2396
  233MOL0     C31386   8.966  -0.097   2.587 -0.0917  0.4712 -1.3934
  233MOL0     C31387   9.003  -0.015   2.479  0.4200 -0.8175  0.8882
  233MOL0     H31388   8.999   0.375   2.149  0.2255 -0.7241  0.7819
  233MOL0     H31389   9.039   0.418   1.903 -0.3207 -0.9738 -1.6250
  233MOL0     H31390   8.953   0.193   1.689 -0.5933  1.9681  2.6522
  233MOL0     H31391   8.971   0.359   1.635  0.0480 -0.4334 -5.7063
  233MOL0     H31392   9.081   0.135   1.479 -0.8147 -0.6731 -0.4131
  233MOL0     H31393   9.029   0.289   1.427 -0.3907 -1.0518 -0.7081
  233MOL0     H31394   9.267   0.367   1.504 -0.0985  1.8326 -4.7287
  233MOL0     H31395   9.301   0.195   1.534  2.0756  2.1836 -0.4263
  233MOL0     H31396   9.383   0.232   1.336  0.9970  1.5374  1.7246
  233MOL0     H31397   9.222   0.166   1.293  0.0657  0.4210 -0.0816
  233MOL0     H31398   9.206   0.366   1.160 -0.4759  1.5973 -0.1605
  233MOL0     H31399   9.179   0.435   1.326 -0.0587 -1.3182  1.8105
  233MOL0     H31400   9.319   0.580   1.227  0.1564 -0.4812 -0.2110
  233MOL0     H31401   9.427   0.481   1.329 -0.4239 -0.5084  0.8285
  233MOL0     H31402   9.490   0.350   1.111  2.1045  0.5317 -2.2667
  233MOL0     H31403   9.377   0.461   1.029 -0.2872  0.2631 -0.1932
  233MOL0     H31404   9.629   0.574   1.182 -1.1633  2.8504 -0.0734
  233MOL0     H31405   9.528   0.647   1.052 -1.4946 -1.6155 -2.0478
  233MOL0     H31406   9.604   0.624   0.820 -2.0872 -2.1301 -0.0046
  233MOL0     H31407   9.834   0.612   0.655  0.9894 -0.5057 -1.5815
  233MOL0     H31408   9.883   0.451   0.617  0.3553 -0.0294  0.9122
  233MOL0     H31409   9.724   0.485   0.459  0.1960 -0.6115  0.4577
  233MOL0     H31410   9.613   0.581   0.562  2.1584  1.3821 -2.7928
  233MOL0     H31411   9.643   0.281   0.587 -0.6992  0.3077 -0.2219
  233MOL0     H31412   9.558   0.340   0.437 -0.0100  1.3642 -0.9356
  233MOL0     H31413   9.479   0.398   0.729 -0.0623 -1.7482  0.4600
  233MOL0     H31414   9.394   0.296   0.607 -0.6572  0.3848 -1.2741
  233MOL0     H31415   9.211   0.668   0.485  0.0563 -0.0501 -0.0888
  233MOL0     H31416   8.916   0.830   0.615 -3.6085  0.3616 -2.7843
  233MOL0     H31417   9.037   0.814   0.488  1.4579  0.5633  1.6405
  233MOL0     H31418   8.880   0.710   0.502  1.9394 -1.0134 -1.4684
  233MOL0     H31419   8.599   0.746   0.885 -2.7763  1.3323  1.0736
  233MOL0     H31420   8.408   0.734   1.038 -0.2899  0.4948 -1.8870
  233MOL0     H31421   8.281   0.598   1.153  5.3771  2.6804 -0.7139
  233MOL0     H31422   8.231   0.534   1.313  2.3541 -1.1990  1.2473
  233MOL0     H31423   8.324   0.813   1.240  0.7661 -2.2506 -1.6243
  233MOL0     H31424   8.144   0.770   1.254 -0.5386  1.5356  1.9599
  233MOL0     H31425   8.331   0.711   1.478  1.3828  3.4971  2.8302
  233MOL0     H31426   8.170   0.710   1.491  2.0970  1.0781  3.7249
  233MOL0     H31427   8.352   0.958   1.442  0.4976 -1.6005 -0.0697
  233MOL0     H31428   8.186   0.987   1.435 -0.0868 -0.1481 -2.7768
  233MOL0     H31429   8.310   1.027   1.656 -0.6446  0.1963  2.5908
  233MOL0     H31430   8.320   0.846   1.673  1.3349  1.5860  0.2323
  233MOL0     H31431   8.085   1.042   1.685  1.2621 -0.0890  0.4026
  233MOL0     H31432   8.069   0.859   1.649 -0.1225 -1.9877  2.1546
  233MOL0     H31433   8.034   0.930   1.885  0.9823  2.6724  1.2144
  233MOL0     H31434   8.208   0.973   1.899  0.8637  0.7346 -0.5953
  233MOL0     H31435   8.250   0.709   1.869 -0.6425 -1.8954 -1.7423
  233MOL0     H31436   8.089   0.699   1.816 -0.5987 -0.4048 -0.0305
  233MOL0     H31437   8.626   0.444   1.275 -2.7569 -2.2013 -0.9721
  233MOL0     H31438   8.812   0.445   1.099  1.3694  3.1018 -0.8626
  233MOL0     H31439   9.036   0.449   0.893  0.9391  1.0361  1.3719
  233MOL0     H31440   9.263   0.391   0.805 -0.6768 -1.1695 -0.1262
  233MOL0     H31441   9.175   0.018   1.863 -3.8648 -3.0282  0.2957
  233MOL0     H31442   9.151  -0.020   2.114 -1.3548 -0.2568  1.1754
  233MOL0     H31443   9.332   0.049   2.564  0.3232 -1.1121  0.5863
  233MOL0     H31444   9.252  -0.074   2.765 -1.6732 -2.2730  2.2958
  233MOL0     H31445   9.192  -0.253   2.868  0.5980  2.2085  0.9918
  233MOL0     H31446   9.125  -0.118   2.951  3.0728  0.0556 -0.1419
  233MOL0     H31447   9.076  -0.355   3.088  0.4868 -1.8891 -1.3119
  233MOL0     H31448   8.974  -0.383   2.950 -0.5475  1.5812 -1.2712
  233MOL0     H31449   8.934  -0.133   3.119  1.2930 -0.8739  2.8730
  233MOL0     H31450   8.866  -0.303   3.146  1.5007 -0.6975 -0.1098
  233MOL0     H31451   8.750  -0.304   2.948  2.1212  0.1622 -2.2949
  233MOL0     H31452   8.809  -0.147   2.895  1.2452  3.1895  2.9708
  233MOL0     H31453   8.524  -0.043   3.199  0.8655  0.1739  0.2451
  233MOL0     H31454   8.873  -0.152   2.598 -0.1961  0.7915 -0.6381
  233MOL0     H31455   8.928   0.018   2.407  0.3042  1.0445  1.7941
  234MOL0     O31456  11.162   1.149  11.100  0.8065 -0.6201 -0.4592
  234MOL0     C31457  11.180   1.037  11.140 -0.6368  0.4465 -0.3850
  234MOL0     O31458  11.088   0.951  11.210  0.3621  0.8857  0.0110
  234MOL0     C31459  10.970   1.014  11.245  0.1631 -0.3754  0.2588
  234MOL0     C31460  10.958   1.136  11.310  0.8414  0.8811 -0.1346
  234MOL0     C31461  10.830   1.192  11.333  0.1710 -0.9371  0.3982
  234MOL0     C31462  10.710   1.122  11.297 -0.1983 -0.6548 -1.8491
  234MOL0     O31463  10.580   1.171  11.327  0.4667  0.6141 -0.1551
  234MOL0     C31464  10.461   1.107  11.269 -0.1253 -0.1935 -0.0868
  234MOL0     C31465  10.328   1.188  11.288  0.8661  0.2775  0.1314
  234MOL0     C31466  10.202   1.150  11.207  0.0514 -0.9788 -0.4762
  234MOL0     C31467  10.208   1.020  11.127  0.5555  0.0566 -0.9200
  234MOL0     C31468  10.100   1.009  11.027  0.0727  0.2134  0.2098
  234MOL0     C31469  10.098   0.882  10.944  0.2164 -0.0659 -0.0904
  234MOL0     C31470   9.998   0.880  10.829 -0.1132 -0.2484  1.1252
  234MOL0     C31471   9.852   0.885  10.860  0.3361 -0.3148  0.3266
  234MOL0     N31472   9.773   0.896  10.733  0.6440  0.2631 -0.1079
  234MOL0     C31473   9.639   0.852  10.721 -0.5781  0.2028 -0.8713
  234MOL0     C31474   9.608   0.857  10.596 -0.3336 -0.6489  0.1332
  234MOL0     C31475   9.472   0.851  10.542  0.3897  0.6465  0.1239
  234MOL0     C31476   9.380   0.954  10.595  0.0349  0.2566 -0.9225
  234MOL0     C31477   9.250   0.972  10.510  0.5070 -0.1147 -0.2655
  234MOL0     C31478   9.145   0.858  10.522  0.3268 -0.2880  0.5016
  234MOL0     O31479   9.054   0.847  10.406 -0.3041 -0.4506  0.4217
  234MOL0     C31480   9.089   0.786  10.293  0.1325  0.0652 -0.4988
  234MOL0     C31481   8.987   0.766  10.204  0.2795  0.1070 -0.6294
  234MOL0     C31482   9.010   0.713  10.078 -0.0913  0.1611  1.0879
  234MOL0     C31483   8.880   0.696   9.984  0.5687  0.2412  0.6888
  234MOL0     C31484   9.145   0.673  10.038  0.4834 -0.4547 -0.5042
  234MOL0     C31485   9.186   0.604   9.911  0.5895  0.6083 -0.5227
  234MOL0     O31486   9.093   0.521   9.859  0.4294  0.4877 -0.5376
  234MOL0     C31487   9.139   0.433   9.763 -0.1595 -0.6093  0.5797
  234MOL0     C31488   9.172   0.304   9.803 -0.3479  0.3368 -0.2177
  234MOL0     C31489   9.206   0.199   9.706  0.7857  0.1356  0.7850
  234MOL0     C31490   9.203   0.228   9.570  0.2062 -0.2593  0.2839
  234MOL0     O31491   9.232   0.135   9.482  0.0984  0.6005  0.0899
  234MOL0     C31492   9.253   0.151   9.342 -0.3144  0.2694 -0.7738
  234MOL0     C31493   9.345   0.041   9.293  0.4112  0.4994 -0.3802
  234MOL0     C31494   9.398   0.072   9.159 -0.1243  0.3996  0.7770
  234MOL0     C31495   9.470  -0.049   9.082  0.3465  0.4959 -0.6265
  234MOL0     C31496   9.530   0.006   8.958 -0.0847 -0.1754  0.4142
  234MOL0     C31497   9.609  -0.102   8.891  0.6541  1.1685  0.2488
  234MOL0     C31498   9.688  -0.080   8.760 -0.5035 -0.2124  0.2415
  234MOL0     C31499   9.743  -0.208   8.707  0.0781  0.1181  0.4969
  234MOL0    Cl31500   9.862  -0.192   8.567 -0.3103 -0.1806 -0.3372
  234MOL0     C31501   9.169   0.363   9.540  0.1401 -0.1746  0.1353
  234MOL0     C31502   9.139   0.461   9.625  0.0728 -0.5196  0.5590
  234MOL0     O31503   9.294   0.614   9.863 -1.1112  0.0903  0.4527
  234MOL0     C31504   9.240   0.687  10.143 -0.4911  0.4708  0.7249
  234MOL0     C31505   9.219   0.751  10.262  0.0610  1.2034  0.6182
  234MOL0     N31506   9.721   0.906  10.528  0.6332  0.7626 -0.9604
  234MOL0     N31507   9.814   0.924  10.606  0.1213 -0.3406  1.2388
  234MOL0     C31508  10.730   0.996  11.238 -1.0824 -0.1542  0.6790
  234MOL0     C31509  10.857   0.946  11.207  0.7770 -0.2681  0.5045
  234MOL0     C31510  11.298   0.956  11.086  0.1874  0.7543  0.8790
  234MOL0     C31511  11.403   1.025  11.035 -0.5640 -0.4720  0.3844
  234MOL0     C31512  11.499   0.961  10.969 -0.3934  0.7977  0.0449
  234MOL0     C31513  11.499   0.820  10.950  0.9525  0.7405  0.2709
  234MOL0     O31514  11.588   0.739  10.889 -0.4353 -0.3222  0.4786
  234MOL0     C31515  11.717   0.799  10.853 -0.9456 -0.1545  0.0268
  234MOL0     C31516  11.819   0.688  10.827  1.4584  0.5239  0.8396
  234MOL0     C31517  11.794   0.627  10.684  0.2975 -0.1494 -0.1353
  234MOL0     C31518  11.915   0.558  10.635  0.4505 -0.8704  0.6500
  234MOL0     C31519  11.931   0.434  10.706 -0.0578 -0.1973 -0.1224
  234MOL0     C31520  11.948   0.321  10.741  0.0417  0.5612  0.6912
  234MOL0     C31521  11.407   0.744  11.012  0.6409 -0.0536  0.2042
  234MOL0     C31522  11.300   0.818  11.078 -0.4876  0.3303 -0.2496
  234MOL0     H31523  11.051   1.183  11.340  0.4072  0.2700  2.4846
  234MOL0     H31524  10.841   1.298  11.355 -5.5593  0.6210 -2.3340
  234MOL0     H31525  10.482   1.088  11.163  3.6038 -2.8511  0.9351
  234MOL0     H31526  10.449   1.007  11.311  1.9062 -0.3449  0.2372
  234MOL0     H31527  10.286   1.184  11.389  0.6733  0.4387  0.0571
  234MOL0     H31528  10.350   1.292  11.264 -2.7650  0.5833 -2.7412
  234MOL0     H31529  10.114   1.151  11.272 -1.1564 -3.0215 -1.9613
  234MOL0     H31530  10.191   1.231  11.134  1.0958 -0.8307 -0.4884
  234MOL0     H31531  10.301   1.019  11.069 -0.3469  0.1663 -2.4299
  234MOL0     H31532  10.198   0.935  11.195  3.9213  0.0604 -0.2324
  234MOL0     H31533  10.008   0.999  11.086 -0.4380  1.3865 -0.3563
  234MOL0     H31534  10.093   1.100  10.967 -3.2376  0.4224  0.7490
  234MOL0     H31535  10.202   0.880  10.908  1.2152  4.6849  1.7627
  234MOL0     H31536  10.082   0.792  11.003 -0.9258 -0.4481 -0.9559
  234MOL0     H31537  10.026   0.957  10.756 -2.5203 -1.4796 -1.2354
  234MOL0     H31538  10.016   0.787  10.774  2.2113  0.7818  0.0006
  234MOL0     H31539   9.830   0.979  10.911 -0.7350 -0.0739 -0.5410
  234MOL0     H31540   9.825   0.801  10.925  3.1944 -1.2961  0.3826
  234MOL0     H31541   9.564   0.829  10.795 -0.9158 -0.9229 -1.5388
  234MOL0     H31542   9.479   0.872  10.435  1.4930 -0.9159 -0.1418
  234MOL0     H31543   9.419   0.756  10.548 -6.7192  4.0031  0.4266
  234MOL0     H31544   9.432   1.049  10.578 -1.0944  0.9719 -0.4942
  234MOL0     H31545   9.354   0.929  10.698  2.3780 -2.7122 -0.9113
  234MOL0     H31546   9.270   0.993  10.405 -2.1806 -1.4724 -1.1235
  234MOL0     H31547   9.199   1.060  10.550  0.2954  0.3743 -1.5560
  234MOL0     H31548   9.092   0.871  10.617  0.0194 -1.6238  0.5312
  234MOL0     H31549   9.196   0.763  10.540  1.5561  0.1138 -0.6958
  234MOL0     H31550   8.894   0.816  10.231  1.9451  1.3082  3.7772
  234MOL0     H31551   8.792   0.703  10.048 -0.0378  1.2704 -0.2254
  234MOL0     H31552   8.863   0.777   9.913 -2.2810 -0.6597  0.2082
  234MOL0     H31553   8.877   0.601   9.929 -1.1176  0.1789  0.8220
  234MOL0     H31554   9.153   0.272   9.905 -2.6038  1.5234 -0.2018
  234MOL0     H31555   9.234   0.098   9.736 -1.6434 -0.0465  2.7776
  234MOL0     H31556   9.151   0.154   9.304 -0.8776  0.5445  0.6799
  234MOL0     H31557   9.307   0.246   9.335 -2.1028  1.4929  0.9943
  234MOL0     H31558   9.423   0.029   9.369 -0.5967  1.2521  0.8169
  234MOL0     H31559   9.300  -0.058   9.302  2.4957 -0.4898 -0.1213
  234MOL0     H31560   9.459   0.162   9.168 -2.4410  1.9783  1.5385
  234MOL0     H31561   9.317   0.084   9.086  1.3259  0.1758 -0.9549
  234MOL0     H31562   9.544  -0.089   9.153 -2.9352 -0.3089  2.6811
  234MOL0     H31563   9.400  -0.128   9.054 -0.8158 -0.6928  4.6066
  234MOL0     H31564   9.599   0.085   8.989  0.4980 -0.2325 -0.7172
  234MOL0     H31565   9.448   0.045   8.897 -0.3154  0.3929  1.0769
  234MOL0     H31566   9.679  -0.141   8.966 -0.5935 -0.1983  0.7520
  234MOL0     H31567   9.548  -0.192   8.878  1.2646  0.6745  0.7397
  234MOL0     H31568   9.771  -0.014   8.788  1.4859 -3.0873  1.5590
  234MOL0     H31569   9.628  -0.034   8.681 -1.8868 -4.6676 -1.6299
  234MOL0     H31570   9.667  -0.271   8.659 -1.8507  0.1737  3.2543
  234MOL0     H31571   9.793  -0.269   8.782 -0.5548 -1.8040 -0.5637
  234MOL0     H31572   9.167   0.404   9.439  2.0247  0.8084  0.4612
  234MOL0     H31573   9.110   0.558   9.584 -2.5536 -2.1679 -1.8501
  234MOL0     H31574   9.340   0.645  10.135 -1.2379 -1.0419 -3.4432
  234MOL0     H31575   9.305   0.749  10.327  0.5829 -1.7463 -0.0201
  234MOL0     H31576  10.648   0.931  11.210 -2.0639  1.9903 -1.7815
  234MOL0     H31577  10.872   0.853  11.155  1.0929 -0.5091  1.0076
  234MOL0     H31578  11.418   1.133  11.031 -2.4285 -0.2030 -0.3279
  234MOL0     H31579  11.591   1.012  10.942  2.3743 -2.5592  2.1692
  234MOL0     H31580  11.705   0.861  10.764  0.1474  1.6136  1.0426
  234MOL0     H31581  11.755   0.862  10.934 -2.9731 -0.1974  1.0643
  234MOL0     H31582  11.801   0.613  10.905 -3.4833  0.1236 -0.3265
  234MOL0     H31583  11.920   0.729  10.829  2.1158 -0.7800 -1.7485
  234MOL0     H31584  11.758   0.712  10.626 -1.4406 -2.1298 -2.1496
  234MOL0     H31585  11.722   0.545  10.691  0.2152  0.0627  2.3779
  234MOL0     H31586  12.004   0.621  10.648  1.3932 -1.2189 -2.8403
  234MOL0     H31587  11.899   0.526  10.531 -2.7661 -0.8733  1.0639
  234MOL0     H31588  11.939   0.230  10.797  1.0293  2.0865  3.5110
  234MOL0     H31589  11.392   0.636  11.008 -0.5787  0.1253 -0.7744
  234MOL0     H31590  11.224   0.765  11.134  0.5616  0.7236  1.6059
  235MOL0     O31591   9.341   9.856   5.122  0.1260  0.6338  0.9737
  235MOL0     C31592   9.298   9.958   5.176 -0.6347  0.6232  0.1195
  235MOL0     O31593   9.179   9.964   5.245  0.4245 -0.1849 -0.6254
  235MOL0     C31594   9.125   9.834   5.272  0.7603  0.1668  0.8123
  235MOL0     C31595   9.012   9.792   5.199 -0.7449 -0.7782  0.4197
  235MOL0     C31596   8.967   9.665   5.212  0.8232  0.4384  0.7042
  235MOL0     C31597   9.024   9.575   5.305 -0.8980 -0.6375 -0.3989
  235MOL0     O31598   8.982   9.440   5.305  0.3217 -0.6500 -0.2605
  235MOL0     C31599   9.060   9.334   5.359 -0.9523  0.8274  0.1497
  235MOL0     C31600   9.159   9.271   5.254 -0.0271 -0.2017  0.8223
  235MOL0     C31601   9.204   9.129   5.290  0.1990 -0.7949  0.7520
  235MOL0     C31602   9.301   9.072   5.194  0.1100 -0.1337  0.0948
  235MOL0     C31603   9.372   8.941   5.246 -0.1447 -0.8165 -0.4154
  235MOL0     C31604   9.273   8.826   5.269 -0.1145 -0.1579 -0.4416
  235MOL0     C31605   9.331   8.693   5.315  0.5670 -0.8792 -0.3782
  235MOL0     C31606   9.383   8.692   5.464 -0.1450  0.5086  0.7039
  235MOL0     N31607   9.405   8.554   5.511 -0.3134 -1.1432  0.1885
  235MOL0     C31608   9.519   8.481   5.509 -0.8423 -0.7804 -0.3309
  235MOL0     C31609   9.481   8.355   5.535  0.0945  0.4581 -0.5953
  235MOL0     C31610   9.569   8.222   5.541 -0.2715 -0.4103  0.2520
  235MOL0     C31611   9.542   8.134   5.661 -0.7452  0.4380 -0.2398
  235MOL0     C31612   9.580   8.200   5.788 -0.4245  0.1298 -0.6331
  235MOL0     C31613   9.737   8.199   5.809 -0.0301 -0.2476  0.0809
  235MOL0     O31614   9.758   8.182   5.948  0.1412 -0.0540 -0.2781
  235MOL0     C31615   9.881   8.186   6.019  0.2420 -0.0134  0.9071
  235MOL0     C31616   9.872   8.170   6.152  0.5535  0.2183 -0.3324
  235MOL0     C31617   9.991   8.178   6.237  0.6173  0.4225 -0.5765
  235MOL0     C31618   9.970   8.159   6.388  0.3674 -0.8483 -0.8647
  235MOL0     C31619  10.119   8.195   6.174  0.3445 -0.7906 -0.0156
  235MOL0     C31620  10.254   8.200   6.240  0.7469  0.4857 -0.8803
  235MOL0     O31621  10.354   8.221   6.161 -0.6689  0.3799 -0.4645
  235MOL0     C31622  10.486   8.220   6.197  1.2401 -0.7310  0.2458
  235MOL0     C31623  10.540   8.233   6.327 -0.6605  0.4331  0.5573
  235MOL0     C31624  10.681   8.238   6.339 -0.2177  0.9423 -0.5999
  235MOL0     C31625  10.765   8.261   6.232  0.7169 -0.4583  0.1023
  235MOL0     O31626  10.897   8.264   6.230  0.6821  0.1367  0.6393
  235MOL0     C31627  10.960   8.291   6.352 -1.3194  0.0361 -0.1145
  235MOL0     C31628  11.110   8.316   6.347 -0.9741  0.4382  0.0870
  235MOL0     C31629  11.190   8.219   6.267 -0.0674  0.0647 -0.3501
  235MOL0     C31630  11.252   8.119   6.366 -0.4625 -0.4831 -1.1099
  235MOL0     C31631  11.366   8.053   6.283  0.3795  0.1857  0.4908
  235MOL0     C31632  11.425   7.956   6.386  0.7668  0.8852  0.0978
  235MOL0     C31633  11.528   8.006   6.486 -0.4166 -0.2242 -0.6723
  235MOL0     C31634  11.550   7.897   6.596  0.5440  0.4121  0.4383
  235MOL0    Cl31635  11.647   7.768   6.522  0.2851 -0.2159  0.3654
  235MOL0     C31636  10.701   8.268   6.100 -0.3943  1.1626 -0.5887
  235MOL0     C31637  10.568   8.243   6.090 -0.2621 -0.1303 -0.4958
  235MOL0     O31638  10.262   8.188   6.365  0.1192  0.2303 -0.4275
  235MOL0     C31639  10.123   8.205   6.035  0.7467 -0.3944  0.1939
  235MOL0     C31640  10.007   8.201   5.955  0.4550 -0.3695 -0.6341
  235MOL0     N31641   9.352   8.369   5.576 -0.3519  0.2862 -0.1970
  235MOL0     N31642   9.300   8.482   5.551 -0.2038 -0.4705  0.1560
  235MOL0     C31643   9.125   9.621   5.390  0.7319  0.3696  0.0232
  235MOL0     C31644   9.180   9.750   5.372 -0.4813 -1.4902 -0.8811
  235MOL0     C31645   9.374  10.081   5.161  0.3026 -0.9842 -0.2762
  235MOL0     C31646   9.446  10.115   5.051  0.8210  0.1988 -1.0627
  235MOL0     C31647   9.499  10.241   5.032 -0.0568 -0.7937  0.5592
  235MOL0     C31648   9.481  10.352   5.117 -0.2954  0.5287  0.0241
  235MOL0     O31649   9.541  10.475   5.086  0.2826 -0.5267 -0.2408
  235MOL0     C31650   9.603  10.570   5.187  0.2758 -0.7233 -0.0885
  235MOL0     C31651   9.516  10.694   5.202 -0.0129 -0.0800  0.1978
  235MOL0     C31652   9.592  10.807   5.284 -0.1609 -0.0753 -0.3404
  235MOL0     C31653   9.510  10.938   5.295 -0.0600 -0.0082 -0.2054
  235MOL0     C31654   9.395  10.923   5.385 -0.5719  0.2534 -0.0035
  235MOL0     C31655   9.301  10.907   5.461  0.0452 -0.7722  0.1292
  235MOL0     C31656   9.419  10.315   5.234 -0.4182 -0.1971  0.2169
  235MOL0     C31657   9.357  10.193   5.251  0.1512 -0.7024  1.2514
  235MOL0     H31658   8.957   9.853   5.129  0.9861  0.4754  0.0885
  235MOL0     H31659   8.880   9.628   5.160  0.0941  1.3086  1.2658
  235MOL0     H31660   9.125   9.369   5.440 -3.5158 -0.2762  2.8515
  235MOL0     H31661   9.009   9.253   5.412  0.6871  1.5812  3.1296
  235MOL0     H31662   9.101   9.270   5.160 -1.9592 -0.6432  1.9614
  235MOL0     H31663   9.248   9.333   5.241  0.4195 -1.2736 -1.9726
  235MOL0     H31664   9.249   9.127   5.389  1.9901 -2.3029 -0.0351
  235MOL0     H31665   9.116   9.065   5.284 -0.8470  0.6344 -4.3406
  235MOL0     H31666   9.246   9.067   5.100 -0.8385  0.1240  0.6290
  235MOL0     H31667   9.382   9.138   5.159  1.1622 -0.9536  0.9355
  235MOL0     H31668   9.446   8.905   5.175  0.7993  0.4982 -0.1486
  235MOL0     H31669   9.418   8.965   5.343  1.1892  0.1114 -1.2443
  235MOL0     H31670   9.205   8.862   5.346  1.9673  1.6182  0.6757
  235MOL0     H31671   9.225   8.813   5.171  1.3062 -1.4628 -1.0088
  235MOL0     H31672   9.241   8.630   5.312 -3.7591  4.3176  2.0855
  235MOL0     H31673   9.402   8.649   5.244  1.1597  1.6793 -1.5006
  235MOL0     H31674   9.304   8.739   5.523 -2.8143  0.2332 -2.3663
  235MOL0     H31675   9.477   8.746   5.477  0.5520 -0.1730 -1.1836
  235MOL0     H31676   9.617   8.520   5.483 -0.4739 -1.6423 -0.2893
  235MOL0     H31677   9.560   8.162   5.450 -0.8807  1.3930 -0.9438
  235MOL0     H31678   9.676   8.247   5.544 -0.3927  0.1151  3.4239
  235MOL0     H31679   9.593   8.039   5.648 -0.0336  0.4210  2.2251
  235MOL0     H31680   9.434   8.116   5.666 -0.6987 -0.7537 -2.3702
  235MOL0     H31681   9.539   8.140   5.870 -0.7279 -1.5789 -1.9730
  235MOL0     H31682   9.540   8.301   5.797 -1.4066 -0.2858 -0.0518
  235MOL0     H31683   9.800   8.275   5.762  2.7868 -1.9907  0.7862
  235MOL0     H31684   9.775   8.105   5.768  0.2485  0.5449 -1.5244
  235MOL0     H31685   9.770   8.149   6.183 -0.3310  2.8240 -1.2049
  235MOL0     H31686  10.042   8.206   6.455 -2.0641 -3.4311  4.1837
  235MOL0     H31687   9.869   8.186   6.422  0.4718 -0.9139 -0.4976
  235MOL0     H31688   9.975   8.053   6.414 -2.7582 -0.3513  2.7634
  235MOL0     H31689  10.474   8.254   6.411  0.7792 -1.1538  2.1839
  235MOL0     H31690  10.730   8.237   6.436 -0.5877  3.2306 -0.3178
  235MOL0     H31691  10.923   8.377   6.408  1.7810  1.4446 -0.0580
  235MOL0     H31692  10.942   8.210   6.424  2.3083  1.2733  2.4788
  235MOL0     H31693  11.132   8.415   6.306  2.1555 -0.5627 -0.9589
  235MOL0     H31694  11.144   8.329   6.450 -2.2636  0.7036  0.4981
  235MOL0     H31695  11.263   8.256   6.195  4.4021 -2.3937  2.4895
  235MOL0     H31696  11.121   8.169   6.198  0.9858 -1.2424 -0.4821
  235MOL0     H31697  11.296   8.168   6.452  2.5200 -2.9421 -1.0818
  235MOL0     H31698  11.178   8.049   6.406 -1.3805  1.0752  0.0334
  235MOL0     H31699  11.425   8.134   6.241  0.2729  0.3147  0.5883
  235MOL0     H31700  11.315   7.993   6.207  0.8841  0.7018 -0.2738
  235MOL0     H31701  11.343   7.897   6.429 -0.6562  0.8126 -2.5485
  235MOL0     H31702  11.462   7.877   6.319 -0.1559 -0.0533  0.6599
  235MOL0     H31703  11.503   8.103   6.529 -1.5158 -0.5393 -0.5654
  235MOL0     H31704  11.628   8.018   6.443 -0.6793  1.8781 -0.7830
  235MOL0     H31705  11.463   7.865   6.654 -0.6078  2.5826  0.0181
  235MOL0     H31706  11.610   7.946   6.673  1.3128  3.7415 -2.0250
  235MOL0     H31707  10.768   8.270   6.015 -1.5637  1.4873 -1.5294
  235MOL0     H31708  10.514   8.255   5.997 -0.3868 -1.0626 -0.5512
  235MOL0     H31709  10.216   8.233   5.988  0.2405 -0.0020 -0.6140
  235MOL0     H31710  10.003   8.205   5.846  3.1683 -2.1993 -0.8947
  235MOL0     H31711   9.167   9.556   5.467 -0.4091 -0.9444 -0.4270
  235MOL0     H31712   9.267   9.785   5.425 -0.0814  1.0289 -3.0223
  235MOL0     H31713   9.443  10.047   4.967 -0.2456  0.0188 -0.8905
  235MOL0     H31714   9.555  10.252   4.940  1.2011 -1.3819  1.2232
  235MOL0     H31715   9.635  10.515   5.275  0.9955 -3.2013 -1.7849
  235MOL0     H31716   9.697  10.607   5.146 -0.0479 -0.1530 -0.3265
  235MOL0     H31717   9.430  10.659   5.262 -0.7303  1.7067  0.2759
  235MOL0     H31718   9.485  10.732   5.105  1.0220  1.7189  0.5250
  235MOL0     H31719   9.686  10.830   5.233 -0.4674 -0.8518 -1.2969
  235MOL0     H31720   9.610  10.777   5.387 -4.8487 -1.3055  0.3759
  235MOL0     H31721   9.488  10.957   5.189 -0.1395 -1.0432 -0.3935
  235MOL0     H31722   9.578  11.018   5.325  0.5517 -0.3860 -0.5464
  235MOL0     H31723   9.209  10.904   5.517  0.3720 -0.7253  0.6744
  235MOL0     H31724   9.407  10.394   5.307  1.2630 -1.0609  1.4865
  235MOL0     H31725   9.289  10.190   5.335  0.5654  2.6701  1.8624
  236MOL0     O31726   4.536   9.219   5.734 -0.8943  0.1003  0.4317
  236MOL0     C31727   4.630   9.205   5.659 -0.7488 -0.0121 -1.2476
  236MOL0     O31728   4.742   9.284   5.662  0.5539 -0.0287 -0.3710
  236MOL0     C31729   4.746   9.406   5.738 -0.7914 -0.2341  0.0045
  236MOL0     C31730   4.867   9.427   5.797  0.0119  0.2490  1.2261
  236MOL0     C31731   4.880   9.531   5.886  0.5722  0.7219  0.8840
  236MOL0     C31732   4.785   9.624   5.903  0.0859  0.0340  0.6301
  236MOL0     O31733   4.799   9.720   6.004  0.0197  0.1745  0.0249
  236MOL0     C31734   4.762   9.682   6.132  0.3636 -0.1140  0.1582
  236MOL0     C31735   4.879   9.708   6.232  0.8144  0.0393 -0.8500
  236MOL0     C31736   4.838   9.675   6.377  0.7462 -0.8868  0.6659
  236MOL0     C31737   4.937   9.733   6.480 -0.9791 -0.4828  0.6601
  236MOL0     C31738   5.043   9.628   6.512 -0.6613  0.9193  0.4336
  236MOL0     C31739   5.151   9.677   6.611 -1.4781  0.5584  0.0359
  236MOL0     C31740   5.245   9.787   6.557  0.0087 -0.3999 -0.2462
  236MOL0     C31741   5.355   9.745   6.463  0.0021  0.3969  0.4167
  236MOL0     N31742   5.446   9.660   6.523 -1.1475  0.1368 -0.1414
  236MOL0     C31743   5.551   9.714   6.598 -0.2826  0.3422 -0.1105
  236MOL0     C31744   5.626   9.606   6.632 -0.6756  0.8213 -0.4454
  236MOL0     C31745   5.747   9.607   6.718  0.0575  0.3195  0.4863
  236MOL0     C31746   5.872   9.567   6.646 -0.2717  0.7176  0.5853
  236MOL0     C31747   5.984   9.554   6.747 -0.2937  0.2921  0.4655
  236MOL0     C31748   6.109   9.516   6.659 -0.1105 -0.5896  0.6744
  236MOL0     O31749   6.182   9.444   6.765 -0.3196 -0.6690 -0.2503
  236MOL0     C31750   6.323   9.462   6.759  1.0509  0.8393  0.3225
  236MOL0     C31751   6.398   9.407   6.862 -0.6578  0.6551 -0.0657
  236MOL0     C31752   6.534   9.432   6.871 -0.3902 -0.8600  0.5228
  236MOL0     C31753   6.594   9.400   7.001 -0.9500 -0.2953 -0.2816
  236MOL0     C31754   6.600   9.477   6.757  0.5407 -0.2044 -0.9620
  236MOL0     C31755   6.740   9.500   6.750 -0.6125  0.4085  0.4990
  236MOL0     O31756   6.782   9.601   6.674 -0.3439 -0.4113 -0.1065
  236MOL0     C31757   6.914   9.641   6.650  0.3796  0.0218  0.5981
  236MOL0     C31758   7.029   9.569   6.680 -0.3506  0.5375 -0.1329
  236MOL0     C31759   7.152   9.630   6.644 -0.4698  0.1720 -0.5459
  236MOL0     C31760   7.157   9.749   6.571 -0.5497  0.8691  1.0146
  236MOL0     O31761   7.280   9.775   6.514 -0.1488 -1.0372 -0.6358
  236MOL0     C31762   7.265   9.791   6.373  0.2001 -0.0945 -0.5667
  236MOL0     C31763   7.411   9.797   6.314 -0.3436 -0.3452 -0.0770
  236MOL0     C31764   7.398   9.832   6.159  0.6175  0.2165 -0.4469
  236MOL0     C31765   7.523   9.822   6.075 -0.2602  0.7082 -0.2977
  236MOL0     C31766   7.511   9.882   5.937  0.5523 -0.2414  0.0817
  236MOL0     C31767   7.518  10.040   5.951  0.1034 -0.6510  0.4459
  236MOL0     C31768   7.545  10.111   5.819  0.7722  0.6311  0.5225
  236MOL0     C31769   7.572  10.266   5.838  0.4206  1.0767  0.1666
  236MOL0    Cl31770   7.581  10.345   5.677  0.4924 -0.5140 -0.1290
  236MOL0     C31771   7.032   9.815   6.543  0.0536 -1.1015  0.3095
  236MOL0     C31772   6.906   9.767   6.592 -0.4934  1.4681  0.4433
  236MOL0     O31773   6.812   9.418   6.812 -0.4233  0.3021  0.1885
  236MOL0     C31774   6.529   9.530   6.651  1.0443 -0.2990 -0.8148
  236MOL0     C31775   6.390   9.523   6.648 -0.0395 -0.1646 -0.3737
  236MOL0     N31776   5.574   9.490   6.575 -0.6003  0.1838  0.1974
  236MOL0     N31777   5.464   9.528   6.518  0.0167  0.3855 -0.3998
  236MOL0     C31778   4.665   9.620   5.832  0.3508 -0.2442  0.8698
  236MOL0     C31779   4.654   9.508   5.739 -0.4110 -0.2923 -0.8703
  236MOL0     C31780   4.632   9.070   5.597  0.2895 -0.7381 -0.2053
  236MOL0     C31781   4.531   8.977   5.605 -0.3075 -0.1603 -0.5913
  236MOL0     C31782   4.548   8.847   5.547  0.0540 -0.5827 -0.4140
  236MOL0     C31783   4.670   8.816   5.484 -0.0842 -0.7262 -0.2966
  236MOL0     O31784   4.675   8.689   5.436 -0.0606  0.8349  0.4683
  236MOL0     C31785   4.802   8.638   5.379  0.0428 -0.7496  0.2390
  236MOL0     C31786   4.795   8.499   5.321  0.9776 -0.0890  0.4516
  236MOL0     C31787   4.719   8.495   5.181  0.9507 -0.4746 -0.1438
  236MOL0     C31788   4.757   8.369   5.108 -0.2228  0.3778  0.8953
  236MOL0     C31789   4.677   8.271   5.172  1.4996 -0.7036 -0.5581
  236MOL0     C31790   4.603   8.204   5.236 -0.0419 -0.1882 -0.4447
  236MOL0     C31791   4.776   8.902   5.487  0.1709  0.0237  0.4845
  236MOL0     C31792   4.749   9.032   5.530 -0.8069 -0.8607  0.1496
  236MOL0     H31793   4.950   9.358   5.788  0.1587  0.3897  1.5039
  236MOL0     H31794   4.969   9.536   5.949  2.0846 -1.7432 -0.8608
  236MOL0     H31795   4.676   9.743   6.160 -1.6119 -3.5933  2.5327
  236MOL0     H31796   4.731   9.577   6.139 -0.8268  0.0515 -1.9072
  236MOL0     H31797   4.962   9.638   6.223  2.2891  0.8852  3.6385
  236MOL0     H31798   4.925   9.806   6.218  1.5144  0.0434  1.1754
  236MOL0     H31799   4.742   9.726   6.388  1.9041  1.9526 -1.2015
  236MOL0     H31800   4.834   9.566   6.393 -1.0820 -0.6708  2.0065
  236MOL0     H31801   4.978   9.820   6.428 -0.9377 -0.1425  1.2557
  236MOL0     H31802   4.886   9.774   6.568 -0.0156 -0.2331  1.1173
  236MOL0     H31803   4.987   9.555   6.573  2.2891 -0.5266  1.6300
  236MOL0     H31804   5.075   9.583   6.418 -1.5828  1.7798 -0.3049
  236MOL0     H31805   5.096   9.728   6.690 -0.9716  3.3347 -1.3041
  236MOL0     H31806   5.209   9.591   6.647  0.4296  1.7986  0.0480
  236MOL0     H31807   5.181   9.862   6.511 -0.2282 -1.1560 -1.1717
  236MOL0     H31808   5.284   9.829   6.650  0.9216  0.6981 -1.0997
  236MOL0     H31809   5.411   9.835   6.436  3.6415 -1.8284 -0.2117
  236MOL0     H31810   5.313   9.693   6.376  3.1039 -0.7953 -0.4928
  236MOL0     H31811   5.554   9.813   6.642 -0.5307 -0.2056  1.2123
  236MOL0     H31812   5.751   9.704   6.769 -1.0517 -0.0716  1.3644
  236MOL0     H31813   5.726   9.534   6.797  1.7786  0.8488  1.5106
  236MOL0     H31814   5.906   9.646   6.578  0.5248  1.7343  2.1041
  236MOL0     H31815   5.863   9.465   6.607 -2.5553  0.5977  1.2816
  236MOL0     H31816   5.963   9.484   6.829  1.5836  1.9922  2.5238
  236MOL0     H31817   5.987   9.653   6.792  0.5559  0.1414  0.7744
  236MOL0     H31818   6.155   9.607   6.622 -1.7790 -0.8426 -2.4045
  236MOL0     H31819   6.087   9.447   6.577  0.9339  0.9091 -0.9305
  236MOL0     H31820   6.347   9.350   6.939 -0.8749  0.1359 -0.5796
  236MOL0     H31821   6.527   9.434   7.081  0.8911 -1.5074  1.9160
  236MOL0     H31822   6.600   9.294   7.028  2.1601  0.1909  1.3916
  236MOL0     H31823   6.696   9.438   7.011  0.1168 -1.9240 -3.4511
  236MOL0     H31824   7.031   9.470   6.723  0.2551  1.5725  2.3670
  236MOL0     H31825   7.240   9.569   6.666 -0.4667  0.0018 -1.0172
  236MOL0     H31826   7.205   9.705   6.342  0.9695 -0.6606 -0.5269
  236MOL0     H31827   7.213   9.881   6.340  1.5307  1.6542  1.7831
  236MOL0     H31828   7.476   9.869   6.365  1.6352 -1.3834 -1.0239
  236MOL0     H31829   7.457   9.698   6.325  4.0784  1.5142  0.4808
  236MOL0     H31830   7.354   9.931   6.145  2.1867  1.3708  2.0465
  236MOL0     H31831   7.331   9.757   6.116 -0.2572  0.6082  0.1928
  236MOL0     H31832   7.609   9.852   6.137 -1.7753  1.5567  1.5010
  236MOL0     H31833   7.535   9.714   6.078 -1.1174  0.5853  3.4274
  236MOL0     H31834   7.415   9.846   5.898 -0.7994  3.2445 -0.1614
  236MOL0     H31835   7.602   9.838   5.895  2.1530  0.0403  3.0042
  236MOL0     H31836   7.429  10.099   5.973 -0.8331 -0.5924 -2.8599
  236MOL0     H31837   7.588  10.061   6.032  0.0909 -0.9967  0.5463
  236MOL0     H31838   7.447  10.105   5.770  1.4323  2.1231 -1.0543
  236MOL0     H31839   7.624  10.055   5.770  1.4872  0.0874  2.2106
  236MOL0     H31840   7.670  10.276   5.884  0.1182  2.8821  0.5090
  236MOL0     H31841   7.508  10.317   5.911 -0.1290 -1.8428  1.8675
  236MOL0     H31842   7.038   9.904   6.482 -0.5411 -1.3180 -0.0779
  236MOL0     H31843   6.814   9.818   6.562 -0.1031  1.0046 -1.7061
  236MOL0     H31844   6.574   9.575   6.563  1.8368  1.6360  0.5200
  236MOL0     H31845   6.343   9.578   6.567 -1.2486 -0.3573  0.1685
  236MOL0     H31846   4.581   9.680   5.863  1.4047 -0.2057  4.0052
  236MOL0     H31847   4.557   9.494   5.692  0.3420 -0.9410 -2.2876
  236MOL0     H31848   4.438   8.995   5.660 -0.2969 -2.8177  0.4769
  236MOL0     H31849   4.474   8.767   5.547 -0.0753 -0.4675 -0.0925
  236MOL0     H31850   4.858   8.709   5.318  0.3049  0.1180  1.4405
  236MOL0     H31851   4.878   8.637   5.458 -0.8271  0.7256  1.1688
  236MOL0     H31852   4.747   8.431   5.391 -1.6063 -1.2883 -2.2598
  236MOL0     H31853   4.901   8.481   5.303  1.0655  2.3531 -2.3904
  236MOL0     H31854   4.746   8.579   5.117 -3.7642 -0.7710 -2.9838
  236MOL0     H31855   4.610   8.506   5.191  0.5107 -1.0231 -3.3352
  236MOL0     H31856   4.864   8.346   5.101 -0.4503 -0.4130 -0.2071
  236MOL0     H31857   4.722   8.348   5.006 -1.7255 -2.8497  1.9479
  236MOL0     H31858   4.543   8.141   5.299 -0.8672 -0.4523 -1.4702
  236MOL0     H31859   4.872   8.873   5.446 -1.1212 -2.4356 -0.9890
  236MOL0     H31860   4.827   9.106   5.519 -0.1506 -1.6783 -0.8917
  237MOL0     O31861  10.615  11.351   5.923  0.9015 -0.1798 -1.1718
  237MOL0     C31862  10.562  11.459   5.909  0.0232  0.8129  0.3280
  237MOL0     O31863  10.619  11.583   5.903  0.2497  0.1634 -0.7615
  237MOL0     C31864  10.753  11.595   5.943 -0.2783  0.7885  0.0888
  237MOL0     C31865  10.849  11.543   5.854  0.4682 -0.1310 -0.7789
  237MOL0     C31866  10.985  11.541   5.890 -0.9236 -0.2950 -0.2291
  237MOL0     C31867  11.020  11.600   6.012  0.2229 -0.1630  0.2696
  237MOL0     O31868  11.142  11.619   6.055  0.5064  0.0596  0.3955
  237MOL0     C31869  11.228  11.664   5.947  0.6304 -0.5056 -0.1300
  237MOL0     C31870  11.365  11.695   6.015 -0.1255 -0.4126 -0.1187
  237MOL0     C31871  11.484  11.708   5.913  0.3968 -0.1747  0.9212
  237MOL0     C31872  11.611  11.681   5.979  0.5745 -0.1424 -0.6705
  237MOL0     C31873  11.730  11.712   5.884  0.0573  0.5146  0.6331
  237MOL0     C31874  11.746  11.645   5.744 -0.2991  0.0597  0.1828
  237MOL0     C31875  11.805  11.497   5.761 -0.1097 -0.7571  0.5634
  237MOL0     C31876  11.825  11.415   5.630 -0.2496  0.7343 -1.2144
  237MOL0     N31877  11.921  11.480   5.543  0.5090 -0.4356  0.4178
  237MOL0     C31878  12.053  11.452   5.540  0.3745 -0.0471  0.3171
  237MOL0     C31879  12.117  11.533   5.454 -0.1282  0.7576 -0.2307
  237MOL0     C31880  12.257  11.529   5.424 -0.7403  0.6266  0.5674
  237MOL0     C31881  12.290  11.530   5.274 -0.0056 -0.3787 -0.4980
  237MOL0     C31882  12.434  11.471   5.248  0.4006 -0.0226 -0.1113
  237MOL0     C31883  12.435  11.439   5.102 -0.8991 -0.7299  0.0845
  237MOL0     O31884  12.550  11.350   5.060 -0.2122  0.8420  0.7741
  237MOL0     C31885  12.675  11.405   5.012 -0.0925 -0.8753  0.6222
  237MOL0     C31886  12.774  11.316   4.965 -0.0744 -0.5762 -1.1473
  237MOL0     C31887  12.905  11.338   4.915  0.7802  0.1805 -0.1819
  237MOL0     C31888  12.992  11.223   4.897 -0.7756  0.0480 -0.1296
  237MOL0     C31889  12.929  11.471   4.884 -0.0786  0.1435  1.2283
  237MOL0     C31890  13.053  11.519   4.797 -0.4386  0.5212  0.1102
  237MOL0     O31891  13.045  11.654   4.745 -0.1115 -0.2465 -0.1813
  237MOL0     C31892  13.150  11.691   4.669  0.9242  0.2824  0.5530
  237MOL0     C31893  13.118  11.744   4.543 -0.8059  0.4396  0.2088
  237MOL0     C31894  13.233  11.773   4.460 -0.5554  0.0498 -0.0041
  237MOL0     C31895  13.364  11.785   4.515 -0.2240  0.2199  0.8242
  237MOL0     O31896  13.458  11.842   4.432 -0.5745 -0.1551  0.1198
  237MOL0     C31897  13.591  11.817   4.454 -0.7856 -0.5631 -0.3438
  237MOL0     C31898  13.681  11.878   4.341 -0.7871  0.2971  0.0724
  237MOL0     C31899  13.835  11.894   4.372 -0.1678 -0.5378 -0.4248
  237MOL0     C31900  13.921  11.951   4.259 -0.1459 -0.5453  0.6029
  237MOL0     C31901  14.065  11.996   4.308  0.8892  0.2934 -0.1071
  237MOL0     C31902  14.143  11.870   4.341  0.4769 -0.0749 -0.1421
  237MOL0     C31903  14.293  11.892   4.375 -1.0145  0.1653 -0.7945
  237MOL0     C31904  14.308  11.993   4.498 -0.5164  0.5589 -0.3487
  237MOL0    Cl31905  14.215  11.947   4.642 -0.7309  0.0309  0.1351
  237MOL0     C31906  13.382  11.741   4.649 -0.5722  0.2390  0.7748
  237MOL0     C31907  13.276  11.706   4.721  0.1807  0.8425 -0.5430
  237MOL0     O31908  13.156  11.459   4.810 -0.0045 -0.2052  0.5036
  237MOL0     C31909  12.829  11.575   4.902  0.4673  0.1443 -0.3591
  237MOL0     C31910  12.715  11.536   4.981  0.2752 -0.4824  0.4999
  237MOL0     N31911  12.022  11.613   5.399 -0.0263  0.3110  1.4032
  237MOL0     N31912  11.904  11.580   5.443 -0.2377  0.5057 -0.1319
  237MOL0     C31913  10.927  11.643   6.112  0.1682 -0.7851  0.8198
  237MOL0     C31914  10.789  11.648   6.063  0.2497 -0.4389 -0.2694
  237MOL0     C31915  10.412  11.455   5.867 -0.5290  0.4869  0.8747
  237MOL0     C31916  10.352  11.565   5.800 -0.5904 -0.3535 -0.1699
  237MOL0     C31917  10.213  11.562   5.772  0.3361 -0.1023 -0.5260
  237MOL0     C31918  10.145  11.442   5.794  0.6754  0.5301 -0.2543
  237MOL0     O31919  10.018  11.425   5.750  0.7825  0.4581  0.0040
  237MOL0     C31920   9.915  11.520   5.749 -0.1028 -0.0736  0.2110
  237MOL0     C31921   9.843  11.526   5.886 -0.2150  0.1997  0.5326
  237MOL0     C31922   9.901  11.633   5.978  0.0195  1.4747  0.4085
  237MOL0     C31923   9.997  11.569   6.087  0.1438  0.9885  0.7066
  237MOL0     C31924   9.933  11.576   6.217 -0.1761  0.4383 -0.2795
  237MOL0     C31925   9.895  11.578   6.332  0.7360 -0.6147  0.6090
  237MOL0     C31926  10.204  11.341   5.858 -0.5768  0.0925  0.2493
  237MOL0     C31927  10.333  11.348   5.897  0.7764  0.1508  0.2229
  237MOL0     H31928  10.811  11.506   5.759  0.7036 -1.4008 -0.3890
  237MOL0     H31929  11.054  11.500   5.817  0.9280  0.8767  0.7657
  237MOL0     H31930  11.244  11.599   5.861 -2.1001  0.0130 -1.1244
  237MOL0     H31931  11.181  11.748   5.895  0.3551  0.6878  1.9032
  237MOL0     H31932  11.360  11.791   6.068 -2.1219  0.3850 -1.5927
  237MOL0     H31933  11.371  11.609   6.082 -2.0700 -1.5640 -1.3208
  237MOL0     H31934  11.469  11.636   5.832 -2.5848  0.7126  0.5513
  237MOL0     H31935  11.472  11.805   5.864 -0.9851 -1.0423 -0.5310
  237MOL0     H31936  11.620  11.748   6.065  1.2424  1.1465 -1.7001
  237MOL0     H31937  11.629  11.578   6.012  0.7428  0.0085 -0.2862
  237MOL0     H31938  11.724  11.820   5.866 -1.3659  0.4220  0.3832
  237MOL0     H31939  11.818  11.698   5.947 -1.0965 -0.0595  2.1919
  237MOL0     H31940  11.654  11.646   5.685  1.6843 -0.3896 -3.1708
  237MOL0     H31941  11.818  11.705   5.688 -0.6029  0.2446 -0.0138
  237MOL0     H31942  11.899  11.493   5.817  1.5614  1.0120 -1.9028
  237MOL0     H31943  11.726  11.444   5.816 -2.4721  1.0912 -0.8204
  237MOL0     H31944  11.731  11.409   5.575  0.7458 -0.3405 -2.8898
  237MOL0     H31945  11.865  11.319   5.662 -0.4060  1.0596  0.0061
  237MOL0     H31946  12.113  11.379   5.593 -0.0577 -0.2230  0.5625
  237MOL0     H31947  12.301  11.617   5.471 -1.0360  0.6203  0.8560
  237MOL0     H31948  12.302  11.434   5.456  2.1041  1.1897 -1.4113
  237MOL0     H31949  12.287  11.632   5.232  0.1248 -1.3338 -3.0354
  237MOL0     H31950  12.212  11.468   5.230 -3.3513  2.2829  1.1965
  237MOL0     H31951  12.453  11.386   5.314 -0.5706  2.2768  3.4086
  237MOL0     H31952  12.505  11.549   5.280 -0.3687 -0.4125  2.8111
  237MOL0     H31953  12.427  11.525   5.035 -3.3418  0.8402  2.2249
  237MOL0     H31954  12.352  11.374   5.073 -0.0477 -0.1966 -4.2888
  237MOL0     H31955  12.747  11.215   4.995 -1.8830  0.9024  2.8872
  237MOL0     H31956  13.092  11.247   4.860 -0.8949  0.0090 -0.4802
  237MOL0     H31957  13.000  11.165   4.990 -0.9951 -1.8529 -1.2451
  237MOL0     H31958  12.947  11.154   4.824  0.8581 -2.3571  0.9955
  237MOL0     H31959  13.024  11.720   4.495 -0.7394 -1.1166  0.8043
  237MOL0     H31960  13.227  11.816   4.361  0.9043  0.0007 -0.1413
  237MOL0     H31961  13.617  11.857   4.553 -0.0315 -2.6617  0.3540
  237MOL0     H31962  13.610  11.711   4.473 -2.3448 -0.8808 -0.4378
  237MOL0     H31963  13.660  11.835   4.243 -0.0911 -0.2104  0.1418
  237MOL0     H31964  13.642  11.979   4.322 -4.2634 -1.4093 -3.1823
  237MOL0     H31965  13.866  11.794   4.403  0.7814  0.2985  1.5754
  237MOL0     H31966  13.835  11.955   4.463 -0.1240 -1.2089  0.0296
  237MOL0     H31967  13.933  11.872   4.184 -1.5410 -2.1005  1.9236
  237MOL0     H31968  13.871  12.041   4.223  0.6609  0.3712  1.6980
  237MOL0     H31969  14.064  12.076   4.383  2.1092  1.5993 -1.4176
  237MOL0     H31970  14.119  12.042   4.225  1.3921  1.7296  0.9726
  237MOL0     H31971  14.097  11.816   4.424  0.6129 -1.0577 -0.6973
  237MOL0     H31972  14.143  11.810   4.249 -2.1719 -1.0410  0.3993
  237MOL0     H31973  14.352  11.933   4.292 -1.1820  2.0006 -0.0667
  237MOL0     H31974  14.332  11.795   4.407 -2.3712  0.0604  0.6730
  237MOL0     H31975  14.272  12.094   4.479  4.6335  2.6497 -0.5453
  237MOL0     H31976  14.412  11.998   4.533 -1.4479  1.3889  2.6084
  237MOL0     H31977  13.478  11.752   4.699 -0.5657  0.3906  0.7311
  237MOL0     H31978  13.307  11.678   4.821 -1.1310 -4.3593 -1.3005
  237MOL0     H31979  12.844  11.681   4.888  0.9717 -0.2030 -2.9187
  237MOL0     H31980  12.642  11.611   5.012 -2.4119 -3.5202  2.1402
  237MOL0     H31981  10.942  11.677   6.214 -2.1339  1.2654  0.5641
  237MOL0     H31982  10.717  11.698   6.127 -1.2530 -1.7954 -0.8555
  237MOL0     H31983  10.416  11.651   5.783  1.0643 -1.3391  0.7151
  237MOL0     H31984  10.155  11.645   5.732  0.0239 -0.1483 -0.1718
  237MOL0     H31985   9.957  11.617   5.721  3.3346 -2.1253 -2.6124
  237MOL0     H31986   9.836  11.508   5.675 -0.9574  0.3033  1.0422
  237MOL0     H31987   9.856  11.423   5.921 -1.0880 -0.7788 -1.8207
  237MOL0     H31988   9.739  11.556   5.874 -0.8150 -2.3557 -1.5440
  237MOL0     H31989   9.813  11.663   6.036 -0.5874 -0.7464  0.7111
  237MOL0     H31990   9.951  11.718   5.929 -1.7142  1.3621 -1.6910
  237MOL0     H31991  10.097  11.614   6.084  1.0726 -0.7087  3.1561
  237MOL0     H31992  10.016  11.462   6.072  1.1108  1.0759  1.1906
  237MOL0     H31993   9.879  11.572   6.438  0.0786  0.8922  0.6159
  237MOL0     H31994  10.140  11.261   5.895  3.4782 -2.2783  2.8184
  237MOL0     H31995  10.386  11.273   5.954  1.7986 -0.2259 -1.1765
  238MOL0     O31996   9.068   9.751   8.798 -0.0139 -0.2376 -0.3254
  238MOL0     C31997   8.951   9.740   8.844  0.0169  0.2007  1.0481
  238MOL0     O31998   8.868   9.846   8.853 -0.0766 -0.0714 -0.9016
  238MOL0     C31999   8.892   9.975   8.803 -1.3096  1.0800 -0.1066
  238MOL0     C32000   8.820  10.034   8.701 -0.1715 -0.4060 -0.8462
  238MOL0     C32001   8.856  10.148   8.636  0.7121 -0.4553 -0.9087
  238MOL0     C32002   8.984  10.202   8.666  0.6123 -0.7146 -1.9817
  238MOL0     O32003   9.035  10.309   8.595 -0.2262 -0.0314  0.6781
  238MOL0     C32004   9.084  10.255   8.475 -0.4180  0.9843  0.7196
  238MOL0     C32005   9.160  10.359   8.393 -0.4116  0.5633  0.3777
  238MOL0     C32006   9.070  10.473   8.351  0.1174 -0.5555 -0.8514
  238MOL0     C32007   9.020  10.460   8.211  0.4142  0.4583 -0.2958
  238MOL0     C32008   8.924  10.580   8.180 -0.9707  0.0829  0.7263
  238MOL0     C32009   8.881  10.573   8.033  0.1952 -0.2538 -0.6697
  238MOL0     C32010   8.852  10.708   7.974  0.1676 -0.7585  0.6231
  238MOL0     C32011   8.831  10.694   7.826 -0.3397 -0.1948  0.2629
  238MOL0     N32012   8.746  10.810   7.775  0.4979 -0.5534  0.4332
  238MOL0     C32013   8.802  10.889   7.675  0.5422 -0.5976 -0.2960
  238MOL0     C32014   8.699  10.944   7.607 -0.3353  0.5288  0.2035
  238MOL0     C32015   8.726  11.022   7.477  0.3609 -0.7837 -1.3800
  238MOL0     C32016   8.585  11.085   7.428 -0.5412 -0.1796  0.1142
  238MOL0     C32017   8.597  11.159   7.290  0.6101  0.0181 -0.0787
  238MOL0     C32018   8.465  11.157   7.193  0.4466 -0.6467 -0.1916
  238MOL0     O32019   8.436  11.038   7.117  0.5262 -0.6266  0.0001
  238MOL0     C32020   8.516  10.999   7.012  0.1562 -0.5836 -0.8355
  238MOL0     C32021   8.606  11.082   6.944  0.2874 -0.5342 -0.9834
  238MOL0     C32022   8.673  11.046   6.834 -0.0577 -0.6959 -0.3507
  238MOL0     C32023   8.749  11.152   6.763 -0.0932 -0.0032 -0.2538
  238MOL0     C32024   8.645  10.924   6.769 -0.1668 -0.0596  0.2333
  238MOL0     C32025   8.711  10.876   6.645  0.5744  0.3103 -0.0033
  238MOL0     O32026   8.841  10.903   6.623  0.2304  0.9583 -0.8402
  238MOL0     C32027   8.899  10.880   6.503 -0.1219 -0.3589  0.8028
  238MOL0     C32028   8.846  10.857   6.374 -0.7711 -0.4859 -0.3830
  238MOL0     C32029   8.927  10.847   6.263 -0.4850  0.1365  0.4403
  238MOL0     C32030   9.066  10.879   6.259 -0.2631 -0.3462 -0.5287
  238MOL0     O32031   9.145  10.871   6.144 -0.4321  0.1270 -0.0560
  238MOL0     C32032   9.268  10.934   6.136 -0.0266 -1.0293 -0.1591
  238MOL0     C32033   9.328  10.893   5.993 -0.2750 -0.0492  0.0782
  238MOL0     C32034   9.463  10.979   5.975  0.1532  0.1839  0.3887
  238MOL0     C32035   9.501  10.979   5.831 -1.2357 -0.7533 -0.0381
  238MOL0     C32036   9.615  11.081   5.818 -0.2253  0.1464  0.1837
  238MOL0     C32037   9.653  11.116   5.675 -0.1603  0.1200 -0.0992
  238MOL0     C32038   9.773  11.205   5.680  0.1848  0.5373  0.8254
  238MOL0     C32039   9.907  11.130   5.688  0.3194 -0.1453  0.6427
  238MOL0    Cl32040   9.908  11.009   5.553 -0.3154  0.0299  0.4634
  238MOL0     C32041   9.117  10.906   6.385 -0.2841 -0.3657  0.5703
  238MOL0     C32042   9.036  10.904   6.499 -0.4994 -1.0345  0.3681
  238MOL0     O32043   8.645  10.802   6.575  0.0347  0.2517  0.2480
  238MOL0     C32044   8.571  10.830   6.845 -0.5065 -0.1283  0.7521
  238MOL0     C32045   8.499  10.874   6.957 -0.5467 -0.5658 -0.2929
  238MOL0     N32046   8.587  10.882   7.662  0.0025  0.2998  0.9079
  238MOL0     N32047   8.615  10.815   7.763  0.4905 -0.1674  1.3003
  238MOL0     C32048   9.057  10.155   8.778  0.2896 -0.7472  0.5759
  238MOL0     C32049   9.006  10.038   8.850 -0.1414 -0.3234  0.8592
  238MOL0     C32050   8.927   9.615   8.929  0.7375  0.0641 -1.0393
  238MOL0     C32051   9.013   9.513   8.955  0.4647  0.4493  0.0417
  238MOL0     C32052   8.978   9.396   9.028  0.2582  0.4951  0.2887
  238MOL0     C32053   8.859   9.382   9.091 -0.2907  0.1893  0.6954
  238MOL0     O32054   8.834   9.277   9.183  0.4999 -0.3002  1.1257
  238MOL0     C32055   8.931   9.181   9.202  0.4068  0.0394  0.2246
  238MOL0     C32056   8.952   9.077   9.086 -0.0308  0.3013 -0.1308
  238MOL0     C32057   9.075   8.985   9.117 -0.0165  0.1159 -0.5845
  238MOL0     C32058   9.045   8.878   9.226 -0.0979  0.4970 -0.7658
  238MOL0     C32059   8.931   8.791   9.191 -0.4312 -0.1991 -0.6480
  238MOL0     C32060   8.845   8.714   9.172  0.6458 -0.3056 -0.5858
  238MOL0     C32061   8.758   9.485   9.068 -0.5542 -0.4522 -0.0851
  238MOL0     C32062   8.797   9.599   8.990  0.4245 -0.8915 -0.6640
  238MOL0     H32063   8.723   9.988   8.687 -0.1686 -0.7666  0.2435
  238MOL0     H32064   8.793  10.195   8.562 -0.6196  3.5554  2.3838
  238MOL0     H32065   9.162  10.185   8.507  0.6552  2.5598  1.6999
  238MOL0     H32066   9.005  10.226   8.405 -0.3498  1.7209  0.3269
  238MOL0     H32067   9.234  10.403   8.460  0.8701  0.7401 -1.0986
  238MOL0     H32068   9.220  10.317   8.311 -1.6901  1.8892 -1.3279
  238MOL0     H32069   8.989  10.484   8.424  1.5298 -0.4823  0.7569
  238MOL0     H32070   9.132  10.563   8.356 -1.8148  0.9471 -2.2521
  238MOL0     H32071   9.106  10.458   8.144  2.2752 -3.9734  1.8191
  238MOL0     H32072   8.967  10.366   8.193 -1.6604  0.8415  2.9160
  238MOL0     H32073   8.843  10.575   8.253  0.6032 -0.7235  2.5108
  238MOL0     H32074   8.981  10.672   8.197  0.1120 -0.4026 -0.1699
  238MOL0     H32075   8.976  10.543   7.988  0.3742 -2.6182  1.0510
  238MOL0     H32076   8.799  10.505   8.011  0.0514 -1.0056  1.8487
  238MOL0     H32077   8.761  10.741   8.026 -0.5079 -1.6227  0.0214
  238MOL0     H32078   8.931  10.783   7.983  1.2011 -1.6429 -0.7520
  238MOL0     H32079   8.785  10.599   7.802  1.5564 -1.0777 -0.0689
  238MOL0     H32080   8.927  10.690   7.773 -1.2361 -2.3007 -1.2923
  238MOL0     H32081   8.904  10.916   7.649  0.2030  1.4809  0.3186
  238MOL0     H32082   8.805  11.097   7.491 -1.0674  0.5482  0.0713
  238MOL0     H32083   8.767  10.957   7.400 -0.8202  0.1910 -2.8916
  238MOL0     H32084   8.560  11.157   7.506 -1.1301 -1.0605  0.7591
  238MOL0     H32085   8.518  10.999   7.418  3.1376 -3.1336 -1.4872
  238MOL0     H32086   8.677  11.102   7.242 -0.0978 -3.5271  2.5621
  238MOL0     H32087   8.629  11.264   7.293  0.8082  0.2957 -4.8872
  238MOL0     H32088   8.480  11.243   7.127 -0.9218 -0.7047 -0.5986
  238MOL0     H32089   8.391  11.179   7.271 -0.6746  2.6105 -1.9849
  238MOL0     H32090   8.632  11.178   6.988  0.6302 -0.9244 -0.3197
  238MOL0     H32091   8.718  11.142   6.658 -0.0164  0.0466 -0.2806
  238MOL0     H32092   8.727  11.251   6.802 -1.0656 -0.9046  1.5921
  238MOL0     H32093   8.858  11.145   6.768 -0.2420 -2.7773  1.8135
  238MOL0     H32094   8.741  10.845   6.348 -0.5000  0.6397 -2.1333
  238MOL0     H32095   8.882  10.803   6.175 -3.0541 -1.8450  2.5653
  238MOL0     H32096   9.248  11.041   6.131 -1.9893 -1.3196  0.6259
  238MOL0     H32097   9.331  10.901   6.219 -2.4063 -1.5649  1.5619
  238MOL0     H32098   9.357  10.788   5.983  3.2536  0.6924  1.1269
  238MOL0     H32099   9.257  10.919   5.914 -1.2610  2.3876  1.6420
  238MOL0     H32100   9.538  10.947   6.048 -0.3327  0.0748  0.8482
  238MOL0     H32101   9.433  11.083   5.987  2.2513  0.6829  1.8670
  238MOL0     H32102   9.538  10.880   5.803  1.9874 -0.0212  1.1955
  238MOL0     H32103   9.417  11.009   5.767 -0.7072 -0.4618 -0.5974
  238MOL0     H32104   9.706  11.037   5.860 -0.4551 -2.1253 -1.5150
  238MOL0     H32105   9.584  11.177   5.862 -0.5087  1.1562 -2.0738
  238MOL0     H32106   9.671  11.030   5.610 -2.4356  0.4370 -1.2599
  238MOL0     H32107   9.560  11.159   5.635 -2.1930 -2.2523  1.7673
  238MOL0     H32108   9.764  11.274   5.764  2.2541  1.2736  0.5094
  238MOL0     H32109   9.773  11.259   5.586 -0.9563 -2.9870 -1.3885
  238MOL0     H32110   9.921  11.087   5.788  0.4752 -0.3753  0.5236
  238MOL0     H32111   9.988  11.199   5.663  0.8763  0.8097  4.4764
  238MOL0     H32112   9.225  10.908   6.394 -0.2886 -0.3252  0.6049
  238MOL0     H32113   9.082  10.924   6.595 -3.0600 -1.1960  1.6975
  238MOL0     H32114   8.571  10.733   6.796 -0.9796 -0.9577  2.3146
  238MOL0     H32115   8.435  10.810   7.018  2.1226 -0.9550  2.3524
  238MOL0     H32116   9.152  10.202   8.801  1.5752 -2.8851 -0.1090
  238MOL0     H32117   9.063   9.984   8.925  2.0846 -1.6525 -1.6302
  238MOL0     H32118   9.110   9.528   8.908 -0.1458  4.5968 -0.2519
  238MOL0     H32119   9.062   9.330   9.046 -0.0665 -0.3844 -1.1944
  238MOL0     H32120   9.026   9.231   9.220 -0.1877  0.7370  1.6083
  238MOL0     H32121   8.892   9.127   9.289  2.3751  1.1327  1.8695
  238MOL0     H32122   8.954   9.127   8.988 -0.1944 -1.9086 -1.3261
  238MOL0     H32123   8.866   9.010   9.082 -0.5906  1.0126 -3.4695
  238MOL0     H32124   9.162   9.045   9.144 -3.0729  4.0248  1.5936
  238MOL0     H32125   9.095   8.931   9.024  1.5053 -3.7392  1.7428
  238MOL0     H32126   9.011   8.928   9.317 -0.5541 -1.3717  0.1395
  238MOL0     H32127   9.132   8.821   9.261  0.7354  1.3499 -1.3981
  238MOL0     H32128   8.765   8.644   9.161  0.5461 -0.4676  0.9460
  238MOL0     H32129   8.659   9.463   9.106 -0.8273  2.5847  1.2741
  238MOL0     H32130   8.734   9.686   8.975  2.2866  0.3319 -1.7062
  239MOL0     O32131   4.019   7.431   1.257 -0.0531 -0.7833 -0.1948
  239MOL0     C32132   3.920   7.475   1.312  1.0829 -0.0751 -0.7238
  239MOL0     O32133   3.873   7.440   1.440  0.6421  0.4720  0.1093
  239MOL0     C32134   3.898   7.325   1.494  0.2493  0.0675 -0.7491
  239MOL0     C32135   3.893   7.319   1.628  0.3728 -0.7722  0.5196
  239MOL0     C32136   3.929   7.208   1.704 -0.2149  0.2654  0.7137
  239MOL0     C32137   3.958   7.092   1.647 -1.0884 -0.0640  0.9235
  239MOL0     O32138   4.002   6.981   1.714  0.4883  0.1076  0.3158
  239MOL0     C32139   4.147   6.980   1.740 -0.4414 -0.8699 -0.7048
  239MOL0     C32140   4.164   6.934   1.889  0.7282 -0.3258  0.6440
  239MOL0     C32141   4.161   6.785   1.888 -0.9292 -0.3235 -0.2382
  239MOL0     C32142   4.183   6.731   2.033  1.7204 -0.1923 -0.6949
  239MOL0     C32143   4.135   6.588   2.053 -0.3563  0.3799  0.4485
  239MOL0     C32144   4.179   6.491   1.944 -0.5321  0.8239  0.3573
  239MOL0     C32145   4.118   6.351   1.971 -0.4310  0.1982  0.0548
  239MOL0     C32146   3.991   6.314   1.898  0.6206  0.7848  0.4597
  239MOL0     N32147   3.878   6.399   1.928 -0.1172 -0.2001  0.8761
  239MOL0     C32148   3.849   6.526   1.876  0.4676 -0.7451 -0.7004
  239MOL0     C32149   3.738   6.567   1.944 -0.5360 -0.3410  0.4165
  239MOL0     C32150   3.656   6.681   1.914  0.4430  0.4720  1.0059
  239MOL0     C32151   3.731   6.812   1.956  0.7330 -0.2955  0.3367
  239MOL0     C32152   3.652   6.942   1.930  0.9929  0.6607 -0.1723
  239MOL0     C32153   3.624   6.961   1.783 -0.3192 -0.5002  0.6517
  239MOL0     O32154   3.535   7.076   1.784 -0.1731 -0.1524  0.0776
  239MOL0     C32155   3.506   7.131   1.665  0.7296  0.6750  0.4058
  239MOL0     C32156   3.580   7.113   1.538 -1.3379  0.6203 -0.6742
  239MOL0     C32157   3.520   7.154   1.415 -1.0354 -0.5383 -0.6444
  239MOL0     C32158   3.586   7.088   1.294  0.2489 -0.1488 -0.2046
  239MOL0     C32159   3.412   7.247   1.431  0.2858 -0.4188 -0.6371
  239MOL0     C32160   3.372   7.333   1.321  0.8136  0.5321 -0.1140
  239MOL0     O32161   3.247   7.400   1.316  0.1023  0.4110  0.2526
  239MOL0     C32162   3.210   7.502   1.226 -0.5191 -1.2604  0.3449
  239MOL0     C32163   3.273   7.632   1.228 -0.8233  0.7726  0.3401
  239MOL0     C32164   3.256   7.730   1.125  0.5190 -0.3834  0.6301
  239MOL0     C32165   3.190   7.686   1.004 -0.5512  0.2003  0.0052
  239MOL0     O32166   3.178   7.747   0.880 -0.1237 -0.7925 -0.0359
  239MOL0     C32167   3.270   7.848   0.851  1.1723  0.2289  0.8409
  239MOL0     C32168   3.206   7.980   0.874 -0.2677 -0.0230 -0.5565
  239MOL0     C32169   3.308   8.084   0.888 -0.4141 -0.1773  0.1877
  239MOL0     C32170   3.262   8.229   0.886 -0.3037  0.5269 -0.7818
  239MOL0     C32171   3.135   8.248   0.784  1.3775  0.0335 -0.8272
  239MOL0     C32172   3.060   8.386   0.777 -0.6762  1.1429 -0.0698
  239MOL0     C32173   3.153   8.499   0.825  0.4724  0.6050  0.0698
  239MOL0     C32174   3.206   8.579   0.709 -0.3081  0.1410  0.9131
  239MOL0    Cl32175   3.094   8.701   0.662 -0.1968 -0.1880 -0.2613
  239MOL0     C32176   3.132   7.560   1.006  0.2999  1.0578  0.9084
  239MOL0     C32177   3.131   7.473   1.113 -0.1273  0.7551  0.5200
  239MOL0     O32178   3.455   7.348   1.237  0.5257  0.4411 -0.2672
  239MOL0     C32179   3.353   7.271   1.550 -0.4106 -0.5511 -0.1069
  239MOL0     C32180   3.396   7.213   1.665 -0.6234 -0.6380  0.3490
  239MOL0     N32181   3.687   6.457   2.018  0.6936  0.0390  2.0254
  239MOL0     N32182   3.765   6.358   1.990  1.1992  0.0977 -0.1565
  239MOL0     C32183   3.964   7.088   1.504  0.2999  0.8627 -0.1451
  239MOL0     C32184   3.929   7.205   1.431 -0.4615  0.6473  0.3291
  239MOL0     C32185   3.862   7.594   1.251  0.2692  0.0298  0.7478
  239MOL0     C32186   3.732   7.638   1.291  0.1342 -1.0649  0.5910
  239MOL0     C32187   3.668   7.744   1.223 -0.8652  0.3193 -1.1379
  239MOL0     C32188   3.727   7.812   1.121  0.0537  0.1854 -0.3097
  239MOL0     O32189   3.664   7.910   1.051  0.0257  0.6106  0.1566
  239MOL0     C32190   3.701   8.031   1.109  0.0813  0.1937  0.2070
  239MOL0     C32191   3.684   8.144   1.010  0.8057  0.4605  0.3313
  239MOL0     C32192   3.776   8.128   0.894 -0.3058  0.4476  0.5367
  239MOL0     C32193   3.792   8.270   0.827 -0.5440  0.5778 -0.2515
  239MOL0     C32194   3.901   8.348   0.880  0.5657  0.0675 -0.7467
  239MOL0     C32195   3.990   8.419   0.930  0.6304  0.0165 -0.1612
  239MOL0     C32196   3.859   7.768   1.084  0.9965 -0.3577 -0.1202
  239MOL0     C32197   3.929   7.674   1.156 -0.0571  0.2626  0.3686
  239MOL0     H32198   3.867   7.411   1.679 -2.2010 -1.3015  0.3019
  239MOL0     H32199   3.919   7.190   1.811  2.5996  0.3908  1.0840
  239MOL0     H32200   4.210   6.916   1.677  0.1235  0.9274 -2.0301
  239MOL0     H32201   4.181   7.083   1.733  0.6929 -1.1856 -0.0688
  239MOL0     H32202   4.254   6.986   1.922 -0.3603  1.1514  1.4099
  239MOL0     H32203   4.084   6.976   1.950  2.8577  0.2255  3.2386
  239MOL0     H32204   4.068   6.751   1.840  0.3515 -0.4941 -2.7497
  239MOL0     H32205   4.247   6.749   1.832 -0.0378  2.6712 -0.9560
  239MOL0     H32206   4.291   6.733   2.047  1.9030 -2.5705 -1.3938
  239MOL0     H32207   4.131   6.798   2.103 -2.2499 -3.8403  0.3341
  239MOL0     H32208   4.173   6.559   2.152  0.2636  0.5912  0.2769
  239MOL0     H32209   4.026   6.582   2.061 -0.5103 -1.5622 -1.8810
  239MOL0     H32210   4.163   6.535   1.845 -1.2081 -0.0094  0.0811
  239MOL0     H32211   4.288   6.480   1.944 -0.4112  0.4679 -4.1006
  239MOL0     H32212   4.181   6.265   1.944  2.0266  2.1652 -0.9148
  239MOL0     H32213   4.101   6.340   2.078 -3.8678 -1.9629 -0.5739
  239MOL0     H32214   3.954   6.212   1.911  0.0068  0.9715  0.1896
  239MOL0     H32215   4.009   6.307   1.790  2.1085  2.5656  0.5382
  239MOL0     H32216   3.896   6.576   1.792 -0.0655  1.1395  0.0878
  239MOL0     H32217   3.622   6.671   1.811  0.6739 -2.3927  1.1354
  239MOL0     H32218   3.568   6.683   1.979 -0.7926 -2.4761 -0.3957
  239MOL0     H32219   3.825   6.810   1.901 -0.1165 -1.3360 -1.1176
  239MOL0     H32220   3.756   6.811   2.063  1.5423  0.0924  0.1563
  239MOL0     H32221   3.716   7.022   1.967  1.3792 -0.5859  2.0670
  239MOL0     H32222   3.558   6.951   1.986  0.3230  1.1172 -1.3135
  239MOL0     H32223   3.557   6.882   1.746 -1.3606  0.1690  1.0532
  239MOL0     H32224   3.716   6.968   1.725 -1.5158 -1.1907 -1.4431
  239MOL0     H32225   3.668   7.049   1.535 -1.3210  0.6349 -0.4879
  239MOL0     H32226   3.695   7.089   1.286  0.1289  1.8852 -2.2973
  239MOL0     H32227   3.535   6.992   1.282 -0.2143  0.2053 -1.1247
  239MOL0     H32228   3.548   7.137   1.204 -2.3048  0.6909  1.2155
  239MOL0     H32229   3.340   7.642   1.314 -1.0896  1.5787  0.4673
  239MOL0     H32230   3.291   7.833   1.133 -1.6449  0.3677  1.0564
  239MOL0     H32231   3.367   7.833   0.899 -1.0355 -0.0594  5.9029
  239MOL0     H32232   3.286   7.849   0.743 -0.6157 -3.9594  0.3437
  239MOL0     H32233   3.139   7.998   0.790 -0.7082  1.9956  0.1629
  239MOL0     H32234   3.152   7.979   0.969 -0.9174 -4.1465 -0.7900
  239MOL0     H32235   3.362   8.075   0.793  2.1431  2.2895  1.2901
  239MOL0     H32236   3.366   8.059   0.976 -2.0496 -1.3351  0.9912
  239MOL0     H32237   3.244   8.267   0.987  0.6629  0.3956 -0.5567
  239MOL0     H32238   3.346   8.284   0.843 -0.6277  0.3696 -1.6348
  239MOL0     H32239   3.055   8.175   0.798 -0.4756  2.1989  0.5597
  239MOL0     H32240   3.172   8.241   0.681 -1.5514  0.2126 -1.9701
  239MOL0     H32241   3.027   8.399   0.673 -1.7410  0.9802  0.2406
  239MOL0     H32242   2.973   8.378   0.842 -1.3727 -0.2024 -1.1114
  239MOL0     H32243   3.225   8.474   0.904 -0.8819 -0.9314  0.8997
  239MOL0     H32244   3.093   8.564   0.889  1.6764 -1.1730  3.2751
  239MOL0     H32245   3.232   8.513   0.626  1.1954  2.6728 -0.7621
  239MOL0     H32246   3.297   8.630   0.741 -2.7083  4.6787  1.3568
  239MOL0     H32247   3.070   7.528   0.923  3.0668 -0.1015 -0.8511
  239MOL0     H32248   3.063   7.388   1.114 -1.3034  1.6765  0.6069
  239MOL0     H32249   3.281   7.350   1.571 -0.1646 -0.5362  0.7219
  239MOL0     H32250   3.349   7.240   1.759 -4.2152  0.2040 -1.4743
  239MOL0     H32251   3.998   6.999   1.451  1.9155  0.8768  0.8030
  239MOL0     H32252   3.920   7.211   1.323 -0.9041 -2.2736  0.1247
  239MOL0     H32253   3.681   7.584   1.371  0.7109 -4.3691 -1.0927
  239MOL0     H32254   3.568   7.775   1.252  0.3913  3.9847 -0.1095
  239MOL0     H32255   3.634   8.036   1.195 -0.0080 -0.0992  0.1539
  239MOL0     H32256   3.806   8.030   1.142  0.4470  0.1022 -0.8885
  239MOL0     H32257   3.684   8.243   1.054 -1.8932  0.2541  0.9438
  239MOL0     H32258   3.583   8.137   0.969  0.9733 -2.8834  0.1824
  239MOL0     H32259   3.721   8.068   0.821 -0.8437  2.5317 -0.8409
  239MOL0     H32260   3.875   8.084   0.911 -0.4692  0.3172  1.1903
  239MOL0     H32261   3.700   8.329   0.835 -0.6761  0.3370  0.0410
  239MOL0     H32262   3.817   8.269   0.720 -2.0556  0.3598 -0.6253
  239MOL0     H32263   4.060   8.474   0.991 -2.6296  1.7695  2.3196
  239MOL0     H32264   3.920   7.822   1.013 -0.0487  1.9267  0.6102
  239MOL0     H32265   4.033   7.674   1.125  0.3823  3.6217  1.4587
  240MOL0     O32266   0.742   5.301  11.215 -0.3150  0.0633 -0.8771
  240MOL0     C32267   0.715   5.316  11.333 -1.1204 -0.3201 -0.9986
  240MOL0     O32268   0.768   5.421  11.416 -0.7468  0.1333 -0.5120
  240MOL0     C32269   0.851   5.520  11.364 -1.0907 -0.0124 -1.1245
  240MOL0     C32270   0.925   5.532  11.247 -0.1072  1.0490 -0.8154
  240MOL0     C32271   0.998   5.646  11.215 -0.4778 -0.6068  1.0757
  240MOL0     C32272   0.988   5.761  11.290 -0.6499 -0.0804  0.5423
  240MOL0     O32273   1.028   5.883  11.253 -0.1445  0.0336 -0.2584
  240MOL0     C32274   0.977   5.929  11.124  0.1688 -0.4472 -0.8277
  240MOL0     C32275   1.027   6.070  11.092  0.0522  0.2285 -0.0388
  240MOL0     C32276   0.939   6.145  10.993 -1.1589  0.3465 -0.4505
  240MOL0     C32277   0.998   6.290  10.974 -0.4363  1.0125 -0.4124
  240MOL0     C32278   0.905   6.393  10.894 -0.0511  0.3173  0.5084
  240MOL0     C32279   0.924   6.388  10.734  0.4832 -0.5663  1.0980
  240MOL0     C32280   1.054   6.452  10.698 -0.1578  0.2180 -0.5910
  240MOL0     C32281   1.076   6.461  10.551 -0.7926  0.3583  1.5818
  240MOL0     N32282   1.221   6.501  10.526  0.4167  0.2928 -0.1525
  240MOL0     C32283   1.324   6.418  10.522 -0.7956 -0.3943  0.8540
  240MOL0     C32284   1.430   6.511  10.512  0.3235  0.7482  0.2359
  240MOL0     C32285   1.570   6.472  10.509  0.4103  0.2362 -0.2807
  240MOL0     C32286   1.624   6.455  10.653  0.4789  0.2216  0.1786
  240MOL0     C32287   1.777   6.431  10.634  0.1359  0.4614  0.5015
  240MOL0     C32288   1.824   6.372  10.766 -0.0567  0.5319  0.1425
  240MOL0     O32289   1.797   6.461  10.875 -0.2929  0.0091  1.5462
  240MOL0     C32290   1.791   6.396  10.995  0.7705 -0.8326 -0.3622
  240MOL0     C32291   1.818   6.269  11.039  0.2904 -0.7578  0.3231
  240MOL0     C32292   1.808   6.229  11.171 -0.1771 -0.5876  0.2394
  240MOL0     C32293   1.856   6.084  11.204 -1.0797 -0.8990  1.6314
  240MOL0     C32294   1.767   6.318  11.271  0.6145 -0.6733 -0.7993
  240MOL0     C32295   1.737   6.278  11.417 -0.3114 -0.4555 -0.3476
  240MOL0     O32296   1.677   6.367  11.492  0.2418  0.1708 -0.6735
  240MOL0     C32297   1.693   6.391  11.632  0.5275  0.4572  0.2756
  240MOL0     C32298   1.715   6.292  11.731  1.0523 -0.3197  0.5662
  240MOL0     C32299   1.743   6.320  11.868  0.0366  0.4689 -0.2811
  240MOL0     C32300   1.762   6.453  11.904 -0.0571  0.6210 -0.1225
  240MOL0     O32301   1.796   6.489  12.031 -0.1417  0.1640  0.1601
  240MOL0     C32302   1.765   6.419  12.153 -0.4525 -0.5963  1.0789
  240MOL0     C32303   1.895   6.371  12.218 -0.5632  0.0294 -0.4225
  240MOL0     C32304   1.861   6.277  12.338  0.2644 -0.2652 -0.8564
  240MOL0     C32305   1.982   6.213  12.408  0.0628 -0.9568  1.1134
  240MOL0     C32306   2.064   6.308  12.498 -0.1314  0.8923 -0.1751
  240MOL0     C32307   2.182   6.230  12.562  0.0451  0.6613 -0.5653
  240MOL0     C32308   2.247   6.315  12.674  0.0979  0.4816 -1.0880
  240MOL0     C32309   2.288   6.249  12.800  0.3635  1.3759  0.1148
  240MOL0    Cl32310   2.162   6.179  12.906  0.3736  0.2813  0.0774
  240MOL0     C32311   1.747   6.555  11.807  0.5996  0.4988 -0.1060
  240MOL0     C32312   1.704   6.526  11.677  0.1369  0.2640 -0.7349
  240MOL0     O32313   1.787   6.177  11.462  0.6352 -0.3865  0.2202
  240MOL0     C32314   1.742   6.453  11.229  1.0601  0.3882 -0.0171
  240MOL0     C32315   1.741   6.487  11.090 -0.3209  0.6505  0.4318
  240MOL0     N32316   1.387   6.646  10.529  0.7118 -0.3234 -0.0197
  240MOL0     N32317   1.263   6.631  10.538  0.1079 -0.0317  0.0201
  240MOL0     C32318   0.931   5.759  11.414 -0.8083  0.6661 -0.9758
  240MOL0     C32319   0.863   5.640  11.447  0.3766  0.1580  0.8355
  240MOL0     C32320   0.649   5.199  11.401 -0.2236  0.1016  0.5747
  240MOL0     C32321   0.611   5.089  11.331  0.5447  0.3862  0.4048
  240MOL0     C32322   0.548   4.987  11.401 -1.2331  0.4195 -0.1772
  240MOL0     C32323   0.535   4.987  11.536  0.0887 -0.7306 -0.1380
  240MOL0     O32324   0.504   4.887  11.617  0.4589 -0.9141  0.1527
  240MOL0     C32325   0.500   4.748  11.565  0.1118 -1.1172  0.4995
  240MOL0     C32326   0.473   4.654  11.675  0.4990  0.7145 -0.4495
  240MOL0     C32327   0.603   4.658  11.764  0.4408  0.2646 -0.1581
  240MOL0     C32328   0.592   4.572  11.898 -0.5022 -0.2833 -0.4385
  240MOL0     C32329   0.700   4.620  11.988 -0.3814 -1.2329 -1.0851
  240MOL0     C32330   0.769   4.673  12.073 -1.0585 -0.8696  0.6904
  240MOL0     C32331   0.571   5.100  11.607 -0.4343 -0.5656  0.3943
  240MOL0     C32332   0.632   5.203  11.540  0.6668 -0.0913  0.9267
  240MOL0     H32333   0.925   5.446  11.180 -0.1180 -0.9135  1.5809
  240MOL0     H32334   1.052   5.650  11.122  1.0868  0.1467  1.9799
  240MOL0     H32335   1.015   5.867  11.042  1.0343 -3.1979  1.5029
  240MOL0     H32336   0.869   5.933  11.140  0.2940  0.9374 -0.2470
  240MOL0     H32337   1.039   6.129  11.183 -1.3713  0.3233  0.1155
  240MOL0     H32338   1.130   6.064  11.058  0.7776  1.1167  1.8764
  240MOL0     H32339   0.942   6.104  10.892  2.2192 -0.8339  0.0060
  240MOL0     H32340   0.839   6.157  11.035 -0.1535  0.3055  2.1980
  240MOL0     H32341   1.000   6.327  11.077  1.3194 -2.1625  0.8255
  240MOL0     H32342   1.102   6.287  10.939 -0.8353 -2.7279 -1.7046
  240MOL0     H32343   0.802   6.366  10.923  0.0682  0.1721  0.8024
  240MOL0     H32344   0.917   6.497  10.926 -0.1644  0.3865  0.3257
  240MOL0     H32345   0.910   6.284  10.701 -3.4323  0.3648 -0.7522
  240MOL0     H32346   0.853   6.454  10.683  1.8944  3.0850  3.4507
  240MOL0     H32347   1.052   6.556  10.731 -0.4960  0.6982 -2.0461
  240MOL0     H32348   1.134   6.390  10.740  0.1094 -0.8700 -2.5627
  240MOL0     H32349   1.003   6.528  10.505  2.1179  1.8753 -1.2090
  240MOL0     H32350   1.072   6.366  10.497 -0.0897  1.4778 -0.5588
  240MOL0     H32351   1.320   6.309  10.522 -2.4063 -0.3656  1.4332
  240MOL0     H32352   1.584   6.392  10.435 -1.6700  3.5196 -4.7205
  240MOL0     H32353   1.609   6.563  10.463 -1.7302  2.1955  1.5884
  240MOL0     H32354   1.565   6.379  10.704  1.3182 -2.1426 -2.1027
  240MOL0     H32355   1.614   6.552  10.702  2.3031  1.0819 -1.0091
  240MOL0     H32356   1.829   6.522  10.602  0.5161  0.4819  1.1431
  240MOL0     H32357   1.801   6.359  10.555 -0.3160  0.0505  0.7347
  240MOL0     H32358   1.931   6.351  10.776  0.4528  2.5122 -0.7693
  240MOL0     H32359   1.767   6.281  10.789  0.0350  0.8496  1.7440
  240MOL0     H32360   1.857   6.196  10.969 -1.7789 -3.3307  1.6528
  240MOL0     H32361   1.781   6.024  11.256 -1.2615 -1.7029  0.4884
  240MOL0     H32362   1.874   6.033  11.108  2.8693  0.4006  1.5309
  240MOL0     H32363   1.954   6.091  11.251  0.5705  4.0974 -1.7961
  240MOL0     H32364   1.711   6.188  11.698 -0.9230  0.8499 -3.4539
  240MOL0     H32365   1.748   6.240  11.941 -0.4143  2.0702  1.5731
  240MOL0     H32366   1.696   6.487  12.205 -3.0794 -1.1259 -1.4494
  240MOL0     H32367   1.698   6.336  12.130 -1.3498  0.9173 -2.4922
  240MOL0     H32368   1.961   6.312  12.154  2.4249  3.1135 -0.4782
  240MOL0     H32369   1.965   6.455  12.231 -2.3925  1.8437 -1.6300
  240MOL0     H32370   1.817   6.193  12.284  1.8169  0.5925 -3.6302
  240MOL0     H32371   1.788   6.324  12.405  0.0182  0.9779 -1.9636
  240MOL0     H32372   1.940   6.136  12.473  0.7253 -0.5799  2.0074
  240MOL0     H32373   2.040   6.159  12.332 -0.6839 -0.6710  0.3245
  240MOL0     H32374   1.990   6.344  12.570  2.4200 -0.1689  3.2463
  240MOL0     H32375   2.101   6.397  12.446  0.4608  1.1757  0.7118
  240MOL0     H32376   2.144   6.136  12.606  0.7170  0.0007 -1.3644
  240MOL0     H32377   2.247   6.214  12.476 -1.5843  2.0938 -2.1387
  240MOL0     H32378   2.176   6.390  12.711  1.3533 -0.0400  2.8490
  240MOL0     H32379   2.328   6.365  12.621 -2.0079  2.8594 -2.3246
  240MOL0     H32380   2.350   6.314  12.861 -2.0182  2.3242  1.6714
  240MOL0     H32381   2.350   6.169  12.759  0.0128 -0.2995  2.6058
  240MOL0     H32382   1.776   6.658  11.822  2.1967  0.0449  0.1207
  240MOL0     H32383   1.695   6.611  11.610  0.2161  0.6098 -0.3128
  240MOL0     H32384   1.718   6.514  11.315  0.6015  0.1353  0.0389
  240MOL0     H32385   1.722   6.591  11.064 -1.2152  0.5843  0.7958
  240MOL0     H32386   0.951   5.843  11.480  1.6783 -0.7342  0.1670
  240MOL0     H32387   0.823   5.639  11.548 -1.0268 -0.9634  0.3093
  240MOL0     H32388   0.615   5.071  11.224 -3.2554 -0.0610  0.2074
  240MOL0     H32389   0.515   4.898  11.348  0.7222 -0.8636  0.6542
  240MOL0     H32390   0.418   4.751  11.492  1.3925 -0.0942 -0.9771
  240MOL0     H32391   0.580   4.714  11.498 -0.5635 -0.1532 -0.8383
  240MOL0     H32392   0.453   4.551  11.646  2.2540  0.2511 -0.1588
  240MOL0     H32393   0.383   4.685  11.728 -0.7763  2.3207 -3.3048
  240MOL0     H32394   0.619   4.765  11.781 -2.9841  0.7356  0.8079
  240MOL0     H32395   0.690   4.623  11.707  0.5921  1.6225 -0.7990
  240MOL0     H32396   0.591   4.463  11.887 -0.1494 -0.4564  1.0608
  240MOL0     H32397   0.498   4.593  11.949  0.6412  1.5175  1.0514
  240MOL0     H32398   0.834   4.708  12.151 -1.2252 -0.5626  0.6934
  240MOL0     H32399   0.561   5.111  11.715 -2.1148  1.4202  0.0979
  240MOL0     H32400   0.656   5.293  11.595  1.2047 -0.3020  1.0391
  241MOL0     O32401   3.068   6.348   1.675  0.0984  1.3802 -0.1623
  241MOL0     C32402   3.084   6.238   1.718 -0.3164 -0.1285 -0.7282
  241MOL0     O32403   2.982   6.152   1.760 -0.6757 -1.1880 -0.3690
  241MOL0     C32404   2.861   6.201   1.747  0.6742  0.4215  1.2009
  241MOL0     C32405   2.790   6.207   1.869 -0.8751  1.1229  1.0457
  241MOL0     C32406   2.667   6.263   1.864  0.0176  0.2397  0.1607
  241MOL0     C32407   2.588   6.293   1.749 -0.2111 -0.3362  0.0754
  241MOL0     O32408   2.450   6.337   1.764  0.4077 -0.1792  0.2503
  241MOL0     C32409   2.336   6.275   1.693  0.5341 -0.4065  0.1265
  241MOL0     C32410   2.315   6.151   1.764  0.3301 -0.0862 -0.0989
  241MOL0     C32411   2.266   6.168   1.915  0.9626  0.6507  0.3093
  241MOL0     C32412   2.121   6.211   1.923  0.1876  1.2138  0.1149
  241MOL0     C32413   2.073   6.162   2.063 -0.5189 -0.7989  0.5481
  241MOL0     C32414   1.932   6.199   2.079 -0.2317  0.1975  0.8050
  241MOL0     C32415   1.876   6.141   2.210 -0.0107  0.2464  0.0103
  241MOL0     C32416   1.724   6.165   2.218 -0.8867  0.0044  0.0969
  241MOL0     N32417   1.682   6.296   2.258 -0.5805  0.2748  0.1870
  241MOL0     C32418   1.643   6.331   2.388  0.6642  0.3040 -1.0950
  241MOL0     C32419   1.606   6.457   2.381  0.5866 -0.1930  0.6361
  241MOL0     C32420   1.532   6.519   2.495  0.4391  0.0108  0.2172
  241MOL0     C32421   1.632   6.607   2.583  0.8391 -0.5290  0.9773
  241MOL0     C32422   1.700   6.714   2.500 -0.2586 -0.0224  0.1148
  241MOL0     C32423   1.612   6.817   2.428 -0.0296  0.5937 -0.4279
  241MOL0     O32424   1.695   6.896   2.352 -0.2995 -0.1465  0.2635
  241MOL0     C32425   1.644   7.020   2.323  0.6125 -0.0833  1.0274
  241MOL0     C32426   1.732   7.125   2.317  0.7835 -0.1265  0.2628
  241MOL0     C32427   1.692   7.254   2.307  0.3171  0.4886 -0.4935
  241MOL0     C32428   1.800   7.359   2.336 -0.7844  0.9313 -0.6418
  241MOL0     C32429   1.553   7.287   2.290 -1.4022  0.7695 -0.0391
  241MOL0     C32430   1.507   7.422   2.296 -0.3463  1.3624  0.4654
  241MOL0     O32431   1.383   7.436   2.345 -0.0294  0.5620 -0.4968
  241MOL0     C32432   1.344   7.548   2.412 -0.1134 -0.0350 -0.8912
  241MOL0     C32433   1.407   7.678   2.415  0.0854  0.7879 -0.5556
  241MOL0     C32434   1.363   7.783   2.496  0.0427 -0.4548 -0.0169
  241MOL0     C32435   1.244   7.771   2.577 -1.0272  0.4077  0.6640
  241MOL0     O32436   1.207   7.889   2.627 -0.1988  0.1821  0.3339
  241MOL0     C32437   1.186   7.901   2.767  0.6572  0.9270  0.4754
  241MOL0     C32438   1.032   7.924   2.778  0.4668 -0.8147  0.2602
  241MOL0     C32439   0.998   7.908   2.931 -0.0148 -1.0670 -0.6360
  241MOL0     C32440   0.845   7.936   2.967  0.3460 -1.4166 -0.0657
  241MOL0     C32441   0.804   7.879   3.104 -0.0790  0.1463 -0.4255
  241MOL0     C32442   0.777   7.732   3.090 -0.3282 -0.1475 -0.3174
  241MOL0     C32443   0.765   7.667   3.230 -0.2423  0.0089  0.4691
  241MOL0     C32444   0.724   7.519   3.226 -0.6914 -0.8122  0.0197
  241MOL0    Cl32445   0.568   7.498   3.158 -0.0186  0.2424  0.1772
  241MOL0     C32446   1.166   7.658   2.563 -0.1469 -1.1877 -0.0257
  241MOL0     C32447   1.218   7.552   2.486 -0.2947  0.1657 -0.2883
  241MOL0     O32448   1.575   7.506   2.236  0.3713 -0.3351 -0.4625
  241MOL0     C32449   1.467   7.178   2.268  0.3077  0.3346 -0.9667
  241MOL0     C32450   1.515   7.045   2.286  0.1729  1.1821 -1.3474
  241MOL0     N32451   1.630   6.496   2.253 -0.3283  0.5410  0.6889
  241MOL0     N32452   1.664   6.400   2.177  0.6959 -0.0738 -0.3950
  241MOL0     C32453   2.658   6.270   1.631 -0.4297  0.0109 -0.0547
  241MOL0     C32454   2.796   6.235   1.621  0.5164 -0.4118  0.0859
  241MOL0     C32455   3.224   6.205   1.759  1.0858  0.7096  0.8188
  241MOL0     C32456   3.329   6.293   1.778  0.4497 -1.6155 -0.2269
  241MOL0     C32457   3.460   6.251   1.812 -0.5794  0.8430  0.1312
  241MOL0     C32458   3.480   6.115   1.830  0.9512  0.2867  0.6877
  241MOL0     O32459   3.609   6.087   1.867 -0.0596 -0.5728 -0.0604
  241MOL0     C32460   3.655   5.951   1.873 -0.1085  0.2535  0.0798
  241MOL0     C32461   3.811   5.949   1.894  0.5018  0.1749 -0.9185
  241MOL0     C32462   3.877   5.961   1.765  1.4141 -0.6058 -0.1843
  241MOL0     C32463   3.879   5.835   1.673 -0.0646 -0.5238 -0.2868
  241MOL0     C32464   4.015   5.841   1.611  0.7194 -0.4587 -0.1903
  241MOL0     C32465   4.116   5.830   1.550 -0.6473  0.8003 -1.0143
  241MOL0     C32466   3.376   6.024   1.825  0.2452 -0.5209 -0.0401
  241MOL0     C32467   3.251   6.072   1.783 -0.6145  0.6449  0.0554
  241MOL0     H32468   2.841   6.172   1.958  2.9267 -0.5929 -1.5568
  241MOL0     H32469   2.614   6.281   1.957 -1.3016  1.6646 -0.8279
  241MOL0     H32470   2.241   6.327   1.679  1.4828  1.6114  0.7431
  241MOL0     H32471   2.363   6.262   1.588 -1.0672 -2.5773 -0.0739
  241MOL0     H32472   2.245   6.085   1.711 -0.6334  0.1507  0.8431
  241MOL0     H32473   2.411   6.098   1.774  0.9949  1.2018  0.6001
  241MOL0     H32474   2.275   6.073   1.968  0.7200 -0.1933 -1.1078
  241MOL0     H32475   2.331   6.231   1.976  2.2065 -1.2297  0.9890
  241MOL0     H32476   2.120   6.320   1.914  0.3762  1.0447 -2.4482
  241MOL0     H32477   2.068   6.158   1.843 -1.2248  1.1641  1.0361
  241MOL0     H32478   2.083   6.053   2.066 -0.2135 -0.7957 -0.1143
  241MOL0     H32479   2.137   6.202   2.141  0.5355  0.0915 -0.7231
  241MOL0     H32480   1.927   6.308   2.069  0.1470  0.1632  0.2031
  241MOL0     H32481   1.885   6.156   1.990 -2.3131 -0.2345  2.0619
  241MOL0     H32482   1.900   6.036   2.230 -0.9695  0.2829  1.4268
  241MOL0     H32483   1.926   6.191   2.293 -0.7063 -1.2261  1.3734
  241MOL0     H32484   1.684   6.106   2.302  0.0943  0.2603  0.7661
  241MOL0     H32485   1.657   6.139   2.136 -3.4885  2.2219  1.3613
  241MOL0     H32486   1.626   6.265   2.472 -0.6480 -0.8954 -2.2485
  241MOL0     H32487   1.448   6.579   2.458 -1.3265 -3.1603 -1.3499
  241MOL0     H32488   1.492   6.434   2.551 -0.5357 -0.1143 -0.6395
  241MOL0     H32489   1.710   6.543   2.626  3.0839  1.2660 -0.2467
  241MOL0     H32490   1.583   6.653   2.670  1.9675  0.7349  0.9677
  241MOL0     H32491   1.776   6.665   2.439 -1.7287 -0.4535 -1.4310
  241MOL0     H32492   1.763   6.770   2.570  0.7522  1.7955 -2.1390
  241MOL0     H32493   1.551   6.868   2.503 -1.1233 -0.9628 -0.1990
  241MOL0     H32494   1.531   6.771   2.371 -2.3780  0.9540  2.3742
  241MOL0     H32495   1.837   7.097   2.306  0.1906 -1.6841 -1.9695
  241MOL0     H32496   1.837   7.422   2.255  0.0172  3.3514  1.4735
  241MOL0     H32497   1.769   7.432   2.411 -1.5109 -1.8922  2.0131
  241MOL0     H32498   1.886   7.303   2.373 -1.9699 -1.5736 -1.4420
  241MOL0     H32499   1.496   7.690   2.354  1.3186 -1.9786  0.5278
  241MOL0     H32500   1.403   7.884   2.497 -0.9370  0.0022  2.9464
  241MOL0     H32501   1.213   7.808   2.818  1.3046  1.1089  0.4714
  241MOL0     H32502   1.239   7.985   2.812  0.1460  0.6283  1.6849
  241MOL0     H32503   1.018   8.028   2.749  5.3949  0.7153  2.4173
  241MOL0     H32504   0.984   7.846   2.717  4.3892 -1.1833 -2.7898
  241MOL0     H32505   1.062   7.974   2.990  0.5776 -1.3958 -0.9064
  241MOL0     H32506   1.027   7.806   2.957  0.8956 -0.2222  1.9570
  241MOL0     H32507   0.842   8.044   2.983  1.8748 -1.6894  2.5830
  241MOL0     H32508   0.776   7.908   2.887 -1.8054  0.5233  0.9610
  241MOL0     H32509   0.721   7.931   3.153  1.6498  0.7864  2.0419
  241MOL0     H32510   0.891   7.892   3.169  0.4639 -1.0517 -0.8820
  241MOL0     H32511   0.681   7.701   3.048 -1.4524 -1.5002  2.9418
  241MOL0     H32512   0.858   7.692   3.028  1.1576  0.4131  1.1966
  241MOL0     H32513   0.691   7.730   3.281 -0.7480 -0.8851  0.8661
  241MOL0     H32514   0.866   7.676   3.270 -0.2951  1.7094  0.2688
  241MOL0     H32515   0.724   7.486   3.330  1.3430  2.8610  1.4002
  241MOL0     H32516   0.804   7.475   3.166  1.4334  0.5618  1.7096
  241MOL0     H32517   1.083   7.646   2.631 -0.3223 -1.2181 -0.2449
  241MOL0     H32518   1.162   7.459   2.480 -1.2636  0.6066  1.3058
  241MOL0     H32519   1.361   7.196   2.248 -0.9088 -1.2327  3.0699
  241MOL0     H32520   1.445   6.962   2.281 -1.5215  2.5088 -0.6319
  241MOL0     H32521   2.602   6.281   1.539 -0.4880  0.5576  0.0427
  241MOL0     H32522   2.861   6.210   1.538  1.1687  0.1570  0.4222
  241MOL0     H32523   3.308   6.399   1.766  1.4758 -0.9466  2.8937
  241MOL0     H32524   3.547   6.314   1.823  0.5724 -0.8247  0.9570
  241MOL0     H32525   3.605   5.893   1.951  3.3461 -0.0409  2.3006
  241MOL0     H32526   3.631   5.892   1.784  2.8952 -2.0090  0.6171
  241MOL0     H32527   3.847   5.854   1.932  2.3179  0.1777 -2.4767
  241MOL0     H32528   3.833   6.030   1.965  0.2214  1.1514 -1.9090
  241MOL0     H32529   3.982   5.989   1.780  1.1683  1.0807 -1.3205
  241MOL0     H32530   3.834   6.044   1.708 -0.0628 -2.9285 -2.7178
  241MOL0     H32531   3.808   5.850   1.591 -1.1590  0.8877  0.8651
  241MOL0     H32532   3.852   5.744   1.728 -1.2641  1.1607  2.0797
  241MOL0     H32533   4.205   5.804   1.497  0.1470  0.0779  0.5815
  241MOL0     H32534   3.390   5.917   1.837 -0.2305 -1.0645 -3.2619
  241MOL0     H32535   3.174   5.998   1.765  1.0252 -0.8483 -1.1556
  242MOL0     O32536   9.154   6.656   1.213  0.3463  0.4429 -0.8515
  242MOL0     C32537   9.180   6.762   1.279 -0.0165  0.0032 -0.4145
  242MOL0     O32538   9.155   6.880   1.225  1.2118 -0.3913  0.3650
  242MOL0     C32539   9.061   6.896   1.133 -0.0557  0.5002 -1.1804
  242MOL0     C32540   9.091   6.996   1.046 -0.2342 -0.2095 -1.0442
  242MOL0     C32541   9.018   7.015   0.921 -0.3252 -0.0754 -0.6299
  242MOL0     C32542   8.913   6.934   0.899 -0.6175  0.9857 -0.2176
  242MOL0     O32543   8.838   6.940   0.785  0.2005  0.2060 -0.0582
  242MOL0     C32544   8.799   7.066   0.718  0.4176 -0.1860 -0.8797
  242MOL0     C32545   8.646   7.068   0.699  0.0711  0.2911  0.6059
  242MOL0     C32546   8.575   6.939   0.659 -0.1970 -0.2166 -0.2529
  242MOL0     C32547   8.424   6.970   0.661  0.1814 -0.6093 -0.1798
  242MOL0     C32548   8.366   6.862   0.575  0.7071 -0.1449 -0.7496
  242MOL0     C32549   8.214   6.868   0.611 -0.3871  0.3715  0.7695
  242MOL0     C32550   8.150   6.760   0.510  0.3736  0.7947 -0.4525
  242MOL0     C32551   8.012   6.791   0.465  0.9285  0.4714 -0.0227
  242MOL0     N32552   7.935   6.676   0.408  0.0928  0.1500  0.6067
  242MOL0     C32553   7.966   6.611   0.293 -0.4549  0.1102 -0.1843
  242MOL0     C32554   7.922   6.484   0.307  1.0652 -0.8149 -0.0066
  242MOL0     C32555   7.924   6.375   0.213 -0.4194 -0.2981  0.5698
  242MOL0     C32556   7.894   6.420   0.076 -0.9798  0.9881  0.6464
  242MOL0     C32557   7.929   6.304  -0.025 -0.1564  0.2353 -0.0990
  242MOL0     C32558   7.833   6.191  -0.038 -0.5431  0.6971 -0.3798
  242MOL0     O32559   7.696   6.225  -0.055 -0.1562 -0.0093 -0.6527
  242MOL0     C32560   7.643   6.273  -0.164  0.0626  0.2248  0.7746
  242MOL0     C32561   7.710   6.293  -0.288  0.4277  0.0492 -0.1100
  242MOL0     C32562   7.644   6.321  -0.406  0.3741 -0.0528 -0.0030
  242MOL0     C32563   7.737   6.320  -0.535  0.2316 -0.2371  1.0328
  242MOL0     C32564   7.507   6.361  -0.405 -0.9528  0.3552 -0.6064
  242MOL0     C32565   7.448   6.431  -0.519  0.5483 -0.4203  0.6660
  242MOL0     O32566   7.329   6.486  -0.484 -0.1741 -0.8738 -0.0214
  242MOL0     C32567   7.238   6.551  -0.567 -0.7248  0.2875 -0.1767
  242MOL0     C32568   7.104   6.501  -0.561 -0.9425  0.2223 -0.0530
  242MOL0     C32569   7.007   6.555  -0.643  1.0504  0.4745 -0.1017
  242MOL0     C32570   7.046   6.654  -0.738  0.3700  0.1016  0.6903
  242MOL0     O32571   6.954   6.706  -0.823  0.0359 -0.5226 -0.3676
  242MOL0     C32572   6.877   6.609  -0.902 -0.2078  0.1213 -0.0174
  242MOL0     C32573   6.849   6.686  -1.029  0.2837  0.3499 -0.2088
  242MOL0     C32574   6.856   6.600  -1.158 -0.1447  0.4131  0.0067
  242MOL0     C32575   6.995   6.618  -1.240  0.2830 -0.0260 -0.6241
  242MOL0     C32576   6.988   6.563  -1.384 -1.4135 -0.2651 -0.5544
  242MOL0     C32577   7.127   6.578  -1.451 -0.1844 -0.9359  0.2741
  242MOL0     C32578   7.216   6.458  -1.414  0.4418  1.2766 -0.4688
  242MOL0     C32579   7.340   6.425  -1.504  0.1207 -1.1531  0.2520
  242MOL0    Cl32580   7.434   6.311  -1.403  0.6623  0.0026 -0.2741
  242MOL0     C32581   7.177   6.701  -0.745 -0.8215  0.9080  0.0052
  242MOL0     C32582   7.276   6.649  -0.658 -0.1594 -0.7147  0.3060
  242MOL0     O32583   7.500   6.436  -0.631 -0.1495 -0.3965  0.2830
  242MOL0     C32584   7.443   6.348  -0.280  0.1085  0.3869  0.5979
  242MOL0     C32585   7.505   6.303  -0.164 -0.7288  0.8329 -0.2250
  242MOL0     N32586   7.855   6.476   0.427 -0.4074 -0.0244 -0.0579
  242MOL0     N32587   7.864   6.587   0.487 -0.2850  0.6479 -0.0006
  242MOL0     C32588   8.873   6.835   0.993 -0.4388 -0.2217 -0.1493
  242MOL0     C32589   8.953   6.815   1.107  0.3671  0.0658 -0.2808
  242MOL0     C32590   9.257   6.744   1.404 -0.6440  0.1318  1.0152
  242MOL0     C32591   9.222   6.633   1.483 -1.4725  0.1624  0.9275
  242MOL0     C32592   9.286   6.618   1.606  0.7656  0.5284  0.5382
  242MOL0     C32593   9.367   6.709   1.673  0.5489 -0.1908  0.3639
  242MOL0     O32594   9.414   6.685   1.800  0.6795 -0.0418 -0.4827
  242MOL0     C32595   9.524   6.770   1.857  0.3718  0.1065 -1.1988
  242MOL0     C32596   9.551   6.772   2.007 -0.8791  0.8375  0.7422
  242MOL0     C32597   9.425   6.834   2.074 -0.6413 -0.0265  0.0456
  242MOL0     C32598   9.437   6.853   2.222 -0.1999 -0.6305  0.2227
  242MOL0     C32599   9.573   6.849   2.273  0.5067  0.4365 -0.7107
  242MOL0     C32600   9.691   6.838   2.291 -0.2164  0.1165  0.8145
  242MOL0     C32601   9.397   6.822   1.597 -0.0678 -0.2192 -0.4400
  242MOL0     C32602   9.346   6.836   1.460 -0.4623  0.3221 -0.2620
  242MOL0     H32603   9.188   7.042   1.059 -2.0629  3.6362  0.8588
  242MOL0     H32604   9.054   7.092   0.854  0.5009  0.6344  0.5943
  242MOL0     H32605   8.831   7.165   0.751  0.2384 -0.3696 -0.1469
  242MOL0     H32606   8.853   7.058   0.623  2.5182 -2.6109  0.3955
  242MOL0     H32607   8.590   7.106   0.786 -0.8551 -0.4248  0.3409
  242MOL0     H32608   8.629   7.135   0.614 -3.5686 -1.3510 -0.1655
  242MOL0     H32609   8.606   6.911   0.558  1.6092 -0.8365  0.4475
  242MOL0     H32610   8.600   6.864   0.734  1.6795 -0.7116 -1.3154
  242MOL0     H32611   8.396   6.975   0.766 -1.7727 -1.2736 -0.6346
  242MOL0     H32612   8.400   7.064   0.610 -0.5196 -2.5724 -3.8763
  242MOL0     H32613   8.384   6.856   0.468 -1.6324  0.8970 -1.2760
  242MOL0     H32614   8.403   6.763   0.604 -0.2506 -0.9255 -2.0683
  242MOL0     H32615   8.197   6.838   0.714  0.6763  0.4747  0.9883
  242MOL0     H32616   8.158   6.958   0.584 -0.8122  0.2142  1.1048
  242MOL0     H32617   8.213   6.740   0.423  1.3024 -1.6423  0.6839
  242MOL0     H32618   8.160   6.662   0.557 -1.7564  1.0775  0.6882
  242MOL0     H32619   8.017   6.875   0.396  1.6042  1.1310  0.7951
  242MOL0     H32620   7.943   6.820   0.545 -0.2078 -1.8444 -0.0796
  242MOL0     H32621   8.021   6.652   0.208  0.5115  2.0011  1.2645
  242MOL0     H32622   8.027   6.339   0.209 -1.4843 -4.0673  2.4350
  242MOL0     H32623   7.864   6.287   0.239  2.4836 -2.5841 -0.0368
  242MOL0     H32624   7.953   6.505   0.041  5.3807 -2.7672  0.7654
  242MOL0     H32625   7.788   6.447   0.075 -1.1862  0.3718  2.4027
  242MOL0     H32626   8.026   6.265   0.008  0.6576 -1.4913 -3.9321
  242MOL0     H32627   7.928   6.348  -0.126 -0.1268 -0.0373 -0.2187
  242MOL0     H32628   7.830   6.129   0.052  1.3380 -0.6743 -1.1976
  242MOL0     H32629   7.869   6.127  -0.119 -0.1043 -0.5020  0.7259
  242MOL0     H32630   7.814   6.263  -0.300  0.0189 -2.3330  1.5722
  242MOL0     H32631   7.715   6.248  -0.614  0.8707  0.0314  0.6104
  242MOL0     H32632   7.729   6.421  -0.577  1.8353 -0.2602  0.6341
  242MOL0     H32633   7.842   6.304  -0.509 -0.0000 -0.1464  2.1062
  242MOL0     H32634   7.078   6.424  -0.489 -1.4032  1.0876  0.7303
  242MOL0     H32635   6.906   6.524  -0.619  1.5084  0.0672  1.3912
  242MOL0     H32636   6.940   6.523  -0.925 -0.6007 -0.6600  1.6628
  242MOL0     H32637   6.788   6.572  -0.850 -0.9425  1.6205 -0.1296
  242MOL0     H32638   6.745   6.719  -1.023  0.1857 -0.1270  0.8639
  242MOL0     H32639   6.919   6.771  -1.027  1.1761 -0.3711 -0.3507
  242MOL0     H32640   6.777   6.641  -1.221  0.2815  1.0276 -0.1362
  242MOL0     H32641   6.838   6.495  -1.132  1.3427 -0.3785 -1.8362
  242MOL0     H32642   7.023   6.723  -1.250 -1.8844  0.5443 -1.2091
  242MOL0     H32643   7.073   6.567  -1.182 -2.2829 -2.2448  1.1405
  242MOL0     H32644   6.922   6.629  -1.440  1.1416  1.4599 -1.7368
  242MOL0     H32645   6.952   6.460  -1.379 -1.0825 -0.3329  1.5304
  242MOL0     H32646   7.115   6.574  -1.559  1.9984 -1.0660 -0.0045
  242MOL0     H32647   7.184   6.669  -1.429 -0.2076 -0.7499 -0.4369
  242MOL0     H32648   7.150   6.371  -1.405  1.6443  0.4265  0.4891
  242MOL0     H32649   7.254   6.485  -1.315  1.2867  1.1953 -0.7664
  242MOL0     H32650   7.389   6.521  -1.522 -2.5188  0.5601  1.5591
  242MOL0     H32651   7.313   6.374  -1.597  0.3202 -4.7471  1.9968
  242MOL0     H32652   7.221   6.770  -0.817  2.0015 -2.1076 -1.4142
  242MOL0     H32653   7.378   6.685  -0.664 -0.5035 -0.0287 -3.5473
  242MOL0     H32654   7.340   6.372  -0.256 -0.0784 -0.3364  0.5357
  242MOL0     H32655   7.459   6.276  -0.070  2.0077 -1.8635  0.4918
  242MOL0     H32656   8.783   6.780   0.970 -0.8140  1.0412 -1.9763
  242MOL0     H32657   8.922   6.749   1.187 -1.9379  0.0431 -1.1205
  242MOL0     H32658   9.150   6.555   1.460 -0.6903 -0.1967 -0.4168
  242MOL0     H32659   9.247   6.531   1.658 -1.5123  1.8848  1.2523
  242MOL0     H32660   9.618   6.762   1.803 -0.1234  1.2295 -2.2462
  242MOL0     H32661   9.497   6.874   1.841 -1.1215 -0.1107 -0.2730
  242MOL0     H32662   9.641   6.826   2.035 -0.6331 -0.5038  2.7196
  242MOL0     H32663   9.569   6.669   2.039  1.2542  1.3232  1.2392
  242MOL0     H32664   9.347   6.763   2.044 -0.5819  0.0933 -0.3907
  242MOL0     H32665   9.407   6.927   2.020 -0.6517 -0.3453 -0.5091
  242MOL0     H32666   9.386   6.774   2.278  1.4192  1.3205  4.9350
  242MOL0     H32667   9.404   6.950   2.259  1.0262 -1.2958  3.4224
  242MOL0     H32668   9.794   6.845   2.321 -0.3488  3.4156  0.8582
  242MOL0     H32669   9.449   6.902   1.649  1.5650 -1.8275  0.5414
  242MOL0     H32670   9.374   6.923   1.402 -2.8565  2.4616  1.5543
  243MOL0     O32671  10.672   9.409  10.972 -0.1705  0.3553 -0.6964
  243MOL0     C32672  10.700   9.395  10.855 -0.4857 -0.2414  0.6340
  243MOL0     O32673  10.773   9.487  10.779  0.2761  0.2493  0.3218
  243MOL0     C32674  10.794   9.619  10.830 -0.0164 -0.2932  0.0881
  243MOL0     C32675  10.705   9.694  10.914 -0.6176  0.6753 -0.6180
  243MOL0     C32676  10.725   9.819  10.968 -1.4529 -0.2907  0.4206
  243MOL0     C32677  10.839   9.888  10.922 -0.5218  0.7496  0.2309
  243MOL0     O32678  10.850  10.022  10.949 -0.5764 -0.1776 -0.6744
  243MOL0     C32679  10.949  10.099  10.883 -0.2359  0.0700  0.2619
  243MOL0     C32680  10.933  10.235  10.938 -0.3539 -0.3613  0.6459
  243MOL0     C32681  10.978  10.231  11.087 -0.1650  0.0884  0.4517
  243MOL0     C32682  11.020  10.377  11.125  0.5644 -0.0491  0.1476
  243MOL0     C32683  11.099  10.379  11.260  0.1118 -0.3118  0.3217
  243MOL0     C32684  11.075  10.519  11.319  0.0305  0.0369  0.7395
  243MOL0     C32685  11.144  10.571  11.443 -1.0952  0.5619 -0.6400
  243MOL0     C32686  11.295  10.596  11.418 -0.6445 -0.3179  0.0314
  243MOL0     N32687  11.324  10.730  11.356 -0.1065 -0.1636 -0.1224
  243MOL0     C32688  11.312  10.852  11.427 -0.0442 -0.5686  0.0081
  243MOL0     C32689  11.360  10.949  11.339 -0.0571  0.7167 -0.8174
  243MOL0     C32690  11.357  11.097  11.360  0.5405  0.9320 -0.9684
  243MOL0     C32691  11.382  11.144  11.502 -0.3741  0.2253  0.0554
  243MOL0     C32692  11.261  11.169  11.599 -0.6734 -0.2732  0.2437
  243MOL0     C32693  11.126  11.189  11.546 -0.4944  0.0071 -0.5261
  243MOL0     O32694  11.117  11.311  11.468  0.2324  0.1945 -0.5643
  243MOL0     C32695  11.117  11.435  11.531 -0.6147  0.0519  0.9725
  243MOL0     C32696  11.129  11.544  11.441  1.3025  0.2087  0.0233
  243MOL0     C32697  11.111  11.679  11.489  0.5486 -0.0674  1.1535
  243MOL0     C32698  11.124  11.788  11.383  0.2213 -0.5047  0.2012
  243MOL0     C32699  11.080  11.700  11.628  0.5577  0.0760 -0.5770
  243MOL0     C32700  11.062  11.833  11.685  0.3788 -0.2373 -0.0949
  243MOL0     O32701  11.087  11.846  11.821  0.3856  0.7151  0.2510
  243MOL0     C32702  11.085  11.968  11.872 -0.4543 -0.6272  0.5400
  243MOL0     C32703  11.188  12.017  11.950  0.6110 -1.3909  1.8081
  243MOL0     C32704  11.184  12.151  12.001  0.2342  0.4849  0.1604
  243MOL0     C32705  11.071  12.231  11.979  0.2188  0.3412 -0.6185
  243MOL0     O32706  11.069  12.358  12.027  0.1098 -0.7140 -0.1068
  243MOL0     C32707  11.012  12.450  11.941  0.5835  0.6700 -0.6794
  243MOL0     C32708  11.123  12.549  11.892 -0.0369  0.2506 -0.4739
  243MOL0     C32709  11.190  12.482  11.771  0.3548  0.3632  0.7394
  243MOL0     C32710  11.300  12.585  11.724  0.7605  0.0982  0.6054
  243MOL0     C32711  11.380  12.516  11.606 -0.2340  1.1977 -0.6919
  243MOL0     C32712  11.532  12.556  11.615  0.4721  0.3238 -0.6430
  243MOL0     C32713  11.562  12.706  11.611  0.2595  0.5461 -0.7672
  243MOL0     C32714  11.504  12.775  11.490  1.4882 -0.9767 -0.0183
  243MOL0    Cl32715  11.499  12.683  11.339 -0.2101  0.1619  0.0848
  243MOL0     C32716  10.963  12.172  11.917 -0.0011 -0.4998  0.2241
  243MOL0     C32717  10.967  12.047  11.868  0.4013  0.0995  0.2946
  243MOL0     O32718  11.007  11.922  11.621  0.4309 -0.3450 -0.5816
  243MOL0     C32719  11.070  11.591  11.711  0.2975  0.5639 -1.0284
  243MOL0     C32720  11.082  11.465  11.658 -0.5109 -0.1288 -0.3200
  243MOL0     N32721  11.390  10.883  11.218 -0.3073 -0.5788 -0.3508
  243MOL0     N32722  11.379  10.752  11.237 -0.3471  0.1711  0.4294
  243MOL0     C32723  10.930   9.828  10.847  0.1529 -0.4957 -0.3981
  243MOL0     C32724  10.917   9.692  10.802  0.1870 -0.1430  0.4260
  243MOL0     C32725  10.658   9.263  10.800  0.5298 -0.8720 -0.3888
  243MOL0     C32726  10.634   9.153  10.892  0.3596 -0.6869  0.3664
  243MOL0     C32727  10.621   9.027  10.830  0.2165  0.0806 -0.4522
  243MOL0     C32728  10.620   9.006  10.690  0.4325  0.2366 -0.1842
  243MOL0     O32729  10.603   8.883  10.634 -0.1017 -0.0745  0.2723
  243MOL0     C32730  10.614   8.762  10.713  0.4398  0.2359  0.0671
  243MOL0     C32731  10.746   8.735  10.786 -0.7381 -0.5624 -0.9930
  243MOL0     C32732  10.864   8.759  10.685 -1.2892  0.4230 -0.1310
  243MOL0     C32733  11.010   8.748  10.744  0.8115  0.5390  0.4005
  243MOL0     C32734  11.031   8.807  10.878 -0.5075  0.0342 -0.6782
  243MOL0     C32735  11.034   8.851  10.994  0.6725 -0.1993  0.3037
  243MOL0     C32736  10.635   9.115  10.606  0.2878  1.0386  1.1867
  243MOL0     C32737  10.657   9.248  10.655 -0.4916 -0.8127 -0.9352
  243MOL0     H32738  10.617   9.638  10.945  1.3006 -1.1273  2.0547
  243MOL0     H32739  10.651   9.868  11.031 -0.2297  0.4587  1.3295
  243MOL0     H32740  11.041  10.049  10.912 -2.2508 -3.2048  1.6015
  243MOL0     H32741  10.940  10.114  10.775  1.2711 -0.4181  0.0533
  243MOL0     H32742  11.003  10.301  10.885  3.4665 -1.7218  3.5515
  243MOL0     H32743  10.838  10.288  10.927 -0.3526 -0.1449  1.6198
  243MOL0     H32744  10.897  10.196  11.151 -0.7493  1.8906  0.7646
  243MOL0     H32745  11.062  10.162  11.099  0.5848  0.4546 -2.0760
  243MOL0     H32746  11.089  10.426  11.056  3.5304 -0.4354  2.6537
  243MOL0     H32747  10.922  10.424  11.138  0.7572 -0.2301  2.7992
  243MOL0     H32748  11.059  10.303  11.328 -0.3428 -0.8702 -0.5521
  243MOL0     H32749  11.207  10.370  11.241 -0.1164  0.1923 -1.4130
  243MOL0     H32750  11.092  10.600  11.248  1.0694  1.7345  2.7984
  243MOL0     H32751  10.968  10.534  11.339 -1.4616 -1.7738 -4.3870
  243MOL0     H32752  11.093  10.663  11.472 -0.6772  2.0517 -4.1769
  243MOL0     H32753  11.134  10.495  11.521 -1.5708  2.7386  1.5342
  243MOL0     H32754  11.318  10.508  11.358 -3.7319 -0.6733 -0.8081
  243MOL0     H32755  11.349  10.583  11.513 -1.1019 -7.8021 -0.1664
  243MOL0     H32756  11.287  10.867  11.531 -2.0260 -0.3787 -0.4551
  243MOL0     H32757  11.442  11.132  11.300  2.2503  2.5830  2.1319
  243MOL0     H32758  11.261  11.134  11.324 -0.7288  1.1630  2.3223
  243MOL0     H32759  11.436  11.238  11.492  0.6550 -0.1279  1.8380
  243MOL0     H32760  11.457  11.077  11.544 -0.9329  0.7805  2.0518
  243MOL0     H32761  11.280  11.251  11.669  1.8807  0.9871 -1.8007
  243MOL0     H32762  11.251  11.074  11.653 -0.6902 -0.8533 -0.7573
  243MOL0     H32763  11.051  11.191  11.626  0.5937 -2.9432  0.7213
  243MOL0     H32764  11.098  11.108  11.479  0.7721  1.6801 -3.2379
  243MOL0     H32765  11.134  11.524  11.335  0.1393 -2.7669  0.4442
  243MOL0     H32766  11.033  11.828  11.337  3.0751  3.8388 -2.4615
  243MOL0     H32767  11.180  11.872  11.425  0.9247 -0.5565 -0.5969
  243MOL0     H32768  11.180  11.767  11.291 -1.1373  1.8566 -1.2977
  243MOL0     H32769  11.286  11.971  11.958  1.0922 -0.5345  0.9607
  243MOL0     H32770  11.262  12.193  12.062  2.9984 -1.5199 -1.7483
  243MOL0     H32771  10.972  12.405  11.850  0.4106 -3.3556  1.1762
  243MOL0     H32772  10.928  12.499  11.992 -0.7997  0.0487 -2.2645
  243MOL0     H32773  11.087  12.649  11.866  2.1619  1.5283  1.0206
  243MOL0     H32774  11.195  12.554  11.975  0.6936 -2.2267 -0.8708
  243MOL0     H32775  11.109  12.477  11.697 -1.6462 -0.8037  2.8534
  243MOL0     H32776  11.217  12.379  11.791 -2.0276 -0.0310  2.4956
  243MOL0     H32777  11.268  12.679  11.678  1.6128 -0.1909 -0.6302
  243MOL0     H32778  11.368  12.616  11.804 -1.2974  2.5522  1.5428
  243MOL0     H32779  11.350  12.528  11.502 -0.5566 -2.3851 -1.1539
  243MOL0     H32780  11.381  12.408  11.623 -2.3185  0.6980 -3.1844
  243MOL0     H32781  11.578  12.529  11.710 -1.3709 -1.4404 -0.1853
  243MOL0     H32782  11.587  12.511  11.532 -2.8253 -2.5917 -1.5046
  243MOL0     H32783  11.670  12.718  11.600  0.6370 -1.9596 -0.2718
  243MOL0     H32784  11.534  12.750  11.707 -2.9730 -3.9185  0.6427
  243MOL0     H32785  11.553  12.872  11.480  0.6219 -0.1863  2.5724
  243MOL0     H32786  11.397  12.790  11.504  0.6484 -0.7456 -5.0287
  243MOL0     H32787  10.875  12.234  11.905  0.5966  0.3999  0.3562
  243MOL0     H32788  10.878  12.021  11.812  1.9778 -0.4054 -2.1034
  243MOL0     H32789  11.043  11.587  11.816  0.0316  0.2561 -1.1057
  243MOL0     H32790  11.082  11.383  11.728 -1.8853 -2.6422 -3.0335
  243MOL0     H32791  11.024   9.875  10.821  0.3982 -1.3397 -1.0762
  243MOL0     H32792  11.005   9.652  10.752 -1.4767 -1.4208 -1.6316
  243MOL0     H32793  10.616   9.167  10.998 -2.3494  2.1082 -0.3072
  243MOL0     H32794  10.605   8.961  10.915  0.7377  1.4727  0.7717
  243MOL0     H32795  10.527   8.757  10.779  1.6697  0.3336  1.7637
  243MOL0     H32796  10.607   8.675  10.648 -3.1561  0.3227  0.1008
  243MOL0     H32797  10.740   8.633  10.825 -0.4915 -0.0850  0.3490
  243MOL0     H32798  10.747   8.803  10.871 -1.6815  1.4602 -2.4995
  243MOL0     H32799  10.852   8.858  10.639 -0.2566  2.4571  3.4972
  243MOL0     H32800  10.864   8.693  10.598  0.8395  2.4320 -1.7933
  243MOL0     H32801  11.079   8.806  10.682  1.5704 -0.2156  0.5222
  243MOL0     H32802  11.045   8.645  10.742  0.9130  0.5786  0.0678
  243MOL0     H32803  11.025   8.899  11.089  0.1506  3.5611 -1.4695
  243MOL0     H32804  10.631   9.094  10.499  0.5678 -0.4221  1.4430
  243MOL0     H32805  10.682   9.336  10.598  0.4549 -0.2332  0.3280
  244MOL0     O32806   1.319   1.054   0.038 -0.1559  0.6311  0.5033
  244MOL0     C32807   1.210   1.077  -0.012 -0.4800 -0.8167  0.2980
  244MOL0     O32808   1.091   1.020   0.023  0.0338 -0.0418  0.0557
  244MOL0     C32809   1.090   0.930   0.122 -0.2377  0.9562  0.6630
  244MOL0     C32810   1.096   0.977   0.258 -0.4625  0.6702 -1.3647
  244MOL0     C32811   1.105   0.880   0.361  0.2748  0.1757 -0.8203
  244MOL0     C32812   1.097   0.743   0.343 -0.4081 -0.6615  0.1919
  244MOL0     O32813   1.124   0.669   0.455  0.0369 -0.2939  0.1474
  244MOL0     C32814   1.140   0.532   0.436 -0.6457 -0.4200 -0.0561
  244MOL0     C32815   1.179   0.467   0.566 -0.6689 -0.4062 -0.4810
  244MOL0     C32816   1.069   0.474   0.675 -0.0680 -0.0622  0.5216
  244MOL0     C32817   1.109   0.398   0.802  0.4579  0.3946  0.3442
  244MOL0     C32818   0.988   0.375   0.897 -0.5150 -0.6164 -0.3358
  244MOL0     C32819   1.001   0.244   0.979 -0.2271 -0.5098  0.3408
  244MOL0     C32820   0.994   0.129   0.881 -0.6267 -0.3963  0.3679
  244MOL0     C32821   1.107   0.025   0.905 -1.1219  0.7737 -0.7049
  244MOL0     N32822   1.069  -0.109   0.852  0.0792 -0.7560  0.3718
  244MOL0     C32823   0.991  -0.204   0.919  0.7409  0.6808  0.1041
  244MOL0     C32824   0.970  -0.300   0.824  0.1134  0.8149 -0.4234
  244MOL0     C32825   0.913  -0.435   0.859  0.2117 -0.1798 -0.5691
  244MOL0     C32826   0.892  -0.530   0.742 -0.5544 -0.2457  0.3543
  244MOL0     C32827   0.759  -0.523   0.667  0.1203 -0.2620 -1.0009
  244MOL0     C32828   0.753  -0.646   0.569 -0.3531  0.3486 -0.5544
  244MOL0     O32829   0.848  -0.620   0.463  0.9491  0.1980 -0.4661
  244MOL0     C32830   0.904  -0.724   0.402 -0.3283  0.3849  0.5065
  244MOL0     C32831   0.858  -0.853   0.388  0.1505 -0.1959 -0.2754
  244MOL0     C32832   0.934  -0.960   0.334  0.1400  0.4037  0.4657
  244MOL0     C32833   0.870  -1.092   0.316 -0.2002 -0.3855 -0.1610
  244MOL0     C32834   1.068  -0.932   0.298 -0.7123  1.2891  0.0083
  244MOL0     C32835   1.165  -1.044   0.244 -0.3730  0.5472 -0.1291
  244MOL0     O32836   1.296  -1.008   0.267  0.1003  0.1490 -0.6993
  244MOL0     C32837   1.401  -1.077   0.203 -0.7391  0.7863 -0.7836
  244MOL0     C32838   1.396  -1.212   0.181  0.2058  0.8073 -0.6616
  244MOL0     C32839   1.497  -1.287   0.118 -0.0300  0.3836  0.1412
  244MOL0     C32840   1.601  -1.208   0.068  0.1369 -0.2227  0.6389
  244MOL0     O32841   1.713  -1.250  -0.008  0.1011 -0.3126 -0.2317
  244MOL0     C32842   1.725  -1.379  -0.048  0.1917  0.1178  0.1553
  244MOL0     C32843   1.864  -1.383  -0.112 -0.1288 -0.6131 -0.4253
  244MOL0     C32844   1.931  -1.529  -0.115  0.7930 -0.6040 -0.0848
  244MOL0     C32845   1.961  -1.572   0.026  0.4695  0.6401 -0.2972
  244MOL0     C32846   2.030  -1.706   0.023  1.0594  0.3659 -0.3190
  244MOL0     C32847   2.032  -1.751   0.167  0.3845  0.4537 -0.3292
  244MOL0     C32848   2.137  -1.866   0.179  0.2658 -1.4280 -0.0799
  244MOL0     C32849   2.177  -1.870   0.324 -0.1266  0.0810 -0.8344
  244MOL0    Cl32850   2.318  -1.991   0.341 -0.0070 -0.3031  0.0042
  244MOL0     C32851   1.611  -1.065   0.098 -0.7291  1.1415 -0.8703
  244MOL0     C32852   1.520  -1.006   0.173  0.1206 -0.6715 -0.8862
  244MOL0     O32853   1.135  -1.141   0.175 -0.3526 -0.5270  0.1402
  244MOL0     C32854   1.114  -0.799   0.314 -0.5392 -0.0120 -0.1470
  244MOL0     C32855   1.034  -0.698   0.368  0.3396 -0.6639 -0.8333
  244MOL0     N32856   1.027  -0.255   0.706 -0.4978  0.2280  0.5792
  244MOL0     N32857   1.092  -0.156   0.722 -0.2162 -0.8907 -0.8787
  244MOL0     C32858   1.099   0.694   0.205  0.3746  0.0806 -0.4546
  244MOL0     C32859   1.086   0.789   0.104  0.6458 -1.0346  0.0682
  244MOL0     C32860   1.203   1.180  -0.119 -0.7545  1.1526  0.4434
  244MOL0     C32861   1.311   1.268  -0.141 -0.0675 -0.6986  0.4856
  244MOL0     C32862   1.289   1.393  -0.198 -0.3020  1.0336  1.0050
  244MOL0     C32863   1.167   1.413  -0.270 -0.3682 -0.7211 -0.3195
  244MOL0     O32864   1.145   1.540  -0.321 -0.3428 -0.7356  0.3500
  244MOL0     C32865   1.020   1.586  -0.374 -0.0099  0.0976  1.0494
  244MOL0     C32866   0.957   1.681  -0.270  0.7616 -0.2018 -0.5812
  244MOL0     C32867   0.838   1.755  -0.330  0.2632  0.1174 -0.6903
  244MOL0     C32868   0.807   1.864  -0.225  0.8272  0.4465  0.6269
  244MOL0     C32869   0.717   1.961  -0.286 -0.7260 -0.4323  0.5988
  244MOL0     C32870   0.643   2.057  -0.317 -1.0197  0.5030  1.1528
  244MOL0     C32871   1.069   1.317  -0.263 -0.3646  0.7922 -0.5280
  244MOL0     C32872   1.088   1.201  -0.187 -0.0776 -0.6403 -0.6882
  244MOL0     H32873   1.103   1.083   0.278  1.3982  0.5606 -1.2995
  244MOL0     H32874   1.107   0.927   0.459  4.7326  2.4620 -1.7454
  244MOL0     H32875   1.045   0.495   0.396 -0.2923 -0.4657 -0.8858
  244MOL0     H32876   1.214   0.508   0.359 -1.3493 -0.6102 -0.6866
  244MOL0     H32877   1.201   0.361   0.549  1.0442  0.3665 -4.1263
  244MOL0     H32878   1.271   0.514   0.601  0.8606 -2.8859 -0.9156
  244MOL0     H32879   1.059   0.581   0.699 -3.3275 -0.1002 -0.3253
  244MOL0     H32880   0.974   0.433   0.640 -0.2005  0.7127 -0.0501
  244MOL0     H32881   1.149   0.305   0.761 -0.7530  0.2067 -0.4471
  244MOL0     H32882   1.186   0.452   0.859 -1.3297 -0.4263  3.8740
  244MOL0     H32883   0.991   0.455   0.972  1.1729 -3.5012  2.9672
  244MOL0     H32884   0.903   0.377   0.828  0.4813  0.5237 -1.5978
  244MOL0     H32885   1.100   0.254   1.022  2.1865  0.2689 -4.6850
  244MOL0     H32886   0.922   0.239   1.055 -2.1460 -3.7117 -1.5877
  244MOL0     H32887   0.898   0.081   0.903 -0.5006  0.7046  3.9781
  244MOL0     H32888   0.989   0.159   0.776 -2.2731 -0.8207  0.2969
  244MOL0     H32889   1.158   0.020   1.001 -1.4988  0.4503 -0.5181
  244MOL0     H32890   1.196   0.055   0.850 -0.7858  1.0914 -0.0027
  244MOL0     H32891   0.961  -0.200   1.023  1.0842  2.2046  0.1791
  244MOL0     H32892   0.983  -0.484   0.927 -2.2168 -0.2554  2.0828
  244MOL0     H32893   0.818  -0.422   0.911 -0.1677  1.5147 -1.6183
  244MOL0     H32894   0.906  -0.634   0.775 -1.8224 -1.1242 -1.6836
  244MOL0     H32895   0.975  -0.519   0.672 -1.7866 -1.9374 -1.4806
  244MOL0     H32896   0.741  -0.424   0.624 -3.3970  0.5736  1.8302
  244MOL0     H32897   0.668  -0.534   0.728 -0.3466  3.0252 -0.9077
  244MOL0     H32898   0.655  -0.652   0.520  0.3266 -0.0329 -1.9135
  244MOL0     H32899   0.785  -0.740   0.616  0.4147  1.3085  0.9273
  244MOL0     H32900   0.760  -0.887   0.417 -0.7613  0.5980 -2.2385
  244MOL0     H32901   0.762  -1.085   0.334 -0.3613 -1.8792 -0.4071
  244MOL0     H32902   0.902  -1.140   0.223  1.5319  0.1400  0.1305
  244MOL0     H32903   0.912  -1.137   0.406 -0.4754  0.7814  0.5786
  244MOL0     H32904   1.316  -1.275   0.219 -0.1221  0.3307 -2.0676
  244MOL0     H32905   1.483  -1.394   0.105  2.4014 -0.2391  1.9095
  244MOL0     H32906   1.722  -1.448   0.037  0.8131  0.4083  0.4140
  244MOL0     H32907   1.656  -1.404  -0.129  0.2191 -0.6302  0.3577
  244MOL0     H32908   1.860  -1.350  -0.217  1.5371 -1.6702 -0.8609
  244MOL0     H32909   1.924  -1.308  -0.058 -0.5558 -1.3505  1.1204
  244MOL0     H32910   2.020  -1.527  -0.178  1.8946  1.4228  1.4251
  244MOL0     H32911   1.855  -1.596  -0.156  0.4047  1.1366 -2.4584
  244MOL0     H32912   2.029  -1.494   0.063 -0.7597  0.5070  2.4574
  244MOL0     H32913   1.869  -1.584   0.084  1.8530  2.7419  2.5766
  244MOL0     H32914   2.133  -1.703  -0.015  1.5014 -1.1142  0.6570
  244MOL0     H32915   1.965  -1.770  -0.036  1.4218 -1.2434  0.9508
  244MOL0     H32916   2.062  -1.671   0.235  2.2153  0.6641 -1.3234
  244MOL0     H32917   1.933  -1.790   0.191  0.5507  1.3113  1.9750
  244MOL0     H32918   2.221  -1.861   0.109 -1.4974 -0.7743 -2.2794
  244MOL0     H32919   2.080  -1.955   0.151 -0.7944 -1.1018  0.9763
  244MOL0     H32920   2.091  -1.894   0.387  0.7735 -0.6839  0.1403
  244MOL0     H32921   2.218  -1.771   0.345 -1.2235  0.2720  0.5896
  244MOL0     H32922   1.697  -1.012   0.058  1.0560  0.3415  1.6074
  244MOL0     H32923   1.527  -0.901   0.198 -1.2043 -0.5386 -1.0144
  244MOL0     H32924   1.206  -0.786   0.259 -0.0860 -1.3558  0.2522
  244MOL0     H32925   1.066  -0.596   0.385 -0.0803 -1.0249  3.0642
  244MOL0     H32926   1.109   0.588   0.184  2.0808  0.4709 -1.8476
  244MOL0     H32927   1.079   0.758   0.000  2.1294 -0.8275 -0.1136
  244MOL0     H32928   1.409   1.262  -0.094  0.7670  0.8711 -0.9423
  244MOL0     H32929   1.356   1.479  -0.190 -1.0995  1.7249  0.5054
  244MOL0     H32930   1.038   1.636  -0.469 -1.2618  1.8340  1.6882
  244MOL0     H32931   0.942   1.510  -0.386 -0.2692  0.5509 -0.2497
  244MOL0     H32932   1.034   1.755  -0.246  0.6399 -0.0999 -0.5011
  244MOL0     H32933   0.929   1.632  -0.176 -2.9181 -1.9192 -2.3664
  244MOL0     H32934   0.753   1.686  -0.332  0.1881  0.1083  1.1387
  244MOL0     H32935   0.853   1.801  -0.427  0.9807 -1.3276 -1.3014
  244MOL0     H32936   0.903   1.899  -0.188  1.6613 -3.4767  2.6734
  244MOL0     H32937   0.767   1.821  -0.133  1.2888  2.0898  1.6381
  244MOL0     H32938   0.591   2.144  -0.352 -1.4268 -0.7204 -1.4969
  244MOL0     H32939   0.973   1.329  -0.311 -1.3932 -1.3782  0.8057
  244MOL0     H32940   1.003   1.136  -0.169 -0.5520 -0.2816 -1.5212
  245MOL0     O32941   6.660  10.142   6.115  0.1626 -0.2936 -0.9710
  245MOL0     C32942   6.582  10.074   6.051  0.5678 -0.3440  0.3052
  245MOL0     O32943   6.565  10.086   5.918  0.2098  1.1476  0.5015
  245MOL0     C32944   6.655  10.164   5.849  0.0964 -0.3933 -0.9430
  245MOL0     C32945   6.770  10.100   5.794 -0.7192 -0.0283 -0.1112
  245MOL0     C32946   6.863  10.175   5.720  0.6176  0.3494 -0.1866
  245MOL0     C32947   6.843  10.310   5.690  0.7467 -0.5081 -0.4669
  245MOL0     O32948   6.935  10.368   5.609 -0.0671  0.0997  0.4762
  245MOL0     C32949   6.905  10.494   5.552  0.6013 -0.4342  0.0260
  245MOL0     C32950   7.025  10.529   5.456 -1.0029 -0.1070 -0.5085
  245MOL0     C32951   7.035  10.680   5.433  0.3829 -0.2528  0.8451
  245MOL0     C32952   7.177  10.717   5.411  0.1239 -0.2934 -0.1649
  245MOL0     C32953   7.208  10.860   5.353 -0.8100  0.0481 -0.2000
  245MOL0     C32954   7.099  10.972   5.385 -0.6802 -0.4068 -0.1298
  245MOL0     C32955   7.121  11.110   5.339 -0.5281 -0.1707  0.0306
  245MOL0     C32956   7.246  11.196   5.394 -0.2323 -0.1301 -0.4494
  245MOL0     N32957   7.234  11.238   5.526 -0.1196  0.2454 -0.1325
  245MOL0     C32958   7.263  11.154   5.635  0.0295 -1.0291  0.0570
  245MOL0     C32959   7.191  11.208   5.738 -1.4438  0.1456  0.8478
  245MOL0     C32960   7.183  11.181   5.878  0.4089 -1.0278  0.3283
  245MOL0     C32961   7.078  11.069   5.887 -0.7986 -0.1167 -1.1224
  245MOL0     C32962   7.136  10.932   5.841 -0.0361  0.2078 -0.4702
  245MOL0     C32963   7.067  10.805   5.884  0.3773  0.1133 -0.4910
  245MOL0     O32964   7.130  10.687   5.828 -0.6917  0.1084  0.1323
  245MOL0     C32965   7.109  10.563   5.893  0.4286 -0.5787  0.4959
  245MOL0     C32966   7.033  10.531   6.010  0.5753  0.5564 -0.1341
  245MOL0     C32967   7.026  10.400   6.068  0.7212 -0.3136 -0.3904
  245MOL0     C32968   6.944  10.385   6.200 -0.8859  0.4465 -0.4358
  245MOL0     C32969   7.101  10.302   5.991 -0.0422  0.0278 -0.9039
  245MOL0     C32970   7.111  10.159   6.042 -0.3232 -0.4442  1.0595
  245MOL0     O32971   7.098  10.058   5.947  0.0680  0.1311  0.1666
  245MOL0     C32972   7.039   9.944   5.989  0.7441  0.6190  0.0273
  245MOL0     C32973   7.086   9.823   5.946  0.2065  0.9120  0.4998
  245MOL0     C32974   7.022   9.701   5.994 -0.4889  0.9571 -0.5219
  245MOL0     C32975   6.903   9.703   6.074 -0.5596 -0.3468 -0.9814
  245MOL0     O32976   6.840   9.581   6.099 -0.2785  0.2370 -0.5498
  245MOL0     C32977   6.758   9.567   6.215 -0.4700  0.1583  0.2670
  245MOL0     C32978   6.749   9.415   6.247  0.5231 -0.0348  0.1854
  245MOL0     C32979   6.807   9.379   6.378 -0.3436  0.0023  0.1778
  245MOL0     C32980   6.779   9.228   6.421 -0.0306 -0.2264 -0.0201
  245MOL0     C32981   6.912   9.159   6.467 -0.7441 -0.4798 -0.8379
  245MOL0     C32982   6.977   9.202   6.604  0.5691 -0.8765  0.5152
  245MOL0     C32983   6.918   9.112   6.711  0.7880  0.6115  0.1177
  245MOL0     C32984   6.997   9.131   6.839  0.6034  0.5069  0.4992
  245MOL0    Cl32985   6.913   9.027   6.949  0.0298 -0.2490  0.0973
  245MOL0     C32986   6.863   9.827   6.121 -0.0646 -1.1775  0.7654
  245MOL0     C32987   6.929   9.944   6.079  0.4908 -0.3824  0.3092
  245MOL0     O32988   7.121  10.143   6.163  0.4380  0.3530  0.5885
  245MOL0     C32989   7.172  10.330   5.878  0.3783 -0.9259  0.4613
  245MOL0     C32990   7.175  10.462   5.832  0.1416  0.0672 -0.0746
  245MOL0     N32991   7.134  11.321   5.687  0.4306  0.3214  0.3219
  245MOL0     N32992   7.150  11.335   5.559  0.0762  0.3933  0.2101
  245MOL0     C32993   6.729  10.376   5.742  1.1781 -0.2436 -1.7047
  245MOL0     C32994   6.630  10.299   5.814 -0.6605 -0.2211 -0.0569
  245MOL0     C32995   6.513   9.960   6.109  0.2485 -0.0615 -0.2400
  245MOL0     C32996   6.447   9.854   6.047  0.2393  0.1404 -0.3070
  245MOL0     C32997   6.382   9.744   6.117  1.2150 -0.9481  1.1753
  245MOL0     C32998   6.391   9.740   6.261 -0.0276  0.6317  0.2403
  245MOL0     O32999   6.349   9.633   6.336 -0.8452 -0.7174  0.1436
  245MOL0     C33000   6.359   9.499   6.276 -0.6331  0.6010  0.0497
  245MOL0     C33001   6.214   9.446   6.257  0.8800 -0.6582 -0.0247
  245MOL0     C33002   6.196   9.330   6.160 -0.7231 -0.4028 -0.2357
  245MOL0     C33003   6.058   9.281   6.131  0.6073  0.5478 -0.2998
  245MOL0     C33004   6.065   9.161   6.051  0.2039  0.0791  0.2138
  245MOL0     C33005   6.049   9.085   5.953 -0.3642 -0.4938 -0.1775
  245MOL0     C33006   6.458   9.842   6.321 -0.2715 -0.8312  0.1955
  245MOL0     C33007   6.516   9.947   6.249  1.0852  0.0816 -0.5121
  245MOL0     H33008   6.798   9.997   5.815  2.3233  0.9027  0.9422
  245MOL0     H33009   6.956  10.125   5.698 -0.3179 -4.0891  4.2744
  245MOL0     H33010   6.812  10.487   5.496  0.5011  1.7111 -0.1538
  245MOL0     H33011   6.898  10.565   5.635  0.9169 -2.8514  2.2487
  245MOL0     H33012   7.118  10.502   5.506 -1.6971  0.2319  1.0363
  245MOL0     H33013   7.030  10.481   5.358  2.8151 -1.7190  0.3020
  245MOL0     H33014   6.985  10.702   5.339  2.3021  2.6013  0.3631
  245MOL0     H33015   6.988  10.741   5.510 -0.4570 -3.1179  2.7962
  245MOL0     H33016   7.232  10.696   5.503 -0.7338 -1.3004  0.1323
  245MOL0     H33017   7.224  10.643   5.346 -1.1935 -1.5342  0.2641
  245MOL0     H33018   7.307  10.891   5.389  0.4387 -1.3292 -2.2114
  245MOL0     H33019   7.225  10.834   5.248 -0.9094 -3.5072  0.5346
  245MOL0     H33020   7.002  10.942   5.344 -1.4470  1.3089  0.3108
  245MOL0     H33021   7.089  10.978   5.494 -2.6143 -0.6404 -0.2495
  245MOL0     H33022   7.135  11.108   5.231 -3.9030  0.6649 -0.5253
  245MOL0     H33023   7.034  11.170   5.366  0.1631  1.7447 -1.7849
  245MOL0     H33024   7.256  11.277   5.321 -2.0240  4.0486  3.5112
  245MOL0     H33025   7.331  11.127   5.390 -3.9431 -5.7149  2.4545
  245MOL0     H33026   7.322  11.063   5.631  0.1792 -0.9257 -0.1350
  245MOL0     H33027   7.279  11.159   5.924 -0.6820 -1.1127  2.6994
  245MOL0     H33028   7.168  11.268   5.942  4.3137  0.7671 -0.8632
  245MOL0     H33029   6.980  11.094   5.846 -1.7058 -1.7063 -0.0371
  245MOL0     H33030   7.063  11.049   5.994  4.2031  0.8691  0.0104
  245MOL0     H33031   7.228  10.936   5.900 -0.6795  0.6819  0.5219
  245MOL0     H33032   7.156  10.930   5.733 -0.4429  1.0975 -0.5666
  245MOL0     H33033   6.964  10.819   5.849  0.4335 -3.0211 -2.3635
  245MOL0     H33034   7.072  10.796   5.993 -0.7832  0.6248 -0.3868
  245MOL0     H33035   6.976  10.608   6.060  0.0819  0.8516 -1.1278
  245MOL0     H33036   6.885  10.471   6.230  0.5422  0.2452  3.4475
  245MOL0     H33037   6.866  10.309   6.188  0.4393 -0.7946 -1.7099
  245MOL0     H33038   7.004  10.371   6.290 -0.8965  0.8835 -0.3589
  245MOL0     H33039   7.182   9.812   5.897 -0.0810 -0.1899  0.1558
  245MOL0     H33040   7.052   9.616   5.935 -1.4264 -0.4125  0.8968
  245MOL0     H33041   6.814   9.623   6.291  0.7963  2.2980 -2.0786
  245MOL0     H33042   6.655   9.601   6.203  0.1311  0.9758 -4.3747
  245MOL0     H33043   6.646   9.380   6.240  0.3102  0.8980 -2.7637
  245MOL0     H33044   6.804   9.357   6.172 -2.1625 -3.1465  0.4482
  245MOL0     H33045   6.764   9.439   6.459 -2.5680 -0.6951 -0.3908
  245MOL0     H33046   6.915   9.394   6.382 -0.2436 -0.8899  1.1955
  245MOL0     H33047   6.709   9.221   6.504  1.6478  1.6349  1.6807
  245MOL0     H33048   6.735   9.175   6.336  0.6606 -1.7041  0.5066
  245MOL0     H33049   6.979   9.187   6.385 -0.6790  2.8080  0.1820
  245MOL0     H33050   6.895   9.051   6.468  0.0567 -0.6051 -0.2347
  245MOL0     H33051   7.085   9.189   6.611  0.3100 -2.7294  1.9808
  245MOL0     H33052   6.956   9.309   6.616  1.8963  0.1150 -4.1439
  245MOL0     H33053   6.929   9.004   6.695 -0.3958  0.3446  0.9755
  245MOL0     H33054   6.814   9.143   6.719  0.5698  0.2099 -1.0516
  245MOL0     H33055   6.989   9.234   6.875 -0.8902  1.4600 -2.2715
  245MOL0     H33056   7.102   9.099   6.839  0.0612 -1.6695  2.9016
  245MOL0     H33057   6.779   9.829   6.190 -0.6062 -0.8361  0.1030
  245MOL0     H33058   6.886  10.040   6.105 -0.5852 -1.0405  1.0591
  245MOL0     H33059   7.241  10.260   5.830  2.2885  1.9806 -1.3477
  245MOL0     H33060   7.228  10.487   5.740  0.5126 -1.5300 -0.3344
  245MOL0     H33061   6.709  10.483   5.745 -1.0762 -0.5829  2.3751
  245MOL0     H33062   6.535  10.349   5.832 -1.6271 -1.2472 -2.0175
  245MOL0     H33063   6.442   9.868   5.940  1.1520  1.3388 -0.2169
  245MOL0     H33064   6.318   9.675   6.063 -0.0339  1.0368 -0.0633
  245MOL0     H33065   6.420   9.504   6.186 -2.0538 -0.8145 -1.0477
  245MOL0     H33066   6.407   9.418   6.333  3.1215  0.8620 -2.3923
  245MOL0     H33067   6.144   9.525   6.226  0.7033 -0.5800  0.5671
  245MOL0     H33068   6.194   9.428   6.363  1.4748 -0.4238  0.1301
  245MOL0     H33069   6.241   9.247   6.214  0.2589 -0.0330 -0.4593
  245MOL0     H33070   6.253   9.349   6.068 -1.3207  0.9246 -0.3539
  245MOL0     H33071   6.008   9.353   6.065 -0.5793 -0.3748 -0.4456
  245MOL0     H33072   5.994   9.268   6.219  2.4672  0.0434  1.0352
  245MOL0     H33073   6.038   9.016   5.871 -0.5422 -0.2060 -0.4001
  245MOL0     H33074   6.457   9.858   6.429  0.7436  1.8172 -0.1123
  245MOL0     H33075   6.565  10.024   6.307  2.7332 -0.5068 -1.0441
  246MOL0     O33076   0.076   6.225   4.531 -0.5803 -0.2991 -0.2554
  246MOL0     C33077   0.024   6.119   4.566  0.8129 -0.5808  0.6207
  246MOL0     O33078   0.072   5.995   4.547 -0.7221 -1.5699  0.0096
  246MOL0     C33079   0.199   5.986   4.489  0.8138  0.4146  0.7722
  246MOL0     C33080   0.217   5.931   4.360 -0.6843 -0.4693 -0.0561
  246MOL0     C33081   0.348   5.931   4.299 -0.6383 -0.7960 -1.1238
  246MOL0     C33082   0.464   5.992   4.367  0.3571  1.2905  0.0563
  246MOL0     O33083   0.588   5.994   4.311 -0.5308 -0.1439  0.1724
  246MOL0     C33084   0.618   5.907   4.197 -0.0126  0.9441  0.6457
  246MOL0     C33085   0.617   5.752   4.218 -0.0785 -0.5991  0.2207
  246MOL0     C33086   0.760   5.713   4.273  0.7054 -0.0980  0.1101
  246MOL0     C33087   0.788   5.760   4.411  0.2384 -0.2169 -1.2829
  246MOL0     C33088   0.872   5.897   4.426 -0.0115 -0.7664  0.2160
  246MOL0     C33089   0.900   5.907   4.580  1.3294 -1.5610  0.3276
  246MOL0     C33090   0.971   6.032   4.613  0.5442 -0.9209  0.8229
  246MOL0     C33091   1.097   6.060   4.523 -0.2422  1.2741 -0.1514
  246MOL0     N33092   1.172   6.174   4.579  0.3984 -0.2962  0.6237
  246MOL0     C33093   1.243   6.165   4.695  0.0542 -0.5352 -0.8628
  246MOL0     C33094   1.272   6.292   4.739  0.2874  0.5228 -0.6673
  246MOL0     C33095   1.326   6.325   4.874  0.1393  0.6650  0.5844
  246MOL0     C33096   1.243   6.434   4.957 -0.4694 -0.7513 -0.6249
  246MOL0     C33097   1.092   6.398   4.960 -0.0950  0.3477 -0.0228
  246MOL0     C33098   1.063   6.274   5.052  0.3406  0.0077 -0.8452
  246MOL0     O33099   1.139   6.271   5.174 -0.2509  0.3497 -0.1381
  246MOL0     C33100   1.071   6.332   5.279  1.0019  1.3357  0.1829
  246MOL0     C33101   1.124   6.432   5.359  1.0180  0.3495  1.0519
  246MOL0     C33102   1.070   6.474   5.486 -0.0348  0.4031  0.6339
  246MOL0     C33103   1.134   6.585   5.552  0.4953 -0.4694  0.2049
  246MOL0     C33104   0.949   6.416   5.522  0.3599  0.8580  0.4374
  246MOL0     C33105   0.867   6.462   5.636 -0.5647 -0.3419  0.4775
  246MOL0     O33106   0.749   6.410   5.644  0.3430  0.2985 -0.7524
  246MOL0     C33107   0.670   6.439   5.753 -0.2841  0.1116  0.4505
  246MOL0     C33108   0.535   6.423   5.729 -0.0200 -0.1644  0.8474
  246MOL0     C33109   0.440   6.455   5.825 -0.6914  0.7579 -0.0831
  246MOL0     C33110   0.475   6.494   5.955 -0.7947  0.0826 -0.5500
  246MOL0     O33111   0.393   6.507   6.063  0.3312  0.0166  0.9649
  246MOL0     C33112   0.261   6.557   6.042 -0.1900  0.3941 -0.2600
  246MOL0     C33113   0.259   6.700   6.066  0.0219  0.3639  0.3686
  246MOL0     C33114   0.284   6.732   6.208  0.7926 -0.0571 -0.4957
  246MOL0     C33115   0.216   6.862   6.245  0.6005 -1.1688  0.3255
  246MOL0     C33116   0.257   6.910   6.388  0.5384  0.3363 -0.2790
  246MOL0     C33117   0.219   7.056   6.410  0.1057 -0.8387 -0.8046
  246MOL0     C33118   0.264   7.093   6.547 -0.2143 -0.0082  0.1179
  246MOL0     C33119   0.278   7.246   6.564  0.2505 -0.1502  0.2053
  246MOL0    Cl33120   0.253   7.283   6.747  0.3932  0.2495  0.5240
  246MOL0     C33121   0.612   6.482   5.981  0.4877 -0.0966  0.0215
  246MOL0     C33122   0.713   6.461   5.883 -0.5846  0.4094 -0.3226
  246MOL0     O33123   0.916   6.560   5.693  0.1224 -1.0442  0.2762
  246MOL0     C33124   0.896   6.318   5.441 -0.1686 -0.2070 -0.6125
  246MOL0     C33125   0.948   6.278   5.323 -0.3811 -1.0281  1.1262
  246MOL0     N33126   1.221   6.377   4.641  0.3791  0.7068  0.0463
  246MOL0     N33127   1.156   6.305   4.556 -0.7724  0.2379  0.0771
  246MOL0     C33128   0.434   6.047   4.489 -0.5628 -0.8258  0.7858
  246MOL0     C33129   0.310   6.052   4.550 -0.7715  0.3070  0.2730
  246MOL0     C33130  -0.107   6.127   4.620 -0.5960  0.8514 -0.3834
  246MOL0     C33131  -0.180   6.007   4.622  0.1761  0.6778 -0.5657
  246MOL0     C33132  -0.315   6.003   4.653 -0.5747 -0.1228  1.0114
  246MOL0     C33133  -0.373   6.116   4.692 -0.3497  0.6169  0.3535
  246MOL0     O33134  -0.507   6.111   4.721  0.0962 -0.4631  0.5846
  246MOL0     C33135  -0.554   6.196   4.827  0.6139 -0.5037  1.2231
  246MOL0     C33136  -0.700   6.146   4.837  0.3879  1.3175  0.7927
  246MOL0     C33137  -0.787   6.255   4.916 -0.6224 -0.4479  0.0283
  246MOL0     C33138  -0.775   6.220   5.068 -0.3879 -0.6766  1.3828
  246MOL0     C33139  -0.788   6.333   5.153 -0.0549 -0.3546 -0.5512
  246MOL0     C33140  -0.807   6.424   5.226  1.0650  0.3989  0.9498
  246MOL0     C33141  -0.309   6.235   4.693 -1.0028 -0.0405  0.4893
  246MOL0     C33142  -0.174   6.249   4.660 -0.3889  1.2062 -0.2665
  246MOL0     H33143   0.132   5.900   4.301 -0.8056 -1.6299  0.6950
  246MOL0     H33144   0.356   5.906   4.194  0.5547 -2.0321 -0.7661
  246MOL0     H33145   0.549   5.932   4.117 -1.3650 -1.0344  1.1053
  246MOL0     H33146   0.715   5.938   4.159  0.5193 -3.1385 -1.9648
  246MOL0     H33147   0.540   5.722   4.290  1.0218  1.8620  2.5909
  246MOL0     H33148   0.588   5.709   4.122 -2.1111  0.6255  0.2387
  246MOL0     H33149   0.774   5.605   4.265  0.0094 -0.2202  0.4374
  246MOL0     H33150   0.840   5.756   4.213  2.0114 -2.2412  0.1938
  246MOL0     H33151   0.690   5.765   4.459  0.3672  1.2107 -1.1286
  246MOL0     H33152   0.851   5.684   4.458  1.6007 -1.2720 -4.5430
  246MOL0     H33153   0.963   5.902   4.366  1.5996  2.3582  2.6295
  246MOL0     H33154   0.806   5.983   4.406 -0.4911 -1.4498 -1.2660
  246MOL0     H33155   0.804   5.912   4.632  0.6433 -2.8340 -0.7562
  246MOL0     H33156   0.960   5.821   4.609  1.8164 -1.0434  0.8936
  246MOL0     H33157   0.913   6.124   4.599  3.1201  0.7397  0.2824
  246MOL0     H33158   0.993   6.034   4.720 -2.5063 -0.1441  1.5402
  246MOL0     H33159   1.068   6.074   4.418 -1.7728 -1.0804 -0.0980
  246MOL0     H33160   1.163   5.973   4.532  0.5464  1.9306  0.6214
  246MOL0     H33161   1.246   6.072   4.751 -1.8521  1.1401  2.3724
  246MOL0     H33162   1.328   6.229   4.927 -1.3695 -0.0316 -0.5326
  246MOL0     H33163   1.425   6.365   4.849 -0.3233  1.2567 -0.3526
  246MOL0     H33164   1.241   6.517   4.885 -0.8979  0.7867  1.0815
  246MOL0     H33165   1.280   6.463   5.056 -1.6714 -0.9774 -0.0984
  246MOL0     H33166   1.070   6.386   4.854  4.4208 -0.9717 -1.0427
  246MOL0     H33167   1.029   6.475   5.005  0.9129  2.0933 -1.4647
  246MOL0     H33168   1.085   6.188   4.988 -4.9331 -1.5020 -1.1283
  246MOL0     H33169   0.955   6.280   5.070  0.8217  1.0106  2.4684
  246MOL0     H33170   1.226   6.458   5.334  0.5742  1.1451 -0.0183
  246MOL0     H33171   1.230   6.610   5.506 -1.9132  2.4599 -3.8722
  246MOL0     H33172   1.064   6.669   5.541  0.0967 -0.8006  0.2206
  246MOL0     H33173   1.146   6.573   5.660 -0.2568  1.4991  0.5581
  246MOL0     H33174   0.515   6.386   5.629 -1.8593  1.2399  0.6410
  246MOL0     H33175   0.336   6.438   5.799 -0.8437 -4.0591  2.4585
  246MOL0     H33176   0.221   6.524   5.946  2.3540  1.2771 -1.7197
  246MOL0     H33177   0.187   6.522   6.113 -0.7392  3.6045  0.9409
  246MOL0     H33178   0.333   6.755   6.007 -0.5113  2.9300  1.9077
  246MOL0     H33179   0.161   6.737   6.033 -0.0494 -1.6688 -2.0059
  246MOL0     H33180   0.390   6.757   6.217  0.9689 -1.2346  0.9407
  246MOL0     H33181   0.254   6.648   6.270 -0.5593 -1.1128 -2.4793
  246MOL0     H33182   0.238   6.936   6.167 -0.3344 -1.4008 -0.1719
  246MOL0     H33183   0.107   6.856   6.243  0.4937 -1.7660 -4.3721
  246MOL0     H33184   0.366   6.900   6.388  0.3752 -1.9991  0.5006
  246MOL0     H33185   0.212   6.851   6.468 -2.9522  0.8627 -1.6367
  246MOL0     H33186   0.272   7.125   6.343 -1.1714 -1.0119 -2.0401
  246MOL0     H33187   0.114   7.078   6.393  0.3709 -0.4803 -2.1419
  246MOL0     H33188   0.358   7.046   6.576 -1.7045 -1.6177  2.7381
  246MOL0     H33189   0.183   7.056   6.610  0.1474  2.0392  1.9028
  246MOL0     H33190   0.205   7.300   6.504 -0.8577 -1.5972  0.2040
  246MOL0     H33191   0.376   7.291   6.547  0.2940  0.8301  2.6466
  246MOL0     H33192   0.640   6.482   6.086 -0.9447  1.8156  0.4476
  246MOL0     H33193   0.818   6.472   5.910 -1.0303  3.3290  0.5702
  246MOL0     H33194   0.795   6.289   5.468  0.2328 -0.8656  0.2168
  246MOL0     H33195   0.915   6.190   5.269 -1.5888  1.3039 -2.3040
  246MOL0     H33196   0.523   6.091   4.533 -0.6364  1.1389 -0.9023
  246MOL0     H33197   0.304   6.106   4.644 -2.1486 -1.9121  1.5581
  246MOL0     H33198  -0.137   5.911   4.594 -5.0347 -2.2325  0.0447
  246MOL0     H33199  -0.368   5.911   4.675 -1.8321 -0.5896 -3.1715
  246MOL0     H33200  -0.507   6.187   4.925  4.4789 -0.2987 -0.4539
  246MOL0     H33201  -0.548   6.302   4.802 -1.1458  0.1275  3.2116
  246MOL0     H33202  -0.716   6.045   4.876  0.1859  1.3247  0.7317
  246MOL0     H33203  -0.744   6.143   4.737 -0.8726  1.1545  1.3370
  246MOL0     H33204  -0.890   6.230   4.890  0.0961 -4.1055  0.1793
  246MOL0     H33205  -0.745   6.355   4.904 -0.5087 -0.5599 -0.4920
  246MOL0     H33206  -0.672   6.187   5.086 -0.4291 -1.5850  0.1321
  246MOL0     H33207  -0.843   6.140   5.096 -0.1268 -2.7728 -3.0950
  246MOL0     H33208  -0.834   6.502   5.295  0.5107  0.9801  0.1007
  246MOL0     H33209  -0.353   6.329   4.726  0.2262  1.2700 -1.3294
  246MOL0     H33210  -0.118   6.338   4.684  1.3742  0.2404 -0.6170
  247MOL0     O33211   3.191  10.983   1.713  0.2114 -0.1620 -0.0995
  247MOL0     C33212   3.245  10.885   1.665  1.1262 -0.3706 -0.3661
  247MOL0     O33213   3.368  10.848   1.690  0.0264  0.8607 -0.6430
  247MOL0     C33214   3.449  10.919   1.769 -1.1447 -0.2936 -0.1037
  247MOL0     C33215   3.442  10.921   1.911  0.0936  0.2402  0.7145
  247MOL0     C33216   3.534  10.986   1.988  0.3672  0.3331  0.2089
  247MOL0     C33217   3.649  11.049   1.932  0.8165 -0.6398 -0.3574
  247MOL0     O33218   3.731  11.117   2.011 -0.0654 -0.8632  0.2284
  247MOL0     C33219   3.851  11.184   1.960  0.1131 -0.0893 -0.8674
  247MOL0     C33220   3.931  11.243   2.082 -0.3068 -0.3255 -0.8968
  247MOL0     C33221   4.063  11.306   2.029  0.0008  0.5902 -0.8729
  247MOL0     C33222   4.153  11.335   2.140  0.3932  0.1854 -0.5810
  247MOL0     C33223   4.240  11.455   2.095  0.4929 -0.8534  0.3541
  247MOL0     C33224   4.362  11.471   2.178 -1.7121 -0.7102 -0.9259
  247MOL0     C33225   4.415  11.623   2.191  0.0790  0.8917 -0.3795
  247MOL0     C33226   4.545  11.608   2.279  0.8012 -0.0739 -0.2054
  247MOL0     N33227   4.652  11.522   2.238  1.3442  0.1490 -0.6847
  247MOL0     C33228   4.689  11.414   2.313 -0.1142  0.3172  0.0286
  247MOL0     C33229   4.783  11.361   2.224 -0.1703  0.1873 -0.1325
  247MOL0     C33230   4.868  11.244   2.261 -0.5056 -0.6629  0.0133
  247MOL0     C33231   4.981  11.265   2.357  0.6823  0.3815  0.8382
  247MOL0     C33232   5.029  11.420   2.353  0.2036  0.7024 -0.8447
  247MOL0     C33233   5.141  11.457   2.451 -0.1903 -0.5425 -0.2044
  247MOL0     O33234   5.080  11.479   2.582 -0.2074  0.3672  0.4264
  247MOL0     C33235   5.156  11.479   2.699 -0.8157  0.2606  0.6881
  247MOL0     C33236   5.295  11.493   2.698 -0.1589 -0.3592 -0.6834
  247MOL0     C33237   5.361  11.522   2.814  0.9249  0.3016  0.8380
  247MOL0     C33238   5.507  11.572   2.790  0.2850 -0.4898 -0.2184
  247MOL0     C33239   5.293  11.531   2.936  0.2349  0.1719  0.9579
  247MOL0     C33240   5.361  11.565   3.055 -0.3173  0.1920  0.2326
  247MOL0     O33241   5.280  11.625   3.150 -0.2197 -0.9412 -0.0640
  247MOL0     C33242   5.347  11.679   3.259 -0.4816 -0.5148 -0.2072
  247MOL0     C33243   5.433  11.790   3.248  0.1657  0.5618  0.0846
  247MOL0     C33244   5.493  11.855   3.355  0.4254  0.1824 -0.6368
  247MOL0     C33245   5.468  11.808   3.486  0.0789 -0.3440 -0.0442
  247MOL0     O33246   5.520  11.876   3.602  1.2833 -0.4035 -0.0493
  247MOL0     C33247   5.462  12.000   3.637  0.1568 -0.6645 -0.0591
  247MOL0     C33248   5.329  11.974   3.695 -0.2834 -0.4943 -0.3811
  247MOL0     C33249   5.258  12.103   3.750 -0.6623 -1.1144 -0.2075
  247MOL0     C33250   5.123  12.080   3.816 -0.2790 -0.2517 -0.3355
  247MOL0     C33251   5.068  12.214   3.862  0.4166  0.2832  0.5739
  247MOL0     C33252   4.932  12.215   3.934  0.6210 -0.3834  0.0827
  247MOL0     C33253   4.891  12.358   3.979 -0.1971 -0.3625 -0.0094
  247MOL0     C33254   4.902  12.459   3.866 -0.0086  0.1090 -0.6117
  247MOL0    Cl33255   4.819  12.614   3.916 -0.0743 -0.0222 -0.0402
  247MOL0     C33256   5.387  11.699   3.497  0.3083  0.4330  0.5825
  247MOL0     C33257   5.321  11.631   3.392 -0.3479 -0.0312 -0.0305
  247MOL0     O33258   5.477  11.516   3.079  0.1542  0.1694  0.8074
  247MOL0     C33259   5.161  11.506   2.939  0.2675  0.1378 -0.3840
  247MOL0     C33260   5.089  11.484   2.825 -0.8001  0.0497 -0.0254
  247MOL0     N33261   4.795  11.438   2.112 -0.1229 -0.0073  0.3219
  247MOL0     N33262   4.707  11.531   2.119  0.3011  0.3582  0.2464
  247MOL0     C33263   3.663  11.035   1.792  0.9437 -0.3050 -0.1869
  247MOL0     C33264   3.560  10.981   1.711 -0.1295  0.0207  0.1981
  247MOL0     C33265   3.164  10.810   1.571  0.5232  0.1875  0.3764
  247MOL0     C33266   3.228  10.725   1.474  0.6234  1.1120  0.3489
  247MOL0     C33267   3.146  10.651   1.399 -0.6706 -0.1497  0.3146
  247MOL0     C33268   3.006  10.668   1.396 -0.2761 -0.5081 -1.6821
  247MOL0     O33269   2.917  10.603   1.307 -0.3536 -0.4881 -0.3506
  247MOL0     C33270   2.958  10.532   1.188 -0.1814 -0.1346 -0.1101
  247MOL0     C33271   3.029  10.395   1.227 -0.1229  0.9009 -0.4601
  247MOL0     C33272   3.084  10.342   1.098  0.9242 -0.3501 -1.0687
  247MOL0     C33273   3.192  10.234   1.104  0.0100 -0.4880  0.0311
  247MOL0     C33274   3.316  10.307   1.138 -0.9777 -0.1957  0.6911
  247MOL0     C33275   3.424  10.353   1.169  0.6901 -0.2720  0.6577
  247MOL0     C33276   2.948  10.761   1.478  0.1431 -0.0610 -0.5856
  247MOL0     C33277   3.024  10.816   1.573 -0.2842  0.1625 -0.3359
  247MOL0     H33278   3.352  10.883   1.957  0.2301  0.0674  0.8386
  247MOL0     H33279   3.526  10.989   2.096  0.2824  1.6219  0.1760
  247MOL0     H33280   3.923  11.119   1.910 -0.8589  0.2858 -2.9018
  247MOL0     H33281   3.813  11.258   1.888 -0.0359 -1.4745 -2.2661
  247MOL0     H33282   3.880  11.330   2.125  3.1865  0.8405  1.2932
  247MOL0     H33283   3.946  11.171   2.163 -3.6439 -0.6729 -0.4408
  247MOL0     H33284   4.115  11.226   1.976 -0.9768 -0.8866  0.3362
  247MOL0     H33285   4.031  11.396   1.975 -2.1470 -0.9086 -2.2416
  247MOL0     H33286   4.101  11.377   2.226  1.8538 -0.9532  0.9073
  247MOL0     H33287   4.207  11.244   2.166  0.5322  0.8300  1.5923
  247MOL0     H33288   4.274  11.457   1.991  3.5599  0.2244  1.2749
  247MOL0     H33289   4.174  11.538   2.123  1.4235 -0.5481  1.7651
  247MOL0     H33290   4.334  11.431   2.276 -1.6355 -0.9275 -0.9906
  247MOL0     H33291   4.440  11.408   2.134  0.0692  2.6308 -3.0002
  247MOL0     H33292   4.446  11.673   2.099 -2.4231  3.0201 -0.1579
  247MOL0     H33293   4.341  11.692   2.232 -1.0043  1.0228 -2.4599
  247MOL0     H33294   4.521  11.578   2.381  0.7635  1.0282  0.1239
  247MOL0     H33295   4.599  11.702   2.292  2.2971 -0.4710 -2.7593
  247MOL0     H33296   4.670  11.385   2.416 -3.0970  2.5919  0.2564
  247MOL0     H33297   4.807  11.166   2.307 -1.3506 -0.2385 -0.3702
  247MOL0     H33298   4.906  11.192   2.173 -1.7140 -0.5212 -0.6087
  247MOL0     H33299   5.070  11.211   2.326 -0.3758 -0.8624 -0.1263
  247MOL0     H33300   4.956  11.236   2.459  0.7026 -1.9831  0.2320
  247MOL0     H33301   4.952  11.495   2.370 -0.7195 -0.0794 -1.4764
  247MOL0     H33302   5.067  11.435   2.251  1.4900 -1.2315 -0.6989
  247MOL0     H33303   5.183  11.555   2.428 -0.8109  0.8696  3.8799
  247MOL0     H33304   5.219  11.379   2.450  3.0929  2.5070 -1.1096
  247MOL0     H33305   5.345  11.491   2.602 -0.3736 -0.8827 -0.7847
  247MOL0     H33306   5.523  11.655   2.859  1.4207 -0.3702 -0.6000
  247MOL0     H33307   5.580  11.494   2.813 -0.9706 -1.4580  0.5608
  247MOL0     H33308   5.539  11.602   2.689  1.1347 -0.8503 -0.0593
  247MOL0     H33309   5.454  11.842   3.155  0.0345  2.1894  0.9301
  247MOL0     H33310   5.560  11.940   3.350 -0.0107  0.5586 -0.1587
  247MOL0     H33311   5.523  12.049   3.714 -4.0796  2.9051  1.4493
  247MOL0     H33312   5.451  12.075   3.557 -1.9887 -0.3757  0.4306
  247MOL0     H33313   5.260  11.928   3.623 -3.2226 -0.7009  2.3460
  247MOL0     H33314   5.354  11.904   3.775  0.7433 -0.1628 -0.4049
  247MOL0     H33315   5.263  12.183   3.676  1.6233 -2.5732 -1.7810
  247MOL0     H33316   5.330  12.145   3.821  0.1431 -1.0598 -1.0474
  247MOL0     H33317   5.056  12.036   3.741 -0.2556  0.9659 -1.1002
  247MOL0     H33318   5.141  12.012   3.900  1.3797 -0.3595 -0.7435
  247MOL0     H33319   5.076  12.282   3.776 -0.0274 -0.3453  0.0196
  247MOL0     H33320   5.136  12.262   3.932 -1.3960  0.3162  2.3958
  247MOL0     H33321   4.862  12.164   3.866  0.4730  1.2992 -1.0746
  247MOL0     H33322   4.939  12.148   4.020 -1.5502  0.3741  0.9058
  247MOL0     H33323   4.970  12.386   4.050 -1.0947 -2.5782  2.0161
  247MOL0     H33324   4.794  12.351   4.028 -1.1464 -3.2968 -2.0420
  247MOL0     H33325   4.848  12.422   3.778 -1.4594  2.0108 -0.5937
  247MOL0     H33326   5.008  12.481   3.853  0.1154  2.7622  3.1328
  247MOL0     H33327   5.367  11.673   3.601 -1.8514  1.9634  0.6061
  247MOL0     H33328   5.269  11.538   3.412 -0.4392 -0.3063 -1.4196
  247MOL0     H33329   5.107  11.534   3.028 -1.5166  1.8494 -1.9185
  247MOL0     H33330   4.983  11.469   2.837 -0.5038 -0.0934  3.9133
  247MOL0     H33331   3.751  11.067   1.739 -0.5493  0.0931 -2.5675
  247MOL0     H33332   3.584  10.956   1.608 -0.3544 -2.0166  0.5960
  247MOL0     H33333   3.335  10.719   1.460  0.5740 -1.0000  0.5528
  247MOL0     H33334   3.205  10.594   1.328 -2.3328 -0.2766 -1.0100
  247MOL0     H33335   2.870  10.514   1.125 -2.1894  0.7156  2.2984
  247MOL0     H33336   3.023  10.586   1.118 -1.6756  0.7007 -0.8996
  247MOL0     H33337   2.958  10.319   1.262 -0.9739  0.4718 -2.8836
  247MOL0     H33338   3.110  10.410   1.298 -0.0992 -1.8394  0.1955
  247MOL0     H33339   3.118  10.426   1.037  2.4115  0.5250  0.8641
  247MOL0     H33340   2.993  10.290   1.066  1.2840 -1.2291 -0.6900
  247MOL0     H33341   3.196  10.180   1.010 -1.5403 -0.8338  0.1492
  247MOL0     H33342   3.181  10.164   1.187 -0.8774 -0.4129 -0.0142
  247MOL0     H33343   3.523  10.391   1.187  1.7762 -1.5230 -2.0627
  247MOL0     H33344   2.843  10.787   1.480  0.4849  1.3589  0.7486
  247MOL0     H33345   2.982  10.889   1.642  0.3988 -0.4221  0.7256
  248MOL0     O33346   0.433   6.390   1.561 -0.0028 -0.4625  0.1926
  248MOL0     C33347   0.551   6.381   1.531  0.1357  0.0353 -0.8784
  248MOL0     O33348   0.638   6.492   1.521  0.7264 -0.0056 -0.6277
  248MOL0     C33349   0.601   6.622   1.560 -0.0964  0.3879 -0.6379
  248MOL0     C33350   0.648   6.733   1.495 -0.1593 -0.1696  0.8414
  248MOL0     C33351   0.615   6.864   1.525 -0.7050  0.4213  0.3179
  248MOL0     C33352   0.536   6.893   1.634 -0.3860 -0.0911  0.6839
  248MOL0     O33353   0.498   7.019   1.665  0.1619 -0.3404  0.5561
  248MOL0     C33354   0.392   7.073   1.590  1.6791  0.1875 -0.4813
  248MOL0     C33355   0.435   7.203   1.517 -0.1076 -0.3619 -0.1672
  248MOL0     C33356   0.338   7.333   1.547 -1.0097  0.8530 -0.0465
  248MOL0     C33357   0.402   7.459   1.475 -0.5647 -0.1354 -0.4409
  248MOL0     C33358   0.308   7.540   1.392  0.6159 -0.1979 -0.0980
  248MOL0     C33359   0.193   7.597   1.475 -0.1457 -0.4063 -0.0608
  248MOL0     C33360   0.235   7.723   1.555 -0.7034 -0.4274  0.1535
  248MOL0     C33361   0.140   7.767   1.663  0.5233 -0.2942 -0.3603
  248MOL0     N33362   0.120   7.661   1.762 -0.0610 -0.1139  0.6684
  248MOL0     C33363   0.209   7.633   1.867 -0.3868  0.4141  0.6526
  248MOL0     C33364   0.167   7.522   1.917  0.5808  0.6808 -0.0825
  248MOL0     C33365   0.227   7.440   2.026 -0.0657 -0.3190 -0.6610
  248MOL0     C33366   0.166   7.480   2.161 -0.0306 -0.2575 -0.3393
  248MOL0     C33367   0.165   7.632   2.176 -0.1238 -0.4084  0.5941
  248MOL0     C33368   0.132   7.681   2.319 -0.3596  0.3731 -0.4961
  248MOL0     O33369   0.017   7.603   2.367  0.6199 -0.6534  0.9931
  248MOL0     C33370  -0.066   7.658   2.466 -0.1252 -0.4381  0.7458
  248MOL0     C33371  -0.035   7.623   2.590  0.2253  0.2282 -0.1911
  248MOL0     C33372  -0.092   7.691   2.700  0.5124 -0.6794 -0.3845
  248MOL0     C33373  -0.059   7.625   2.828 -0.2595 -0.2367  0.3067
  248MOL0     C33374  -0.196   7.777   2.679 -0.2767  0.0550 -0.5568
  248MOL0     C33375  -0.284   7.837   2.792  0.2388  1.1638  0.1988
  248MOL0     O33376  -0.377   7.939   2.758  0.4164 -0.0164  0.6971
  248MOL0     C33377  -0.473   7.972   2.848 -1.2444 -0.7801 -0.2150
  248MOL0     C33378  -0.517   8.106   2.851  0.2282 -0.6759  0.6779
  248MOL0     C33379  -0.609   8.139   2.952 -0.3035 -1.2864 -0.1237
  248MOL0     C33380  -0.662   8.046   3.046 -0.1795 -0.3014  0.0607
  248MOL0     O33381  -0.746   8.091   3.147 -0.1284 -0.3579  0.2874
  248MOL0     C33382  -0.798   8.224   3.148 -0.3016  0.8334 -0.2575
  248MOL0     C33383  -0.913   8.253   3.053  0.7405  0.0547  0.8364
  248MOL0     C33384  -0.928   8.405   3.008  0.2731 -0.3196 -0.6112
  248MOL0     C33385  -1.008   8.491   3.113  0.0776  0.4002  0.3113
  248MOL0     C33386  -0.981   8.640   3.068  0.1596  0.3105 -0.1128
  248MOL0     C33387  -1.035   8.734   3.175  0.9520 -0.7220  0.5685
  248MOL0     C33388  -0.974   8.724   3.317  0.3411 -0.1887  0.3769
  248MOL0     C33389  -1.053   8.789   3.429  0.6657  0.3267 -0.5120
  248MOL0    Cl33390  -1.108   8.955   3.382  0.2289 -0.4301 -0.1447
  248MOL0     C33391  -0.633   7.919   3.043 -0.9616  0.7583  0.9195
  248MOL0     C33392  -0.533   7.880   2.940  0.2875 -0.2348 -0.0404
  248MOL0     O33393  -0.245   7.820   2.901  0.0744  0.3650 -0.2528
  248MOL0     C33394  -0.250   7.794   2.549 -0.1127  0.8332 -0.9442
  248MOL0     C33395  -0.181   7.742   2.436  0.8393  0.3703  0.4066
  248MOL0     N33396   0.052   7.473   1.857  0.3453 -0.4955 -0.3126
  248MOL0     N33397   0.027   7.557   1.759 -0.8209 -0.3006 -0.0690
  248MOL0     C33398   0.491   6.786   1.712  0.3530  0.0935  1.2760
  248MOL0     C33399   0.519   6.655   1.671 -0.4597  0.5032 -0.1225
  248MOL0     C33400   0.622   6.246   1.511 -0.3118 -0.1428 -0.4952
  248MOL0     C33401   0.751   6.230   1.466 -0.4374 -0.9195 -0.4781
  248MOL0     C33402   0.806   6.109   1.433  0.7424  1.1155 -1.1369
  248MOL0     C33403   0.730   5.997   1.456 -0.3437  0.2974 -0.3542
  248MOL0     O33404   0.787   5.868   1.434 -0.1761 -0.0016 -0.4008
  248MOL0     C33405   0.848   5.844   1.304 -0.5086 -0.0843 -0.2746
  248MOL0     C33406   0.915   5.713   1.287 -0.3639 -0.1453 -0.7096
  248MOL0     C33407   0.817   5.606   1.263 -0.7828  0.2427 -1.1571
  248MOL0     C33408   0.886   5.477   1.318 -1.0967  0.4745 -0.1266
  248MOL0     C33409   0.784   5.371   1.313  0.2209  1.0136 -0.5128
  248MOL0     C33410   0.692   5.291   1.297 -1.0412 -0.0609  0.0902
  248MOL0     C33411   0.597   6.006   1.501  0.3471  0.7170 -0.8291
  248MOL0     C33412   0.546   6.132   1.529 -0.8027 -0.0830  0.2531
  248MOL0     H33413   0.717   6.709   1.415  2.6543 -0.6155  3.2112
  248MOL0     H33414   0.654   6.941   1.460 -0.2332  1.8562  2.1914
  248MOL0     H33415   0.362   7.011   1.506  0.6831  2.1335 -1.6527
  248MOL0     H33416   0.297   7.084   1.644 -0.0069 -1.1333 -2.9878
  248MOL0     H33417   0.539   7.227   1.541  0.1729 -1.7467  0.1300
  248MOL0     H33418   0.424   7.181   1.411  0.8436  1.7336 -0.7462
  248MOL0     H33419   0.240   7.305   1.506  0.0089 -0.1856 -1.9129
  248MOL0     H33420   0.315   7.339   1.653 -1.7451 -0.9356 -0.0588
  248MOL0     H33421   0.445   7.533   1.543 -4.4770  2.1901 -0.1514
  248MOL0     H33422   0.476   7.418   1.407 -1.0459  1.4095 -1.9746
  248MOL0     H33423   0.360   7.621   1.340  1.7790  0.1355  1.4836
  248MOL0     H33424   0.257   7.479   1.318 -0.1596  0.7558 -0.3564
  248MOL0     H33425   0.105   7.624   1.416  0.8264  2.0450 -0.5106
  248MOL0     H33426   0.158   7.525   1.549 -0.5440  1.6286  1.8443
  248MOL0     H33427   0.331   7.716   1.607 -0.9525  1.4779  0.9478
  248MOL0     H33428   0.259   7.812   1.497  2.2043 -0.5505  0.9941
  248MOL0     H33429   0.060   7.801   1.596  0.7874  1.1109 -0.0081
  248MOL0     H33430   0.178   7.860   1.708 -3.1214  2.6959 -2.8081
  248MOL0     H33431   0.297   7.688   1.897 -1.4131  2.3737  0.2697
  248MOL0     H33432   0.206   7.334   2.007 -2.1597 -0.2819  1.0347
  248MOL0     H33433   0.335   7.455   2.034 -0.0958  0.0298 -0.8878
  248MOL0     H33434   0.222   7.432   2.243  1.4971  0.9901 -0.5957
  248MOL0     H33435   0.063   7.445   2.167 -0.1444  0.2125  3.6227
  248MOL0     H33436   0.097   7.676   2.103 -0.3842 -1.2341  0.3287
  248MOL0     H33437   0.260   7.680   2.149 -1.4285  1.9694 -0.0996
  248MOL0     H33438   0.105   7.787   2.313  0.1543  0.6217  1.1372
  248MOL0     H33439   0.215   7.661   2.387 -0.6796  1.4769  0.2379
  248MOL0     H33440   0.050   7.560   2.614 -0.8229 -0.4499  2.1214
  248MOL0     H33441   0.008   7.689   2.886 -1.5739  1.0614  0.4715
  248MOL0     H33442  -0.151   7.595   2.880 -0.8859  1.4599  0.2280
  248MOL0     H33443  -0.002   7.534   2.811  2.1170  1.0338  1.0871
  248MOL0     H33444  -0.486   8.179   2.777 -3.0014 -1.0493 -1.2481
  248MOL0     H33445  -0.650   8.239   2.961  0.1571 -1.0331 -0.7824
  248MOL0     H33446  -0.838   8.243   3.248 -2.7716  2.8776 -1.5096
  248MOL0     H33447  -0.723   8.302   3.132 -1.1209  1.3672 -1.6773
  248MOL0     H33448  -0.902   8.182   2.971  1.5984 -1.4133  2.1743
  248MOL0     H33449  -0.992   8.219   3.122  2.2398  1.4632  3.4225
  248MOL0     H33450  -1.003   8.412   2.928 -3.9594 -1.2044  2.9427
  248MOL0     H33451  -0.834   8.447   2.971  0.9376 -0.0191  1.3512
  248MOL0     H33452  -1.111   8.455   3.127 -0.1204  1.6448  2.5597
  248MOL0     H33453  -0.964   8.474   3.212 -0.7480 -3.2054  0.2000
  248MOL0     H33454  -1.033   8.660   2.974  2.0309 -3.2024 -2.1343
  248MOL0     H33455  -0.876   8.668   3.074  0.4904 -0.4250 -1.8601
  248MOL0     H33456  -1.016   8.837   3.143 -1.3326 -1.1301 -2.5361
  248MOL0     H33457  -1.144   8.731   3.184  1.1351 -1.8060  5.3449
  248MOL0     H33458  -0.874   8.767   3.305  0.3350 -0.2101  0.2528
  248MOL0     H33459  -0.959   8.619   3.346  0.3060  0.2041  1.9217
  248MOL0     H33460  -0.995   8.791   3.522  0.2420 -3.3394 -0.0350
  248MOL0     H33461  -1.146   8.737   3.450  1.3332 -0.8396 -0.3705
  248MOL0     H33462  -0.672   7.860   3.125 -1.0126 -0.7936 -0.1710
  248MOL0     H33463  -0.481   7.785   2.947  0.4208 -0.3019 -1.5000
  248MOL0     H33464  -0.341   7.850   2.531  0.0068  1.7042  0.9568
  248MOL0     H33465  -0.204   7.755   2.331 -0.6619  0.9458  0.7769
  248MOL0     H33466   0.427   6.805   1.797 -0.2028 -2.1450  1.4151
  248MOL0     H33467   0.478   6.583   1.741 -2.2454  1.1456 -0.4477
  248MOL0     H33468   0.815   6.317   1.463 -0.3639 -0.9800 -0.6618
  248MOL0     H33469   0.904   6.090   1.390  2.4013  0.0571  2.6811
  248MOL0     H33470   0.772   5.845   1.226 -0.4772 -2.6741 -0.4218
  248MOL0     H33471   0.917   5.923   1.277 -0.4234  0.3166  1.0146
  248MOL0     H33472   0.982   5.702   1.373 -1.7739  0.2886  0.4815
  248MOL0     H33473   0.979   5.712   1.198 -1.2433 -1.6645 -1.3732
  248MOL0     H33474   0.785   5.576   1.164 -0.1352 -3.7242 -0.3272
  248MOL0     H33475   0.717   5.627   1.301 -0.7045 -0.8637 -0.2525
  248MOL0     H33476   0.907   5.491   1.424 -2.8362  2.3471  0.0363
  248MOL0     H33477   0.975   5.447   1.262  0.4559 -0.2626  2.5852
  248MOL0     H33478   0.627   5.210   1.271  0.0341 -0.6258 -0.9771
  248MOL0     H33479   0.530   5.921   1.511 -0.6863  1.3743 -1.8992
  248MOL0     H33480   0.452   6.151   1.579 -2.6962 -3.2690 -1.7256
  249MOL0     O33481   7.437   9.738  10.667 -0.0028 -0.3962 -0.0461
  249MOL0     C33482   7.388   9.628  10.660  0.4931  0.5469  0.2445
  249MOL0     O33483   7.423   9.531  10.576  0.5557  0.5747 -0.1066
  249MOL0     C33484   7.517   9.556  10.477  0.7034  1.3975  0.0805
  249MOL0     C33485   7.633   9.480  10.471  0.2840  0.3562  0.3640
  249MOL0     C33486   7.734   9.493  10.374 -0.4346  0.1011  0.1212
  249MOL0     C33487   7.714   9.593  10.276 -0.1389 -0.0236 -1.3586
  249MOL0     O33488   7.808   9.600  10.173  0.3542  0.2012  0.0063
  249MOL0     C33489   7.800   9.722  10.087  0.3870 -0.2855 -0.3945
  249MOL0     C33490   7.896   9.720   9.971 -0.7365 -0.3569 -0.1474
  249MOL0     C33491   7.866   9.811   9.857 -0.1642 -0.1059  0.4730
  249MOL0     C33492   7.950   9.763   9.734 -0.3204  0.0863  0.0147
  249MOL0     C33493   7.904   9.818   9.601 -0.9966  0.2874 -1.4094
  249MOL0     C33494   8.009   9.787   9.490  0.2861  1.2125  0.3760
  249MOL0     C33495   8.109   9.906   9.479  0.2070  0.3118 -0.7933
  249MOL0     C33496   8.214   9.895   9.377 -0.2521 -0.0830 -0.7415
  249MOL0     N33497   8.161   9.896   9.238 -0.1747  0.9612 -0.2708
  249MOL0     C33498   8.140   9.992   9.145 -0.0833 -0.9390  0.2731
  249MOL0     C33499   8.084   9.934   9.034 -0.4295 -0.9442 -0.0671
  249MOL0     C33500   8.014  10.011   8.923 -0.2006 -1.1089  0.0199
  249MOL0     C33501   8.112  10.050   8.815 -0.1971  0.5880 -0.2755
  249MOL0     C33502   8.152   9.922   8.744  0.3243 -0.5725  0.6926
  249MOL0     C33503   8.202   9.961   8.595  0.1988  0.0095  0.2222
  249MOL0     O33504   8.304  10.064   8.601  0.1496  0.7281  0.0458
  249MOL0     C33505   8.350  10.117   8.482  1.4750 -0.5546 -0.5746
  249MOL0     C33506   8.443  10.214   8.493 -0.4502 -0.3169 -0.4080
  249MOL0     C33507   8.502  10.280   8.383  0.2768 -1.1247  0.5276
  249MOL0     C33508   8.576  10.410   8.430  0.0136 -0.8098  0.5412
  249MOL0     C33509   8.459  10.248   8.254 -1.1557  0.0355  1.7416
  249MOL0     C33510   8.513  10.318   8.131 -0.5221  0.4337  1.9964
  249MOL0     O33511   8.451  10.283   8.013 -0.4176 -0.9796 -0.8347
  249MOL0     C33512   8.516  10.323   7.902 -0.6914 -0.2589 -0.0295
  249MOL0     C33513   8.637  10.263   7.869 -0.3415 -0.3623  0.5783
  249MOL0     C33514   8.706  10.327   7.760  1.1771  0.0162  0.6541
  249MOL0     C33515   8.642  10.423   7.674 -0.5563  0.2901 -0.6219
  249MOL0     O33516   8.720  10.470   7.565 -0.2998 -0.5959 -0.1468
  249MOL0     C33517   8.674  10.587   7.490  0.3008  0.6190  0.4096
  249MOL0     C33518   8.586  10.566   7.372  0.1978  0.9001  0.3312
  249MOL0     C33519   8.656  10.503   7.252 -0.7460 -1.4889  0.6171
  249MOL0     C33520   8.763  10.602   7.189 -1.1807  0.1194  0.4808
  249MOL0     C33521   8.777  10.570   7.039  0.1443  0.1728  0.4034
  249MOL0     C33522   8.904  10.626   6.971 -1.0364 -1.2239  0.7024
  249MOL0     C33523   8.921  10.776   6.970  0.0427 -0.5467  0.4876
  249MOL0     C33524   9.052  10.810   6.903  0.2082 -0.4915  0.8602
  249MOL0    Cl33525   9.042  10.989   6.908 -0.2231  0.6102 -0.0532
  249MOL0     C33526   8.517  10.481   7.704  0.2932 -0.4852 -1.2073
  249MOL0     C33527   8.455  10.430   7.822 -1.1204 -0.4168 -0.4135
  249MOL0     O33528   8.603  10.398   8.141 -0.5013  0.3384 -0.1752
  249MOL0     C33529   8.355  10.149   8.245 -0.4314  0.2499 -0.6002
  249MOL0     C33530   8.305  10.080   8.352 -0.2471  0.2122 -0.2680
  249MOL0     N33531   8.077   9.798   9.053 -0.0379 -0.2327 -0.0062
  249MOL0     N33532   8.131   9.781   9.178 -0.1715 -0.1464 -0.2383
  249MOL0     C33533   7.609   9.686  10.295 -0.5410 -0.1095  0.2018
  249MOL0     C33534   7.508   9.666  10.388 -0.6917  0.3465  1.0375
  249MOL0     C33535   7.280   9.602  10.757  0.1636  0.1366  0.0068
  249MOL0     C33536   7.244   9.686  10.863  0.4078  0.4593  0.2480
  249MOL0     C33537   7.153   9.642  10.965 -0.3001 -0.7846 -0.5662
  249MOL0     C33538   7.085   9.517  10.952 -0.1645 -0.0273  0.1311
  249MOL0     O33539   6.987   9.476  11.033  0.8567 -0.0629 -0.0307
  249MOL0     C33540   6.993   9.518  11.175  0.4927 -1.1676  0.1020
  249MOL0     C33541   6.898   9.420  11.243 -0.6678  0.2054  1.6362
  249MOL0     C33542   6.904   9.436  11.389  0.0872  0.6094 -0.3186
  249MOL0     C33543   6.834   9.341  11.488 -0.4448 -0.2588 -0.5962
  249MOL0     C33544   6.856   9.384  11.630  0.3982  0.6383  0.8943
  249MOL0     C33545   6.864   9.395  11.753 -0.3513 -0.2666  0.0182
  249MOL0     C33546   7.119   9.430  10.848  0.2616  0.0766  1.0081
  249MOL0     C33547   7.213   9.474  10.758 -0.7326  0.0954  0.4221
  249MOL0     H33548   7.634   9.392  10.535 -1.0948 -0.4446 -0.6691
  249MOL0     H33549   7.820   9.427  10.373 -1.7559 -1.8643  2.7737
  249MOL0     H33550   7.703   9.761  10.056  1.3744  1.6407 -1.2792
  249MOL0     H33551   7.832   9.798  10.160 -2.8853  1.4026 -0.5326
  249MOL0     H33552   7.995   9.752  10.006 -1.0394  1.0678 -0.5587
  249MOL0     H33553   7.909   9.615   9.943  2.2596 -0.0071 -0.4695
  249MOL0     H33554   7.760   9.800   9.833  0.1976  0.7682 -1.6682
  249MOL0     H33555   7.894   9.914   9.880 -1.3202 -0.4145  3.8825
  249MOL0     H33556   8.052   9.796   9.755 -0.4840  0.1351  0.7649
  249MOL0     H33557   7.948   9.654   9.745  0.5995  0.2243  1.8996
  249MOL0     H33558   7.807   9.772   9.579 -0.4859 -0.6477 -1.7721
  249MOL0     H33559   7.891   9.926   9.610  0.2993  0.3372  0.3057
  249MOL0     H33560   8.058   9.690   9.501  1.1394  1.1348 -2.8725
  249MOL0     H33561   7.964   9.775   9.391 -0.8401  1.2169  0.8747
  249MOL0     H33562   8.062  10.003   9.464 -0.8016  0.3197  1.7890
  249MOL0     H33563   8.156   9.908   9.578  1.0431 -1.0429 -1.1325
  249MOL0     H33564   8.280   9.812   9.402 -0.5755 -0.6098 -1.5890
  249MOL0     H33565   8.272   9.988   9.383  1.5664 -1.1662 -0.9492
  249MOL0     H33566   8.164  10.097   9.159  2.7145 -1.2173 -1.7753
  249MOL0     H33567   7.928   9.955   8.886 -0.2468  1.0249 -3.5880
  249MOL0     H33568   7.977  10.097   8.980 -2.1187 -0.4656 -2.0501
  249MOL0     H33569   8.197  10.089   8.872  0.1427  2.1746 -1.7652
  249MOL0     H33570   8.081  10.129   8.745  3.0287  0.3478 -2.2108
  249MOL0     H33571   8.062   9.862   8.735 -0.5594  0.6850  0.8111
  249MOL0     H33572   8.232   9.864   8.792  3.9905  2.4017 -1.2533
  249MOL0     H33573   8.115  10.003   8.544  0.7452  0.7646 -0.1142
  249MOL0     H33574   8.247   9.872   8.551  4.0354  1.9652 -0.2366
  249MOL0     H33575   8.464  10.247   8.594  1.0557  2.1006 -1.4195
  249MOL0     H33576   8.680  10.380   8.413 -0.2777 -0.2148 -2.9761
  249MOL0     H33577   8.549  10.491   8.362  1.5567  0.6727  1.6065
  249MOL0     H33578   8.577  10.430   8.538  2.5148  0.6362  0.3264
  249MOL0     H33579   8.691  10.189   7.927  3.6264  0.8723 -1.2689
  249MOL0     H33580   8.803  10.299   7.719  0.3721  0.4684 -1.7425
  249MOL0     H33581   8.618  10.647   7.563 -2.6934 -0.3673 -0.9078
  249MOL0     H33582   8.766  10.636   7.458  0.0624  0.1941 -1.0001
  249MOL0     H33583   8.500  10.505   7.399  1.7041  0.0936  4.0582
  249MOL0     H33584   8.565  10.671   7.352  3.8890  1.0993 -3.9660
  249MOL0     H33585   8.572  10.497   7.181 -3.3736  0.7866  3.2720
  249MOL0     H33586   8.709  10.408   7.263  1.1026 -0.5531  0.1866
  249MOL0     H33587   8.750  10.708   7.209  4.2366  0.9600  1.2008
  249MOL0     H33588   8.861  10.586   7.235 -0.8787  2.3051  0.6820
  249MOL0     H33589   8.701  10.631   6.988  1.5988 -0.0802 -2.2391
  249MOL0     H33590   8.755  10.464   7.022  2.7843 -0.4079  0.2424
  249MOL0     H33591   8.998  10.581   7.003 -1.4691 -1.3966  1.7697
  249MOL0     H33592   8.890  10.612   6.863 -0.2074  4.1619 -0.3805
  249MOL0     H33593   8.917  10.811   7.074  1.8161  0.1596  0.3447
  249MOL0     H33594   8.840  10.833   6.924  0.7472  1.1750  1.2888
  249MOL0     H33595   9.042  10.780   6.798 -2.3245 -1.7954  1.3791
  249MOL0     H33596   9.144  10.769   6.945  0.9403 -0.7726 -0.9491
  249MOL0     H33597   8.453  10.554   7.655 -0.5936 -0.1376  0.4047
  249MOL0     H33598   8.360  10.472   7.853 -1.6967 -1.0904 -1.2085
  249MOL0     H33599   8.316  10.142   8.144 -0.1309  0.0391 -0.7037
  249MOL0     H33600   8.225  10.010   8.331  1.2826 -0.6705 -3.9140
  249MOL0     H33601   7.611   9.788  10.257 -1.2600  0.5552  1.8488
  249MOL0     H33602   7.416   9.724  10.395 -1.4802 -0.5788 -0.8189
  249MOL0     H33603   7.297   9.780  10.868  3.6947 -0.8922 -3.7222
  249MOL0     H33604   7.103   9.703  11.039 -4.4091 -2.9790 -1.2796
  249MOL0     H33605   7.089   9.507  11.227 -1.0739 -1.0432  3.2687
  249MOL0     H33606   6.948   9.617  11.186 -0.4522 -1.6070  0.3235
  249MOL0     H33607   6.939   9.322  11.220 -1.0963  0.2909  0.4258
  249MOL0     H33608   6.800   9.449  11.202 -0.7529 -0.8149  1.0869
  249MOL0     H33609   6.856   9.533  11.405  1.3709  1.1964  0.1659
  249MOL0     H33610   7.010   9.423  11.416  1.0017  3.0898 -2.2910
  249MOL0     H33611   6.883   9.244  11.492  0.7226  0.2777 -1.2936
  249MOL0     H33612   6.729   9.322  11.466 -0.7220 -0.5186  0.8929
  249MOL0     H33613   6.860   9.385  11.860 -0.6111 -0.6657 -0.0281
  249MOL0     H33614   7.075   9.331  10.846  1.8692 -0.7119 -1.6993
  249MOL0     H33615   7.249   9.393  10.695 -1.0297 -2.0213  2.7847
  250MOL0     O33616   7.166   5.680   7.720  0.3505  0.2833  1.0365
  250MOL0     C33617   7.059   5.726   7.743  0.8530  0.7348 -0.0200
  250MOL0     O33618   7.023   5.776   7.863 -0.1042 -0.3909  0.4726
  250MOL0     C33619   7.113   5.816   7.951  0.3328  0.2664 -1.3060
  250MOL0     C33620   7.139   5.951   7.975  0.4914 -0.8298  0.3745
  250MOL0     C33621   7.239   5.980   8.063 -0.4727 -1.4045  0.1300
  250MOL0     C33622   7.318   5.891   8.134  0.3587 -0.0079  0.2960
  250MOL0     O33623   7.410   5.936   8.226 -0.5144 -0.0358  0.5649
  250MOL0     C33624   7.459   5.851   8.332 -0.4415 -0.0270 -0.4680
  250MOL0     C33625   7.565   5.927   8.420  0.5057 -0.6992 -0.9358
  250MOL0     C33626   7.490   6.018   8.529  0.7489  0.3724 -0.2174
  250MOL0     C33627   7.585   6.126   8.567  1.0857  0.1768  0.3800
  250MOL0     C33628   7.530   6.247   8.641  0.6134 -0.0689 -0.1914
  250MOL0     C33629   7.492   6.224   8.790  0.4030 -0.1778 -1.0186
  250MOL0     C33630   7.506   6.342   8.895 -1.4212 -0.4034 -0.5631
  250MOL0     C33631   7.453   6.475   8.845  0.4076  0.2001  1.0680
  250MOL0     N33632   7.317   6.484   8.797 -0.7661  0.0691  0.7183
  250MOL0     C33633   7.216   6.521   8.885  0.2629 -0.5049  0.2571
  250MOL0     C33634   7.126   6.598   8.815 -0.3782 -0.1196  0.4245
  250MOL0     C33635   7.008   6.669   8.863 -0.1621 -0.6852  0.2100
  250MOL0     C33636   6.911   6.570   8.929  0.8822  0.4573 -0.2544
  250MOL0     C33637   6.856   6.624   9.056 -0.0380  0.4596  0.0252
  250MOL0     C33638   6.969   6.607   9.160  0.1067  0.0965 -0.2996
  250MOL0     O33639   7.013   6.476   9.193 -0.6126 -0.2748 -0.8322
  250MOL0     C33640   6.942   6.400   9.277  0.7841  0.1582 -0.1442
  250MOL0     C33641   6.816   6.434   9.330  0.6818 -0.9362  0.4039
  250MOL0     C33642   6.744   6.352   9.424  0.2888  0.1619  0.6642
  250MOL0     C33643   6.605   6.403   9.468 -0.0080  0.9373 -0.3251
  250MOL0     C33644   6.806   6.237   9.466 -1.0573  0.8749 -0.4449
  250MOL0     C33645   6.748   6.137   9.558  0.2611  0.4152  1.0189
  250MOL0     O33646   6.838   6.028   9.579  0.0193  0.0527  0.0884
  250MOL0     C33647   6.792   5.901   9.579 -0.1333 -0.3978  0.2446
  250MOL0     C33648   6.880   5.811   9.634 -0.5313  1.1472 -0.1384
  250MOL0     C33649   6.837   5.679   9.656  0.5519 -0.0009 -0.3797
  250MOL0     C33650   6.713   5.634   9.614  0.3296  0.5447  0.5028
  250MOL0     O33651   6.678   5.507   9.632 -0.4266 -0.2613  0.0195
  250MOL0     C33652   6.602   5.447   9.528  0.0406  0.5822 -0.8119
  250MOL0     C33653   6.662   5.311   9.487 -1.1999 -0.0802 -0.3287
  250MOL0     C33654   6.640   5.200   9.591  0.2487 -0.1795 -0.4280
  250MOL0     C33655   6.616   5.076   9.525  0.9988  0.1971 -0.6848
  250MOL0     C33656   6.644   4.955   9.617  1.1582  0.3195 -0.6745
  250MOL0     C33657   6.573   4.821   9.565  0.1595  0.0931  0.1848
  250MOL0     C33658   6.420   4.822   9.583  0.9425 -0.3100 -0.4674
  250MOL0     C33659   6.381   4.837   9.727  1.2660  0.0565  0.0499
  250MOL0    Cl33660   6.203   4.801   9.750 -0.3100  0.0765  0.0872
  250MOL0     C33661   6.616   5.728   9.569 -0.0632  0.1896 -0.9961
  250MOL0     C33662   6.658   5.854   9.548 -0.8547 -0.0127 -0.9733
  250MOL0     O33663   6.639   6.144   9.613  0.2343 -0.0601  0.1168
  250MOL0     C33664   6.931   6.195   9.411 -1.3758  0.5899 -0.1770
  250MOL0     C33665   6.999   6.270   9.313 -0.7550 -0.1255 -0.0522
  250MOL0     N33666   7.177   6.602   8.684 -0.0794 -0.1012  0.5935
  250MOL0     N33667   7.297   6.543   8.675  0.1723 -0.1273 -1.0690
  250MOL0     C33668   7.282   5.750   8.124 -0.2801 -0.1149  0.0036
  250MOL0     C33669   7.181   5.716   8.027 -0.4955  0.4822  1.1750
  250MOL0     C33670   6.954   5.731   7.639 -0.6077  0.6153  0.3523
  250MOL0     C33671   6.824   5.772   7.673 -0.1103 -0.2233 -0.5157
  250MOL0     C33672   6.726   5.777   7.576 -0.0595 -0.0330  0.0411
  250MOL0     C33673   6.757   5.739   7.449 -0.8691  0.3516  0.7003
  250MOL0     O33674   6.668   5.726   7.346  0.4744 -0.2163 -0.1840
  250MOL0     C33675   6.530   5.713   7.378 -0.0623 -0.1750  0.0784
  250MOL0     C33676   6.466   5.595   7.297  0.3539 -0.7292  0.6475
  250MOL0     C33677   6.473   5.629   7.147  0.2477 -0.4004  0.6440
  250MOL0     C33678   6.371   5.534   7.087  0.9537 -0.6106 -0.0884
  250MOL0     C33679   6.401   5.528   6.945  0.1354  0.4641  0.9925
  250MOL0     C33680   6.409   5.517   6.823 -0.5814  0.7352 -0.9588
  250MOL0     C33681   6.884   5.692   7.421 -0.1005  0.3682  0.2706
  250MOL0     C33682   6.989   5.688   7.508  0.0349  0.5618 -0.4987
  250MOL0     H33683   7.082   6.030   7.928 -0.2139 -0.1473  2.2850
  250MOL0     H33684   7.253   6.086   8.083  2.5781 -1.7005 -0.0118
  250MOL0     H33685   7.383   5.804   8.396  0.3027 -1.3492 -0.5247
  250MOL0     H33686   7.514   5.768   8.288 -0.0784 -1.2648  2.1291
  250MOL0     H33687   7.630   5.860   8.478  3.1300  1.9938 -0.5193
  250MOL0     H33688   7.627   5.989   8.355 -0.5837  1.0901 -0.3425
  250MOL0     H33689   7.400   6.053   8.478  0.7516 -1.1274 -1.3113
  250MOL0     H33690   7.462   5.975   8.626 -0.9896  1.3320 -0.2546
  250MOL0     H33691   7.664   6.082   8.629 -0.6170 -2.3220  0.9264
  250MOL0     H33692   7.625   6.167   8.474 -1.4356 -1.9320 -1.8050
  250MOL0     H33693   7.613   6.317   8.632 -0.3136  1.2458  1.1074
  250MOL0     H33694   7.452   6.299   8.585  3.8698  1.8110 -3.3434
  250MOL0     H33695   7.385   6.199   8.788  1.0057 -3.2062 -0.9227
  250MOL0     H33696   7.553   6.140   8.824  0.6863  0.0072 -1.0696
  250MOL0     H33697   7.457   6.325   8.991  0.3266  0.2837  0.4812
  250MOL0     H33698   7.602   6.358   8.944 -0.8519 -1.2329 -1.3552
  250MOL0     H33699   7.527   6.505   8.771 -0.9881 -2.2910 -1.5054
  250MOL0     H33700   7.463   6.546   8.928 -2.4971 -0.4115  2.0760
  250MOL0     H33701   7.210   6.510   8.993  2.5318  0.3601  0.5273
  250MOL0     H33702   7.033   6.763   8.915  2.9501 -0.1836 -1.9148
  250MOL0     H33703   6.952   6.708   8.778 -4.1387  0.5229  3.0737
  250MOL0     H33704   6.959   6.472   8.939  0.7431  0.4803  0.7285
  250MOL0     H33705   6.819   6.557   8.871 -1.1250  0.5502  2.6958
  250MOL0     H33706   6.765   6.575   9.091 -0.2536 -0.5901 -1.8970
  250MOL0     H33707   6.829   6.727   9.030  0.2096 -0.2681 -3.4973
  250MOL0     H33708   6.934   6.657   9.251  0.3135 -0.0166 -0.1593
  250MOL0     H33709   7.055   6.670   9.137  1.2141 -0.3443  2.3076
  250MOL0     H33710   6.754   6.520   9.308  1.3156 -1.2928 -3.6817
  250MOL0     H33711   6.613   6.508   9.437  5.1068  0.6651 -0.7798
  250MOL0     H33712   6.525   6.347   9.419 -0.6846  1.7260 -0.1316
  250MOL0     H33713   6.605   6.397   9.577 -1.4891  3.4382 -0.1267
  250MOL0     H33714   6.984   5.840   9.642 -0.9295  2.4665  0.5842
  250MOL0     H33715   6.904   5.596   9.678  3.2982  2.0531 -0.3783
  250MOL0     H33716   6.497   5.441   9.559 -0.2294 -0.7049 -1.9075
  250MOL0     H33717   6.584   5.506   9.438  0.4518 -0.2780 -1.4676
  250MOL0     H33718   6.609   5.293   9.394  0.1928  0.5403 -1.2801
  250MOL0     H33719   6.767   5.320   9.457 -1.1200 -1.6417 -0.5600
  250MOL0     H33720   6.554   5.224   9.655  1.4919  1.0518  0.8524
  250MOL0     H33721   6.724   5.194   9.660  1.3909 -2.3529 -1.8911
  250MOL0     H33722   6.515   5.069   9.483 -1.4952  0.3526  4.5132
  250MOL0     H33723   6.681   5.070   9.437 -2.3609 -2.7176 -3.3201
  250MOL0     H33724   6.631   4.979   9.722  0.2330 -0.7886 -0.5141
  250MOL0     H33725   6.752   4.944   9.616  1.3021  1.3479  0.8681
  250MOL0     H33726   6.581   4.828   9.456 -1.0181 -1.9916 -0.0820
  250MOL0     H33727   6.623   4.732   9.604  3.2996  1.2412 -0.8929
  250MOL0     H33728   6.371   4.736   9.537  1.6696  0.0684 -2.0287
  250MOL0     H33729   6.369   4.903   9.530  1.4326 -1.5012 -2.9059
  250MOL0     H33730   6.395   4.941   9.759  1.0774  1.4198 -3.7779
  250MOL0     H33731   6.427   4.770   9.800 -0.7525 -0.5916  0.7795
  250MOL0     H33732   6.512   5.714   9.542 -0.2746 -0.0162 -0.0945
  250MOL0     H33733   6.591   5.927   9.502 -1.5933  2.1205  3.0183
  250MOL0     H33734   6.995   6.112   9.440  1.4056  2.3950 -0.7292
  250MOL0     H33735   7.098   6.241   9.282 -0.3153  2.6391 -1.4705
  250MOL0     H33736   7.347   5.682   8.179  0.3497 -0.4860 -1.1733
  250MOL0     H33737   7.163   5.611   8.003  0.2098  0.9461 -1.7618
  250MOL0     H33738   6.795   5.794   7.775  1.3506  3.5338 -0.7487
  250MOL0     H33739   6.626   5.804   7.607  0.2946 -1.1208  2.3555
  250MOL0     H33740   6.511   5.674   7.478 -1.4335 -3.1952 -1.2187
  250MOL0     H33741   6.472   5.803   7.357  2.3499  0.8827 -2.7033
  250MOL0     H33742   6.365   5.581   7.338  1.1370  3.6372  5.0919
  250MOL0     H33743   6.523   5.503   7.310 -1.2932 -2.0343 -0.7334
  250MOL0     H33744   6.576   5.605   7.122 -0.0829  0.5778 -1.9887
  250MOL0     H33745   6.452   5.733   7.120  3.4829 -0.0597 -1.0339
  250MOL0     H33746   6.268   5.566   7.107 -1.3547 -6.8496  0.1783
  250MOL0     H33747   6.386   5.429   7.112 -1.9482 -1.9176 -3.1104
  250MOL0     H33748   6.429   5.490   6.721  0.2031 -2.6115 -0.0318
  250MOL0     H33749   6.898   5.646   7.324  0.4822  0.1984  0.4279
  250MOL0     H33750   7.083   5.637   7.490 -0.5482 -0.4371 -0.7677
  251MOL0     O33751   3.404   4.272   6.399  0.1134  1.0904 -0.7834
  251MOL0     C33752   3.409   4.162   6.450  0.7410  0.3078  0.4248
  251MOL0     O33753   3.451   4.048   6.389 -0.8170  0.6157  0.4343
  251MOL0     C33754   3.502   4.057   6.264  0.9140 -0.4157  0.8926
  251MOL0     C33755   3.620   4.007   6.225  0.2227  0.3150 -0.1884
  251MOL0     C33756   3.660   3.998   6.093 -0.7004  0.0270 -0.5696
  251MOL0     C33757   3.582   4.055   5.996 -0.0627  0.1103 -0.3636
  251MOL0     O33758   3.621   4.069   5.861 -0.3608 -0.0545 -0.5425
  251MOL0     C33759   3.711   4.177   5.830  1.1532 -0.1082  0.3141
  251MOL0     C33760   3.705   4.184   5.679 -0.1895 -0.3620  1.1302
  251MOL0     C33761   3.574   4.246   5.625  0.4552 -0.3165 -0.2430
  251MOL0     C33762   3.565   4.236   5.479  1.1038 -0.0022  0.6906
  251MOL0     C33763   3.457   4.332   5.415 -0.6075 -0.1918  0.3383
  251MOL0     C33764   3.315   4.339   5.470 -0.1078  0.9333  0.4412
  251MOL0     C33765   3.214   4.410   5.387  0.2116 -0.8561  0.1252
  251MOL0     C33766   3.071   4.394   5.446  0.1968 -0.4068 -0.5209
  251MOL0     N33767   3.059   4.406   5.593 -0.1256 -0.6236 -0.6033
  251MOL0     C33768   3.032   4.518   5.671 -0.2083  0.4721  0.3437
  251MOL0     C33769   3.045   4.476   5.806 -1.2258  0.3376 -0.2122
  251MOL0     C33770   3.033   4.566   5.922 -0.3385  0.9004  0.6432
  251MOL0     C33771   3.117   4.515   6.052 -0.6092 -0.1590  0.1770
  251MOL0     C33772   3.059   4.556   6.182  0.7429 -0.7380 -0.4273
  251MOL0     C33773   2.973   4.454   6.252  0.9264  0.6203 -0.1590
  251MOL0     O33774   2.851   4.432   6.172  0.0604  1.1817 -0.7475
  251MOL0     C33775   2.745   4.375   6.246  0.6667 -0.5802 -0.8392
  251MOL0     C33776   2.636   4.332   6.167  0.6836 -0.0537 -0.3384
  251MOL0     C33777   2.505   4.315   6.225 -0.0613  0.4442  0.0985
  251MOL0     C33778   2.398   4.285   6.134  0.3251 -0.4093  0.8884
  251MOL0     C33779   2.488   4.334   6.369 -0.0434  0.8076 -0.0386
  251MOL0     C33780   2.360   4.327   6.445 -1.1126  0.3607  0.1566
  251MOL0     O33781   2.367   4.283   6.569 -0.1785  0.9508 -0.0432
  251MOL0     C33782   2.256   4.266   6.649 -0.2985 -0.2792  0.2770
  251MOL0     C33783   2.204   4.376   6.716 -0.7087  0.9627  0.0679
  251MOL0     C33784   2.077   4.368   6.783 -0.6066 -0.1761 -0.1664
  251MOL0     C33785   2.009   4.250   6.796 -0.9664 -0.1461  0.0301
  251MOL0     O33786   1.898   4.262   6.875  0.1587 -0.3811  0.7074
  251MOL0     C33787   1.801   4.147   6.865  0.3547 -0.4898 -0.2150
  251MOL0     C33788   1.812   4.044   6.982  0.1349  0.4388 -0.2103
  251MOL0     C33789   1.692   3.940   6.998 -0.8530 -0.2829  0.0296
  251MOL0     C33790   1.546   4.000   6.996  0.6916 -0.2714 -0.7975
  251MOL0     C33791   1.520   4.069   7.134 -0.3021  0.8667 -0.6023
  251MOL0     C33792   1.371   4.124   7.132  0.5315 -0.7820 -0.1504
  251MOL0     C33793   1.337   4.199   7.265  0.4345  0.5648 -0.2864
  251MOL0     C33794   1.186   4.238   7.268  0.3411  0.4614 -0.2740
  251MOL0    Cl33795   1.168   4.350   7.397 -0.7861  0.0626  0.0454
  251MOL0     C33796   2.054   4.143   6.725 -0.6149 -0.4827  0.4479
  251MOL0     C33797   2.179   4.148   6.653 -0.0673  0.4292  0.7915
  251MOL0     O33798   2.252   4.357   6.388  0.0975 -0.3221 -0.7752
  251MOL0     C33799   2.605   4.370   6.442 -0.8959 -0.3243  0.3992
  251MOL0     C33800   2.725   4.398   6.383 -0.2606  0.1763  0.8507
  251MOL0     N33801   3.060   4.339   5.801 -0.1645  1.2426 -0.5117
  251MOL0     N33802   3.063   4.300   5.681  0.0564 -0.4845 -0.2099
  251MOL0     C33803   3.452   4.094   6.033  0.7252  0.6044 -0.8128
  251MOL0     C33804   3.412   4.094   6.168  0.1616 -0.2330  0.1379
  251MOL0     C33805   3.351   4.146   6.584 -0.2783 -0.0282 -0.7177
  251MOL0     C33806   3.364   4.024   6.652 -0.0824  0.0543  0.5778
  251MOL0     C33807   3.296   4.012   6.765 -0.4501 -0.2144 -0.4035
  251MOL0     C33808   3.234   4.123   6.835  0.1818  0.0715  1.1715
  251MOL0     O33809   3.181   4.123   6.965  0.2926  0.1085 -0.2176
  251MOL0     C33810   3.172   3.991   7.035  0.0640  0.0687  0.5868
  251MOL0     C33811   3.064   3.994   7.152  0.3444  0.6906  0.6956
  251MOL0     C33812   3.097   4.070   7.281  0.4943 -0.5700  0.3465
  251MOL0     C33813   3.205   3.994   7.361  0.5206 -0.6698 -0.0171
  251MOL0     C33814   3.256   4.081   7.473 -0.1196  1.6042 -0.7737
  251MOL0     C33815   3.297   4.166   7.552  0.5860  0.8629 -0.5896
  251MOL0     C33816   3.234   4.248   6.770 -0.6054  0.7407 -0.4722
  251MOL0     C33817   3.294   4.258   6.645 -0.3213 -0.5872 -1.0882
  251MOL0     H33818   3.678   3.953   6.298 -2.9107  0.0183  2.3021
  251MOL0     H33819   3.758   3.963   6.061 -1.1483 -2.3595  0.4472
  251MOL0     H33820   3.666   4.270   5.867  1.6818  0.0902  0.4772
  251MOL0     H33821   3.806   4.177   5.884  0.1263 -2.1196  2.2595
  251MOL0     H33822   3.794   4.234   5.639 -0.2877 -1.9072 -1.2274
  251MOL0     H33823   3.711   4.085   5.633  1.2927  0.4394 -0.5328
  251MOL0     H33824   3.496   4.198   5.685 -0.8404  0.6435 -1.1181
  251MOL0     H33825   3.585   4.355   5.634  1.9680 -0.4495 -0.2187
  251MOL0     H33826   3.662   4.243   5.429  0.8488 -3.6396 -0.6512
  251MOL0     H33827   3.513   4.142   5.455 -1.0731  1.6356 -1.6552
  251MOL0     H33828   3.491   4.436   5.421 -4.2187  1.2299 -0.9528
  251MOL0     H33829   3.458   4.292   5.313 -1.1873  1.0039 -0.1577
  251MOL0     H33830   3.289   4.235   5.488  0.6863  0.9185  1.6643
  251MOL0     H33831   3.323   4.388   5.568 -1.4068  0.0067  1.0368
  251MOL0     H33832   3.232   4.516   5.368  1.7352 -1.0175  0.5499
  251MOL0     H33833   3.218   4.373   5.284  0.8839 -1.1015  0.2320
  251MOL0     H33834   3.050   4.289   5.424 -3.5402  0.0014  0.3529
  251MOL0     H33835   3.003   4.452   5.384  1.5255  1.9615  0.1135
  251MOL0     H33836   3.019   4.624   5.649 -0.1273  0.5411  0.6236
  251MOL0     H33837   3.072   4.661   5.885 -3.5178  0.2245 -5.9899
  251MOL0     H33838   2.925   4.583   5.926 -0.5383  0.1361 -0.6588
  251MOL0     H33839   3.219   4.553   6.050 -1.2966  1.7673  0.2629
  251MOL0     H33840   3.136   4.407   6.045 -0.2155 -0.1831  1.3354
  251MOL0     H33841   2.992   4.638   6.153  2.3891  0.5927 -0.6881
  251MOL0     H33842   3.140   4.592   6.246 -0.7115  0.6288  0.7370
  251MOL0     H33843   2.952   4.504   6.347  0.9398 -1.1623  0.8223
  251MOL0     H33844   3.031   4.366   6.282 -0.9863  0.5669  4.2529
  251MOL0     H33845   2.654   4.335   6.060  1.4244  4.2446 -0.2690
  251MOL0     H33846   2.305   4.272   6.191  0.7791 -1.1372  1.4738
  251MOL0     H33847   2.382   4.370   6.066 -1.4516  1.1388  3.0892
  251MOL0     H33848   2.435   4.207   6.068 -0.3889  0.5881 -0.7758
  251MOL0     H33849   2.250   4.473   6.704 -2.8632  2.0082 -0.2158
  251MOL0     H33850   2.052   4.464   6.828  1.0639  0.8235 -1.2375
  251MOL0     H33851   1.704   4.197   6.870  2.5061  4.2844 -0.9375
  251MOL0     H33852   1.809   4.095   6.770 -1.9980  2.8493 -2.4723
  251MOL0     H33853   1.906   3.990   6.968  0.1546  0.6467 -0.9575
  251MOL0     H33854   1.830   4.101   7.074  0.7122  2.5916 -1.5682
  251MOL0     H33855   1.693   3.886   7.093 -2.7509  0.1288  0.3200
  251MOL0     H33856   1.690   3.875   6.910 -3.3517  2.3286 -2.0546
  251MOL0     H33857   1.526   4.066   6.912 -4.0095 -3.2092 -2.3764
  251MOL0     H33858   1.474   3.918   6.986 -1.8057  1.5012  1.4106
  251MOL0     H33859   1.597   4.144   7.153  1.2495 -0.8205  0.1277
  251MOL0     H33860   1.527   4.002   7.220 -2.2268  0.3714 -0.7919
  251MOL0     H33861   1.347   4.190   7.049  1.2452  3.0118  2.3868
  251MOL0     H33862   1.299   4.042   7.129  1.7785 -1.9915  1.2274
  251MOL0     H33863   1.391   4.293   7.274  2.7043 -0.8732  3.1471
  251MOL0     H33864   1.353   4.147   7.360 -2.1611  1.6152  0.8319
  251MOL0     H33865   1.124   4.149   7.283  3.1766 -1.3671  1.6444
  251MOL0     H33866   1.165   4.292   7.175  4.9395 -0.6634 -2.2469
  251MOL0     H33867   2.013   4.043   6.736  3.8168 -2.2961  3.5607
  251MOL0     H33868   2.204   4.056   6.602  1.0162  1.0278  0.1848
  251MOL0     H33869   2.603   4.388   6.549 -0.9848  0.4780  0.2678
  251MOL0     H33870   2.804   4.430   6.449  1.3084 -1.4508 -0.1492
  251MOL0     H33871   3.376   4.119   5.959  0.3677  1.2600 -0.2354
  251MOL0     H33872   3.316   4.131   6.202 -0.3462 -0.6690 -0.7523
  251MOL0     H33873   3.403   3.935   6.602 -1.5557  0.6147 -1.6952
  251MOL0     H33874   3.294   3.918   6.819  1.6555  1.1989  2.3654
  251MOL0     H33875   3.148   3.915   6.961 -2.5963  1.7502 -0.4287
  251MOL0     H33876   3.270   3.971   7.079  0.1628 -0.2898  0.2042
  251MOL0     H33877   3.036   3.890   7.174 -0.9608  1.1536  1.3217
  251MOL0     H33878   2.973   4.035   7.109  0.6296  0.2034 -0.4216
  251MOL0     H33879   3.002   4.069   7.336  1.3461  0.8075  1.9231
  251MOL0     H33880   3.121   4.174   7.257 -1.4889  0.6206  2.8981
  251MOL0     H33881   3.277   3.968   7.283  2.6989  2.3513  0.8215
  251MOL0     H33882   3.154   3.903   7.395 -0.6003 -1.4121 -3.3278
  251MOL0     H33883   3.319   4.239   7.627  0.6085 -0.1624  0.4373
  251MOL0     H33884   3.180   4.331   6.815  1.8333  1.7491  0.7346
  251MOL0     H33885   3.290   4.356   6.600 -0.7141 -0.0833 -0.0010
  252MOL0     O33886  11.226   2.171   5.705 -0.0267 -0.2529 -0.5979
  252MOL0     C33887  11.263   2.227   5.603  0.1065  0.2145  0.6328
  252MOL0     O33888  11.361   2.180   5.524  0.6135 -0.4396  0.5384
  252MOL0     C33889  11.447   2.079   5.576  1.3138  0.7538 -0.3619
  252MOL0     C33890  11.488   1.964   5.517 -0.1439  1.0656  0.4840
  252MOL0     C33891  11.578   1.876   5.579  0.2684 -0.0831 -0.6696
  252MOL0     C33892  11.622   1.900   5.706  0.8736  0.0756  0.2594
  252MOL0     O33893  11.714   1.829   5.770 -0.4068  0.0734 -0.1066
  252MOL0     C33894  11.728   1.682   5.729 -0.2807 -1.0370 -1.1090
  252MOL0     C33895  11.840   1.631   5.819  0.8105  0.4132  0.6786
  252MOL0     C33896  11.794   1.598   5.965 -0.7651 -0.0491 -0.0637
  252MOL0     C33897  11.897   1.501   6.021  0.7162 -0.3625  0.6267
  252MOL0     C33898  11.881   1.467   6.167  0.7819  0.4961 -0.1930
  252MOL0     C33899  12.020   1.430   6.229 -0.8157  0.1064  0.7547
  252MOL0     C33900  12.088   1.308   6.185 -0.1559 -0.0968 -0.2850
  252MOL0     C33901  12.242   1.294   6.235 -0.2344  0.4833 -1.1297
  252MOL0     N33902  12.247   1.275   6.386  0.0226  0.0080  0.2608
  252MOL0     C33903  12.204   1.170   6.457  1.1101 -0.4669  0.7551
  252MOL0     C33904  12.228   1.199   6.585 -0.2934  0.4751  0.0574
  252MOL0     C33905  12.195   1.117   6.709 -0.8209 -0.1399  0.4155
  252MOL0     C33906  12.290   0.996   6.730  0.5086 -0.3489  0.5112
  252MOL0     C33907  12.270   0.953   6.875 -0.4987  0.9358  0.2251
  252MOL0     C33908  12.134   0.893   6.901  0.2315 -0.1938 -0.7292
  252MOL0     O33909  12.040   0.995   6.931  0.8016 -0.7541 -0.0586
  252MOL0     C33910  11.908   0.984   6.911  0.0974 -0.1094  0.6461
  252MOL0     C33911  11.845   0.863   6.903  0.7422  0.1216  0.4588
  252MOL0     C33912  11.708   0.858   6.860  0.6257 -0.1216 -0.0783
  252MOL0     C33913  11.638   0.728   6.883 -0.0345 -0.1947 -0.1685
  252MOL0     C33914  11.637   0.971   6.831  0.1945  0.1321 -0.5523
  252MOL0     C33915  11.492   0.972   6.791  0.4606 -0.2176  0.2911
  252MOL0     O33916  11.459   0.883   6.684  0.0303  1.2933  0.0756
  252MOL0     C33917  11.340   0.899   6.620  0.4665 -0.0409 -0.4173
  252MOL0     C33918  11.258   0.783   6.606  1.2498  0.0353 -0.4380
  252MOL0     C33919  11.139   0.788   6.533  0.5091 -0.5928  0.4871
  252MOL0     C33920  11.085   0.911   6.480 -0.3187 -0.6083  0.4310
  252MOL0     O33921  10.967   0.916   6.407  0.1417 -0.5997 -0.4851
  252MOL0     C33922  10.854   0.938   6.502  0.0380 -0.1117  0.0302
  252MOL0     C33923  10.831   1.083   6.553 -0.7297  0.2969  0.6301
  252MOL0     C33924  10.808   1.191   6.441 -0.0604  0.4305 -0.7911
  252MOL0     C33925  10.766   1.312   6.512 -0.0920 -0.4167  0.0994
  252MOL0     C33926  10.728   1.434   6.424 -0.0944 -0.3531  0.1787
  252MOL0     C33927  10.635   1.521   6.503 -0.2723  0.0172  0.0911
  252MOL0     C33928  10.687   1.579   6.620 -0.1580  0.0413  0.7020
  252MOL0     C33929  10.588   1.677   6.678  0.7352  0.3569  0.3036
  252MOL0    Cl33930  10.581   1.827   6.596 -0.0772  0.1728  0.0122
  252MOL0     C33931  11.179   1.017   6.488  0.5363 -0.7249 -0.9824
  252MOL0     C33932  11.297   1.019   6.567 -0.1221 -0.0055  0.7091
  252MOL0     O33933  11.414   1.056   6.842  0.5189  0.1326  0.0998
  252MOL0     C33934  11.707   1.096   6.824 -0.3551 -0.3322  0.0970
  252MOL0     C33935  11.841   1.101   6.861  0.8882  0.0506 -0.1384
  252MOL0     N33936  12.299   1.317   6.595  0.5463 -0.4954  0.1181
  252MOL0     N33937  12.317   1.350   6.478 -0.3228 -0.2444  0.3715
  252MOL0     C33938  11.586   2.015   5.773  0.0869  0.4009  1.5309
  252MOL0     C33939  11.497   2.101   5.713  1.0170  0.0628  0.7886
  252MOL0     C33940  11.193   2.352   5.550 -0.1243  0.5335 -0.4758
  252MOL0     C33941  11.208   2.398   5.418  0.2686 -0.6681 -0.6997
  252MOL0     C33942  11.163   2.527   5.385 -0.0635 -0.7154 -0.2950
  252MOL0     C33943  11.081   2.601   5.480  0.0653  0.0129 -0.4394
  252MOL0     O33944  11.050   2.733   5.452  0.8886 -0.9900  0.5508
  252MOL0     C33945  11.012   2.829   5.553  0.2211  0.5554  0.0095
  252MOL0     C33946  10.993   2.959   5.483  0.1361 -0.0119  0.1165
  252MOL0     C33947  10.874   2.978   5.395  0.4636 -0.6458 -0.3374
  252MOL0     C33948  10.743   3.009   5.473  0.1124  0.5922 -1.3614
  252MOL0     C33949  10.674   2.879   5.515 -0.3358 -1.1419  0.3798
  252MOL0     C33950  10.635   2.766   5.536 -0.7058  0.0331  0.5635
  252MOL0     C33951  11.054   2.541   5.608  0.4975  0.5352 -0.9988
  252MOL0     C33952  11.103   2.419   5.639 -0.1856  0.0451  0.1432
  252MOL0     H33953  11.451   1.946   5.416 -0.7823 -0.4967  0.9700
  252MOL0     H33954  11.619   1.797   5.516 -0.0385  0.7013 -1.8959
  252MOL0     H33955  11.643   1.620   5.760 -0.5876  0.0302  0.3054
  252MOL0     H33956  11.748   1.674   5.622  0.0237  1.7313 -1.3356
  252MOL0     H33957  11.868   1.538   5.768 -2.5905  0.6585 -2.0178
  252MOL0     H33958  11.935   1.684   5.822  1.3416 -0.2323 -2.0851
  252MOL0     H33959  11.795   1.683   6.034 -2.8524 -1.2184  1.5401
  252MOL0     H33960  11.689   1.568   5.969 -0.3759 -1.3800  0.7277
  252MOL0     H33961  11.882   1.408   5.964 -3.5405  0.7856 -0.5272
  252MOL0     H33962  11.998   1.539   6.006  1.2457 -1.7080  0.6319
  252MOL0     H33963  11.838   1.552   6.220 -0.3904  1.3577 -2.3671
  252MOL0     H33964  11.819   1.379   6.186 -0.1638  1.6064  2.2009
  252MOL0     H33965  12.069   1.526   6.212  0.2467  0.2679  4.0720
  252MOL0     H33966  12.020   1.428   6.338 -1.4520  3.4306  0.9322
  252MOL0     H33967  12.029   1.225   6.225  1.2382  0.7376  3.9073
  252MOL0     H33968  12.085   1.308   6.075  0.0957 -1.5343 -0.3139
  252MOL0     H33969  12.301   1.383   6.212  1.3494 -0.3402 -0.4514
  252MOL0     H33970  12.284   1.206   6.185  0.0522  0.7124 -1.2993
  252MOL0     H33971  12.158   1.086   6.407  3.1064  0.4472 -2.9958
  252MOL0     H33972  12.194   1.182   6.797  0.8866  0.2734  0.1717
  252MOL0     H33973  12.092   1.086   6.690 -1.3049  1.5089  0.2149
  252MOL0     H33974  12.393   1.023   6.707  0.2356  0.3570  0.0694
  252MOL0     H33975  12.273   0.914   6.660  0.4438  0.1129 -0.0229
  252MOL0     H33976  12.278   1.040   6.941 -3.2488  2.7267 -1.5856
  252MOL0     H33977  12.335   0.868   6.897 -2.5719 -1.0705 -0.9889
  252MOL0     H33978  12.134   0.834   6.993  0.0871 -0.0068 -0.6093
  252MOL0     H33979  12.106   0.827   6.819 -2.0760 -0.4003  0.1533
  252MOL0     H33980  11.897   0.772   6.929 -0.9549 -1.4802 -1.4541
  252MOL0     H33981  11.706   0.645   6.904 -2.1465 -1.9631  0.0917
  252MOL0     H33982  11.570   0.739   6.968 -1.6647 -3.5975 -0.8689
  252MOL0     H33983  11.586   0.695   6.793  1.6889  0.0942 -1.3191
  252MOL0     H33984  11.292   0.686   6.642  1.3661 -0.9036 -2.8672
  252MOL0     H33985  11.080   0.698   6.518  2.0731 -1.3983 -1.0845
  252MOL0     H33986  10.767   0.903   6.445  0.5475  2.5820 -2.7001
  252MOL0     H33987  10.861   0.875   6.590  2.8300 -0.3826 -0.2819
  252MOL0     H33988  10.742   1.075   6.616 -0.9379 -3.1940  0.1397
  252MOL0     H33989  10.926   1.102   6.604 -0.1031 -0.2120 -0.3191
  252MOL0     H33990  10.725   1.160   6.377 -0.8866 -0.2940  0.5932
  252MOL0     H33991  10.898   1.195   6.379  1.0447 -0.1650  0.7148
  252MOL0     H33992  10.677   1.283   6.569  0.1881 -0.4791  0.5051
  252MOL0     H33993  10.847   1.341   6.579 -0.5257 -0.4862  0.6568
  252MOL0     H33994  10.682   1.403   6.330 -1.8891  2.6975 -0.0968
  252MOL0     H33995  10.816   1.493   6.395 -0.5864 -0.2455 -1.1198
  252MOL0     H33996  10.592   1.590   6.431 -0.5237 -1.7352 -1.5245
  252MOL0     H33997  10.553   1.456   6.534  1.1198 -1.3892  1.0124
  252MOL0     H33998  10.780   1.631   6.595 -0.5348 -0.0707 -0.9983
  252MOL0     H33999  10.729   1.509   6.693  2.0924  1.1560  0.5934
  252MOL0     H34000  10.618   1.688   6.782 -1.2015 -3.4227  1.4628
  252MOL0     H34001  10.482   1.648   6.677  0.5081  1.1566 -0.7366
  252MOL0     H34002  11.152   1.099   6.421 -1.5643  0.1498  0.8233
  252MOL0     H34003  11.350   1.113   6.562  0.5325 -0.3064  1.7332
  252MOL0     H34004  11.660   1.189   6.792 -0.2622 -0.9274 -1.8991
  252MOL0     H34005  11.882   1.201   6.867 -1.1005  0.8236  2.4793
  252MOL0     H34006  11.619   2.026   5.876  1.2683 -2.0656  1.4997
  252MOL0     H34007  11.480   2.194   5.765 -0.3984  0.0044  0.4801
  252MOL0     H34008  11.274   2.340   5.355 -3.7023 -3.6163 -2.5836
  252MOL0     H34009  11.210   2.562   5.294  2.5286 -0.3499  1.0711
  252MOL0     H34010  10.923   2.794   5.606  0.7405  0.7167  1.0000
  252MOL0     H34011  11.091   2.841   5.628 -0.9210  2.3020  0.9832
  252MOL0     H34012  11.083   2.993   5.429 -1.0675  2.2893 -0.5805
  252MOL0     H34013  10.976   3.016   5.575  1.6454 -2.3599  1.9467
  252MOL0     H34014  10.858   2.888   5.335  0.9358  1.7284 -4.4109
  252MOL0     H34015  10.892   3.054   5.319 -1.2756 -1.5911 -1.7791
  252MOL0     H34016  10.672   3.063   5.410 -1.5688  1.4204  1.0880
  252MOL0     H34017  10.766   3.065   5.564  1.2729  1.3912 -2.1226
  252MOL0     H34018  10.589   2.671   5.552  1.2854 -0.7742  1.9618
  252MOL0     H34019  10.989   2.595   5.677  0.2665  0.4696 -1.1663
  252MOL0     H34020  11.079   2.384   5.739  0.2482 -0.3326  0.1164
  253MOL0     O34021   5.446  11.380   5.337 -0.3761  0.2930  0.5060
  253MOL0     C34022   5.451  11.390   5.464  0.7725  0.2351  0.5858
  253MOL0     O34023   5.551  11.444   5.530  0.2086  0.4744 -0.9282
  253MOL0     C34024   5.654  11.498   5.454  0.6286 -0.1019 -0.2667
  253MOL0     C34025   5.788  11.457   5.457  0.4397  0.7667 -0.2324
  253MOL0     C34026   5.888  11.535   5.394 -0.4016  0.2211  0.0627
  253MOL0     C34027   5.849  11.655   5.327  0.1507  0.8233  0.3197
  253MOL0     O34028   5.941  11.733   5.257 -0.3080  0.5235  0.2229
  253MOL0     C34029   6.010  11.825   5.343  0.1760 -0.4923 -0.4368
  253MOL0     C34030   6.128  11.873   5.254  0.4378  0.2925  0.5764
  253MOL0     C34031   6.231  11.957   5.316  0.8123  0.0375 -0.0583
  253MOL0     C34032   6.313  11.910   5.424  0.4052 -0.0627  0.1215
  253MOL0     C34033   6.400  11.795   5.394  0.9896  0.2025  0.2178
  253MOL0     C34034   6.554  11.813   5.439  0.6679  0.0427 -0.5604
  253MOL0     C34035   6.570  11.819   5.595  0.3922 -0.0437  0.6300
  253MOL0     C34036   6.706  11.884   5.622 -0.2212 -0.4207  1.3813
  253MOL0     N34037   6.759  11.851   5.751 -0.5199 -0.5137 -0.5975
  253MOL0     C34038   6.791  11.719   5.785 -0.2537  0.4059 -0.1434
  253MOL0     C34039   6.838  11.738   5.913  0.2520 -0.0981 -0.6708
  253MOL0     C34040   6.904  11.641   6.005  0.3933 -0.0199  0.0065
  253MOL0     C34041   6.833  11.508   5.996  0.1439 -0.1231 -0.2108
  253MOL0     C34042   6.894  11.405   6.096 -0.2837 -0.4440  0.3165
  253MOL0     C34043   6.799  11.285   6.134 -0.3469  0.5352  0.3384
  253MOL0     O34044   6.815  11.165   6.057 -0.6561  0.2707 -0.3142
  253MOL0     C34045   6.710  11.079   6.049  0.2071  0.5995 -0.7141
  253MOL0     C34046   6.692  11.013   5.930  1.0342  1.0093  0.5659
  253MOL0     C34047   6.604  10.907   5.910  0.1552  0.0040  0.0086
  253MOL0     C34048   6.613  10.833   5.779 -0.5985 -0.6201  0.9934
  253MOL0     C34049   6.523  10.863   6.014  0.0670 -1.0764  0.2244
  253MOL0     C34050   6.431  10.748   6.001 -0.1428  0.0348  0.1589
  253MOL0     O34051   6.372  10.712   6.119  0.5610  0.2800 -0.0075
  253MOL0     C34052   6.353  10.574   6.133 -0.0557  0.0046 -0.3175
  253MOL0     C34053   6.238  10.516   6.096  0.4975 -0.8545  0.5439
  253MOL0     C34054   6.212  10.383   6.117 -0.1217 -0.0507 -0.2825
  253MOL0     C34055   6.313  10.291   6.162  0.7236 -0.3771  0.0140
  253MOL0     O34056   6.297  10.161   6.164  0.1770  0.2181 -0.1618
  253MOL0     C34057   6.167  10.083   6.157 -0.4196 -0.7008  1.0347
  253MOL0     C34058   6.120  10.043   6.296 -1.1404  0.3845 -0.5169
  253MOL0     C34059   6.033   9.922   6.284  0.5866  0.2948 -0.0954
  253MOL0     C34060   5.904   9.955   6.195 -0.5708 -0.3873 -0.3494
  253MOL0     C34061   5.785   9.869   6.226  0.5370 -0.1862 -0.0999
  253MOL0     C34062   5.806   9.723   6.217  0.2095  0.5392 -0.0641
  253MOL0     C34063   5.681   9.640   6.246 -0.2998  1.0988 -0.0343
  253MOL0     C34064   5.720   9.487   6.267  1.1196  0.8933 -1.0895
  253MOL0    Cl34065   5.749   9.415   6.098 -0.2589  0.0378 -0.1710
  253MOL0     C34066   6.433  10.352   6.211 -0.8187 -0.5107  0.5169
  253MOL0     C34067   6.452  10.494   6.199 -0.4742  0.2583  0.5410
  253MOL0     O34068   6.392  10.700   5.894 -0.9730 -0.1930  0.2059
  253MOL0     C34069   6.528  10.938   6.133 -0.1814 -0.5412  0.9970
  253MOL0     C34070   6.618  11.046   6.150  0.0741 -0.8981 -1.9800
  253MOL0     N34071   6.827  11.872   5.952  0.3497 -0.4038  0.3014
  253MOL0     N34072   6.789  11.938   5.849  0.7562 -0.5576  0.1821
  253MOL0     C34073   5.713  11.691   5.314 -0.9167 -1.3652  0.4159
  253MOL0     C34074   5.619  11.609   5.377 -0.5266 -0.4908 -1.0809
  253MOL0     C34075   5.331  11.333   5.537 -0.2468 -0.1756  0.8406
  253MOL0     C34076   5.211  11.310   5.470 -0.2662  1.2398 -0.1934
  253MOL0     C34077   5.110  11.252   5.534  0.6936 -0.7089  0.4063
  253MOL0     C34078   5.107  11.244   5.677 -0.3102 -0.0309 -0.1196
  253MOL0     O34079   5.004  11.195   5.754  0.6788 -0.1947 -0.2411
  253MOL0     C34080   4.905  11.111   5.694 -0.1928 -0.1024 -0.4294
  253MOL0     C34081   4.771  11.124   5.763 -0.5062 -1.0498 -0.7656
  253MOL0     C34082   4.690  11.240   5.692 -0.6136 -0.0550  0.0576
  253MOL0     C34083   4.744  11.390   5.689  0.0546  0.2568  0.2259
  253MOL0     C34084   4.637  11.477   5.637  1.0710 -0.4176  0.1592
  253MOL0     C34085   4.564  11.558   5.584 -0.5907 -0.2939 -0.3203
  253MOL0     C34086   5.231  11.264   5.747  0.1131  0.1159  0.4492
  253MOL0     C34087   5.344  11.311   5.676  0.6475  0.3137  0.8461
  253MOL0     H34088   5.813  11.379   5.528 -2.7186 -0.5645 -0.4266
  253MOL0     H34089   5.996  11.524   5.398 -0.0612  2.8717  0.2117
  253MOL0     H34090   5.963  11.921   5.367  0.6682 -0.5235  0.7348
  253MOL0     H34091   6.057  11.785   5.433 -0.1549  0.5092  0.2057
  253MOL0     H34092   6.175  11.792   5.197 -1.8004 -1.3820  0.9674
  253MOL0     H34093   6.093  11.926   5.165  1.9634 -3.5427 -2.5990
  253MOL0     H34094   6.301  12.002   5.245 -0.0670  0.0081 -0.9633
  253MOL0     H34095   6.180  12.046   5.355  1.5839  2.1737 -3.5056
  253MOL0     H34096   6.373  12.002   5.433 -0.5727  1.3415 -4.8852
  253MOL0     H34097   6.260  11.883   5.516 -0.1034 -0.1473 -0.1975
  253MOL0     H34098   6.361  11.707   5.446  1.1016 -0.2942 -0.5141
  253MOL0     H34099   6.378  11.771   5.290 -0.8903  2.3684  0.0266
  253MOL0     H34100   6.591  11.712   5.420 -1.8053 -1.3597  1.4419
  253MOL0     H34101   6.595  11.899   5.385 -1.6658  2.0926  0.7408
  253MOL0     H34102   6.495  11.875   5.652  3.0254 -0.6873  5.1796
  253MOL0     H34103   6.578  11.720   5.642 -1.7250 -0.6523 -0.1659
  253MOL0     H34104   6.701  11.993   5.612  0.8700 -0.1949  2.8635
  253MOL0     H34105   6.776  11.841   5.549 -0.2663  0.2915  0.9105
  253MOL0     H34106   6.790  11.630   5.724  0.0715 -0.2659  0.8085
  253MOL0     H34107   7.003  11.607   5.973  0.2446 -1.1367  0.6405
  253MOL0     H34108   6.912  11.683   6.106 -3.8421  3.8611 -0.9469
  253MOL0     H34109   6.827  11.458   5.899  0.1926 -1.3081  0.3845
  253MOL0     H34110   6.730  11.532   6.023  0.3319 -0.9581  1.3680
  253MOL0     H34111   6.919  11.455   6.190 -1.8957  0.0562  0.5259
  253MOL0     H34112   6.985  11.357   6.060  1.2146  4.8999 -4.6226
  253MOL0     H34113   6.697  11.322   6.118 -0.8469 -1.5240 -1.6891
  253MOL0     H34114   6.818  11.262   6.239 -0.3821  1.4880  0.5700
  253MOL0     H34115   6.740  11.057   5.842 -1.2614 -0.4337 -1.5411
  253MOL0     H34116   6.525  10.838   5.715  0.0372 -0.6976  0.0904
  253MOL0     H34117   6.700  10.874   5.726 -1.4121  2.4526  1.8272
  253MOL0     H34118   6.635  10.729   5.806 -4.4655 -2.2911 -1.3768
  253MOL0     H34119   6.162  10.573   6.042  1.4870 -1.3245 -1.4441
  253MOL0     H34120   6.116  10.344   6.087 -0.4906  0.1100  0.6489
  253MOL0     H34121   6.087  10.144   6.114 -1.4019 -2.9088 -0.4783
  253MOL0     H34122   6.176  10.001   6.085 -4.6670  2.0401 -3.2342
  253MOL0     H34123   6.209  10.035   6.358  0.6454  1.4030 -2.8028
  253MOL0     H34124   6.060  10.119   6.346  0.3417  1.9340 -1.0229
  253MOL0     H34125   5.993   9.896   6.383 -0.2426  1.4559 -0.1131
  253MOL0     H34126   6.091   9.839   6.243 -0.5804 -0.3750 -0.4478
  253MOL0     H34127   5.866  10.055   6.213 -3.8099 -1.4560 -0.6514
  253MOL0     H34128   5.939   9.952   6.091  2.8523 -0.2487  0.6801
  253MOL0     H34129   5.716   9.907   6.149  0.9686  1.2775  0.2034
  253MOL0     H34130   5.747   9.895   6.325 -2.3833  0.8158 -1.3607
  253MOL0     H34131   5.852   9.684   6.126  1.2562 -3.4836  1.9706
  253MOL0     H34132   5.875   9.688   6.294  0.9744 -1.3021 -1.5119
  253MOL0     H34133   5.604   9.641   6.167  2.3143 -2.0185 -2.9371
  253MOL0     H34134   5.638   9.687   6.335 -0.9576  2.1060 -0.8621
  253MOL0     H34135   5.643   9.432   6.322  0.4588 -2.5501 -4.8963
  253MOL0     H34136   5.806   9.467   6.331  1.3336 -4.3120 -2.5398
  253MOL0     H34137   6.507  10.293   6.265  0.0118  1.8497  2.0921
  253MOL0     H34138   6.546  10.539   6.230 -0.4592  0.4592  0.2112
  253MOL0     H34139   6.469  10.902   6.217 -1.2061 -3.3785 -0.8013
  253MOL0     H34140   6.633  11.087   6.249  0.0305  1.8136 -3.0010
  253MOL0     H34141   5.690  11.777   5.252  0.5337 -1.0249  0.2986
  253MOL0     H34142   5.517  11.646   5.379 -0.9027 -1.5160  1.0841
  253MOL0     H34143   5.202  11.335   5.364  1.4701 -1.2197 -1.0107
  253MOL0     H34144   5.019  11.231   5.478 -0.6497  1.0542  1.8085
  253MOL0     H34145   4.896  11.100   5.586  0.0818  0.3470 -0.5014
  253MOL0     H34146   4.947  11.015   5.726  2.0543  1.2105  0.8297
  253MOL0     H34147   4.786  11.139   5.870  0.9133 -2.1210 -0.7883
  253MOL0     H34148   4.717  11.029   5.758 -2.4606  0.0269 -0.8606
  253MOL0     H34149   4.590  11.254   5.734 -1.5475  2.8965 -2.7451
  253MOL0     H34150   4.682  11.201   5.590 -3.7663 -3.2368  1.3186
  253MOL0     H34151   4.840  11.402   5.638 -0.5792  1.7822 -0.6499
  253MOL0     H34152   4.776  11.421   5.788  2.7217 -0.8013 -0.2221
  253MOL0     H34153   4.514  11.639   5.533  0.5896  0.1459 -0.8203
  253MOL0     H34154   5.219  11.238   5.851  0.0328 -0.9690  0.1816
  253MOL0     H34155   5.438  11.333   5.726  1.1973  0.5552 -0.2581
  254MOL0     O34156   7.850   0.300   1.072 -0.2001 -0.0037  0.5560
  254MOL0     C34157   7.825   0.239   1.178 -0.1835 -0.1757  0.0384
  254MOL0     O34158   7.752   0.292   1.289 -1.0326 -0.1794  0.2237
  254MOL0     C34159   7.682   0.409   1.279 -0.1426 -0.4463  0.4796
  254MOL0     C34160   7.550   0.417   1.315 -0.1183  0.1248 -0.5992
  254MOL0     C34161   7.475   0.536   1.316 -0.1246  0.7647  0.1855
  254MOL0     C34162   7.530   0.643   1.259  0.1832 -0.1654  0.1820
  254MOL0     O34163   7.456   0.761   1.250 -0.0371  0.2956 -0.1500
  254MOL0     C34164   7.502   0.871   1.329 -0.5944 -0.2097 -0.6666
  254MOL0     C34165   7.460   1.001   1.251  0.6187  0.6913  0.2820
  254MOL0     C34166   7.313   1.012   1.245  0.0201 -0.4172  0.4021
  254MOL0     C34167   7.262   1.064   1.113  0.4146  0.2900 -0.6244
  254MOL0     C34168   7.259   1.219   1.089  0.1790 -0.2238 -0.4020
  254MOL0     C34169   7.162   1.293   1.178 -0.6424  0.2302 -0.1448
  254MOL0     C34170   7.151   1.448   1.140  0.1647 -0.1230 -0.2762
  254MOL0     C34171   7.283   1.535   1.151  0.0515 -0.4176  0.5356
  254MOL0     N34172   7.229   1.675   1.153 -0.6189 -0.5710  0.4376
  254MOL0     C34173   7.150   1.740   1.061 -0.5775 -0.7411 -0.0597
  254MOL0     C34174   7.136   1.865   1.109 -0.1784  0.6903 -0.4514
  254MOL0     C34175   7.077   1.983   1.047 -0.1595  1.0902 -1.1265
  254MOL0     C34176   7.118   2.001   0.903 -0.3083  0.6474 -0.2882
  254MOL0     C34177   7.261   1.983   0.861  0.0877  0.4007  0.9667
  254MOL0     C34178   7.355   2.093   0.914  0.4856 -0.3602 -0.9537
  254MOL0     O34179   7.311   2.206   0.850  0.7017  0.1840  0.2867
  254MOL0     C34180   7.349   2.334   0.886  0.4092 -0.4579  0.2575
  254MOL0     C34181   7.447   2.359   0.985  0.2785  0.6012  0.4248
  254MOL0     C34182   7.474   2.491   1.028 -0.3915 -0.7383  0.2037
  254MOL0     C34183   7.572   2.506   1.149  0.1046 -0.1791  0.0911
  254MOL0     C34184   7.404   2.607   0.965  0.1857 -0.0361  0.1557
  254MOL0     C34185   7.418   2.756   1.004 -0.4629  1.1641 -0.6350
  254MOL0     O34186   7.337   2.847   0.951 -0.0115  0.7559 -0.3488
  254MOL0     C34187   7.338   2.988   0.963 -0.1952  0.1344 -0.4075
  254MOL0     C34188   7.368   3.053   1.084  0.1776 -0.2123  1.7230
  254MOL0     C34189   7.357   3.191   1.088  0.1796  0.4212 -0.0650
  254MOL0     C34190   7.313   3.263   0.975  0.1770  0.2604  0.4989
  254MOL0     O34191   7.318   3.397   0.959  0.3984 -0.5534  0.4324
  254MOL0     C34192   7.417   3.477   1.012 -0.6851 -0.0309 -0.5199
  254MOL0     C34193   7.491   3.549   0.914  0.6733 -0.9219 -0.4692
  254MOL0     C34194   7.525   3.476   0.786  0.5110 -0.7715  1.0855
  254MOL0     C34195   7.612   3.558   0.680 -0.7697 -0.2613 -0.7602
  254MOL0     C34196   7.666   3.486   0.564  0.0704 -0.7508  0.8181
  254MOL0     C34197   7.800   3.534   0.510 -0.3736  0.7564 -1.5221
  254MOL0     C34198   7.768   3.648   0.404  0.3753 -0.3636 -0.4394
  254MOL0     C34199   7.875   3.737   0.362  0.0764 -0.5330  0.0888
  254MOL0    Cl34200   8.040   3.654   0.340 -0.6761  0.5094 -0.5520
  254MOL0     C34201   7.280   3.195   0.849 -0.0906  0.9540 -0.8771
  254MOL0     C34202   7.291   3.058   0.853 -0.4284  0.0495  0.2566
  254MOL0     O34203   7.516   2.782   1.069  0.0800 -1.0706 -1.0676
  254MOL0     C34204   7.315   2.577   0.857  0.2956  0.2824 -0.2486
  254MOL0     C34205   7.286   2.444   0.817 -1.0633  0.1373 -0.2578
  254MOL0     N34206   7.184   1.874   1.239  0.2150  0.6840 -0.2588
  254MOL0     N34207   7.237   1.754   1.263 -0.0782 -0.1322  0.1653
  254MOL0     C34208   7.665   0.649   1.217  0.4326 -0.4936  0.0228
  254MOL0     C34209   7.744   0.529   1.226  0.2605  0.4427  0.7471
  254MOL0     C34210   7.865   0.099   1.191 -0.2774 -0.2305  0.9787
  254MOL0     C34211   7.805   0.000   1.270 -0.1529 -0.8013 -0.9930
  254MOL0     C34212   7.831  -0.126   1.262 -0.3627 -0.5131 -0.4856
  254MOL0     C34213   7.926  -0.178   1.170  0.2980 -0.5056 -0.7580
  254MOL0     O34214   7.952  -0.313   1.159 -0.1496  0.0542 -0.9269
  254MOL0     C34215   7.839  -0.402   1.196 -0.1530  0.1022 -0.1132
  254MOL0     C34216   7.889  -0.546   1.176 -0.7441  0.5290 -0.4750
  254MOL0     C34217   7.811  -0.644   1.278 -0.0051  0.8119 -0.3426
  254MOL0     C34218   7.656  -0.620   1.276  0.4566  0.8918  0.9838
  254MOL0     C34219   7.589  -0.641   1.146  0.3266  0.6576 -0.1192
  254MOL0     C34220   7.521  -0.656   1.047 -0.6197 -0.0818  0.4516
  254MOL0     C34221   7.999  -0.086   1.101  0.2406  0.1299  0.3510
  254MOL0     C34222   7.966   0.049   1.107 -0.3399 -0.2191 -0.1693
  254MOL0     H34223   7.503   0.325   1.349  3.7991 -2.0042 -0.3639
  254MOL0     H34224   7.369   0.538   1.338 -0.7833 -0.1970 -2.4750
  254MOL0     H34225   7.467   0.869   1.432  0.9986 -3.2383 -0.0776
  254MOL0     H34226   7.611   0.867   1.340 -0.6159 -3.8343 -0.6095
  254MOL0     H34227   7.496   1.100   1.281 -1.7171  2.7559 -3.0070
  254MOL0     H34228   7.496   0.988   1.148 -2.7578 -1.6213 -0.7615
  254MOL0     H34229   7.272   0.914   1.272 -1.4145 -0.0169 -0.2062
  254MOL0     H34230   7.282   1.078   1.327  1.4179  3.9839 -2.2803
  254MOL0     H34231   7.321   1.029   1.027  3.1080 -1.5521  1.7652
  254MOL0     H34232   7.160   1.025   1.113  0.0961  1.0976  0.2806
  254MOL0     H34233   7.360   1.260   1.081 -0.1237  0.1660 -3.0725
  254MOL0     H34234   7.223   1.237   0.988 -0.3896  0.7092 -0.0437
  254MOL0     H34235   7.060   1.252   1.175 -0.5329 -0.1038  0.5909
  254MOL0     H34236   7.187   1.286   1.284  0.7459 -1.5691 -0.5496
  254MOL0     H34237   7.104   1.461   1.042 -2.8658 -0.4647  1.0090
  254MOL0     H34238   7.078   1.482   1.214 -0.2448  0.9055 -1.1285
  254MOL0     H34239   7.340   1.512   1.061  0.4505  1.1992  0.3454
  254MOL0     H34240   7.341   1.509   1.240  1.4640  0.9920  0.0607
  254MOL0     H34241   7.126   1.700   0.963 -1.5593  1.6267 -0.8555
  254MOL0     H34242   6.970   1.961   1.053 -0.2545  1.8002  0.3139
  254MOL0     H34243   7.101   2.072   1.105 -0.3072 -0.4888  1.5462
  254MOL0     H34244   7.088   2.103   0.874 -4.0251 -0.4718 -0.9072
  254MOL0     H34245   7.062   1.924   0.849  2.3238 -1.5401 -0.0815
  254MOL0     H34246   7.260   1.983   0.752 -5.1361  1.7356  0.7456
  254MOL0     H34247   7.304   1.889   0.899  1.5726  1.9688  3.4328
  254MOL0     H34248   7.454   2.064   0.878  0.3177  0.0925 -1.8151
  254MOL0     H34249   7.360   2.109   1.022  1.0694  0.0925 -1.0432
  254MOL0     H34250   7.491   2.276   1.039 -1.1045  0.5325  1.4738
  254MOL0     H34251   7.671   2.548   1.130  1.1917 -2.3292  0.6515
  254MOL0     H34252   7.532   2.580   1.218  2.6201  0.1311  1.3403
  254MOL0     H34253   7.588   2.409   1.198 -1.0783  0.9952  2.9821
  254MOL0     H34254   7.384   2.998   1.176  0.7540  0.2416  1.8913
  254MOL0     H34255   7.378   3.241   1.182 -1.2443  0.8780  0.0326
  254MOL0     H34256   7.383   3.546   1.091  0.1209 -0.6868  0.4303
  254MOL0     H34257   7.492   3.412   1.059  0.4147  2.0744  0.8131
  254MOL0     H34258   7.431   3.635   0.883  2.2830  0.2057 -0.5654
  254MOL0     H34259   7.580   3.588   0.964  0.0288  1.9051 -1.3584
  254MOL0     H34260   7.441   3.437   0.728  1.7628 -1.6279 -0.2159
  254MOL0     H34261   7.580   3.385   0.812 -0.5779 -0.6070  4.5999
  254MOL0     H34262   7.549   3.636   0.635 -2.1371 -0.4413  0.7598
  254MOL0     H34263   7.698   3.601   0.733  0.3855 -0.4954 -2.3650
  254MOL0     H34264   7.592   3.489   0.484  1.5371  1.6998 -0.5945
  254MOL0     H34265   7.670   3.385   0.605  1.0583 -0.9290  0.3048
  254MOL0     H34266   7.864   3.576   0.588 -2.2826  0.5930  0.2264
  254MOL0     H34267   7.856   3.452   0.465  2.1916  1.8419 -0.5153
  254MOL0     H34268   7.685   3.709   0.440  0.4638 -0.1226 -0.6379
  254MOL0     H34269   7.734   3.611   0.307  2.6661  2.1539 -2.3613
  254MOL0     H34270   7.885   3.804   0.449 -2.6362  3.0605 -2.0744
  254MOL0     H34271   7.846   3.800   0.277  2.3518 -1.7206 -1.6861
  254MOL0     H34272   7.241   3.249   0.764  0.9984 -0.9644 -2.6747
  254MOL0     H34273   7.258   2.996   0.770 -4.0500 -1.7291  2.7381
  254MOL0     H34274   7.260   2.650   0.799  1.7034 -1.0403 -3.5218
  254MOL0     H34275   7.216   2.417   0.738 -1.7133  1.0538 -0.0200
  254MOL0     H34276   7.701   0.733   1.158  0.5923  0.0624  0.8941
  254MOL0     H34277   7.848   0.529   1.194 -0.3095  0.6431 -1.2365
  254MOL0     H34278   7.720   0.028   1.332 -0.7219 -0.4221 -1.9138
  254MOL0     H34279   7.784  -0.198   1.329  1.0032  1.6014  3.0089
  254MOL0     H34280   7.796  -0.386   1.295  0.0368  0.2326 -0.0501
  254MOL0     H34281   7.761  -0.387   1.121 -0.9846 -2.0163  0.2843
  254MOL0     H34282   7.996  -0.545   1.199 -0.9127  2.1028  0.4174
  254MOL0     H34283   7.878  -0.590   1.077 -1.0323 -0.9473  0.1917
  254MOL0     H34284   7.847  -0.621   1.379  1.9268 -0.3642 -0.7196
  254MOL0     H34285   7.834  -0.750   1.261  0.0583  1.0321 -1.7176
  254MOL0     H34286   7.645  -0.512   1.293 -1.0386  1.1217 -1.0618
  254MOL0     H34287   7.608  -0.687   1.348  2.0423 -2.3644 -0.7792
  254MOL0     H34288   7.459  -0.695   0.969  0.1491  1.9814 -1.2790
  254MOL0     H34289   8.082  -0.094   1.032 -0.0723  2.1575 -0.3088
  254MOL0     H34290   8.031   0.110   1.046 -0.4919 -0.0197 -0.1319
  255MOL0     O34291   4.287   5.193   3.365 -0.5855  0.0714 -0.1896
  255MOL0     C34292   4.285   5.285   3.286 -0.1522 -0.2943 -0.3218
  255MOL0     O34293   4.179   5.363   3.249 -0.0924 -0.4512 -0.6242
  255MOL0     C34294   4.055   5.312   3.260  0.5067 -0.6014  0.1371
  255MOL0     C34295   4.013   5.185   3.246 -0.5520 -0.5936  0.3591
  255MOL0     C34296   3.871   5.154   3.237  0.6586  0.4022 -0.0624
  255MOL0     C34297   3.770   5.244   3.246  0.1998 -0.4850 -0.0122
  255MOL0     O34298   3.642   5.202   3.244 -0.3949  0.4253  0.1937
  255MOL0     C34299   3.584   5.129   3.350  0.3549  0.6653 -1.0471
  255MOL0     C34300   3.453   5.048   3.317 -0.7275 -0.2534  0.4867
  255MOL0     C34301   3.411   4.949   3.428  0.3461 -0.1994  0.4341
  255MOL0     C34302   3.380   5.018   3.563  0.3482 -0.2675  0.6586
  255MOL0     C34303   3.238   5.062   3.570  0.5539  0.0303  0.1216
  255MOL0     C34304   3.200   5.151   3.683  1.0235  0.3543 -0.0924
  255MOL0     C34305   3.303   5.260   3.730  0.3944  1.8763 -0.3521
  255MOL0     C34306   3.253   5.402   3.696 -0.8143  0.6610 -0.4887
  255MOL0     N34307   3.243   5.419   3.552 -1.1145 -0.6687  0.2312
  255MOL0     C34308   3.360   5.439   3.482 -0.0608  0.6169  0.7792
  255MOL0     C34309   3.315   5.447   3.354 -0.1553  0.5319 -0.2605
  255MOL0     C34310   3.410   5.454   3.245  0.6901  0.4839  0.0193
  255MOL0     C34311   3.437   5.601   3.204  1.3621 -0.5112  0.5531
  255MOL0     C34312   3.525   5.599   3.085 -0.5641 -0.0788 -0.6028
  255MOL0     C34313   3.515   5.714   2.996  0.1221 -1.0116 -0.2596
  255MOL0     O34314   3.559   5.837   3.068 -0.1267 -0.3373 -0.1391
  255MOL0     C34315   3.678   5.835   3.130 -0.3674  0.5255 -0.1114
  255MOL0     C34316   3.796   5.831   3.058  0.0549 -0.1029 -0.3593
  255MOL0     C34317   3.921   5.814   3.126  0.3677  0.6668 -0.6256
  255MOL0     C34318   4.040   5.799   3.033  0.4495  0.4685 -0.6251
  255MOL0     C34319   3.923   5.805   3.270 -0.7104 -0.3755  0.3127
  255MOL0     C34320   4.055   5.779   3.348  1.0151  1.2814 -1.0908
  255MOL0     O34321   4.178   5.804   3.299  0.1246  0.2777  0.1559
  255MOL0     C34322   4.292   5.762   3.365  0.0217 -0.9463 -0.6460
  255MOL0     C34323   4.400   5.851   3.360  0.9017  0.6404  0.3504
  255MOL0     C34324   4.506   5.823   3.448  1.2021  0.1488 -0.1045
  255MOL0     C34325   4.501   5.713   3.531  0.1526  0.3993  1.1380
  255MOL0     O34326   4.610   5.705   3.610  0.6143 -0.3480  0.4317
  255MOL0     C34327   4.642   5.591   3.680 -0.2826  0.0295  0.2746
  255MOL0     C34328   4.766   5.625   3.763 -0.6078 -0.2719 -0.0282
  255MOL0     C34329   4.843   5.511   3.808 -0.1424 -0.4921 -0.5743
  255MOL0     C34330   4.762   5.427   3.902  0.7173 -0.1215 -0.2503
  255MOL0     C34331   4.843   5.325   3.990  0.2799  0.2239  0.8711
  255MOL0     C34332   4.743   5.257   4.086 -0.1489 -0.4181 -0.1986
  255MOL0     C34333   4.665   5.145   4.010  0.3160  0.9418  0.6632
  255MOL0     C34334   4.732   5.006   4.001 -0.3092  0.0693 -0.5054
  255MOL0    Cl34335   4.777   4.953   4.175 -0.3866 -0.7585 -0.1256
  255MOL0     C34336   4.395   5.620   3.528 -0.0257  1.2720 -0.0183
  255MOL0     C34337   4.289   5.655   3.448  0.3644  0.4331 -0.3174
  255MOL0     O34338   4.032   5.730   3.454 -0.5151  0.0810 -0.6021
  255MOL0     C34339   3.801   5.821   3.338  0.4411  0.6519 -0.2140
  255MOL0     C34340   3.678   5.842   3.270 -0.3922 -0.5105 -0.7719
  255MOL0     N34341   3.180   5.412   3.349 -0.7357  0.2796 -0.4835
  255MOL0     N34342   3.135   5.402   3.471  0.5030 -0.7341  0.4904
  255MOL0     C34343   3.820   5.371   3.259  0.4153 -0.2401 -0.3830
  255MOL0     C34344   3.955   5.406   3.265  0.4397 -0.1613 -0.1273
  255MOL0     C34345   4.408   5.337   3.242 -0.5291  0.4772 -0.4584
  255MOL0     C34346   4.536   5.272   3.285 -0.2595  0.7436  0.2043
  255MOL0     C34347   4.658   5.330   3.244 -0.9003 -0.3778 -1.1603
  255MOL0     C34348   4.666   5.453   3.171  1.2580 -0.1374 -1.7091
  255MOL0     O34349   4.790   5.501   3.141  0.1221 -0.4003  0.3933
  255MOL0     C34350   4.799   5.644   3.145  0.1946 -0.5078 -0.2993
  255MOL0     C34351   4.938   5.695   3.175 -0.2541  0.3623 -0.3417
  255MOL0     C34352   4.989   5.650   3.308  0.0260  0.4551 -0.2262
  255MOL0     C34353   4.940   5.733   3.435 -0.6169 -0.7506  0.6671
  255MOL0     C34354   5.004   5.870   3.442 -0.2134  0.8458 -0.1466
  255MOL0     C34355   5.057   5.991   3.436  0.5936  0.5262  0.2984
  255MOL0     C34356   4.545   5.509   3.132  0.8153  0.8984 -0.9401
  255MOL0     C34357   4.415   5.453   3.169 -0.7112 -0.6052 -0.3777
  255MOL0     H34358   4.071   5.093   3.247 -0.1758 -0.4518  3.7667
  255MOL0     H34359   3.853   5.047   3.243 -0.8421  0.7074  3.2067
  255MOL0     H34360   3.652   5.056   3.395  0.0894  2.2795  2.2757
  255MOL0     H34361   3.561   5.203   3.427  0.9689 -1.0121  0.8219
  255MOL0     H34362   3.373   5.116   3.287 -3.9029 -3.1195  1.7878
  255MOL0     H34363   3.495   4.993   3.233 -2.1342  2.1240 -1.8953
  255MOL0     H34364   3.322   4.896   3.392 -1.3157  3.7449 -1.8875
  255MOL0     H34365   3.484   4.871   3.450  0.7410 -0.5546 -1.8201
  255MOL0     H34366   3.391   4.944   3.643  0.3664  1.3759  2.2535
  255MOL0     H34367   3.456   5.095   3.578  1.9556 -1.3012 -1.7043
  255MOL0     H34368   3.227   5.129   3.484  1.2491  0.9272  0.7018
  255MOL0     H34369   3.169   4.978   3.561  0.9351 -0.3720  0.8295
  255MOL0     H34370   3.110   5.206   3.655  1.4486  1.4119  0.5204
  255MOL0     H34371   3.169   5.086   3.765 -0.3421  1.0309 -0.0469
  255MOL0     H34372   3.302   5.252   3.840  2.4270 -0.0428 -0.3984
  255MOL0     H34373   3.406   5.238   3.701 -0.1735  1.0147 -1.8067
  255MOL0     H34374   3.312   5.469   3.759 -0.1030  0.5901 -1.0623
  255MOL0     H34375   3.150   5.408   3.733 -1.4201 -3.2999 -1.1010
  255MOL0     H34376   3.465   5.443   3.507 -0.3903  1.8937  2.0985
  255MOL0     H34377   3.507   5.413   3.276 -0.7833 -2.4308  1.1093
  255MOL0     H34378   3.379   5.384   3.167  3.3855 -1.3516  0.4601
  255MOL0     H34379   3.483   5.651   3.290  3.5834 -2.7480  0.7630
  255MOL0     H34380   3.354   5.663   3.168  1.4622  0.0759  1.3066
  255MOL0     H34381   3.509   5.515   3.017  1.1156 -0.7281 -0.2471
  255MOL0     H34382   3.629   5.581   3.112 -1.3139 -5.4209 -0.0355
  255MOL0     H34383   3.408   5.725   2.976  0.2849  1.6084 -0.0413
  255MOL0     H34384   3.571   5.690   2.905  0.9245  1.5596 -0.5323
  255MOL0     H34385   3.785   5.841   2.951 -1.9060 -0.2846 -0.2109
  255MOL0     H34386   4.127   5.865   3.042  0.2730  0.5996  0.2638
  255MOL0     H34387   4.066   5.694   3.051 -0.6675 -0.2428 -2.7960
  255MOL0     H34388   4.007   5.819   2.931  0.5641 -1.2029 -1.0148
  255MOL0     H34389   4.398   5.938   3.295 -1.2408 -1.0921 -2.1047
  255MOL0     H34390   4.596   5.884   3.454  0.3939  1.2955  0.7924
  255MOL0     H34391   4.564   5.573   3.755  0.4639  1.6237  1.5085
  255MOL0     H34392   4.653   5.506   3.613  5.3130  1.5092 -1.2499
  255MOL0     H34393   4.830   5.694   3.708 -0.5384 -0.1295  0.2264
  255MOL0     H34394   4.729   5.681   3.850 -2.4353  1.2901 -1.7035
  255MOL0     H34395   4.925   5.557   3.865 -0.0688 -1.0194 -0.2445
  255MOL0     H34396   4.892   5.462   3.723  0.1266  0.0427 -0.7303
  255MOL0     H34397   4.713   5.507   3.959  4.0631  2.2628 -0.4010
  255MOL0     H34398   4.689   5.365   3.851  0.5606 -1.9079  1.9776
  255MOL0     H34399   4.918   5.375   4.052 -0.1723  0.7134  1.0322
  255MOL0     H34400   4.902   5.267   3.918  0.6886  3.9426 -2.1204
  255MOL0     H34401   4.795   5.234   4.180  1.9960  1.2358 -0.8808
  255MOL0     H34402   4.665   5.327   4.116  1.3648  1.6137 -0.8241
  255MOL0     H34403   4.645   5.170   3.905  3.5690 -1.5569 -0.7372
  255MOL0     H34404   4.567   5.141   4.059  0.8879 -5.2996  2.0663
  255MOL0     H34405   4.821   5.004   3.937 -0.3734  1.7398 -0.7132
  255MOL0     H34406   4.663   4.929   3.967 -1.5420 -1.3280  4.3655
  255MOL0     H34407   4.393   5.525   3.580 -2.6187  0.8552 -0.7312
  255MOL0     H34408   4.208   5.583   3.444  0.2429  0.5962 -1.0178
  255MOL0     H34409   3.791   5.825   3.446 -0.4932  0.1172 -0.2715
  255MOL0     H34410   3.589   5.846   3.332  0.5575 -0.7551  0.6465
  255MOL0     H34411   3.753   5.456   3.268  0.5387 -0.1191 -0.6044
  255MOL0     H34412   3.953   5.513   3.284 -2.4751 -0.4041  1.5032
  255MOL0     H34413   4.540   5.179   3.341  3.8522  0.9169  0.4441
  255MOL0     H34414   4.750   5.274   3.257 -0.8469  0.2336  1.7473
  255MOL0     H34415   4.768   5.679   3.046  1.1099  0.2808 -0.3211
  255MOL0     H34416   4.736   5.680   3.227  4.2043  2.6854  1.7214
  255MOL0     H34417   4.934   5.804   3.177  0.8667  0.4535 -1.3686
  255MOL0     H34418   4.999   5.658   3.092  1.1273 -0.7311  1.0876
  255MOL0     H34419   5.097   5.650   3.295 -0.0837 -1.5324 -1.6190
  255MOL0     H34420   4.948   5.551   3.331 -2.5702  1.5769  0.3353
  255MOL0     H34421   4.972   5.684   3.528  1.1682  0.1321  0.5550
  255MOL0     H34422   4.831   5.739   3.436 -0.7728 -1.7679  4.1358
  255MOL0     H34423   5.094   6.090   3.454 -2.0958  1.4787  1.0529
  255MOL0     H34424   4.561   5.591   3.063 -0.7197  0.8200 -1.4174
  255MOL0     H34425   4.333   5.512   3.130 -1.3727 -2.1233 -1.3956
  256MOL0     O34426   5.708   1.124   9.595  0.0805 -0.3933  0.4042
  256MOL0     C34427   5.664   1.025   9.535 -0.2062  0.7247 -0.3857
  256MOL0     O34428   5.620   0.913   9.594 -0.2670  1.3443 -0.8936
  256MOL0     C34429   5.653   0.881   9.727 -0.3081  0.1432  0.4468
  256MOL0     C34430   5.546   0.841   9.811  0.0750 -0.6480  0.7067
  256MOL0     C34431   5.574   0.821   9.946  1.2893 -0.5734  0.0502
  256MOL0     C34432   5.700   0.844  10.004 -1.0326  0.3306  0.5806
  256MOL0     O34433   5.715   0.841  10.134  0.9095  0.4275 -0.7558
  256MOL0     C34434   5.790   0.933  10.215  0.0100  0.5350  0.0417
  256MOL0     C34435   5.756   0.941  10.369  0.0729 -0.0032 -0.6592
  256MOL0     C34436   5.608   0.990  10.393 -1.5337  0.1854  0.2299
  256MOL0     C34437   5.535   0.872  10.453 -0.0013  0.3404 -0.2009
  256MOL0     C34438   5.393   0.891  10.478 -0.6831  0.5414 -0.2604
  256MOL0     C34439   5.362   0.955  10.623 -0.5365 -0.7221  0.0883
  256MOL0     C34440   5.208   0.982  10.628  0.0780  0.6525 -0.3175
  256MOL0     C34441   5.158   1.031  10.765 -0.4978  0.2659 -0.1657
  256MOL0     N34442   5.205   0.948  10.879 -0.2412 -0.0227  0.0447
  256MOL0     C34443   5.161   0.819  10.887 -0.0250 -0.3075  1.0121
  256MOL0     C34444   5.242   0.764  10.982  0.0142  0.0298  0.1677
  256MOL0     C34445   5.244   0.617  11.007 -0.0751  0.1235 -0.8513
  256MOL0     C34446   5.140   0.585  11.114 -0.0716 -0.3398 -0.7342
  256MOL0     C34447   5.123   0.429  11.123  0.7986 -1.0469  0.6245
  256MOL0     C34448   5.021   0.386  11.228  0.6043  0.1237 -0.1625
  256MOL0     O34449   4.895   0.444  11.183  1.5464  0.7950 -0.1275
  256MOL0     C34450   4.816   0.483  11.287  0.3976 -0.0078 -0.0051
  256MOL0     C34451   4.824   0.615  11.342 -0.9954 -0.1479  0.2202
  256MOL0     C34452   4.741   0.655  11.441  0.0078 -0.0663  1.0852
  256MOL0     C34453   4.748   0.805  11.476 -0.8613  0.6079 -0.4830
  256MOL0     C34454   4.670   0.560  11.516 -0.9544 -0.1480  0.0282
  256MOL0     C34455   4.593   0.581  11.641  0.1854 -0.3060  0.8033
  256MOL0     O34456   4.501   0.490  11.689  0.5479  0.6749 -0.0487
  256MOL0     C34457   4.403   0.439  11.606  0.7724 -0.3936 -0.6390
  256MOL0     C34458   4.366   0.503  11.493  0.4114 -0.6894  0.1799
  256MOL0     C34459   4.257   0.443  11.422  0.4158  0.4959  0.7873
  256MOL0     C34460   4.196   0.316  11.465 -0.4146 -0.8221  1.3321
  256MOL0     O34461   4.105   0.254  11.380  0.6050 -0.0165 -0.3487
  256MOL0     C34462   4.123   0.124  11.339  0.1259  0.3478 -0.2137
  256MOL0     C34463   4.022   0.086  11.228 -0.7807  0.1661  0.3261
  256MOL0     C34464   3.997  -0.064  11.215 -0.8267 -0.4239 -0.6118
  256MOL0     C34465   3.905  -0.079  11.101  0.7954 -0.3506  0.1481
  256MOL0     C34466   3.904  -0.224  11.067 -0.3818  0.2211  0.0743
  256MOL0     C34467   3.823  -0.271  10.953  0.5368 -0.0831  0.7987
  256MOL0     C34468   3.671  -0.271  10.988  0.0644 -0.0026  1.0638
  256MOL0     C34469   3.581  -0.332  10.889  0.4380 -0.5686 -0.2493
  256MOL0    Cl34470   3.602  -0.241  10.745  0.2491  0.0468 -0.1850
  256MOL0     C34471   4.242   0.250  11.579  0.8074  0.2427  0.5069
  256MOL0     C34472   4.340   0.319  11.655  0.9151  0.9056  0.0800
  256MOL0     O34473   4.625   0.680  11.709 -0.5220  0.8958  0.0015
  256MOL0     C34474   4.664   0.428  11.458 -0.1891 -0.1269 -1.1300
  256MOL0     C34475   4.733   0.392  11.341 -0.0161 -0.0490 -0.0656
  256MOL0     N34476   5.326   0.867  11.033 -0.4163 -0.8627 -1.0769
  256MOL0     N34477   5.298   0.977  10.974 -0.6912 -0.4557  0.5468
  256MOL0     C34478   5.809   0.876   9.915  0.1575  0.1331 -0.2246
  256MOL0     C34479   5.781   0.897   9.782  0.4411  0.1045 -0.2577
  256MOL0     C34480   5.625   1.043   9.383  0.4965  1.3560  0.5059
  256MOL0     C34481   5.676   1.148   9.301  0.6174  0.8107  0.9701
  256MOL0     C34482   5.642   1.155   9.168  0.0256 -0.3157  0.1384
  256MOL0     C34483   5.551   1.079   9.108  0.3606  0.3264 -0.6057
  256MOL0     O34484   5.510   1.095   8.975  0.6313 -0.0483 -0.0670
  256MOL0     C34485   5.530   1.215   8.911 -0.3132  0.5702  0.1109
  256MOL0     C34486   5.488   1.218   8.761 -0.2543  0.5465 -1.6599
  256MOL0     C34487   5.514   1.354   8.694  0.2519 -1.1475 -1.2145
  256MOL0     C34488   5.469   1.345   8.546 -0.5576  0.6234 -0.8142
  256MOL0     C34489   5.492   1.461   8.463 -0.7551 -1.1064  0.2693
  256MOL0     C34490   5.512   1.561   8.395 -0.1313  0.9275  0.1267
  256MOL0     C34491   5.503   0.971   9.186 -0.2105  0.1044 -0.2890
  256MOL0     C34492   5.545   0.953   9.319  0.5714 -1.0824 -0.6474
  256MOL0     H34493   5.446   0.838   9.770 -0.5090  0.0600  2.0142
  256MOL0     H34494   5.489   0.797  10.009 -0.7455  0.4151 -2.1825
  256MOL0     H34495   5.891   0.894  10.207 -1.1075 -2.8738  1.0899
  256MOL0     H34496   5.792   1.039  10.186 -2.1090  0.2730 -1.3289
  256MOL0     H34497   5.761   0.841  10.414 -0.0595  1.2997  2.5279
  256MOL0     H34498   5.831   1.006  10.414 -0.7646 -0.0519  0.8720
  256MOL0     H34499   5.610   1.059  10.479  0.6857 -0.3955  0.7049
  256MOL0     H34500   5.557   1.032  10.306  1.4518  2.6799 -0.5195
  256MOL0     H34501   5.545   0.796  10.374  1.4145  0.3403 -0.0427
  256MOL0     H34502   5.588   0.846  10.544  0.1695  0.8106 -0.1660
  256MOL0     H34503   5.342   0.947  10.399  0.8979  0.3089 -1.4944
  256MOL0     H34504   5.347   0.792  10.486 -2.2887  1.2640 -0.1526
  256MOL0     H34505   5.394   0.884  10.699  0.9880 -0.0176  0.1393
  256MOL0     H34506   5.406   1.052  10.646 -1.4014 -0.6304  1.4643
  256MOL0     H34507   5.173   1.051  10.552  2.6062 -2.0461 -4.3262
  256MOL0     H34508   5.163   0.887  10.596  0.9898  0.2831 -0.5459
  256MOL0     H34509   5.050   1.033  10.780 -0.2640 -1.2750  2.5292
  256MOL0     H34510   5.199   1.132  10.776  0.7517  0.1573 -3.0335
  256MOL0     H34511   5.086   0.769  10.827  2.0312 -0.8814 -1.2581
  256MOL0     H34512   5.239   0.556  10.916  1.0319 -1.2135 -0.0563
  256MOL0     H34513   5.334   0.575  11.052  1.0997  0.8212 -2.4416
  256MOL0     H34514   5.042   0.630  11.095 -0.7535  1.2197  4.8307
  256MOL0     H34515   5.169   0.634  11.207 -0.7843 -0.4604 -0.4407
  256MOL0     H34516   5.216   0.389  11.163 -0.7177 -2.0923  3.3730
  256MOL0     H34517   5.103   0.389  11.023 -3.0121 -1.8667  1.5445
  256MOL0     H34518   5.053   0.415  11.329 -1.1699  0.5485  0.3117
  256MOL0     H34519   5.016   0.277  11.235  1.7325  0.0842  0.1673
  256MOL0     H34520   4.897   0.684  11.301  0.6249 -1.7512  0.2681
  256MOL0     H34521   4.801   0.861  11.398 -1.6291  0.6076 -1.0139
  256MOL0     H34522   4.645   0.842  11.472 -0.1271  2.6975 -1.1962
  256MOL0     H34523   4.792   0.827  11.574  0.0759 -0.7746 -0.5682
  256MOL0     H34524   4.411   0.597  11.463 -0.2442  1.0497  4.0987
  256MOL0     H34525   4.210   0.474  11.329 -1.0968 -2.7134  0.3267
  256MOL0     H34526   4.226   0.115  11.301  0.6275  0.3600  1.1053
  256MOL0     H34527   4.100   0.052  11.418 -3.4227 -2.4601 -3.4199
  256MOL0     H34528   3.927   0.135  11.249 -2.2596  0.3157 -5.0383
  256MOL0     H34529   4.060   0.131  11.135  2.2404 -3.7428 -0.6449
  256MOL0     H34530   3.954  -0.108  11.305 -0.3711 -1.1235 -0.7299
  256MOL0     H34531   4.094  -0.115  11.209  0.5607  2.0848 -1.1364
  256MOL0     H34532   3.803  -0.045  11.120  1.4416  1.5386  0.4272
  256MOL0     H34533   3.938  -0.025  11.012 -1.0553 -0.3946 -0.6123
  256MOL0     H34534   3.870  -0.293  11.145  5.6409 -4.1627 -0.5167
  256MOL0     H34535   4.003  -0.263  11.043 -0.4948 -0.9316  1.3182
  256MOL0     H34536   3.843  -0.197  10.875  3.9588  1.0277  2.5302
  256MOL0     H34537   3.855  -0.369  10.917 -1.2333 -1.1108  1.8640
  256MOL0     H34538   3.647  -0.164  10.991  0.1246  0.0823 -0.7557
  256MOL0     H34539   3.639  -0.332  11.073  1.3521  2.3446  3.3744
  256MOL0     H34540   3.475  -0.324  10.917  0.5649  0.5646 -0.0675
  256MOL0     H34541   3.597  -0.438  10.869  0.2877 -0.3938 -1.3466
  256MOL0     H34542   4.181   0.166  11.611  1.9929 -0.7594  0.2320
  256MOL0     H34543   4.351   0.288  11.758  0.9228 -1.6337 -0.6250
  256MOL0     H34544   4.602   0.352  11.504 -0.2055 -0.0073 -0.9561
  256MOL0     H34545   4.723   0.293  11.299  0.1843 -0.1536  0.1359
  256MOL0     H34546   5.910   0.886   9.953 -0.0945  3.5340 -0.1405
  256MOL0     H34547   5.872   0.914   9.725  1.4536  1.1085  1.5538
  256MOL0     H34548   5.749   1.220   9.337  2.6470 -2.5831  4.3253
  256MOL0     H34549   5.685   1.233   9.107  1.8668  0.6038  2.4424
  256MOL0     H34550   5.480   1.297   8.964 -2.1715 -1.0142  0.9166
  256MOL0     H34551   5.637   1.238   8.911 -0.1912  0.0132 -0.2366
  256MOL0     H34552   5.383   1.187   8.758 -0.0280 -0.4314 -0.3674
  256MOL0     H34553   5.557   1.145   8.718  2.0583  0.6024  1.5947
  256MOL0     H34554   5.620   1.378   8.705 -0.3572  0.9904  0.5821
  256MOL0     H34555   5.461   1.425   8.757  0.7379 -0.4521 -1.5724
  256MOL0     H34556   5.364   1.314   8.542 -0.4714  0.0169  0.9768
  256MOL0     H34557   5.518   1.257   8.502  0.5790  1.1230 -0.5648
  256MOL0     H34558   5.514   1.631   8.314  0.0288  0.2462 -0.4664
  256MOL0     H34559   5.430   0.898   9.153  1.6686 -1.3114 -1.5775
  256MOL0     H34560   5.485   0.875   9.365 -4.9550  1.7946 -2.0934
  257MOL0     O34561   4.919   9.354   7.371 -0.5669  0.0537  0.4844
  257MOL0     C34562   4.971   9.288   7.461 -0.7125 -0.8591 -0.2019
  257MOL0     O34563   5.093   9.311   7.517 -0.7529 -0.0515  0.4326
  257MOL0     C34564   5.185   9.401   7.478 -0.1339  0.5343  0.7913
  257MOL0     C34565   5.152   9.534   7.447  0.3721 -0.0272 -0.3917
  257MOL0     C34566   5.257   9.621   7.421  0.0826  0.5609 -0.8581
  257MOL0     C34567   5.395   9.582   7.405 -0.3685  1.4407 -0.0288
  257MOL0     O34568   5.501   9.664   7.372  0.3552 -0.2138 -0.2842
  257MOL0     C34569   5.526   9.788   7.437  0.4575 -1.3323 -0.3917
  257MOL0     C34570   5.609   9.769   7.565 -0.6081  0.0997  0.5785
  257MOL0     C34571   5.604   9.890   7.654  0.2276 -0.6418  0.4402
  257MOL0     C34572   5.674  10.020   7.586  0.6573  0.2859  0.2847
  257MOL0     C34573   5.818  10.050   7.635  0.6239  0.2425  0.6324
  257MOL0     C34574   5.866  10.169   7.554 -0.1938 -0.1664  0.2132
  257MOL0     C34575   5.941  10.133   7.428 -0.3460 -0.3396  0.5043
  257MOL0     C34576   6.005  10.260   7.365 -0.5381 -0.2821 -1.2080
  257MOL0     N34577   6.109  10.265   7.253  0.0814  0.5328  0.9231
  257MOL0     C34578   6.174  10.156   7.207 -0.6204  0.4265  0.1511
  257MOL0     C34579   6.247  10.203   7.104  0.2243 -0.3541 -0.2312
  257MOL0     C34580   6.354  10.131   7.032  0.0982  0.9753  0.2789
  257MOL0     C34581   6.468  10.115   7.129  0.2724 -0.0023  0.5522
  257MOL0     C34582   6.591  10.084   7.054 -0.1128  0.5122  0.3762
  257MOL0     C34583   6.669  10.214   7.006  0.3383  0.6096  0.5813
  257MOL0     O34584   6.810  10.179   6.997  0.3059  0.7153 -0.1486
  257MOL0     C34585   6.885  10.203   7.108  0.3500 -0.4213 -0.1513
  257MOL0     C34586   6.943  10.104   7.186 -0.3057  0.3557  0.9430
  257MOL0     C34587   7.032  10.129   7.293 -0.6483 -1.0160 -0.6341
  257MOL0     C34588   7.091  10.008   7.364 -0.1517 -1.0902  0.0232
  257MOL0     C34589   7.055  10.262   7.328  0.2855  0.0401 -0.1344
  257MOL0     C34590   7.132  10.300   7.440 -0.2895 -0.4281 -0.9024
  257MOL0     O34591   7.139  10.213   7.545  0.4868 -0.6165 -0.2517
  257MOL0     C34592   7.215  10.234   7.648 -0.1688 -0.4208 -1.3750
  257MOL0     C34593   7.358  10.273   7.639  0.4614 -0.3950  0.6187
  257MOL0     C34594   7.427  10.298   7.755  0.5735 -0.0077  0.5866
  257MOL0     C34595   7.372  10.284   7.887  0.1202 -0.5290 -0.2561
  257MOL0     O34596   7.438  10.312   7.999  0.9100  1.0320 -0.2709
  257MOL0     C34597   7.567  10.366   8.008  0.0872  0.2722 -0.7548
  257MOL0     C34598   7.616  10.378   8.154  0.2121 -0.8007 -0.4149
  257MOL0     C34599   7.532  10.486   8.226  0.5272  0.3642  0.8085
  257MOL0     C34600   7.610  10.557   8.334  0.5579 -0.7252  0.4915
  257MOL0     C34601   7.533  10.677   8.393  0.1196 -0.1409 -0.4428
  257MOL0     C34602   7.387  10.637   8.425  0.4147  0.1416 -0.1117
  257MOL0     C34603   7.316  10.743   8.506  0.6390  0.0659 -0.1086
  257MOL0     C34604   7.343  10.729   8.653  0.0287 -0.2708 -0.4259
  257MOL0    Cl34605   7.287  10.568   8.729  0.4375  0.3775 -0.0674
  257MOL0     C34606   7.234  10.259   7.897  0.1353  0.3820  0.1764
  257MOL0     C34607   7.163  10.231   7.781  0.4493 -0.0431  0.2117
  257MOL0     O34608   7.194  10.407   7.423  0.2253 -0.0564  0.2575
  257MOL0     C34609   7.013  10.358   7.240  0.8960 -0.2355  0.7076
  257MOL0     C34610   6.931  10.329   7.133 -0.6345  0.5332  0.8423
  257MOL0     N34611   6.216  10.333   7.084  0.7925 -0.1734  0.0244
  257MOL0     N34612   6.119  10.363   7.157 -0.6504  0.8881  0.0813
  257MOL0     C34613   5.422   9.459   7.423  0.5655  0.2561 -0.2510
  257MOL0     C34614   5.325   9.367   7.470  0.1398  0.3991 -0.4265
  257MOL0     C34615   4.895   9.181   7.524  0.3731 -1.1570 -0.8572
  257MOL0     C34616   4.754   9.170   7.518 -0.0175  0.3060  0.1707
  257MOL0     C34617   4.698   9.063   7.576 -0.3723  0.5339 -0.1931
  257MOL0     C34618   4.767   8.964   7.637 -0.9221  1.1178 -0.2825
  257MOL0     O34619   4.699   8.878   7.719  0.5880  0.8400  0.0246
  257MOL0     C34620   4.700   8.745   7.668 -0.2832  0.3427 -0.0973
  257MOL0     C34621   4.713   8.638   7.781 -0.3398  0.7655 -0.6398
  257MOL0     C34622   4.611   8.647   7.900 -0.8459  0.3130  0.1118
  257MOL0     C34623   4.641   8.535   8.005 -0.1459 -0.4626 -0.2568
  257MOL0     C34624   4.627   8.396   7.961  1.2337 -0.7006  0.6141
  257MOL0     C34625   4.619   8.278   7.921 -0.1625 -0.2280  0.5249
  257MOL0     C34626   4.903   8.958   7.647 -0.6644 -0.5828  0.5966
  257MOL0     C34627   4.963   9.062   7.579 -0.2220 -0.1582  0.5538
  257MOL0     H34628   5.048   9.565   7.456 -0.1128 -1.1760 -1.7608
  257MOL0     H34629   5.227   9.724   7.410 -1.2105  0.3171  0.0837
  257MOL0     H34630   5.590   9.852   7.374 -1.4205 -0.8512 -1.9002
  257MOL0     H34631   5.431   9.836   7.458 -1.0900 -3.6885 -1.5370
  257MOL0     H34632   5.569   9.693   7.632 -1.2579 -0.5702 -0.5467
  257MOL0     H34633   5.712   9.755   7.531 -1.7218 -0.5481 -2.8773
  257MOL0     H34634   5.502   9.923   7.674  1.4919  4.4848  0.0532
  257MOL0     H34635   5.658   9.880   7.749  1.6769  1.4562 -0.0750
  257MOL0     H34636   5.681  10.014   7.477  1.2724  2.2968  0.1722
  257MOL0     H34637   5.612  10.108   7.605  0.5250  0.3171 -0.2669
  257MOL0     H34638   5.833  10.074   7.741 -0.7116 -0.9081  1.1172
  257MOL0     H34639   5.882   9.965   7.608  0.1327 -0.0763  0.4765
  257MOL0     H34640   5.793  10.245   7.524  0.1578  0.7315  1.5354
  257MOL0     H34641   5.923  10.229   7.626 -0.1925 -0.3177  0.3405
  257MOL0     H34642   6.026  10.068   7.454 -1.6701 -1.0780  3.3856
  257MOL0     H34643   5.886  10.087   7.345 -1.8697  1.4803  0.4465
  257MOL0     H34644   6.062  10.298   7.450 -2.9821 -2.5079  1.6793
  257MOL0     H34645   5.917  10.321   7.343 -2.1236 -2.3717 -1.0458
  257MOL0     H34646   6.175  10.056   7.249  1.0929  0.3119 -0.0871
  257MOL0     H34647   6.335  10.032   6.990  3.6056 -0.2480  1.2114
  257MOL0     H34648   6.392  10.188   6.947  0.6155  1.3372  0.7400
  257MOL0     H34649   6.453  10.031   7.198 -1.3540 -0.0188  0.2051
  257MOL0     H34650   6.488  10.202   7.193 -0.7780  0.5526  0.1450
  257MOL0     H34651   6.560  10.021   6.970  1.5380 -0.8317  0.6982
  257MOL0     H34652   6.662  10.034   7.120  1.5964  0.0205 -1.7036
  257MOL0     H34653   6.641  10.301   7.066  2.6056  1.2019  0.8503
  257MOL0     H34654   6.625  10.226   6.907 -2.9705 -3.8644  1.1833
  257MOL0     H34655   6.910  10.002   7.170 -1.4408  0.6897  1.0411
  257MOL0     H34656   7.194  10.033   7.388  0.4199 -0.0942 -3.0802
  257MOL0     H34657   7.033   9.978   7.452  0.5670 -0.2780  0.7970
  257MOL0     H34658   7.088   9.932   7.286 -0.0041 -1.6194  0.5237
  257MOL0     H34659   7.408  10.291   7.544  0.1420 -1.6317  0.1956
  257MOL0     H34660   7.531  10.321   7.735  1.2532 -3.2067 -0.1923
  257MOL0     H34661   7.654  10.322   7.957  1.2982  1.0255  0.5861
  257MOL0     H34662   7.551  10.467   7.968  1.8787  0.2255 -1.6621
  257MOL0     H34663   7.590  10.281   8.198  0.6699 -1.6261 -1.8714
  257MOL0     H34664   7.722  10.398   8.168 -0.0433 -1.3450  3.3894
  257MOL0     H34665   7.439  10.448   8.268  0.7765  3.1233  4.2870
  257MOL0     H34666   7.510  10.557   8.146 -0.2688 -0.6757  0.0918
  257MOL0     H34667   7.643  10.497   8.420  2.2253 -2.7938 -1.4680
  257MOL0     H34668   7.704  10.596   8.293 -0.5661  1.1684 -0.4186
  257MOL0     H34669   7.553  10.771   8.339 -0.9041  1.0499  1.1477
  257MOL0     H34670   7.578  10.712   8.487 -0.5774  1.6481 -0.7158
  257MOL0     H34671   7.325  10.636   8.335 -2.0137 -1.4393  1.4620
  257MOL0     H34672   7.382  10.542   8.480 -0.4280 -1.2789 -2.4670
  257MOL0     H34673   7.210  10.736   8.477  1.3029 -4.3885 -2.3154
  257MOL0     H34674   7.359  10.834   8.464  0.3382 -0.9503 -2.8608
  257MOL0     H34675   7.275  10.800   8.701  1.0333 -0.1480  0.8621
  257MOL0     H34676   7.446  10.752   8.683 -0.0460 -0.9325  0.3507
  257MOL0     H34677   7.194  10.258   7.997 -0.2346 -0.9938  0.0361
  257MOL0     H34678   7.056  10.215   7.790  0.8868 -2.3072  2.3366
  257MOL0     H34679   7.037  10.463   7.244 -0.8438  0.2960 -1.2408
  257MOL0     H34680   6.904  10.407   7.062  2.1159  2.3641  1.6653
  257MOL0     H34681   5.523   9.420   7.428  0.2835 -0.8184 -1.9717
  257MOL0     H34682   5.368   9.269   7.492  1.2380  1.1523  0.9225
  257MOL0     H34683   4.700   9.246   7.462 -0.8178  0.3860  1.0173
  257MOL0     H34684   4.591   9.058   7.589 -0.7335 -1.3349 -3.1409
  257MOL0     H34685   4.606   8.738   7.613  0.0688  4.4721 -1.5542
  257MOL0     H34686   4.782   8.725   7.597 -0.4628 -2.0512  0.2899
  257MOL0     H34687   4.817   8.646   7.815 -0.2654  1.3597 -1.0019
  257MOL0     H34688   4.713   8.536   7.741  0.6154  0.0011  1.1542
  257MOL0     H34689   4.511   8.637   7.859 -0.5621  0.0809 -0.5364
  257MOL0     H34690   4.608   8.751   7.933  0.4174  0.7156 -0.9494
  257MOL0     H34691   4.583   8.547   8.097 -2.4638  2.7117 -1.9357
  257MOL0     H34692   4.737   8.557   8.053 -0.0114  2.2246 -1.5694
  257MOL0     H34693   4.627   8.174   7.895  2.2306 -0.7207  2.7992
  257MOL0     H34694   4.951   8.876   7.699  2.2980  0.3124 -0.5398
  257MOL0     H34695   5.071   9.075   7.577 -0.4220  2.0809 -1.6663
  258MOL0     O34696   7.019   9.924   7.941  0.8205  0.0021  0.0200
  258MOL0     C34697   7.092   9.852   8.006 -0.6812  0.0896  0.8006
  258MOL0     O34698   7.141   9.732   7.967 -1.0029 -0.4826 -0.4548
  258MOL0     C34699   7.089   9.657   7.866  0.1107 -0.3918 -0.4469
  258MOL0     C34700   7.078   9.515   7.873  0.5664 -0.7181 -0.5437
  258MOL0     C34701   7.023   9.432   7.778 -0.2541 -0.1122  0.3657
  258MOL0     C34702   6.968   9.490   7.664  0.3455  0.7758 -0.5046
  258MOL0     O34703   6.908   9.434   7.549  0.0768 -0.3768 -0.4920
  258MOL0     C34704   6.969   9.310   7.511  0.6305  0.0369  0.2735
  258MOL0     C34705   6.915   9.254   7.378  0.2314  0.1653 -0.0984
  258MOL0     C34706   6.927   9.357   7.266 -0.9049 -0.7330 -0.0247
  258MOL0     C34707   7.088   9.376   7.253 -0.5631 -0.2092 -0.1042
  258MOL0     C34708   7.120   9.431   7.111  0.4405  0.4201  0.1619
  258MOL0     C34709   7.263   9.488   7.101 -0.8373  0.1114  0.6837
  258MOL0     C34710   7.378   9.397   7.064  0.3028  0.8106 -0.7904
  258MOL0     C34711   7.436   9.395   6.917  0.3987 -0.5145  1.6663
  258MOL0     N34712   7.547   9.488   6.904 -0.7654  0.5363  0.1124
  258MOL0     C34713   7.667   9.437   6.890 -0.1453 -0.6061 -0.9657
  258MOL0     C34714   7.744   9.532   6.830  0.2580 -0.1968 -1.4233
  258MOL0     C34715   7.886   9.531   6.792 -0.2164  0.4273 -0.5803
  258MOL0     C34716   7.896   9.534   6.638  1.1085  0.6488 -0.9141
  258MOL0     C34717   7.944   9.664   6.580 -0.1752 -0.3286  0.5113
  258MOL0     C34718   7.917   9.660   6.437  0.1781 -0.2376  0.0530
  258MOL0     O34719   7.942   9.782   6.379 -0.6097  0.0476  0.5638
  258MOL0     C34720   7.926   9.782   6.241 -0.1621 -0.4788 -0.3012
  258MOL0     C34721   7.946   9.904   6.176 -0.2782  0.8117  0.9757
  258MOL0     C34722   7.931   9.917   6.036 -1.1401  0.6840 -0.0395
  258MOL0     C34723   7.938  10.057   5.990 -0.3229  0.4097  0.4638
  258MOL0     C34724   7.893   9.798   5.959  0.1173  0.7747 -0.2314
  258MOL0     C34725   7.869   9.788   5.810  0.3287 -0.2384 -1.2787
  258MOL0     O34726   7.835   9.901   5.731 -0.0939 -0.2954  0.0155
  258MOL0     C34727   7.874   9.898   5.597  0.9250  0.2536 -0.4108
  258MOL0     C34728   8.003   9.854   5.564  0.0110  0.2797 -0.3738
  258MOL0     C34729   8.042   9.839   5.424 -0.2814 -0.1831 -0.0812
  258MOL0     C34730   7.945   9.862   5.328  0.2839  0.2081 -0.1456
  258MOL0     O34731   7.950   9.843   5.188 -0.3063  0.5251 -0.6894
  258MOL0     C34732   8.067   9.779   5.133  0.1069 -0.3705 -0.7844
  258MOL0     C34733   8.040   9.777   4.982  0.2717  0.5904 -0.1837
  258MOL0     C34734   8.165   9.719   4.902 -0.1288 -0.3936  0.1664
  258MOL0     C34735   8.157   9.688   4.747 -0.0344  0.0212 -0.1646
  258MOL0     C34736   8.032   9.599   4.695  0.1978 -0.9084 -0.1190
  258MOL0     C34737   8.048   9.554   4.554  0.0832 -0.0667 -0.1306
  258MOL0     C34738   8.156   9.435   4.546  0.0894  0.0748  0.4928
  258MOL0     C34739   8.098   9.302   4.520 -0.4384 -1.1420  0.3232
  258MOL0    Cl34740   7.999   9.241   4.660 -0.2652 -0.0260  0.0957
  258MOL0     C34741   7.816   9.917   5.365  0.4432 -0.1108  0.5752
  258MOL0     C34742   7.786   9.939   5.498  0.8365  0.7008  0.0977
  258MOL0     O34743   7.884   9.677   5.764  0.0107  0.6198 -0.0241
  258MOL0     C34744   7.882   9.672   6.023  0.9763 -0.1410 -0.8740
  258MOL0     C34745   7.891   9.668   6.163  0.1141  0.6064  0.0375
  258MOL0     N34746   7.661   9.644   6.817  0.0841 -0.2116  0.1511
  258MOL0     N34747   7.545   9.616   6.859  0.8031 -0.4774 -0.0639
  258MOL0     C34748   6.976   9.626   7.647  0.2567  0.1746  0.0252
  258MOL0     C34749   7.036   9.703   7.743 -0.5936 -0.6126  0.3242
  258MOL0     C34750   7.153   9.904   8.139 -0.4673 -0.3658  1.2838
  258MOL0     C34751   7.228   9.812   8.213  0.0248 -0.8137 -0.7103
  258MOL0     C34752   7.280   9.850   8.340  0.1641 -0.4830 -0.1724
  258MOL0     C34753   7.275   9.983   8.388  0.2943  0.1181  0.4523
  258MOL0     O34754   7.336  10.004   8.509 -0.0028 -0.2906 -0.4005
  258MOL0     C34755   7.345  10.138   8.571  0.4349  0.1687 -0.3482
  258MOL0     C34756   7.410  10.149   8.707 -0.5342  0.6974  0.4955
  258MOL0     C34757   7.552  10.098   8.714  1.1446 -0.8362 -0.9649
  258MOL0     C34758   7.650  10.182   8.633 -0.2194 -1.3560  0.1819
  258MOL0     C34759   7.664  10.317   8.702 -0.7574  0.9868 -0.3605
  258MOL0     C34760   7.669  10.418   8.775  0.4165  0.8040 -0.1972
  258MOL0     C34761   7.204  10.076   8.311  0.1612  0.1170  0.1795
  258MOL0     C34762   7.145  10.040   8.183 -0.7104 -1.4296 -0.7601
  258MOL0     H34763   7.131   9.462   7.951 -0.6689  1.2565  1.7857
  258MOL0     H34764   7.011   9.330   7.814 -2.4908  0.5296  1.7087
  258MOL0     H34765   7.078   9.310   7.522  0.9838 -0.8486 -2.5000
  258MOL0     H34766   6.931   9.239   7.585  1.9663  0.4393  1.3912
  258MOL0     H34767   6.979   9.168   7.355  1.0949  0.3454  1.4595
  258MOL0     H34768   6.812   9.226   7.397  0.5658  0.7978  3.3181
  258MOL0     H34769   6.884   9.301   7.183  2.4106 -0.9618 -1.7582
  258MOL0     H34770   6.877   9.452   7.289  4.3676  2.3748  0.2359
  258MOL0     H34771   7.131   9.456   7.315  1.2123 -1.0616 -0.1820
  258MOL0     H34772   7.152   9.291   7.276  0.0647  0.7157  1.8146
  258MOL0     H34773   7.118   9.345   7.042 -0.3467 -0.8355  1.6815
  258MOL0     H34774   7.045   9.507   7.091 -1.0724 -0.7228  1.3274
  258MOL0     H34775   7.248   9.570   7.030  0.9069  0.1480  0.3136
  258MOL0     H34776   7.301   9.524   7.197  2.1649 -1.4210  0.1990
  258MOL0     H34777   7.463   9.425   7.126 -1.5077  0.2225  2.1658
  258MOL0     H34778   7.340   9.299   7.094 -1.9351  1.1160 -2.3600
  258MOL0     H34779   7.348   9.431   6.862  1.1584  1.1268  1.4449
  258MOL0     H34780   7.474   9.299   6.882  1.5938  0.1735  1.0082
  258MOL0     H34781   7.706   9.341   6.924  2.6698  0.8104  0.2287
  258MOL0     H34782   7.923   9.632   6.815 -1.7093  0.9594 -0.3527
  258MOL0     H34783   7.952   9.454   6.831 -0.0585 -0.3882 -2.3786
  258MOL0     H34784   7.798   9.519   6.592  2.0872  1.0408 -3.2800
  258MOL0     H34785   7.955   9.451   6.599  0.8316  0.6761 -1.4079
  258MOL0     H34786   8.051   9.682   6.591 -0.5262  0.1656  4.3240
  258MOL0     H34787   7.892   9.745   6.631 -1.1528 -0.8233  0.3335
  258MOL0     H34788   7.809   9.646   6.426  0.6637 -3.7215 -1.3439
  258MOL0     H34789   7.972   9.576   6.394  0.7754  0.8343 -1.3329
  258MOL0     H34790   7.983   9.987   6.236 -1.2655 -0.2994  3.2459
  258MOL0     H34791   8.036  10.105   6.000  1.6650 -2.4011 -2.9617
  258MOL0     H34792   7.894  10.069   5.890  2.3243 -0.5639 -0.9322
  258MOL0     H34793   7.875  10.101   6.067 -0.0164  0.6994  0.5524
  258MOL0     H34794   8.082   9.839   5.637  2.0936  2.6305 -1.9619
  258MOL0     H34795   8.141   9.806   5.392 -0.1748  0.9804 -1.0038
  258MOL0     H34796   8.157   9.838   5.151 -0.9788  0.5362  2.3686
  258MOL0     H34797   8.077   9.676   5.167  1.0825  0.7571  2.8272
  258MOL0     H34798   7.957   9.707   4.967  0.7184 -1.4690  4.8268
  258MOL0     H34799   8.002   9.873   4.945 -2.6325 -0.4877 -0.2026
  258MOL0     H34800   8.196   9.624   4.949  2.0628  0.5153  0.6731
  258MOL0     H34801   8.240   9.798   4.910 -0.6983  0.0970  0.7217
  258MOL0     H34802   8.139   9.780   4.692 -1.3028 -0.9176 -1.4111
  258MOL0     H34803   8.248   9.647   4.703 -0.9315 -0.3813 -1.6993
  258MOL0     H34804   7.949   9.668   4.713  1.7325  1.6156 -2.1350
  258MOL0     H34805   8.013   9.503   4.744 -1.9235 -1.0515 -1.1107
  258MOL0     H34806   7.951   9.530   4.511 -0.4208  1.6330 -0.0219
  258MOL0     H34807   8.075   9.643   4.496 -0.7135  2.1435  2.6586
  258MOL0     H34808   8.230   9.433   4.626  0.6127 -0.2840  0.0167
  258MOL0     H34809   8.216   9.446   4.454 -0.1851 -0.2624  0.2707
  258MOL0     H34810   8.174   9.229   4.489 -0.5299 -0.2287 -2.3132
  258MOL0     H34811   8.039   9.316   4.429  0.7911  2.1466 -0.0907
  258MOL0     H34812   7.730   9.926   5.300  0.1330  0.9786  1.0987
  258MOL0     H34813   7.684   9.973   5.516  0.6145  0.3823 -0.5316
  258MOL0     H34814   7.843   9.589   5.964  0.1282  1.1110 -2.1512
  258MOL0     H34815   7.905   9.567   6.199 -1.1759  0.2101 -0.5124
  258MOL0     H34816   6.934   9.678   7.561 -1.5337  2.0470  1.8907
  258MOL0     H34817   7.038   9.810   7.722 -3.8802 -0.6322 -0.6127
  258MOL0     H34818   7.243   9.707   8.191  2.4323 -0.5880 -0.4669
  258MOL0     H34819   7.331   9.760   8.374  3.8398  0.5906 -2.2278
  258MOL0     H34820   7.379  10.205   8.492 -0.8696  0.5070 -0.6513
  258MOL0     H34821   7.242  10.172   8.590  0.7947  0.5494  1.0897
  258MOL0     H34822   7.346  10.090   8.773  0.2826 -3.2793 -1.9478
  258MOL0     H34823   7.412  10.254   8.737 -0.5654  1.0853 -0.8051
  258MOL0     H34824   7.564   9.991   8.692  0.2036 -1.6441  1.9225
  258MOL0     H34825   7.575  10.100   8.821 -3.5209 -4.7698  0.4768
  258MOL0     H34826   7.609  10.183   8.532  1.0326 -0.9049 -0.3388
  258MOL0     H34827   7.745  10.130   8.622 -0.3523 -1.4252 -0.6885
  258MOL0     H34828   7.663  10.487   8.857 -2.4270 -0.9332  1.2131
  258MOL0     H34829   7.196  10.177   8.349  0.7795  1.6309 -3.3274
  258MOL0     H34830   7.078  10.098   8.123 -2.4110 -0.6170  1.7556
  259MOL0     O34831  10.894   9.293   0.327 -0.0238  0.5879  0.0579
  259MOL0     C34832  10.810   9.231   0.379  0.1093 -0.9814 -0.2714
  259MOL0     O34833  10.794   9.216   0.524  0.0089  0.5480 -0.3255
  259MOL0     C34834  10.829   9.329   0.604  0.3438  0.5362  0.0648
  259MOL0     C34835  10.936   9.302   0.687 -0.5224 -0.5152  0.4161
  259MOL0     C34836  10.964   9.396   0.789 -0.5792 -0.3644 -0.3043
  259MOL0     C34837  10.890   9.514   0.801  0.1348 -0.4557 -0.8905
  259MOL0     O34838  10.913   9.612   0.905  0.8984  0.3904  0.5898
  259MOL0     C34839  11.008   9.712   0.875  0.0164  0.2195  0.0789
  259MOL0     C34840  11.010   9.818   0.986  0.5207 -0.0524  0.2636
  259MOL0     C34841  11.072   9.945   0.923 -0.6090  0.3008  0.0943
  259MOL0     C34842  11.220   9.917   0.895  0.7472 -0.5072 -0.6973
  259MOL0     C34843  11.290  10.057   0.874  0.3458 -0.5099  0.0472
  259MOL0     C34844  11.281  10.107   0.727 -0.8444 -0.3345 -0.7439
  259MOL0     C34845  11.363  10.234   0.712 -0.0968  0.5058  0.9958
  259MOL0     C34846  11.272  10.347   0.753  0.0754 -0.1136 -0.7322
  259MOL0     N34847  11.353  10.465   0.751 -0.5306 -0.9192  0.1791
  259MOL0     C34848  11.394  10.541   0.861 -0.9880  1.1201  0.0358
  259MOL0     C34849  11.421  10.668   0.811  0.1411 -0.6324 -1.0399
  259MOL0     C34850  11.494  10.780   0.875 -0.3419  0.2544 -0.7425
  259MOL0     C34851  11.423  10.828   1.001  0.7997  0.7245  0.2392
  259MOL0     C34852  11.514  10.921   1.082  0.0221 -0.4780 -1.1643
  259MOL0     C34853  11.439  11.041   1.155 -0.3352  0.0709 -0.2229
  259MOL0     O34854  11.518  11.148   1.194  0.6615 -0.6002  0.7968
  259MOL0     C34855  11.468  11.252   1.269  1.0246 -0.1527 -0.0505
  259MOL0     C34856  11.332  11.269   1.299  0.0695 -0.1946  1.0911
  259MOL0     C34857  11.281  11.379   1.367 -0.2021 -0.3366 -0.9577
  259MOL0     C34858  11.130  11.386   1.393 -0.1321  0.2996  1.1428
  259MOL0     C34859  11.379  11.473   1.419 -0.4135 -0.2758  1.1119
  259MOL0     C34860  11.338  11.583   1.528  0.6710 -0.1753  0.9320
  259MOL0     O34861  11.418  11.670   1.572 -0.5854  0.2269 -0.3905
  259MOL0     C34862  11.385  11.751   1.676  0.6682 -0.3907  0.5306
  259MOL0     C34863  11.330  11.887   1.673  1.0567 -0.0982  0.2565
  259MOL0     C34864  11.310  11.967   1.784 -0.6581 -0.4258 -0.8635
  259MOL0     C34865  11.362  11.918   1.907  0.7899 -0.6990 -0.0983
  259MOL0     O34866  11.368  11.979   2.028 -0.9376 -0.4834 -0.1565
  259MOL0     C34867  11.401  12.122   2.027 -0.5414 -0.2190  0.0058
  259MOL0     C34868  11.487  12.151   2.152  0.1393 -0.1454 -0.4195
  259MOL0     C34869  11.620  12.074   2.180 -0.7720  0.6307 -0.4251
  259MOL0     C34870  11.724  12.088   2.069 -0.4428 -0.5494 -0.2958
  259MOL0     C34871  11.856  12.026   2.099 -0.7024  0.2242  0.7214
  259MOL0     C34872  11.866  11.877   2.129 -0.5137  0.3231  1.4706
  259MOL0     C34873  12.006  11.849   2.169 -1.0517 -0.3726  0.3400
  259MOL0     C34874  12.050  11.722   2.097  0.9926  0.1045  0.4745
  259MOL0    Cl34875  12.203  11.648   2.136  0.4374  0.2596 -0.0755
  259MOL0     C34876  11.413  11.789   1.911  0.8000 -1.4694 -0.3039
  259MOL0     C34877  11.422  11.711   1.795 -0.8483  0.7259 -0.4019
  259MOL0     O34878  11.222  11.571   1.570 -0.6439 -0.5018  0.1248
  259MOL0     C34879  11.515  11.455   1.387  0.6648 -0.4728  0.5493
  259MOL0     C34880  11.561  11.349   1.317  0.4998 -0.0326  0.5569
  259MOL0     N34881  11.397  10.668   0.683 -0.4100  0.1140 -0.1814
  259MOL0     N34882  11.352  10.561   0.646  0.7922 -0.0064 -0.3307
  259MOL0     C34883  10.783   9.541   0.711 -0.7712  0.2713 -0.7727
  259MOL0     C34884  10.750   9.441   0.613  1.1350 -1.6517 -0.1902
  259MOL0     C34885  10.738   9.136   0.296 -0.6644 -0.3195 -0.0250
  259MOL0     C34886  10.743   9.135   0.150  0.3885 -0.8856  0.2566
  259MOL0     C34887  10.658   9.055   0.066  1.3762 -0.9379  0.6248
  259MOL0     C34888  10.558   8.979   0.129  0.9151  0.0604 -0.2478
  259MOL0     O34889  10.458   8.901   0.065  0.5056 -1.0888 -0.0269
  259MOL0     C34890  10.463   8.915  -0.080  0.4444 -0.5516  0.1332
  259MOL0     C34891  10.370   8.807  -0.142 -0.4003  0.2320 -0.2198
  259MOL0     C34892  10.435   8.740  -0.266 -0.1699  1.2014  1.1444
  259MOL0     C34893  10.462   8.831  -0.384  0.3587 -0.8496 -0.1596
  259MOL0     C34894  10.596   8.873  -0.369 -0.1787 -0.0398  0.1264
  259MOL0     C34895  10.712   8.914  -0.360 -0.3685  0.4444 -0.7871
  259MOL0     C34896  10.553   8.969   0.270 -0.5889  0.9568  0.0885
  259MOL0     C34897  10.645   9.048   0.350 -0.3002 -0.7563 -0.4644
  259MOL0     H34898  10.990   9.208   0.689  0.0615 -0.3502 -2.5244
  259MOL0     H34899  11.050   9.384   0.854 -1.4702 -2.2277  0.5959
  259MOL0     H34900  11.105   9.662   0.870 -0.7305 -1.2725 -0.2383
  259MOL0     H34901  10.980   9.750   0.776 -2.8338 -0.9208  0.3376
  259MOL0     H34902  10.905   9.838   1.008 -0.4037  0.4864 -3.8923
  259MOL0     H34903  11.061   9.776   1.074  1.2372 -1.4094 -0.7644
  259MOL0     H34904  11.017   9.974   0.833  1.2259  0.3261 -1.0968
  259MOL0     H34905  11.055  10.022   0.999 -0.4709 -0.9668  1.4492
  259MOL0     H34906  11.269   9.864   0.978  0.7273 -3.2630 -2.3280
  259MOL0     H34907  11.244   9.852   0.811  1.7966  0.0324 -0.8290
  259MOL0     H34908  11.256  10.132   0.946 -1.9870 -1.1511 -0.2964
  259MOL0     H34909  11.395  10.041   0.900  1.1336  2.6412 -0.7761
  259MOL0     H34910  11.331  10.029   0.668  1.1607 -1.0296  1.6786
  259MOL0     H34911  11.177  10.119   0.698 -0.4869 -0.4893 -2.1432
  259MOL0     H34912  11.443  10.225   0.786 -0.4713  3.2245  1.8246
  259MOL0     H34913  11.407  10.239   0.612  1.4813  1.3124  1.6980
  259MOL0     H34914  11.235  10.343   0.856  0.7981  1.1891 -0.4012
  259MOL0     H34915  11.178  10.356   0.698 -3.0298 -0.8610  3.8457
  259MOL0     H34916  11.414  10.505   0.962  1.3636 -0.9082 -1.0438
  259MOL0     H34917  11.598  10.753   0.897 -0.9522 -4.1445 -2.2196
  259MOL0     H34918  11.501  10.848   0.790  2.9562 -1.1237 -1.6992
  259MOL0     H34919  11.400  10.758   1.082  2.5586 -0.8575 -0.5542
  259MOL0     H34920  11.334  10.882   0.968 -0.0396  0.3072  1.7205
  259MOL0     H34921  11.581  10.979   1.018  0.9040  1.4082  1.2817
  259MOL0     H34922  11.578  10.866   1.152 -1.2320 -3.1650 -1.9919
  259MOL0     H34923  11.379  10.996   1.234  0.4415 -2.3102 -0.9134
  259MOL0     H34924  11.369  11.086   1.084 -0.6839 -1.3222 -0.7854
  259MOL0     H34925  11.268  11.185   1.273  2.9476 -1.9868 -0.8811
  259MOL0     H34926  11.095  11.489   1.379 -1.5106 -0.3815 -1.0310
  259MOL0     H34927  11.062  11.320   1.337  1.5886 -0.1386 -0.5355
  259MOL0     H34928  11.112  11.377   1.501  1.6523 -1.5937  1.3629
  259MOL0     H34929  11.299  11.937   1.582 -1.3273  1.7926  1.9841
  259MOL0     H34930  11.271  12.069   1.782 -1.7970 -0.7143  1.8589
  259MOL0     H34931  11.457  12.150   1.938  2.6959  2.9612  2.7289
  259MOL0     H34932  11.310  12.183   2.032  0.8670  1.9169  1.8295
  259MOL0     H34933  11.504  12.259   2.143 -2.8813  0.3634 -1.2827
  259MOL0     H34934  11.418  12.142   2.237 -2.5171  0.9185 -2.3271
  259MOL0     H34935  11.607  11.966   2.196  0.5267  0.5824  0.4229
  259MOL0     H34936  11.653  12.126   2.270 -1.6609  3.1680 -1.4808
  259MOL0     H34937  11.687  12.049   1.974  0.8513  0.0808 -1.0841
  259MOL0     H34938  11.755  12.192   2.055  0.1566 -0.8976 -1.7550
  259MOL0     H34939  11.908  12.077   2.181  2.0521  0.5532 -1.1084
  259MOL0     H34940  11.910  12.030   2.004 -1.1718 -1.1996  0.3731
  259MOL0     H34941  11.806  11.857   2.218 -1.1690 -0.1325  0.9321
  259MOL0     H34942  11.844  11.821   2.038  1.0765  1.1087  0.5583
  259MOL0     H34943  12.009  11.843   2.279  1.6566 -0.3326  0.3336
  259MOL0     H34944  12.080  11.927   2.147 -0.2967 -2.0410 -3.7251
  259MOL0     H34945  12.048  11.748   1.991  1.2866  2.0869  0.9073
  259MOL0     H34946  11.976  11.642   2.105  1.0841 -0.2085 -1.4500
  259MOL0     H34947  11.441  11.737   2.003  0.3539 -2.3172 -0.6362
  259MOL0     H34948  11.456  11.609   1.810 -1.1114  0.8617  1.3998
  259MOL0     H34949  11.585  11.524   1.432 -0.3989 -0.2728  1.9601
  259MOL0     H34950  11.665  11.322   1.305  1.3147  1.2345  3.8423
  259MOL0     H34951  10.727   9.631   0.731 -1.0462 -0.3378  1.4800
  259MOL0     H34952  10.666   9.468   0.549 -0.6538 -0.8236  2.3229
  259MOL0     H34953  10.814   9.208   0.112  1.0787 -1.0647  1.1586
  259MOL0     H34954  10.663   9.068  -0.041  0.5787  0.1039  0.7068
  259MOL0     H34955  10.426   9.016  -0.103 -1.0457 -0.9008  0.8499
  259MOL0     H34956  10.569   8.900  -0.104  1.3581  2.1700  1.9847
  259MOL0     H34957  10.281   8.858  -0.179  0.1546  0.6856 -0.9797
  259MOL0     H34958  10.336   8.743  -0.061 -3.1898 -0.6368 -1.9405
  259MOL0     H34959  10.373   8.658  -0.303  2.2138 -1.4668  2.6342
  259MOL0     H34960  10.529   8.695  -0.233 -1.1759 -0.1836  2.2277
  259MOL0     H34961  10.399   8.920  -0.379  0.6963 -0.6483  0.9065
  259MOL0     H34962  10.446   8.787  -0.482  1.9388  1.4679 -1.5455
  259MOL0     H34963  10.802   8.970  -0.347 -1.0919  1.3685  0.5132
  259MOL0     H34964  10.485   8.905   0.326  0.7363 -1.1431 -0.5738
  259MOL0     H34965  10.637   9.047   0.458  2.0022 -2.4037 -0.2274
  260MOL0     O34966  11.140   8.592   7.039  0.0324  1.2581 -0.0236
  260MOL0     C34967  11.054   8.672   7.071 -1.0437 -0.2285  0.9588
  260MOL0     O34968  10.925   8.673   7.015  0.5308 -0.0931  0.5125
  260MOL0     C34969  10.895   8.549   6.957 -0.1691 -1.2807  1.1670
  260MOL0     C34970  10.931   8.524   6.819 -0.6898  0.5114  0.1256
  260MOL0     C34971  10.884   8.398   6.776  1.2216  0.7636  0.4091
  260MOL0     C34972  10.808   8.306   6.855  1.3593  0.3112  0.5728
  260MOL0     O34973  10.748   8.197   6.788 -0.3505  0.4690 -0.1210
  260MOL0     C34974  10.699   8.086   6.863  0.3171 -0.2104  0.5288
  260MOL0     C34975  10.641   7.992   6.763  0.5278 -0.3986  0.2453
  260MOL0     C34976  10.609   7.862   6.836  0.1538  0.1914 -0.3477
  260MOL0     C34977  10.525   7.773   6.757  0.7437  0.3378 -0.0112
  260MOL0     C34978  10.376   7.821   6.751 -0.3507 -0.3293  0.5434
  260MOL0     C34979  10.281   7.699   6.734  0.1621  0.2882  0.1881
  260MOL0     C34980  10.308   7.625   6.600  0.1119  0.6918  0.2928
  260MOL0     C34981  10.205   7.518   6.574  0.1380  0.4174 -0.4344
  260MOL0     N34982  10.184   7.429   6.693  0.2891 -0.0613  0.0512
  260MOL0     C34983  10.276   7.343   6.749 -0.0525  0.9592 -0.1260
  260MOL0     C34984  10.210   7.274   6.843 -0.2483  0.5256  0.1402
  260MOL0     C34985  10.267   7.196   6.952 -0.1809  0.3441  0.6946
  260MOL0     C34986  10.364   7.271   7.045 -0.3367  0.9111  0.1368
  260MOL0     C34987  10.416   7.176   7.161 -0.6707 -0.7315  0.3884
  260MOL0     C34988  10.502   7.255   7.256 -0.7148 -0.7614  0.1804
  260MOL0     O34989  10.571   7.160   7.341  0.7183 -0.1507  0.6309
  260MOL0     C34990  10.653   7.209   7.439  0.6243 -0.0319  0.0404
  260MOL0     C34991  10.611   7.176   7.567  0.0176  0.1204  0.6825
  260MOL0     C34992  10.682   7.211   7.687  0.0028 -0.0518 -0.2102
  260MOL0     C34993  10.597   7.179   7.805  1.1686 -0.4375 -0.6449
  260MOL0     C34994  10.791   7.288   7.666 -0.6099 -0.9862 -0.4469
  260MOL0     C34995  10.879   7.322   7.790 -0.4929 -0.3054  0.4442
  260MOL0     O34996  11.000   7.376   7.758  0.0007  0.4684  0.3106
  260MOL0     C34997  11.082   7.438   7.853  0.7802 -0.1588 -0.7509
  260MOL0     C34998  11.077   7.442   7.994 -0.1685  0.4146  0.0695
  260MOL0     C34999  11.152   7.519   8.072 -0.1354 -0.4774  0.3188
  260MOL0     C35000  11.243   7.609   8.007  0.1690  0.7907  0.3931
  260MOL0     O35001  11.327   7.682   8.086  0.3434  0.2718 -0.1560
  260MOL0     C35002  11.264   7.754   8.195  0.2447 -0.0475  0.4386
  260MOL0     C35003  11.171   7.867   8.145 -1.2090 -0.0316 -0.1322
  260MOL0     C35004  11.146   7.982   8.247 -0.6778  0.0435  0.6471
  260MOL0     C35005  11.104   8.119   8.186 -0.1579 -0.0671  0.2561
  260MOL0     C35006  11.066   8.214   8.285  0.0100 -1.1296 -0.0870
  260MOL0     C35007  11.009   8.340   8.225 -0.9300  0.0946 -0.2045
  260MOL0     C35008  11.115   8.437   8.151 -0.5890  0.6359 -0.3231
  260MOL0     C35009  11.048   8.550   8.078 -0.0236  0.5125 -0.1078
  260MOL0    Cl35010  10.995   8.671   8.197  0.8089  0.4689  0.3859
  260MOL0     C35011  11.266   7.598   7.873 -0.3173  0.5418 -0.1448
  260MOL0     C35012  11.175   7.523   7.794  0.7461 -0.0043  0.5665
  260MOL0     O35013  10.843   7.308   7.904  1.1362  0.0496 -0.5452
  260MOL0     C35014  10.840   7.308   7.538  0.3453 -0.1194 -0.5101
  260MOL0     C35015  10.775   7.274   7.423  0.1337  0.5782 -0.4199
  260MOL0     N35016  10.079   7.310   6.833  0.0730 -0.5095  0.6237
  260MOL0     N35017  10.059   7.401   6.746  0.9831 -0.1329 -0.1377
  260MOL0     C35018  10.790   8.327   6.992  0.9385  0.3022 -0.2171
  260MOL0     C35019  10.842   8.449   7.038 -0.1872 -0.4174 -0.1070
  260MOL0     C35020  11.077   8.774   7.179  0.7859  0.2503 -0.0736
  260MOL0     C35021  10.996   8.881   7.209 -0.3492  0.4037  0.2759
  260MOL0     C35022  11.028   8.973   7.314  0.8795  0.0244  1.1882
  260MOL0     C35023  11.124   8.944   7.409  0.5374 -0.7675 -0.9757
  260MOL0     O35024  11.137   9.021   7.529 -0.1467 -0.7804  0.6728
  260MOL0     C35025  11.014   9.068   7.597 -0.6786  0.3224  0.4198
  260MOL0     C35026  11.031   9.037   7.739  0.1984 -0.3005  0.4387
  260MOL0     C35027  11.127   9.136   7.821 -0.8108 -0.2717 -0.7594
  260MOL0     C35028  11.273   9.136   7.781  0.1599 -0.2647  0.3488
  260MOL0     C35029  11.346   9.223   7.869  0.0309 -0.4413 -0.5688
  260MOL0     C35030  11.399   9.282   7.960  0.1984 -0.4462  0.6371
  260MOL0     C35031  11.188   8.818   7.399  0.6439  0.6273  0.6286
  260MOL0     C35032  11.175   8.738   7.277  0.6569  0.6390 -0.5706
  260MOL0     H35033  10.982   8.606   6.769 -1.3637 -1.0691 -3.4930
  260MOL0     H35034  10.897   8.353   6.678  0.5230 -0.0613  0.6794
  260MOL0     H35035  10.787   8.044   6.913  1.2139  1.4862  0.4490
  260MOL0     H35036  10.627   8.113   6.940  0.6478 -0.6179  0.9881
  260MOL0     H35037  10.547   8.033   6.726  2.3080  2.0308 -1.9227
  260MOL0     H35038  10.720   7.977   6.689  1.6772 -3.5147  1.8952
  260MOL0     H35039  10.688   7.791   6.866 -2.2065 -2.8771 -0.9167
  260MOL0     H35040  10.567   7.883   6.935  0.8361  0.2333 -0.0590
  260MOL0     H35041  10.561   7.754   6.656  2.4207  2.2891  0.1605
  260MOL0     H35042  10.507   7.683   6.817 -3.7973  1.2616  0.4097
  260MOL0     H35043  10.345   7.885   6.834  0.2007  2.6169 -1.3782
  260MOL0     H35044  10.376   7.882   6.660  3.8520 -0.2670  0.4066
  260MOL0     H35045  10.303   7.629   6.816 -0.1786 -0.4243 -0.3159
  260MOL0     H35046  10.175   7.726   6.735 -0.4731 -1.7973 -1.6610
  260MOL0     H35047  10.302   7.701   6.522  1.4488  0.3563 -0.1634
  260MOL0     H35048  10.408   7.582   6.595  0.0823  0.6816 -0.2202
  260MOL0     H35049  10.226   7.453   6.489 -0.0843  1.3522 -1.2305
  260MOL0     H35050  10.104   7.556   6.560 -2.4872 -2.7422  5.9120
  260MOL0     H35051  10.382   7.338   6.728  0.5429 -2.9274  2.5269
  260MOL0     H35052  10.181   7.147   6.999 -2.4514  0.5930 -2.8299
  260MOL0     H35053  10.315   7.106   6.913 -2.0924 -1.5195  2.3643
  260MOL0     H35054  10.305   7.355   7.082 -1.6931  0.7181 -1.4874
  260MOL0     H35055  10.443   7.309   6.980  0.4804  1.5033  1.4231
  260MOL0     H35056  10.467   7.087   7.122  0.9143 -0.3298  1.4994
  260MOL0     H35057  10.332   7.138   7.220 -1.6420 -0.1813 -0.6052
  260MOL0     H35058  10.452   7.333   7.315  2.4350  0.1386  1.8988
  260MOL0     H35059  10.578   7.311   7.201  0.4361 -1.9129  0.5559
  260MOL0     H35060  10.511   7.135   7.575  0.2795 -0.8239 -0.5669
  260MOL0     H35061  10.630   7.095   7.867  0.0723  0.4672  1.2777
  260MOL0     H35062  10.604   7.258   7.881  1.7076  0.3760 -1.5229
  260MOL0     H35063  10.492   7.162   7.780  1.2136  0.9095 -1.8750
  260MOL0     H35064  11.001   7.384   8.047  0.1089 -1.7329 -1.7303
  260MOL0     H35065  11.151   7.511   8.180  0.6098 -0.9475  0.3013
  260MOL0     H35066  11.199   7.686   8.250  0.2586 -0.2980  0.1523
  260MOL0     H35067  11.335   7.793   8.268  0.2759  2.1669 -0.7046
  260MOL0     H35068  11.234   7.917   8.072  1.3201 -0.7233  1.4565
  260MOL0     H35069  11.076   7.829   8.105  0.4800 -2.8053 -1.7771
  260MOL0     H35070  11.234   8.001   8.309 -1.6402 -1.0546  2.4185
  260MOL0     H35071  11.063   7.949   8.310  2.4993 -1.6849  4.4060
  260MOL0     H35072  11.183   8.167   8.127 -2.4861  2.3391 -1.1125
  260MOL0     H35073  11.024   8.099   8.115  0.3301  1.1734 -0.6809
  260MOL0     H35074  11.146   8.234   8.356  0.5751  1.6538 -1.3626
  260MOL0     H35075  10.983   8.168   8.339 -1.0677  0.5037 -0.2588
  260MOL0     H35076  10.940   8.312   8.145 -0.4453 -3.2091  0.4005
  260MOL0     H35077  10.961   8.404   8.300 -1.7395  0.5624 -1.0926
  260MOL0     H35078  11.171   8.377   8.079  0.2172 -0.9806  1.5478
  260MOL0     H35079  11.198   8.477   8.210  1.0036 -1.4334 -1.0628
  260MOL0     H35080  10.952   8.522   8.033 -1.1204  4.0982 -0.3034
  260MOL0     H35081  11.114   8.600   8.006  0.2495  5.0400  2.8791
  260MOL0     H35082  11.345   7.650   7.819 -1.8401  0.9141 -2.1653
  260MOL0     H35083  11.182   7.525   7.686 -1.1895  0.1402  0.4107
  260MOL0     H35084  10.940   7.342   7.516  0.9661 -1.9989 -0.7645
  260MOL0     H35085  10.826   7.276   7.327  5.4694 -4.2758  1.7589
  260MOL0     H35086  10.746   8.256   7.061  0.3989 -0.6781 -1.5348
  260MOL0     H35087  10.859   8.458   7.144 -1.7203 -0.7865  0.1915
  260MOL0     H35088  10.895   8.893   7.172 -0.9171 -1.3882  1.1487
  260MOL0     H35089  10.948   9.042   7.339 -1.7810 -1.9880 -1.1128
  260MOL0     H35090  11.003   9.172   7.562  1.1663  0.6141  0.5790
  260MOL0     H35091  10.922   9.016   7.571  0.9626 -2.5011 -0.1466
  260MOL0     H35092  11.055   8.932   7.755 -0.8566 -0.4870  0.8836
  260MOL0     H35093  10.930   9.055   7.778 -1.4088 -1.5571 -2.7758
  260MOL0     H35094  11.130   9.102   7.925 -0.4276  0.0284 -0.6723
  260MOL0     H35095  11.077   9.233   7.830  1.0196  0.6299  0.0241
  260MOL0     H35096  11.280   9.194   7.688 -1.1350 -0.2647  0.2418
  260MOL0     H35097  11.313   9.035   7.767 -2.4044 -0.9489 -3.2301
  260MOL0     H35098  11.474   9.320   8.026  0.7967  1.6346 -1.0850
  260MOL0     H35099  11.258   8.784   7.474  1.0977 -0.3801 -0.2165
  260MOL0     H35100  11.237   8.649   7.284  2.5815  1.9232 -0.5523
  261MOL0     O35101   8.086   5.511   5.781  0.7267 -0.1564 -0.2347
  261MOL0     C35102   8.197   5.517   5.829 -0.2098 -0.5751  0.7600
  261MOL0     O35103   8.257   5.419   5.910 -0.3211  0.3719  0.3486
  261MOL0     C35104   8.172   5.361   5.996  0.6576  0.4986  0.1797
  261MOL0     C35105   8.218   5.245   6.058 -0.2297  0.1127 -0.6828
  261MOL0     C35106   8.143   5.175   6.149  0.1789  0.3941  0.0768
  261MOL0     C35107   8.028   5.224   6.205 -0.1678  0.0897 -0.1573
  261MOL0     O35108   7.977   5.153   6.306  0.7343  0.5760 -0.0031
  261MOL0     C35109   7.870   5.207   6.389 -0.4565  0.2123  0.2077
  261MOL0     C35110   7.786   5.099   6.451  1.0515  0.5438 -0.7542
  261MOL0     C35111   7.799   5.084   6.602  1.1010 -0.4505 -0.3363
  261MOL0     C35112   7.919   5.023   6.654 -0.2172 -0.5257  0.6398
  261MOL0     C35113   7.937   5.039   6.808 -0.4008 -0.0226  0.3804
  261MOL0     C35114   8.055   4.966   6.865  0.0864 -0.8826  0.1488
  261MOL0     C35115   8.073   5.014   7.001  0.2644  0.2040 -0.4355
  261MOL0     C35116   8.173   4.941   7.097  0.1287 -0.9021 -0.0831
  261MOL0     N35117   8.304   4.928   7.047 -0.2804  0.4679  0.4592
  261MOL0     C35118   8.354   4.825   6.968  0.6778 -0.6906  1.2272
  261MOL0     C35119   8.483   4.862   6.945 -0.3680  0.2585 -1.0953
  261MOL0     C35120   8.593   4.788   6.872  0.0232  0.1200 -0.5500
  261MOL0     C35121   8.618   4.638   6.912  0.0847 -0.2707  0.2306
  261MOL0     C35122   8.727   4.579   6.824  0.6108  0.0234  0.2429
  261MOL0     C35123   8.733   4.433   6.835 -0.7701 -0.2445 -0.0220
  261MOL0     O35124   8.610   4.374   6.782  0.0675  0.1097 -0.6509
  261MOL0     C35125   8.595   4.238   6.802 -0.9283 -0.0378 -0.6806
  261MOL0     C35126   8.516   4.171   6.712 -0.6517  0.0768 -0.6262
  261MOL0     C35127   8.494   4.031   6.730 -0.9681  0.5933  0.8723
  261MOL0     C35128   8.399   3.966   6.627 -0.5481 -0.5716  0.9999
  261MOL0     C35129   8.559   3.957   6.840 -0.0401 -0.4650  1.1445
  261MOL0     C35130   8.528   3.818   6.871 -0.5061 -0.0918 -0.6750
  261MOL0     O35131   8.390   3.783   6.880  0.2597  0.3863 -0.1677
  261MOL0     C35132   8.364   3.646   6.863  1.2266 -0.5163 -0.1017
  261MOL0     C35133   8.368   3.559   6.969 -0.1366 -0.4176 -0.1120
  261MOL0     C35134   8.340   3.423   6.945 -0.9582 -0.2376  0.2934
  261MOL0     C35135   8.285   3.382   6.826 -0.9497 -0.6144  1.0423
  261MOL0     O35136   8.248   3.255   6.825 -0.6468  0.1650 -0.6672
  261MOL0     C35137   8.191   3.207   6.710  0.5886  0.9317 -0.0233
  261MOL0     C35138   8.173   3.048   6.719  0.5912 -0.1843  0.3667
  261MOL0     C35139   8.078   3.004   6.832  0.2231 -0.0641  0.0549
  261MOL0     C35140   8.075   2.852   6.834 -0.3372  0.9354  0.0923
  261MOL0     C35141   7.963   2.803   6.937 -0.2564 -0.8203 -0.0877
  261MOL0     C35142   7.953   2.667   6.957 -0.5548 -0.4713 -0.2926
  261MOL0     C35143   7.830   2.633   7.055 -1.1006 -0.5091 -0.0799
  261MOL0     C35144   7.853   2.493   7.107  0.6045  0.1270 -0.5064
  261MOL0    Cl35145   7.699   2.429   7.174 -0.4470 -0.5091 -0.0248
  261MOL0     C35146   8.263   3.476   6.724  1.0955  0.4345 -0.8005
  261MOL0     C35147   8.315   3.608   6.736  0.0259 -0.1212  0.4097
  261MOL0     O35148   8.623   3.745   6.894 -0.3405  0.3700  0.4915
  261MOL0     C35149   8.650   4.029   6.919  0.7407 -0.3473  0.3867
  261MOL0     C35150   8.672   4.167   6.895 -0.0032  0.9224 -1.1990
  261MOL0     N35151   8.502   4.988   6.991 -0.2254 -0.0779 -0.4871
  261MOL0     N35152   8.388   5.032   7.051  0.1610 -0.2084 -0.0065
  261MOL0     C35153   7.966   5.332   6.134 -0.3720  0.8343 -0.8120
  261MOL0     C35154   8.041   5.403   6.046 -0.9747 -0.5510  1.1025
  261MOL0     C35155   8.277   5.644   5.800  0.5042 -0.8376  0.4517
  261MOL0     C35156   8.220   5.750   5.726 -0.5095  0.5058  0.2533
  261MOL0     C35157   8.300   5.864   5.688  0.1941  1.0658 -0.1943
  261MOL0     C35158   8.435   5.868   5.713  0.0685  0.5681 -0.7033
  261MOL0     O35159   8.524   5.953   5.670 -0.2301 -0.4395 -0.6901
  261MOL0     C35160   8.534   5.957   5.528  0.9300 -0.0531  0.2517
  261MOL0     C35161   8.498   6.096   5.464  0.0279 -0.1356  0.2985
  261MOL0     C35162   8.564   6.226   5.523  0.1820  0.3615  0.2521
  261MOL0     C35163   8.568   6.336   5.419  0.1049 -0.2417 -0.2840
  261MOL0     C35164   8.659   6.307   5.305 -1.0895  0.3491 -0.2981
  261MOL0     C35165   8.739   6.273   5.212  0.3573 -0.0975  0.5845
  261MOL0     C35166   8.489   5.763   5.790 -0.1915 -0.3537  0.7720
  261MOL0     C35167   8.409   5.650   5.825  0.1443 -0.5369  0.1158
  261MOL0     H35168   8.321   5.212   6.043 -0.8576 -1.1845 -2.4549
  261MOL0     H35169   8.188   5.091   6.202 -2.0382 -1.0598 -0.1927
  261MOL0     H35170   7.915   5.270   6.467 -0.1783 -2.2133  2.1171
  261MOL0     H35171   7.801   5.265   6.326 -1.0994  2.0820  2.4808
  261MOL0     H35172   7.681   5.108   6.424  0.6753  1.0936  0.7782
  261MOL0     H35173   7.814   4.998   6.419 -0.0093 -0.4286  1.2428
  261MOL0     H35174   7.790   5.184   6.647 -0.5647 -0.2251 -1.0701
  261MOL0     H35175   7.716   5.030   6.650  1.7034  1.1257  2.7500
  261MOL0     H35176   7.913   4.919   6.619 -2.3490  0.3847 -2.0511
  261MOL0     H35177   8.003   5.076   6.607 -1.8865  1.0483 -0.6938
  261MOL0     H35178   7.936   5.143   6.839 -2.0987 -1.1652  4.8330
  261MOL0     H35179   7.851   4.993   6.857 -1.1856  1.1344  0.1361
  261MOL0     H35180   8.046   4.857   6.862 -0.3486 -0.8382 -0.2543
  261MOL0     H35181   8.139   5.002   6.805  1.2638  1.6712  3.0739
  261MOL0     H35182   8.112   5.116   7.011  2.3639 -0.6203  0.4606
  261MOL0     H35183   7.971   5.007   7.039 -0.9617 -0.4735 -3.5017
  261MOL0     H35184   8.136   4.839   7.116 -2.3886 -0.0871 -0.3307
  261MOL0     H35185   8.178   4.978   7.200  1.6568 -2.5807  0.5099
  261MOL0     H35186   8.309   4.730   6.941  1.2282 -0.8293  0.7848
  261MOL0     H35187   8.566   4.795   6.766  1.5036  0.5956 -0.9307
  261MOL0     H35188   8.684   4.849   6.873  0.2469 -0.2105 -0.4678
  261MOL0     H35189   8.528   4.578   6.901  2.3416 -4.2673  1.5503
  261MOL0     H35190   8.645   4.623   7.017 -1.3233  0.8821  0.7908
  261MOL0     H35191   8.822   4.629   6.840  0.0582  0.7312  1.4471
  261MOL0     H35192   8.694   4.592   6.721  2.8046 -2.7368 -0.9195
  261MOL0     H35193   8.757   4.407   6.939  0.4885 -0.8720 -0.4599
  261MOL0     H35194   8.825   4.404   6.785 -1.1011 -2.5490  0.5502
  261MOL0     H35195   8.466   4.222   6.630 -2.3213 -1.3708 -0.5802
  261MOL0     H35196   8.360   4.050   6.570 -0.4516 -0.4377  1.1301
  261MOL0     H35197   8.439   3.892   6.557  1.3187  0.6739  0.6655
  261MOL0     H35198   8.315   3.926   6.683 -3.6820  1.6411 -1.7301
  261MOL0     H35199   8.391   3.583   7.072 -1.2431 -0.5440  0.1811
  261MOL0     H35200   8.351   3.367   7.037 -1.3305  0.9608  1.0986
  261MOL0     H35201   8.093   3.255   6.704 -1.1657 -2.5130 -1.4859
  261MOL0     H35202   8.252   3.231   6.623  1.2152 -0.9639 -0.1523
  261MOL0     H35203   8.140   3.004   6.624 -0.0800 -0.3465  0.6663
  261MOL0     H35204   8.267   2.998   6.740  2.0976  2.0340 -0.6932
  261MOL0     H35205   7.976   3.040   6.819  0.9732  3.0054  1.6383
  261MOL0     H35206   8.119   3.040   6.927  0.9241  2.7615 -1.1817
  261MOL0     H35207   8.047   2.816   6.734  0.7037  0.8270 -0.1739
  261MOL0     H35208   8.174   2.809   6.854  1.5652  4.2234 -1.3167
  261MOL0     H35209   7.863   2.826   6.900  0.0347 -1.8890 -1.6852
  261MOL0     H35210   7.976   2.855   7.032  0.4606  2.6154 -1.8614
  261MOL0     H35211   7.956   2.626   6.856  0.9741  0.6610 -0.7522
  261MOL0     H35212   8.042   2.628   7.007  0.4101  0.6359 -1.0786
  261MOL0     H35213   7.735   2.627   7.001 -0.3866 -0.1091 -1.4258
  261MOL0     H35214   7.830   2.701   7.141  2.5526 -0.4427 -0.0017
  261MOL0     H35215   7.921   2.496   7.193 -0.7410  4.1232  0.6163
  261MOL0     H35216   7.891   2.426   7.030  0.5308 -1.7277  0.9855
  261MOL0     H35217   8.222   3.462   6.625  2.5760  2.6164 -1.8109
  261MOL0     H35218   8.316   3.684   6.659  2.2222  1.2266  1.6321
  261MOL0     H35219   8.690   3.970   7.000 -2.7477 -2.2778  0.9048
  261MOL0     H35220   8.750   4.216   6.953  0.5606  0.7578 -1.8175
  261MOL0     H35221   7.866   5.371   6.148 -0.1853  0.1741  4.4859
  261MOL0     H35222   7.995   5.498   6.021  0.3081  0.8508  3.6280
  261MOL0     H35223   8.114   5.744   5.704 -0.4833  2.4908 -0.6276
  261MOL0     H35224   8.244   5.943   5.639  0.0857  0.4374 -1.1057
  261MOL0     H35225   8.635   5.929   5.499  0.6709 -1.9175  0.9976
  261MOL0     H35226   8.473   5.885   5.473  1.7007  0.3599 -1.1802
  261MOL0     H35227   8.391   6.117   5.469  0.2394  2.3027 -2.5175
  261MOL0     H35228   8.527   6.084   5.359  1.5611  2.8314  0.2788
  261MOL0     H35229   8.665   6.202   5.556  1.2836  0.2501 -2.9064
  261MOL0     H35230   8.511   6.269   5.609 -0.8851  2.6470 -1.4523
  261MOL0     H35231   8.598   6.428   5.470  1.1326 -0.1218 -1.0792
  261MOL0     H35232   8.466   6.366   5.393  0.9023  1.5960 -1.5713
  261MOL0     H35233   8.798   6.254   5.125 -0.0543  1.9310 -0.1846
  261MOL0     H35234   8.595   5.749   5.803 -0.5968 -2.7973  1.9941
  261MOL0     H35235   8.450   5.570   5.886 -3.2506 -1.9124  0.8230
  262MOL0     O35236   8.813   6.356   2.798 -0.0985 -0.5861 -0.1942
  262MOL0     C35237   8.934   6.354   2.813 -0.0988 -0.7722 -0.3358
  262MOL0     O35238   9.027   6.432   2.746 -0.1736  0.4674  0.2980
  262MOL0     C35239   9.003   6.534   2.659  0.0008 -0.3479  0.0555
  262MOL0     C35240   9.120   6.590   2.598 -0.1640 -0.5741  0.8831
  262MOL0     C35241   9.107   6.695   2.505 -0.3106  0.2922  0.7082
  262MOL0     C35242   8.988   6.762   2.493  0.6902 -0.6839 -0.7557
  262MOL0     O35243   8.980   6.891   2.429 -0.5442  0.2667 -1.2051
  262MOL0     C35244   8.984   6.898   2.287  0.8701 -0.4227 -0.1868
  262MOL0     C35245   9.123   6.909   2.226  0.4871  0.4361  0.6713
  262MOL0     C35246   9.102   6.969   2.080  0.4350  0.3269  1.3645
  262MOL0     C35247   9.076   6.853   1.982 -0.1104 -0.7273  0.7949
  262MOL0     C35248   9.118   6.876   1.830 -0.1584 -0.3321 -0.6209
  262MOL0     C35249   9.017   6.970   1.754 -0.0026 -0.5116  1.1849
  262MOL0     C35250   9.059   6.994   1.613 -0.1045 -0.6825  0.2995
  262MOL0     C35251   8.996   7.118   1.558  0.7114 -0.1713 -0.4676
  262MOL0     N35252   9.038   7.249   1.610  0.4486 -0.0667  0.6151
  262MOL0     C35253   9.151   7.288   1.676 -0.3984  0.2261  0.3874
  262MOL0     C35254   9.154   7.425   1.683 -0.2729  0.6282 -0.9654
  262MOL0     C35255   9.259   7.507   1.739  0.3749 -1.0605  0.7078
  262MOL0     C35256   9.210   7.618   1.840  0.0352  0.3170  0.0974
  262MOL0     C35257   9.155   7.574   1.973 -0.2657  0.1901 -0.9873
  262MOL0     C35258   9.138   7.703   2.055  0.3811 -0.7813  0.3277
  262MOL0     O35259   9.259   7.738   2.135 -0.6399  0.0940  0.8124
  262MOL0     C35260   9.273   7.699   2.265  0.0239  0.8850  0.8786
  262MOL0     C35261   9.167   7.700   2.352  0.4238  1.1679 -0.6597
  262MOL0     C35262   9.194   7.671   2.493  0.6432  0.4571  0.6012
  262MOL0     C35263   9.076   7.646   2.578 -0.2190 -0.9889 -0.4961
  262MOL0     C35264   9.325   7.664   2.537  0.4812 -0.0078  0.2817
  262MOL0     C35265   9.360   7.653   2.683 -0.6474 -0.3268  0.3910
  262MOL0     O35266   9.268   7.702   2.784 -0.0433  0.0581 -0.5693
  262MOL0     C35267   9.298   7.710   2.916 -0.1459  0.0779 -0.7290
  262MOL0     C35268   9.183   7.720   2.999  0.0141 -0.6603  0.2347
  262MOL0     C35269   9.196   7.713   3.141  1.1717 -0.0383 -0.4255
  262MOL0     C35270   9.315   7.709   3.205 -0.1558  0.7979 -0.2399
  262MOL0     O35271   9.324   7.700   3.347  0.1192  0.8294  0.3853
  262MOL0     C35272   9.211   7.734   3.429 -0.9405  0.2632  0.6004
  262MOL0     C35273   9.268   7.746   3.576  1.3043 -0.1643 -0.1276
  262MOL0     C35274   9.151   7.720   3.678  0.3304 -0.2520  0.4258
  262MOL0     C35275   9.200   7.726   3.822  0.9803  0.3962  0.6762
  262MOL0     C35276   9.082   7.710   3.924  0.5396  0.3419 -1.1835
  262MOL0     C35277   9.056   7.558   3.952 -0.1013 -0.1115  0.1067
  262MOL0     C35278   8.924   7.529   4.027  0.0548 -0.1519 -0.2387
  262MOL0     C35279   8.950   7.523   4.177  0.4601 -0.5411 -0.2055
  262MOL0    Cl35280   8.809   7.491   4.287 -0.4980 -0.0746  0.4615
  262MOL0     C35281   9.431   7.708   3.121 -0.0712 -0.5813 -0.5175
  262MOL0     C35282   9.420   7.709   2.982  0.2014 -0.1118 -0.8525
  262MOL0     O35283   9.466   7.596   2.707 -0.4829 -0.3605 -0.1583
  262MOL0     C35284   9.430   7.652   2.448 -0.0831  0.2652 -0.3334
  262MOL0     C35285   9.407   7.674   2.311  0.5801  0.4554 -0.3805
  262MOL0     N35286   9.032   7.462   1.617  0.1153  1.0021 -0.1539
  262MOL0     N35287   8.967   7.359   1.578  0.5962  0.5642 -0.5924
  262MOL0     C35288   8.882   6.719   2.573 -0.6704 -0.6845  0.3378
  262MOL0     C35289   8.887   6.610   2.655 -0.4223 -0.9461  0.6446
  262MOL0     C35290   8.988   6.231   2.880  1.3082 -0.5846 -0.2041
  262MOL0     C35291   8.909   6.151   2.961  0.1194 -0.8194 -0.2198
  262MOL0     C35292   8.969   6.044   3.029  0.5339  0.1203  0.0540
  262MOL0     C35293   9.102   6.014   3.018  0.4461 -0.7921  0.2683
  262MOL0     O35294   9.152   5.911   3.103  0.6030  1.2656  0.5496
  262MOL0     C35295   9.275   5.841   3.087 -0.4678 -0.8161 -0.4999
  262MOL0     C35296   9.385   5.917   3.161  0.1289  0.4464 -0.5502
  262MOL0     C35297   9.466   5.824   3.257  0.3443 -0.1292 -0.1437
  262MOL0     C35298   9.588   5.762   3.174  0.2332 -0.3159  0.7611
  262MOL0     C35299   9.540   5.636   3.111 -0.8232  1.3544 -0.6478
  262MOL0     C35300   9.529   5.533   3.055  0.9485  0.4677 -0.1855
  262MOL0     C35301   9.182   6.082   2.927  0.5410 -0.2466  0.0732
  262MOL0     C35302   9.129   6.203   2.871  0.0612  0.8463  0.3498
  262MOL0     H35303   9.217   6.552   2.626 -1.1716 -1.7561  2.9354
  262MOL0     H35304   9.195   6.736   2.456 -1.6609 -0.1762 -2.3112
  262MOL0     H35305   8.928   6.818   2.237  1.3499  1.3860 -3.9461
  262MOL0     H35306   8.929   6.992   2.278  0.8037 -0.3629  0.7411
  262MOL0     H35307   9.186   6.975   2.287  0.0472 -0.5936  2.3021
  262MOL0     H35308   9.171   6.811   2.221  0.1357 -0.0105  3.7389
  262MOL0     H35309   9.021   7.042   2.076  0.5015  0.3601  0.2371
  262MOL0     H35310   9.193   7.022   2.050  2.6064 -3.1621  1.1617
  262MOL0     H35311   9.124   6.757   2.002 -1.5267 -2.3253 -2.6293
  262MOL0     H35312   8.967   6.841   1.984 -0.6909  3.0910  3.6328
  262MOL0     H35313   9.215   6.926   1.824 -0.5700  0.4462 -0.8423
  262MOL0     H35314   9.122   6.774   1.791 -3.4734 -1.3805  1.3787
  262MOL0     H35315   8.917   6.929   1.769 -0.8098  0.8103 -0.2493
  262MOL0     H35316   9.009   7.068   1.800  0.1195 -0.2408  0.6467
  262MOL0     H35317   9.167   7.010   1.612 -0.1895 -0.0522 -1.0358
  262MOL0     H35318   9.045   6.899   1.560 -2.7032  0.7829 -1.8809
  262MOL0     H35319   8.891   7.112   1.588  0.0447  0.4838 -2.5056
  262MOL0     H35320   9.015   7.118   1.451  1.3599  2.1893 -0.4213
  262MOL0     H35321   9.230   7.220   1.707  1.5586  2.0264 -0.4119
  262MOL0     H35322   9.338   7.449   1.788  1.0430  0.1033  1.0375
  262MOL0     H35323   9.303   7.546   1.646 -2.9253 -0.7107 -0.8503
  262MOL0     H35324   9.127   7.668   1.790 -1.1372 -1.5774  0.0376
  262MOL0     H35325   9.289   7.693   1.850  2.1739 -1.6841 -0.9828
  262MOL0     H35326   9.218   7.506   2.031  0.5294  1.5356 -0.2182
  262MOL0     H35327   9.055   7.535   1.953  0.7149 -1.3266 -3.5609
  262MOL0     H35328   9.047   7.685   2.113 -1.1157  3.0094 -0.5921
  262MOL0     H35329   9.114   7.791   1.996 -1.2008 -0.4514  1.4049
  262MOL0     H35330   9.068   7.729   2.318 -1.1426  1.1123  3.2835
  262MOL0     H35331   9.103   7.564   2.645  2.0404  0.0933  0.0210
  262MOL0     H35332   9.054   7.726   2.649 -1.0406 -1.8021  0.1894
  262MOL0     H35333   8.989   7.617   2.518 -1.3154  0.9470  0.0726
  262MOL0     H35334   9.080   7.722   2.965 -0.5247  1.0303  1.7904
  262MOL0     H35335   9.099   7.722   3.190  2.3395 -0.0793  2.0240
  262MOL0     H35336   9.178   7.836   3.405  1.2366  0.4348 -2.1778
  262MOL0     H35337   9.133   7.659   3.413  0.7102 -1.2634 -0.6150
  262MOL0     H35338   9.344   7.672   3.605  0.5263 -0.2429  1.8709
  262MOL0     H35339   9.321   7.839   3.596 -0.5938  0.7520  1.0083
  262MOL0     H35340   9.107   7.623   3.650  0.1038 -0.2032  0.6045
  262MOL0     H35341   9.075   7.798   3.671  1.5631  1.0283  0.8439
  262MOL0     H35342   9.274   7.648   3.840  1.5681  1.0496  1.1497
  262MOL0     H35343   9.255   7.818   3.845  1.8265  0.0772 -0.0005
  262MOL0     H35344   8.988   7.753   3.890 -0.2711  3.5416  4.0040
  262MOL0     H35345   9.110   7.750   4.022  0.8510  2.6621 -2.1513
  262MOL0     H35346   9.032   7.522   3.851 -0.2269 -1.4282  0.5910
  262MOL0     H35347   9.139   7.506   3.999 -1.8885 -1.1656  2.2859
  262MOL0     H35348   8.876   7.437   3.994  1.5145 -1.4702  1.1421
  262MOL0     H35349   8.849   7.608   4.013 -1.0859 -0.9369  1.1135
  262MOL0     H35350   8.972   7.625   4.210 -1.5885 -0.9231  2.7777
  262MOL0     H35351   9.034   7.465   4.217  0.0852 -1.3218 -0.5415
  262MOL0     H35352   9.531   7.703   3.162 -0.1288  3.4552  0.5184
  262MOL0     H35353   9.514   7.692   2.931  0.3720 -2.0206 -0.0046
  262MOL0     H35354   9.532   7.638   2.481 -0.4639  0.4525  0.9888
  262MOL0     H35355   9.489   7.680   2.239 -0.4365  2.1917 -1.4751
  262MOL0     H35356   8.789   6.773   2.560  0.0292  0.9145  1.6927
  262MOL0     H35357   8.798   6.584   2.712 -1.4788 -0.6014 -0.8002
  262MOL0     H35358   8.807   6.181   2.986  1.3443  2.6116  1.1834
  262MOL0     H35359   8.917   5.980   3.100  1.5827 -2.8509 -1.7016
  262MOL0     H35360   9.267   5.734   3.112 -2.7118 -0.7089 -0.5068
  262MOL0     H35361   9.295   5.857   2.981  1.6831  0.2091  0.0069
  262MOL0     H35362   9.334   5.994   3.220 -0.1798 -0.4306  0.3598
  262MOL0     H35363   9.450   5.969   3.091  0.3052 -0.4164 -1.0399
  262MOL0     H35364   9.407   5.758   3.321 -1.8700  1.1363 -0.7530
  262MOL0     H35365   9.509   5.898   3.326 -0.7695 -1.7634  2.4667
  262MOL0     H35366   9.671   5.739   3.241  0.9858  0.5624  0.1521
  262MOL0     H35367   9.616   5.834   3.096 -2.4728 -0.0324 -0.0467
  262MOL0     H35368   9.496   5.444   3.005 -1.0607  1.2777 -0.4025
  262MOL0     H35369   9.286   6.051   2.916  0.6912  0.5554 -0.8937
  262MOL0     H35370   9.191   6.273   2.815 -1.6490  0.5472 -2.0555
  263MOL0     O35371   1.784   5.406  10.573  0.0748 -0.5672  0.3899
  263MOL0     C35372   1.877   5.355  10.630 -1.0139  0.4984 -0.1459
  263MOL0     O35373   2.013   5.395  10.625  0.6543 -0.1193  0.1769
  263MOL0     C35374   2.053   5.518  10.564  1.2429  0.7268  0.1814
  263MOL0     C35375   1.981   5.575  10.457  0.1339 -1.2476 -0.0188
  263MOL0     C35376   2.024   5.707  10.417 -0.9249 -0.5746  0.2564
  263MOL0     C35377   2.128   5.776  10.493  0.4829  0.2682 -0.0077
  263MOL0     O35378   2.174   5.902  10.474  0.2417 -0.0055 -0.3385
  263MOL0     C35379   2.200   5.950  10.349 -0.0482  0.2638  0.5234
  263MOL0     C35380   2.206   6.107  10.349  0.0333 -0.4152  0.4127
  263MOL0     C35381   2.067   6.161  10.391 -0.1507  0.4500 -0.3771
  263MOL0     C35382   2.063   6.305  10.349  0.3466 -0.9120  0.6608
  263MOL0     C35383   2.144   6.410  10.435 -0.0850  1.5321  0.8870
  263MOL0     C35384   2.148   6.558  10.380  0.3870  1.1809  0.2366
  263MOL0     C35385   2.175   6.643  10.503 -0.3747 -0.5762  0.6642
  263MOL0     C35386   2.229   6.779  10.450 -0.0740 -0.1563  0.2121
  263MOL0     N35387   2.130   6.848  10.368 -0.2326  0.1271 -0.2626
  263MOL0     C35388   2.124   6.847  10.233 -1.0347 -0.8064 -0.1146
  263MOL0     C35389   2.044   6.951  10.198  0.6388  0.0684 -0.0078
  263MOL0     C35390   2.019   6.999  10.047  0.8862 -0.7234 -0.1350
  263MOL0     C35391   2.107   7.115  10.010 -0.3846  0.2479  0.8360
  263MOL0     C35392   2.025   7.245  10.022 -0.1460  0.4913 -0.6330
  263MOL0     C35393   2.107   7.350  10.086  0.4883  0.0097 -0.0082
  263MOL0     O35394   2.087   7.464  10.000  0.3650 -0.5143 -0.5646
  263MOL0     C35395   2.074   7.578  10.074 -0.2694  0.7054  0.2924
  263MOL0     C35396   1.950   7.640  10.098  0.7167 -0.3086  0.0676
  263MOL0     C35397   1.946   7.764  10.174 -0.4833  1.3280 -0.8419
  263MOL0     C35398   1.806   7.815  10.200  0.0296  0.2400 -0.3559
  263MOL0     C35399   2.065   7.827  10.226  0.3559  0.2092  1.2512
  263MOL0     C35400   2.064   7.945  10.312  0.4543 -0.5979 -0.1041
  263MOL0     O35401   2.188   7.999  10.326  0.8381 -0.4405 -1.3946
  263MOL0     C35402   2.213   8.112  10.403 -0.7060  0.6534 -0.3274
  263MOL0     C35403   2.168   8.123  10.531 -0.9827  0.6166 -0.4105
  263MOL0     C35404   2.206   8.224  10.622 -0.0095  0.9789  1.1877
  263MOL0     C35405   2.310   8.312  10.585  0.8425 -0.0131  0.9632
  263MOL0     O35406   2.365   8.380  10.681 -0.4564 -0.3106 -0.2929
  263MOL0     C35407   2.461   8.489  10.657 -0.8398 -0.1534 -0.3896
  263MOL0     C35408   2.533   8.528  10.784 -0.7210  1.1277 -0.3499
  263MOL0     C35409   2.614   8.658  10.771  0.2468 -0.4650 -0.1187
  263MOL0     C35410   2.758   8.617  10.735 -0.4733  0.2991  0.4076
  263MOL0     C35411   2.840   8.740  10.699 -0.2689  0.9637  0.7524
  263MOL0     C35412   2.969   8.695  10.625 -0.2700 -0.0635  0.3177
  263MOL0     C35413   3.068   8.806  10.654  0.2694 -0.4879  0.3693
  263MOL0     C35414   3.202   8.765  10.608  0.1893 -0.3471 -0.3740
  263MOL0    Cl35415   3.307   8.697  10.730 -0.3675 -0.3135  0.0348
  263MOL0     C35416   2.361   8.306  10.452  0.3182 -0.5040 -0.0124
  263MOL0     C35417   2.314   8.210  10.367 -0.7260 -0.2699 -0.2409
  263MOL0     O35418   1.966   7.979  10.383  0.1039 -0.1732 -0.0656
  263MOL0     C35419   2.188   7.760  10.190  0.3711 -0.3830  0.1594
  263MOL0     C35420   2.184   7.645  10.129  0.5415 -0.4475  0.2657
  263MOL0     N35421   1.990   7.003  10.308 -0.3526  0.5807 -0.4678
  263MOL0     N35422   2.042   6.941  10.416  1.0307  0.8157 -0.3437
  263MOL0     C35423   2.191   5.708  10.594  0.0513 -0.3238  0.1039
  263MOL0     C35424   2.157   5.583  10.631 -0.6206  0.4135  0.2560
  263MOL0     C35425   1.840   5.246  10.726 -0.2133 -0.1810  0.7072
  263MOL0     C35426   1.708   5.250  10.776  0.2943  0.6044  0.0661
  263MOL0     C35427   1.678   5.163  10.876  0.5691  0.6736  0.3130
  263MOL0     C35428   1.781   5.074  10.930 -0.4538  0.7346 -0.0187
  263MOL0     O35429   1.762   4.980  11.038  0.2216  0.2590  0.3312
  263MOL0     C35430   1.639   4.975  11.117 -0.0866 -0.0518 -0.6337
  263MOL0     C35431   1.578   4.827  11.141 -0.4747 -0.4282  0.8882
  263MOL0     C35432   1.693   4.739  11.207 -0.5147  0.5995  0.5982
  263MOL0     C35433   1.746   4.781  11.344  0.2680 -0.8719  0.3293
  263MOL0     C35434   1.639   4.778  11.453  0.6306  0.0144  0.1301
  263MOL0     C35435   1.543   4.771  11.527 -0.2990 -0.5080 -0.9682
  263MOL0     C35436   1.908   5.086  10.883 -0.6647 -0.0715 -1.0618
  263MOL0     C35437   1.939   5.170  10.785  0.0513 -1.2216  0.2419
  263MOL0     H35438   1.894   5.538  10.403  1.7353 -2.3285 -2.0021
  263MOL0     H35439   1.972   5.767  10.343 -0.3363 -1.3256 -0.7748
  263MOL0     H35440   2.287   5.914  10.294 -0.2355  1.0178 -0.2969
  263MOL0     H35441   2.106   5.939  10.295 -0.1105  2.0098  0.2243
  263MOL0     H35442   2.278   6.142  10.423 -3.4902  2.7688  2.7004
  263MOL0     H35443   2.229   6.136  10.246 -0.0885  2.0855  1.0296
  263MOL0     H35444   1.984   6.104  10.349  0.2799 -0.6592  0.2392
  263MOL0     H35445   2.051   6.146  10.499 -0.7765  2.8407 -0.0613
  263MOL0     H35446   2.105   6.314  10.248 -0.5369  1.1760  0.4258
  263MOL0     H35447   1.959   6.339  10.358 -0.0059 -1.2899 -1.4697
  263MOL0     H35448   2.096   6.401  10.533 -1.8142 -0.4064 -0.0433
  263MOL0     H35449   2.245   6.368  10.441 -0.3506  0.7580  0.1825
  263MOL0     H35450   2.205   6.565  10.287 -2.3896 -0.5951 -1.7586
  263MOL0     H35451   2.052   6.589  10.338  0.4357 -0.7445 -1.4113
  263MOL0     H35452   2.083   6.664  10.558 -0.2132  0.9228  0.3895
  263MOL0     H35453   2.250   6.611  10.576  0.9638  0.1114 -0.3717
  263MOL0     H35454   2.320   6.764  10.391  0.3253 -0.2148  0.8320
  263MOL0     H35455   2.251   6.839  10.539 -0.2404  0.1666  0.0354
  263MOL0     H35456   2.185   6.787  10.166  1.0326  0.6596  0.3270
  263MOL0     H35457   2.037   6.910   9.985 -1.0703 -0.7945 -0.6596
  263MOL0     H35458   1.913   7.014  10.025  0.6972 -3.1668 -1.3376
  263MOL0     H35459   2.146   7.102   9.908  1.7288  2.4444  1.2915
  263MOL0     H35460   2.194   7.121  10.076  0.6559  0.4846 -0.4923
  263MOL0     H35461   1.944   7.233  10.094  0.1900  0.2388 -0.2989
  263MOL0     H35462   1.985   7.273   9.924  2.0385 -2.0749 -2.3904
  263MOL0     H35463   2.214   7.341  10.064  0.3045 -0.6196 -0.6966
  263MOL0     H35464   2.088   7.345  10.193 -2.3912  1.0331 -0.3763
  263MOL0     H35465   1.858   7.589  10.073  1.3131 -2.6117  2.1653
  263MOL0     H35466   1.794   7.924  10.196  2.0926  0.4887 -3.2893
  263MOL0     H35467   1.734   7.789  10.121 -2.5740 -0.4546  2.0992
  263MOL0     H35468   1.763   7.772  10.290 -1.7470 -1.9739 -2.1186
  263MOL0     H35469   2.114   8.045  10.582  0.3421  0.4164  0.7563
  263MOL0     H35470   2.164   8.234  10.722 -2.3594  1.6753  0.1903
  263MOL0     H35471   2.535   8.472  10.579 -0.7159  3.2668 -1.1737
  263MOL0     H35472   2.411   8.581  10.625  3.2133  2.0104 -1.2024
  263MOL0     H35473   2.449   8.541  10.853 -0.4861  2.5085 -0.2886
  263MOL0     H35474   2.593   8.442  10.814 -0.9126  0.6952 -1.1865
  263MOL0     H35475   2.607   8.710  10.867  1.8214 -1.5681  0.6392
  263MOL0     H35476   2.561   8.714  10.693  0.2244  1.0856  0.9720
  263MOL0     H35477   2.805   8.555  10.813  1.4405 -0.4557 -1.2370
  263MOL0     H35478   2.757   8.556  10.645  2.5810  1.8325 -0.7932
  263MOL0     H35479   2.859   8.788  10.796 -3.8562  1.9908  1.1240
  263MOL0     H35480   2.783   8.810  10.637  0.7955 -0.5025 -2.0246
  263MOL0     H35481   3.006   8.598  10.661 -0.5970  0.3269  1.7893
  263MOL0     H35482   2.964   8.673  10.518  1.4082  2.0409 -0.2545
  263MOL0     H35483   3.060   8.822  10.762  1.7347 -1.5536  0.6650
  263MOL0     H35484   3.021   8.887  10.597 -0.3189 -0.3726  0.9996
  263MOL0     H35485   3.243   8.858  10.567 -2.1048  0.8986 -0.0226
  263MOL0     H35486   3.194   8.685  10.534  0.8402 -0.1374 -0.6827
  263MOL0     H35487   2.440   8.376  10.427  1.0995 -0.2556  2.8347
  263MOL0     H35488   2.359   8.187  10.270 -1.0542  2.8672 -1.2494
  263MOL0     H35489   2.289   7.795  10.209 -0.4511  1.3694  1.5381
  263MOL0     H35490   2.286   7.607  10.121  1.7374  2.0769  1.7818
  263MOL0     H35491   2.258   5.772  10.650 -1.9703  2.8412 -0.7962
  263MOL0     H35492   2.206   5.536  10.716 -2.3298 -3.3197 -0.6017
  263MOL0     H35493   1.632   5.315  10.734 -0.8354 -0.9047 -0.3112
  263MOL0     H35494   1.574   5.158  10.905  1.4299 -2.9832  3.6219
  263MOL0     H35495   1.666   5.030  11.208  1.2121 -1.7877  0.0852
  263MOL0     H35496   1.555   5.029  11.072 -0.9132  0.4941  1.4429
  263MOL0     H35497   1.523   4.788  11.055 -1.5479  0.5355  1.1177
  263MOL0     H35498   1.500   4.841  11.217 -0.1737  0.5373  1.0378
  263MOL0     H35499   1.776   4.736  11.134 -2.2233  2.4129 -1.5565
  263MOL0     H35500   1.660   4.635  11.213 -1.0013  0.5922 -1.5163
  263MOL0     H35501   1.798   4.877  11.342 -1.1743 -0.0884 -1.4701
  263MOL0     H35502   1.824   4.714  11.382  0.8916 -1.4718 -1.8629
  263MOL0     H35503   1.466   4.756  11.600  0.3823  3.1965  0.7702
  263MOL0     H35504   1.979   5.020  10.932 -3.0535 -0.2038  2.6219
  263MOL0     H35505   2.044   5.191  10.767  0.2752  0.2051  2.7246
  264MOL0     O35506  10.090   8.795  10.570 -0.3631  0.2960 -0.3641
  264MOL0     C35507  10.068   8.798  10.691  0.0120 -0.3871 -0.4007
  264MOL0     O35508  10.112   8.887  10.782 -0.7302  0.7355  0.3852
  264MOL0     C35509  10.193   8.990  10.745 -0.6693 -0.4517  1.0352
  264MOL0     C35510  10.217   9.043  10.613 -0.3815 -0.1094  0.4559
  264MOL0     C35511  10.270   9.163  10.584  0.1937 -0.5082  0.6198
  264MOL0     C35512  10.332   9.239  10.682 -0.0472 -0.1884 -0.4200
  264MOL0     O35513  10.387   9.352  10.644  0.3352  0.1903  1.2989
  264MOL0     C35514  10.372   9.470  10.735  0.0899  0.3824  0.1219
  264MOL0     C35515  10.442   9.595  10.673 -0.3977  1.5439 -0.0337
  264MOL0     C35516  10.367   9.649  10.546  0.4053 -0.6164 -0.4411
  264MOL0     C35517  10.447   9.773  10.490  0.0339  0.1531 -0.0182
  264MOL0     C35518  10.489   9.871  10.599  0.3158 -0.6986 -0.7407
  264MOL0     C35519  10.548  10.006  10.547 -0.5198 -0.9820  0.0832
  264MOL0     C35520  10.676   9.997  10.469 -0.5989 -0.4352  0.1330
  264MOL0     C35521  10.804   9.960  10.541 -0.4907  0.1884 -0.2038
  264MOL0     N35522  10.922   9.970  10.450 -0.2313 -0.1155 -0.8868
  264MOL0     C35523  11.003  10.072  10.438 -0.3503  0.4598  0.5287
  264MOL0     C35524  11.112  10.021  10.386  0.5598  0.3004  0.4241
  264MOL0     C35525  11.240  10.094  10.344 -0.8885  0.1188 -0.0339
  264MOL0     C35526  11.352  10.060  10.436  0.0747 -0.4411  0.3729
  264MOL0     C35527  11.306  10.111  10.565  0.0841  0.5095  0.4596
  264MOL0     C35528  11.420  10.075  10.672 -0.0529 -0.9291 -0.6922
  264MOL0     O35529  11.410  10.151  10.794  0.5032  0.5433  0.7761
  264MOL0     C35530  11.469  10.106  10.902 -1.1164 -0.0926 -0.1757
  264MOL0     C35531  11.406  10.133  11.025 -0.3000  0.3244 -0.2096
  264MOL0     C35532  11.460  10.085  11.147 -0.7671  0.2115 -0.3782
  264MOL0     C35533  11.370  10.096  11.267  0.4063  0.4384  0.3615
  264MOL0     C35534  11.580  10.010  11.145 -0.0823 -0.1648 -0.1784
  264MOL0     C35535  11.640   9.954  11.265  0.5886 -0.1724 -0.9851
  264MOL0     O35536  11.664   9.818  11.261 -0.2984 -0.9069 -0.9745
  264MOL0     C35537  11.665   9.758  11.382  0.3727  0.7576  1.1269
  264MOL0     C35538  11.543   9.757  11.460 -0.5637  0.6296  0.0769
  264MOL0     C35539  11.536   9.695  11.586 -0.0534  1.2531 -0.1575
  264MOL0     C35540  11.662   9.647  11.641 -0.4011 -0.1142 -0.7040
  264MOL0     O35541  11.647   9.597  11.769  1.3452  0.3637 -0.4090
  264MOL0     C35542  11.758   9.551  11.846 -0.6766  0.2987  0.2878
  264MOL0     C35543  11.788   9.401  11.823 -0.4813  0.1812 -0.0670
  264MOL0     C35544  11.674   9.311  11.864 -0.1135  0.1102  0.3598
  264MOL0     C35545  11.736   9.178  11.843  0.3950 -0.8751 -0.4848
  264MOL0     C35546  11.635   9.063  11.892 -0.1302 -0.4179 -0.2615
  264MOL0     C35547  11.692   8.938  11.813 -0.5955 -0.3124  0.3785
  264MOL0     C35548  11.611   8.810  11.839  0.0921 -0.3884 -0.2947
  264MOL0     C35549  11.667   8.689  11.756 -0.0535  0.5574  0.5239
  264MOL0    Cl35550  11.817   8.631  11.841  0.4882 -0.0788  0.3031
  264MOL0     C35551  11.785   9.639  11.561 -0.3656 -1.4172 -0.0172
  264MOL0     C35552  11.783   9.693  11.432 -0.4930 -0.5130 -0.2059
  264MOL0     O35553  11.654  10.025  11.364  0.2511 -0.2065  0.2029
  264MOL0     C35554  11.644   9.990  11.024 -0.0891 -0.4248  0.0233
  264MOL0     C35555  11.592  10.040  10.902  0.2484 -1.0330  0.2340
  264MOL0     N35556  11.094   9.886  10.351 -0.1127 -0.4443  0.0827
  264MOL0     N35557  10.969   9.859  10.387 -0.9381  0.3701  0.0909
  264MOL0     C35558  10.308   9.197  10.815 -1.0516  0.5447 -0.3073
  264MOL0     C35559  10.246   9.074  10.842  0.0495 -0.0217  0.0077
  264MOL0     C35560  10.018   8.671  10.751  0.3470 -1.0344 -0.3742
  264MOL0     C35561  10.037   8.646  10.889 -0.1511 -0.4490  0.4626
  264MOL0     C35562  10.019   8.521  10.944 -0.1204  0.7435 -0.2887
  264MOL0     C35563   9.975   8.413  10.862 -0.2005 -0.6615  0.2914
  264MOL0     O35564   9.948   8.289  10.908 -0.2267  0.5601  0.5421
  264MOL0     C35565   9.950   8.255  11.043  0.5496 -0.3792  0.2887
  264MOL0     C35566   9.864   8.131  11.070 -0.6610 -1.0880 -0.2277
  264MOL0     C35567   9.866   8.114  11.222  0.3718 -0.3710  0.3307
  264MOL0     C35568   9.749   8.021  11.254  0.1654 -0.5975 -0.9826
  264MOL0     C35569   9.776   7.980  11.396  0.1741  0.1707  0.2558
  264MOL0     C35570   9.793   7.935  11.511 -0.1890  0.9451 -0.1763
  264MOL0     C35571   9.966   8.431  10.726  0.4672 -0.5747 -0.5989
  264MOL0     C35572   9.981   8.557  10.675 -0.7968  0.6486 -0.4267
  264MOL0     H35573  10.194   8.985  10.524  1.4033 -0.9912  0.5109
  264MOL0     H35574  10.281   9.206  10.485 -2.8852  2.0886  1.2536
  264MOL0     H35575  10.268   9.501  10.753 -0.5595 -3.1147  4.1016
  264MOL0     H35576  10.410   9.463  10.837 -4.1092  2.5538  2.1038
  264MOL0     H35577  10.453   9.672  10.751  1.7760  0.4863  0.7782
  264MOL0     H35578  10.534   9.549  10.637 -1.6567 -0.5773 -0.6933
  264MOL0     H35579  10.350   9.588  10.456 -3.3450  1.4897 -1.3970
  264MOL0     H35580  10.269   9.681  10.585  0.4079 -2.7356  1.5710
  264MOL0     H35581  10.532   9.740  10.430 -0.2523 -0.1230 -0.2736
  264MOL0     H35582  10.379   9.826  10.424 -0.0559  1.8237  1.3301
  264MOL0     H35583  10.401   9.900  10.658  0.1586 -1.6022 -0.5128
  264MOL0     H35584  10.568   9.830  10.663 -0.8901  0.5861  1.7304
  264MOL0     H35585  10.472  10.069  10.499 -0.7964  0.0147  1.7377
  264MOL0     H35586  10.561  10.058  10.643 -4.9427  1.6481 -0.4534
  264MOL0     H35587  10.657   9.923  10.390 -2.1975  1.7110 -1.6372
  264MOL0     H35588  10.689  10.093  10.418 -1.1501  1.7085  3.7379
  264MOL0     H35589  10.785   9.857  10.575 -3.8864  1.5117  2.4853
  264MOL0     H35590  10.832  10.014  10.632  0.5175  1.2889 -1.1413
  264MOL0     H35591  10.966  10.171  10.467 -3.2083 -1.3544  3.8712
  264MOL0     H35592  11.273  10.058  10.246 -0.5403  0.2741  0.0262
  264MOL0     H35593  11.225  10.202  10.344 -3.4943  0.1035  5.6592
  264MOL0     H35594  11.452  10.101  10.416  0.6539 -1.3060  1.3657
  264MOL0     H35595  11.352   9.950  10.432 -1.1620 -0.4551 -2.7100
  264MOL0     H35596  11.215  10.070  10.611 -1.0464  0.9057 -1.2960
  264MOL0     H35597  11.300  10.219  10.550 -1.0317  0.0323 -4.0943
  264MOL0     H35598  11.519  10.096  10.632  0.2388  0.8067  0.8108
  264MOL0     H35599  11.411   9.968  10.691  0.6297 -0.5114  2.4392
  264MOL0     H35600  11.307  10.176  11.014  0.3157  1.8711  0.0248
  264MOL0     H35601  11.387  10.022  11.346  2.9139 -0.6470 -1.0969
  264MOL0     H35602  11.371  10.198  11.306 -0.2742  1.1096 -1.3078
  264MOL0     H35603  11.265  10.096  11.236  0.5490 -3.1330 -0.5897
  264MOL0     H35604  11.458   9.819  11.433 -1.0181 -0.0955 -0.1995
  264MOL0     H35605  11.441   9.687  11.638 -1.3108  0.0620 -2.5141
  264MOL0     H35606  11.847   9.615  11.833  0.3907 -0.8118  1.7606
  264MOL0     H35607  11.748   9.565  11.954  1.9335 -1.6865  0.8938
  264MOL0     H35608  11.805   9.390  11.716  1.0592  1.6267 -0.0095
  264MOL0     H35609  11.881   9.383  11.878 -0.8861  0.5547  0.7532
  264MOL0     H35610  11.592   9.314  11.792  1.5107 -2.1173 -1.7322
  264MOL0     H35611  11.633   9.328  11.964  0.4307  0.1982  0.5738
  264MOL0     H35612  11.753   9.171  11.735  0.2189  2.7288 -0.8563
  264MOL0     H35613  11.832   9.174  11.895 -1.8535  0.8649  4.4172
  264MOL0     H35614  11.532   9.079  11.859 -1.7655  2.2915  4.9568
  264MOL0     H35615  11.636   9.041  11.999 -2.4918 -3.6316 -0.7532
  264MOL0     H35616  11.691   8.961  11.707  0.1389 -3.7639 -0.5201
  264MOL0     H35617  11.796   8.928  11.845 -1.3534 -0.8604  2.9051
  264MOL0     H35618  11.505   8.827  11.815 -0.0081  1.6651  1.3266
  264MOL0     H35619  11.620   8.796  11.947 -1.3626  0.4562 -0.0377
  264MOL0     H35620  11.674   8.708  11.648 -0.8444  0.2643  0.4120
  264MOL0     H35621  11.600   8.603  11.769 -0.2887  1.1643  4.0645
  264MOL0     H35622  11.868   9.599  11.617 -1.7995 -0.3111  3.1264
  264MOL0     H35623  11.869   9.706  11.367 -0.1550  2.4173  0.6960
  264MOL0     H35624  11.747   9.957  11.018  1.7764  4.3893  1.3380
  264MOL0     H35625  11.653  10.012  10.817  0.6066 -3.8461  1.2871
  264MOL0     H35626  10.329   9.255  10.903 -2.4355 -1.4854  1.4597
  264MOL0     H35627  10.223   9.036  10.941 -3.8740 -0.3900 -0.9012
  264MOL0     H35628  10.062   8.734  10.948 -3.0760  1.9948 -1.6335
  264MOL0     H35629  10.060   8.500  11.042 -0.0288  0.0551 -0.4693
  264MOL0     H35630  10.055   8.247  11.071  0.9089 -2.1712 -1.3995
  264MOL0     H35631   9.906   8.343  11.092 -0.8699 -1.2129  0.5611
  264MOL0     H35632   9.920   8.054  11.016 -0.2826  0.6875 -2.4841
  264MOL0     H35633   9.763   8.143  11.031 -0.9505  0.9246  1.0348
  264MOL0     H35634   9.837   8.204  11.276 -2.5714  0.9269 -2.9988
  264MOL0     H35635   9.963   8.083  11.260  0.8827  1.9155  1.0142
  264MOL0     H35636   9.745   7.923  11.204  0.5328 -0.9751 -0.2892
  264MOL0     H35637   9.656   8.075  11.235  0.8001  0.1870 -1.9421
  264MOL0     H35638   9.814   7.896  11.609 -1.2437 -2.0721 -1.0253
  264MOL0     H35639   9.933   8.347  10.666 -2.2132 -0.5237  0.6352
  264MOL0     H35640   9.980   8.565  10.567  1.2741 -1.1842 -0.6490
  265MOL0     O35641   2.234  10.510   4.457  0.4556 -0.2513 -0.5582
  265MOL0     C35642   2.189  10.620   4.487 -0.7483 -0.5531  0.2379
  265MOL0     O35643   2.154  10.714   4.403  0.3446  0.3924  0.4760
  265MOL0     C35644   2.131  10.673   4.275  0.5023 -0.3090  1.1351
  265MOL0     C35645   1.998  10.665   4.230 -0.1177  0.8929 -0.0544
  265MOL0     C35646   1.964  10.615   4.104 -0.1829 -0.1608  0.4401
  265MOL0     C35647   2.069  10.576   4.015  0.1368 -1.3549  0.4298
  265MOL0     O35648   2.029  10.543   3.886  0.9379 -0.2595  0.3688
  265MOL0     C35649   2.123  10.459   3.809 -0.2253 -0.6790 -0.4242
  265MOL0     C35650   2.031  10.355   3.744  0.5968  0.7261  0.8223
  265MOL0     C35651   1.950  10.271   3.847 -0.8914 -0.0775  0.1966
  265MOL0     C35652   1.924  10.124   3.798 -0.3740  0.8539  0.2819
  265MOL0     C35653   1.875  10.044   3.923 -1.3616 -0.2375  0.1566
  265MOL0     C35654   1.825   9.905   3.870 -0.8165 -0.1216  1.0928
  265MOL0     C35655   1.800   9.791   3.976 -0.0460 -0.0990  0.7952
  265MOL0     C35656   1.658   9.804   4.039 -0.7020 -0.0325 -0.2655
  265MOL0     N35657   1.653   9.905   4.144  0.1157  0.1881  0.1860
  265MOL0     C35658   1.719   9.893   4.261 -0.9899 -0.9503 -0.3679
  265MOL0     C35659   1.698  10.015   4.320  0.2054  0.0342  1.0174
  265MOL0     C35660   1.754  10.087   4.440 -0.8494  1.0184  0.0181
  265MOL0     C35661   1.910  10.108   4.411  0.3183 -0.2518  0.4823
  265MOL0     C35662   1.920  10.240   4.324 -0.6583  0.0760 -0.2553
  265MOL0     C35663   2.075  10.267   4.329 -0.5579  0.2886  0.3532
  265MOL0     O35664   2.147  10.158   4.281 -0.3598  0.5287  0.8093
  265MOL0     C35665   2.225  10.182   4.172  0.0961 -0.2978  0.0452
  265MOL0     C35666   2.222  10.111   4.048  0.2563 -0.0953 -0.0806
  265MOL0     C35667   2.295  10.144   3.934 -0.8151 -0.1306  0.0327
  265MOL0     C35668   2.281  10.061   3.805  0.1220 -0.4117 -0.7187
  265MOL0     C35669   2.398  10.243   3.948  0.5810  0.1205 -0.0794
  265MOL0     C35670   2.487  10.291   3.833 -0.7718  0.4729  0.2633
  265MOL0     O35671   2.606  10.349   3.865  0.5452  0.5084 -0.3943
  265MOL0     C35672   2.647  10.438   3.772  0.9200 -0.4490  0.3691
  265MOL0     C35673   2.752  10.399   3.691  0.2228 -0.6589  0.3803
  265MOL0     C35674   2.802  10.497   3.605  0.1619  0.7337 -0.6516
  265MOL0     C35675   2.760  10.627   3.602 -0.8678  0.1207 -0.2243
  265MOL0     O35676   2.810  10.732   3.530  0.6702  0.3806 -0.6379
  265MOL0     C35677   2.934  10.695   3.460 -0.7033  0.1588 -0.6031
  265MOL0     C35678   3.011  10.813   3.401 -0.1286  0.2112 -0.7761
  265MOL0     C35679   3.080  10.889   3.518 -0.0188  0.5359 -0.5048
  265MOL0     C35680   3.159  11.009   3.470 -0.9851  0.1992  0.5069
  265MOL0     C35681   3.253  11.074   3.574  0.3987 -0.1325 -0.2453
  265MOL0     C35682   3.280  11.220   3.537 -0.1920 -0.4965  0.2624
  265MOL0     C35683   3.355  11.239   3.400  0.4420 -0.6540  1.2346
  265MOL0     C35684   3.474  11.145   3.370 -0.3299  0.5160 -0.0106
  265MOL0    Cl35685   3.590  11.144   3.506 -0.0589 -0.5046 -0.0131
  265MOL0     C35686   2.649  10.665   3.678 -0.2677 -0.0126 -0.5564
  265MOL0     C35687   2.594  10.569   3.763 -0.5559  0.0946 -0.1715
  265MOL0     O35688   2.448  10.274   3.718 -0.0233  0.6509 -0.3680
  265MOL0     C35689   2.414  10.306   4.073  0.5022  0.2424  0.8215
  265MOL0     C35690   2.325  10.268   4.180 -0.6831 -0.5435  0.3683
  265MOL0     N35691   1.618  10.091   4.237  0.2002  0.8914  0.4884
  265MOL0     N35692   1.596  10.024   4.132  0.0826 -0.6101  0.0312
  265MOL0     C35693   2.203  10.603   4.055 -0.5992 -0.2797 -0.5741
  265MOL0     C35694   2.226  10.644   4.182 -0.7074  0.6055  0.4314
  265MOL0     C35695   2.183  10.657   4.631 -0.3759  0.5053  0.5726
  265MOL0     C35696   2.112  10.779   4.668  0.2165  0.0744 -0.3209
  265MOL0     C35697   2.115  10.823   4.794 -0.6998  0.2333 -0.3486
  265MOL0     C35698   2.193  10.754   4.894  0.9847 -0.1511  0.3305
  265MOL0     O35699   2.199  10.784   5.022 -0.4248 -0.0408 -0.1615
  265MOL0     C35700   2.294  10.881   5.050  0.5346  0.7301 -1.0115
  265MOL0     C35701   2.317  10.909   5.205 -0.5552 -0.3176 -0.3615
  265MOL0     C35702   2.359  10.776   5.272 -0.0010 -1.1518 -0.5120
  265MOL0     C35703   2.292  10.772   5.412  0.5643 -0.0964  0.9814
  265MOL0     C35704   2.383  10.845   5.502 -0.5483 -0.9027 -0.3919
  265MOL0     C35705   2.462  10.898   5.582  0.3150 -0.5764  0.3261
  265MOL0     C35706   2.261  10.641   4.863 -0.2065  0.5879 -0.8774
  265MOL0     C35707   2.260  10.592   4.728  0.5395 -0.4585  0.1769
  265MOL0     H35708   1.916  10.690   4.297  0.9847  0.5166  1.4872
  265MOL0     H35709   1.860  10.613   4.072 -0.0832 -0.5955  0.1279
  265MOL0     H35710   2.176  10.529   3.744  0.7815 -1.2207 -0.2118
  265MOL0     H35711   2.204  10.406   3.860  2.4315  0.2510 -3.3661
  265MOL0     H35712   1.966  10.408   3.673  3.0879  2.0099 -0.6339
  265MOL0     H35713   2.081  10.294   3.669 -3.0685 -0.6062 -0.8160
  265MOL0     H35714   1.996  10.270   3.947 -0.3668 -0.2505 -0.0431
  265MOL0     H35715   1.854  10.312   3.879 -1.6755 -3.0861  2.2145
  265MOL0     H35716   1.853  10.116   3.715  0.1572  0.5976 -0.1540
  265MOL0     H35717   2.017  10.076   3.767  0.3503  2.4333 -0.0802
  265MOL0     H35718   1.962  10.042   3.989 -0.8200  1.4025 -0.4664
  265MOL0     H35719   1.790  10.092   3.971 -3.0404 -4.2854  1.6916
  265MOL0     H35720   1.742   9.919   3.801  0.3290 -0.9410 -0.5004
  265MOL0     H35721   1.907   9.861   3.812 -0.8780 -0.6837  1.4240
  265MOL0     H35722   1.802   9.692   3.929  0.2096  0.1463  0.2867
  265MOL0     H35723   1.879   9.801   4.052  1.1494 -1.7398 -0.1719
  265MOL0     H35724   1.639   9.712   4.096  0.7756  0.5373  1.2338
  265MOL0     H35725   1.583   9.820   3.961  1.5568  0.8452 -2.3776
  265MOL0     H35726   1.770   9.802   4.291 -3.3759 -1.7501  1.5612
  265MOL0     H35727   1.705  10.183   4.458  0.3411  1.6625 -0.1121
  265MOL0     H35728   1.726  10.027   4.527 -3.8185  1.8534 -0.2704
  265MOL0     H35729   1.950  10.023   4.355 -1.6645 -1.8582  1.3592
  265MOL0     H35730   1.964  10.111   4.506 -0.0350 -3.5811  0.9194
  265MOL0     H35731   1.871  10.327   4.369 -0.4445  1.1820 -2.0507
  265MOL0     H35732   1.883  10.228   4.222 -1.6148  0.7166  0.0086
  265MOL0     H35733   2.100  10.290   4.433  0.7616  2.1145 -0.3256
  265MOL0     H35734   2.093  10.357   4.270 -1.1117 -0.3259 -0.7895
  265MOL0     H35735   2.151  10.029   4.036 -1.2848  1.3123 -0.9865
  265MOL0     H35736   2.219   9.978   3.837 -2.3277  0.7744 -2.1200
  265MOL0     H35737   2.226  10.096   3.718 -1.4730 -2.1807 -0.4761
  265MOL0     H35738   2.384  10.028   3.789  1.5548  1.8640  2.4921
  265MOL0     H35739   2.792  10.299   3.705  2.4580  0.0219 -0.6265
  265MOL0     H35740   2.876  10.467   3.531 -0.0416  2.3733 -1.5742
  265MOL0     H35741   3.002  10.641   3.527 -1.5237 -0.9070 -0.6099
  265MOL0     H35742   2.911  10.630   3.375 -0.4793 -0.5637 -0.1207
  265MOL0     H35743   3.087  10.790   3.325  2.0164 -0.1719  1.3588
  265MOL0     H35744   2.926  10.869   3.362 -0.2819  1.6573  1.4310
  265MOL0     H35745   3.143  10.816   3.569 -2.7111 -2.6629 -1.3734
  265MOL0     H35746   3.018  10.927   3.599  1.1237  0.2165  0.5431
  265MOL0     H35747   3.213  10.961   3.388 -0.7372  1.4818 -0.0911
  265MOL0     H35748   3.093  11.089   3.435  0.5808  2.2190  1.9594
  265MOL0     H35749   3.351  11.026   3.575  0.1237 -1.1221 -4.3491
  265MOL0     H35750   3.204  11.076   3.672  2.2425  1.2595  0.7303
  265MOL0     H35751   3.184  11.272   3.530 -0.1830 -0.4358  0.5609
  265MOL0     H35752   3.332  11.272   3.619  3.2046 -2.5686 -0.3876
  265MOL0     H35753   3.377  11.346   3.404  0.3834 -0.6505  1.4558
  265MOL0     H35754   3.276  11.235   3.323  1.7008  1.3115 -0.2522
  265MOL0     H35755   3.519  11.172   3.274 -0.9267 -1.1554 -0.7900
  265MOL0     H35756   3.439  11.041   3.365  1.3210 -0.6314  5.5148
  265MOL0     H35757   2.618  10.769   3.680  2.3428  0.8808  2.2905
  265MOL0     H35758   2.520  10.608   3.833 -1.3240 -1.2069 -0.2234
  265MOL0     H35759   2.491  10.382   4.079  0.4787  0.3315  0.0551
  265MOL0     H35760   2.341  10.307   4.280  0.4776 -2.2068  0.8835
  265MOL0     H35761   2.294  10.587   3.998  0.2043 -0.2417  0.6658
  265MOL0     H35762   2.326  10.653   4.224 -1.2537  2.7006  1.4114
  265MOL0     H35763   2.052  10.833   4.596  1.4868  1.6254 -0.2531
  265MOL0     H35764   2.049  10.904   4.821 -1.3585 -0.9606  1.8835
  265MOL0     H35765   2.393  10.859   5.010  1.5044  1.0295  1.1166
  265MOL0     H35766   2.258  10.974   5.004  0.4799  1.8365  1.1429
  265MOL0     H35767   2.218  10.934   5.246  0.6826 -1.3147  3.7338
  265MOL0     H35768   2.384  10.991   5.234 -3.3930  1.1792  2.5563
  265MOL0     H35769   2.467  10.772   5.284 -0.2451 -0.1919  2.9382
  265MOL0     H35770   2.322  10.687   5.220  2.3420 -2.9581  0.7492
  265MOL0     H35771   2.301  10.666   5.437 -2.8275 -1.5419 -2.8631
  265MOL0     H35772   2.189  10.808   5.414  1.5058  2.8532  1.0697
  265MOL0     H35773   2.517  10.957   5.652 -1.9965  3.1544 -0.7220
  265MOL0     H35774   2.305  10.585   4.945 -2.2620  2.3022  1.5428
  265MOL0     H35775   2.309  10.501   4.696  1.2005  0.0267 -0.2102
  266MOL0     O35776   7.304   7.719   9.567 -0.1853  0.6664 -0.2490
  266MOL0     C35777   7.272   7.661   9.670  0.1731  0.3096 -0.5912
  266MOL0     O35778   7.325   7.543   9.716 -0.3739 -0.0559 -0.0142
  266MOL0     C35779   7.413   7.478   9.628 -0.6171 -0.5571  0.5717
  266MOL0     C35780   7.391   7.347   9.576  0.6506  0.3925 -0.6367
  266MOL0     C35781   7.492   7.281   9.508 -0.0423  0.4629  0.4161
  266MOL0     C35782   7.619   7.335   9.485 -0.2610 -0.7646 -0.2586
  266MOL0     O35783   7.726   7.261   9.442  0.7203  0.4886  0.3539
  266MOL0     C35784   7.695   7.188   9.328 -0.0363 -0.4747  0.4691
  266MOL0     C35785   7.696   7.276   9.202 -0.1119 -0.6157  0.9246
  266MOL0     C35786   7.553   7.327   9.153 -0.8327  0.6208  0.3389
  266MOL0     C35787   7.534   7.469   9.098  0.0007 -0.1817 -0.0235
  266MOL0     C35788   7.385   7.520   9.072 -0.9273 -0.3306  0.2788
  266MOL0     C35789   7.388   7.654   9.008 -1.1689 -0.5438  0.1273
  266MOL0     C35790   7.249   7.708   8.961 -0.9036 -0.0311 -0.3343
  266MOL0     C35791   7.245   7.742   8.807 -0.0355 -0.2164 -0.2847
  266MOL0     N35792   7.110   7.763   8.760  0.7063 -0.6360 -0.1179
  266MOL0     C35793   7.071   7.856   8.667  0.3211 -0.4172 -0.3377
  266MOL0     C35794   6.943   7.813   8.636  0.8689  0.5172 -0.6618
  266MOL0     C35795   6.851   7.874   8.539 -0.4998 -0.4304 -0.8629
  266MOL0     C35796   6.761   7.979   8.608 -0.3530 -0.4212  0.2610
  266MOL0     C35797   6.709   8.064   8.501 -0.1163 -1.0315  0.3335
  266MOL0     C35798   6.626   8.176   8.559 -0.2252  0.7178  0.0813
  266MOL0     O35799   6.693   8.272   8.633 -0.5249  0.2898 -0.5760
  266MOL0     C35800   6.656   8.408   8.642 -0.5175  1.2895 -0.5142
  266MOL0     C35801   6.762   8.495   8.646  0.8482  0.6261 -1.1398
  266MOL0     C35802   6.739   8.632   8.638  0.4047 -0.2216 -0.5369
  266MOL0     C35803   6.870   8.705   8.623  0.5426 -1.0989  0.3521
  266MOL0     C35804   6.609   8.682   8.616 -0.2118 -0.0915 -0.2134
  266MOL0     C35805   6.581   8.828   8.603  0.4403 -0.4674  0.7971
  266MOL0     O35806   6.452   8.866   8.587  0.0110  0.2679 -0.1828
  266MOL0     C35807   6.431   8.993   8.552  0.8343  0.1281  0.1338
  266MOL0     C35808   6.369   9.062   8.655  0.4663 -0.3793  0.1624
  266MOL0     C35809   6.324   9.196   8.625 -0.1557  0.1763  0.3366
  266MOL0     C35810   6.366   9.255   8.507 -0.0808 -0.4167 -0.0437
  266MOL0     O35811   6.321   9.382   8.468 -0.4890  0.4556  0.0929
  266MOL0     C35812   6.349   9.491   8.551 -0.2965  0.1195 -0.3334
  266MOL0     C35813   6.291   9.625   8.501 -0.4268  0.1066  0.5102
  266MOL0     C35814   6.145   9.612   8.456  0.6943  0.3293  1.0147
  266MOL0     C35815   6.146   9.557   8.316 -0.4558  0.2962  0.1786
  266MOL0     C35816   6.000   9.558   8.260  1.0066 -0.3089 -0.6015
  266MOL0     C35817   5.997   9.509   8.108 -0.7539 -1.3407 -1.6534
  266MOL0     C35818   5.849   9.501   8.065  1.3959  0.2980  0.7100
  266MOL0     C35819   5.803   9.352   8.046 -0.0832  0.3188 -0.4564
  266MOL0    Cl35820   5.688   9.348   7.907 -0.2166 -0.0401 -0.2271
  266MOL0     C35821   6.437   9.182   8.411 -0.2536  0.2815  0.0831
  266MOL0     C35822   6.470   9.055   8.427  0.1566  0.2085  0.1926
  266MOL0     O35823   6.674   8.905   8.597 -0.0979 -0.1826 -0.7618
  266MOL0     C35824   6.500   8.584   8.619 -0.6188 -1.1023  0.7551
  266MOL0     C35825   6.525   8.446   8.629 -0.8635 -0.0824 -0.1365
  266MOL0     N35826   6.921   7.693   8.696  0.6372 -0.1682 -0.3778
  266MOL0     N35827   7.020   7.662   8.771 -0.1897  0.1406  0.1936
  266MOL0     C35828   7.639   7.469   9.536 -0.4829  0.0751 -0.2605
  266MOL0     C35829   7.531   7.540   9.600 -0.0175  0.5147  0.4512
  266MOL0     C35830   7.155   7.716   9.748 -0.1235 -0.4477 -0.4350
  266MOL0     C35831   7.093   7.637   9.856 -0.5133 -0.9501  0.3917
  266MOL0     C35832   6.983   7.695   9.937  0.4315 -0.6364  0.0494
  266MOL0     C35833   6.930   7.822   9.898  0.2882  0.8157  0.3071
  266MOL0     O35834   6.810   7.864   9.955  0.5190  0.0348 -0.6929
  266MOL0     C35835   6.794   7.862  10.097 -0.4838  0.1667  0.3623
  266MOL0     C35836   6.895   7.941  10.169 -0.1689 -0.1224 -0.7417
  266MOL0     C35837   6.903   8.087  10.117  0.1967 -0.4065 -0.7637
  266MOL0     C35838   6.924   8.197  10.227  0.6262 -0.5194 -1.0827
  266MOL0     C35839   6.947   8.323  10.172 -1.1117  0.7434  0.6630
  266MOL0     C35840   6.949   8.432  10.118  0.6996 -0.2114  0.3252
  266MOL0     C35841   6.975   7.893   9.784 -0.9707  0.7363 -0.7254
  266MOL0     C35842   7.079   7.832   9.715 -0.8198 -0.3653 -0.6533
  266MOL0     H35843   7.301   7.291   9.601  0.9196 -1.2896 -3.0638
  266MOL0     H35844   7.470   7.178   9.482 -2.3699  1.0735 -0.3491
  266MOL0     H35845   7.779   7.118   9.322 -1.7623 -3.0165  3.3970
  266MOL0     H35846   7.605   7.127   9.335  0.8872 -1.8670  0.7605
  266MOL0     H35847   7.758   7.365   9.219  1.2262 -1.1375 -0.8702
  266MOL0     H35848   7.735   7.215   9.121 -0.5713 -0.3929  0.5267
  266MOL0     H35849   7.522   7.258   9.075 -2.9164 -0.1408  1.7805
  266MOL0     H35850   7.474   7.318   9.227 -1.7556 -0.4151 -0.7375
  266MOL0     H35851   7.589   7.536   9.165 -1.7298  2.4560 -1.0871
  266MOL0     H35852   7.597   7.488   9.010  0.2896  2.2218  0.6135
  266MOL0     H35853   7.332   7.450   9.007 -2.5323 -0.3779  1.5790
  266MOL0     H35854   7.327   7.527   9.165 -1.1596 -1.2734  0.2152
  266MOL0     H35855   7.438   7.723   9.076 -0.8647  1.8557 -2.3411
  266MOL0     H35856   7.450   7.651   8.918 -0.3110 -1.3889  0.7331
  266MOL0     H35857   7.186   7.621   8.983  2.7569 -2.8331  0.0013
  266MOL0     H35858   7.214   7.786   9.030 -5.1534 -0.9920 -1.1174
  266MOL0     H35859   7.292   7.660   8.751  0.2652 -0.1354 -0.1559
  266MOL0     H35860   7.295   7.836   8.780 -0.6593 -0.0583 -0.9272
  266MOL0     H35861   7.119   7.952   8.648  1.7743 -0.9918  0.3720
  266MOL0     H35862   6.921   7.925   8.471  1.1359 -2.0638 -0.4751
  266MOL0     H35863   6.794   7.802   8.480 -3.5714  1.6759 -0.6803
  266MOL0     H35864   6.817   8.041   8.679 -1.4942  0.2160  0.6207
  266MOL0     H35865   6.692   7.917   8.665  0.6121 -2.4328 -0.6622
  266MOL0     H35866   6.638   8.012   8.437 -1.8854 -0.6327  1.8835
  266MOL0     H35867   6.796   8.098   8.444 -0.4030 -1.2806 -0.2511
  266MOL0     H35868   6.548   8.127   8.618  0.5066 -1.4262 -0.6461
  266MOL0     H35869   6.587   8.229   8.472  0.1370  2.0451  0.7079
  266MOL0     H35870   6.859   8.449   8.663 -0.4292 -1.4010  1.5453
  266MOL0     H35871   6.887   8.766   8.712  1.2576 -1.4835  0.4857
  266MOL0     H35872   6.957   8.640   8.605  0.5637 -1.1828  0.7399
  266MOL0     H35873   6.865   8.766   8.533  0.4826 -1.5517  0.0449
  266MOL0     H35874   6.343   9.009   8.746  1.2633  0.3853  0.8530
  266MOL0     H35875   6.260   9.249   8.695 -2.1992 -1.6888  0.0061
  266MOL0     H35876   6.321   9.483   8.657  0.9341  0.3714  0.0275
  266MOL0     H35877   6.458   9.487   8.562 -0.2487 -4.7583 -0.3443
  266MOL0     H35878   6.283   9.688   8.590 -2.3865  0.5053  0.1084
  266MOL0     H35879   6.361   9.672   8.431  0.8481 -0.7796  1.1611
  266MOL0     H35880   6.103   9.713   8.460  2.2322  0.9754  1.6743
  266MOL0     H35881   6.085   9.552   8.525 -3.3316 -0.9064 -3.0833
  266MOL0     H35882   6.206   9.614   8.244  1.1743 -0.9478  0.4832
  266MOL0     H35883   6.182   9.455   8.303 -0.1250  0.3021  1.0299
  266MOL0     H35884   5.964   9.662   8.264  2.5070  0.2213 -0.4111
  266MOL0     H35885   5.938   9.494   8.324  1.1545  0.3399  0.2127
  266MOL0     H35886   6.041   9.587   8.045 -0.5894  1.9844  2.1924
  266MOL0     H35887   6.048   9.413   8.100 -1.7249 -2.3666  2.1287
  266MOL0     H35888   5.850   9.536   7.961 -1.4714 -2.8271 -0.5856
  266MOL0     H35889   5.770   9.562   8.109 -0.8508 -1.7119 -0.2642
  266MOL0     H35890   5.759   9.309   8.136  0.8383 -0.0396 -0.1679
  266MOL0     H35891   5.881   9.283   8.013  0.6659  0.5644  0.7579
  266MOL0     H35892   6.431   9.226   8.312  3.9723 -1.5493 -1.1861
  266MOL0     H35893   6.510   9.008   8.338 -2.1856  0.4973 -1.0889
  266MOL0     H35894   6.396   8.610   8.604 -0.4516  0.3841  1.9180
  266MOL0     H35895   6.440   8.379   8.638 -0.4686 -0.5969 -0.1757
  266MOL0     H35896   7.730   7.523   9.559  0.0211 -0.7282 -0.3342
  266MOL0     H35897   7.547   7.641   9.636  2.0806  0.5928 -0.5456
  266MOL0     H35898   7.155   7.557   9.897  1.8048  1.5778  2.2849
  266MOL0     H35899   6.927   7.630  10.003  1.1596 -0.1301  1.1943
  266MOL0     H35900   6.690   7.894  10.116  0.3378  1.5849  2.9295
  266MOL0     H35901   6.802   7.763  10.142 -0.4717  0.4387  0.9772
  266MOL0     H35902   6.992   7.892  10.168  0.2204  0.6037 -2.0948
  266MOL0     H35903   6.870   7.946  10.275  2.1208  3.9982 -0.1613
  266MOL0     H35904   6.817   8.122  10.059  0.8428  2.4521 -0.1465
  266MOL0     H35905   6.991   8.102  10.053  0.6481  1.6946  0.2673
  266MOL0     H35906   6.998   8.167  10.302  0.5102  1.8715  0.0706
  266MOL0     H35907   6.829   8.222  10.275  1.3022  0.2747 -0.1215
  266MOL0     H35908   6.932   8.532  10.083  2.0774  0.4289  1.3617
  266MOL0     H35909   6.939   7.990   9.751 -1.2087  0.3342 -1.6587
  266MOL0     H35910   7.127   7.894   9.640 -1.7707  2.3020  0.8070
  267MOL0     O35911   6.690   1.430   8.694 -0.3376  0.8275  0.0257
  267MOL0     C35912   6.760   1.326   8.664 -0.3861  0.3801  0.1523
  267MOL0     O35913   6.758   1.258   8.539 -0.1217  0.0042 -0.2047
  267MOL0     C35914   6.708   1.334   8.435  0.7877  0.9262  0.3056
  267MOL0     C35915   6.787   1.413   8.345  0.0821  0.3674 -0.5833
  267MOL0     C35916   6.722   1.484   8.238 -0.5150  0.1250  0.1807
  267MOL0     C35917   6.587   1.483   8.232  0.5561 -0.1479  0.1780
  267MOL0     O35918   6.529   1.564   8.137  0.4772  0.4497 -0.3900
  267MOL0     C35919   6.427   1.496   8.056  0.9035 -0.6687 -0.0668
  267MOL0     C35920   6.442   1.528   7.905 -0.3510 -0.1077 -0.5320
  267MOL0     C35921   6.406   1.670   7.865  0.2303  0.5164 -0.4856
  267MOL0     C35922   6.442   1.710   7.720  0.5067 -0.0445 -0.0045
  267MOL0     C35923   6.387   1.858   7.680 -0.2230 -0.7088  0.0044
  267MOL0     C35924   6.423   1.912   7.541 -0.6287  1.2398  0.8040
  267MOL0     C35925   6.392   2.065   7.527  0.4083 -0.3144 -0.5677
  267MOL0     C35926   6.447   2.122   7.406 -0.2974  0.2823  0.4563
  267MOL0     N35927   6.594   2.122   7.385  0.3009  0.2664 -0.6267
  267MOL0     C35928   6.689   2.194   7.459 -0.3707  0.4453  0.9930
  267MOL0     C35929   6.805   2.200   7.384  0.2190 -0.3948 -0.2901
  267MOL0     C35930   6.933   2.281   7.412  0.4255 -0.0711  0.1935
  267MOL0     C35931   7.058   2.197   7.423  0.2569  0.4488 -0.0362
  267MOL0     C35932   7.146   2.168   7.295 -0.6150  0.5509  0.1590
  267MOL0     C35933   7.254   2.275   7.275  0.1144 -1.1795  0.3319
  267MOL0     O35934   7.191   2.378   7.194  0.3467  0.5213 -0.0791
  267MOL0     C35935   7.255   2.503   7.170 -0.0806  0.3326  1.0599
  267MOL0     C35936   7.181   2.594   7.099 -0.3390  0.3785 -0.0005
  267MOL0     C35937   7.236   2.717   7.059  0.5046  0.9915  0.2966
  267MOL0     C35938   7.129   2.794   6.974  0.7123  0.7448 -0.3811
  267MOL0     C35939   7.371   2.751   7.086  0.7092 -0.6000  0.5100
  267MOL0     C35940   7.438   2.874   7.040  0.3592 -0.5678  0.8453
  267MOL0     O35941   7.362   2.968   6.967 -0.0678  0.2991 -0.5359
  267MOL0     C35942   7.435   3.076   6.921 -0.0770 -0.5530  0.0466
  267MOL0     C35943   7.497   3.067   6.795 -0.1524 -1.1671 -0.1073
  267MOL0     C35944   7.583   3.180   6.759 -0.3909 -0.4086 -0.1053
  267MOL0     C35945   7.616   3.289   6.837  0.4740  0.6030 -0.0962
  267MOL0     O35946   7.700   3.385   6.801  0.2579  0.3842 -0.2055
  267MOL0     C35947   7.830   3.349   6.748  0.2502  0.0052  0.5031
  267MOL0     C35948   7.895   3.474   6.683  0.3166  0.9321 -0.4156
  267MOL0     C35949   7.941   3.565   6.794  0.3174  0.1386 -0.2169
  267MOL0     C35950   7.977   3.710   6.740  0.2760  0.1245  0.4549
  267MOL0     C35951   7.853   3.797   6.731  0.6852 -0.1746  0.4423
  267MOL0     C35952   7.886   3.936   6.661  0.2757 -0.3195 -0.6041
  267MOL0     C35953   7.924   3.913   6.507  0.7259 -1.0744  0.7195
  267MOL0     C35954   7.863   4.004   6.404 -0.1686 -0.0167  0.7949
  267MOL0    Cl35955   7.698   3.949   6.337 -0.7272 -0.4773  0.2806
  267MOL0     C35956   7.558   3.287   6.963 -0.1464  0.3725  0.1091
  267MOL0     C35957   7.469   3.189   7.009  0.1377  0.2906  0.6471
  267MOL0     O35958   7.558   2.897   7.076 -0.3440 -1.0776  0.1935
  267MOL0     C35959   7.446   2.665   7.172  1.1963 -0.0980  0.0616
  267MOL0     C35960   7.387   2.534   7.213 -0.9422  0.3400  0.2422
  267MOL0     N35961   6.784   2.131   7.266  0.3547 -0.3616  0.0131
  267MOL0     N35962   6.657   2.091   7.268 -0.8592  0.2858 -0.6852
  267MOL0     C35963   6.511   1.416   8.328 -0.0016 -1.1266  0.4059
  267MOL0     C35964   6.571   1.336   8.423 -0.1540  0.2122 -0.7181
  267MOL0     C35965   6.826   1.255   8.774  0.0371 -0.8737 -0.4876
  267MOL0     C35966   6.871   1.126   8.765  0.2723  0.4431  0.6252
  267MOL0     C35967   6.933   1.064   8.872 -0.8040 -0.1417  0.1190
  267MOL0     C35968   6.949   1.127   8.989 -0.1342  0.8513 -0.8807
  267MOL0     O35969   6.993   1.070   9.111 -0.6330 -0.5809  0.7181
  267MOL0     C35970   7.083   0.955   9.093  0.9464  0.2330  0.2195
  267MOL0     C35971   7.185   0.954   9.205  0.2001  0.4441 -0.8974
  267MOL0     C35972   7.251   0.813   9.205 -0.1119  0.0089 -0.6392
  267MOL0     C35973   7.363   0.808   9.310  0.1643 -0.4338  0.7825
  267MOL0     C35974   7.459   0.923   9.305  1.0171  0.6990  0.5072
  267MOL0     C35975   7.548   0.997   9.318 -0.3354  0.4004  0.2914
  267MOL0     C35976   6.917   1.260   9.004  0.5253 -1.1150  0.2161
  267MOL0     C35977   6.849   1.322   8.899 -0.2338 -0.0971 -1.1359
  267MOL0     H35978   6.895   1.415   8.342  0.0796 -0.0556 -1.1613
  267MOL0     H35979   6.765   1.546   8.160 -0.1698 -1.1863 -0.7047
  267MOL0     H35980   6.438   1.389   8.077  1.5931 -0.2193  2.1339
  267MOL0     H35981   6.328   1.531   8.086  2.2353  1.8713  1.7404
  267MOL0     H35982   6.547   1.505   7.883  0.4374  0.5185  2.1887
  267MOL0     H35983   6.370   1.457   7.863  0.3358  0.1097 -2.1337
  267MOL0     H35984   6.297   1.676   7.868  0.0638  0.9557 -3.6448
  267MOL0     H35985   6.449   1.736   7.941  0.8848  0.7843 -1.0728
  267MOL0     H35986   6.551   1.711   7.711  0.3562  2.7012 -3.2200
  267MOL0     H35987   6.412   1.630   7.651  3.3723 -0.9509 -0.3187
  267MOL0     H35988   6.279   1.849   7.693 -0.9000  4.5457  0.0449
  267MOL0     H35989   6.420   1.932   7.753 -1.5049 -0.3527  0.2468
  267MOL0     H35990   6.530   1.893   7.524 -0.5772  0.3008  2.0884
  267MOL0     H35991   6.368   1.848   7.472  1.0125  1.6578 -0.9947
  267MOL0     H35992   6.284   2.077   7.513  0.3232 -1.5651 -1.0877
  267MOL0     H35993   6.417   2.112   7.623  2.8148 -1.2185 -0.6971
  267MOL0     H35994   6.420   2.228   7.400 -0.5476  0.1719 -0.4349
  267MOL0     H35995   6.409   2.088   7.310 -2.4880  3.9016 -0.1700
  267MOL0     H35996   6.669   2.252   7.549 -2.5704  1.2040  0.0753
  267MOL0     H35997   6.943   2.360   7.336  2.3128  0.9897  1.4651
  267MOL0     H35998   6.905   2.336   7.502 -1.8652  2.6528 -1.9622
  267MOL0     H35999   7.022   2.100   7.459 -3.0598  0.1266 -3.5474
  267MOL0     H36000   7.130   2.241   7.492  0.5846 -1.1316  0.6769
  267MOL0     H36001   7.088   2.162   7.202 -2.3687 -0.8199  1.2935
  267MOL0     H36002   7.196   2.072   7.305 -1.7380 -0.1077 -0.3699
  267MOL0     H36003   7.340   2.231   7.223  0.3360 -0.8968  0.4531
  267MOL0     H36004   7.297   2.313   7.369  0.5077 -0.6537 -0.0532
  267MOL0     H36005   7.079   2.578   7.066 -0.7561  2.7913 -0.0643
  267MOL0     H36006   7.114   2.897   7.008  0.0535  0.6150 -0.2821
  267MOL0     H36007   7.171   2.811   6.874  0.9703 -0.9571 -0.5976
  267MOL0     H36008   7.031   2.747   6.967 -0.2016  2.6822 -1.3180
  267MOL0     H36009   7.485   3.001   6.710 -1.0558  1.2979 -2.0203
  267MOL0     H36010   7.629   3.189   6.661  2.5570 -0.5652  1.1649
  267MOL0     H36011   7.900   3.301   6.816 -1.1844 -3.7095 -0.4350
  267MOL0     H36012   7.814   3.286   6.660  0.6456  1.7617 -0.8880
  267MOL0     H36013   7.979   3.435   6.626  1.3021  1.7837  0.3987
  267MOL0     H36014   7.828   3.525   6.613 -1.4438 -1.1548 -0.3583
  267MOL0     H36015   8.035   3.523   6.829 -1.1337 -1.7109  1.7203
  267MOL0     H36016   7.859   3.572   6.867 -1.5680  1.9579 -2.3431
  267MOL0     H36017   8.045   3.762   6.809 -1.5040  1.8551  1.0209
  267MOL0     H36018   8.018   3.708   6.639 -0.1814 -1.9516  0.2754
  267MOL0     H36019   7.839   3.820   6.836  6.4099  0.2755  1.4332
  267MOL0     H36020   7.763   3.750   6.690  1.2545  0.8849 -2.2950
  267MOL0     H36021   7.806   4.007   6.681  1.7922  0.6919  2.7026
  267MOL0     H36022   7.978   3.975   6.705  0.2083 -0.9341  0.1002
  267MOL0     H36023   7.898   3.814   6.470 -0.7916 -0.0406 -1.1165
  267MOL0     H36024   8.032   3.926   6.502  0.6035 -0.6601 -2.2655
  267MOL0     H36025   7.936   3.998   6.322  0.4534 -1.6472  1.4265
  267MOL0     H36026   7.856   4.112   6.417  0.5693  0.3085 -1.1662
  267MOL0     H36027   7.608   3.360   7.025  2.0574  0.8278 -2.0277
  267MOL0     H36028   7.435   3.187   7.112 -0.0368 -0.3619  0.5833
  267MOL0     H36029   7.547   2.685   7.207  0.8539  2.2284 -0.1505
  267MOL0     H36030   7.440   2.477   7.289 -0.3467  2.5368  1.5753
  267MOL0     H36031   6.403   1.424   8.341 -0.1094  1.2144 -1.2438
  267MOL0     H36032   6.513   1.289   8.501  0.3226  0.2228 -0.3577
  267MOL0     H36033   6.865   1.080   8.667 -3.7039  1.4909  0.2226
  267MOL0     H36034   6.967   0.962   8.854 -0.2646  0.4174 -2.3606
  267MOL0     H36035   7.023   0.864   9.101  1.4904 -0.5135 -2.9495
  267MOL0     H36036   7.129   0.945   8.994 -3.1363  1.4307 -2.0010
  267MOL0     H36037   7.121   0.960   9.294  0.6875 -0.7236 -0.4456
  267MOL0     H36038   7.259   1.034   9.192  0.2367  0.5363 -0.1721
  267MOL0     H36039   7.291   0.788   9.106  4.2054  0.6452  0.7220
  267MOL0     H36040   7.180   0.739   9.242 -0.1670 -0.3969 -1.5112
  267MOL0     H36041   7.422   0.719   9.288  1.4934  0.7517 -0.7811
  267MOL0     H36042   7.308   0.789   9.403 -0.0104 -1.1493  0.5317
  267MOL0     H36043   7.629   1.067   9.324  1.8816 -1.0844 -5.3905
  267MOL0     H36044   6.919   1.318   9.096 -0.4589 -0.1901 -0.3286
  267MOL0     H36045   6.809   1.423   8.904 -1.1320 -0.4372 -1.1472
  268MOL0     O36046   2.854   2.638   9.439 -0.2827 -0.1993  0.0839
  268MOL0     C36047   2.754   2.683   9.368 -0.1368 -0.3590 -1.4067
  268MOL0     O36048   2.629   2.634   9.394 -0.7023  0.5105  0.9559
  268MOL0     C36049   2.622   2.513   9.449 -0.7180  0.2270 -1.2797
  268MOL0     C36050   2.570   2.415   9.361 -0.0849  0.0379 -0.2922
  268MOL0     C36051   2.570   2.288   9.410  0.5038 -0.7555 -0.0599
  268MOL0     C36052   2.605   2.256   9.540  0.1271 -0.8736 -0.0973
  268MOL0     O36053   2.613   2.125   9.575  0.4490 -0.0018  0.0274
  268MOL0     C36054   2.732   2.058   9.512  0.1205 -0.6362 -0.5199
  268MOL0     C36055   2.727   1.916   9.569 -0.3652 -0.2291 -0.6718
  268MOL0     C36056   2.851   1.829   9.540 -0.9835 -1.1847 -0.3388
  268MOL0     C36057   2.867   1.688   9.601  0.4809 -0.9427  0.6637
  268MOL0     C36058   2.987   1.615   9.538  0.0345 -0.1351 -0.0848
  268MOL0     C36059   2.986   1.466   9.572 -0.0151  0.0417  0.1697
  268MOL0     C36060   3.098   1.390   9.513  0.5155 -0.0674  0.3734
  268MOL0     C36061   3.077   1.234   9.521 -0.0169 -0.1132  0.1273
  268MOL0     N36062   3.083   1.187   9.652  1.2322  0.6529 -1.0444
  268MOL0     C36063   3.007   1.081   9.703  0.0549 -1.0627 -0.5254
  268MOL0     C36064   3.047   1.065   9.833  0.2753 -0.4748  0.1918
  268MOL0     C36065   2.967   0.977   9.923  0.4156  0.2923 -0.8509
  268MOL0     C36066   2.851   1.051   9.992  0.2763 -0.3087 -0.1413
  268MOL0     C36067   2.891   1.148  10.104  0.0022  0.4898 -0.9865
  268MOL0     C36068   2.772   1.252  10.107  0.5236 -0.2024 -0.6276
  268MOL0     O36069   2.757   1.333   9.986  0.3247 -0.1737  0.0830
  268MOL0     C36070   2.674   1.442   9.984  0.5272  0.6957 -0.1577
  268MOL0     C36071   2.589   1.473  10.097  0.7266 -0.3156 -0.0656
  268MOL0     C36072   2.527   1.599  10.095 -0.8323  0.8977  0.1778
  268MOL0     C36073   2.453   1.648  10.218 -0.3226  0.7291 -0.9386
  268MOL0     C36074   2.535   1.677   9.977 -0.4348  0.1165 -0.1961
  268MOL0     C36075   2.458   1.798   9.960  0.5057 -0.0086  1.0945
  268MOL0     O36076   2.412   1.809   9.830  0.1437 -0.4591  0.6476
  268MOL0     C36077   2.334   1.914   9.794  0.6562  0.2899  0.2100
  268MOL0     C36078   2.236   1.982   9.878 -0.4952 -0.7873  0.1712
  268MOL0     C36079   2.164   2.090   9.823  0.8872 -0.4496 -0.0258
  268MOL0     C36080   2.179   2.131   9.690  0.2350  0.7044  0.3367
  268MOL0     O36081   2.116   2.235   9.631  0.4329  0.7586 -0.1271
  268MOL0     C36082   2.188   2.344   9.574 -0.0582  0.1313 -0.8845
  268MOL0     C36083   2.110   2.421   9.461 -0.2492  0.0768  0.2036
  268MOL0     C36084   2.102   2.373   9.317  0.2752  0.4590 -0.5154
  268MOL0     C36085   2.048   2.231   9.299  0.8749 -1.4960 -0.8448
  268MOL0     C36086   2.018   2.182   9.161  0.1528 -0.6519  0.8022
  268MOL0     C36087   2.131   2.138   9.073  0.1245  0.2036 -0.9393
  268MOL0     C36088   2.101   2.083   8.932 -0.8184  0.2474 -0.4413
  268MOL0     C36089   2.057   1.942   8.942 -0.6593  0.4312  0.1633
  268MOL0    Cl36090   2.184   1.824   8.994  0.4921 -0.0209  0.8451
  268MOL0     C36091   2.268   2.054   9.614  1.0087 -0.0537 -0.4462
  268MOL0     C36092   2.344   1.950   9.664 -0.4902 -0.4553 -0.1047
  268MOL0     O36093   2.462   1.885  10.050  0.4152  0.2332  0.1668
  268MOL0     C36094   2.613   1.633   9.861  0.1752 -0.6925 -0.2996
  268MOL0     C36095   2.682   1.516   9.869  0.2039 -0.6900 -0.3297
  268MOL0     N36096   3.149   1.151   9.860 -0.4406  0.9418  0.3459
  268MOL0     N36097   3.166   1.226   9.753 -0.3553 -0.4989 -0.3221
  268MOL0     C36098   2.640   2.355   9.627 -0.7505  0.5947 -0.1029
  268MOL0     C36099   2.654   2.481   9.582  0.5397 -0.2498  0.6390
  268MOL0     C36100   2.764   2.808   9.303  1.2891  0.2005  1.0533
  268MOL0     C36101   2.877   2.848   9.228 -0.4724 -1.3386  0.2012
  268MOL0     C36102   2.880   2.970   9.167 -0.3312 -0.6813 -0.3136
  268MOL0     C36103   2.775   3.061   9.177  0.4403 -0.5448  0.3031
  268MOL0     O36104   2.762   3.181   9.112  0.7415 -0.8614 -0.1629
  268MOL0     C36105   2.884   3.241   9.069  0.4529  0.1402  0.0897
  268MOL0     C36106   2.841   3.379   8.997  0.1371  0.9334 -0.4763
  268MOL0     C36107   2.780   3.369   8.860 -0.9952 -0.7989 -0.4539
  268MOL0     C36108   2.731   3.506   8.817 -0.5018 -0.4848  0.6098
  268MOL0     C36109   2.821   3.621   8.800  0.2696  0.7631  0.7882
  268MOL0     C36110   2.894   3.715   8.774  0.4128  0.7075  0.2896
  268MOL0     C36111   2.665   3.015   9.241  0.1585  0.4029  0.0766
  268MOL0     C36112   2.651   2.893   9.298  0.1119  0.7343 -0.3070
  268MOL0     H36113   2.545   2.448   9.260  0.5512 -0.3189 -0.5677
  268MOL0     H36114   2.534   2.210   9.345 -1.8934  3.1235 -3.8805
  268MOL0     H36115   2.740   2.068   9.403 -0.3568  0.4554 -0.4670
  268MOL0     H36116   2.825   2.105   9.543 -1.1538  2.1664 -0.6753
  268MOL0     H36117   2.701   1.926   9.675  1.2383 -0.4527 -0.2317
  268MOL0     H36118   2.643   1.867   9.518 -0.4857  0.4703 -1.1630
  268MOL0     H36119   2.868   1.849   9.434  3.6260  3.2643  0.8161
  268MOL0     H36120   2.934   1.892   9.573 -1.1855 -1.1063  0.0240
  268MOL0     H36121   2.880   1.700   9.709 -1.3451  3.6880  0.6163
  268MOL0     H36122   2.771   1.637   9.588 -0.4880  1.0721 -0.5827
  268MOL0     H36123   2.990   1.639   9.432 -5.0812  2.7340  0.1141
  268MOL0     H36124   3.082   1.656   9.576 -0.8528 -0.0895  2.2232
  268MOL0     H36125   2.977   1.460   9.681 -0.8228  2.5104  0.2938
  268MOL0     H36126   2.897   1.424   9.524  0.9647 -1.7903 -0.1379
  268MOL0     H36127   3.115   1.419   9.409  0.6902 -0.2722  0.3461
  268MOL0     H36128   3.188   1.423   9.567  1.8330  0.0841 -1.8223
  268MOL0     H36129   3.155   1.183   9.463 -1.8496  0.7593 -3.4110
  268MOL0     H36130   2.992   1.202   9.460  2.7817  0.9599 -4.9874
  268MOL0     H36131   2.921   1.031   9.660  0.0470 -2.3121  0.8611
  268MOL0     H36132   2.933   0.905   9.849  1.4621  1.5393 -2.6178
  268MOL0     H36133   3.030   0.929   9.998 -1.6639 -1.4765 -0.1343
  268MOL0     H36134   2.778   0.984  10.038 -0.8755  0.5917 -0.6189
  268MOL0     H36135   2.807   1.109   9.911  2.1293 -0.3411 -1.2238
  268MOL0     H36136   2.985   1.203  10.101  0.2543  0.8165  4.0370
  268MOL0     H36137   2.900   1.098  10.201  0.8377  2.2951 -0.0941
  268MOL0     H36138   2.805   1.318  10.189 -0.1426 -0.2241 -0.3384
  268MOL0     H36139   2.674   1.210  10.130 -0.4706  1.5219 -1.5438
  268MOL0     H36140   2.588   1.408  10.184  2.0025 -1.8458 -1.1355
  268MOL0     H36141   2.506   1.736  10.255 -1.3999  0.7806  0.5705
  268MOL0     H36142   2.352   1.672  10.182 -2.5869 -1.2375  3.3824
  268MOL0     H36143   2.458   1.585  10.307  1.6412 -0.0229 -1.5333
  268MOL0     H36144   2.235   1.954   9.983  1.0046  1.0612  0.7404
  268MOL0     H36145   2.094   2.146   9.884  0.0672 -0.5690 -0.8433
  268MOL0     H36146   2.224   2.413   9.651  0.5145 -1.6254  0.4932
  268MOL0     H36147   2.279   2.302   9.532  1.6408  0.7456  1.9021
  268MOL0     H36148   2.004   2.424   9.487 -0.2507 -0.4792  0.2695
  268MOL0     H36149   2.145   2.524   9.451 -3.8428  1.4461  0.3109
  268MOL0     H36150   2.203   2.379   9.274  0.4710 -2.2376 -0.6182
  268MOL0     H36151   2.033   2.434   9.257 -1.3141 -1.7366 -1.0809
  268MOL0     H36152   2.119   2.170   9.356  0.9312 -0.2297  0.5058
  268MOL0     H36153   1.952   2.233   9.351  0.1059 -1.2875 -2.2128
  268MOL0     H36154   1.966   2.265   9.113  2.5987  2.8772  3.7187
  268MOL0     H36155   1.942   2.103   9.171 -1.6012  0.8350 -0.1208
  268MOL0     H36156   2.196   2.225   9.080 -0.8641  0.9827 -1.2846
  268MOL0     H36157   2.178   2.052   9.122 -0.0794 -0.7260 -2.3120
  268MOL0     H36158   2.189   2.104   8.871  0.9050  1.2014  2.1796
  268MOL0     H36159   2.017   2.141   8.892 -2.5835 -0.6221  1.8013
  268MOL0     H36160   2.016   1.896   8.851  0.3840 -3.0504  1.3120
  268MOL0     H36161   1.974   1.931   9.011 -1.0241 -1.2860 -0.4868
  268MOL0     H36162   2.266   2.078   9.508  0.9185 -2.1088 -0.9551
  268MOL0     H36163   2.413   1.901   9.597 -0.4093  0.0363 -0.3829
  268MOL0     H36164   2.604   1.683   9.766 -1.1617 -0.3902 -0.0369
  268MOL0     H36165   2.739   1.476   9.785  1.6445 -0.5963  0.5656
  268MOL0     H36166   2.659   2.323   9.729 -1.6818 -1.9453 -0.6380
  268MOL0     H36167   2.690   2.555   9.653  0.4900 -1.1426  1.6119
  268MOL0     H36168   2.971   2.794   9.221  0.5848  0.2193  1.5821
  268MOL0     H36169   2.966   2.974   9.101 -1.6321 -1.4036 -2.1353
  268MOL0     H36170   2.941   3.267   9.158  0.8190 -0.0564 -0.0807
  268MOL0     H36171   2.948   3.185   8.999  1.2494 -0.7232  1.4687
  268MOL0     H36172   2.934   3.436   9.004  0.6990 -0.1259  3.5770
  268MOL0     H36173   2.768   3.431   9.060  0.8591 -0.8174  1.9881
  268MOL0     H36174   2.691   3.306   8.870 -0.7745 -1.3470 -1.6773
  268MOL0     H36175   2.849   3.342   8.780 -0.3199 -1.4069  0.3123
  268MOL0     H36176   2.652   3.531   8.888  0.9306  1.7609  1.5168
  268MOL0     H36177   2.687   3.486   8.718  1.1013 -0.0441 -0.2223
  268MOL0     H36178   2.947   3.801   8.737  1.4393 -1.1299 -2.9119
  268MOL0     H36179   2.574   3.074   9.235  1.6151  2.6995 -1.0148
  268MOL0     H36180   2.554   2.863   9.334  0.6027  1.8246  2.1282
  269MOL0     O36181   3.506   2.290   1.114 -0.6439 -0.1201 -0.3861
  269MOL0     C36182   3.430   2.211   1.078 -1.1621  0.3551  0.1402
  269MOL0     O36183   3.441   2.082   1.112 -0.1504 -0.6119 -0.7545
  269MOL0     C36184   3.533   2.035   1.208  0.1788  0.2900 -0.2828
  269MOL0     C36185   3.615   2.107   1.290  0.1355 -0.2239 -1.0213
  269MOL0     C36186   3.712   2.042   1.366  0.5880  0.2808 -0.0390
  269MOL0     C36187   3.724   1.907   1.364  1.0921  0.1405 -0.8065
  269MOL0     O36188   3.830   1.847   1.427  0.7952  0.0446  0.3791
  269MOL0     C36189   3.877   1.912   1.545  0.1925  0.6187  0.3490
  269MOL0     C36190   3.917   1.817   1.656 -0.5043 -1.5272 -0.0874
  269MOL0     C36191   3.791   1.741   1.706  0.8783  0.0790 -0.5816
  269MOL0     C36192   3.770   1.742   1.861  0.0045  0.8096  1.2160
  269MOL0     C36193   3.866   1.648   1.928  0.4956 -0.2555  0.4472
  269MOL0     C36194   3.849   1.663   2.082  0.0009  0.2491  0.0512
  269MOL0     C36195   3.961   1.598   2.164 -0.1018  0.1358  0.9277
  269MOL0     C36196   3.908   1.541   2.293  0.2325  0.7174  0.0625
  269MOL0     N36197   3.843   1.642   2.380 -1.0214  0.4613  0.1703
  269MOL0     C36198   3.920   1.720   2.467  0.2646 -0.6168  0.4892
  269MOL0     C36199   3.822   1.798   2.521  0.3087 -0.1048 -0.3321
  269MOL0     C36200   3.846   1.907   2.614  0.0168 -0.0135  0.1309
  269MOL0     C36201   3.899   2.039   2.558 -0.2860  0.1769 -0.4274
  269MOL0     C36202   3.794   2.135   2.517  0.1310  0.4247 -1.8457
  269MOL0     C36203   3.837   2.254   2.431  0.0078 -0.2677  0.8309
  269MOL0     O36204   3.966   2.307   2.458 -0.2447  0.3696 -0.5381
  269MOL0     C36205   4.003   2.412   2.377 -0.1363  1.0538  0.3515
  269MOL0     C36206   3.959   2.441   2.247  0.2250 -0.0865  0.2136
  269MOL0     C36207   3.990   2.563   2.181  0.2477  0.1373  0.8784
  269MOL0     C36208   3.927   2.579   2.042  0.1375  0.1196 -0.0523
  269MOL0     C36209   4.071   2.655   2.254 -0.3252  0.6020  0.0290
  269MOL0     C36210   4.132   2.772   2.187  0.6450 -0.3178  0.0118
  269MOL0     O36211   4.256   2.821   2.234 -0.1776 -0.5723  0.0010
  269MOL0     C36212   4.319   2.937   2.203 -0.6661  0.1616  0.3955
  269MOL0     C36213   4.261   3.035   2.114 -0.0800 -0.0589 -0.0317
  269MOL0     C36214   4.320   3.155   2.088 -0.6884  0.9640  0.5338
  269MOL0     C36215   4.449   3.181   2.145 -0.4602  0.8250  0.5574
  269MOL0     O36216   4.518   3.301   2.129 -0.3539  0.4031  0.8072
  269MOL0     C36217   4.518   3.345   1.996  0.4336  0.7344  0.4494
  269MOL0     C36218   4.640   3.435   1.984  0.1920  0.3547 -0.7554
  269MOL0     C36219   4.638   3.510   1.852 -0.5381  0.3691 -1.0340
  269MOL0     C36220   4.533   3.610   1.831 -0.6965 -0.4709  0.3505
  269MOL0     C36221   4.515   3.642   1.681  0.0402  0.1669  1.4136
  269MOL0     C36222   4.622   3.734   1.617  0.0559  0.9870 -0.2569
  269MOL0     C36223   4.570   3.809   1.489  0.2515 -0.3113  0.3974
  269MOL0     C36224   4.550   3.963   1.524 -0.3062  0.2101 -0.3621
  269MOL0    Cl36225   4.707   4.041   1.560 -0.1062  0.3942  0.5210
  269MOL0     C36226   4.510   3.079   2.230  0.3522 -1.3447  0.5638
  269MOL0     C36227   4.442   2.961   2.251 -0.5871 -0.1892  0.0754
  269MOL0     O36228   4.071   2.818   2.087 -0.5690 -0.2708 -0.2092
  269MOL0     C36229   4.125   2.623   2.381  0.4666  0.5900 -0.7878
  269MOL0     C36230   4.082   2.504   2.438  0.4925  0.1944 -0.5834
  269MOL0     N36231   3.697   1.786   2.454 -0.8205  0.7675  0.3791
  269MOL0     N36232   3.710   1.680   2.375  0.4609  0.1743 -0.9116
  269MOL0     C36233   3.648   1.832   1.286 -0.2908  0.6062 -0.6319
  269MOL0     C36234   3.554   1.900   1.204 -0.0282  1.1213 -0.1504
  269MOL0     C36235   3.316   2.253   0.998 -0.0555 -0.0506  0.4233
  269MOL0     C36236   3.272   2.385   0.993 -0.3677 -0.4848  0.3263
  269MOL0     C36237   3.159   2.432   0.927 -0.1995 -0.0097 -1.1490
  269MOL0     C36238   3.090   2.341   0.841  0.4645  0.5420  0.3901
  269MOL0     O36239   2.983   2.393   0.782 -0.0488  0.1623  0.1348
  269MOL0     C36240   2.869   2.304   0.752  0.8409  0.5258 -0.3151
  269MOL0     C36241   2.762   2.387   0.691 -0.1574 -0.0482 -0.0642
  269MOL0     C36242   2.759   2.537   0.717  0.7170 -0.7634 -0.3475
  269MOL0     C36243   2.673   2.605   0.607  0.5214  1.0062  0.3818
  269MOL0     C36244   2.645   2.743   0.648  0.1147  0.2651 -0.1977
  269MOL0     C36245   2.651   2.852   0.696  0.0098 -0.9936  0.3372
  269MOL0     C36246   3.141   2.209   0.831 -0.0349  0.0011 -0.3173
  269MOL0     C36247   3.255   2.167   0.909  0.8073  0.7723 -0.4611
  269MOL0     H36248   3.630   2.214   1.285 -0.0935 -0.1618 -0.4387
  269MOL0     H36249   3.794   2.101   1.407  0.3764 -1.3269  2.9832
  269MOL0     H36250   3.959   1.978   1.515 -0.1012  0.4983 -0.7623
  269MOL0     H36251   3.811   1.983   1.596 -0.0749 -1.4717  3.1436
  269MOL0     H36252   4.001   1.755   1.623 -0.6777 -1.8811  0.1248
  269MOL0     H36253   3.957   1.882   1.734  2.1075  0.7859 -3.0690
  269MOL0     H36254   3.701   1.772   1.653  0.7797 -1.0682 -1.1191
  269MOL0     H36255   3.806   1.637   1.675 -0.5844 -0.3163 -0.0512
  269MOL0     H36256   3.794   1.846   1.885  0.1471  0.7245  1.4385
  269MOL0     H36257   3.665   1.724   1.885 -2.2353  7.1908 -1.6718
  269MOL0     H36258   3.855   1.544   1.897 -0.2681 -0.4962  1.4448
  269MOL0     H36259   3.971   1.677   1.921  1.1371 -1.8460  2.4135
  269MOL0     H36260   3.835   1.768   2.107  1.8784  0.3904  0.6488
  269MOL0     H36261   3.752   1.617   2.106  0.5246  0.0664  1.9525
  269MOL0     H36262   4.003   1.509   2.115  4.7992  1.4888  2.0741
  269MOL0     H36263   4.034   1.679   2.172 -1.4034  1.4014  0.3296
  269MOL0     H36264   3.987   1.488   2.348 -0.3598 -1.4025 -1.0351
  269MOL0     H36265   3.827   1.473   2.268  2.6446 -2.6259  0.7024
  269MOL0     H36266   4.028   1.726   2.479  0.2549 -1.1815  0.8696
  269MOL0     H36267   3.744   1.922   2.651 -1.6199 -2.1510 -3.0460
  269MOL0     H36268   3.909   1.880   2.699 -1.2286 -5.4776 -0.2832
  269MOL0     H36269   3.957   2.006   2.472 -0.0085 -2.4230  0.6681
  269MOL0     H36270   3.971   2.089   2.624  2.7066 -0.5358 -2.9130
  269MOL0     H36271   3.770   2.168   2.619  0.9831 -2.7801 -0.4891
  269MOL0     H36272   3.707   2.090   2.468 -1.7335  1.1203  0.6033
  269MOL0     H36273   3.759   2.331   2.434 -1.6031 -1.7269 -1.1324
  269MOL0     H36274   3.842   2.212   2.330  0.1231  1.5639  0.0295
  269MOL0     H36275   3.896   2.365   2.201 -2.6236 -0.4813  4.2598
  269MOL0     H36276   3.853   2.501   2.020 -1.1783  1.3690 -0.1903
  269MOL0     H36277   3.870   2.672   2.044 -0.6100 -0.2960 -1.1618
  269MOL0     H36278   4.014   2.579   1.975  2.7718  0.4498  3.1541
  269MOL0     H36279   4.160   3.025   2.076 -0.5363 -0.3284  1.1947
  269MOL0     H36280   4.271   3.233   2.030  2.5854  0.4523 -3.4519
  269MOL0     H36281   4.532   3.271   1.917 -1.1420  2.1289 -1.2523
  269MOL0     H36282   4.421   3.395   1.983 -0.6692 -1.6422 -1.1468
  269MOL0     H36283   4.631   3.509   2.064 -1.7500 -0.0745 -0.5087
  269MOL0     H36284   4.720   3.360   1.985 -0.9973 -0.9856 -1.6008
  269MOL0     H36285   4.630   3.430   1.778  3.1229 -2.2629  1.0875
  269MOL0     H36286   4.736   3.557   1.840 -0.9822  0.9435 -2.7367
  269MOL0     H36287   4.445   3.571   1.884 -1.1352  0.3211  0.2242
  269MOL0     H36288   4.572   3.705   1.868 -0.8324  1.0440 -2.9946
  269MOL0     H36289   4.423   3.700   1.669  0.1757  0.0343 -0.6580
  269MOL0     H36290   4.497   3.554   1.619 -2.0805  1.8466 -0.5079
  269MOL0     H36291   4.658   3.803   1.693 -0.1645  1.3283 -0.4622
  269MOL0     H36292   4.705   3.669   1.584 -2.4582 -1.6430 -1.9342
  269MOL0     H36293   4.468   3.774   1.472 -1.3904  2.3983  3.6665
  269MOL0     H36294   4.640   3.797   1.405  0.3367  2.2532  0.0095
  269MOL0     H36295   4.490   3.973   1.615  0.1154 -0.5192  0.0051
  269MOL0     H36296   4.499   4.008   1.438  0.1466 -1.2988 -1.4535
  269MOL0     H36297   4.607   3.086   2.279  0.6159 -3.5553  0.4502
  269MOL0     H36298   4.482   2.876   2.306 -0.9086  0.2629  1.0149
  269MOL0     H36299   4.193   2.684   2.439  1.3237  0.0801 -1.2356
  269MOL0     H36300   4.128   2.481   2.534  0.5311  1.6454 -0.2406
  269MOL0     H36301   3.638   1.724   1.274 -1.6119  0.2315  2.8854
  269MOL0     H36302   3.499   1.831   1.141  2.1969 -0.3232 -0.6577
  269MOL0     H36303   3.323   2.453   1.060 -3.9621  0.1392  2.7166
  269MOL0     H36304   3.110   2.529   0.936 -2.5899 -1.1369 -1.4256
  269MOL0     H36305   2.889   2.216   0.689 -1.9488 -1.2889  1.1189
  269MOL0     H36306   2.845   2.266   0.852 -0.3185 -2.2255 -1.5147
  269MOL0     H36307   2.668   2.340   0.721  1.5231 -2.3657  1.9685
  269MOL0     H36308   2.775   2.374   0.583 -1.6695 -0.2094 -0.2421
  269MOL0     H36309   2.856   2.586   0.707  1.7444 -3.0826 -3.5894
  269MOL0     H36310   2.717   2.566   0.813 -0.9048 -2.0351 -0.6359
  269MOL0     H36311   2.579   2.554   0.587 -0.2579  1.1165  3.3648
  269MOL0     H36312   2.726   2.606   0.511  1.4226 -1.7988  0.7649
  269MOL0     H36313   2.645   2.950   0.739  0.5000 -0.3798 -0.9092
  269MOL0     H36314   3.096   2.142   0.759  3.1107 -3.2323  0.4376
  269MOL0     H36315   3.281   2.063   0.890 -0.9565  0.9269 -4.7613
  270MOL0     O36316   4.885   8.976   0.638  0.3016  0.2164 -0.3633
  270MOL0     C36317   4.945   8.905   0.723 -0.8661  0.5967  0.5804
  270MOL0     O36318   5.070   8.852   0.705 -0.6016  0.3273 -0.4910
  270MOL0     C36319   5.145   8.888   0.598 -0.0332 -0.1679  0.2873
  270MOL0     C36320   5.240   8.987   0.591  0.1328 -0.5861  0.0568
  270MOL0     C36321   5.316   9.016   0.471  0.5013 -0.1563  0.2534
  270MOL0     C36322   5.289   8.952   0.349 -0.4238  0.0320 -0.3470
  270MOL0     O36323   5.358   8.961   0.231 -0.0114  0.0574  0.8877
  270MOL0     C36324   5.505   8.979   0.246  1.0566  0.9633  0.4235
  270MOL0     C36325   5.559   8.848   0.304 -0.5876 -0.0655  0.4809
  270MOL0     C36326   5.718   8.837   0.289 -0.0417 -1.3604 -0.6526
  270MOL0     C36327   5.775   8.803   0.154  0.5969 -0.0478  0.6909
  270MOL0     C36328   5.890   8.900   0.107 -0.2435  0.0343  0.7681
  270MOL0     C36329   5.914   8.891  -0.047  0.2512 -1.2586  0.0667
  270MOL0     C36330   5.803   8.963  -0.129  1.1840 -0.2865 -0.8120
  270MOL0     C36331   5.841   8.994  -0.269 -0.2456 -0.0848 -0.2430
  270MOL0     N36332   5.883   8.871  -0.349 -0.7040  0.3898 -0.1524
  270MOL0     C36333   5.801   8.759  -0.387  0.1379  0.3973  0.4901
  270MOL0     C36334   5.885   8.659  -0.423 -0.1120 -0.5934 -1.0360
  270MOL0     C36335   5.847   8.519  -0.452 -0.2529  0.1888 -0.0744
  270MOL0     C36336   5.968   8.428  -0.443 -0.7635  0.3482  0.4317
  270MOL0     C36337   5.933   8.276  -0.453  0.6628  0.4357 -1.0123
  270MOL0     C36338   6.054   8.203  -0.375  0.1010  0.4203  0.7006
  270MOL0     O36339   6.179   8.225  -0.445 -0.5530  0.3535 -0.4517
  270MOL0     C36340   6.289   8.140  -0.406  0.0987  0.1538  0.0547
  270MOL0     C36341   6.400   8.129  -0.492  0.4940 -0.5756  0.0676
  270MOL0     C36342   6.509   8.046  -0.453  0.2356  0.4103  0.1179
  270MOL0     C36343   6.628   8.045  -0.553 -0.7317  0.3120 -0.3963
  270MOL0     C36344   6.507   7.972  -0.334 -0.1538 -0.2237 -0.6636
  270MOL0     C36345   6.616   7.877  -0.289 -0.1989  0.8355  0.8815
  270MOL0     O36346   6.656   7.892  -0.160 -0.7312 -0.5751 -0.1777
  270MOL0     C36347   6.766   7.825  -0.102 -0.7706 -0.4273 -0.4238
  270MOL0     C36348   6.854   7.900  -0.018  0.4423 -1.0855  0.5700
  270MOL0     C36349   6.968   7.838   0.029  0.7734 -0.1649 -1.3351
  270MOL0     C36350   6.995   7.697   0.011  0.6711 -0.2927 -1.1384
  270MOL0     O36351   7.108   7.640   0.058  0.1868 -0.1026 -0.1962
  270MOL0     C36352   7.139   7.501   0.031 -0.2021 -0.7361  0.4594
  270MOL0     C36353   7.282   7.485   0.094  0.2682 -0.8277  0.0213
  270MOL0     C36354   7.339   7.356   0.031  0.5930 -0.8528  0.3804
  270MOL0     C36355   7.418   7.401  -0.102 -0.1138 -0.1679  0.3709
  270MOL0     C36356   7.513   7.294  -0.153 -0.3534  0.3493 -0.8363
  270MOL0     C36357   7.592   7.342  -0.279 -0.5463 -0.6031 -1.5684
  270MOL0     C36358   7.713   7.259  -0.311 -0.0873  1.3181  0.3266
  270MOL0     C36359   7.683   7.126  -0.394  0.3067  0.0490  0.9212
  270MOL0    Cl36360   7.844   7.082  -0.440 -0.4149 -0.2642  0.0091
  270MOL0     C36361   6.895   7.623  -0.052  1.0831 -0.0753 -0.2412
  270MOL0     C36362   6.781   7.684  -0.103 -0.0283 -0.1462  0.8636
  270MOL0     O36363   6.668   7.797  -0.368  0.1060  0.0190 -0.2877
  270MOL0     C36364   6.399   8.001  -0.245 -0.6893  0.4620  0.0576
  270MOL0     C36365   6.290   8.073  -0.276  1.1197  0.2114  1.1817
  270MOL0     N36366   6.014   8.704  -0.415  0.5349  0.0436 -0.0690
  270MOL0     N36367   6.009   8.825  -0.361  0.2616  0.3622  0.5281
  270MOL0     C36368   5.189   8.849   0.360 -0.6354  0.5022  0.3058
  270MOL0     C36369   5.127   8.812   0.482  0.7465  0.6750  0.5954
  270MOL0     C36370   4.875   8.874   0.852 -0.5724  0.0307  0.8096
  270MOL0     C36371   4.927   8.785   0.949  0.9998  0.5342  0.3251
  270MOL0     C36372   4.862   8.789   1.078  0.6172 -0.6647  0.3260
  270MOL0     C36373   4.751   8.879   1.100 -0.2162  0.8929  0.5068
  270MOL0     O36374   4.689   8.866   1.221 -0.0086  0.0864  0.0227
  270MOL0     C36375   4.600   8.970   1.276  0.0740  0.4686  0.5295
  270MOL0     C36376   4.665   9.097   1.327 -0.7003 -0.5433 -0.3840
  270MOL0     C36377   4.736   9.089   1.460  0.4597  0.3258 -0.1929
  270MOL0     C36378   4.869   9.030   1.462  0.2572  0.2355  0.6048
  270MOL0     C36379   4.958   9.126   1.392 -0.6669  0.5314 -1.0294
  270MOL0     C36380   5.045   9.194   1.345 -0.4985 -1.0626 -0.4198
  270MOL0     C36381   4.699   8.958   1.000  0.4004 -0.4211  0.2092
  270MOL0     C36382   4.773   8.965   0.883  0.2003  0.6952 -0.8995
  270MOL0     H36383   5.248   9.045   0.683 -4.5873 -0.1735  0.4670
  270MOL0     H36384   5.391   9.092   0.487 -2.1436  2.5568  0.6224
  270MOL0     H36385   5.546   9.002   0.147 -2.5466  1.6263 -1.0803
  270MOL0     H36386   5.529   9.064   0.310  2.1321  1.4270 -0.5588
  270MOL0     H36387   5.543   8.850   0.412 -2.9794  0.5849  0.1856
  270MOL0     H36388   5.508   8.761   0.263 -1.2075  0.1075  0.8576
  270MOL0     H36389   5.761   8.930   0.326  2.7657 -2.2620 -1.4191
  270MOL0     H36390   5.758   8.753   0.346  2.0944 -1.2060 -1.8080
  270MOL0     H36391   5.816   8.702   0.148 -0.4141 -0.3976 -0.6296
  270MOL0     H36392   5.692   8.811   0.084  2.2806  1.7550 -1.2443
  270MOL0     H36393   5.882   9.004   0.138  0.1951 -0.4038  2.4627
  270MOL0     H36394   5.982   8.865   0.155  0.1473  0.9411  0.7029
  270MOL0     H36395   6.010   8.941  -0.063  1.2575 -2.7557  1.2278
  270MOL0     H36396   5.933   8.787  -0.075  0.4546 -0.6537 -2.3310
  270MOL0     H36397   5.715   8.898  -0.122  0.6551  0.2297 -2.2611
  270MOL0     H36398   5.771   9.060  -0.089  1.8939  0.3743 -1.7928
  270MOL0     H36399   5.917   9.072  -0.270 -2.9956  2.8378  0.4244
  270MOL0     H36400   5.754   9.028  -0.326  0.0994  1.1319 -0.0722
  270MOL0     H36401   5.694   8.764  -0.400  0.0999  2.2825  1.0990
  270MOL0     H36402   5.776   8.496  -0.373 -2.8689  0.1738 -2.2899
  270MOL0     H36403   5.790   8.514  -0.545 -0.0568 -2.7744 -0.1293
  270MOL0     H36404   6.022   8.442  -0.349  0.4069 -4.0633  0.6546
  270MOL0     H36405   6.033   8.454  -0.528  1.0965 -2.7284  0.7470
  270MOL0     H36406   5.926   8.242  -0.557  0.6701 -0.6676 -0.6725
  270MOL0     H36407   5.850   8.231  -0.398  2.9403 -2.7906  0.0725
  270MOL0     H36408   6.031   8.097  -0.391  2.4407 -0.2442  1.3926
  270MOL0     H36409   6.052   8.235  -0.271 -2.0469 -0.7422  1.0718
  270MOL0     H36410   6.400   8.190  -0.581  4.2000 -1.3634 -0.6174
  270MOL0     H36411   6.594   8.020  -0.654  0.3868 -1.3102 -0.4117
  270MOL0     H36412   6.664   8.148  -0.559 -5.1286  2.3132  2.2069
  270MOL0     H36413   6.711   7.978  -0.528 -0.2524  1.1028  0.1880
  270MOL0     H36414   6.841   8.006   0.002 -0.1137 -1.0584  0.0906
  270MOL0     H36415   7.027   7.913   0.081 -0.7800  1.0312 -1.2318
  270MOL0     H36416   7.076   7.426   0.080 -0.9020 -1.5653 -1.6319
  270MOL0     H36417   7.144   7.485  -0.077 -2.2455 -2.1807  0.5270
  270MOL0     H36418   7.351   7.567   0.076 -0.5960 -0.7369 -3.6292
  270MOL0     H36419   7.269   7.486   0.203  0.4683 -1.0570  0.0498
  270MOL0     H36420   7.256   7.285   0.029 -0.5173  0.3875  1.0649
  270MOL0     H36421   7.415   7.318   0.100  3.1448  1.2139 -1.0895
  270MOL0     H36422   7.342   7.438  -0.171  0.4876  0.8913  0.2561
  270MOL0     H36423   7.485   7.485  -0.086  0.3502  0.3179 -3.2206
  270MOL0     H36424   7.473   7.194  -0.169 -0.8155  0.5796 -1.1433
  270MOL0     H36425   7.582   7.287  -0.068 -2.0267  3.5723  1.0022
  270MOL0     H36426   7.527   7.335  -0.366 -5.9249  2.4532  1.6566
  270MOL0     H36427   7.624   7.446  -0.267 -2.3016  0.4434 -4.8617
  270MOL0     H36428   7.773   7.224  -0.227 -1.0152 -2.6244 -0.4644
  270MOL0     H36429   7.779   7.322  -0.372 -1.0483  3.0576  0.9967
  270MOL0     H36430   7.637   7.043  -0.339 -1.0147  1.4984  2.0898
  270MOL0     H36431   7.638   7.159  -0.488 -0.5035 -0.4642  1.1222
  270MOL0     H36432   6.902   7.514  -0.056 -0.5038 -0.3980  2.7519
  270MOL0     H36433   6.704   7.644  -0.167 -1.0583  0.7266  1.5216
  270MOL0     H36434   6.414   7.946  -0.153  2.6075  2.6169  1.0168
  270MOL0     H36435   6.201   8.076  -0.213 -0.6498  1.6286 -1.2007
  270MOL0     H36436   5.156   8.809   0.264 -1.9017  2.5280 -0.1575
  270MOL0     H36437   5.049   8.736   0.478  1.0083  0.4180  0.3794
  270MOL0     H36438   5.009   8.714   0.935 -0.5945 -0.9701 -1.9763
  270MOL0     H36439   4.896   8.724   1.157 -1.3828 -1.2525  0.7542
  270MOL0     H36440   4.519   8.990   1.205 -1.3147  0.9160  2.1642
  270MOL0     H36441   4.538   8.936   1.359  3.1030 -1.0666  2.3225
  270MOL0     H36442   4.588   9.173   1.341  1.5053  1.3103  3.1750
  270MOL0     H36443   4.731   9.142   1.252  1.3208 -1.5378  0.7149
  270MOL0     H36444   4.676   9.041   1.538  0.4297  1.3863  0.4509
  270MOL0     H36445   4.745   9.193   1.492 -0.8343  0.7163 -1.0288
  270MOL0     H36446   4.853   8.930   1.422  0.1321  1.1656 -1.8477
  270MOL0     H36447   4.910   9.039   1.563 -1.8128  0.9812  1.4285
  270MOL0     H36448   5.127   9.251   1.309  0.4074 -2.7337 -1.0930
  270MOL0     H36449   4.615   9.025   1.013  0.0441 -0.5699 -1.1807
  270MOL0     H36450   4.730   9.032   0.809 -2.3158  1.1651  0.8760
  271MOL0     O36451   5.066   0.677   3.140  0.3738 -0.0748  0.0686
  271MOL0     C36452   5.061   0.569   3.192  0.4311 -0.6232  0.0851
  271MOL0     O36453   5.113   0.459   3.135 -0.4035  0.9048  1.0611
  271MOL0     C36454   5.207   0.464   3.034  0.3450  0.4483 -0.6901
  271MOL0     C36455   5.210   0.360   2.951 -0.6729 -0.2851 -0.3994
  271MOL0     C36456   5.303   0.350   2.842  0.0090 -0.5803 -0.5713
  271MOL0     C36457   5.406   0.441   2.839 -0.5592  0.4604 -0.4805
  271MOL0     O36458   5.506   0.412   2.741  0.0045 -0.6970  0.3966
  271MOL0     C36459   5.635   0.465   2.754 -0.1469  0.0428 -0.1001
  271MOL0     C36460   5.696   0.420   2.884 -0.7781 -0.2307  0.9512
  271MOL0     C36461   5.846   0.443   2.870  0.8388  0.6394  0.0359
  271MOL0     C36462   5.913   0.331   2.785  0.6045 -0.5552  0.3915
  271MOL0     C36463   6.061   0.380   2.770  0.0797  0.4841 -0.3219
  271MOL0     C36464   6.143   0.276   2.692 -0.3261  0.0186  0.9706
  271MOL0     C36465   6.297   0.283   2.720 -0.2810 -0.1462  0.2574
  271MOL0     C36466   6.360   0.416   2.685 -0.2860 -0.3498 -0.4605
  271MOL0     N36467   6.491   0.446   2.759  0.7919 -0.1512  0.5471
  271MOL0     C36468   6.569   0.550   2.713 -0.5614 -0.1088 -0.2361
  271MOL0     C36469   6.670   0.550   2.804 -0.2284  1.1689  0.9277
  271MOL0     C36470   6.771   0.659   2.826  0.0439 -0.4559  0.3474
  271MOL0     C36471   6.712   0.796   2.791 -0.0461 -0.3282  0.4813
  271MOL0     C36472   6.798   0.909   2.833 -0.4590  0.9779 -0.6201
  271MOL0     C36473   6.776   0.958   2.972 -0.0066  1.1124  0.1791
  271MOL0     O36474   6.634   0.983   2.989 -0.4096  0.3677 -0.6433
  271MOL0     C36475   6.587   1.086   3.075 -0.3025 -0.5328  0.9454
  271MOL0     C36476   6.655   1.129   3.186 -0.4284  0.4834 -0.4505
  271MOL0     C36477   6.592   1.223   3.271 -0.6147  0.0704 -0.1965
  271MOL0     C36478   6.653   1.232   3.399 -0.4658 -0.2514 -0.6704
  271MOL0     C36479   6.474   1.286   3.245  0.9334 -0.6647  0.3568
  271MOL0     C36480   6.392   1.377   3.332  0.9038  0.6219  0.5361
  271MOL0     O36481   6.263   1.383   3.310 -0.4200 -0.8343  0.2183
  271MOL0     C36482   6.197   1.439   3.419  1.0346 -0.2495 -0.0467
  271MOL0     C36483   6.119   1.557   3.402  1.1555  0.1667 -0.5561
  271MOL0     C36484   6.023   1.594   3.496 -0.6005  0.4958  0.6289
  271MOL0     C36485   6.005   1.519   3.614  0.1880  1.1888 -0.3481
  271MOL0     O36486   5.927   1.554   3.721  0.1944  0.3510  0.1677
  271MOL0     C36487   5.810   1.638   3.713 -0.1106  0.4405 -0.7145
  271MOL0     C36488   5.668   1.581   3.677  0.4730 -0.3812  0.7333
  271MOL0     C36489   5.569   1.692   3.701 -0.1061 -0.4944 -0.7240
  271MOL0     C36490   5.434   1.643   3.675  0.9389 -0.3607 -0.9615
  271MOL0     C36491   5.386   1.670   3.531  0.6704 -0.0415 -0.3865
  271MOL0     C36492   5.331   1.545   3.471  0.1148 -0.3220  0.3099
  271MOL0     C36493   5.292   1.570   3.321  0.0694  0.1619  0.0158
  271MOL0     C36494   5.252   1.438   3.264  0.6398  0.7110  0.0140
  271MOL0    Cl36495   5.384   1.324   3.245  0.0063  0.1748  0.0789
  271MOL0     C36496   6.086   1.411   3.637  0.2194  0.0829 -0.2812
  271MOL0     C36497   6.172   1.365   3.537 -0.1450  0.0287 -0.6331
  271MOL0     O36498   6.457   1.444   3.407  0.3001  0.0563 -0.2290
  271MOL0     C36499   6.416   1.236   3.126  0.0343 -1.6395  0.4010
  271MOL0     C36500   6.465   1.142   3.047 -0.6033  0.9316 -0.4308
  271MOL0     N36501   6.658   0.439   2.886 -1.0207 -0.5710  0.3444
  271MOL0     N36502   6.549   0.373   2.853 -0.8601  0.3999 -0.2475
  271MOL0     C36503   5.409   0.550   2.927 -0.7093  0.7329 -0.2782
  271MOL0     C36504   5.300   0.570   3.010 -0.4807 -0.6550 -0.3452
  271MOL0     C36505   4.971   0.545   3.313 -0.0206  0.1397 -0.7798
  271MOL0     C36506   4.869   0.632   3.347 -0.3475  0.0886 -0.7193
  271MOL0     C36507   4.781   0.615   3.447  0.5478 -0.0484 -0.6191
  271MOL0     C36508   4.787   0.495   3.514 -0.7173  0.0044  0.5469
  271MOL0     O36509   4.685   0.486   3.605 -0.4236  0.0059  1.0435
  271MOL0     C36510   4.707   0.392   3.714 -0.8386  0.3562  0.6755
  271MOL0     C36511   4.609   0.279   3.714 -0.0292 -0.9545 -0.0461
  271MOL0     C36512   4.462   0.320   3.712 -0.1073  0.6539  0.7867
  271MOL0     C36513   4.363   0.192   3.704 -0.1655  0.4839  0.4962
  271MOL0     C36514   4.417   0.094   3.803 -0.1242  0.4930  0.0276
  271MOL0     C36515   4.446   0.014   3.889 -0.5983 -0.3109 -0.1605
  271MOL0     C36516   4.876   0.389   3.459  0.0458 -1.3983  0.1849
  271MOL0     C36517   4.980   0.418   3.371  0.3499 -0.1811 -0.3134
  271MOL0     H36518   5.141   0.277   2.958  3.5577 -4.0967  1.0170
  271MOL0     H36519   5.284   0.268   2.774  0.1517 -1.3182  0.2607
  271MOL0     H36520   5.688   0.423   2.668 -2.0522  0.9570 -1.7981
  271MOL0     H36521   5.642   0.574   2.746  3.2416 -0.0020  0.6918
  271MOL0     H36522   5.654   0.478   2.968 -1.0500  1.4598 -0.2983
  271MOL0     H36523   5.679   0.312   2.893 -0.0559 -0.3720  0.6267
  271MOL0     H36524   5.867   0.540   2.825 -0.2130  1.3608  1.0510
  271MOL0     H36525   5.889   0.445   2.971 -2.3645 -0.3661  1.5551
  271MOL0     H36526   5.910   0.239   2.844  1.5246  0.6130  2.3908
  271MOL0     H36527   5.868   0.304   2.689  0.6098 -0.6465  0.4145
  271MOL0     H36528   6.074   0.479   2.725 -0.2934  0.8086  0.2833
  271MOL0     H36529   6.098   0.378   2.872 -1.7808 -2.1468  0.4131
  271MOL0     H36530   6.119   0.174   2.720  1.5118 -1.8540 -3.3461
  271MOL0     H36531   6.128   0.289   2.584  1.8040  0.9892  0.7325
  271MOL0     H36532   6.317   0.264   2.826  2.5115 -1.5320 -0.4459
  271MOL0     H36533   6.353   0.212   2.659 -1.9797  0.6143 -2.3898
  271MOL0     H36534   6.296   0.504   2.694 -0.4873 -0.2624 -2.3639
  271MOL0     H36535   6.373   0.406   2.577 -0.6222  0.7800 -0.6174
  271MOL0     H36536   6.560   0.613   2.625  2.3437 -0.8550 -1.1701
  271MOL0     H36537   6.807   0.655   2.929  2.5333 -1.5235 -0.4745
  271MOL0     H36538   6.855   0.639   2.759  0.1701 -1.4439  0.7756
  271MOL0     H36539   6.604   0.789   2.811 -0.1827 -1.3986 -0.4853
  271MOL0     H36540   6.715   0.815   2.684  2.1852  0.8703  0.7065
  271MOL0     H36541   6.786   0.997   2.769 -0.9734  0.8503 -0.7035
  271MOL0     H36542   6.901   0.873   2.831 -0.5382  0.4240  1.7764
  271MOL0     H36543   6.838   1.043   3.002  0.4261  0.8918 -0.0700
  271MOL0     H36544   6.802   0.867   3.028 -0.3065 -1.1099 -3.0538
  271MOL0     H36545   6.753   1.096   3.218  1.1943  0.2962 -4.9307
  271MOL0     H36546   6.586   1.208   3.482  3.3542 -0.6994  2.5920
  271MOL0     H36547   6.744   1.174   3.415  1.1012  1.9024 -1.4091
  271MOL0     H36548   6.680   1.335   3.424 -0.5652 -0.3718 -0.0400
  271MOL0     H36549   6.128   1.615   3.311  1.7865 -0.0576 -0.6412
  271MOL0     H36550   5.960   1.682   3.485 -1.6480  0.0775  2.7682
  271MOL0     H36551   5.795   1.677   3.814 -3.5109 -2.4502  0.0844
  271MOL0     H36552   5.834   1.719   3.644  5.0839 -0.3342 -0.2443
  271MOL0     H36553   5.658   1.550   3.572 -2.1083  0.1012  0.7656
  271MOL0     H36554   5.647   1.489   3.733 -0.1076 -1.4489 -1.1443
  271MOL0     H36555   5.588   1.787   3.651  1.3449  0.3744  1.3431
  271MOL0     H36556   5.571   1.719   3.807 -0.9059  0.9351 -1.0483
  271MOL0     H36557   5.423   1.537   3.699  0.0915 -0.3538 -1.2828
  271MOL0     H36558   5.365   1.705   3.733  3.5474  2.2349 -0.4009
  271MOL0     H36559   5.474   1.709   3.479  1.5555 -0.8748  0.4402
  271MOL0     H36560   5.307   1.742   3.505  0.2916 -0.8589 -1.5907
  271MOL0     H36561   5.398   1.459   3.476  0.9909  0.3467  0.4519
  271MOL0     H36562   5.241   1.514   3.524 -1.7587 -3.8690 -4.2379
  271MOL0     H36563   5.379   1.601   3.263 -1.3718  2.0284 -1.2605
  271MOL0     H36564   5.214   1.645   3.310 -2.3623 -2.3852 -1.6591
  271MOL0     H36565   5.206   1.455   3.166  0.4825  0.2758  0.0104
  271MOL0     H36566   5.170   1.392   3.319  0.3661  0.9138 -0.2197
  271MOL0     H36567   6.088   1.354   3.729 -0.5341  0.5710  0.0472
  271MOL0     H36568   6.230   1.274   3.532  2.1163  1.3821 -0.5080
  271MOL0     H36569   6.331   1.293   3.092 -1.1293 -3.4903  0.0537
  271MOL0     H36570   6.403   1.105   2.966 -0.5592  2.2855 -1.1157
  271MOL0     H36571   5.488   0.623   2.913  0.3514 -0.4166 -0.4263
  271MOL0     H36572   5.312   0.655   3.076  3.7524 -1.6069  0.3998
  271MOL0     H36573   4.866   0.737   3.320 -2.2469  1.2132  3.1541
  271MOL0     H36574   4.697   0.680   3.469 -0.9573 -1.9625 -0.3823
  271MOL0     H36575   4.803   0.342   3.727 -0.9941  0.4235  2.2812
  271MOL0     H36576   4.711   0.441   3.811 -0.3492 -0.3597  1.0275
  271MOL0     H36577   4.624   0.213   3.800 -0.4462  0.7635  1.3892
  271MOL0     H36578   4.623   0.224   3.620 -0.4026  0.3228 -0.8772
  271MOL0     H36579   4.440   0.394   3.635 -1.0690  0.4048  0.8087
  271MOL0     H36580   4.443   0.356   3.813  0.3272 -1.8212  1.8404
  271MOL0     H36581   4.358   0.148   3.604  2.5226 -1.9718  1.2952
  271MOL0     H36582   4.259   0.217   3.726 -0.7454 -1.5400  0.2612
  271MOL0     H36583   4.477  -0.076   3.938  1.5198  0.3825 -0.1356
  271MOL0     H36584   4.872   0.287   3.496 -1.0804 -1.7321 -0.7764
  271MOL0     H36585   5.028   0.340   3.313  1.0077 -0.1563  0.1867
  272MOL0     O36586   5.221   5.670   0.079  0.1991  0.4081 -0.6563
  272MOL0     C36587   5.195   5.630   0.195 -0.0416  0.0871  0.1672
  272MOL0     O36588   5.178   5.497   0.226  0.1823 -0.1259 -0.5127
  272MOL0     C36589   5.203   5.397   0.141 -0.7016  0.4467 -0.4238
  272MOL0     C36590   5.331   5.347   0.128 -0.3392  0.7274 -1.0342
  272MOL0     C36591   5.353   5.246   0.033  0.2035 -0.0943  0.5259
  272MOL0     C36592   5.254   5.186  -0.038 -0.7320  1.1615 -1.2517
  272MOL0     O36593   5.293   5.081  -0.122  0.3944 -0.1751 -0.1017
  272MOL0     C36594   5.187   5.010  -0.182 -1.1465  0.1300 -0.0183
  272MOL0     C36595   5.259   4.906  -0.272  0.6804  0.8295  1.1240
  272MOL0     C36596   5.223   4.764  -0.225 -0.8523  0.8807  0.8444
  272MOL0     C36597   5.282   4.650  -0.312 -0.4167  0.1968  0.7286
  272MOL0     C36598   5.206   4.514  -0.294  0.0831  0.3215  0.7592
  272MOL0     C36599   5.288   4.392  -0.344 -1.3657  0.2762 -0.9784
  272MOL0     C36600   5.430   4.380  -0.291 -0.7408  1.1060  0.0991
  272MOL0     C36601   5.445   4.258  -0.189  0.0749 -0.6621  0.6552
  272MOL0     N36602   5.385   4.290  -0.061  0.5768  0.5805 -0.7002
  272MOL0     C36603   5.453   4.320   0.054  0.0364  0.3097  0.2259
  272MOL0     C36604   5.370   4.309   0.159 -0.6949 -0.8051 -0.2129
  272MOL0     C36605   5.403   4.350   0.299  0.2414 -0.5084  0.5620
  272MOL0     C36606   5.302   4.272   0.394 -0.3787  1.0788 -0.2815
  272MOL0     C36607   5.321   4.279   0.547  0.4268  0.1795  0.0596
  272MOL0     C36608   5.341   4.423   0.593 -0.0092  0.5127 -1.1398
  272MOL0     O36609   5.471   4.458   0.580 -1.0828  1.1448  0.4293
  272MOL0     C36610   5.525   4.588   0.586  0.1957 -1.0401 -0.2829
  272MOL0     C36611   5.653   4.623   0.543  0.3678  0.1582 -1.0091
  272MOL0     C36612   5.698   4.749   0.549 -0.0106 -0.5981  0.1341
  272MOL0     C36613   5.824   4.785   0.479 -0.7628 -0.0868 -0.7703
  272MOL0     C36614   5.613   4.856   0.601 -0.2220  0.3541 -1.0865
  272MOL0     C36615   5.639   5.001   0.600 -0.0357 -0.4024 -0.2491
  272MOL0     O36616   5.551   5.087   0.665  0.0511  0.4431  0.5201
  272MOL0     C36617   5.565   5.221   0.638  0.7763  0.0060  0.2551
  272MOL0     C36618   5.563   5.271   0.509 -0.6820 -0.2566 -0.2475
  272MOL0     C36619   5.569   5.405   0.494  0.1794 -0.6860  1.0137
  272MOL0     C36620   5.569   5.489   0.597  0.0506 -0.4251  0.5862
  272MOL0     O36621   5.584   5.618   0.559 -0.0127 -0.2404  0.4324
  272MOL0     C36622   5.594   5.711   0.669 -0.4514  1.1508 -0.7149
  272MOL0     C36623   5.594   5.845   0.614  0.7541  0.8265 -0.6683
  272MOL0     C36624   5.581   5.942   0.738 -0.3493  0.1841  0.6722
  272MOL0     C36625   5.669   6.069   0.698 -0.9214  0.3181  0.0049
  272MOL0     C36626   5.651   6.165   0.806 -0.6037  1.0241 -0.4669
  272MOL0     C36627   5.684   6.311   0.764 -0.3046 -0.2289  0.6186
  272MOL0     C36628   5.827   6.343   0.743  0.9059  0.8974  0.6286
  272MOL0     C36629   5.870   6.480   0.791  0.4743  0.6311 -0.4925
  272MOL0    Cl36630   5.855   6.483   0.968  0.1112  0.0479 -0.2586
  272MOL0     C36631   5.568   5.443   0.724  0.2050 -0.5778  0.0774
  272MOL0     C36632   5.574   5.308   0.741 -0.1164  0.0683 -0.7392
  272MOL0     O36633   5.721   5.031   0.521 -0.5703  0.2106  0.0566
  272MOL0     C36634   5.488   4.813   0.664  0.0768  0.0820 -0.6331
  272MOL0     C36635   5.447   4.685   0.650 -0.1822 -0.1120  0.1713
  272MOL0     N36636   5.246   4.284   0.105 -0.3219 -0.6347 -0.5907
  272MOL0     N36637   5.259   4.263  -0.024 -0.4966  0.8239  0.7692
  272MOL0     C36638   5.126   5.236  -0.025  0.3533 -0.9050  0.0742
  272MOL0     C36639   5.101   5.345   0.057 -1.2970 -0.1583  0.0661
  272MOL0     C36640   5.190   5.729   0.308 -0.5218  0.3983  0.7609
  272MOL0     C36641   5.235   5.854   0.291  0.0365 -0.1959  0.6796
  272MOL0     C36642   5.230   5.946   0.398 -0.0887  0.1117 -0.0607
  272MOL0     C36643   5.197   5.910   0.527 -0.0668  0.2907 -0.1519
  272MOL0     O36644   5.201   5.991   0.637 -0.0332  0.3008 -0.2140
  272MOL0     C36645   5.251   6.122   0.623  0.5661 -0.6872  0.2770
  272MOL0     C36646   5.226   6.200   0.745 -0.4078 -0.7421 -0.1998
  272MOL0     C36647   5.290   6.335   0.741  0.3844 -0.2610  0.1913
  272MOL0     C36648   5.296   6.389   0.885 -0.6408 -0.1617  0.3639
  272MOL0     C36649   5.379   6.513   0.872 -0.5125 -0.2068  0.1955
  272MOL0     C36650   5.450   6.617   0.870  0.8252  0.2982 -0.4212
  272MOL0     C36651   5.135   5.782   0.533 -0.5912 -0.0294 -0.1988
  272MOL0     C36652   5.140   5.690   0.437 -0.0521  0.2839 -0.3794
  272MOL0     H36653   5.408   5.369   0.202 -3.6820 -1.7466  3.6683
  272MOL0     H36654   5.455   5.207   0.029 -0.7474 -2.7462  0.0126
  272MOL0     H36655   5.126   4.955  -0.110  0.4245 -3.4703 -1.2142
  272MOL0     H36656   5.127   5.070  -0.252  0.9002  2.8567  0.4151
  272MOL0     H36657   5.218   4.917  -0.373  1.3599 -2.8126  0.3065
  272MOL0     H36658   5.368   4.912  -0.265  0.5886  0.5771  3.3033
  272MOL0     H36659   5.263   4.743  -0.125 -1.4727 -2.0170  0.5660
  272MOL0     H36660   5.115   4.748  -0.219 -1.0860  2.5129  1.5785
  272MOL0     H36661   5.253   4.668  -0.416 -2.5725  0.8674  1.3750
  272MOL0     H36662   5.390   4.645  -0.299 -0.1505  1.9312 -0.4390
  272MOL0     H36663   5.175   4.496  -0.191  2.0777  3.7657  2.1402
  272MOL0     H36664   5.117   4.497  -0.355  0.6714 -2.0403  0.4367
  272MOL0     H36665   5.228   4.303  -0.322 -1.7002  0.8016  0.3478
  272MOL0     H36666   5.281   4.392  -0.453  3.9059  0.2327 -1.6081
  272MOL0     H36667   5.494   4.374  -0.379  1.3072  3.4556  1.2827
  272MOL0     H36668   5.470   4.461  -0.229  0.2130  0.5684  0.2167
  272MOL0     H36669   5.543   4.213  -0.171 -0.4426 -1.3277  1.8303
  272MOL0     H36670   5.393   4.173  -0.234  0.2423  0.0211 -0.9010
  272MOL0     H36671   5.561   4.323   0.065  0.3148 -4.0328  0.1666
  272MOL0     H36672   5.498   4.301   0.320  0.9456 -0.9393 -2.9334
  272MOL0     H36673   5.409   4.459   0.305  1.3915 -0.2748 -2.5623
  272MOL0     H36674   5.312   4.167   0.364  1.2687  1.0324  0.3360
  272MOL0     H36675   5.197   4.295   0.374 -2.0294 -2.5346  2.8750
  272MOL0     H36676   5.412   4.221   0.565  1.6830  1.0909 -2.7746
  272MOL0     H36677   5.248   4.230   0.612  5.0129 -2.3803  3.9633
  272MOL0     H36678   5.311   4.423   0.699 -1.6062  0.8155 -1.5688
  272MOL0     H36679   5.270   4.485   0.538 -3.6807  0.3049  2.8090
  272MOL0     H36680   5.723   4.544   0.518  0.5247  0.2159 -0.7521
  272MOL0     H36681   5.869   4.694   0.440 -1.3385  0.2560 -2.3244
  272MOL0     H36682   5.803   4.846   0.391  0.1245 -0.2015 -1.0739
  272MOL0     H36683   5.891   4.838   0.547 -0.8630 -0.4721 -0.3667
  272MOL0     H36684   5.553   5.200   0.428 -0.9868  0.3984 -0.7893
  272MOL0     H36685   5.581   5.443   0.394  0.1306 -1.7289  0.6026
  272MOL0     H36686   5.507   5.694   0.734 -0.3876  1.5768 -0.5153
  272MOL0     H36687   5.684   5.692   0.728 -2.3857 -3.2134  1.3265
  272MOL0     H36688   5.690   5.858   0.562  2.1627  0.4070  1.6577
  272MOL0     H36689   5.508   5.862   0.549 -0.0142 -0.3644  0.0064
  272MOL0     H36690   5.619   5.885   0.824 -0.7973 -0.4194  0.4755
  272MOL0     H36691   5.476   5.964   0.762 -0.9461  0.2466 -1.7677
  272MOL0     H36692   5.777   6.051   0.690 -0.5914  1.7466  0.8604
  272MOL0     H36693   5.632   6.114   0.606 -0.5141  2.0083  0.6352
  272MOL0     H36694   5.718   6.132   0.887  0.2570 -0.0258 -1.5646
  272MOL0     H36695   5.545   6.153   0.829 -0.1688 -0.9498  0.7824
  272MOL0     H36696   5.622   6.329   0.675  0.1918 -0.2303  0.2659
  272MOL0     H36697   5.646   6.381   0.838  1.9037  1.8964 -0.1198
  272MOL0     H36698   5.856   6.324   0.640 -0.3447 -1.9716  0.6998
  272MOL0     H36699   5.881   6.267   0.800 -1.1566  1.4563  3.5715
  272MOL0     H36700   5.796   6.550   0.750 -0.2733  0.8130  1.0987
  272MOL0     H36701   5.971   6.509   0.762  1.8057 -1.5455  1.6853
  272MOL0     H36702   5.569   5.497   0.818 -2.7154 -4.6276  2.7145
  272MOL0     H36703   5.568   5.261   0.839 -1.1217 -1.2449 -1.3944
  272MOL0     H36704   5.427   4.887   0.715 -1.1524 -1.0360 -0.4204
  272MOL0     H36705   5.341   4.667   0.669 -1.0177  1.6007 -2.3093
  272MOL0     H36706   5.048   5.194  -0.088 -1.1326  3.8162 -1.6428
  272MOL0     H36707   5.018   5.414   0.062  2.2062  4.5970  0.0874
  272MOL0     H36708   5.285   5.893   0.202 -0.3927  0.5142  0.7372
  272MOL0     H36709   5.286   6.039   0.392  2.4438 -0.5561  6.2338
  272MOL0     H36710   5.356   6.114   0.595  0.7002  3.9710 -1.4461
  272MOL0     H36711   5.204   6.182   0.544 -2.7188 -0.1130  2.4534
  272MOL0     H36712   5.275   6.147   0.827 -0.1183 -3.0564 -1.7590
  272MOL0     H36713   5.122   6.225   0.764  0.0576  0.7272  0.5802
  272MOL0     H36714   5.224   6.398   0.682 -1.2250 -1.7580  0.3321
  272MOL0     H36715   5.386   6.324   0.689  0.2844 -0.9317  0.1425
  272MOL0     H36716   5.342   6.330   0.965 -1.5901  2.4754  3.0318
  272MOL0     H36717   5.194   6.406   0.920 -0.3553  2.6903  0.0653
  272MOL0     H36718   5.506   6.703   0.840 -0.0627  0.8091 -0.6569
  272MOL0     H36719   5.099   5.742   0.627 -0.2455 -3.6256 -1.4390
  272MOL0     H36720   5.111   5.587   0.457  0.6972 -0.2848 -2.1062
  273MOL0     O36721   1.767   1.324   1.950  0.0724 -0.4303 -0.2830
  273MOL0     C36722   1.882   1.317   1.987 -0.2006 -0.0838  1.1234
  273MOL0     O36723   1.988   1.267   1.906 -0.5243  0.1061 -0.5248
  273MOL0     C36724   1.944   1.248   1.774 -0.5606  0.5347  0.5978
  273MOL0     C36725   1.964   1.115   1.720 -0.3839 -1.0933 -0.6163
  273MOL0     C36726   1.946   1.094   1.583 -0.5107  0.3226 -0.2582
  273MOL0     C36727   1.900   1.197   1.500 -0.3749 -0.1182  0.6463
  273MOL0     O36728   1.879   1.157   1.368 -0.4285  0.2924 -0.1269
  273MOL0     C36729   1.868   1.243   1.257  0.4568  0.2388 -0.6560
  273MOL0     C36730   1.887   1.159   1.133  0.1206  1.0168  0.2269
  273MOL0     C36731   1.778   1.048   1.123 -0.1487  0.3829 -0.9362
  273MOL0     C36732   1.804   0.967   0.998 -0.0996 -0.5891  0.1945
  273MOL0     C36733   1.697   0.858   0.962  0.1664  0.9051 -0.0012
  273MOL0     C36734   1.700   0.797   0.814 -0.8523 -1.1717 -0.2877
  273MOL0     C36735   1.569   0.735   0.782 -0.1835  0.0354  0.0640
  273MOL0     C36736   1.545   0.597   0.851 -0.1528 -0.6585  0.3075
  273MOL0     N36737   1.609   0.485   0.788 -0.0325 -0.0371  0.5615
  273MOL0     C36738   1.702   0.472   0.682  0.8047  0.3304  0.7696
  273MOL0     C36739   1.713   0.334   0.660 -0.0002 -0.8889 -0.4178
  273MOL0     C36740   1.788   0.270   0.542  0.0756 -0.4021 -0.4101
  273MOL0     C36741   1.946   0.276   0.559 -0.7364 -0.2717 -0.3887
  273MOL0     C36742   1.994   0.130   0.583  0.0403 -0.4028  0.0925
  273MOL0     C36743   2.143   0.121   0.600 -1.0456  0.5149  0.0381
  273MOL0     O36744   2.182  -0.014   0.642  0.2186  0.3985 -0.0155
  273MOL0     C36745   2.306  -0.057   0.664 -0.0198 -0.0144 -1.1234
  273MOL0     C36746   2.428   0.012   0.644  1.7534  0.4728 -0.1065
  273MOL0     C36747   2.547  -0.057   0.677  0.5551 -0.4879  0.1314
  273MOL0     C36748   2.673  -0.001   0.634  1.0166 -0.9922 -0.0996
  273MOL0     C36749   2.552  -0.175   0.755 -0.2629 -0.4271 -0.8468
  273MOL0     C36750   2.660  -0.245   0.819  0.4953 -0.1217 -0.3284
  273MOL0     O36751   2.639  -0.366   0.867 -0.3536 -0.1066  0.6293
  273MOL0     C36752   2.752  -0.450   0.886 -0.3667 -0.0881  0.4889
  273MOL0     C36753   2.825  -0.486   0.780 -0.1716 -0.2500 -0.7376
  273MOL0     C36754   2.929  -0.582   0.788 -0.2044  0.7700 -0.6374
  273MOL0     C36755   2.960  -0.624   0.918  0.1568  0.9718 -1.3568
  273MOL0     O36756   3.065  -0.709   0.917 -0.0724  0.6365  0.0591
  273MOL0     C36757   3.163  -0.684   1.022 -0.0818 -0.6447 -0.4235
  273MOL0     C36758   3.275  -0.793   1.007 -0.0091 -0.7964 -0.3029
  273MOL0     C36759   3.336  -0.800   0.869  0.2002  0.0608  0.6645
  273MOL0     C36760   3.480  -0.851   0.877 -0.4957 -0.3691  0.4322
  273MOL0     C36761   3.586  -0.740   0.874 -0.2063  0.5183  0.6993
  273MOL0     C36762   3.605  -0.658   1.005 -0.3975 -0.4894 -0.8079
  273MOL0     C36763   3.683  -0.536   0.967  1.0579 -0.1920 -0.0359
  273MOL0     C36764   3.743  -0.455   1.073  0.4909  0.4028 -0.3803
  273MOL0    Cl36765   3.633  -0.313   1.089  0.1668  0.2208 -0.6451
  273MOL0     C36766   2.886  -0.578   1.033 -1.0908 -0.6321  0.3033
  273MOL0     C36767   2.781  -0.488   1.015 -0.2703 -0.0292 -0.3202
  273MOL0     O36768   2.762  -0.177   0.847  0.1033 -0.1165  0.0696
  273MOL0     C36769   2.425  -0.238   0.762 -0.0369  0.0021 -0.7147
  273MOL0     C36770   2.310  -0.184   0.717  0.5822  0.1871 -0.1819
  273MOL0     N36771   1.620   0.275   0.748  0.4442  0.4055 -0.5318
  273MOL0     N36772   1.556   0.362   0.818  0.3148 -0.3482  0.1531
  273MOL0     C36773   1.873   1.327   1.557 -0.5280 -0.1253  0.9061
  273MOL0     C36774   1.901   1.352   1.692 -0.8296 -0.0687 -0.5997
  273MOL0     C36775   1.910   1.365   2.126  0.1610 -1.6525 -0.7584
  273MOL0     C36776   2.047   1.367   2.164  0.0382  0.5114 -0.1574
  273MOL0     C36777   2.086   1.424   2.286 -0.1578 -0.0185  0.4090
  273MOL0     C36778   1.990   1.461   2.378  0.1229  0.6150 -0.1069
  273MOL0     O36779   2.028   1.480   2.510 -0.0964 -0.0075 -0.0898
  273MOL0     C36780   2.142   1.560   2.542  0.2305 -0.7868  0.0502
  273MOL0     C36781   2.241   1.485   2.627  0.4182 -0.3166 -0.3512
  273MOL0     C36782   2.302   1.354   2.567 -0.1397  0.3120  0.2034
  273MOL0     C36783   2.425   1.299   2.639  0.2120 -0.2912  0.3765
  273MOL0     C36784   2.540   1.375   2.600 -0.6295  0.8466 -0.3406
  273MOL0     C36785   2.637   1.436   2.564 -0.2165 -0.0240  0.9810
  273MOL0     C36786   1.857   1.469   2.351  0.0892  0.4831 -0.1128
  273MOL0     C36787   1.817   1.408   2.232  0.1067  0.3408  0.7300
  273MOL0     H36788   2.010   1.045   1.788  1.4148  0.0281 -0.6166
  273MOL0     H36789   1.970   0.994   1.547 -0.5111  0.0951  0.3743
  273MOL0     H36790   1.770   1.293   1.252 -0.5570 -1.1971  2.5709
  273MOL0     H36791   1.942   1.324   1.250  0.7351  0.1085  0.5951
  273MOL0     H36792   1.887   1.228   1.049  0.9923  0.4215 -0.2663
  273MOL0     H36793   1.981   1.105   1.140 -1.2244 -1.7012 -1.2253
  273MOL0     H36794   1.791   0.983   1.210  0.5353  0.6939 -0.7910
  273MOL0     H36795   1.675   1.084   1.117 -0.3139 -0.0578 -0.7792
  273MOL0     H36796   1.811   1.033   0.911  1.4131 -1.9258 -0.7457
  273MOL0     H36797   1.900   0.921   1.023  0.1805 -0.4440 -0.6014
  273MOL0     H36798   1.685   0.779   1.037 -0.6551  1.9230  0.9757
  273MOL0     H36799   1.610   0.923   0.969  0.9313  2.3376 -2.5785
  273MOL0     H36800   1.729   0.880   0.749  0.2815 -0.8132  0.6367
  273MOL0     H36801   1.783   0.727   0.804  1.8953  1.6421  1.1235
  273MOL0     H36802   1.486   0.803   0.804 -0.4598  0.1700 -1.3310
  273MOL0     H36803   1.561   0.718   0.674 -0.2932  0.4540  0.0018
  273MOL0     H36804   1.438   0.579   0.839 -0.6176  2.7781 -2.0511
  273MOL0     H36805   1.595   0.600   0.948  2.8395 -1.2782 -1.0898
  273MOL0     H36806   1.734   0.551   0.615  2.1484  0.6655  1.7620
  273MOL0     H36807   1.764   0.164   0.530 -0.0056 -0.7945  2.4681
  273MOL0     H36808   1.768   0.323   0.449  1.0467 -1.1415 -1.0608
  273MOL0     H36809   1.973   0.351   0.635 -2.2051  2.1915 -2.1503
  273MOL0     H36810   1.991   0.309   0.465  2.8963  0.4093  1.3817
  273MOL0     H36811   1.971   0.070   0.495 -0.4006 -0.7552  0.4439
  273MOL0     H36812   1.936   0.081   0.662 -0.9613 -0.7839 -0.8566
  273MOL0     H36813   2.180   0.197   0.669 -2.5008  0.8137  0.5321
  273MOL0     H36814   2.198   0.124   0.506  2.1691 -3.4820  1.5217
  273MOL0     H36815   2.449   0.093   0.574 -0.9660 -1.7838 -3.9486
  273MOL0     H36816   2.729   0.034   0.721 -0.2310  1.1202 -0.0754
  273MOL0     H36817   2.730  -0.082   0.589 -0.4863 -1.2942 -1.5810
  273MOL0     H36818   2.655   0.081   0.563  0.2399 -0.3924  0.7736
  273MOL0     H36819   2.806  -0.442   0.683 -2.2484  1.1509  0.2345
  273MOL0     H36820   2.983  -0.611   0.698  0.0283 -1.0854  0.0528
  273MOL0     H36821   3.210  -0.586   1.007 -0.3922 -0.0387  2.0583
  273MOL0     H36822   3.115  -0.674   1.120  1.2850 -1.0597  0.3101
  273MOL0     H36823   3.359  -0.772   1.073  0.9478 -0.8193 -1.4871
  273MOL0     H36824   3.229  -0.890   1.029  1.0681 -1.2112  0.1582
  273MOL0     H36825   3.337  -0.704   0.818  2.2962 -0.3312 -0.1517
  273MOL0     H36826   3.292  -0.881   0.810 -1.4461  1.1755  0.2964
  273MOL0     H36827   3.491  -0.915   0.964 -0.0143 -0.2153  0.4839
  273MOL0     H36828   3.505  -0.907   0.786  2.5163  1.0500  0.2891
  273MOL0     H36829   3.582  -0.683   0.780 -0.8658 -1.3822 -0.4838
  273MOL0     H36830   3.681  -0.792   0.864 -0.0783  1.0284 -1.2903
  273MOL0     H36831   3.512  -0.617   1.045  1.8852  1.2803  3.4027
  273MOL0     H36832   3.660  -0.716   1.080  0.4263  1.3315  0.0568
  273MOL0     H36833   3.614  -0.472   0.910  0.4219  1.2079  2.1513
  273MOL0     H36834   3.765  -0.562   0.900  0.9769 -0.3207 -0.0862
  273MOL0     H36835   3.838  -0.422   1.033  0.1285  0.1113 -1.5013
  273MOL0     H36836   3.762  -0.510   1.166  0.6728 -2.5552 -2.0547
  273MOL0     H36837   2.907  -0.620   1.131 -0.2085 -6.3322 -1.9070
  273MOL0     H36838   2.726  -0.450   1.101  0.1877 -0.3608  0.1233
  273MOL0     H36839   2.413  -0.336   0.808 -0.2851 -1.1966 -3.1624
  273MOL0     H36840   2.219  -0.240   0.735  1.1282  0.1185  2.8217
  273MOL0     H36841   1.853   1.415   1.496 -0.9854  1.3307  3.0431
  273MOL0     H36842   1.884   1.449   1.738 -1.0350 -0.1504 -0.5028
  273MOL0     H36843   2.122   1.327   2.097 -1.1556 -1.5982 -0.2984
  273MOL0     H36844   2.191   1.429   2.314  0.4100 -1.8761 -1.2185
  273MOL0     H36845   2.190   1.595   2.450  3.0036 -2.3400  0.7890
  273MOL0     H36846   2.100   1.644   2.597 -1.7450 -1.1664 -0.8013
  273MOL0     H36847   2.199   1.463   2.726 -1.5258 -0.9948 -1.2749
  273MOL0     H36848   2.333   1.544   2.635  0.7106 -0.4773 -2.1798
  273MOL0     H36849   2.312   1.368   2.459 -3.1788 -2.2919 -0.5540
  273MOL0     H36850   2.228   1.274   2.573 -0.0111  0.1605 -0.2183
  273MOL0     H36851   2.445   1.198   2.600  1.7953 -0.3898  1.3787
  273MOL0     H36852   2.422   1.299   2.748  0.7362  3.0612  0.4938
  273MOL0     H36853   2.724   1.496   2.553 -1.8737  2.3341 -0.2071
  273MOL0     H36854   1.794   1.518   2.424 -0.4701  0.9116 -0.8576
  273MOL0     H36855   1.715   1.402   2.194  0.2590 -3.9197  0.4604
  274MOL0     O36856   7.846   5.113   8.191 -0.4158 -0.1604 -0.0220
  274MOL0     C36857   7.804   5.080   8.077  0.6850  0.1617 -0.5622
  274MOL0     O36858   7.753   4.959   8.045  0.0049 -1.0633 -0.2238
  274MOL0     C36859   7.710   4.886   8.154 -0.1605  0.2063  0.4314
  274MOL0     C36860   7.579   4.853   8.183  0.7621 -0.3063  1.4203
  274MOL0     C36861   7.543   4.794   8.303  1.1996 -0.5897 -0.7720
  274MOL0     C36862   7.640   4.758   8.396  0.5187  0.2756 -0.1071
  274MOL0     O36863   7.609   4.692   8.516  0.5335  0.7432 -0.7741
  274MOL0     C36864   7.636   4.550   8.532  0.5093  0.1883 -0.3436
  274MOL0     C36865   7.532   4.496   8.637 -0.7565  0.0013 -0.4586
  274MOL0     C36866   7.388   4.505   8.589  0.0291  0.3901 -1.0101
  274MOL0     C36867   7.300   4.439   8.701 -0.3947 -0.7937  0.4232
  274MOL0     C36868   7.144   4.461   8.672 -0.0178 -1.0456 -1.0127
  274MOL0     C36869   7.071   4.478   8.804 -0.3164  0.7235 -0.4777
  274MOL0     C36870   6.932   4.527   8.799 -0.0041  0.0458 -0.3088
  274MOL0     C36871   6.912   4.665   8.738  0.8295  0.3242  0.0521
  274MOL0     N36872   7.004   4.771   8.784 -0.1340 -0.0327 -0.2896
  274MOL0     C36873   7.106   4.827   8.708 -0.2752 -0.5745 -0.9896
  274MOL0     C36874   7.167   4.920   8.794  0.0211  0.4374  0.2194
  274MOL0     C36875   7.293   4.994   8.759 -0.0864  0.4361 -0.6002
  274MOL0     C36876   7.421   4.912   8.778 -1.1138 -0.0034 -0.0707
  274MOL0     C36877   7.448   4.882   8.927 -0.4268  0.3533 -0.1187
  274MOL0     C36878   7.572   4.781   8.950  0.9952  0.5612  0.1906
  274MOL0     O36879   7.687   4.823   8.880 -0.4886  0.3035  1.5595
  274MOL0     C36880   7.780   4.725   8.853 -0.7355  0.1675 -0.1526
  274MOL0     C36881   7.803   4.604   8.911 -0.1958  0.8251  0.2399
  274MOL0     C36882   7.903   4.510   8.865  0.2182  0.8691 -0.2331
  274MOL0     C36883   7.913   4.377   8.936 -0.8640  0.2654  0.1101
  274MOL0     C36884   7.981   4.540   8.746 -1.2610  0.2323 -0.6192
  274MOL0     C36885   8.082   4.455   8.670  0.2293 -0.2574  0.2390
  274MOL0     O36886   8.091   4.334   8.716 -0.3521  0.1908  0.0883
  274MOL0     C36887   8.145   4.230   8.645 -1.0888 -0.0445  0.9120
  274MOL0     C36888   8.216   4.125   8.713  0.2283  0.1966  0.1585
  274MOL0     C36889   8.267   4.012   8.644  0.6722  0.7356 -0.2825
  274MOL0     C36890   8.246   4.003   8.502 -0.8461 -0.1838 -0.3550
  274MOL0     O36891   8.303   3.910   8.424 -0.5295  0.6738  0.0674
  274MOL0     C36892   8.380   3.800   8.495  0.7087  0.1298 -0.3044
  274MOL0     C36893   8.415   3.695   8.395  0.3943  0.0433 -0.4915
  274MOL0     C36894   8.511   3.591   8.464 -0.1744 -0.7703  0.9486
  274MOL0     C36895   8.553   3.481   8.364 -0.1640 -0.1037  1.0093
  274MOL0     C36896   8.616   3.369   8.450 -0.2915  0.6388  0.3315
  274MOL0     C36897   8.527   3.290   8.536  0.9659  0.4275 -0.5102
  274MOL0     C36898   8.589   3.159   8.564 -0.0248 -1.2601  1.0309
  274MOL0     C36899   8.519   3.089   8.689  0.1119 -0.7643  0.7891
  274MOL0    Cl36900   8.562   2.916   8.690  0.5706  0.3186  0.0017
  274MOL0     C36901   8.181   4.110   8.438 -1.2880  1.0076  0.1412
  274MOL0     C36902   8.125   4.215   8.512  0.1473  0.9740  0.5470
  274MOL0     O36903   8.168   4.510   8.596 -0.1179  0.4966 -0.3204
  274MOL0     C36904   7.964   4.672   8.702 -1.0795  0.5607 -0.5986
  274MOL0     C36905   7.864   4.759   8.746  0.5680  0.5884  0.0584
  274MOL0     N36906   7.106   4.920   8.912 -0.4092 -0.3109 -0.4164
  274MOL0     N36907   7.010   4.831   8.905  0.1660 -0.9049 -1.2373
  274MOL0     C36908   7.774   4.777   8.367  0.2039  0.7740  0.6380
  274MOL0     C36909   7.808   4.843   8.248  0.2702  0.1115 -0.3296
  274MOL0     C36910   7.812   5.165   7.958  1.2370 -0.7845  0.2567
  274MOL0     C36911   7.852   5.308   7.973  0.4122 -0.2330  0.1238
  274MOL0     C36912   7.882   5.388   7.863  0.3577 -0.9255  0.1609
  274MOL0     C36913   7.844   5.348   7.735 -0.2372  0.1855  0.1508
  274MOL0     O36914   7.846   5.431   7.623 -1.8032 -0.1018  0.2102
  274MOL0     C36915   7.878   5.568   7.629 -0.1280  0.0656 -0.5100
  274MOL0     C36916   8.021   5.593   7.591 -0.1772 -0.6520 -0.1794
  274MOL0     C36917   8.126   5.538   7.693  0.1440 -0.3329  0.0614
  274MOL0     C36918   8.273   5.567   7.642 -0.1202 -0.8249  0.1229
  274MOL0     C36919   8.380   5.492   7.709  0.8080 -0.1234 -0.5685
  274MOL0     C36920   8.450   5.422   7.768 -1.6386 -0.0459 -0.4146
  274MOL0     C36921   7.788   5.216   7.722  0.1574 -0.4561 -0.8370
  274MOL0     C36922   7.780   5.126   7.827  0.4387 -0.2331  0.1881
  274MOL0     H36923   7.506   4.876   8.105 -0.3092 -1.2876  2.0979
  274MOL0     H36924   7.437   4.774   8.315  0.0967  2.0113 -4.2948
  274MOL0     H36925   7.629   4.498   8.436  0.6805  2.0687 -1.4217
  274MOL0     H36926   7.736   4.532   8.573 -0.8441 -0.0666  3.1150
  274MOL0     H36927   7.558   4.398   8.678 -3.4731  0.3202  2.3999
  274MOL0     H36928   7.554   4.554   8.727 -2.2188 -2.2115  1.4378
  274MOL0     H36929   7.377   4.614   8.590  2.8291  0.7546 -0.1454
  274MOL0     H36930   7.368   4.461   8.491 -3.6268  0.9185 -0.6598
  274MOL0     H36931   7.319   4.331   8.709 -2.4066 -1.2094  0.2934
  274MOL0     H36932   7.320   4.494   8.793  1.8148  2.8232 -1.9669
  274MOL0     H36933   7.135   4.556   8.619 -0.9839 -0.6316 -0.1555
  274MOL0     H36934   7.110   4.367   8.626  1.8008 -2.4390  0.3444
  274MOL0     H36935   7.073   4.388   8.865 -1.8329  2.5311  2.4463
  274MOL0     H36936   7.123   4.556   8.861  1.1982 -0.7814  0.2572
  274MOL0     H36937   6.879   4.449   8.743  2.6067  0.4441 -3.6936
  274MOL0     H36938   6.893   4.524   8.901  1.3746  1.0411  0.2794
  274MOL0     H36939   6.812   4.686   8.777  1.1407  2.4576 -0.1607
  274MOL0     H36940   6.907   4.670   8.628 -0.0344  2.0767  0.1371
  274MOL0     H36941   7.128   4.801   8.605  2.4537  0.5420 -0.7718
  274MOL0     H36942   7.312   5.032   8.659  4.1345  1.5165  0.3962
  274MOL0     H36943   7.307   5.081   8.824  2.9983 -0.1254 -0.3290
  274MOL0     H36944   7.497   4.982   8.741  0.1246 -1.1584  0.1923
  274MOL0     H36945   7.423   4.818   8.723  2.6453 -1.2265  1.8280
  274MOL0     H36946   7.358   4.840   8.971 -0.2949 -0.9361 -1.0151
  274MOL0     H36947   7.485   4.977   8.969  0.0003 -0.6813  1.9897
  274MOL0     H36948   7.541   4.685   8.908  0.2997 -0.0619  2.0633
  274MOL0     H36949   7.587   4.758   9.055  2.7919  1.2858  0.1157
  274MOL0     H36950   7.737   4.590   8.996 -2.4950 -2.4781 -1.8630
  274MOL0     H36951   8.016   4.359   8.967 -1.5665 -3.5274  0.6883
  274MOL0     H36952   7.843   4.362   9.019 -0.2441 -0.2868  0.5498
  274MOL0     H36953   7.900   4.293   8.868 -0.2304 -0.1054  0.4356
  274MOL0     H36954   8.232   4.138   8.820  3.3845  1.1881 -0.3406
  274MOL0     H36955   8.318   3.939   8.706  1.1333  1.2146 -0.0904
  274MOL0     H36956   8.468   3.841   8.544 -1.5692  3.3383  1.4062
  274MOL0     H36957   8.305   3.754   8.560  1.3750  2.0601  1.9606
  274MOL0     H36958   8.324   3.642   8.367  1.0048 -1.5622  0.4165
  274MOL0     H36959   8.454   3.734   8.301  0.3106  0.3172 -0.4139
  274MOL0     H36960   8.466   3.558   8.559 -1.1821  1.8716  1.4838
  274MOL0     H36961   8.604   3.644   8.486 -1.5592  2.5220 -0.4434
  274MOL0     H36962   8.463   3.449   8.311 -0.4164  0.5832  1.0071
  274MOL0     H36963   8.627   3.512   8.291  3.0405 -2.6845  2.8711
  274MOL0     H36964   8.697   3.404   8.515 -0.5745 -1.1816  1.7451
  274MOL0     H36965   8.653   3.288   8.387  2.1786 -1.2951  3.9344
  274MOL0     H36966   8.508   3.354   8.623 -0.1980  1.0207 -1.1757
  274MOL0     H36967   8.436   3.271   8.479  0.8091  0.8641 -0.4134
  274MOL0     H36968   8.692   3.170   8.600 -0.1063 -0.2230  0.9546
  274MOL0     H36969   8.593   3.093   8.477  3.1745 -1.6671  1.3578
  274MOL0     H36970   8.410   3.088   8.678  0.2693 -1.8246 -1.1522
  274MOL0     H36971   8.547   3.132   8.785 -0.0487 -0.4186  0.6840
  274MOL0     H36972   8.172   4.123   8.331  0.6064  1.3452 -0.0066
  274MOL0     H36973   8.069   4.292   8.461  2.3560  1.6684 -0.9643
  274MOL0     H36974   8.026   4.697   8.617  0.7863 -0.8546  0.2632
  274MOL0     H36975   7.840   4.844   8.683 -1.7395  3.1442  4.0162
  274MOL0     H36976   7.852   4.748   8.437  0.5080  2.2861  0.9749
  274MOL0     H36977   7.912   4.842   8.215  0.4554 -1.1804  0.2219
  274MOL0     H36978   7.874   5.345   8.073  1.3208  0.9748 -0.4889
  274MOL0     H36979   7.925   5.487   7.865  1.7202 -1.4454 -0.9149
  274MOL0     H36980   7.811   5.616   7.556  0.0508 -0.4127 -1.0004
  274MOL0     H36981   7.865   5.617   7.726  0.6409 -1.3678  0.3609
  274MOL0     H36982   8.035   5.697   7.558 -1.7397 -0.6846 -1.0558
  274MOL0     H36983   8.037   5.550   7.492  2.1719 -0.2156 -0.0265
  274MOL0     H36984   8.106   5.431   7.702 -0.1523 -0.4965 -2.0731
  274MOL0     H36985   8.115   5.578   7.794  2.9860  0.9795 -0.0527
  274MOL0     H36986   8.292   5.674   7.631 -0.0796 -0.8362  0.0822
  274MOL0     H36987   8.288   5.532   7.540 -2.3996 -0.5689 -0.3529
  274MOL0     H36988   8.497   5.366   7.846 -3.2993 -1.2344 -0.2070
  274MOL0     H36989   7.753   5.186   7.624 -2.0937  1.0641 -0.5673
  274MOL0     H36990   7.739   5.029   7.799 -0.5696  0.3801 -0.5276
  275MOL0     O36991  10.771   8.646   0.276  0.0462 -0.1524  0.4485
  275MOL0     C36992  10.877   8.649   0.336  0.0557 -0.0841 -0.5787
  275MOL0     O36993  10.890   8.692   0.469 -0.6668  1.0402  0.4574
  275MOL0     C36994  10.785   8.730   0.547  0.2619  0.3355  0.4929
  275MOL0     C36995  10.654   8.684   0.537  0.1946  0.0629  0.5826
  275MOL0     C36996  10.544   8.739   0.608 -0.1395  0.0704 -0.3294
  275MOL0     C36997  10.563   8.853   0.676 -0.6691 -0.3569  0.9171
  275MOL0     O36998  10.463   8.913   0.738 -0.1009  0.4514  0.1788
  275MOL0     C36999  10.479   9.048   0.781 -0.2946 -0.0342 -0.1070
  275MOL0     C37000  10.359   9.093   0.866 -0.0038  0.2332  0.6738
  275MOL0     C37001  10.382   9.061   1.023  0.1863 -0.1450  0.1454
  275MOL0     C37002  10.373   9.183   1.109  0.4064 -0.1036 -0.4215
  275MOL0     C37003  10.317   9.150   1.248 -0.3303 -0.1734 -0.6043
  275MOL0     C37004  10.263   9.264   1.330  0.0676 -1.3455 -1.7729
  275MOL0     C37005  10.215   9.226   1.482  0.0736  0.0844  0.4983
  275MOL0     C37006  10.175   9.340   1.569 -0.3068 -0.7432  0.1026
  275MOL0     N37007  10.113   9.287   1.690  0.5358 -0.0383  0.0486
  275MOL0     C37008  10.023   9.356   1.760  0.5856  0.0867 -0.0048
  275MOL0     C37009  10.012   9.293   1.883 -0.9436  0.1715 -0.5526
  275MOL0     C37010   9.912   9.339   1.993 -1.5274  0.8852 -0.4235
  275MOL0     C37011   9.770   9.320   1.940 -0.5307 -0.4925  0.4716
  275MOL0     C37012   9.662   9.320   2.055  0.1054  0.1226  0.4691
  275MOL0     C37013   9.632   9.459   2.118  0.0070  0.3777 -0.7645
  275MOL0     O37014   9.591   9.551   2.019  0.3132  1.0576 -0.0384
  275MOL0     C37015   9.465   9.529   1.959  0.0142 -0.0171 -0.4974
  275MOL0     C37016   9.444   9.580   1.835  0.4377 -0.4977 -0.2751
  275MOL0     C37017   9.332   9.574   1.763  0.8155 -0.9519  0.0864
  275MOL0     C37018   9.348   9.634   1.624  0.7413 -0.0948  0.0060
  275MOL0     C37019   9.217   9.509   1.819  1.3575  0.5291  1.2709
  275MOL0     C37020   9.081   9.506   1.756 -0.3301 -0.0379 -0.6063
  275MOL0     O37021   9.057   9.582   1.644 -0.7005 -0.2259 -0.2266
  275MOL0     C37022   8.949   9.550   1.564 -0.1319 -0.1561  0.6422
  275MOL0     C37023   8.842   9.641   1.566  1.0386 -0.5930  1.2231
  275MOL0     C37024   8.719   9.611   1.508  1.5532 -0.5959  0.2598
  275MOL0     C37025   8.704   9.477   1.460 -1.1371 -0.1134  0.8120
  275MOL0     O37026   8.583   9.442   1.409 -0.4026  0.7668  0.1066
  275MOL0     C37027   8.574   9.372   1.278 -0.4460 -0.7326 -0.7822
  275MOL0     C37028   8.445   9.325   1.229  0.6157  0.2781  0.0109
  275MOL0     C37029   8.406   9.189   1.283 -0.1988  0.3144  0.8140
  275MOL0     C37030   8.364   9.195   1.434  0.1435 -0.0502  1.0352
  275MOL0     C37031   8.328   9.062   1.494 -0.0432  0.2148  0.0274
  275MOL0     C37032   8.189   9.000   1.432 -0.0002  0.4706 -0.9394
  275MOL0     C37033   8.165   8.869   1.505  0.0648  0.6220  0.4055
  275MOL0     C37034   8.227   8.746   1.435 -0.5026  0.7996  0.2699
  275MOL0    Cl37035   8.151   8.599   1.502  0.2458  0.1417 -0.0796
  275MOL0     C37036   8.820   9.397   1.446 -0.8777 -0.6450 -0.6389
  275MOL0     C37037   8.940   9.425   1.513  0.4236  0.3041  0.4095
  275MOL0     O37038   9.005   9.431   1.815  0.4926 -0.3385  0.5111
  275MOL0     C37039   9.232   9.451   1.950 -0.1778 -0.4605  0.2875
  275MOL0     C37040   9.355   9.460   2.020 -0.0652  0.8055 -0.7550
  275MOL0     N37041  10.101   9.190   1.884 -0.5216  0.4847  0.4589
  275MOL0     N37042  10.158   9.184   1.771  0.2731  0.8224 -0.3269
  275MOL0     C37043  10.699   8.895   0.692  0.3390  0.1305  0.4359
  275MOL0     C37044  10.811   8.829   0.640 -0.1502  0.2981  0.4556
  275MOL0     C37045  11.003   8.603   0.271 -0.2001  0.9058  1.6947
  275MOL0     C37046  10.995   8.566   0.134  0.5258 -0.0996  0.3105
  275MOL0     C37047  11.100   8.533   0.060 -0.1629  0.6629  0.7949
  275MOL0     C37048  11.223   8.538   0.126  0.2847 -1.3612 -0.2612
  275MOL0     O37049  11.334   8.516   0.050  0.0378 -0.7699  0.1161
  275MOL0     C37050  11.415   8.395   0.082 -0.2208 -0.3792  0.9479
  275MOL0     C37051  11.435   8.295  -0.029 -0.5255  0.0242 -0.2248
  275MOL0     C37052  11.295   8.241  -0.075  0.7228 -0.5014 -0.7585
  275MOL0     C37053  11.293   8.135  -0.177  0.5539  0.6607  0.1708
  275MOL0     C37054  11.432   8.106  -0.229 -0.8399  0.9628  0.8918
  275MOL0     C37055  11.552   8.085  -0.243 -0.4739 -0.3423 -0.3557
  275MOL0     C37056  11.232   8.570   0.267 -0.4135  0.0092 -0.2785
  275MOL0     C37057  11.126   8.605   0.335  0.1776 -0.3212 -0.3434
  275MOL0     H37058  10.635   8.598   0.475 -1.7145  1.2002 -0.4995
  275MOL0     H37059  10.440   8.707   0.606 -0.4410  0.6792  2.1532
  275MOL0     H37060  10.570   9.053   0.842 -0.2002 -2.1703  0.0142
  275MOL0     H37061  10.484   9.117   0.697 -3.7152 -0.1792 -0.5667
  275MOL0     H37062  10.356   9.202   0.855  1.3283  0.1186 -1.2766
  275MOL0     H37063  10.264   9.048   0.837 -0.1516  0.9729 -0.0430
  275MOL0     H37064  10.307   8.985   1.050  0.8592 -1.9487 -2.6062
  275MOL0     H37065  10.483   9.023   1.042  1.4705  3.0877  0.3440
  275MOL0     H37066  10.473   9.226   1.125 -0.9811  2.4184  2.5517
  275MOL0     H37067  10.299   9.254   1.070 -1.1993 -1.1156  0.6660
  275MOL0     H37068  10.229   9.084   1.244 -1.0160  0.8056 -2.4208
  275MOL0     H37069  10.397   9.117   1.315 -3.0432  0.2044  3.2198
  275MOL0     H37070  10.356   9.318   1.351  0.7189 -2.8726 -0.5115
  275MOL0     H37071  10.187   9.328   1.285 -0.3874  2.0750  3.1172
  275MOL0     H37072  10.128   9.161   1.466  2.4549 -3.4005  0.6726
  275MOL0     H37073  10.279   9.160   1.541 -1.0709 -1.0015  0.5719
  275MOL0     H37074  10.098   9.408   1.531 -1.0679 -1.0875  1.0009
  275MOL0     H37075  10.261   9.398   1.606 -0.3453 -0.0993 -0.7661
  275MOL0     H37076   9.980   9.448   1.723  0.0518 -0.9425 -2.0727
  275MOL0     H37077   9.922   9.274   2.081 -0.2055 -0.5219 -1.5390
  275MOL0     H37078   9.939   9.434   2.039  3.1360 -1.0576  1.5681
  275MOL0     H37079   9.759   9.219   1.899  2.0613 -2.2245  3.5772
  275MOL0     H37080   9.733   9.391   1.866  0.3995 -1.4867 -1.0019
  275MOL0     H37081   9.688   9.255   2.139 -0.5854 -0.4241  0.2658
  275MOL0     H37082   9.576   9.274   2.004  0.0948  0.5246  0.1250
  275MOL0     H37083   9.724   9.497   2.164  0.8359  0.4705 -2.4252
  275MOL0     H37084   9.569   9.448   2.207 -2.8560  1.0697 -2.5768
  275MOL0     H37085   9.535   9.627   1.798 -0.2635 -0.7495 -2.4602
  275MOL0     H37086   9.443   9.683   1.599  1.2944  0.8493  3.4233
  275MOL0     H37087   9.332   9.552   1.553 -0.5862  0.6804 -0.6096
  275MOL0     H37088   9.267   9.704   1.601  1.1806  1.2090  2.1629
  275MOL0     H37089   8.856   9.735   1.617 -3.5714  2.0117 -1.6548
  275MOL0     H37090   8.640   9.685   1.502  0.5093 -1.5787  1.2978
  275MOL0     H37091   8.599   9.452   1.208  0.1385  0.8634  1.1509
  275MOL0     H37092   8.648   9.291   1.272  1.8152  1.3611 -3.4034
  275MOL0     H37093   8.369   9.402   1.247 -0.6074 -0.5046 -1.5657
  275MOL0     H37094   8.462   9.312   1.122  1.3883 -2.0741  0.3704
  275MOL0     H37095   8.488   9.116   1.278 -1.3998 -1.1723  1.7056
  275MOL0     H37096   8.324   9.157   1.217  0.7237  0.0911 -0.2669
  275MOL0     H37097   8.441   9.240   1.496  0.9343  1.4488 -0.9143
  275MOL0     H37098   8.275   9.258   1.446 -0.2938 -0.1787 -1.0754
  275MOL0     H37099   8.310   9.062   1.601 -1.7402 -3.2817 -0.1374
  275MOL0     H37100   8.411   8.993   1.476  0.8792  0.8077  1.7741
  275MOL0     H37101   8.108   9.060   1.473 -0.6313 -1.1102  0.2273
  275MOL0     H37102   8.191   8.997   1.323  1.6557  1.7890 -0.9965
  275MOL0     H37103   8.058   8.851   1.490 -0.0786  0.6608  1.3458
  275MOL0     H37104   8.185   8.872   1.612 -1.5614 -0.6502  0.7876
  275MOL0     H37105   8.332   8.773   1.449 -0.1473 -0.0009 -0.7643
  275MOL0     H37106   8.199   8.751   1.330  2.7597 -0.7466 -0.8212
  275MOL0     H37107   8.814   9.299   1.398 -1.7399 -0.4162 -1.0329
  275MOL0     H37108   9.022   9.353   1.516 -1.8797 -2.4416  2.6206
  275MOL0     H37109   9.150   9.395   1.996 -0.1507  0.3890  1.4087
  275MOL0     H37110   9.356   9.417   2.120 -1.0302 -1.6633 -1.7282
  275MOL0     H37111  10.737   8.985   0.739  1.9601 -1.1843  1.7462
  275MOL0     H37112  10.910   8.869   0.658  0.1415 -0.4827  0.6029
  275MOL0     H37113  10.895   8.571   0.092  0.3680  1.2460  0.7872
  275MOL0     H37114  11.081   8.517  -0.045 -1.8786  2.8452  0.7080
  275MOL0     H37115  11.515   8.427   0.113 -1.0872  1.3565  2.1375
  275MOL0     H37116  11.379   8.341   0.170  4.0787 -1.4700  2.2647
  275MOL0     H37117  11.493   8.210   0.009 -0.1341  0.3855 -0.0019
  275MOL0     H37118  11.496   8.330  -0.112  0.8725 -2.6538 -0.4413
  275MOL0     H37119  11.248   8.334  -0.108 -2.1753 -0.5146  2.7412
  275MOL0     H37120  11.240   8.205   0.013  1.3124 -1.4136 -0.7437
  275MOL0     H37121  11.230   8.163  -0.262 -2.8881 -2.7747  1.2965
  275MOL0     H37122  11.244   8.049  -0.131 -4.7270  2.4612 -1.3806
  275MOL0     H37123  11.659   8.082  -0.252 -0.2333  3.7406 -0.7091
  275MOL0     H37124  11.329   8.580   0.313 -0.7892 -1.2348  0.8783
  275MOL0     H37125  11.146   8.635   0.438  0.8431  4.2858 -1.5933
  276MOL0     O37126   5.110  11.479   6.280 -1.0586  0.0748  0.8008
  276MOL0     C37127   5.165  11.371   6.247  1.2365  0.1597  0.5016
  276MOL0     O37128   5.095  11.276   6.167 -0.1050 -0.1079  0.4141
  276MOL0     C37129   4.962  11.278   6.137  0.0789 -0.6081  1.0110
  276MOL0     C37130   4.896  11.153   6.159 -0.1519  0.4140  0.4492
  276MOL0     C37131   4.758  11.138   6.150  0.9394  0.0471 -0.1778
  276MOL0     C37132   4.674  11.249   6.127  0.5150 -0.2157  0.0832
  276MOL0     O37133   4.535  11.232   6.128  0.1549  0.4239 -0.0095
  276MOL0     C37134   4.458  11.327   6.058 -0.2794  0.2466 -0.8525
  276MOL0     C37135   4.309  11.287   6.074  0.2354 -0.0036  0.3155
  276MOL0     C37136   4.263  11.175   5.974  0.3631  0.5476 -0.2325
  276MOL0     C37137   4.168  11.224   5.870 -0.0353 -0.5135  0.0428
  276MOL0     C37138   4.232  11.328   5.767 -0.2533 -0.5558  0.6974
  276MOL0     C37139   4.155  11.343   5.635 -0.1037 -0.1689 -0.0117
  276MOL0     C37140   4.009  11.382   5.653 -0.6938  0.0401 -0.4191
  276MOL0     C37141   4.008  11.538   5.690  0.1497 -0.4822 -1.1457
  276MOL0     N37142   3.883  11.605   5.731 -0.2676  0.4543  0.0907
  276MOL0     C37143   3.750  11.567   5.687 -1.4814  0.2043 -0.4368
  276MOL0     C37144   3.670  11.648   5.766 -0.4864 -0.3193 -0.8845
  276MOL0     C37145   3.522  11.669   5.755  0.2080  0.3791 -0.1477
  276MOL0     C37146   3.496  11.712   5.610  0.4988  1.0652  0.2877
  276MOL0     C37147   3.590  11.820   5.539  0.2936 -0.5367  0.2359
  276MOL0     C37148   3.494  11.892   5.440 -0.1204 -0.5038 -0.6870
  276MOL0     O37149   3.573  12.001   5.393 -1.0187 -0.6709  0.3669
  276MOL0     C37150   3.523  12.097   5.312 -0.5296  0.3399  1.6312
  276MOL0     C37151   3.624  12.194   5.261 -0.3147  0.0169 -0.0996
  276MOL0     C37152   3.584  12.279   5.164  1.2827 -0.8101  0.5782
  276MOL0     C37153   3.699  12.373   5.119 -0.4505 -0.0108  0.3002
  276MOL0     C37154   3.451  12.290   5.108 -0.2304  0.9932  0.2124
  276MOL0     C37155   3.394  12.399   5.021 -0.1821  0.1255  0.6946
  276MOL0     O37156   3.267  12.381   4.983  0.9717 -0.4371  0.0079
  276MOL0     C37157   3.238  12.438   4.864  0.1700  0.8157 -0.6508
  276MOL0     C37158   3.284  12.396   4.743 -0.2153 -0.0483 -0.0449
  276MOL0     C37159   3.239  12.443   4.624 -0.4128 -0.3557 -0.0610
  276MOL0     C37160   3.138  12.538   4.626  0.3654  0.4420 -0.2036
  276MOL0     O37161   3.102  12.593   4.505  0.0912  1.0389 -0.1551
  276MOL0     C37162   3.065  12.727   4.509  0.3892  0.1367  0.1123
  276MOL0     C37163   3.053  12.757   4.360 -0.8146 -0.0517  0.3046
  276MOL0     C37164   3.011  12.904   4.343 -0.1950 -0.0483  0.1574
  276MOL0     C37165   3.096  13.010   4.425  0.8275 -0.3295 -0.1994
  276MOL0     C37166   3.038  13.144   4.388 -0.1358 -0.5962 -0.5084
  276MOL0     C37167   3.084  13.257   4.478  0.4426  0.0357 -0.4353
  276MOL0     C37168   3.028  13.401   4.444 -0.2995  0.4570  0.3682
  276MOL0     C37169   3.075  13.458   4.316 -0.1029 -0.8228  0.1936
  276MOL0    Cl37170   3.243  13.471   4.337 -0.0929 -0.2231 -0.3599
  276MOL0     C37171   3.091  12.586   4.747 -0.5638 -0.7875  0.0646
  276MOL0     C37172   3.147  12.544   4.864  0.5640  1.0456 -0.3311
  276MOL0     O37173   3.461  12.493   4.986  0.3588 -0.4490 -0.7704
  276MOL0     C37174   3.356  12.187   5.153 -0.2609  0.3212 -0.2934
  276MOL0     C37175   3.392  12.097   5.260  1.3287  0.0965 -0.5596
  276MOL0     N37176   3.754  11.710   5.863 -0.0378 -0.9196  0.0843
  276MOL0     N37177   3.877  11.688   5.843  0.4221 -0.3143 -0.2447
  276MOL0     C37178   4.747  11.371   6.100 -0.1229  0.8472  0.8322
  276MOL0     C37179   4.887  11.390   6.109  0.3510 -0.2411 -0.3057
  276MOL0     C37180   5.301  11.349   6.283  0.2505 -0.4779  0.3194
  276MOL0     C37181   5.399  11.450   6.301  1.2406 -0.8229 -0.2631
  276MOL0     C37182   5.529  11.418   6.323  0.4736  0.0639 -1.0997
  276MOL0     C37183   5.561  11.285   6.342  0.1183  0.5093 -0.4730
  276MOL0     O37184   5.695  11.255   6.360  0.6136  0.7966  0.4326
  276MOL0     C37185   5.793  11.325   6.432  0.7790 -0.5392 -0.2835
  276MOL0     C37186   5.890  11.233   6.497  0.5648 -1.1217 -0.1759
  276MOL0     C37187   5.974  11.144   6.402  0.3746  0.1756 -1.3078
  276MOL0     C37188   5.925  10.996   6.408  0.2283  0.0819 -0.7607
  276MOL0     C37189   6.014  10.916   6.325 -0.5960  1.3446 -0.6933
  276MOL0     C37190   6.076  10.835   6.260 -0.1735  0.2214  0.1851
  276MOL0     C37191   5.472  11.184   6.320 -0.0792  0.9473  0.0422
  276MOL0     C37192   5.337  11.215   6.290  0.4464  0.0263 -1.2572
  276MOL0     H37193   4.959  11.066   6.176  1.2360  1.0441 -1.1436
  276MOL0     H37194   4.715  11.039   6.140 -0.8387  0.9489 -2.5011
  276MOL0     H37195   4.466  11.427   6.102  0.1317 -1.1522  2.4967
  276MOL0     H37196   4.487  11.316   5.953  0.7963 -2.7482 -0.3405
  276MOL0     H37197   4.292  11.235   6.169  3.7657 -1.4782  0.3002
  276MOL0     H37198   4.244  11.375   6.063  0.6219  0.2058 -0.3640
  276MOL0     H37199   4.354  11.136   5.928  2.2834  2.7603  1.4297
  276MOL0     H37200   4.221  11.086   6.021  3.0743 -0.5016  0.4007
  276MOL0     H37201   4.136  11.140   5.808 -0.9124  1.9968 -3.2181
  276MOL0     H37202   4.081  11.271   5.916  1.1554 -1.4054  3.4947
  276MOL0     H37203   4.252  11.430   5.802  1.5248  0.0714 -1.9083
  276MOL0     H37204   4.333  11.289   5.753 -0.2190  0.1959 -1.5213
  276MOL0     H37205   4.202  11.413   5.564  0.3783 -0.3420  0.1321
  276MOL0     H37206   4.167  11.247   5.583 -0.6189  0.4561 -1.3339
  276MOL0     H37207   3.955  11.365   5.560 -0.2013 -0.8894 -0.5465
  276MOL0     H37208   3.972  11.311   5.727  0.8671  1.1149  1.5252
  276MOL0     H37209   4.044  11.588   5.600  0.2946  0.5706 -0.5133
  276MOL0     H37210   4.073  11.557   5.776 -0.1402 -0.0322 -1.0251
  276MOL0     H37211   3.710  11.501   5.611 -0.1703 -0.4040 -0.6290
  276MOL0     H37212   3.473  11.572   5.770 -1.6871  0.7293 -3.0504
  276MOL0     H37213   3.492  11.749   5.822 -1.2103 -0.2919  0.0752
  276MOL0     H37214   3.402  11.767   5.624  0.9915  2.3067 -0.9782
  276MOL0     H37215   3.493  11.618   5.555  1.8931 -0.5105  2.6857
  276MOL0     H37216   3.665  11.774   5.474 -0.4832 -0.0288 -1.0380
  276MOL0     H37217   3.637  11.891   5.608  0.4241 -0.7267  0.3428
  276MOL0     H37218   3.423  11.952   5.497  0.3842 -1.2733  0.8028
  276MOL0     H37219   3.449  11.821   5.370 -1.9725  1.9152 -2.1031
  276MOL0     H37220   3.725  12.184   5.298  0.5917  1.7340 -1.9567
  276MOL0     H37221   3.798  12.327   5.132 -1.3203 -2.0507 -0.0077
  276MOL0     H37222   3.689  12.397   5.013 -2.3337 -1.7566  0.0315
  276MOL0     H37223   3.685  12.461   5.183 -4.3181  0.5710 -1.0897
  276MOL0     H37224   3.354  12.313   4.742  3.5826  2.8609  1.0939
  276MOL0     H37225   3.284  12.428   4.526  1.2633 -0.4442  0.6988
  276MOL0     H37226   2.962  12.731   4.546  0.8832 -1.5990  1.8726
  276MOL0     H37227   3.143  12.795   4.544 -0.8405  2.2103 -1.0167
  276MOL0     H37228   3.149  12.758   4.307  0.2040  3.0196  1.9905
  276MOL0     H37229   2.987  12.680   4.320 -1.1370 -0.3355  1.3586
  276MOL0     H37230   2.905  12.907   4.368 -0.2364  0.5079 -0.0819
  276MOL0     H37231   3.011  12.929   4.236 -2.1377  0.1793  0.1809
  276MOL0     H37232   3.098  12.991   4.532 -3.8843  0.3987  0.2390
  276MOL0     H37233   3.201  13.004   4.396  1.0547 -1.5658  0.8396
  276MOL0     H37234   2.929  13.142   4.380 -0.7231  2.8226  3.3094
  276MOL0     H37235   3.074  13.163   4.287 -2.7334 -0.2192 -1.4415
  276MOL0     H37236   3.051  13.249   4.582  1.1305  0.9021 -0.1376
  276MOL0     H37237   3.193  13.262   4.470  0.8695  0.8047  3.5825
  276MOL0     H37238   3.053  13.471   4.524 -0.4476  1.8690 -0.7777
  276MOL0     H37239   2.919  13.388   4.445 -0.1777 -0.6256  0.4439
  276MOL0     H37240   3.029  13.553   4.284 -1.8595 -1.3393  1.0532
  276MOL0     H37241   3.055  13.386   4.236 -0.3008  0.1008 -0.6072
  276MOL0     H37242   3.025  12.670   4.765  2.5048  2.1004 -1.2315
  276MOL0     H37243   3.103  12.587   4.954 -1.0667 -0.6381 -0.2571
  276MOL0     H37244   3.253  12.206   5.125 -0.3064  1.5104  0.5837
  276MOL0     H37245   3.316  12.035   5.307  2.3145  0.2027  1.2535
  276MOL0     H37246   4.689  11.460   6.077  2.2813  2.2305 -0.2513
  276MOL0     H37247   4.924  11.492   6.107  3.2999 -1.2345 -0.2296
  276MOL0     H37248   5.375  11.555   6.298  3.5503 -0.2448 -0.9110
  276MOL0     H37249   5.603  11.497   6.323  0.5535 -0.0097 -0.9208
  276MOL0     H37250   5.848  11.401   6.375  1.1103  0.9029  1.8620
  276MOL0     H37251   5.750  11.380   6.516  2.1220  3.3498 -1.8852
  276MOL0     H37252   5.847  11.172   6.577  1.5870 -0.9755  0.5080
  276MOL0     H37253   5.955  11.295   6.560  2.1888  1.5357 -4.1161
  276MOL0     H37254   6.079  11.137   6.432  0.7691 -6.1019 -2.7606
  276MOL0     H37255   5.970  11.186   6.301 -0.7095 -1.0113 -1.7876
  276MOL0     H37256   5.826  10.989   6.362 -0.5172 -0.4103  0.8458
  276MOL0     H37257   5.930  10.965   6.513  0.4439  0.9554 -0.5039
  276MOL0     H37258   6.137  10.764   6.207  0.4184  1.5401 -0.9581
  276MOL0     H37259   5.498  11.079   6.320 -3.5564 -0.0720 -2.2204
  276MOL0     H37260   5.263  11.140   6.264 -3.0325  2.7500 -0.0569
  277MOL0     O37261   2.327  10.429   0.766 -0.1248  0.3188 -0.3307
  277MOL0     C37262   2.421  10.437   0.689 -0.0960  0.2880  0.2006
  277MOL0     O37263   2.442  10.527   0.585  0.1233 -0.4495  0.4760
  277MOL0     C37264   2.370  10.641   0.567 -0.3785  0.3179  0.4138
  277MOL0     C37265   2.228  10.633   0.564  0.3672 -0.6528  0.4805
  277MOL0     C37266   2.147  10.749   0.547  0.1772  0.0083 -1.4191
  277MOL0     C37267   2.213  10.880   0.549 -0.0111 -0.3759 -0.9501
  277MOL0     O37268   2.142  11.000   0.546 -0.4488  0.4691  0.8122
  277MOL0     C37269   2.005  11.006   0.522 -0.5871 -0.0709  0.6665
  277MOL0     C37270   1.970  11.156   0.484 -0.0125  1.2000  0.8641
  277MOL0     C37271   1.831  11.166   0.421  0.1462 -0.4603 -0.5242
  277MOL0     C37272   1.809  11.315   0.423 -0.3591 -0.4446  0.5130
  277MOL0     C37273   1.695  11.356   0.329 -0.2770  0.4921  0.2200
  277MOL0     C37274   1.738  11.384   0.185  0.8246  0.1173 -0.6642
  277MOL0     C37275   1.648  11.319   0.080 -0.2015  0.8802  0.3995
  277MOL0     C37276   1.670  11.161   0.091  0.3412 -0.2639 -0.1773
  277MOL0     N37277   1.568  11.084   0.015  0.0379 -0.4594  0.3563
  277MOL0     C37278   1.518  11.126  -0.112  0.1693 -0.5790  0.4924
  277MOL0     C37279   1.414  11.034  -0.130  0.7756 -1.1269  0.2732
  277MOL0     C37280   1.307  11.025  -0.243  0.1918  0.0701  0.3732
  277MOL0     C37281   1.369  10.955  -0.371  0.7286 -0.3772 -0.6708
  277MOL0     C37282   1.264  10.975  -0.486  0.3225  0.1681  0.2208
  277MOL0     C37283   1.168  10.854  -0.488 -0.8800  0.0337 -0.0481
  277MOL0     O37284   1.220  10.714  -0.489  0.1359 -0.9358 -0.2250
  277MOL0     C37285   1.246  10.660  -0.607 -0.3830  0.3064  0.0489
  277MOL0     C37286   1.368  10.658  -0.674  0.4465 -0.0924  0.1137
  277MOL0     C37287   1.389  10.598  -0.796 -0.4252 -0.0830  0.5915
  277MOL0     C37288   1.518  10.628  -0.860  0.7383 -0.0663 -0.0703
  277MOL0     C37289   1.287  10.509  -0.849  1.1274 -0.9908 -0.5956
  277MOL0     C37290   1.307  10.404  -0.951  0.5803 -0.0953 -0.0141
  277MOL0     O37291   1.192  10.336  -0.982  0.0440 -0.1229 -0.0751
  277MOL0     C37292   1.190  10.255  -1.088  0.5407  0.9420  0.5494
  277MOL0     C37293   1.176  10.117  -1.066 -0.3524  1.0381  0.1303
  277MOL0     C37294   1.170  10.028  -1.171 -0.0496 -1.1214  0.7629
  277MOL0     C37295   1.194  10.077  -1.299  0.4959  0.0971 -0.3570
  277MOL0     O37296   1.188   9.999  -1.413  0.3522  0.0161 -0.5519
  277MOL0     C37297   1.138   9.864  -1.410 -0.0836 -0.0888 -0.4280
  277MOL0     C37298   1.097   9.828  -1.555  0.1562  0.1197 -1.0261
  277MOL0     C37299   0.950   9.858  -1.582  0.3574  0.1414 -0.4219
  277MOL0     C37300   0.899   9.806  -1.711 -0.1703  0.5258 -0.2310
  277MOL0     C37301   0.831   9.668  -1.706  0.5293  0.4499  0.9190
  277MOL0     C37302   0.909   9.552  -1.625  0.6626  0.4791 -0.1194
  277MOL0     C37303   0.836   9.413  -1.630 -0.4438  0.1621 -0.0204
  277MOL0     C37304   0.904   9.306  -1.553 -0.4203 -0.6586  0.3802
  277MOL0    Cl37305   0.888   9.338  -1.385 -0.2310 -0.3199 -0.1858
  277MOL0     C37306   1.219  10.210  -1.324 -0.2888  0.1777 -0.4023
  277MOL0     C37307   1.209  10.308  -1.221  0.5043  0.3130 -0.0812
  277MOL0     O37308   1.417  10.388  -1.008  1.0041  0.0180 -0.3531
  277MOL0     C37309   1.162  10.514  -0.784  0.1711  1.0380 -0.6310
  277MOL0     C37310   1.144  10.586  -0.664 -0.1754 -0.1211  0.0928
  277MOL0     N37311   1.402  10.957  -0.023 -0.2144  0.5049  0.4681
  277MOL0     N37312   1.495  10.976   0.062 -0.3110  0.3303 -0.2714
  277MOL0     C37313   2.350  10.886   0.545  0.0213 -0.0496  0.8870
  277MOL0     C37314   2.427  10.769   0.553 -0.0913  0.2538  0.3258
  277MOL0     C37315   2.531  10.341   0.699 -0.5638 -0.5945 -0.2272
  277MOL0     C37316   2.633  10.340   0.602 -0.4103  0.0682 -0.3237
  277MOL0     C37317   2.736  10.248   0.622 -0.3692  0.1698  0.0427
  277MOL0     C37318   2.735  10.155   0.726 -0.4152  0.1932  0.6482
  277MOL0     O37319   2.833  10.063   0.735 -0.8352 -0.4677  0.0939
  277MOL0     C37320   2.852   9.984   0.854 -0.1057  0.1451 -0.2343
  277MOL0     C37321   2.984   9.909   0.841  0.2795 -0.4833 -0.3681
  277MOL0     C37322   2.970   9.770   0.795  0.4709  0.1584 -0.1977
  277MOL0     C37323   3.104   9.700   0.783  0.1304 -0.0967 -0.1080
  277MOL0     C37324   3.099   9.551   0.780  0.0458  0.3621  0.9056
  277MOL0     C37325   3.108   9.427   0.773 -0.9065 -0.8814 -0.5592
  277MOL0     C37326   2.636  10.162   0.826 -1.0607  0.3355 -0.6713
  277MOL0     C37327   2.536  10.254   0.809 -0.1352 -0.5071 -0.3293
  277MOL0     H37328   2.174  10.539   0.570  0.4234 -0.7341 -0.2077
  277MOL0     H37329   2.039  10.743   0.538 -0.3474  4.1667 -0.1151
  277MOL0     H37330   1.977  10.939   0.440  3.6423 -0.7710 -0.4158
  277MOL0     H37331   1.960  10.980   0.619  2.0550  0.4014  2.0972
  277MOL0     H37332   1.983  11.224   0.568  3.2242  1.0951  0.5834
  277MOL0     H37333   2.038  11.179   0.402 -0.8797 -0.6687 -0.4715
  277MOL0     H37334   1.847  11.128   0.319  1.4911  0.8186 -0.8335
  277MOL0     H37335   1.755  11.106   0.472 -0.7475  1.1887  0.1460
  277MOL0     H37336   1.769  11.334   0.524 -1.7659 -0.4066 -0.0278
  277MOL0     H37337   1.887  11.388   0.402 -1.7192  0.5225 -1.5085
  277MOL0     H37338   1.618  11.278   0.331 -3.4984  3.2758 -2.6869
  277MOL0     H37339   1.658  11.445   0.380  0.2397 -0.2773  2.0418
  277MOL0     H37340   1.732  11.492   0.167 -3.5391 -0.1258 -1.8129
  277MOL0     H37341   1.842  11.354   0.168  0.2686 -1.7655 -1.0289
  277MOL0     H37342   1.540  11.337   0.083 -1.2426 -2.0559 -5.2708
  277MOL0     H37343   1.674  11.355  -0.021  0.9053  2.8281  1.3215
  277MOL0     H37344   1.643  11.130   0.193 -2.1293 -0.4201 -0.8069
  277MOL0     H37345   1.771  11.124   0.073  0.7425 -1.0000  2.9528
  277MOL0     H37346   1.551  11.198  -0.185  1.2768 -1.6111 -0.0591
  277MOL0     H37347   1.212  10.975  -0.223 -1.4751  3.6981  2.3213
  277MOL0     H37348   1.275  11.128  -0.258  1.2999  0.2463 -1.0184
  277MOL0     H37349   1.382  10.848  -0.358 -4.0796 -1.0869  0.4852
  277MOL0     H37350   1.464  11.002  -0.397  1.4374 -2.1463 -1.3665
  277MOL0     H37351   1.316  10.966  -0.581  0.9650 -0.9233  0.6510
  277MOL0     H37352   1.217  11.074  -0.480 -2.0764 -0.6069 -3.0140
  277MOL0     H37353   1.111  10.864  -0.581  2.2252  1.4977 -1.9823
  277MOL0     H37354   1.108  10.855  -0.397 -1.0979 -2.8137 -0.0617
  277MOL0     H37355   1.443  10.712  -0.618 -0.0533 -0.5317  1.2646
  277MOL0     H37356   1.569  10.532  -0.873 -1.3250 -1.4453  1.4212
  277MOL0     H37357   1.504  10.670  -0.960  0.7657 -0.4986 -0.2576
  277MOL0     H37358   1.585  10.683  -0.793 -0.1581  1.2057 -0.1899
  277MOL0     H37359   1.174  10.080  -0.964  4.3315 -0.4626 -0.0981
  277MOL0     H37360   1.173   9.920  -1.160 -0.6118 -1.4418 -1.6687
  277MOL0     H37361   1.216   9.794  -1.379  0.6520  0.6445 -0.5841
  277MOL0     H37362   1.051   9.848  -1.345 -0.7016 -5.5047 -2.1605
  277MOL0     H37363   1.169   9.877  -1.621 -0.3350  0.8318 -1.0493
  277MOL0     H37364   1.113   9.723  -1.580  1.8571  0.1736 -0.2938
  277MOL0     H37365   0.944   9.968  -1.583  1.0965  0.3435 -5.3712
  277MOL0     H37366   0.897   9.816  -1.496  0.7449 -3.2272 -1.7101
  277MOL0     H37367   0.837   9.883  -1.758  0.0736  0.3409 -0.8608
  277MOL0     H37368   0.988   9.807  -1.774  0.7071  0.5595  0.9725
  277MOL0     H37369   0.820   9.648  -1.813  1.4031  4.3062 -0.0682
  277MOL0     H37370   0.732   9.686  -1.663  1.3444  0.0217  3.0962
  277MOL0     H37371   1.009   9.528  -1.661 -1.0888 -1.6313 -4.2661
  277MOL0     H37372   0.907   9.594  -1.523 -1.9347  0.2048  0.0169
  277MOL0     H37373   0.849   9.380  -1.734 -1.6890 -1.3473  0.2634
  277MOL0     H37374   0.730   9.420  -1.602  0.2766  3.2783  2.5377
  277MOL0     H37375   1.004   9.297  -1.596 -1.3091 -2.1507 -1.5032
  277MOL0     H37376   0.849   9.214  -1.574  0.8887 -1.4387  0.2908
  277MOL0     H37377   1.237  10.248  -1.424 -1.2249  1.5951 -0.0643
  277MOL0     H37378   1.214  10.416  -1.234  0.0512  0.7474  2.6944
  277MOL0     H37379   1.078  10.449  -0.806  0.2066  1.4115 -1.9736
  277MOL0     H37380   1.050  10.577  -0.610  1.0091  3.3362  3.1207
  277MOL0     H37381   2.389  10.984   0.518 -1.3283 -0.9540 -6.0597
  277MOL0     H37382   2.536  10.769   0.554 -0.0787  1.5818  0.7339
  277MOL0     H37383   2.630  10.405   0.515 -3.5311  2.6722  1.5050
  277MOL0     H37384   2.825  10.239   0.560 -0.0510 -0.2400  0.5460
  277MOL0     H37385   2.856  10.047   0.944  1.8533  0.3836 -0.4422
  277MOL0     H37386   2.778   9.905   0.866  1.1327 -0.8198  1.7051
  277MOL0     H37387   3.018   9.897   0.945 -1.4191 -4.9404 -0.1122
  277MOL0     H37388   3.048   9.963   0.771  1.2537 -2.9110 -1.4648
  277MOL0     H37389   2.912   9.759   0.703 -0.5759 -1.6676  0.6345
  277MOL0     H37390   2.901   9.723   0.866 -1.0843  0.4344 -1.4787
  277MOL0     H37391   3.184   9.735   0.849  0.0491 -2.5641  1.4137
  277MOL0     H37392   3.140   9.729   0.683 -3.1523 -0.4249 -1.5073
  277MOL0     H37393   3.107   9.320   0.769 -2.7748 -1.1364  2.7622
  277MOL0     H37394   2.641  10.093   0.910 -0.9307  0.9001 -0.2084
  277MOL0     H37395   2.450  10.252   0.875 -0.7218 -0.9809 -1.0967
  278MOL0     O37396   9.735   8.703   5.650 -0.2557 -0.1141  0.9350
  278MOL0     C37397   9.849   8.749   5.666 -0.0202 -1.1688  0.3064
  278MOL0     O37398   9.917   8.819   5.571  0.2122 -1.2897  0.1360
  278MOL0     C37399   9.870   8.822   5.436  1.1059 -0.0714 -0.7101
  278MOL0     C37400   9.843   8.707   5.361 -0.7168 -0.1981  0.7698
  278MOL0     C37401   9.813   8.717   5.229  0.4017 -0.2621 -0.5179
  278MOL0     C37402   9.768   8.832   5.166 -0.0736 -0.7740  0.9445
  278MOL0     O37403   9.738   8.859   5.038 -0.1091  0.9872  0.7968
  278MOL0     C37404   9.657   8.766   4.975  0.1085  0.1653  0.1942
  278MOL0     C37405   9.603   8.838   4.856 -0.4031 -0.1480 -0.3781
  278MOL0     C37406   9.566   8.989   4.874  0.3665  0.5078 -0.0275
  278MOL0     C37407   9.524   9.060   4.741 -0.4053 -0.4509 -0.1109
  278MOL0     C37408   9.532   9.213   4.759  0.7546 -0.5041  0.6221
  278MOL0     C37409   9.560   9.271   4.614  0.4429 -0.2544 -0.3608
  278MOL0     C37410   9.636   9.412   4.621  0.0080  0.7594  0.1186
  278MOL0     C37411   9.574   9.531   4.545  0.5131  0.4398  0.7176
  278MOL0     N37412   9.614   9.521   4.402  0.4375 -0.4907  0.9761
  278MOL0     C37413   9.578   9.428   4.310  0.5587 -0.4744 -0.3879
  278MOL0     C37414   9.654   9.455   4.203 -0.0179 -0.9428 -0.6755
  278MOL0     C37415   9.657   9.396   4.062  1.0462  0.2648 -0.1037
  278MOL0     C37416   9.690   9.487   3.942 -1.0367  0.1224 -0.3096
  278MOL0     C37417   9.655   9.422   3.805  0.5245  0.1535  0.3250
  278MOL0     C37418   9.732   9.293   3.780 -0.3756  1.6333 -0.6864
  278MOL0     O37419   9.670   9.208   3.684  0.4210  0.1760  0.2370
  278MOL0     C37420   9.731   9.105   3.618 -0.1672  0.1346 -1.1995
  278MOL0     C37421   9.662   9.029   3.521  0.3382  0.2381 -0.1731
  278MOL0     C37422   9.722   8.919   3.459  0.7471  1.1498  0.5462
  278MOL0     C37423   9.632   8.825   3.381 -0.2188  0.1424 -0.1937
  278MOL0     C37424   9.862   8.892   3.480  0.4725 -0.3498  0.0320
  278MOL0     C37425   9.945   8.784   3.418 -0.0711 -0.7272  0.1681
  278MOL0     O37426   9.907   8.748   3.293  0.1537  0.5046 -0.5868
  278MOL0     C37427   9.973   8.650   3.218  0.6613  0.7944  0.8348
  278MOL0     C37428  10.093   8.685   3.150 -0.6811  0.5488 -0.3867
  278MOL0     C37429  10.159   8.593   3.064  0.4567 -0.2654  0.2914
  278MOL0     C37430  10.114   8.465   3.060  0.0949  0.8348 -0.1153
  278MOL0     O37431  10.202   8.375   3.008 -0.1223 -0.5049 -0.4675
  278MOL0     C37432  10.146   8.282   2.915 -1.0307 -0.2213  0.0954
  278MOL0     C37433  10.229   8.151   2.925  0.7067 -0.0968 -0.1716
  278MOL0     C37434  10.183   8.061   2.810 -0.7723 -0.3661  0.1276
  278MOL0     C37435  10.246   7.919   2.839  0.5735 -0.3558  0.5491
  278MOL0     C37436  10.216   7.823   2.717  0.5833 -0.0630  0.3918
  278MOL0     C37437  10.275   7.887   2.582  0.5344 -0.4740 -0.1682
  278MOL0     C37438  10.318   7.784   2.486  0.3149 -0.1116  0.0533
  278MOL0     C37439  10.369   7.836   2.349  0.3056 -0.7839 -0.6951
  278MOL0    Cl37440  10.214   7.853   2.267 -0.2233 -0.1129  0.1578
  278MOL0     C37441   9.995   8.427   3.118 -0.4138  0.6880  0.5631
  278MOL0     C37442   9.911   8.524   3.187 -0.2304  0.4248  0.8293
  278MOL0     O37443  10.038   8.744   3.480 -0.5161  0.4764  0.2919
  278MOL0     C37444   9.918   8.969   3.582  0.7050  0.1194  0.6444
  278MOL0     C37445   9.852   9.058   3.652 -0.6369  0.4581 -0.0947
  278MOL0     N37446   9.736   9.556   4.233 -0.1479  0.0091  0.0149
  278MOL0     N37447   9.711   9.596   4.353 -0.4962 -0.3545 -0.1340
  278MOL0     C37448   9.788   8.948   5.247 -0.5290 -0.6238 -1.1978
  278MOL0     C37449   9.839   8.945   5.378 -0.4360  0.2457 -0.0371
  278MOL0     C37450   9.911   8.714   5.792  0.0219 -0.3430  0.0740
  278MOL0     C37451  10.001   8.805   5.842 -0.2204  0.9804 -0.3024
  278MOL0     C37452  10.067   8.781   5.964 -0.0416  1.0392 -1.0975
  278MOL0     C37453  10.049   8.660   6.030  0.2163  0.5267 -0.9182
  278MOL0     O37454  10.118   8.641   6.143 -0.9479  0.8592 -0.3311
  278MOL0     C37455  10.054   8.608   6.264  0.2415 -0.1167  0.4211
  278MOL0     C37456  10.157   8.591   6.374  0.9765 -0.2550  1.5978
  278MOL0     C37457  10.107   8.496   6.476  0.0958  0.3980  0.1613
  278MOL0     C37458  10.007   8.561   6.585 -0.5345 -0.4741  0.7089
  278MOL0     C37459  10.076   8.670   6.655  0.3713 -0.3497 -0.4737
  278MOL0     C37460  10.133   8.762   6.712 -0.0309 -0.3594  0.1726
  278MOL0     C37461   9.961   8.564   5.981 -0.7826 -0.0654 -0.8328
  278MOL0     C37462   9.882   8.600   5.868  0.1581  0.1624  0.6096
  278MOL0     H37463   9.870   8.608   5.395  3.7772 -0.4380 -2.5500
  278MOL0     H37464   9.815   8.628   5.166 -0.0830 -1.2864  0.8783
  278MOL0     H37465   9.721   8.685   4.941 -0.0925 -0.4580  1.2335
  278MOL0     H37466   9.568   8.731   5.029 -0.2418  0.4481 -0.1894
  278MOL0     H37467   9.680   8.831   4.778  0.4210  1.2460  0.2646
  278MOL0     H37468   9.509   8.790   4.829 -2.1789  1.1882  2.8915
  278MOL0     H37469   9.495   9.011   4.954 -0.0944 -0.0154 -0.2852
  278MOL0     H37470   9.657   9.047   4.894  1.0010  1.1831 -3.9883
  278MOL0     H37471   9.595   9.033   4.663 -2.2648  1.9651 -2.8505
  278MOL0     H37472   9.431   9.026   4.696 -0.1758 -0.3700 -0.6590
  278MOL0     H37473   9.436   9.254   4.794  1.1773 -1.1717  2.7170
  278MOL0     H37474   9.608   9.250   4.828  0.2632  0.2953  0.7563
  278MOL0     H37475   9.600   9.203   4.539 -0.0784 -1.9483  0.8247
  278MOL0     H37476   9.465   9.293   4.564  1.3582 -0.3103 -2.1755
  278MOL0     H37477   9.628   9.453   4.722  0.9624  0.1099  0.4681
  278MOL0     H37478   9.741   9.392   4.597 -0.5627 -1.1920 -1.0009
  278MOL0     H37479   9.622   9.620   4.588 -1.4641  1.2018  1.4459
  278MOL0     H37480   9.465   9.539   4.552  0.4423 -0.5727  0.9277
  278MOL0     H37481   9.500   9.352   4.311  0.5519 -0.5109  2.0286
  278MOL0     H37482   9.735   9.320   4.071  1.5191  0.8655  1.3027
  278MOL0     H37483   9.557   9.353   4.050 -0.3570  3.1220  0.4958
  278MOL0     H37484   9.795   9.517   3.949 -1.1643  0.8277 -1.2124
  278MOL0     H37485   9.633   9.581   3.950 -2.9915 -1.0766  0.6462
  278MOL0     H37486   9.695   9.484   3.724  1.8457 -1.8922 -0.6687
  278MOL0     H37487   9.548   9.411   3.788 -0.2057  6.5227 -1.7286
  278MOL0     H37488   9.745   9.232   3.870 -4.2536  2.2246  0.4316
  278MOL0     H37489   9.836   9.309   3.748  0.1931 -0.9132 -0.3455
  278MOL0     H37490   9.561   9.068   3.511  0.4272  0.6929  0.6531
  278MOL0     H37491   9.622   8.863   3.279  0.0873  3.6600  0.9541
  278MOL0     H37492   9.667   8.721   3.377 -1.9938 -0.5060  0.2086
  278MOL0     H37493   9.534   8.822   3.428 -0.1901  0.9587 -0.0685
  278MOL0     H37494  10.142   8.777   3.182 -1.9276  1.5141 -1.1364
  278MOL0     H37495  10.253   8.629   3.025 -0.5849 -0.2163 -2.4317
  278MOL0     H37496  10.043   8.247   2.930 -0.1047 -2.8776  0.7835
  278MOL0     H37497  10.157   8.333   2.820  0.2708 -3.2102 -1.5041
  278MOL0     H37498  10.334   8.180   2.919  1.0904 -0.6759  2.4195
  278MOL0     H37499  10.219   8.100   3.022  1.2211  1.5429  0.7738
  278MOL0     H37500  10.214   8.111   2.717 -4.1076  2.4944  0.3466
  278MOL0     H37501  10.074   8.060   2.798 -0.8480  0.2458  0.7451
  278MOL0     H37502  10.355   7.925   2.840  0.7527  0.1496 -3.5552
  278MOL0     H37503  10.205   7.873   2.930  2.6506  1.9002  2.7707
  278MOL0     H37504  10.111   7.799   2.700  0.4322  0.5994  0.3607
  278MOL0     H37505  10.270   7.729   2.735  2.8447  0.6247 -2.1514
  278MOL0     H37506  10.193   7.955   2.553  1.6834  0.9097 -0.2677
  278MOL0     H37507  10.364   7.950   2.590  0.8375 -1.0103  0.7130
  278MOL0     H37508  10.237   7.711   2.472 -0.7399  0.2085  3.6511
  278MOL0     H37509  10.399   7.728   2.533  0.6674 -0.0018 -0.4088
  278MOL0     H37510  10.420   7.748   2.309  2.6475 -0.7921  2.0240
  278MOL0     H37511  10.432   7.925   2.344 -2.7070  1.7302  1.4795
  278MOL0     H37512   9.960   8.326   3.104  0.7786  0.1196  1.5169
  278MOL0     H37513   9.814   8.502   3.230  0.1391  0.3760  1.6509
  278MOL0     H37514  10.025   8.968   3.601  0.6086 -0.3794  1.2308
  278MOL0     H37515   9.908   9.099   3.736 -0.7287  0.7555 -0.1797
  278MOL0     H37516   9.776   9.051   5.214  1.9786  0.2022  0.2159
  278MOL0     H37517   9.858   9.042   5.422 -3.7264  1.9520 -1.9139
  278MOL0     H37518  10.022   8.898   5.790  0.1057 -0.1438 -2.3162
  278MOL0     H37519  10.137   8.847   6.014  0.9966 -0.4159 -0.5303
  278MOL0     H37520   9.993   8.690   6.303 -0.9169 -0.9497  0.4083
  278MOL0     H37521   9.983   8.525   6.252  1.8297 -1.3400 -0.9756
  278MOL0     H37522  10.170   8.690   6.418  2.3423  0.5647 -0.5284
  278MOL0     H37523  10.250   8.555   6.329  1.8371  4.6576 -1.2968
  278MOL0     H37524  10.197   8.454   6.520  0.7936  1.9807  0.3385
  278MOL0     H37525  10.047   8.417   6.429  1.1972 -0.5707  0.3561
  278MOL0     H37526   9.968   8.486   6.654 -1.8678  0.4009  0.9428
  278MOL0     H37527   9.917   8.594   6.533 -0.1211  2.6391  1.7580
  278MOL0     H37528  10.183   8.844   6.761  1.3429 -2.5485  2.6963
  278MOL0     H37529   9.936   8.472   6.032  1.7478 -2.2305 -3.1851
  278MOL0     H37530   9.803   8.535   5.832 -1.6747  2.6051 -0.0623
  279MOL0     O37531   4.600   5.923   6.486 -0.2164 -0.1382 -0.3476
  279MOL0     C37532   4.569   5.990   6.384  0.6406  0.7745 -0.3297
  279MOL0     O37533   4.603   5.947   6.259 -0.7620  0.2362 -1.2345
  279MOL0     C37534   4.654   5.817   6.249  1.1727 -1.1520  0.1210
  279MOL0     C37535   4.569   5.706   6.273  0.9007  0.4030  0.6239
  279MOL0     C37536   4.614   5.578   6.253  0.4114 -0.2769 -0.1361
  279MOL0     C37537   4.747   5.555   6.228 -0.3258 -0.1839 -0.7136
  279MOL0     O37538   4.801   5.432   6.222 -0.4661 -0.3178 -0.1391
  279MOL0     C37539   4.733   5.337   6.129 -0.7713 -0.3552  0.0499
  279MOL0     C37540   4.831   5.237   6.074 -0.4366 -0.3802 -0.7748
  279MOL0     C37541   4.908   5.284   5.950 -0.1017 -0.8389  0.3740
  279MOL0     C37542   5.008   5.396   5.971 -0.0287  0.3236 -0.7299
  279MOL0     C37543   5.114   5.382   5.859  0.1627  0.1379  0.5050
  279MOL0     C37544   5.245   5.439   5.904 -0.5852 -0.6239  0.5626
  279MOL0     C37545   5.346   5.434   5.788 -0.1125 -0.3250 -0.5105
  279MOL0     C37546   5.495   5.452   5.823 -0.6609  0.2082 -0.2795
  279MOL0     N37547   5.521   5.598   5.833 -0.3374  0.9604 -0.0541
  279MOL0     C37548   5.608   5.651   5.924  0.5679  1.1967 -0.0203
  279MOL0     C37549   5.619   5.778   5.899 -1.3914  0.2463  0.3179
  279MOL0     C37550   5.702   5.868   5.979  0.4260 -0.0261 -0.5508
  279MOL0     C37551   5.601   5.939   6.071  0.7335  1.0741 -0.0989
  279MOL0     C37552   5.654   6.039   6.175  0.0235 -0.1292  0.2622
  279MOL0     C37553   5.530   6.090   6.254 -0.9081  0.3974 -0.2306
  279MOL0     O37554   5.449   6.185   6.186  0.7376 -0.0875  0.1598
  279MOL0     C37555   5.376   6.266   6.273 -0.0362 -0.4848 -1.0849
  279MOL0     C37556   5.331   6.224   6.403 -0.5457  0.4959  0.1065
  279MOL0     C37557   5.265   6.313   6.486  0.1431  1.3522 -1.0434
  279MOL0     C37558   5.215   6.244   6.618  0.6283 -0.5916 -0.2478
  279MOL0     C37559   5.228   6.442   6.443  0.2158  0.5414  0.5242
  279MOL0     C37560   5.161   6.544   6.532 -0.2839  0.8375  0.7265
  279MOL0     O37561   5.137   6.666   6.474 -0.6515 -0.5367 -0.2617
  279MOL0     C37562   5.111   6.785   6.548  0.0660  0.1973 -0.4046
  279MOL0     C37563   5.060   6.888   6.473  0.2226  0.3164  0.2388
  279MOL0     C37564   5.061   7.022   6.521 -0.4638  0.8757 -0.8021
  279MOL0     C37565   5.071   7.044   6.653 -0.0559 -0.0847 -0.9785
  279MOL0     O37566   5.037   7.174   6.680 -0.2047  0.3312 -0.0470
  279MOL0     C37567   5.002   7.217   6.804  0.6843  0.6539  0.0563
  279MOL0     C37568   4.920   7.345   6.814  0.5067 -0.3004  0.0012
  279MOL0     C37569   4.904   7.402   6.956 -0.0272  0.0243  0.0016
  279MOL0     C37570   4.793   7.513   6.953  0.9336 -0.0602 -0.3963
  279MOL0     C37571   4.738   7.544   7.088  0.4491 -0.8211  1.1402
  279MOL0     C37572   4.831   7.626   7.170  0.3677 -0.7007 -0.2170
  279MOL0     C37573   4.763   7.671   7.305  1.3127 -0.6721  0.0390
  279MOL0     C37574   4.793   7.805   7.377 -0.8365  0.0708 -0.0992
  279MOL0    Cl37575   4.958   7.777   7.439  0.4908 -0.1436 -0.0316
  279MOL0     C37576   5.112   6.939   6.742  0.0609 -0.6546  0.3956
  279MOL0     C37577   5.127   6.806   6.687  0.2040 -0.2515  1.2161
  279MOL0     O37578   5.147   6.513   6.650 -0.1689 -0.3150 -0.2762
  279MOL0     C37579   5.257   6.478   6.315  0.4153 -0.3210 -0.4496
  279MOL0     C37580   5.322   6.389   6.229 -0.0894 -0.5039 -0.3813
  279MOL0     N37581   5.530   5.816   5.786 -0.5361 -0.1699  0.8665
  279MOL0     N37582   5.478   5.701   5.753  0.0724 -0.2076 -0.6864
  279MOL0     C37583   4.833   5.662   6.213  0.5902  1.2762  0.6623
  279MOL0     C37584   4.790   5.789   6.217 -0.1775  0.3779 -0.8182
  279MOL0     C37585   4.490   6.120   6.400 -0.8077  0.2122 -0.8431
  279MOL0     C37586   4.498   6.222   6.305  0.6277  0.3652  0.6269
  279MOL0     C37587   4.427   6.343   6.328  0.0044 -0.5617 -0.5023
  279MOL0     C37588   4.342   6.358   6.435  0.6165  0.2709 -0.5929
  279MOL0     O37589   4.257   6.465   6.445  0.0411  0.4194  0.7706
  279MOL0     C37590   4.253   6.543   6.566 -0.2381 -0.3239 -0.5185
  279MOL0     C37591   4.150   6.662   6.547 -0.5509  1.4600  0.6834
  279MOL0     C37592   4.194   6.798   6.492 -0.5381  0.2750  0.1949
  279MOL0     C37593   4.262   6.873   6.601 -0.2322 -0.4250 -1.0443
  279MOL0     C37594   4.296   6.998   6.536  0.0586  0.3361 -1.2165
  279MOL0     C37595   4.333   7.095   6.478  0.8420 -0.2098  0.0445
  279MOL0     C37596   4.335   6.255   6.530  1.1713 -0.2061 -0.2767
  279MOL0     C37597   4.402   6.137   6.516  0.1627  0.4675  0.4147
  279MOL0     H37598   4.465   5.727   6.297  0.5087 -0.3168 -0.3890
  279MOL0     H37599   4.543   5.498   6.273 -0.6706  0.5942 -0.3708
  279MOL0     H37600   4.654   5.276   6.174 -0.8528 -0.8475 -0.7470
  279MOL0     H37601   4.688   5.392   6.046  3.9526  2.4556 -1.0478
  279MOL0     H37602   4.903   5.209   6.152 -1.2727 -2.3680 -0.6668
  279MOL0     H37603   4.763   5.155   6.049 -2.8302  0.6246  1.8210
  279MOL0     H37604   4.960   5.199   5.904  2.7682  2.5690 -3.4788
  279MOL0     H37605   4.833   5.310   5.875  2.7739 -1.1856 -2.9083
  279MOL0     H37606   4.955   5.491   5.966  2.8836  2.6566  4.4087
  279MOL0     H37607   5.046   5.396   6.073 -1.9733 -0.2992  0.0347
  279MOL0     H37608   5.119   5.274   5.841 -2.4122  0.1276 -0.5582
  279MOL0     H37609   5.071   5.424   5.768  2.4977 -1.0634 -1.2603
  279MOL0     H37610   5.243   5.543   5.938  0.8995  0.7108 -2.9605
  279MOL0     H37611   5.295   5.377   5.979 -0.1466 -0.6188  0.2722
  279MOL0     H37612   5.334   5.333   5.747 -0.7420 -1.8524  3.1147
  279MOL0     H37613   5.315   5.508   5.713 -0.4772  2.0746  1.8647
  279MOL0     H37614   5.551   5.418   5.735 -1.8884 -0.4635 -0.8260
  279MOL0     H37615   5.506   5.389   5.912  0.9571 -0.5036 -0.9388
  279MOL0     H37616   5.655   5.608   6.012  1.5200 -2.8562 -2.2910
  279MOL0     H37617   5.776   5.805   6.028  0.0100  0.3691  0.6175
  279MOL0     H37618   5.755   5.948   5.926  0.9569  0.0278  0.0568
  279MOL0     H37619   5.546   5.859   6.121 -1.1579  2.7478  0.6428
  279MOL0     H37620   5.530   5.985   6.001 -0.4017 -2.6009 -1.6373
  279MOL0     H37621   5.729   6.109   6.138  0.4052  0.3346  1.8481
  279MOL0     H37622   5.715   5.987   6.249  0.8785 -0.0622 -0.3851
  279MOL0     H37623   5.563   6.146   6.341 -1.9753  0.6375  0.0326
  279MOL0     H37624   5.468   6.003   6.279  0.4025  0.0870  2.2410
  279MOL0     H37625   5.349   6.122   6.435 -3.4484 -1.2229 -3.0583
  279MOL0     H37626   5.275   6.291   6.697  0.8185  0.6794 -1.1065
  279MOL0     H37627   5.108   6.263   6.626  0.6277 -0.5317 -0.3859
  279MOL0     H37628   5.219   6.135   6.612 -2.0803 -0.7272 -0.7029
  279MOL0     H37629   5.004   6.869   6.382 -0.1018 -1.7214  0.8135
  279MOL0     H37630   5.030   7.111   6.467 -0.3825  2.1220  1.0948
  279MOL0     H37631   4.936   7.141   6.846  0.1383  2.1839  2.1014
  279MOL0     H37632   5.087   7.223   6.873 -0.7926  2.1401  1.8428
  279MOL0     H37633   4.969   7.428   6.762  0.2824 -0.1237  0.0666
  279MOL0     H37634   4.819   7.324   6.777 -0.0047  2.0170 -0.0519
  279MOL0     H37635   5.005   7.433   6.982 -0.0796  3.7965 -3.4479
  279MOL0     H37636   4.872   7.323   7.025 -3.7763  2.6346  1.6183
  279MOL0     H37637   4.834   7.604   6.908  1.4248 -0.6426 -1.1628
  279MOL0     H37638   4.715   7.481   6.883  2.1248 -0.7126 -1.4660
  279MOL0     H37639   4.725   7.444   7.131  2.7649 -2.7355 -2.1599
  279MOL0     H37640   4.638   7.584   7.069  1.0197 -0.9603 -3.1473
  279MOL0     H37641   4.915   7.559   7.189 -0.3392 -2.1832 -2.0625
  279MOL0     H37642   4.861   7.712   7.110  2.5379 -0.0858  1.6167
  279MOL0     H37643   4.763   7.587   7.376  4.8780 -1.5525 -0.7882
  279MOL0     H37644   4.664   7.704   7.274  1.3236  2.6736  2.9606
  279MOL0     H37645   4.718   7.825   7.453  0.3999  1.3229  0.8548
  279MOL0     H37646   4.792   7.884   7.302 -0.8727  1.4520  1.3078
  279MOL0     H37647   5.122   6.966   6.847 -0.1632 -1.1746  0.5502
  279MOL0     H37648   5.145   6.714   6.741 -4.1872 -2.0833 -0.0027
  279MOL0     H37649   5.228   6.568   6.262  0.3408  0.6064  1.1339
  279MOL0     H37650   5.343   6.412   6.125  0.8727 -0.9777 -0.3116
  279MOL0     H37651   4.941   5.648   6.207  0.1730 -2.5114 -0.7494
  279MOL0     H37652   4.858   5.871   6.198  0.3215  0.1041 -0.2551
  279MOL0     H37653   4.552   6.212   6.212  4.8056 -2.8586  3.0532
  279MOL0     H37654   4.432   6.427   6.259 -2.0165 -0.9993 -1.2678
  279MOL0     H37655   4.210   6.482   6.646  1.3551 -2.0294 -0.9071
  279MOL0     H37656   4.351   6.577   6.601 -0.4486  0.5907 -0.7717
  279MOL0     H37657   4.093   6.672   6.640 -2.9990 -1.2721 -0.3792
  279MOL0     H37658   4.082   6.625   6.470  1.1848  3.2387 -1.8673
  279MOL0     H37659   4.115   6.856   6.442  0.7690 -0.5855 -3.1507
  279MOL0     H37660   4.263   6.772   6.411  1.4725 -1.7320  2.4207
  279MOL0     H37661   4.357   6.828   6.630  0.1839  0.9351 -0.2066
  279MOL0     H37662   4.189   6.895   6.680  2.1665 -1.3658  1.6102
  279MOL0     H37663   4.352   7.190   6.431  2.1968  1.2670  3.2208
  279MOL0     H37664   4.261   6.249   6.609  1.9159 -0.4821  0.4172
  279MOL0     H37665   4.386   6.056   6.587  2.5163 -0.5691 -0.1122
  280MOL0     O37666   6.298   6.406   8.956 -0.3253  0.9276  0.6921
  280MOL0     C37667   6.266   6.327   9.047  1.0377  0.2850 -0.1002
  280MOL0     O37668   6.235   6.195   9.029  0.1339 -0.1521 -0.0746
  280MOL0     C37669   6.258   6.125   8.912 -0.2623 -0.0329 -0.2613
  280MOL0     C37670   6.170   6.017   8.880 -0.1430  0.0009  0.1512
  280MOL0     C37671   6.192   5.944   8.756  0.5115 -0.7721 -0.3315
  280MOL0     C37672   6.297   5.981   8.676 -0.1665 -0.5052  0.4422
  280MOL0     O37673   6.296   5.920   8.553  0.1503  0.1556  0.2770
  280MOL0     C37674   6.394   5.931   8.457 -0.0889  0.5463 -0.1276
  280MOL0     C37675   6.363   5.837   8.337 -0.5493  0.0940 -0.4281
  280MOL0     C37676   6.366   5.915   8.201 -0.3065 -0.5577  1.4445
  280MOL0     C37677   6.332   5.816   8.088  0.5219  0.1775 -0.3183
  280MOL0     C37678   6.466   5.749   8.052 -0.6594  0.0870  0.2382
  280MOL0     C37679   6.439   5.628   7.968  0.0582 -1.1663 -0.5107
  280MOL0     C37680   6.555   5.536   7.966 -0.3792 -0.6518 -1.0124
  280MOL0     C37681   6.537   5.422   7.859 -0.2043 -0.1474 -0.4583
  280MOL0     N37682   6.660   5.348   7.824 -0.1826 -0.4274 -0.1919
  280MOL0     C37683   6.742   5.402   7.732 -0.1259  0.2783 -0.1762
  280MOL0     C37684   6.857   5.317   7.735 -0.1509 -0.3985 -0.2754
  280MOL0     C37685   6.988   5.326   7.656  0.3357  1.1321  0.1933
  280MOL0     C37686   6.967   5.276   7.511 -0.4151  0.1526  0.2633
  280MOL0     C37687   6.932   5.128   7.506  0.6138  0.2764  0.5150
  280MOL0     C37688   7.031   5.026   7.564  0.2800  0.8261 -0.0641
  280MOL0     O37689   7.141   5.026   7.470 -0.1982  0.2545  0.4200
  280MOL0     C37690   7.266   4.980   7.521 -0.2175 -0.3757  0.4928
  280MOL0     C37691   7.292   4.926   7.644 -0.3891  1.0253 -0.5813
  280MOL0     C37692   7.422   4.875   7.680  1.4087  0.7274  0.6000
  280MOL0     C37693   7.437   4.846   7.824  0.2940 -0.3273  0.0180
  280MOL0     C37694   7.520   4.873   7.578 -0.4915  0.1155 -0.4470
  280MOL0     C37695   7.661   4.816   7.597  0.1030 -0.7893  0.1351
  280MOL0     O37696   7.673   4.729   7.689 -0.0760  0.2624  0.1634
  280MOL0     C37697   7.798   4.677   7.706  0.5297 -0.5475 -0.3613
  280MOL0     C37698   7.902   4.724   7.778 -0.5621  0.2094  0.4242
  280MOL0     C37699   8.019   4.652   7.809  1.5550 -0.0559 -0.6298
  280MOL0     C37700   8.036   4.521   7.761  0.0937  0.0198  0.6662
  280MOL0     O37701   8.140   4.434   7.767 -0.3513 -0.1148 -1.0625
  280MOL0     C37702   8.256   4.458   7.855  1.4796 -0.8154 -0.2477
  280MOL0     C37703   8.365   4.354   7.861  0.1171 -0.3253  0.1245
  280MOL0     C37704   8.333   4.239   7.946 -0.7944  0.2031 -0.3862
  280MOL0     C37705   8.431   4.130   7.912  0.0611 -0.2815 -0.3254
  280MOL0     C37706   8.377   4.000   7.956  0.1724  0.0941  0.1157
  280MOL0     C37707   8.453   3.878   7.899  0.2366 -0.3015  0.1975
  280MOL0     C37708   8.380   3.753   7.952 -0.3343 -0.0157  0.5614
  280MOL0     C37709   8.461   3.638   7.902  0.3328  0.3133  0.5699
  280MOL0    Cl37710   8.607   3.641   8.005  0.2292 -0.4428 -0.0361
  280MOL0     C37711   7.926   4.478   7.673 -0.9255 -0.0472 -1.0967
  280MOL0     C37712   7.812   4.550   7.654 -0.3745 -0.2977  0.7037
  280MOL0     O37713   7.754   4.871   7.531  0.2525  1.3934  0.1797
  280MOL0     C37714   7.495   4.932   7.452 -0.4555 -1.1119 -0.2645
  280MOL0     C37715   7.365   4.980   7.417 -0.8150  0.3737  0.3696
  280MOL0     N37716   6.821   5.215   7.833  0.0543 -0.8846  0.4488
  280MOL0     N37717   6.699   5.234   7.880 -0.2053 -0.0577 -0.6063
  280MOL0     C37718   6.383   6.084   8.704 -0.1171  0.1363 -0.0045
  280MOL0     C37719   6.370   6.152   8.827 -0.3378  0.4426  0.2845
  280MOL0     C37720   6.246   6.382   9.188  0.2435 -0.4988  0.0249
  280MOL0     C37721   6.251   6.518   9.222  0.6071 -0.6340 -0.1763
  280MOL0     C37722   6.253   6.558   9.359 -0.5989  0.3947  0.6629
  280MOL0     C37723   6.241   6.463   9.455 -0.3869 -0.7449 -0.6018
  280MOL0     O37724   6.245   6.505   9.583 -0.2935 -0.3611  0.6934
  280MOL0     C37725   6.231   6.420   9.696  0.3228  0.3713  0.3061
  280MOL0     C37726   6.102   6.457   9.775 -0.0276 -0.2439 -0.0735
  280MOL0     C37727   6.099   6.601   9.840  0.0967 -0.5552  0.5407
  280MOL0     C37728   5.991   6.635   9.945  0.5110 -1.0088 -0.5226
  280MOL0     C37729   6.005   6.778   9.988 -1.2922  0.9602 -0.1281
  280MOL0     C37730   6.032   6.874  10.051 -0.7284 -0.0507  1.0056
  280MOL0     C37731   6.234   6.320   9.419 -0.4003  0.1155 -0.5190
  280MOL0     C37732   6.227   6.280   9.285  0.1951 -0.6416  0.0893
  280MOL0     H37733   6.079   6.004   8.939  0.1298  0.7050  0.7378
  280MOL0     H37734   6.137   5.856   8.724 -1.8973  0.9259 -1.1430
  280MOL0     H37735   6.405   6.034   8.422 -1.8800  0.4904 -0.9627
  280MOL0     H37736   6.495   5.908   8.492  1.0915  4.9090 -0.1062
  280MOL0     H37737   6.434   5.755   8.351 -3.5072 -2.1590  3.2810
  280MOL0     H37738   6.259   5.805   8.351 -1.4070  2.8486  0.1028
  280MOL0     H37739   6.298   6.000   8.194  0.2016 -0.2738 -2.3152
  280MOL0     H37740   6.468   5.957   8.202 -0.4853  0.1774  5.4346
  280MOL0     H37741   6.251   5.753   8.125  0.5708 -0.5635 -1.4149
  280MOL0     H37742   6.295   5.869   7.999  0.5919  2.5653  0.9914
  280MOL0     H37743   6.527   5.813   7.988  0.0911  0.7036  1.5219
  280MOL0     H37744   6.524   5.722   8.141 -2.2318  0.4971  1.4304
  280MOL0     H37745   6.352   5.574   8.007  0.3578 -0.2095  1.6870
  280MOL0     H37746   6.412   5.669   7.871 -0.6320  0.7026  0.4085
  280MOL0     H37747   6.647   5.595   7.963 -1.6291  1.3813 -1.2563
  280MOL0     H37748   6.567   5.483   8.060  3.0322  0.7431 -0.5401
  280MOL0     H37749   6.501   5.469   7.767  0.0399  1.8159  0.4000
  280MOL0     H37750   6.459   5.357   7.899 -1.6807  2.2930  0.8388
  280MOL0     H37751   6.730   5.489   7.668  1.6955 -0.2168 -1.2527
  280MOL0     H37752   7.028   5.428   7.652  1.7985  0.5446 -0.4612
  280MOL0     H37753   7.060   5.254   7.695 -0.9007 -1.5056 -2.0034
  280MOL0     H37754   7.060   5.279   7.454 -0.7359 -0.8517 -0.3336
  280MOL0     H37755   6.886   5.337   7.469 -2.0368 -0.6338  2.0785
  280MOL0     H37756   6.918   5.096   7.402  0.9153 -1.1358  0.8807
  280MOL0     H37757   6.846   5.106   7.570  0.3884  0.4841  0.2853
  280MOL0     H37758   7.008   4.919   7.574  0.4889  0.7008 -0.7986
  280MOL0     H37759   7.063   5.064   7.661  0.3481 -0.3278  0.3887
  280MOL0     H37760   7.211   4.920   7.716  2.9023  3.7717  3.8243
  280MOL0     H37761   7.381   4.924   7.876 -0.1862  0.1354 -1.1623
  280MOL0     H37762   7.382   4.754   7.844  1.1197 -0.6183  1.0022
  280MOL0     H37763   7.541   4.842   7.857  0.8269 -0.9459 -1.6168
  280MOL0     H37764   7.891   4.816   7.835  0.3313  2.2814 -2.4742
  280MOL0     H37765   8.088   4.682   7.887 -0.2665 -3.8223  2.7374
  280MOL0     H37766   8.301   4.557   7.841 -0.4873  0.4074  1.4848
  280MOL0     H37767   8.217   4.447   7.956 -2.3707 -3.6823 -1.8357
  280MOL0     H37768   8.383   4.331   7.755  1.7410  0.2687  0.2352
  280MOL0     H37769   8.444   4.416   7.906 -0.9613 -0.8570  2.9202
  280MOL0     H37770   8.231   4.208   7.923 -0.1495 -1.2003 -1.5238
  280MOL0     H37771   8.334   4.283   8.047 -3.5435  0.3431 -0.3471
  280MOL0     H37772   8.452   4.133   7.805 -0.7218 -2.8664 -0.6198
  280MOL0     H37773   8.522   4.141   7.972  0.0843  0.0587 -0.4244
  280MOL0     H37774   8.269   3.995   7.939  0.1072  0.1817  0.5057
  280MOL0     H37775   8.388   3.996   8.065  0.9430 -0.2435  0.0304
  280MOL0     H37776   8.459   3.882   7.790  2.5454  0.1408  0.3012
  280MOL0     H37777   8.556   3.890   7.932  0.9828 -1.3888 -1.5896
  280MOL0     H37778   8.274   3.752   7.928 -0.7533  1.5677  2.1996
  280MOL0     H37779   8.381   3.765   8.060 -0.1610  1.3000  0.4298
  280MOL0     H37780   8.499   3.643   7.800 -2.2476 -0.2916 -0.5030
  280MOL0     H37781   8.411   3.542   7.912  1.2787 -0.4100 -1.2413
  280MOL0     H37782   7.945   4.398   7.602 -1.3636  0.5861 -1.9345
  280MOL0     H37783   7.738   4.515   7.583  2.8286 -1.5769 -2.3296
  280MOL0     H37784   7.575   4.932   7.379  1.5848 -1.4818  1.8882
  280MOL0     H37785   7.343   5.014   7.317 -0.3966 -1.6100 -0.4513
  280MOL0     H37786   6.461   6.111   8.634 -0.2101 -0.0541 -0.1817
  280MOL0     H37787   6.439   6.232   8.853  0.3496  1.1056 -3.0977
  280MOL0     H37788   6.263   6.597   9.148  1.6690 -1.3704 -0.8272
  280MOL0     H37789   6.250   6.665   9.381 -0.7157  0.2445  1.4158
  280MOL0     H37790   6.230   6.311   9.687  0.0206  0.3523  0.5547
  280MOL0     H37791   6.315   6.453   9.758 -0.3060  2.1698  0.2408
  280MOL0     H37792   6.096   6.384   9.856 -2.0141  0.6853  0.6789
  280MOL0     H37793   6.015   6.439   9.711 -0.8028 -1.3213  1.2425
  280MOL0     H37794   6.087   6.670   9.756 -3.5441 -2.4941 -0.7753
  280MOL0     H37795   6.191   6.608   9.900  0.1163  0.0538  0.4427
  280MOL0     H37796   6.008   6.579  10.038  2.4526  1.3238  0.6102
  280MOL0     H37797   5.885   6.627   9.917 -0.7042  2.7187  2.1856
  280MOL0     H37798   6.050   6.950  10.124  0.8229  0.4057  0.1991
  280MOL0     H37799   6.223   6.250   9.501 -1.9825  1.3074  0.3510
  280MOL0     H37800   6.237   6.175   9.262  0.1144 -0.1769 -2.4181
  281MOL0     O37801   0.718   8.227   9.113 -0.7379  1.0171 -0.2755
  281MOL0     C37802   0.818   8.155   9.102 -0.2470 -0.7175 -1.0074
  281MOL0     O37803   0.826   8.029   9.071  0.1845 -0.1250  0.1043
  281MOL0     C37804   0.721   7.934   9.067 -0.2183 -0.2763 -0.4579
  281MOL0     C37805   0.758   7.794   9.058 -0.2434  0.0817 -0.3741
  281MOL0     C37806   0.661   7.691   9.069  0.0144 -0.1355 -0.0580
  281MOL0     C37807   0.524   7.718   9.090 -1.1532  1.2871 -0.9601
  281MOL0     O37808   0.428   7.620   9.113  0.2111 -0.0577 -0.3484
  281MOL0     C37809   0.474   7.482   9.116 -0.2438  0.1983  0.2700
  281MOL0     C37810   0.533   7.440   9.247 -1.6359 -0.2971  0.1173
  281MOL0     C37811   0.442   7.445   9.367 -0.4113  0.8569 -0.3423
  281MOL0     C37812   0.523   7.418   9.497  0.0724 -0.5030  0.2166
  281MOL0     C37813   0.598   7.280   9.506  0.0880 -0.4221 -0.2989
  281MOL0     C37814   0.496   7.160   9.485 -0.3011 -0.2400  0.3993
  281MOL0     C37815   0.374   7.172   9.577 -0.3843 -0.6592 -0.2675
  281MOL0     C37816   0.300   7.037   9.598 -0.1444 -0.6264  0.6607
  281MOL0     N37817   0.192   7.046   9.695  0.3489 -0.0941  0.3504
  281MOL0     C37818   0.199   7.075   9.836  1.3453  0.3078  0.3118
  281MOL0     C37819   0.067   7.079   9.874  0.2836 -1.1193 -0.7132
  281MOL0     C37820   0.003   7.111  10.012  0.2878  0.3808  0.6699
  281MOL0     C37821   0.040   7.257  10.058  1.2594  1.2307 -0.2231
  281MOL0     C37822  -0.023   7.277  10.196  0.4350 -0.2888  0.3590
  281MOL0     C37823   0.065   7.377  10.264  0.3515 -0.7976 -0.5069
  281MOL0     O37824   0.068   7.501  10.190 -0.3097 -0.5793 -0.3485
  281MOL0     C37825   0.049   7.624  10.252  0.7328  0.5377 -0.9617
  281MOL0     C37826  -0.024   7.639  10.369  0.4225 -0.1385 -0.5730
  281MOL0     C37827  -0.026   7.763  10.442 -0.2597 -0.0742  1.2401
  281MOL0     C37828  -0.074   7.760  10.583 -0.0524 -0.6783  0.1656
  281MOL0     C37829   0.052   7.877  10.386 -0.1481  0.5244 -1.1936
  281MOL0     C37830   0.061   8.018  10.438  0.2217  0.8597 -0.0619
  281MOL0     O37831   0.133   8.108  10.369 -0.9743 -0.2614  0.0017
  281MOL0     C37832   0.135   8.237  10.421  0.5009 -0.5564  0.4049
  281MOL0     C37833   0.193   8.263  10.550 -0.1308 -0.3803 -0.5686
  281MOL0     C37834   0.217   8.397  10.592  0.1671 -0.6488  0.1937
  281MOL0     C37835   0.178   8.500  10.499  0.4595 -0.7375 -0.6331
  281MOL0     O37836   0.210   8.628  10.523  0.4206  0.5886 -0.1336
  281MOL0     C37837   0.323   8.682  10.462 -0.3391 -0.6874  0.2283
  281MOL0     C37838   0.312   8.835  10.458  0.4224  0.4977  0.5721
  281MOL0     C37839   0.402   8.893  10.353 -0.2083  0.0170  0.1897
  281MOL0     C37840   0.366   9.033  10.300  1.2400  0.1647 -0.3984
  281MOL0     C37841   0.461   9.091  10.197 -1.4088  0.2843  0.0132
  281MOL0     C37842   0.399   9.193  10.106 -0.0267 -0.8694  0.1391
  281MOL0     C37843   0.329   9.315  10.164 -0.4888  0.3121  0.0375
  281MOL0     C37844   0.421   9.439  10.163 -0.4568  0.2390  0.1346
  281MOL0    Cl37845   0.465   9.499   9.999 -0.2979 -0.2761  0.0546
  281MOL0     C37846   0.118   8.476  10.377  0.3013 -0.5862 -0.5888
  281MOL0     C37847   0.092   8.348  10.346 -0.3114 -0.1425  1.1278
  281MOL0     O37848  -0.018   8.044  10.535  0.1439  0.1133 -0.3071
  281MOL0     C37849   0.116   7.847  10.263  0.0018 -0.4741 -0.3732
  281MOL0     C37850   0.118   7.726  10.205 -0.2480 -0.8840 -0.3012
  281MOL0     N37851  -0.013   7.071   9.759  0.3344 -0.4724  0.0859
  281MOL0     N37852   0.060   7.045   9.653  0.4574 -0.3544 -0.3201
  281MOL0     C37853   0.486   7.849   9.110  0.0504  0.6606 -0.6471
  281MOL0     C37854   0.580   7.946   9.112 -0.2465 -0.9221 -0.2682
  281MOL0     C37855   0.940   8.242   9.108  0.1219 -0.0352 -0.5474
  281MOL0     C37856   0.927   8.371   9.147 -0.2009  0.1102  0.4331
  281MOL0     C37857   1.042   8.443   9.172  0.0737  0.0274 -0.4686
  281MOL0     C37858   1.169   8.391   9.141  0.0304  0.2413  0.1806
  281MOL0     O37859   1.277   8.469   9.153  0.0114 -0.5368  0.4472
  281MOL0     C37860   1.410   8.416   9.121 -0.6145 -0.5791 -0.4972
  281MOL0     C37861   1.490   8.541   9.151 -0.7052 -0.3364 -0.4878
  281MOL0     C37862   1.628   8.531   9.098  0.2584  0.0113  0.2839
  281MOL0     C37863   1.721   8.655   9.096  0.0749 -0.9411 -0.3008
  281MOL0     C37864   1.748   8.708   9.223 -0.2589 -1.6327 -0.7792
  281MOL0     C37865   1.797   8.742   9.334 -0.0409 -0.2839 -0.6943
  281MOL0     C37866   1.185   8.262   9.097  0.1445  0.1494 -0.0528
  281MOL0     C37867   1.063   8.193   9.078  0.2863 -0.1705  0.1022
  281MOL0     H37868   0.861   7.776   9.029  0.8369 -0.2731  3.1406
  281MOL0     H37869   0.706   7.594   9.052 -1.8012 -0.9653 -0.3570
  281MOL0     H37870   0.375   7.436   9.108  1.3496 -4.0317  1.9712
  281MOL0     H37871   0.528   7.453   9.026  1.8308 -0.3082  1.6163
  281MOL0     H37872   0.574   7.340   9.230 -1.0593 -0.2620  1.1771
  281MOL0     H37873   0.613   7.515   9.254 -2.6441  0.7390  1.1216
  281MOL0     H37874   0.414   7.547   9.396 -1.8737  0.5207 -0.5138
  281MOL0     H37875   0.354   7.381   9.362  1.0036 -1.1137 -1.1841
  281MOL0     H37876   0.587   7.505   9.517 -1.9715  1.1699 -0.2312
  281MOL0     H37877   0.446   7.422   9.575  0.1932  2.6939  0.3177
  281MOL0     H37878   0.677   7.284   9.431  1.9547 -1.9456  1.4521
  281MOL0     H37879   0.647   7.270   9.604 -0.3763 -0.2823 -0.0482
  281MOL0     H37880   0.458   7.139   9.385  0.8772 -0.1200 -0.0923
  281MOL0     H37881   0.543   7.068   9.521 -2.7494 -0.6944  2.8246
  281MOL0     H37882   0.413   7.197   9.677  0.5070  0.5142 -0.8867
  281MOL0     H37883   0.290   7.228   9.535 -0.3721  0.9530  1.7065
  281MOL0     H37884   0.370   6.964   9.639 -0.5329 -2.3118 -1.5364
  281MOL0     H37885   0.264   7.008   9.500  0.3816  0.1427  0.2273
  281MOL0     H37886   0.289   7.079   9.896  3.5668 -2.1756 -2.5307
  281MOL0     H37887  -0.105   7.101  10.003  0.2135 -0.5472  2.1890
  281MOL0     H37888   0.044   7.040  10.085  1.2786  2.7965  2.5955
  281MOL0     H37889  -0.000   7.325   9.983  0.7374  0.9405 -0.2098
  281MOL0     H37890   0.149   7.269  10.058  1.2700  1.1477 -0.3859
  281MOL0     H37891  -0.025   7.185  10.255  3.6127 -0.6751  0.0089
  281MOL0     H37892  -0.121   7.326  10.200  1.4533  1.9037 -0.1274
  281MOL0     H37893   0.165   7.331  10.266  0.5823 -0.2851  1.2912
  281MOL0     H37894   0.038   7.401  10.367  1.0606 -1.5663 -0.1283
  281MOL0     H37895  -0.079   7.555  10.410  1.8484 -1.5052 -1.3819
  281MOL0     H37896   0.009   7.796  10.644 -0.8200  0.7521  0.4170
  281MOL0     H37897  -0.166   7.814  10.609  0.9012  1.2324 -0.2927
  281MOL0     H37898  -0.094   7.658  10.618 -2.9698 -0.3719 -0.3017
  281MOL0     H37899   0.235   8.180  10.606 -3.7967 -3.3699 -1.8822
  281MOL0     H37900   0.272   8.433  10.678  0.0765  0.9637 -0.3901
  281MOL0     H37901   0.405   8.656  10.529  3.0183  1.2373 -2.7962
  281MOL0     H37902   0.345   8.641  10.363 -0.5292 -2.6126  0.9358
  281MOL0     H37903   0.207   8.857  10.434 -0.4456 -1.9687  1.7212
  281MOL0     H37904   0.332   8.876  10.558  0.3659  1.1227  0.3300
  281MOL0     H37905   0.395   8.827  10.267 -1.9875  0.1499  0.1854
  281MOL0     H37906   0.504   8.906  10.389  0.4997  0.4969 -1.8901
  281MOL0     H37907   0.267   9.033  10.254  0.4254 -0.6880  1.2770
  281MOL0     H37908   0.373   9.107  10.381 -1.0363  1.0671 -0.9463
  281MOL0     H37909   0.494   9.001  10.145 -0.4496 -1.1375  2.8862
  281MOL0     H37910   0.547   9.138  10.245 -2.1791  1.6847  0.0819
  281MOL0     H37911   0.488   9.217  10.047  1.7952 -4.2118  1.2453
  281MOL0     H37912   0.329   9.130  10.051  1.8753  0.2093 -3.8923
  281MOL0     H37913   0.290   9.297  10.265 -1.0518  1.9292  0.1422
  281MOL0     H37914   0.243   9.341  10.101 -1.3593  0.2407  1.1544
  281MOL0     H37915   0.516   9.402  10.201 -0.4953 -1.1942 -1.0745
  281MOL0     H37916   0.375   9.516  10.225 -1.6410  1.5831 -2.2310
  281MOL0     H37917   0.097   8.562  10.314  1.4874  0.4355  0.3548
  281MOL0     H37918   0.054   8.328  10.246  0.8501  2.1696  0.1535
  281MOL0     H37919   0.174   7.928  10.220 -0.5995  0.3489  0.3208
  281MOL0     H37920   0.191   7.720  10.124 -0.7846  2.5308 -1.2071
  281MOL0     H37921   0.380   7.864   9.124 -0.5865 -1.8560 -2.2323
  281MOL0     H37922   0.550   8.048   9.133  2.7611 -0.2315  1.2542
  281MOL0     H37923   0.829   8.417   9.161 -1.5421 -2.2128 -0.6948
  281MOL0     H37924   1.035   8.543   9.212 -0.1383 -0.7797  1.6319
  281MOL0     H37925   1.433   8.343   9.199  0.0279  1.0470  0.9176
  281MOL0     H37926   1.425   8.382   9.019 -2.9187  1.5921 -1.6780
  281MOL0     H37927   1.504   8.552   9.259  1.4627  1.5885 -0.9052
  281MOL0     H37928   1.442   8.630   9.109 -0.6529  0.4970  1.1482
  281MOL0     H37929   1.607   8.497   8.997 -5.5806  0.0769  1.0994
  281MOL0     H37930   1.680   8.444   9.138  0.6737 -2.3857 -4.7928
  281MOL0     H37931   1.661   8.726   9.037 -0.6296 -1.2386  0.0467
  281MOL0     H37932   1.808   8.639   9.033 -0.0425  1.3272 -1.1455
  281MOL0     H37933   1.838   8.787   9.422  1.2079 -0.6787 -1.0646
  281MOL0     H37934   1.286   8.227   9.077  1.2360  2.8608  0.2428
  281MOL0     H37935   1.093   8.094   9.045  1.4137 -0.2920  1.3999
  282MOL0     O37936   7.511   4.226   7.594  0.2428  0.4035  0.1345
  282MOL0     C37937   7.568   4.229   7.705  0.1795  0.1964 -0.2250
  282MOL0     O37938   7.509   4.273   7.822 -0.0240 -0.4008 -0.9335
  282MOL0     C37939   7.383   4.318   7.800  0.8590  0.7202  0.6337
  282MOL0     C37940   7.359   4.438   7.724 -0.4289  0.3652 -0.3154
  282MOL0     C37941   7.223   4.481   7.706  0.7374 -0.3184 -0.7935
  282MOL0     C37942   7.119   4.408   7.764  0.6249 -0.1883 -0.2266
  282MOL0     O37943   6.987   4.442   7.741 -0.4452 -0.2588 -0.4438
  282MOL0     C37944   6.938   4.545   7.824 -0.9558 -0.0724  0.3009
  282MOL0     C37945   6.794   4.551   7.842  0.2909  0.4011  0.7698
  282MOL0     C37946   6.714   4.680   7.844 -0.7649  0.3248  0.4065
  282MOL0     C37947   6.570   4.653   7.882  0.1482 -0.2883  0.4365
  282MOL0     C37948   6.500   4.787   7.919 -0.4157  0.3862  0.0880
  282MOL0     C37949   6.483   4.897   7.814 -0.0290  0.3250  0.0365
  282MOL0     C37950   6.422   5.022   7.881  0.7034 -0.4406  0.6362
  282MOL0     C37951   6.274   5.021   7.916 -0.1739 -1.1433 -0.0971
  282MOL0     N37952   6.241   5.151   7.972 -0.1494 -0.4433 -0.3728
  282MOL0     C37953   6.240   5.172   8.113  0.7881  0.1056  0.7277
  282MOL0     C37954   6.187   5.301   8.119 -0.3712  0.3967 -0.3980
  282MOL0     C37955   6.157   5.363   8.249  0.5684 -1.0890 -0.3053
  282MOL0     C37956   6.260   5.476   8.283  1.5346  0.5341  0.7620
  282MOL0     C37957   6.404   5.429   8.288 -0.4089  0.2315  0.0400
  282MOL0     C37958   6.424   5.318   8.389 -0.1730  0.0456 -0.5552
  282MOL0     O37959   6.427   5.194   8.327  0.1388  1.0329 -0.6518
  282MOL0     C37960   6.551   5.126   8.331  0.7918  0.7345 -0.0489
  282MOL0     C37961   6.580   5.047   8.446  0.3925  1.0150  0.6497
  282MOL0     C37962   6.696   4.956   8.448 -0.2382  0.1515 -0.0886
  282MOL0     C37963   6.698   4.856   8.563  0.3147  0.0672 -1.0945
  282MOL0     C37964   6.786   4.956   8.337 -0.0617  0.1011 -0.1563
  282MOL0     C37965   6.912   4.873   8.325  0.9349 -0.5257  0.3610
  282MOL0     O37966   6.946   4.823   8.199  0.0077  0.3570 -0.5681
  282MOL0     C37967   7.036   4.722   8.196  0.3541 -0.4792 -0.4254
  282MOL0     C37968   7.018   4.599   8.272 -0.5166  0.4957  0.2996
  282MOL0     C37969   7.127   4.504   8.281 -0.5023  0.6746  1.2253
  282MOL0     C37970   7.242   4.512   8.201 -0.7318 -0.2666 -0.1846
  282MOL0     O37971   7.339   4.405   8.189  0.7278 -0.1294  0.0137
  282MOL0     C37972   7.475   4.429   8.138  0.6073  0.1145 -0.2633
  282MOL0     C37973   7.556   4.295   8.127  0.0743 -0.0501  1.0372
  282MOL0     C37974   7.595   4.236   8.259  0.0642 -1.0695  1.1559
  282MOL0     C37975   7.674   4.109   8.241  1.7625  0.4705 -0.6246
  282MOL0     C37976   7.796   4.122   8.157  1.1496 -0.3637  0.3385
  282MOL0     C37977   7.911   4.025   8.161 -0.5631 -0.4570 -0.8145
  282MOL0     C37978   7.867   3.888   8.099  1.3571 -0.0622 -0.9600
  282MOL0     C37979   7.984   3.795   8.100  1.0488  0.0304 -0.9614
  282MOL0    Cl37980   7.914   3.631   8.072  0.5634  0.0078  0.1046
  282MOL0     C37981   7.247   4.633   8.122 -0.7106  0.4497  0.6825
  282MOL0     C37982   7.148   4.732   8.112 -1.3635 -0.8456  0.9591
  282MOL0     O37983   6.973   4.847   8.422  0.0574 -0.8900 -0.7359
  282MOL0     C37984   6.754   5.034   8.229  0.2613  0.4722  0.7738
  282MOL0     C37985   6.639   5.119   8.224 -0.4331  0.3537 -0.0850
  282MOL0     N37986   6.175   5.358   7.989  1.0387 -0.1139  0.0665
  282MOL0     N37987   6.199   5.257   7.904 -0.4974  0.3740 -0.0075
  282MOL0     C37988   7.144   4.289   7.842 -0.4082 -0.5755  0.3130
  282MOL0     C37989   7.280   4.241   7.858  0.3371 -1.4070 -1.1629
  282MOL0     C37990   7.704   4.179   7.710 -0.1897 -0.1073  0.2888
  282MOL0     C37991   7.804   4.216   7.797  0.1364 -0.5492  0.1654
  282MOL0     C37992   7.918   4.140   7.803 -0.2360 -0.2435 -0.0883
  282MOL0     C37993   7.937   4.029   7.714  0.3620  0.2705 -0.6114
  282MOL0     O37994   8.052   3.953   7.705  1.2163  0.2343  0.0368
  282MOL0     C37995   8.150   4.020   7.632  0.4856 -0.1291 -0.0132
  282MOL0     C37996   8.228   3.908   7.547  0.1658 -0.3403 -0.0579
  282MOL0     C37997   8.142   3.867   7.421 -0.4865 -0.1118 -0.9906
  282MOL0     C37998   8.238   3.781   7.337  0.4604 -0.5712 -0.1525
  282MOL0     C37999   8.169   3.717   7.232 -0.9879  0.3613  0.3472
  282MOL0     C38000   8.136   3.669   7.131 -0.0347  0.3080  0.0628
  282MOL0     C38001   7.830   3.988   7.638 -0.5187  0.0126  0.5264
  282MOL0     C38002   7.725   4.068   7.627  0.2478  0.5409 -0.2917
  282MOL0     H38003   7.444   4.487   7.676 -1.5719  4.4983  1.4116
  282MOL0     H38004   7.196   4.561   7.638  0.6467  4.8074  4.5738
  282MOL0     H38005   6.980   4.562   7.923 -1.4385 -0.8567  0.6457
  282MOL0     H38006   6.981   4.634   7.775  0.2991 -1.3133 -0.9478
  282MOL0     H38007   6.736   4.496   7.768 -3.5550  5.2420 -0.3543
  282MOL0     H38008   6.782   4.486   7.930  0.6990  1.7201  1.8411
  282MOL0     H38009   6.754   4.737   7.928  2.0932  2.9290 -2.4574
  282MOL0     H38010   6.740   4.735   7.753  2.9206 -3.8430 -1.4308
  282MOL0     H38011   6.516   4.610   7.797  2.7011 -2.2177 -0.3246
  282MOL0     H38012   6.557   4.585   7.967 -1.3140 -1.7745 -0.9212
  282MOL0     H38013   6.399   4.765   7.955 -0.0335  0.0474  0.9924
  282MOL0     H38014   6.557   4.834   8.000 -0.1594 -0.3876  0.3752
  282MOL0     H38015   6.585   4.925   7.789  0.0284 -0.7092 -0.9680
  282MOL0     H38016   6.430   4.865   7.724 -1.5318 -1.1959  1.3854
  282MOL0     H38017   6.482   5.076   7.955 -4.4153  1.1319  4.1381
  282MOL0     H38018   6.436   5.088   7.794  0.1972  0.2620  1.0835
  282MOL0     H38019   6.265   4.941   7.990  0.0704 -3.2451 -2.2398
  282MOL0     H38020   6.213   4.989   7.832 -0.7298 -2.9034  0.9218
  282MOL0     H38021   6.248   5.101   8.195 -2.8575 -3.2211 -1.4957
  282MOL0     H38022   6.060   5.414   8.248  1.6263  1.0527  0.7737
  282MOL0     H38023   6.158   5.288   8.329  1.0505  0.1637  0.9063
  282MOL0     H38024   6.237   5.507   8.385  1.4266 -0.3534  1.0144
  282MOL0     H38025   6.253   5.557   8.209  2.0094 -2.2044 -2.5579
  282MOL0     H38026   6.468   5.516   8.304 -0.7301  0.0951  2.3860
  282MOL0     H38027   6.443   5.392   8.193  0.5951 -0.9427  0.8814
  282MOL0     H38028   6.353   5.320   8.472 -2.8267  1.7158 -2.7269
  282MOL0     H38029   6.520   5.342   8.437 -0.2818  3.1424 -1.7044
  282MOL0     H38030   6.520   5.057   8.536  0.6637  3.5527  0.6267
  282MOL0     H38031   6.717   4.753   8.531  0.5537 -0.0300 -0.6436
  282MOL0     H38032   6.764   4.896   8.641 -2.3265  2.6129  0.0394
  282MOL0     H38033   6.598   4.860   8.605  1.0217  1.2425  0.5948
  282MOL0     H38034   6.928   4.595   8.332  1.0224 -5.0951  2.8580
  282MOL0     H38035   7.119   4.421   8.351  0.6352 -0.2004  0.3475
  282MOL0     H38036   7.456   4.478   8.043  0.2152  2.9935  1.1753
  282MOL0     H38037   7.521   4.503   8.206 -0.3063 -0.4920  1.0640
  282MOL0     H38038   7.500   4.224   8.066  0.7147 -1.1909  1.7528
  282MOL0     H38039   7.640   4.317   8.060 -0.1241 -0.9681  0.4683
  282MOL0     H38040   7.510   4.224   8.327 -0.6052  0.6580  0.6816
  282MOL0     H38041   7.664   4.311   8.298 -1.2541  2.7013 -3.0156
  282MOL0     H38042   7.724   4.073   8.332  3.6052 -1.2380 -2.2072
  282MOL0     H38043   7.603   4.031   8.210  0.7514  0.6807  1.0366
  282MOL0     H38044   7.828   4.227   8.153 -0.2360  0.0472 -0.4417
  282MOL0     H38045   7.760   4.101   8.056  1.9786 -0.8567  0.1347
  282MOL0     H38046   8.006   4.048   8.113  0.9131 -1.9988  1.1539
  282MOL0     H38047   7.931   4.015   8.268 -2.5619  0.9646 -0.2386
  282MOL0     H38048   7.839   3.912   7.995 -0.8968  1.4402 -0.0957
  282MOL0     H38049   7.776   3.857   8.150  1.7624  1.8495  1.0808
  282MOL0     H38050   8.028   3.777   8.198 -1.5858 -1.8152  0.0161
  282MOL0     H38051   8.052   3.838   8.026  0.7686  2.0931 -0.0975
  282MOL0     H38052   7.339   4.656   8.070 -1.4817  2.2507  0.0516
  282MOL0     H38053   7.165   4.826   8.061 -1.6211 -0.5437  1.4276
  282MOL0     H38054   6.812   5.031   8.137 -0.4533 -0.7675  0.3377
  282MOL0     H38055   6.608   5.171   8.134 -0.1415 -0.2704 -0.5510
  282MOL0     H38056   7.053   4.239   7.874 -1.4273  1.7635  1.3332
  282MOL0     H38057   7.293   4.145   7.906  3.0008 -1.9418 -2.7369
  282MOL0     H38058   7.797   4.292   7.874  4.1938 -1.1419  1.3723
  282MOL0     H38059   7.995   4.155   7.878 -0.1840 -2.0108  0.2492
  282MOL0     H38060   8.105   4.091   7.563  0.6783  0.4529  0.4501
  282MOL0     H38061   8.223   4.063   7.702  1.2999  3.2113 -2.6914
  282MOL0     H38062   8.250   3.831   7.621  3.5695  1.8590  1.4288
  282MOL0     H38063   8.318   3.955   7.506 -2.8320  3.5489 -3.0867
  282MOL0     H38064   8.093   3.950   7.369 -3.6110  1.0340  3.2865
  282MOL0     H38065   8.066   3.801   7.463  1.7539 -2.9486 -1.1207
  282MOL0     H38066   8.291   3.715   7.406  0.0907 -0.9295 -0.2080
  282MOL0     H38067   8.312   3.846   7.289  2.7593 -1.7695  1.5899
  282MOL0     H38068   8.121   3.622   7.036  0.8326  0.5704 -0.2098
  282MOL0     H38069   7.849   3.901   7.577 -3.5145 -0.9667  0.8518
  282MOL0     H38070   7.644   4.018   7.574  0.6284 -0.1747 -0.2027
  283MOL0     O38071   6.688   0.390   3.313 -0.1229 -0.5037 -0.2300
  283MOL0     C38072   6.730   0.489   3.370  0.1383  0.3751 -0.0595
  283MOL0     O38073   6.686   0.539   3.479  0.5648  0.6943 -0.4616
  283MOL0     C38074   6.629   0.459   3.567  0.1811 -0.8273  0.5107
  283MOL0     C38075   6.502   0.501   3.614 -0.2377 -0.2974 -0.0778
  283MOL0     C38076   6.429   0.433   3.711  0.1002  0.3650 -0.5116
  283MOL0     C38077   6.492   0.314   3.769  0.0265 -0.4859 -0.2119
  283MOL0     O38078   6.410   0.251   3.858 -0.5034 -0.3220  0.0820
  283MOL0     C38079   6.461   0.121   3.902 -0.1268 -0.0197 -1.0879
  283MOL0     C38080   6.555   0.129   4.020 -0.1098  0.7420 -0.3850
  283MOL0     C38081   6.661   0.015   4.006 -1.1001 -0.2731 -0.4188
  283MOL0     C38082   6.603  -0.121   4.047  0.0118  0.2800  0.4255
  283MOL0     C38083   6.609  -0.142   4.197 -1.1424  0.3525 -0.9445
  283MOL0     C38084   6.597  -0.286   4.233  0.4549  0.4586 -0.2383
  283MOL0     C38085   6.646  -0.321   4.376 -0.2586  0.5708 -0.2769
  283MOL0     C38086   6.547  -0.293   4.479  0.9835 -0.2904 -0.0596
  283MOL0     N38087   6.582  -0.364   4.601  0.1431 -0.2981 -0.3550
  283MOL0     C38088   6.562  -0.498   4.646 -0.0696 -0.3222 -0.5092
  283MOL0     C38089   6.631  -0.510   4.768 -0.2940  0.2088 -0.2437
  283MOL0     C38090   6.624  -0.641   4.838 -0.2827 -0.5954 -0.2506
  283MOL0     C38091   6.678  -0.636   4.975 -0.2894 -0.1029  0.4879
  283MOL0     C38092   6.836  -0.624   4.983 -0.5798  0.2486  0.2438
  283MOL0     C38093   6.913  -0.726   4.900  0.5142  0.1660  0.8998
  283MOL0     O38094   7.044  -0.733   4.947 -0.7577  0.1790  0.4730
  283MOL0     C38095   7.132  -0.802   4.875  0.4223 -0.1792  0.6774
  283MOL0     C38096   7.121  -0.845   4.741  0.1101 -0.2117 -0.3991
  283MOL0     C38097   7.231  -0.919   4.673  0.8768 -0.4566 -0.2571
  283MOL0     C38098   7.206  -0.951   4.526 -0.3128 -0.2153 -0.8772
  283MOL0     C38099   7.354  -0.942   4.749  0.2411  0.3160  0.3455
  283MOL0     C38100   7.477  -0.991   4.682 -0.0589  0.7342 -0.4984
  283MOL0     O38101   7.598  -0.983   4.761  0.3137  0.5888  0.1442
  283MOL0     C38102   7.721  -0.979   4.703 -0.4496 -0.6901 -1.7283
  283MOL0     C38103   7.739  -0.920   4.575  0.4757 -0.8893 -0.1367
  283MOL0     C38104   7.867  -0.924   4.516 -0.1298  0.0765 -0.1642
  283MOL0     C38105   7.969  -0.994   4.581 -0.9631 -0.0531  1.1445
  283MOL0     O38106   8.102  -0.990   4.528  0.5155  0.0197  0.2564
  283MOL0     C38107   8.121  -0.982   4.381 -0.9485 -0.6949 -0.4811
  283MOL0     C38108   8.278  -1.011   4.373  0.3584  0.4512 -1.1777
  283MOL0     C38109   8.351  -0.962   4.242 -0.3199  0.5929 -0.3183
  283MOL0     C38110   8.465  -1.066   4.233  0.3042  0.6124  0.5407
  283MOL0     C38111   8.574  -1.014   4.145 -0.4154  0.5439  0.2410
  283MOL0     C38112   8.680  -1.121   4.123 -0.2169 -0.5388 -0.0420
  283MOL0     C38113   8.805  -1.072   4.041 -0.4095  0.6445  0.2451
  283MOL0     C38114   8.876  -1.209   3.998 -0.5487 -0.1469  0.6597
  283MOL0    Cl38115   9.041  -1.169   3.929 -0.0754 -0.4805 -0.4686
  283MOL0     C38116   7.948  -1.051   4.706  0.3274  0.1181 -0.7178
  283MOL0     C38117   7.826  -1.044   4.769  0.6540 -0.2955 -0.4707
  283MOL0     O38118   7.473  -1.037   4.564 -0.8103 -0.6103  0.6434
  283MOL0     C38119   7.358  -0.899   4.882  0.3773 -1.0570 -0.1455
  283MOL0     C38120   7.245  -0.834   4.943 -0.7687  0.4709  0.4092
  283MOL0     N38121   6.684  -0.394   4.797  0.2231  0.0624  1.1955
  283MOL0     N38122   6.640  -0.305   4.712  0.3157  0.0399  0.6993
  283MOL0     C38123   6.619   0.277   3.720  0.4820 -0.7280 -0.1444
  283MOL0     C38124   6.688   0.354   3.631 -0.4422  0.5440  0.5849
  283MOL0     C38125   6.828   0.575   3.294 -0.0320  0.0605  0.2813
  283MOL0     C38126   6.888   0.531   3.177 -0.6773  0.7752 -0.8470
  283MOL0     C38127   6.988   0.601   3.115  0.4597 -0.1270 -0.2305
  283MOL0     C38128   7.019   0.734   3.159  0.9538  0.4403  1.2122
  283MOL0     O38129   7.086   0.810   3.063 -0.2010 -0.8947  0.0250
  283MOL0     C38130   7.145   0.934   3.099  0.0240  0.4338  0.3904
  283MOL0     C38131   7.274   0.944   3.003  0.0172  0.0132 -0.2639
  283MOL0     C38132   7.346   1.078   3.025 -0.2634 -0.2556  0.7994
  283MOL0     C38133   7.497   1.067   2.975 -0.6923 -1.0639 -0.8891
  283MOL0     C38134   7.567   1.184   3.018  0.2801 -1.3598  0.6678
  283MOL0     C38135   7.615   1.287   3.037 -0.1203  0.8808  0.8903
  283MOL0     C38136   6.946   0.778   3.273 -0.6766  0.1217  0.2765
  283MOL0     C38137   6.869   0.695   3.353 -0.0874 -0.5341 -0.1444
  283MOL0     H38138   6.464   0.591   3.567  1.8206 -1.3620 -4.3606
  283MOL0     H38139   6.346   0.483   3.760  1.0234 -0.2468  1.8272
  283MOL0     H38140   6.377   0.058   3.931 -0.1530 -0.0177 -1.1584
  283MOL0     H38141   6.496   0.063   3.817 -0.0540 -2.9099  0.7962
  283MOL0     H38142   6.601   0.226   4.039 -0.0020  0.4322  1.1487
  283MOL0     H38143   6.496   0.119   4.112 -2.4439  0.6953 -1.8124
  283MOL0     H38144   6.702   0.032   3.906  0.2542  3.6528  0.6023
  283MOL0     H38145   6.742   0.047   4.072 -2.3526  1.4858  0.3758
  283MOL0     H38146   6.497  -0.115   4.023 -0.0622 -1.1305  0.3051
  283MOL0     H38147   6.647  -0.204   3.991  0.3184 -0.3519  1.5578
  283MOL0     H38148   6.712  -0.123   4.227 -0.6184 -0.8700 -1.9199
  283MOL0     H38149   6.546  -0.072   4.253 -1.8786  0.7802 -2.2549
  283MOL0     H38150   6.500  -0.331   4.209  0.2793  1.2904 -1.1374
  283MOL0     H38151   6.667  -0.349   4.178 -2.0490 -3.1768  0.3653
  283MOL0     H38152   6.667  -0.428   4.387 -2.0588  0.3499  1.6846
  283MOL0     H38153   6.737  -0.266   4.402  0.6623 -0.8981 -0.2140
  283MOL0     H38154   6.450  -0.323   4.438  1.3155  2.2800 -3.0486
  283MOL0     H38155   6.555  -0.186   4.500  1.5954 -0.0357 -1.4870
  283MOL0     H38156   6.509  -0.575   4.591  1.5717 -1.7724 -0.1395
  283MOL0     H38157   6.520  -0.674   4.848 -0.6413  0.3234 -0.8421
  283MOL0     H38158   6.675  -0.729   4.796  0.8485 -0.8852  1.6117
  283MOL0     H38159   6.667  -0.733   5.025  2.4708 -0.7510  0.0283
  283MOL0     H38160   6.635  -0.556   5.036 -2.6220  0.5153 -1.8181
  283MOL0     H38161   6.851  -0.637   5.091  2.5142  0.4759 -0.0839
  283MOL0     H38162   6.881  -0.531   4.950  1.6587 -1.4565 -1.9158
  283MOL0     H38163   6.898  -0.685   4.800 -1.2408  1.4048  1.6097
  283MOL0     H38164   6.861  -0.822   4.896  0.5675  0.1834 -1.0531
  283MOL0     H38165   7.032  -0.835   4.680 -0.3837  0.4634  0.4131
  283MOL0     H38166   7.102  -0.934   4.494 -0.8494 -4.1243 -1.7379
  283MOL0     H38167   7.271  -0.891   4.463  0.4263 -1.4143 -1.3019
  283MOL0     H38168   7.228  -1.057   4.506  0.4712 -0.0596 -0.8327
  283MOL0     H38169   7.665  -0.863   4.520  3.0251  0.8182 -1.9923
  283MOL0     H38170   7.882  -0.879   4.418 -3.0414  4.8793  1.2798
  283MOL0     H38171   8.067  -1.057   4.323 -0.4516 -0.6845 -0.9670
  283MOL0     H38172   8.099  -0.881   4.346  1.7164  0.1036 -0.0605
  283MOL0     H38173   8.328  -0.975   4.464  1.2309 -2.7592 -0.2344
  283MOL0     H38174   8.281  -1.120   4.381 -1.8110  0.3367 -1.3115
  283MOL0     H38175   8.387  -0.859   4.244  1.4172  0.0659 -1.6724
  283MOL0     H38176   8.282  -0.967   4.158  3.5162  0.6791 -3.8347
  283MOL0     H38177   8.510  -1.080   4.332 -0.3362 -1.0192  0.6359
  283MOL0     H38178   8.431  -1.169   4.213 -0.4919  1.0376 -0.3598
  283MOL0     H38179   8.635  -0.945   4.204  3.1897 -2.3540  0.2683
  283MOL0     H38180   8.539  -0.957   4.059 -0.6478  0.5391  0.3294
  283MOL0     H38181   8.717  -1.151   4.222 -1.7753  1.5422  1.2783
  283MOL0     H38182   8.635  -1.211   4.081  0.4645  0.0083 -2.0458
  283MOL0     H38183   8.870  -1.011   4.105  0.7608 -1.2869  0.9750
  283MOL0     H38184   8.775  -1.019   3.950 -1.8605  0.2838  0.4794
  283MOL0     H38185   8.813  -1.243   3.915 -4.6074  3.1515  2.0591
  283MOL0     H38186   8.885  -1.271   4.088 -0.9323  0.0956  0.8642
  283MOL0     H38187   8.043  -1.068   4.756 -0.2730  4.1712  2.2854
  283MOL0     H38188   7.819  -1.075   4.872  1.6469 -2.4240 -0.9876
  283MOL0     H38189   7.450  -0.912   4.938  0.3424 -0.2684  0.0982
  283MOL0     H38190   7.244  -0.829   5.051  1.2402 -1.0460  0.5575
  283MOL0     H38191   6.667   0.185   3.751 -1.5709 -0.9299  2.9514
  283MOL0     H38192   6.793   0.352   3.605 -0.2964  1.1223  1.1076
  283MOL0     H38193   6.860   0.444   3.119 -0.5178 -0.4259  0.8264
  283MOL0     H38194   7.031   0.564   3.023 -3.8012 -0.1080 -2.4427
  283MOL0     H38195   7.086   1.024   3.079  0.2847  0.7647  1.1155
  283MOL0     H38196   7.170   0.930   3.205  1.3428  2.7158  0.2234
  283MOL0     H38197   7.232   0.929   2.904 -1.8979 -1.8439  0.7345
  283MOL0     H38198   7.344   0.861   3.017 -1.2119 -1.1993 -1.0541
  283MOL0     H38199   7.343   1.112   3.129  1.1064  1.1530  0.4307
  283MOL0     H38200   7.300   1.157   2.964  1.2201 -0.0358 -0.0869
  283MOL0     H38201   7.510   1.055   2.867 -0.5503 -1.1606 -0.8615
  283MOL0     H38202   7.549   0.976   3.005 -2.1600 -0.9409  2.4677
  283MOL0     H38203   7.683   1.365   3.065  2.1746 -1.0962  1.1325
  283MOL0     H38204   6.963   0.878   3.309 -1.3771 -0.6648  2.9705
  283MOL0     H38205   6.827   0.758   3.431  0.5068 -0.0361 -0.2200
  284MOL0     O38206  10.755  11.526   3.654 -0.0208  0.2060  0.2303
  284MOL0     C38207  10.819  11.424   3.691  0.1073 -0.0970  0.3090
  284MOL0     O38208  10.792  11.348   3.805 -0.1666 -0.6401 -0.0220
  284MOL0     C38209  10.687  11.379   3.884  0.0951  0.0685 -0.5540
  284MOL0     C38210  10.661  11.508   3.940 -0.0091  0.2679  0.4094
  284MOL0     C38211  10.541  11.524   4.028 -0.0830  0.2389  0.3181
  284MOL0     C38212  10.453  11.417   4.047 -0.0540 -0.0671 -0.0094
  284MOL0     O38213  10.335  11.428   4.117  0.0315  0.5822 -0.1566
  284MOL0     C38214  10.287  11.553   4.178  0.6945  0.2594  0.8032
  284MOL0     C38215  10.194  11.510   4.291  0.8796  0.7139  0.2865
  284MOL0     C38216  10.169  11.613   4.403  0.1853 -0.1286  0.9891
  284MOL0     C38217  10.281  11.588   4.511  0.0382  0.4748  0.0816
  284MOL0     C38218  10.300  11.723   4.583 -0.0703 -1.0734  0.0672
  284MOL0     C38219  10.390  11.707   4.697 -0.1722  0.8551 -0.4242
  284MOL0     C38220  10.412  11.834   4.790  0.1532  0.8655  0.4430
  284MOL0     C38221  10.281  11.899   4.840  0.8755  0.5491  0.6303
  284MOL0     N38222  10.201  11.809   4.922 -0.2769 -0.5479 -0.4829
  284MOL0     C38223  10.244  11.725   5.013 -1.0699 -0.4622  0.6163
  284MOL0     C38224  10.125  11.702   5.070  0.1907  0.7359 -0.2996
  284MOL0     C38225  10.106  11.594   5.176 -0.8752  0.4884  0.3921
  284MOL0     C38226  10.018  11.636   5.292  0.4672  0.0772  0.1732
  284MOL0     C38227   9.868  11.675   5.265 -0.5773 -0.3910  0.2939
  284MOL0     C38228   9.792  11.584   5.179 -0.3264  0.3651 -0.4683
  284MOL0     O38229   9.737  11.464   5.251 -0.3778 -0.3873  0.0188
  284MOL0     C38230   9.622  11.412   5.204 -1.0895  0.5940 -0.5365
  284MOL0     C38231   9.584  11.415   5.069  0.8500 -0.2585 -0.3197
  284MOL0     C38232   9.463  11.352   5.033  0.0889 -1.3128 -0.4642
  284MOL0     C38233   9.414  11.384   4.894  0.2733  0.2017 -0.0472
  284MOL0     C38234   9.381  11.286   5.131  0.3355  0.5671  0.6427
  284MOL0     C38235   9.252  11.230   5.104 -0.7295 -0.1052 -0.6752
  284MOL0     O38236   9.191  11.183   5.215  0.3183  0.0819  0.1797
  284MOL0     C38237   9.056  11.161   5.209  0.3468  0.3277 -0.3159
  284MOL0     C38238   8.957  11.262   5.215 -0.0546 -0.4494  0.1396
  284MOL0     C38239   8.822  11.225   5.204  0.5842 -0.2078  0.1388
  284MOL0     C38240   8.774  11.093   5.198 -0.3151  0.4919  0.6637
  284MOL0     O38241   8.640  11.074   5.182 -1.7590 -0.0140 -0.1265
  284MOL0     C38242   8.600  10.935   5.180  0.2133  0.2734  0.1777
  284MOL0     C38243   8.463  10.915   5.115  0.0782  0.0644  0.4338
  284MOL0     C38244   8.350  10.945   5.213 -1.0143  0.0136 -0.5182
  284MOL0     C38245   8.335  11.094   5.250  0.1095 -0.0596  0.8741
  284MOL0     C38246   8.185  11.125   5.307  0.0461  0.6910  0.7687
  284MOL0     C38247   8.069  11.101   5.211  0.4907  0.1601 -1.0523
  284MOL0     C38248   7.945  11.146   5.287 -0.1085  0.5370 -0.1723
  284MOL0     C38249   7.821  11.147   5.207  0.2145 -0.6212  0.4041
  284MOL0    Cl38250   7.672  11.100   5.296  0.4677 -0.3444 -0.3915
  284MOL0     C38251   8.879  10.996   5.205  0.2425 -0.0782  0.3769
  284MOL0     C38252   9.011  11.030   5.195 -0.1218  0.3568  0.0395
  284MOL0     O38253   9.205  11.223   4.995  0.0660  0.0431  0.6412
  284MOL0     C38254   9.437  11.264   5.259 -0.0526  0.2082  0.6122
  284MOL0     C38255   9.559  11.326   5.290  1.1988  0.7506 -0.2168
  284MOL0     N38256  10.013  11.766   5.016  0.7013 -0.4871  0.4189
  284MOL0     N38257  10.064  11.822   4.917  0.4016  0.3754 -0.2393
  284MOL0     C38258  10.498  11.294   4.002 -0.2469 -0.3351 -0.6847
  284MOL0     C38259  10.607  11.269   3.919 -0.3271  0.5784 -1.1453
  284MOL0     C38260  10.939  11.397   3.602 -0.3105  0.1036  0.5578
  284MOL0     C38261  10.995  11.503   3.528 -0.9700  0.5239 -0.4744
  284MOL0     C38262  11.107  11.476   3.449 -0.4423 -0.2872 -0.3887
  284MOL0     C38263  11.160  11.347   3.434 -0.2864 -0.3877  1.2175
  284MOL0     O38264  11.280  11.316   3.366  0.4260  0.0863  0.6579
  284MOL0     C38265  11.359  11.422   3.303  0.2553  0.7273  0.0670
  284MOL0     C38266  11.404  11.383   3.156  0.6784  0.8308 -0.3937
  284MOL0     C38267  11.275  11.335   3.081  0.7402 -0.7725  0.4308
  284MOL0     C38268  11.299  11.310   2.932 -0.5227 -0.1067 -0.2086
  284MOL0     C38269  11.317  11.431   2.856 -0.2261  1.1269  0.1148
  284MOL0     C38270  11.335  11.540   2.796 -0.3750 -0.4170 -0.7308
  284MOL0     C38271  11.088  11.244   3.503  0.9839  0.1337  0.7989
  284MOL0     C38272  10.990  11.270   3.590 -0.0603  1.0983  0.2788
  284MOL0     H38273  10.722  11.590   3.903  0.4245  0.6509  1.9150
  284MOL0     H38274  10.526  11.622   4.073  1.1685 -0.3739  2.2275
  284MOL0     H38275  10.362  11.625   4.214  0.4578  2.1655 -2.1867
  284MOL0     H38276  10.216  11.603   4.112  0.9022  0.2645  0.5852
  284MOL0     H38277  10.099  11.483   4.245  3.1150 -0.3202 -4.3662
  284MOL0     H38278  10.243  11.421   4.333  1.2320  0.4613 -0.6395
  284MOL0     H38279  10.186  11.710   4.354 -1.5453 -1.7123 -3.1967
  284MOL0     H38280  10.067  11.598   4.442  0.1165  0.8283  1.2146
  284MOL0     H38281  10.253  11.518   4.591  0.8293  2.6263  2.3563
  284MOL0     H38282  10.377  11.559   4.467 -0.6827 -0.9189 -0.6742
  284MOL0     H38283  10.329  11.801   4.513 -2.8499 -1.8482 -2.1570
  284MOL0     H38284  10.205  11.760   4.622  0.8736  0.6734  0.8152
  284MOL0     H38285  10.363  11.622   4.760  0.0103  0.8613 -0.3385
  284MOL0     H38286  10.486  11.682   4.650 -1.1205 -2.0951 -1.0422
  284MOL0     H38287  10.471  11.807   4.878  2.8791 -0.4372 -1.6269
  284MOL0     H38288  10.476  11.908   4.740  3.3954 -1.4248  0.8393
  284MOL0     H38289  10.204  11.924   4.767 -1.4769 -2.8020  1.7303
  284MOL0     H38290  10.306  11.986   4.902  0.8202  3.1369 -2.7281
  284MOL0     H38291  10.336  11.672   5.033 -2.2003 -1.4575  3.7676
  284MOL0     H38292  10.085  11.498   5.127  0.1519  0.8035 -0.7091
  284MOL0     H38293  10.199  11.561   5.224 -2.2150 -3.2157  0.7507
  284MOL0     H38294  10.064  11.717   5.349 -0.9899  2.0402 -1.3252
  284MOL0     H38295  10.027  11.550   5.360  1.6272  0.0787  0.0297
  284MOL0     H38296   9.885  11.772   5.216 -0.6040 -0.7376 -0.4176
  284MOL0     H38297   9.817  11.697   5.360  1.0523 -1.1107  1.3787
  284MOL0     H38298   9.861  11.551   5.100 -1.3021  1.8775 -2.0202
  284MOL0     H38299   9.704  11.633   5.137 -2.8200 -3.0146  0.3152
  284MOL0     H38300   9.633  11.479   4.997 -1.0587 -2.0365 -3.4637
  284MOL0     H38301   9.326  11.449   4.894  1.1949  1.4763  0.1362
  284MOL0     H38302   9.487  11.442   4.837 -2.7656  3.2437 -1.1886
  284MOL0     H38303   9.388  11.300   4.829  1.0561  1.9628 -2.8101
  284MOL0     H38304   8.991  11.364   5.232  1.6581 -0.8728 -0.5901
  284MOL0     H38305   8.750  11.306   5.214  0.6144 -0.4597  3.4359
  284MOL0     H38306   8.675  10.879   5.122  2.2092  1.6706  1.3020
  284MOL0     H38307   8.603  10.890   5.279 -2.2324  1.4204  0.8453
  284MOL0     H38308   8.441  10.973   5.025 -1.5674  1.7086  1.8222
  284MOL0     H38309   8.452  10.809   5.089 -0.3886 -0.4157  2.3850
  284MOL0     H38310   8.367  10.894   5.308  0.3083  0.2097 -0.6265
  284MOL0     H38311   8.259  10.904   5.168 -0.5618 -0.3842 -1.0838
  284MOL0     H38312   8.410  11.131   5.321  2.1785 -1.1623 -0.6362
  284MOL0     H38313   8.336  11.152   5.157 -2.2049 -1.7483 -0.2926
  284MOL0     H38314   8.190  11.231   5.336 -0.6697  0.0034  3.6455
  284MOL0     H38315   8.155  11.069   5.396  1.4858  1.2231  1.6219
  284MOL0     H38316   8.090  11.151   5.115 -0.9023  2.9013 -0.0415
  284MOL0     H38317   8.064  10.997   5.177  3.3631  0.2175 -1.8933
  284MOL0     H38318   7.964  11.246   5.326 -1.0800  1.1648 -1.2473
  284MOL0     H38319   7.920  11.078   5.369  0.4777 -0.5921 -0.8927
  284MOL0     H38320   7.833  11.068   5.132  1.3175 -0.0349 -0.0448
  284MOL0     H38321   7.787  11.242   5.165  0.3191 -1.8202 -2.5990
  284MOL0     H38322   8.851  10.893   5.226 -3.7050  1.2088  2.4216
  284MOL0     H38323   9.084  10.949   5.194  3.7584  3.5364 -0.8940
  284MOL0     H38324   9.387  11.204   5.335 -0.9605  2.2475  1.6919
  284MOL0     H38325   9.579  11.318   5.396 -0.9396 -3.3915  0.0851
  284MOL0     H38326  10.430  11.214   4.030  0.3429 -1.8538 -3.2085
  284MOL0     H38327  10.638  11.169   3.888 -1.8147 -1.8224  4.0154
  284MOL0     H38328  10.955  11.604   3.522  0.0584  1.1679  1.9797
  284MOL0     H38329  11.149  11.564   3.400  0.3216 -2.0182 -3.0548
  284MOL0     H38330  11.319  11.523   3.317 -0.4316 -0.0216  5.4330
  284MOL0     H38331  11.446  11.451   3.362 -2.5558  7.1362  1.9661
  284MOL0     H38332  11.473  11.298   3.157  0.5923  0.7586 -0.5501
  284MOL0     H38333  11.462  11.467   3.117  3.4461 -0.8318 -0.1049
  284MOL0     H38334  11.199  11.414   3.076  0.1621 -1.3801 -1.6282
  284MOL0     H38335  11.239  11.240   3.121 -3.1193  0.4866  0.4380
  284MOL0     H38336  11.215  11.248   2.900  0.3079 -3.7692  3.8048
  284MOL0     H38337  11.384  11.242   2.918 -1.2317 -1.0702  0.0632
  284MOL0     H38338  11.346  11.638   2.753 -0.9842  0.2462  0.5422
  284MOL0     H38339  11.133  11.146   3.496 -0.0124 -0.4520  2.3440
  284MOL0     H38340  10.936  11.189   3.637  0.0923  2.0365  2.1516
  285MOL0     O38341   2.211   0.420   8.335 -0.1404  0.1393 -0.1888
  285MOL0     C38342   2.295   0.402   8.423  0.4121 -0.5607 -0.7573
  285MOL0     O38343   2.272   0.420   8.563  0.0040 -0.9257 -0.3664
  285MOL0     C38344   2.145   0.469   8.600 -0.2010  0.4599  0.5612
  285MOL0     C38345   2.087   0.588   8.544  1.1091  0.3443  0.5745
  285MOL0     C38346   1.956   0.633   8.579 -0.5580 -0.1566 -0.7221
  285MOL0     C38347   1.888   0.578   8.689  0.0034 -0.5992  0.3401
  285MOL0     O38348   1.768   0.625   8.730 -0.4483 -0.1528 -0.6722
  285MOL0     C38349   1.767   0.761   8.783 -0.5570  0.5539 -0.6845
  285MOL0     C38350   1.823   0.769   8.922 -0.3925 -0.3034 -0.0895
  285MOL0     C38351   1.765   0.907   8.994  0.3434 -0.6928  0.7375
  285MOL0     C38352   1.841   0.945   9.116 -0.4550  0.2939 -0.6767
  285MOL0     C38353   1.804   1.080   9.172 -0.8752 -0.3979 -0.3440
  285MOL0     C38354   1.659   1.115   9.183 -0.4714 -0.2866  0.6752
  285MOL0     C38355   1.556   1.026   9.255  0.2196  0.1315 -0.0446
  285MOL0     C38356   1.433   1.111   9.268  0.3719  0.9206 -0.2742
  285MOL0     N38357   1.365   1.115   9.136  0.0989 -0.3041  0.0573
  285MOL0     C38358   1.390   1.224   9.047  0.0020  1.0534 -0.4151
  285MOL0     C38359   1.315   1.196   8.940  0.6772 -0.4272  0.0996
  285MOL0     C38360   1.271   1.288   8.825 -0.5056 -1.2675 -0.5531
  285MOL0     C38361   1.369   1.411   8.784  0.2723  0.9289 -1.0152
  285MOL0     C38362   1.309   1.548   8.753 -0.4278 -0.3035  0.7715
  285MOL0     C38363   1.252   1.543   8.610  0.6480 -0.3471 -0.2317
  285MOL0     O38364   1.352   1.519   8.506  0.4357 -0.3886  0.9290
  285MOL0     C38365   1.470   1.597   8.513  0.2963  0.2297 -0.1845
  285MOL0     C38366   1.586   1.540   8.480  0.5360 -1.1489 -0.0323
  285MOL0     C38367   1.708   1.616   8.475  0.3770  0.2310 -0.1923
  285MOL0     C38368   1.840   1.552   8.453 -0.2612 -0.0531  0.4164
  285MOL0     C38369   1.704   1.748   8.512  0.0134 -0.3129 -0.3898
  285MOL0     C38370   1.825   1.831   8.526 -0.8543  0.7091  0.2281
  285MOL0     O38371   1.832   1.927   8.434  0.9989 -0.3053  0.9173
  285MOL0     C38372   1.916   2.026   8.447 -0.8653 -0.7766 -0.1983
  285MOL0     C38373   2.026   2.035   8.366 -0.0766  0.7001 -0.3614
  285MOL0     C38374   2.127   2.132   8.391  0.1163  0.4701  0.5703
  285MOL0     C38375   2.119   2.215   8.500  0.0569 -0.3344  1.1970
  285MOL0     O38376   2.223   2.299   8.520  0.2805 -0.3551  0.2512
  285MOL0     C38377   2.277   2.308   8.660 -0.2616  0.2626  0.3677
  285MOL0     C38378   2.271   2.458   8.701 -0.2650  0.8756 -0.3150
  285MOL0     C38379   2.372   2.540   8.620 -0.6530 -0.2923  0.9287
  285MOL0     C38380   2.337   2.687   8.659  1.2574  1.0570 -0.3811
  285MOL0     C38381   2.423   2.789   8.579  0.3805 -0.8075  0.3763
  285MOL0     C38382   2.415   2.934   8.625  0.5587 -0.2536  0.6043
  285MOL0     C38383   2.289   3.016   8.598  0.0184  0.5783 -0.2120
  285MOL0     C38384   2.163   2.967   8.652 -0.4705 -0.9301  0.8235
  285MOL0    Cl38385   2.040   3.102   8.685 -0.0173  0.8180 -0.1826
  285MOL0     C38386   2.006   2.207   8.580  0.2120  0.0134 -0.0394
  285MOL0     C38387   1.908   2.113   8.549  0.3475 -0.0245 -1.1990
  285MOL0     O38388   1.916   1.803   8.611 -0.4866  0.0906  0.6750
  285MOL0     C38389   1.585   1.809   8.535  0.3517  0.5672 -0.4883
  285MOL0     C38390   1.473   1.730   8.548  0.2667 -1.1063 -0.3928
  285MOL0     N38391   1.262   1.065   8.962 -0.7256 -0.0486  0.6584
  285MOL0     N38392   1.283   1.024   9.082 -0.0481 -0.8138  0.2641
  285MOL0     C38393   1.950   0.464   8.745  0.2799 -0.8366 -0.5211
  285MOL0     C38394   2.073   0.403   8.700  0.7400  0.6519 -0.1388
  285MOL0     C38395   2.404   0.328   8.377 -0.4043  0.3229  0.8446
  285MOL0     C38396   2.505   0.285   8.467 -0.2862  0.4835 -0.2438
  285MOL0     C38397   2.625   0.236   8.430 -0.3668  0.1299 -0.0223
  285MOL0     C38398   2.653   0.229   8.293 -0.3402 -0.1546  0.4518
  285MOL0     O38399   2.780   0.204   8.244  0.2150 -0.2194  0.8054
  285MOL0     C38400   2.883   0.136   8.309 -0.7564 -0.2719 -0.8402
  285MOL0     C38401   2.991   0.104   8.205 -0.3497 -0.0305 -0.5948
  285MOL0     C38402   3.100   0.009   8.259  0.7577  0.4937 -0.3332
  285MOL0     C38403   3.196  -0.034   8.148  0.0957 -0.0142  0.3064
  285MOL0     C38404   3.290   0.082   8.134 -1.3307  0.3553 -0.3162
  285MOL0     C38405   3.368   0.184   8.143 -0.3117  0.2814  0.8444
  285MOL0     C38406   2.557   0.263   8.202 -0.6300  0.0600 -0.1478
  285MOL0     C38407   2.432   0.307   8.238 -0.4914 -0.7546  0.5778
  285MOL0     H38408   2.133   0.645   8.464 -0.1644  1.8231  0.8532
  285MOL0     H38409   1.896   0.714   8.540 -3.0271 -1.3017  0.3909
  285MOL0     H38410   1.839   0.819   8.726  3.5275 -2.4275  0.9305
  285MOL0     H38411   1.667   0.807   8.781 -1.3918 -1.2147 -1.6458
  285MOL0     H38412   1.807   0.671   8.968  0.5547 -0.4424 -0.0448
  285MOL0     H38413   1.932   0.778   8.917 -0.2625 -1.3298  0.5414
  285MOL0     H38414   1.762   0.984   8.917 -2.0248 -0.8738  0.5595
  285MOL0     H38415   1.658   0.896   9.014 -0.1724  0.5191 -1.1615
  285MOL0     H38416   1.823   0.864   9.187 -1.8059  0.3211 -0.9534
  285MOL0     H38417   1.950   0.948   9.103 -0.1626  0.6456  1.4943
  285MOL0     H38418   1.842   1.092   9.273 -0.4872 -0.8223 -0.4352
  285MOL0     H38419   1.865   1.148   9.111  2.9443 -1.7699  1.6219
  285MOL0     H38420   1.662   1.216   9.225 -1.4999  1.3834 -2.8419
  285MOL0     H38421   1.635   1.129   9.077  0.4376  0.5500  0.5605
  285MOL0     H38422   1.539   0.937   9.193 -0.0800  0.6720 -0.7481
  285MOL0     H38423   1.589   0.996   9.355  1.5005  1.4986 -0.0293
  285MOL0     H38424   1.452   1.202   9.325  2.0277  0.4148  0.0451
  285MOL0     H38425   1.372   1.049   9.334  1.7714 -2.6516 -2.0148
  285MOL0     H38426   1.425   1.324   9.070  0.4045  1.0087 -0.8351
  285MOL0     H38427   1.254   1.225   8.737 -0.9675 -1.8403 -0.0624
  285MOL0     H38428   1.172   1.310   8.866 -0.0128 -1.6772  0.9096
  285MOL0     H38429   1.424   1.382   8.694  0.3702  1.5151 -1.1489
  285MOL0     H38430   1.423   1.430   8.878 -1.0970  1.8056 -0.3780
  285MOL0     H38431   1.387   1.624   8.767  0.2314 -0.9393  0.6326
  285MOL0     H38432   1.226   1.569   8.821 -2.5573 -1.5361 -1.2836
  285MOL0     H38433   1.199   1.637   8.590  0.8001  0.6163  3.2533
  285MOL0     H38434   1.194   1.451   8.601 -0.5906  0.3044  0.7911
  285MOL0     H38435   1.591   1.436   8.451 -0.5980 -1.5175  1.0147
  285MOL0     H38436   1.912   1.616   8.399 -1.2938  0.4051 -0.4492
  285MOL0     H38437   1.882   1.516   8.547  1.1041  2.3928  0.8309
  285MOL0     H38438   1.812   1.463   8.396  1.7488 -0.2736 -0.3144
  285MOL0     H38439   2.039   1.973   8.278 -1.0092  0.7498 -0.5499
  285MOL0     H38440   2.215   2.141   8.328  0.3890  0.0421  0.8792
  285MOL0     H38441   2.233   2.240   8.734 -0.6677 -1.3276 -1.2564
  285MOL0     H38442   2.378   2.267   8.667 -1.1259 -1.7315  3.0126
  285MOL0     H38443   2.167   2.492   8.699  0.2094  2.4676  0.5844
  285MOL0     H38444   2.299   2.455   8.806  2.1072  1.4483 -0.8683
  285MOL0     H38445   2.364   2.521   8.512  0.8298  3.2133  0.0520
  285MOL0     H38446   2.470   2.503   8.651 -0.9801 -3.9118 -1.6788
  285MOL0     H38447   2.229   2.700   8.642  0.1809 -3.8432  1.0301
  285MOL0     H38448   2.344   2.714   8.765  0.9251  1.0418 -0.3524
  285MOL0     H38449   2.415   2.779   8.471  0.0242 -2.2042  0.5055
  285MOL0     H38450   2.529   2.770   8.596  0.6306  1.7962  2.3078
  285MOL0     H38451   2.417   2.941   8.734 -0.5098  2.3491  0.5444
  285MOL0     H38452   2.494   2.997   8.582 -0.0957  0.7059  0.7761
  285MOL0     H38453   2.280   3.022   8.489  0.9217 -0.0442 -0.3344
  285MOL0     H38454   2.304   3.119   8.633  0.4327  1.5236 -2.8942
  285MOL0     H38455   2.182   2.915   8.746  4.1199 -2.9586 -0.9198
  285MOL0     H38456   2.126   2.890   8.583  1.7290 -0.7286 -0.6753
  285MOL0     H38457   1.993   2.279   8.661  2.0541  0.3493 -0.0032
  285MOL0     H38458   1.830   2.104   8.624  1.7467 -0.1551  0.2871
  285MOL0     H38459   1.583   1.912   8.571  3.7676  0.6302 -0.1487
  285MOL0     H38460   1.382   1.780   8.581  2.1429  2.9415 -0.7835
  285MOL0     H38461   1.898   0.417   8.828 -3.0752  0.3903 -1.7632
  285MOL0     H38462   2.117   0.319   8.754 -0.1381 -0.0891 -0.5509
  285MOL0     H38463   2.479   0.295   8.572 -3.2705 -2.6106 -0.5231
  285MOL0     H38464   2.689   0.207   8.512 -1.8753 -1.6486  0.5879
  285MOL0     H38465   2.922   0.195   8.392 -2.8140 -0.0721  0.0490
  285MOL0     H38466   2.849   0.040   8.350 -2.3987 -1.6376 -4.8845
  285MOL0     H38467   3.041   0.198   8.179  0.9450  0.6791  3.6036
  285MOL0     H38468   2.942   0.059   8.118 -3.3619  1.2228  0.3533
  285MOL0     H38469   3.049  -0.079   8.298 -2.6021  2.6283  0.4597
  285MOL0     H38470   3.149   0.054   8.346 -1.6911 -0.1869  1.5124
  285MOL0     H38471   3.138  -0.067   8.062 -0.1118 -0.1967  0.5161
  285MOL0     H38472   3.248  -0.123   8.184 -0.2785 -0.2068  0.3753
  285MOL0     H38473   3.423   0.276   8.136  1.8052 -0.7816  2.4092
  285MOL0     H38474   2.583   0.253   8.097 -1.4074 -2.5561 -0.1638
  285MOL0     H38475   2.363   0.337   8.160  0.3095  0.7506  0.4126
  286MOL0     O38476   1.814   2.644   6.215 -0.7960 -0.1683  0.0320
  286MOL0     C38477   1.763   2.689   6.108 -0.0205 -0.4519 -1.0294
  286MOL0     O38478   1.787   2.810   6.051  0.8516  0.1350 -0.4378
  286MOL0     C38479   1.912   2.863   6.090  0.0765  0.5962 -0.9621
  286MOL0     C38480   1.948   2.899   6.217  0.7322 -0.9730 -0.3641
  286MOL0     C38481   2.074   2.953   6.254 -1.1116  0.3380  0.4371
  286MOL0     C38482   2.177   2.957   6.158  0.0315 -0.9403  0.3160
  286MOL0     O38483   2.316   2.982   6.163  0.2497 -0.4257 -0.9435
  286MOL0     C38484   2.356   3.006   6.303  0.9431 -0.1116 -0.2515
  286MOL0     C38485   2.506   2.992   6.336 -0.2873  0.1236 -0.0327
  286MOL0     C38486   2.588   3.130   6.321 -0.4740  0.0176  0.2593
  286MOL0     C38487   2.575   3.192   6.183  0.5561  0.8531  0.2251
  286MOL0     C38488   2.649   3.328   6.170  0.0567  0.2011  1.0674
  286MOL0     C38489   2.802   3.308   6.171 -0.6924 -0.1492  0.1317
  286MOL0     C38490   2.884   3.430   6.130 -0.3645 -0.5945 -0.0253
  286MOL0     C38491   2.936   3.514   6.251 -0.7498  0.3896 -0.0243
  286MOL0     N38492   2.936   3.664   6.240 -0.4610  0.4633  0.5873
  286MOL0     C38493   3.025   3.737   6.153 -0.7050  0.2869  0.4131
  286MOL0     C38494   3.009   3.861   6.202  0.3625  0.9520  1.1161
  286MOL0     C38495   3.053   3.988   6.152 -0.2417 -0.4946  0.0826
  286MOL0     C38496   3.019   4.023   6.007 -0.8649  0.2591  0.0228
  286MOL0     C38497   2.891   4.110   5.974 -0.0359 -0.2893  0.2165
  286MOL0     C38498   2.761   4.046   6.035 -0.1296 -0.2580 -0.4754
  286MOL0     O38499   2.729   3.922   5.973 -0.2748  0.7368 -0.4955
  286MOL0     C38500   2.611   3.874   6.025  0.5164 -0.0199  0.9789
  286MOL0     C38501   2.496   3.939   5.974 -0.3395 -0.2095 -0.2629
  286MOL0     C38502   2.371   3.919   6.041 -0.6694 -0.5003 -0.8852
  286MOL0     C38503   2.262   4.016   5.987  0.2661  0.5917 -1.1911
  286MOL0     C38504   2.369   3.830   6.150  0.1131  0.4485  0.7819
  286MOL0     C38505   2.252   3.812   6.240  0.2859  0.1930  0.6488
  286MOL0     O38506   2.145   3.886   6.212 -0.4372 -0.9304 -0.0716
  286MOL0     C38507   2.037   3.883   6.296  1.0514  0.7209  1.6739
  286MOL0     C38508   1.938   3.783   6.287 -0.0693  0.5169 -0.4992
  286MOL0     C38509   1.824   3.796   6.365 -0.2740  0.2331 -0.3930
  286MOL0     C38510   1.791   3.919   6.439 -0.9567  1.2514  0.9554
  286MOL0     O38511   1.684   3.937   6.519  0.1510  0.5276  0.4337
  286MOL0     C38512   1.556   3.880   6.468  0.0717  0.9015 -0.3717
  286MOL0     C38513   1.446   3.861   6.578 -0.5229 -0.7620 -0.4145
  286MOL0     C38514   1.333   3.769   6.536 -0.6589 -0.9514  0.4138
  286MOL0     C38515   1.229   3.779   6.648  1.2368  0.5956  0.4966
  286MOL0     C38516   1.104   3.698   6.590 -0.5168 -0.7610  0.9620
  286MOL0     C38517   0.991   3.665   6.689 -0.2520 -0.7678 -0.2550
  286MOL0     C38518   0.890   3.565   6.630 -1.0092  0.9977  0.1487
  286MOL0     C38519   0.813   3.494   6.743 -0.0995 -0.1314  0.4064
  286MOL0    Cl38520   0.717   3.608   6.838  0.2037 -0.4259 -0.4943
  286MOL0     C38521   1.898   4.009   6.445  0.5559  0.0906  0.6041
  286MOL0     C38522   2.016   3.995   6.372  0.0939 -0.6112 -1.1453
  286MOL0     O38523   2.263   3.741   6.343 -1.0562 -1.1124 -0.5816
  286MOL0     C38524   2.485   3.757   6.187 -0.6080  0.6641  0.0593
  286MOL0     C38525   2.608   3.777   6.128 -0.3662 -0.2794  0.0795
  286MOL0     N38526   2.941   3.871   6.319 -0.9690 -0.1508 -0.0568
  286MOL0     N38527   2.887   3.752   6.337  1.0864 -0.6234  0.4247
  286MOL0     C38528   2.130   2.942   6.021  0.4059 -0.3825  0.7672
  286MOL0     C38529   2.000   2.895   5.993 -0.7471  1.3935  0.3643
  286MOL0     C38530   1.645   2.631   6.060  0.0910  0.2946  0.3791
  286MOL0     C38531   1.614   2.632   5.922 -0.2499 -0.4419  0.4459
  286MOL0     C38532   1.486   2.586   5.877 -0.6255 -0.9305  0.7353
  286MOL0     C38533   1.384   2.545   5.970 -0.3101 -0.9213  0.3665
  286MOL0     O38534   1.271   2.503   5.910  0.6142  0.7935  0.0622
  286MOL0     C38535   1.214   2.381   5.944  0.4196 -0.2453  0.2275
  286MOL0     C38536   1.258   2.257   5.852 -0.3206  0.6779 -0.1634
  286MOL0     C38537   1.183   2.129   5.897 -0.7402  0.3483  0.2242
  286MOL0     C38538   1.067   2.093   5.805 -1.1157  0.2207  1.1482
  286MOL0     C38539   1.111   2.040   5.676  0.8513  0.3869 -0.8593
  286MOL0     C38540   1.159   1.994   5.577  0.0431  0.1465 -0.5593
  286MOL0     C38541   1.414   2.538   6.109  0.3374 -0.5915  0.4210
  286MOL0     C38542   1.545   2.581   6.146 -0.4378  0.0962 -0.5755
  286MOL0     H38543   1.874   2.890   6.295 -0.7510 -0.4067 -1.6526
  286MOL0     H38544   2.088   2.966   6.361 -1.7420  0.3266  0.5213
  286MOL0     H38545   2.326   3.104   6.341 -0.3709 -0.3971 -0.4946
  286MOL0     H38546   2.304   2.930   6.361  0.4532  0.6766  0.3745
  286MOL0     H38547   2.492   2.956   6.439  1.7693 -1.6861 -0.3290
  286MOL0     H38548   2.553   2.917   6.273 -0.3187  0.8955 -0.9930
  286MOL0     H38549   2.571   3.202   6.402 -2.9240  2.5898 -2.2978
  286MOL0     H38550   2.690   3.092   6.327  1.2384  3.8473 -1.5340
  286MOL0     H38551   2.583   3.117   6.104 -3.2939 -0.4294  0.8202
  286MOL0     H38552   2.468   3.215   6.180  0.3073 -0.2891  0.1771
  286MOL0     H38553   2.625   3.377   6.076  2.1748  1.2668  1.0204
  286MOL0     H38554   2.611   3.393   6.250  0.4233 -2.4073  3.5360
  286MOL0     H38555   2.831   3.279   6.272  0.4018  2.1207  0.5443
  286MOL0     H38556   2.833   3.220   6.114  3.5916 -1.6053  4.0322
  286MOL0     H38557   2.975   3.391   6.084  1.0194  0.0359  2.0456
  286MOL0     H38558   2.825   3.487   6.058  1.1848  1.1977  0.0439
  286MOL0     H38559   3.040   3.489   6.274 -0.9033 -0.0920  0.1640
  286MOL0     H38560   2.877   3.485   6.338  0.3948  0.0997  0.6691
  286MOL0     H38561   3.064   3.697   6.060 -1.8932 -0.7382  0.3376
  286MOL0     H38562   3.017   4.073   6.210 -1.1928 -0.9891  0.2425
  286MOL0     H38563   3.162   3.982   6.151 -0.2702 -2.2281  1.7873
  286MOL0     H38564   3.018   3.932   5.946  0.4921  1.3328 -1.6729
  286MOL0     H38565   3.101   4.078   5.960 -2.7573  2.9862 -0.3479
  286MOL0     H38566   2.894   4.104   5.865 -0.0093 -2.7656  0.3024
  286MOL0     H38567   2.904   4.211   6.013 -0.0288  0.5952 -1.9542
  286MOL0     H38568   2.691   4.130   6.022  3.3257  2.5621 -2.9024
  286MOL0     H38569   2.774   4.020   6.140  1.2491  1.0505 -0.2790
  286MOL0     H38570   2.513   4.020   5.903  5.5948  1.1960  2.1120
  286MOL0     H38571   2.223   4.090   6.057 -1.8161 -0.7354 -0.8600
  286MOL0     H38572   2.309   4.071   5.904  3.7575 -1.2871 -0.6704
  286MOL0     H38573   2.180   3.952   5.954  0.8994 -0.8716 -0.0634
  286MOL0     H38574   1.957   3.702   6.218 -1.2433  0.9703 -1.3992
  286MOL0     H38575   1.755   3.712   6.357 -0.5858  0.3851  0.6300
  286MOL0     H38576   1.504   3.939   6.391  1.9954 -3.3662 -5.6292
  286MOL0     H38577   1.568   3.780   6.424 -2.0231 -0.7603  2.4954
  286MOL0     H38578   1.500   3.810   6.659 -1.6274 -3.6074 -1.3489
  286MOL0     H38579   1.424   3.960   6.617  2.7155  0.2175 -0.7650
  286MOL0     H38580   1.372   3.667   6.530 -0.0136 -0.6845 -0.0305
  286MOL0     H38581   1.291   3.787   6.437  2.1952 -0.1032 -0.7184
  286MOL0     H38582   1.265   3.749   6.746  2.0096  0.7387  0.2611
  286MOL0     H38583   1.182   3.875   6.672  1.3507  1.5559 -2.5652
  286MOL0     H38584   1.143   3.610   6.538  0.0529  0.7070 -1.2498
  286MOL0     H38585   1.068   3.769   6.515  1.4019  1.5540  2.0809
  286MOL0     H38586   1.030   3.622   6.781  0.0221  0.7995  0.3909
  286MOL0     H38587   0.936   3.756   6.714  3.5530  2.4150 -2.3196
  286MOL0     H38588   0.941   3.492   6.568 -0.4247  1.7223 -0.2342
  286MOL0     H38589   0.821   3.610   6.557  1.2438  0.5911 -2.3710
  286MOL0     H38590   0.876   3.442   6.816  0.8470  2.6595  1.7011
  286MOL0     H38591   0.750   3.414   6.703  1.8074 -1.4702 -0.1046
  286MOL0     H38592   1.886   4.086   6.521  1.3871  1.5938 -0.7370
  286MOL0     H38593   2.083   4.080   6.375 -1.5595  0.7781 -1.4556
  286MOL0     H38594   2.484   3.682   6.266  1.5991 -1.4011 -1.7168
  286MOL0     H38595   2.694   3.715   6.152  1.5551  1.9610 -0.6736
  286MOL0     H38596   2.195   2.943   5.935 -2.1087  0.8885 -1.2557
  286MOL0     H38597   1.962   2.876   5.892 -0.1831  1.0807  0.2062
  286MOL0     H38598   1.675   2.677   5.843 -2.8574  3.6108  0.4440
  286MOL0     H38599   1.451   2.598   5.775 -1.2632 -1.8569  0.8330
  286MOL0     H38600   1.227   2.356   6.050 -1.6599  2.3948  1.2174
  286MOL0     H38601   1.108   2.390   5.918  0.4120 -2.2279 -0.6404
  286MOL0     H38602   1.365   2.244   5.870 -0.2232  2.6615  0.8873
  286MOL0     H38603   1.261   2.286   5.746  2.3068 -1.6504 -0.8657
  286MOL0     H38604   1.134   2.134   5.995  1.4996 -3.6565  1.7773
  286MOL0     H38605   1.257   2.048   5.896 -1.0066  0.0738 -1.8961
  286MOL0     H38606   1.000   2.175   5.779 -1.0927 -0.4287 -1.1881
  286MOL0     H38607   1.008   2.013   5.851 -0.0301 -2.1067 -1.2254
  286MOL0     H38608   1.207   1.962   5.487 -2.4947  1.6682 -2.5929
  286MOL0     H38609   1.335   2.531   6.183  0.1344 -0.8281  0.1846
  286MOL0     H38610   1.560   2.595   6.253  0.6562 -1.2397 -0.5282
  287MOL0     O38611   2.882   4.380   4.529  0.3054  0.0027 -0.1988
  287MOL0     C38612   2.981   4.426   4.465  0.6173  0.1381  0.5951
  287MOL0     O38613   2.969   4.531   4.381 -0.2960  0.0266  0.1001
  287MOL0     C38614   2.846   4.585   4.347 -0.4479 -0.2045  0.0945
  287MOL0     C38615   2.741   4.609   4.439  0.1094 -0.2634 -0.1441
  287MOL0     C38616   2.618   4.662   4.392 -0.4918  0.7924 -0.2650
  287MOL0     C38617   2.598   4.696   4.262 -0.1804  0.3459 -0.1761
  287MOL0     O38618   2.480   4.749   4.222  0.4308 -0.0673  0.4913
  287MOL0     C38619   2.419   4.707   4.102 -0.0272 -0.1754  0.5595
  287MOL0     C38620   2.269   4.730   4.108 -0.3229 -0.1666 -0.7197
  287MOL0     C38621   2.202   4.644   4.003  0.5347  0.2626  0.3654
  287MOL0     C38622   2.052   4.643   3.990  0.8207 -0.3345  0.0845
  287MOL0     C38623   1.991   4.779   3.958 -0.0714 -0.1320 -0.0298
  287MOL0     C38624   1.843   4.776   3.941 -0.9319 -0.0762  0.4881
  287MOL0     C38625   1.810   4.711   3.803 -1.2633 -0.1168  0.3260
  287MOL0     C38626   1.810   4.801   3.684 -1.4812 -1.0795 -0.6967
  287MOL0     N38627   1.773   4.733   3.555  0.5966 -0.4691 -0.3866
  287MOL0     C38628   1.807   4.605   3.503  0.4099 -0.1488 -0.0635
  287MOL0     C38629   1.749   4.592   3.384 -0.1655  0.4340 -0.5080
  287MOL0     C38630   1.776   4.476   3.305 -0.8843 -0.6941  0.4424
  287MOL0     C38631   1.684   4.363   3.351  0.7784  0.4532  0.5171
  287MOL0     C38632   1.717   4.246   3.255 -0.4018  0.7984  0.0817
  287MOL0     C38633   1.653   4.114   3.287 -0.4834  1.2840 -0.0342
  287MOL0     O38634   1.680   4.069   3.424  0.1323  0.5793 -0.1802
  287MOL0     C38635   1.776   3.962   3.437 -0.1810 -0.0710  0.2794
  287MOL0     C38636   1.887   3.940   3.352  0.4957 -0.4700 -0.9298
  287MOL0     C38637   1.995   3.866   3.384 -0.6132  1.4009 -0.8899
  287MOL0     C38638   2.102   3.850   3.274  1.1493 -0.4498  0.4248
  287MOL0     C38639   2.007   3.809   3.514  0.2068 -0.4856 -0.9874
  287MOL0     C38640   2.123   3.726   3.571  0.2748 -0.0369  0.1620
  287MOL0     O38641   2.111   3.661   3.692 -0.1194  0.3873  0.2215
  287MOL0     C38642   2.214   3.594   3.754  0.7983 -0.1304 -0.2544
  287MOL0     C38643   2.206   3.603   3.898 -0.8822 -0.7413  0.4328
  287MOL0     C38644   2.296   3.531   3.975 -0.0588 -0.4630  0.1328
  287MOL0     C38645   2.402   3.458   3.913  0.3627 -0.1389 -0.1371
  287MOL0     O38646   2.488   3.381   3.988  0.2132 -0.3313  0.4794
  287MOL0     C38647   2.502   3.403   4.125 -1.1119 -0.8009 -0.7686
  287MOL0     C38648   2.536   3.259   4.187  1.0937 -0.4270  0.7243
  287MOL0     C38649   2.415   3.161   4.161 -0.6445  0.0919  0.4931
  287MOL0     C38650   2.421   3.042   4.252  0.0497  0.4008  0.3225
  287MOL0     C38651   2.302   2.950   4.212 -0.5572 -0.3568 -0.1540
  287MOL0     C38652   2.185   2.971   4.303 -1.1101  0.6797  0.2565
  287MOL0     C38653   2.068   2.882   4.267  0.3892  0.4299  0.1820
  287MOL0     C38654   2.079   2.728   4.283  0.1342 -0.2727 -0.3216
  287MOL0    Cl38655   1.930   2.635   4.218  0.2126  0.0544 -0.0670
  287MOL0     C38656   2.416   3.461   3.777 -0.5283  0.1090 -0.4289
  287MOL0     C38657   2.323   3.531   3.697  0.2677 -0.5849  0.3216
  287MOL0     O38658   2.218   3.714   3.491 -0.0840  0.2823  0.2192
  287MOL0     C38659   1.894   3.829   3.598 -0.9014 -0.6246  0.0080
  287MOL0     C38660   1.785   3.913   3.567  0.0092  1.1520  0.2931
  287MOL0     N38661   1.670   4.701   3.365  0.9991 -0.3174 -0.4585
  287MOL0     N38662   1.674   4.780   3.469 -0.1943 -0.2479  0.1252
  287MOL0     C38663   2.707   4.656   4.176  0.8537 -0.1623  0.5010
  287MOL0     C38664   2.821   4.606   4.213 -1.0504 -1.1136  1.0087
  287MOL0     C38665   3.111   4.361   4.478 -0.0727 -0.1515 -0.2945
  287MOL0     C38666   3.235   4.422   4.443  0.8761  0.2406 -0.0965
  287MOL0     C38667   3.358   4.353   4.449  0.1891  0.4028  0.7692
  287MOL0     C38668   3.359   4.219   4.483 -0.3091 -0.1280 -0.5635
  287MOL0     O38669   3.478   4.143   4.486  0.0164  0.2501  0.2475
  287MOL0     C38670   3.504   4.043   4.596  0.0086 -1.0312  0.0910
  287MOL0     C38671   3.634   3.958   4.562 -0.2975  0.2452  0.8559
  287MOL0     C38672   3.761   4.043   4.571 -0.2584  0.1915 -0.7024
  287MOL0     C38673   3.885   3.969   4.533 -0.0960  1.0735 -0.9107
  287MOL0     C38674   4.013   4.037   4.568  0.8309  0.6585 -0.4447
  287MOL0     C38675   4.100   4.108   4.595 -0.2207  0.2173 -0.0120
  287MOL0     C38676   3.236   4.154   4.521  0.0963  0.5365  0.8229
  287MOL0     C38677   3.114   4.218   4.507  0.2214 -0.2914  0.1271
  287MOL0     H38678   2.770   4.605   4.544  2.2309 -0.3016 -0.6733
  287MOL0     H38679   2.547   4.700   4.465 -1.7015 -0.2550 -0.8519
  287MOL0     H38680   2.461   4.743   4.008 -0.2760 -0.9082  0.1547
  287MOL0     H38681   2.443   4.601   4.091  1.7220  0.3335 -1.1233
  287MOL0     H38682   2.241   4.688   4.206 -3.4038  1.3213 -0.8299
  287MOL0     H38683   2.249   4.837   4.106 -2.5550 -0.5403 -2.6851
  287MOL0     H38684   2.232   4.679   3.904  0.1681 -0.7562 -0.1269
  287MOL0     H38685   2.217   4.537   4.023 -1.0080  0.0881  0.7302
  287MOL0     H38686   2.029   4.571   3.911  0.0383  0.3556 -0.3370
  287MOL0     H38687   1.991   4.615   4.076 -0.8613  0.3918 -0.8201
  287MOL0     H38688   2.010   4.849   4.040 -0.9307  1.0331 -0.7904
  287MOL0     H38689   2.046   4.816   3.870  4.1943 -3.1649  1.0389
  287MOL0     H38690   1.793   4.726   4.024  0.7704  1.5419  2.5846
  287MOL0     H38691   1.806   4.879   3.939  0.0679  0.2871 -0.2585
  287MOL0     H38692   1.873   4.623   3.786 -0.4812  0.9985 -3.6153
  287MOL0     H38693   1.712   4.668   3.826  1.1819 -4.7576  3.6066
  287MOL0     H38694   1.914   4.830   3.664 -1.5285 -0.8271 -0.5837
  287MOL0     H38695   1.752   4.893   3.692  1.4182  0.7515  1.3763
  287MOL0     H38696   1.879   4.529   3.529  0.5409 -1.3082 -3.3692
  287MOL0     H38697   1.763   4.489   3.197  4.0884 -2.8652 -0.6691
  287MOL0     H38698   1.882   4.452   3.314 -0.8073 -0.6230 -0.2121
  287MOL0     H38699   1.578   4.387   3.337  1.3258  1.3166 -3.4600
  287MOL0     H38700   1.713   4.335   3.452 -0.5311  1.8027  1.3123
  287MOL0     H38701   1.825   4.229   3.256 -0.7783 -2.4465  2.2426
  287MOL0     H38702   1.688   4.276   3.154 -2.0674  3.7819  1.3128
  287MOL0     H38703   1.693   4.034   3.225 -0.0581  1.0907  0.4805
  287MOL0     H38704   1.544   4.120   3.275 -0.6810  1.4608  1.5931
  287MOL0     H38705   1.881   3.973   3.249  3.4529 -0.8829 -1.3226
  287MOL0     H38706   2.129   3.746   3.255  4.8833  0.9256 -3.2528
  287MOL0     H38707   2.063   3.877   3.175  1.3409  1.4846  0.8416
  287MOL0     H38708   2.195   3.899   3.302  1.3283 -1.6003  1.9841
  287MOL0     H38709   2.118   3.646   3.945  0.5145 -0.2032  2.7516
  287MOL0     H38710   2.277   3.539   4.082 -0.8127 -0.4071 -0.0020
  287MOL0     H38711   2.577   3.478   4.150 -4.2521  2.7880 -1.3330
  287MOL0     H38712   2.416   3.444   4.177  0.5242 -2.8912  4.1466
  287MOL0     H38713   2.634   3.220   4.158  3.6980  5.0076  0.9560
  287MOL0     H38714   2.547   3.277   4.295  0.3619  2.4454  0.4197
  287MOL0     H38715   2.394   3.143   4.055 -0.2672  2.5098 -0.0683
  287MOL0     H38716   2.333   3.218   4.208 -0.2018 -0.2639  1.7191
  287MOL0     H38717   2.513   2.985   4.234 -1.4100 -1.8894 -0.3285
  287MOL0     H38718   2.425   3.077   4.355  2.1321  1.4459 -0.0436
  287MOL0     H38719   2.337   2.847   4.223  2.4685  0.3607 -1.8202
  287MOL0     H38720   2.277   2.964   4.106 -1.8158 -0.1741  0.1523
  287MOL0     H38721   2.219   2.945   4.404 -0.4936  0.2282 -0.0616
  287MOL0     H38722   2.162   3.077   4.313 -2.1368  0.7457 -2.1904
  287MOL0     H38723   2.045   2.897   4.161  0.1937 -0.0529  0.1529
  287MOL0     H38724   1.981   2.912   4.328  0.5763 -1.5854  1.5397
  287MOL0     H38725   2.093   2.711   4.391  2.3696 -1.5422 -0.7374
  287MOL0     H38726   2.166   2.684   4.233  0.1810 -0.4651 -0.0758
  287MOL0     H38727   2.501   3.410   3.734  2.4177  1.4583  3.2618
  287MOL0     H38728   2.337   3.531   3.589  5.5496  1.3087  0.6886
  287MOL0     H38729   1.894   3.791   3.699 -1.1173  2.2576  1.1684
  287MOL0     H38730   1.716   3.940   3.646  0.2966  4.0611 -0.3464
  287MOL0     H38731   2.706   4.676   4.069 -0.5439  0.3205  0.5735
  287MOL0     H38732   2.902   4.579   4.146 -0.9729 -0.3575  0.7903
  287MOL0     H38733   3.246   4.526   4.412  3.0495 -0.4356 -1.8364
  287MOL0     H38734   3.450   4.400   4.414 -0.0826 -0.0915 -0.6829
  287MOL0     H38735   3.506   4.092   4.694 -2.1828 -0.0785 -0.2713
  287MOL0     H38736   3.418   3.975   4.594 -2.6651  1.9880  2.1094
  287MOL0     H38737   3.624   3.920   4.460 -3.4125  0.5144  0.9475
  287MOL0     H38738   3.645   3.878   4.636 -1.7387  0.4255  1.2915
  287MOL0     H38739   3.774   4.064   4.678 -2.2443  1.4011 -0.6597
  287MOL0     H38740   3.743   4.136   4.516 -0.1277 -0.5322 -1.9944
  287MOL0     H38741   3.886   3.936   4.428 -0.6290  1.1001 -0.9244
  287MOL0     H38742   3.891   3.867   4.572 -3.3699  0.9320 -0.4793
  287MOL0     H38743   4.185   4.165   4.627 -1.8151  2.1428  0.9548
  287MOL0     H38744   3.246   4.054   4.562 -1.6505  0.2752  0.6787
  287MOL0     H38745   3.022   4.171   4.540 -0.0180  0.3762  0.4262
  288MOL0     O38746   0.930   4.183   2.801  0.6832 -0.4515  0.0938
  288MOL0     C38747   0.877   4.207   2.906  0.0690  0.3783  0.1393
  288MOL0     O38748   0.808   4.315   2.948 -1.3429 -0.4305 -0.2736
  288MOL0     C38749   0.777   4.415   2.860 -0.1289 -0.1054  0.2289
  288MOL0     C38750   0.729   4.520   2.934  0.3884  0.1990 -1.0530
  288MOL0     C38751   0.690   4.643   2.878 -0.4864  0.5361  0.7285
  288MOL0     C38752   0.687   4.651   2.735 -0.0713  0.7439 -0.0452
  288MOL0     O38753   0.641   4.752   2.655 -0.9540 -0.8049  0.5137
  288MOL0     C38754   0.644   4.884   2.709  0.0102  0.0308 -1.5020
  288MOL0     C38755   0.637   4.988   2.616  0.3198  0.2690  0.4566
  288MOL0     C38756   0.653   5.119   2.695  0.9229 -0.1474  0.1966
  288MOL0     C38757   0.761   5.213   2.637 -0.4857  0.3016 -0.2728
  288MOL0     C38758   0.891   5.177   2.695 -0.6831 -0.0325 -0.1790
  288MOL0     C38759   1.021   5.263   2.646  0.1859  0.3188  0.2754
  288MOL0     C38760   1.148   5.220   2.720  0.1376  1.2157  0.3881
  288MOL0     C38761   1.279   5.293   2.682  0.7070 -0.1588 -0.7116
  288MOL0     N38762   1.291   5.427   2.722  0.3337  0.0833 -0.2053
  288MOL0     C38763   1.326   5.470   2.849 -0.3809  0.5579 -0.2625
  288MOL0     C38764   1.298   5.599   2.853 -1.0087 -0.7822  0.8312
  288MOL0     C38765   1.308   5.713   2.950 -0.6399 -0.3110 -0.1728
  288MOL0     C38766   1.261   5.680   3.094  0.2146 -0.4035 -0.3665
  288MOL0     C38767   1.284   5.786   3.197 -0.0064 -1.1011  0.4754
  288MOL0     C38768   1.218   5.916   3.158  0.6932 -0.4013 -0.8231
  288MOL0     O38769   1.244   6.016   3.259  0.7266  0.4912 -0.3892
  288MOL0     C38770   1.336   6.109   3.225  0.0369  0.1863  0.8052
  288MOL0     C38771   1.301   6.184   3.113 -0.2263 -1.2136 -0.1745
  288MOL0     C38772   1.390   6.285   3.073  0.1629  0.1472  0.4664
  288MOL0     C38773   1.343   6.351   2.949 -0.5206  0.4753 -0.3195
  288MOL0     C38774   1.514   6.305   3.131  0.3471 -0.6079  0.3333
  288MOL0     C38775   1.609   6.410   3.077 -0.6285  1.1791  0.1392
  288MOL0     O38776   1.708   6.454   3.168  0.6257  0.1675 -0.4255
  288MOL0     C38777   1.805   6.542   3.138 -1.0387 -0.1327  0.2008
  288MOL0     C38778   1.801   6.634   3.034 -0.0923 -1.0080  0.0166
  288MOL0     C38779   1.913   6.719   3.007 -1.0466 -0.3508 -0.9310
  288MOL0     C38780   2.024   6.710   3.104 -0.4084 -0.2917  0.5094
  288MOL0     O38781   2.136   6.794   3.082  0.7982 -0.3396  0.2685
  288MOL0     C38782   2.234   6.813   3.184 -0.7482 -1.0819  0.7532
  288MOL0     C38783   2.348   6.905   3.132 -0.1500  0.0704 -0.7671
  288MOL0     C38784   2.431   6.961   3.244  0.7861  0.0512 -0.2854
  288MOL0     C38785   2.574   6.981   3.202  0.3488 -1.6869 -0.5429
  288MOL0     C38786   2.639   7.089   3.290  0.6839 -1.0669 -0.4576
  288MOL0     C38787   2.599   7.233   3.244 -0.7604 -0.7998 -0.2680
  288MOL0     C38788   2.666   7.350   3.315 -0.3651 -0.5722  0.6488
  288MOL0     C38789   2.610   7.478   3.257  0.7717 -0.6753 -0.7544
  288MOL0    Cl38790   2.436   7.503   3.297 -0.2921  0.2532 -0.0331
  288MOL0     C38791   2.008   6.631   3.220 -0.7909  0.0697  0.3316
  288MOL0     C38792   1.908   6.548   3.236 -0.0514 -0.4155 -0.3016
  288MOL0     O38793   1.617   6.430   2.952  0.4598 -0.4975  0.7798
  288MOL0     C38794   1.537   6.223   3.244  0.3549 -0.3933 -0.5803
  288MOL0     C38795   1.447   6.133   3.297 -0.2767 -0.6374  0.6011
  288MOL0     N38796   1.246   5.635   2.723  0.4377 -0.7552 -0.2393
  288MOL0     N38797   1.233   5.530   2.652 -0.4638  0.1132  0.0946
  288MOL0     C38798   0.737   4.539   2.664 -0.2985  0.8294  1.1049
  288MOL0     C38799   0.779   4.426   2.722 -0.2266  0.3367  0.1885
  288MOL0     C38800   0.890   4.122   3.029  0.9545  1.1303  0.3371
  288MOL0     C38801   0.871   3.987   3.018  0.3425 -0.2406  0.0028
  288MOL0     C38802   0.884   3.891   3.120 -0.1802 -0.1877 -0.0524
  288MOL0     C38803   0.921   3.951   3.247  0.1069 -0.0484 -1.0968
  288MOL0     O38804   0.947   3.879   3.363 -1.1060  0.5634 -0.3264
  288MOL0     C38805   0.881   3.757   3.368 -0.3190  1.2595 -0.7460
  288MOL0     C38806   0.847   3.730   3.519  0.9930  0.1244  0.2464
  288MOL0     C38807   0.978   3.748   3.614  0.4861  1.2864 -0.4981
  288MOL0     C38808   0.970   3.680   3.755 -0.5014  0.2671  0.6949
  288MOL0     C38809   1.074   3.728   3.840 -0.2863  0.8973  0.5102
  288MOL0     C38810   1.133   3.795   3.935  0.6056  0.2224 -0.9076
  288MOL0     C38811   0.926   4.093   3.261  0.0548 -0.3368  0.3278
  288MOL0     C38812   0.908   4.172   3.152  0.2245 -0.0706  0.2201
  288MOL0     H38813   0.729   4.514   3.042  2.0740  0.2407 -1.0203
  288MOL0     H38814   0.652   4.727   2.936  1.2196 -1.6597  5.5827
  288MOL0     H38815   0.574   4.887   2.793  2.5272 -1.9301  0.8559
  288MOL0     H38816   0.740   4.908   2.754 -1.6793  3.1115  0.7974
  288MOL0     H38817   0.708   4.987   2.533 -0.2796  3.2568 -0.2405
  288MOL0     H38818   0.537   4.990   2.572  1.0535  1.0757 -1.3075
  288MOL0     H38819   0.554   5.164   2.690 -1.3551 -4.0683  3.5391
  288MOL0     H38820   0.673   5.102   2.801 -1.3638  0.3735  0.7526
  288MOL0     H38821   0.763   5.187   2.531 -1.5559 -0.7841 -0.0591
  288MOL0     H38822   0.751   5.321   2.645 -0.5715  0.4229 -1.8312
  288MOL0     H38823   0.888   5.186   2.804  2.1016 -2.3373  0.2002
  288MOL0     H38824   0.924   5.075   2.677 -1.1541 -0.4271  1.1162
  288MOL0     H38825   1.037   5.252   2.539  0.0514 -2.0682  0.4389
  288MOL0     H38826   1.001   5.369   2.662 -0.8128  0.3766 -1.1329
  288MOL0     H38827   1.126   5.223   2.827 -4.1019  0.5328 -0.2875
  288MOL0     H38828   1.169   5.114   2.704  0.5907  1.4585 -0.7439
  288MOL0     H38829   1.269   5.292   2.573 -3.5835 -1.0952 -0.4768
  288MOL0     H38830   1.373   5.242   2.708  1.8374  2.4031  0.5901
  288MOL0     H38831   1.365   5.411   2.931  0.1204  0.0450 -0.8595
  288MOL0     H38832   1.413   5.744   2.958 -0.1683 -1.5179 -1.2191
  288MOL0     H38833   1.253   5.800   2.912 -1.1134 -1.1839 -1.5748
  288MOL0     H38834   1.310   5.590   3.135 -0.8756 -1.0666 -0.4804
  288MOL0     H38835   1.153   5.661   3.096  0.3882 -1.4316 -0.0263
  288MOL0     H38836   1.389   5.816   3.207  0.1112 -2.3118  4.3958
  288MOL0     H38837   1.265   5.762   3.302  1.2277 -0.0593  0.9668
  288MOL0     H38838   1.110   5.897   3.160  0.4186  1.0794 -0.5187
  288MOL0     H38839   1.237   5.950   3.056 -0.0362  0.0578 -0.8139
  288MOL0     H38840   1.207   6.173   3.059  1.7219 -0.6582 -4.0502
  288MOL0     H38841   1.409   6.305   2.874  1.2644  0.2244  1.3250
  288MOL0     H38842   1.239   6.343   2.917 -0.9972 -2.9398  1.6796
  288MOL0     H38843   1.370   6.457   2.961  0.1788  0.1045  1.7919
  288MOL0     H38844   1.721   6.653   2.963  2.6889  1.7841 -2.6800
  288MOL0     H38845   1.912   6.794   2.928 -0.6080  0.6561 -0.0027
  288MOL0     H38846   2.189   6.859   3.273  1.0250  1.8390  0.2896
  288MOL0     H38847   2.277   6.716   3.208  2.2470 -0.2556 -0.7899
  288MOL0     H38848   2.403   6.834   3.070 -0.6923 -0.4502 -0.6584
  288MOL0     H38849   2.317   6.991   3.074  2.4816  1.2561 -0.5760
  288MOL0     H38850   2.422   6.902   3.336  0.3789  1.3808  0.5523
  288MOL0     H38851   2.391   7.060   3.265  0.5654 -0.3988  1.6242
  288MOL0     H38852   2.643   6.897   3.211  2.2140  0.0236  3.5897
  288MOL0     H38853   2.586   7.015   3.099  2.6514 -0.6535 -0.0106
  288MOL0     H38854   2.748   7.078   3.292  0.7362 -0.5181  0.8150
  288MOL0     H38855   2.605   7.089   3.394 -0.0537  0.6038 -0.6609
  288MOL0     H38856   2.621   7.235   3.137  3.3669  0.7748  0.4079
  288MOL0     H38857   2.491   7.239   3.255 -0.4872  1.7128  2.8359
  288MOL0     H38858   2.773   7.330   3.325 -0.2040  0.6740  1.6441
  288MOL0     H38859   2.639   7.352   3.421  0.3325 -0.1358  0.8230
  288MOL0     H38860   2.620   7.477   3.148 -0.4503  2.1821 -0.9838
  288MOL0     H38861   2.660   7.565   3.301  0.3472 -0.5884 -0.4327
  288MOL0     H38862   2.085   6.624   3.296 -1.2688  1.6240  0.9905
  288MOL0     H38863   1.900   6.491   3.328  0.0448  0.1894  0.0835
  288MOL0     H38864   1.624   6.239   3.307 -1.5361  1.9271  1.6937
  288MOL0     H38865   1.456   6.074   3.388 -0.1288  1.8638  2.3164
  288MOL0     H38866   0.732   4.541   2.556 -1.6475 -3.1347  0.9259
  288MOL0     H38867   0.803   4.342   2.657 -0.2172  1.0711 -0.7724
  288MOL0     H38868   0.847   3.954   2.917  1.3904  1.7321 -0.9385
  288MOL0     H38869   0.856   3.787   3.106  0.1249 -0.7680  3.0288
  288MOL0     H38870   0.788   3.757   3.310 -0.7289 -3.1034 -0.4338
  288MOL0     H38871   0.945   3.673   3.340 -1.5124  0.3541 -0.8437
  288MOL0     H38872   0.796   3.634   3.509  1.0830  0.3206 -5.5802
  288MOL0     H38873   0.778   3.806   3.557  2.5261  0.8366  1.7601
  288MOL0     H38874   0.991   3.855   3.633  1.5594  1.5397 -2.3865
  288MOL0     H38875   1.067   3.711   3.561  1.3326  2.2594  0.1995
  288MOL0     H38876   0.971   3.572   3.739 -1.3657  0.6160 -2.2423
  288MOL0     H38877   0.871   3.708   3.793 -1.0998  0.4034 -0.8975
  288MOL0     H38878   1.185   3.852   4.009 -2.4925 -0.7926  2.3355
  288MOL0     H38879   0.923   4.136   3.361  0.5884  0.7164 -0.0950
  288MOL0     H38880   0.914   4.279   3.168 -1.0702 -0.4200  4.2910
  289MOL0     O38881   5.295   5.004   2.162  0.2302 -0.7896 -0.4930
  289MOL0     C38882   5.406   4.947   2.149 -0.5884  0.3749 -0.0702
  289MOL0     O38883   5.460   4.858   2.237  0.5695 -0.5072 -0.0005
  289MOL0     C38884   5.440   4.894   2.369 -0.6566 -0.0026  0.2226
  289MOL0     C38885   5.458   4.786   2.462 -0.3825  0.2748 -0.0672
  289MOL0     C38886   5.429   4.807   2.603  0.4748  0.1197  0.0402
  289MOL0     C38887   5.414   4.943   2.649 -0.1273  0.7807 -0.1708
  289MOL0     O38888   5.400   4.978   2.781  0.4757 -0.1513 -0.1722
  289MOL0     C38889   5.269   5.005   2.813 -0.0330  0.3885  0.5616
  289MOL0     C38890   5.247   4.984   2.958  0.5548  0.1932 -0.3313
  289MOL0     C38891   5.313   5.094   3.045  0.6200  0.7927  0.3384
  289MOL0     C38892   5.303   5.046   3.191  0.5976  0.0105  0.0029
  289MOL0     C38893   5.399   5.127   3.275  0.8650  0.0487  0.2725
  289MOL0     C38894   5.554   5.107   3.248  1.1793 -0.8349 -0.1541
  289MOL0     C38895   5.624   5.160   3.374  0.7469 -0.3410  0.7493
  289MOL0     C38896   5.769   5.113   3.371  0.5467 -0.5037 -0.5506
  289MOL0     N38897   5.842   5.152   3.491  0.0693  0.3583 -0.4041
  289MOL0     C38898   5.823   5.108   3.622  0.3186 -0.8851 -0.2604
  289MOL0     C38899   5.889   5.198   3.700  0.3104 -0.0009  0.4113
  289MOL0     C38900   5.920   5.192   3.850  0.3393  0.3450  0.6516
  289MOL0     C38901   5.780   5.203   3.926 -0.1429 -0.1054 -0.3432
  289MOL0     C38902   5.708   5.337   3.923 -0.6209 -0.9648 -1.4791
  289MOL0     C38903   5.762   5.445   4.017 -0.5102  0.4362  1.0568
  289MOL0     O38904   5.660   5.496   4.105 -0.0537  0.1030 -0.3498
  289MOL0     C38905   5.699   5.603   4.180  1.1782  0.3536 -0.9851
  289MOL0     C38906   5.834   5.615   4.227 -0.4904 -0.9923 -0.0579
  289MOL0     C38907   5.877   5.714   4.314 -0.3189 -0.9073 -0.4487
  289MOL0     C38908   6.021   5.709   4.364  0.2890  1.0487 -0.3000
  289MOL0     C38909   5.789   5.827   4.339  0.3171 -0.7991 -0.7858
  289MOL0     C38910   5.828   5.951   4.424  0.2684 -0.6306  0.2568
  289MOL0     O38911   5.726   6.037   4.460 -0.0535  1.0110 -0.5570
  289MOL0     C38912   5.763   6.157   4.516 -1.3369  0.6948 -0.1908
  289MOL0     C38913   5.763   6.276   4.438 -0.1353  0.6056 -0.4052
  289MOL0     C38914   5.798   6.398   4.492 -0.3105 -0.2979  0.2730
  289MOL0     C38915   5.839   6.408   4.626 -0.5746  0.6137 -0.3395
  289MOL0     O38916   5.873   6.518   4.699 -0.1145  0.6458  0.6283
  289MOL0     C38917   5.956   6.616   4.631  0.3005 -0.3987 -0.1901
  289MOL0     C38918   6.021   6.706   4.737  0.7260  0.3505 -0.2860
  289MOL0     C38919   6.099   6.623   4.831  0.0324  0.5401 -0.0657
  289MOL0     C38920   6.186   6.715   4.915  0.1076  0.8844 -0.6404
  289MOL0     C38921   6.247   6.636   5.042  0.4169 -0.1363 -0.0492
  289MOL0     C38922   6.148   6.666   5.160  0.5234  0.5510  0.3964
  289MOL0     C38923   6.194   6.591   5.284  0.7591 -0.4666  0.3041
  289MOL0     C38924   6.316   6.656   5.350  0.7376  0.3192  0.4887
  289MOL0    Cl38925   6.297   6.845   5.350  0.2679  0.1888  0.1943
  289MOL0     C38926   5.841   6.284   4.700 -0.0252  0.7715  0.4079
  289MOL0     C38927   5.817   6.158   4.644  0.5570 -0.9734 -0.2109
  289MOL0     O38928   5.944   5.980   4.413 -0.6983 -0.2695 -0.3975
  289MOL0     C38929   5.662   5.823   4.288 -0.5789  0.6994  0.6623
  289MOL0     C38930   5.617   5.714   4.209  0.1988 -0.3307  0.9634
  289MOL0     N38931   5.949   5.289   3.617  0.0600 -0.7552 -0.2821
  289MOL0     N38932   5.916   5.272   3.496 -0.6061  0.2711 -0.2402
  289MOL0     C38933   5.431   5.049   2.554 -0.2478  0.7486 -1.1353
  289MOL0     C38934   5.439   5.024   2.419  0.6192  0.0490  0.9417
  289MOL0     C38935   5.478   4.986   2.024  0.0582 -0.5378 -0.7223
  289MOL0     C38936   5.421   5.086   1.948 -0.2729 -0.7181  0.7374
  289MOL0     C38937   5.489   5.134   1.829  0.6368  0.2520 -0.2524
  289MOL0     C38938   5.616   5.073   1.791  0.4596  0.5786 -0.2789
  289MOL0     O38939   5.698   5.115   1.693 -0.4892  0.3390  0.4146
  289MOL0     C38940   5.661   5.231   1.612 -0.0146 -0.1304 -0.8491
  289MOL0     C38941   5.668   5.368   1.686  0.3073 -0.1519 -0.4898
  289MOL0     C38942   5.664   5.484   1.578 -0.6074  0.2839 -0.7188
  289MOL0     C38943   5.622   5.621   1.624  0.1400  0.6974 -1.2304
  289MOL0     C38944   5.653   5.702   1.508  0.6455 -0.0533 -0.2419
  289MOL0     C38945   5.677   5.751   1.400  0.2021 -1.2764  0.2779
  289MOL0     C38946   5.668   4.972   1.875 -0.2072 -0.1946 -0.6284
  289MOL0     C38947   5.595   4.923   1.981  0.5926  0.2122  0.6303
  289MOL0     H38948   5.481   4.689   2.420 -2.1487 -1.2792  2.2738
  289MOL0     H38949   5.424   4.715   2.661 -1.1454 -1.7297 -2.7908
  289MOL0     H38950   5.247   5.110   2.788 -0.0903  1.1404  3.4208
  289MOL0     H38951   5.199   4.940   2.759  3.2465 -1.8146 -1.3592
  289MOL0     H38952   5.146   4.961   2.995  0.3188 -1.7958 -2.0396
  289MOL0     H38953   5.301   4.891   2.978  0.8926  0.5530  0.4439
  289MOL0     H38954   5.417   5.096   3.012  1.3268  0.3602  2.3663
  289MOL0     H38955   5.257   5.188   3.032 -1.6595 -0.5410 -0.0124
  289MOL0     H38956   5.202   5.041   3.231 -0.3555 -1.3300 -2.3313
  289MOL0     H38957   5.329   4.940   3.204  2.2059  0.5275  1.3743
  289MOL0     H38958   5.371   5.230   3.254 -1.7770 -0.4473  0.9691
  289MOL0     H38959   5.375   5.113   3.381  0.0942  1.4969  0.3142
  289MOL0     H38960   5.601   5.010   3.227  1.6460 -0.5408 -0.4947
  289MOL0     H38961   5.580   5.167   3.160 -0.2231 -3.6118 -2.6423
  289MOL0     H38962   5.618   5.269   3.362  3.6030 -0.3425 -1.7151
  289MOL0     H38963   5.573   5.124   3.464  1.8596 -0.5967  1.2989
  289MOL0     H38964   5.802   5.170   3.284 -0.0283  4.3170  2.0526
  289MOL0     H38965   5.782   5.005   3.361 -0.3310 -1.0615  2.8304
  289MOL0     H38966   5.762   5.031   3.668 -3.2752  0.6707 -2.0008
  289MOL0     H38967   5.972   5.100   3.877 -1.3232 -0.0846  2.6992
  289MOL0     H38968   5.990   5.274   3.867  4.4451 -2.9391  1.1886
  289MOL0     H38969   5.805   5.176   4.029  3.1777 -0.3757 -1.1097
  289MOL0     H38970   5.703   5.134   3.890  0.0853 -0.5647  0.0279
  289MOL0     H38971   5.609   5.306   3.959 -0.2367 -0.0562  0.4825
  289MOL0     H38972   5.696   5.377   3.822 -2.3574  3.1429  0.1377
  289MOL0     H38973   5.817   5.524   3.964  0.3702 -0.7726  0.1150
  289MOL0     H38974   5.836   5.388   4.074 -0.1391  1.4763  1.6386
  289MOL0     H38975   5.907   5.539   4.203 -0.0122  0.0315 -2.0804
  289MOL0     H38976   6.071   5.615   4.341  1.1418  1.6443 -0.9251
  289MOL0     H38977   6.081   5.792   4.326  1.9457  1.7216  3.2899
  289MOL0     H38978   6.016   5.724   4.473  2.6765 -0.1955  0.0391
  289MOL0     H38979   5.737   6.278   4.333  0.9459  0.7219 -0.6903
  289MOL0     H38980   5.824   6.472   4.417  2.4897 -2.0296 -0.6528
  289MOL0     H38981   6.040   6.564   4.584 -0.5906 -3.4635  1.3247
  289MOL0     H38982   5.887   6.670   4.565  0.1832  2.5658  2.1277
  289MOL0     H38983   6.097   6.765   4.686  3.0831 -0.9735  1.5245
  289MOL0     H38984   5.947   6.768   4.790 -0.0834 -1.7799  1.2253
  289MOL0     H38985   6.156   6.541   4.786  0.1613  2.4019 -3.6388
  289MOL0     H38986   6.026   6.573   4.896 -0.9633  0.5251 -1.1527
  289MOL0     H38987   6.261   6.761   4.849 -0.8958 -0.5950 -2.9557
  289MOL0     H38988   6.120   6.793   4.955  0.3822  1.7509 -1.8260
  289MOL0     H38989   6.347   6.671   5.069  1.5115 -1.9905 -1.4537
  289MOL0     H38990   6.260   6.529   5.023 -0.4642 -0.2732  0.0816
  289MOL0     H38991   6.132   6.773   5.178  5.4131  1.2917  1.6899
  289MOL0     H38992   6.052   6.626   5.126 -0.0977  1.8881  0.5208
  289MOL0     H38993   6.221   6.490   5.252 -0.8591 -1.2472  1.3191
  289MOL0     H38994   6.121   6.580   5.364 -0.4488  0.2209 -0.6685
  289MOL0     H38995   6.398   6.626   5.284 -1.3223  0.2649 -2.2557
  289MOL0     H38996   6.327   6.616   5.451  1.5648 -0.7669 -0.0077
  289MOL0     H38997   5.870   6.289   4.804 -1.2534  2.5874  0.7274
  289MOL0     H38998   5.827   6.064   4.697 -0.8701 -1.4697 -0.7755
  289MOL0     H38999   5.587   5.897   4.316  1.4727  3.3427 -0.3605
  289MOL0     H39000   5.510   5.703   4.191  0.2690  1.2535 -0.6875
  289MOL0     H39001   5.432   5.153   2.584 -0.1276  0.4495 -0.0379
  289MOL0     H39002   5.453   5.107   2.351  1.2211 -0.1265  0.8440
  289MOL0     H39003   5.329   5.142   1.962 -1.0069 -0.9577 -2.4285
  289MOL0     H39004   5.433   5.206   1.771  0.7720 -0.2974 -1.0800
  289MOL0     H39005   5.729   5.222   1.526  0.7533  3.3206 -0.7230
  289MOL0     H39006   5.562   5.217   1.568 -1.2861 -0.9846  2.0419
  289MOL0     H39007   5.761   5.372   1.744 -0.4817 -0.6832  0.8445
  289MOL0     H39008   5.583   5.385   1.752  1.1282 -2.6419  1.3888
  289MOL0     H39009   5.589   5.460   1.502 -2.4381  1.8985  0.4584
  289MOL0     H39010   5.762   5.484   1.528  0.0572  2.2358  0.4884
  289MOL0     H39011   5.681   5.656   1.709 -3.6420 -0.3468  2.1068
  289MOL0     H39012   5.514   5.619   1.640  0.2517 -0.3985 -0.5028
  289MOL0     H39013   5.685   5.804   1.308 -1.7735 -0.7975  0.3369
  289MOL0     H39014   5.768   4.932   1.861  0.5006  1.0741  0.6075
  289MOL0     H39015   5.633   4.840   2.039 -0.9050  0.2215  1.6725
  290MOL0     O39016   0.768   7.451   9.861  1.1503 -0.2903  0.1846
  290MOL0     C39017   0.878   7.440   9.824 -0.9652  0.7538  1.3048
  290MOL0     O39018   0.967   7.344   9.868  0.5809  0.3381 -0.1597
  290MOL0     C39019   0.926   7.253   9.968  0.3241 -0.5396  0.2517
  290MOL0     C39020   0.816   7.168   9.963  0.0918 -0.1832 -0.3015
  290MOL0     C39021   0.791   7.090  10.072  0.1847  0.4766 -0.4349
  290MOL0     C39022   0.873   7.097  10.185  0.3717 -0.8200 -0.0917
  290MOL0     O39023   0.843   7.019  10.293 -0.8914 -0.2940  0.1095
  290MOL0     C39024   0.861   6.876  10.272  0.4061  0.3707 -0.0970
  290MOL0     C39025   0.856   6.800  10.406  0.3064 -0.0296  0.7610
  290MOL0     C39026   0.710   6.802  10.465 -0.0498  0.6727  0.2335
  290MOL0     C39027   0.679   6.939  10.533 -0.4848 -0.9786 -0.2548
  290MOL0     C39028   0.522   6.954  10.574 -0.3320  0.9104  0.0787
  290MOL0     C39029   0.433   6.975  10.448 -0.3228 -0.0027 -0.1798
  290MOL0     C39030   0.293   7.008  10.477 -0.3746 -0.5230 -0.3217
  290MOL0     C39031   0.207   7.037  10.350  0.7144  0.0849 -0.2119
  290MOL0     N39032   0.241   6.938  10.251 -0.0230  0.0456  0.1500
  290MOL0     C39033   0.196   6.812  10.258  0.7149 -1.3884  0.5010
  290MOL0     C39034   0.237   6.750  10.150 -0.0061 -0.1561 -0.1700
  290MOL0     C39035   0.217   6.612  10.122 -0.3910 -0.0446  0.4621
  290MOL0     C39036   0.317   6.519  10.194  0.2858 -0.7505  0.8370
  290MOL0     C39037   0.436   6.497  10.109  0.1050 -0.9969 -1.4924
  290MOL0     C39038   0.552   6.562  10.185 -0.4100 -0.8276  0.0468
  290MOL0     O39039   0.684   6.554  10.125 -0.3663 -0.5460 -0.2942
  290MOL0     C39040   0.730   6.650  10.037 -0.2090  0.1303  0.0061
  290MOL0     C39041   0.649   6.716   9.946 -0.2695 -0.3812  0.0788
  290MOL0     C39042   0.711   6.801   9.851  0.9589 -0.3837  1.4991
  290MOL0     C39043   0.625   6.872   9.751 -0.1892 -0.9708 -0.1983
  290MOL0     C39044   0.846   6.807   9.832  0.1096 -0.0831 -0.4294
  290MOL0     C39045   0.913   6.880   9.714 -1.0758 -0.7644 -1.1728
  290MOL0     O39046   0.859   6.991   9.651  0.2520  0.3569  0.9677
  290MOL0     C39047   0.948   7.036   9.554 -0.7449  0.3346  0.0313
  290MOL0     C39048   0.942   6.984   9.428  0.6443 -0.6721  0.2960
  290MOL0     C39049   1.017   7.022   9.317 -0.3622 -0.2023  0.1269
  290MOL0     C39050   1.111   7.119   9.347 -0.5431 -0.6136 -0.3003
  290MOL0     O39051   1.200   7.178   9.254 -0.0588  0.3243 -0.4249
  290MOL0     C39052   1.212   7.128   9.117 -0.0047 -0.4801  0.4098
  290MOL0     C39053   1.273   6.991   9.127  0.4336  0.7524  0.6617
  290MOL0     C39054   1.427   6.996   9.127 -0.2214  0.7247  0.3933
  290MOL0     C39055   1.490   6.895   9.218  0.9016 -0.1734 -0.3818
  290MOL0     C39056   1.634   6.860   9.168  0.3146 -0.4638 -0.7784
  290MOL0     C39057   1.730   6.986   9.176 -0.0456  0.2381 -0.5487
  290MOL0     C39058   1.877   6.948   9.169 -0.3009 -0.2031  1.0986
  290MOL0     C39059   1.924   6.884   9.038 -0.1647 -0.2628 -0.6643
  290MOL0    Cl39060   1.898   6.981   8.884  0.2835 -0.2603 -0.0541
  290MOL0     C39061   1.131   7.170   9.475 -0.1421 -0.1715  0.3670
  290MOL0     C39062   1.049   7.138   9.576 -0.1707 -0.0901 -0.6826
  290MOL0     O39063   1.026   6.826   9.685  1.0561  0.0040 -0.3762
  290MOL0     C39064   0.927   6.734   9.924  0.5632 -0.0014  0.4812
  290MOL0     C39065   0.864   6.654  10.026  0.0042 -0.7569 -0.8200
  290MOL0     N39066   0.299   6.843  10.066  0.1237  0.8679 -0.4578
  290MOL0     N39067   0.305   6.953  10.130  1.2131 -0.1933  0.3379
  290MOL0     C39068   0.981   7.183  10.192 -0.5990  0.9107  0.4489
  290MOL0     C39069   1.009   7.265  10.079  0.4192 -0.0675 -0.1185
  290MOL0     C39070   0.950   7.553   9.742 -0.4669 -0.1115  0.9231
  290MOL0     C39071   1.089   7.547   9.699 -0.4240 -0.2660 -0.5639
  290MOL0     C39072   1.149   7.654   9.644 -0.5737 -0.9926 -0.5469
  290MOL0     C39073   1.082   7.776   9.617 -1.4009 -0.4507  0.0413
  290MOL0     O39074   1.151   7.881   9.563  0.8669 -0.3149  0.6631
  290MOL0     C39075   1.086   8.008   9.528 -0.3422 -0.7266  1.0058
  290MOL0     C39076   1.176   8.114   9.468  0.4437 -0.0499 -0.7877
  290MOL0     C39077   1.128   8.262   9.494 -0.6980  0.4587 -0.0146
  290MOL0     C39078   1.243   8.361   9.487 -0.5639 -0.0082  0.9554
  290MOL0     C39079   1.337   8.349   9.595 -0.7927 -0.8492 -1.1386
  290MOL0     C39080   1.420   8.352   9.678  0.6045  0.3334  0.3045
  290MOL0     C39081   0.945   7.777   9.645 -0.0752 -1.0628  1.1605
  290MOL0     C39082   0.882   7.673   9.706 -1.1498 -0.4470  0.0819
  290MOL0     H39083   0.759   7.172   9.871 -0.5891  1.4513  0.1486
  290MOL0     H39084   0.716   7.012  10.069  0.2676  0.2272  1.8826
  290MOL0     H39085   0.775   6.846  10.210  1.1589 -2.1191 -0.0230
  290MOL0     H39086   0.957   6.858  10.224 -0.4527  2.6279 -2.9568
  290MOL0     H39087   0.876   6.694  10.388 -3.0313 -0.1565 -4.1755
  290MOL0     H39088   0.927   6.844  10.476 -0.4890  0.3040  1.3791
  290MOL0     H39089   0.633   6.784  10.390 -0.0895 -0.3567  0.5081
  290MOL0     H39090   0.697   6.724  10.540 -2.3904 -0.1517 -0.9279
  290MOL0     H39091   0.736   6.935  10.627 -0.8490 -0.3400  0.0026
  290MOL0     H39092   0.717   7.027  10.480  1.4894 -1.9064 -0.4585
  290MOL0     H39093   0.486   6.863  10.622 -1.3750  0.8258 -0.8215
  290MOL0     H39094   0.512   7.038  10.642  1.0158  1.7783 -0.7379
  290MOL0     H39095   0.484   7.060  10.403 -0.8246  0.5078  0.1956
  290MOL0     H39096   0.452   6.893  10.378  0.4770  1.7271 -2.0739
  290MOL0     H39097   0.256   6.924  10.536  1.5403 -0.9089  0.3859
  290MOL0     H39098   0.282   7.094  10.544 -0.9258 -1.7248  1.2014
  290MOL0     H39099   0.223   7.142  10.324  0.8507  0.7490  2.2979
  290MOL0     H39100   0.100   7.037  10.374 -0.4277  0.0745 -4.4588
  290MOL0     H39101   0.156   6.762  10.345 -0.6923 -3.3193 -1.1449
  290MOL0     H39102   0.128   6.580  10.177  1.0586 -3.5318  1.0252
  290MOL0     H39103   0.202   6.586  10.017 -1.5919  0.5895  0.4610
  290MOL0     H39104   0.271   6.424  10.223 -0.1882 -0.5717  0.6870
  290MOL0     H39105   0.348   6.569  10.286  0.9577  1.7566 -0.6283
  290MOL0     H39106   0.423   6.544  10.011 -2.0134  0.5499 -0.5810
  290MOL0     H39107   0.466   6.394  10.093 -1.9915 -1.8741 -0.1855
  290MOL0     H39108   0.565   6.516  10.284  2.9938  0.5198  0.3633
  290MOL0     H39109   0.530   6.669  10.190 -0.9362 -0.6471 -3.5511
  290MOL0     H39110   0.542   6.699   9.949 -0.2317 -1.5245  5.5211
  290MOL0     H39111   0.629   6.981   9.759  2.4270 -0.9263 -1.1463
  290MOL0     H39112   0.652   6.841   9.650 -1.7807  0.2631 -1.0617
  290MOL0     H39113   0.521   6.847   9.774 -0.7261  1.9814  1.0390
  290MOL0     H39114   0.873   6.903   9.408 -0.2328  0.5366 -1.8367
  290MOL0     H39115   0.998   6.974   9.221  1.7922 -1.9161  0.5028
  290MOL0     H39116   1.118   7.123   9.061  0.9694  0.4065 -1.3586
  290MOL0     H39117   1.268   7.198   9.055 -0.3385 -1.1640 -0.7002
  290MOL0     H39118   1.237   6.925   9.207  1.0062  1.3599  1.4431
  290MOL0     H39119   1.249   6.935   9.036  0.1906 -1.8078  2.2049
  290MOL0     H39120   1.460   7.088   9.176  1.1093 -1.0979  3.2115
  290MOL0     H39121   1.463   6.987   9.024  2.3519 -1.7859  1.3574
  290MOL0     H39122   1.500   6.950   9.312 -2.2540  0.7437 -0.4880
  290MOL0     H39123   1.428   6.805   9.226 -1.9509  1.7264  0.3739
  290MOL0     H39124   1.624   6.826   9.065  2.3862 -3.9449  0.0142
  290MOL0     H39125   1.681   6.788   9.236  1.1849  2.6733  2.2280
  290MOL0     H39126   1.695   7.062   9.104 -4.6469 -1.7304 -0.7580
  290MOL0     H39127   1.712   7.046   9.266 -2.0001  2.5435 -2.3246
  290MOL0     H39128   1.892   6.874   9.249 -0.2907  0.7329  1.9923
  290MOL0     H39129   1.928   7.041   9.196 -1.5105  0.4801  1.0896
  290MOL0     H39130   1.863   6.795   9.020 -2.6469  1.5391 -1.8903
  290MOL0     H39131   2.031   6.865   9.042  0.0213  0.9335  1.2039
  290MOL0     H39132   1.211   7.240   9.498 -0.9027  1.2688 -1.1825
  290MOL0     H39133   1.057   7.172   9.679 -1.1948 -0.2117 -0.5528
  290MOL0     H39134   1.035   6.746   9.925  0.3550  2.2594  0.1237
  290MOL0     H39135   0.928   6.599  10.095  1.8020  3.2827  1.0661
  290MOL0     H39136   1.039   7.176  10.283 -1.9104 -2.3265  1.1736
  290MOL0     H39137   1.085   7.342  10.072 -0.9457  1.4449  0.9566
  290MOL0     H39138   1.141   7.455   9.723 -1.9782 -1.3780 -1.3261
  290MOL0     H39139   1.253   7.655   9.615 -0.5787  1.0806 -0.6056
  290MOL0     H39140   1.018   7.993   9.444  0.4787  2.7155 -0.4368
  290MOL0     H39141   1.022   8.043   9.610 -2.6663  0.7688 -1.3164
  290MOL0     H39142   1.207   8.091   9.365  1.3238 -0.6827 -0.3970
  290MOL0     H39143   1.263   8.104   9.533 -0.0230  1.7866  0.1800
  290MOL0     H39144   1.076   8.284   9.588 -4.3241 -0.9546 -1.5028
  290MOL0     H39145   1.056   8.271   9.411 -0.7860 -0.6229 -0.0657
  290MOL0     H39146   1.198   8.460   9.471 -1.7087 -0.0805  3.2639
  290MOL0     H39147   1.290   8.323   9.396 -0.4396 -3.4955  2.3353
  290MOL0     H39148   1.489   8.357   9.760 -0.8158  0.1634  1.5634
  290MOL0     H39149   0.882   7.866   9.643 -1.5413 -2.0260  2.3001
  290MOL0     H39150   0.784   7.684   9.750 -2.2493 -3.9958 -1.1664
  291MOL0     O39151   4.033   8.698   0.008  0.6541  0.2060  0.2428
  291MOL0     C39152   3.920   8.739   0.032 -0.4325  0.5070  0.9906
  291MOL0     O39153   3.818   8.655   0.048 -0.2182  0.2686  0.2809
  291MOL0     C39154   3.814   8.523   0.002 -0.6276  0.3831 -1.1663
  291MOL0     C39155   3.703   8.498  -0.086  0.3003  0.1153 -0.2555
  291MOL0     C39156   3.685   8.361  -0.124  0.7636 -0.0233 -0.5279
  291MOL0     C39157   3.760   8.257  -0.081 -0.0001 -0.1009 -0.6092
  291MOL0     O39158   3.746   8.128  -0.143 -0.6189 -0.2019  0.1074
  291MOL0     C39159   3.836   8.027  -0.105 -0.8638 -0.7215 -0.5900
  291MOL0     C39160   3.801   7.901  -0.179  1.0475 -0.0360 -0.3093
  291MOL0     C39161   3.862   7.883  -0.323  1.0787 -0.0766  0.5759
  291MOL0     C39162   3.819   7.986  -0.431 -0.8067  0.2931 -0.7733
  291MOL0     C39163   3.880   7.958  -0.576  0.3808 -0.1430  0.0124
  291MOL0     C39164   3.825   7.821  -0.642 -0.8421 -0.6672  1.0548
  291MOL0     C39165   3.899   7.785  -0.780  0.1846 -0.0909  1.1970
  291MOL0     C39166   3.822   7.714  -0.890  0.4165 -0.4225  0.0277
  291MOL0     N39167   3.881   7.606  -0.953  0.5740 -0.6663 -0.7117
  291MOL0     C39168   3.903   7.482  -0.897  0.5114 -0.0032  0.0306
  291MOL0     C39169   3.908   7.392  -0.999 -0.3235 -0.3124  0.7475
  291MOL0     C39170   3.924   7.245  -0.994 -0.5417  0.2253 -0.1872
  291MOL0     C39171   4.035   7.193  -1.094  0.5120 -0.1668 -0.1986
  291MOL0     C39172   4.044   7.045  -1.075 -0.1166 -0.3127 -0.3106
  291MOL0     C39173   4.179   6.996  -1.111 -0.5004 -0.1537 -0.6334
  291MOL0     O39174   4.211   6.866  -1.054  0.4837 -0.5728  0.7967
  291MOL0     C39175   4.257   6.865  -0.928  0.7109  0.6632 -0.1626
  291MOL0     C39176   4.380   6.921  -0.897  0.5275 -0.5176  0.9789
  291MOL0     C39177   4.437   6.917  -0.770 -0.4571  0.2136  0.1868
  291MOL0     C39178   4.582   6.960  -0.780 -0.1396  0.6250 -0.9008
  291MOL0     C39179   4.368   6.863  -0.662 -0.7932 -0.3536  0.5214
  291MOL0     C39180   4.418   6.852  -0.512  1.4790 -0.2757 -0.3699
  291MOL0     O39181   4.326   6.805  -0.421 -0.3164  0.3229  0.4197
  291MOL0     C39182   4.361   6.805  -0.290  0.0509  0.4200 -0.8208
  291MOL0     C39183   4.272   6.856  -0.201  0.0339 -1.4305 -0.5704
  291MOL0     C39184   4.309   6.854  -0.065  0.8201  0.1084  0.6150
  291MOL0     C39185   4.427   6.800  -0.017 -0.2369 -0.0556 -0.6400
  291MOL0     O39186   4.445   6.817   0.125 -0.3024  0.0985 -0.1674
  291MOL0     C39187   4.502   6.698   0.180 -0.3061 -0.7683 -0.0607
  291MOL0     C39188   4.425   6.558   0.156 -0.6799  0.6329  0.3462
  291MOL0     C39189   4.278   6.565   0.195  0.2678  0.2236  0.8662
  291MOL0     C39190   4.262   6.532   0.338  0.7957  0.4904  0.2302
  291MOL0     C39191   4.115   6.540   0.378 -0.7670 -0.2512  0.8693
  291MOL0     C39192   4.110   6.462   0.513  0.4515 -0.0391 -0.2145
  291MOL0     C39193   4.026   6.333   0.504 -0.1182  0.5695 -1.2020
  291MOL0     C39194   3.877   6.349   0.462 -0.0716  0.1821  0.5099
  291MOL0    Cl39195   3.808   6.497   0.535  0.4274  0.0156 -0.5568
  291MOL0     C39196   4.509   6.739  -0.107  0.5117  0.2361 -0.1247
  291MOL0     C39197   4.478   6.742  -0.248  0.5938  0.5811  0.0834
  291MOL0     O39198   4.529   6.902  -0.486 -0.7688 -0.3121 -1.3606
  291MOL0     C39199   4.241   6.805  -0.696 -0.1292  0.7806  0.0626
  291MOL0     C39200   4.184   6.801  -0.828 -0.0626  0.3356  0.5704
  291MOL0     N39201   3.893   7.473  -1.118 -0.0661  0.0944  0.7283
  291MOL0     N39202   3.896   7.598  -1.086 -0.1389  1.2392 -0.2637
  291MOL0     C39203   3.867   8.291   0.003  0.1488  0.1867  0.0077
  291MOL0     C39204   3.896   8.418   0.044 -0.3542  0.2232 -0.3570
  291MOL0     C39205   3.880   8.880   0.038  0.2313 -0.1740  0.1498
  291MOL0     C39206   3.973   8.985   0.052  0.3889  0.7588 -0.2556
  291MOL0     C39207   3.928   9.118   0.062  0.4622  0.1555  0.9370
  291MOL0     C39208   3.790   9.163   0.065 -0.9755  0.6807  0.0482
  291MOL0     O39209   3.771   9.295   0.076  0.7612 -0.3654 -0.0495
  291MOL0     C39210   3.633   9.340   0.096 -0.1680 -0.1084 -0.5680
  291MOL0     C39211   3.628   9.493   0.118  0.2176 -0.4072 -1.1574
  291MOL0     C39212   3.711   9.581   0.016 -0.7720 -0.5296  0.6673
  291MOL0     C39213   3.677   9.726   0.044 -0.2547  0.0700  0.0742
  291MOL0     C39214   3.743   9.800  -0.063  0.7941  0.4571  0.2156
  291MOL0     C39215   3.803   9.872  -0.145  0.5482  0.3079  0.1031
  291MOL0     C39216   3.698   9.055   0.042 -0.3519 -0.3609 -0.1810
  291MOL0     C39217   3.741   8.915   0.019  0.0411 -0.9261  0.4491
  291MOL0     H39218   3.630   8.577  -0.100  0.6093  0.2136 -1.3812
  291MOL0     H39219   3.600   8.328  -0.183  1.0299  2.7362 -2.6863
  291MOL0     H39220   3.938   8.057  -0.132 -1.0133 -1.5157 -2.1516
  291MOL0     H39221   3.828   8.011   0.003  0.7301  0.4273 -0.2620
  291MOL0     H39222   3.845   7.831  -0.107  0.2976 -1.3032 -1.0490
  291MOL0     H39223   3.694   7.883  -0.183  0.8067  1.2838 -0.3099
  291MOL0     H39224   3.971   7.873  -0.319  1.0371 -0.8620  0.0520
  291MOL0     H39225   3.831   7.785  -0.360 -0.8482  0.6798  0.0814
  291MOL0     H39226   3.710   7.993  -0.431 -0.7861  1.4188  1.4182
  291MOL0     H39227   3.863   8.082  -0.403 -1.6532 -0.0662  2.1373
  291MOL0     H39228   3.854   8.032  -0.651  0.8627 -0.9273 -0.9610
  291MOL0     H39229   3.990   7.953  -0.573  0.5345 -0.1045 -2.9678
  291MOL0     H39230   3.831   7.740  -0.569  4.3612  0.0908  1.8795
  291MOL0     H39231   3.725   7.859  -0.663 -0.8173  0.5302  2.8946
  291MOL0     H39232   3.944   7.877  -0.818 -1.8490  0.4644 -0.0575
  291MOL0     H39233   3.992   7.732  -0.762  2.5097  3.2470 -0.0242
  291MOL0     H39234   3.804   7.782  -0.973  0.8956  3.4954  2.8216
  291MOL0     H39235   3.719   7.708  -0.853  0.5690  1.2185  0.8451
  291MOL0     H39236   3.896   7.455  -0.792 -2.4121  1.9301  0.4263
  291MOL0     H39237   3.926   7.204  -0.893  0.0353  3.0835  1.0734
  291MOL0     H39238   3.827   7.202  -1.018 -0.6216 -0.0934  0.6947
  291MOL0     H39239   4.118   7.262  -1.075 -0.2491  1.0809 -1.2656
  291MOL0     H39240   4.007   7.206  -1.199 -1.5957  0.9859  0.4475
  291MOL0     H39241   3.967   7.011  -1.145  0.9672  1.5298 -2.5212
  291MOL0     H39242   4.022   7.014  -0.972  0.0571 -1.0996 -0.5037
  291MOL0     H39243   4.247   7.074  -1.075 -1.0843 -0.0554  0.2809
  291MOL0     H39244   4.204   6.999  -1.217  1.4779 -2.6696 -0.3324
  291MOL0     H39245   4.435   6.956  -0.983 -0.4689  2.7885  1.5480
  291MOL0     H39246   4.616   6.998  -0.683  0.9754 -1.3409 -0.4746
  291MOL0     H39247   4.639   6.878  -0.823 -0.7831  1.1238 -2.7833
  291MOL0     H39248   4.591   7.044  -0.850 -1.7133  3.1694  1.6763
  291MOL0     H39249   4.173   6.895  -0.222  0.8187 -0.0311 -1.8511
  291MOL0     H39250   4.253   6.905   0.012  2.9240  1.4318  1.3572
  291MOL0     H39251   4.608   6.684   0.159 -0.6603 -1.2126 -1.6615
  291MOL0     H39252   4.492   6.708   0.289 -2.6681 -0.2854 -0.2763
  291MOL0     H39253   4.423   6.538   0.048  0.4308  3.9755 -0.4076
  291MOL0     H39254   4.477   6.480   0.212 -0.6140  0.8825  0.6300
  291MOL0     H39255   4.226   6.494   0.130  0.1727  0.1639  1.0083
  291MOL0     H39256   4.229   6.662   0.180 -3.7743 -1.2158  3.3536
  291MOL0     H39257   4.300   6.431   0.355 -0.0947  0.2370  0.8059
  291MOL0     H39258   4.321   6.598   0.402  0.5688  1.5734 -0.6313
  291MOL0     H39259   4.041   6.516   0.301  0.2678  1.8313 -0.8717
  291MOL0     H39260   4.097   6.647   0.392  2.0144  0.0762  2.6121
  291MOL0     H39261   4.204   6.412   0.538 -0.7257 -2.5305 -0.4275
  291MOL0     H39262   4.085   6.529   0.596  0.8071  2.8468 -2.2788
  291MOL0     H39263   4.040   6.295   0.605  0.0345  2.2596 -0.5517
  291MOL0     H39264   4.073   6.272   0.426 -1.0067  1.9078 -2.8703
  291MOL0     H39265   3.825   6.257   0.492 -2.9291 -0.1680 -4.4353
  291MOL0     H39266   3.866   6.355   0.353  0.3971  3.4306  0.5501
  291MOL0     H39267   4.591   6.682  -0.064  0.5017  0.9107  0.8259
  291MOL0     H39268   4.546   6.693  -0.317 -1.3574 -0.7104 -1.0254
  291MOL0     H39269   4.210   6.745  -0.612  3.3593 -0.3321  0.7283
  291MOL0     H39270   4.091   6.750  -0.846  2.1219 -3.2283 -1.7106
  291MOL0     H39271   3.928   8.210   0.041  2.4713  0.5939 -2.5592
  291MOL0     H39272   3.991   8.426   0.095  0.1673 -0.3075 -1.2272
  291MOL0     H39273   4.080   8.972   0.062  0.1374 -1.7678 -0.0769
  291MOL0     H39274   3.997   9.195   0.094  0.8903  0.1596  0.0308
  291MOL0     H39275   3.586   9.317  -0.000  0.4900  0.8082 -1.1262
  291MOL0     H39276   3.580   9.289   0.176 -0.8942 -0.0430 -0.9958
  291MOL0     H39277   3.663   9.505   0.220 -0.9927 -1.2472 -0.6189
  291MOL0     H39278   3.526   9.532   0.119  1.5964  3.7975 -2.5676
  291MOL0     H39279   3.689   9.570  -0.090  1.2605  3.0767 -0.2623
  291MOL0     H39280   3.811   9.545   0.039 -0.9468 -3.2822 -2.2026
  291MOL0     H39281   3.710   9.770   0.139 -1.5979 -0.3446  0.7663
  291MOL0     H39282   3.568   9.723   0.037 -0.3685 -3.4046  1.2053
  291MOL0     H39283   3.850   9.915  -0.231 -0.0726  1.0326  0.1082
  291MOL0     H39284   3.591   9.067   0.028  0.0231  3.5168 -0.8323
  291MOL0     H39285   3.668   8.836   0.002 -1.8095  1.1917 -2.1563
  292MOL0     O39286   9.285   6.079   8.594  0.7849  0.8465  0.0226
  292MOL0     C39287   9.338   6.185   8.559  0.0887 -0.0447 -0.3577
  292MOL0     O39288   9.479   6.197   8.561  0.0134 -0.3239 -0.1352
  292MOL0     C39289   9.563   6.086   8.565 -0.1449 -0.2089 -0.1384
  292MOL0     C39290   9.534   5.961   8.640 -0.8509 -0.8462  1.6738
  292MOL0     C39291   9.625   5.858   8.631  0.4505 -0.4979 -0.4386
  292MOL0     C39292   9.736   5.869   8.549 -0.6346  0.2493  0.1736
  292MOL0     O39293   9.832   5.772   8.525 -0.5297  0.6007  0.1476
  292MOL0     C39294   9.799   5.633   8.553  0.5521  0.1691 -0.2677
  292MOL0     C39295   9.912   5.540   8.504 -0.0156  0.4464 -0.8835
  292MOL0     C39296  10.051   5.583   8.552 -0.2055  0.7174 -0.7759
  292MOL0     C39297  10.062   5.560   8.709  0.3253  0.8369 -0.3733
  292MOL0     C39298  10.164   5.649   8.780  0.2261  0.3374  0.2322
  292MOL0     C39299  10.152   5.639   8.934 -0.5744 -0.4417 -0.8596
  292MOL0     C39300  10.266   5.721   9.016  0.8518  0.4995  0.1532
  292MOL0     C39301  10.250   5.737   9.160  0.5782  0.9370  0.0792
  292MOL0     N39302  10.330   5.844   9.231 -0.0943  0.7207 -0.7781
  292MOL0     C39303  10.394   5.944   9.169  0.0839 -0.5746  0.4650
  292MOL0     C39304  10.424   6.039   9.251  0.1299 -0.1980 -0.1987
  292MOL0     C39305  10.509   6.165   9.220 -0.1256  0.0006  0.0771
  292MOL0     C39306  10.556   6.238   9.358  0.4208  0.6991 -0.3888
  292MOL0     C39307  10.646   6.140   9.449 -0.2163 -0.7183  0.7191
  292MOL0     C39308  10.756   6.079   9.369 -0.2106 -0.5035 -0.5871
  292MOL0     O39309  10.824   5.986   9.452  0.7456  0.5019  0.3626
  292MOL0     C39310  10.769   5.860   9.467 -0.1846  0.1130  0.0868
  292MOL0     C39311  10.782   5.779   9.350 -0.2323 -0.6442  0.1796
  292MOL0     C39312  10.710   5.656   9.345  0.3955 -0.4418 -0.4632
  292MOL0     C39313  10.724   5.584   9.209  0.7338 -0.6590  0.2712
  292MOL0     C39314  10.631   5.609   9.454  0.3495 -0.1368  0.5797
  292MOL0     C39315  10.568   5.476   9.450 -0.4594  0.5710  0.3346
  292MOL0     O39316  10.469   5.468   9.533  0.1683  0.1563 -0.2151
  292MOL0     C39317  10.366   5.386   9.503 -0.1599  0.4875 -0.5826
  292MOL0     C39318  10.263   5.438   9.424 -0.7685  0.0527  0.3476
  292MOL0     C39319  10.156   5.363   9.397  0.3726  0.1834  0.9224
  292MOL0     C39320  10.151   5.236   9.451  0.0239 -0.2650 -0.7315
  292MOL0     O39321  10.040   5.148   9.434 -0.7671 -0.3092  0.0254
  292MOL0     C39322   9.999   5.131   9.299 -0.1220 -0.7264  0.4356
  292MOL0     C39323   9.916   5.011   9.286  0.3062  0.6307  0.1935
  292MOL0     C39324   9.789   4.999   9.365 -0.3876 -1.5250  0.2491
  292MOL0     C39325   9.671   5.039   9.268  0.2224 -0.8021  0.3513
  292MOL0     C39326   9.532   5.007   9.338 -0.4506 -0.2499 -0.6660
  292MOL0     C39327   9.423   5.049   9.236 -0.4357  0.3173 -0.4079
  292MOL0     C39328   9.281   5.020   9.289 -1.1642  0.4621 -0.3242
  292MOL0     C39329   9.162   5.036   9.199 -0.3785 -0.6188 -0.1433
  292MOL0    Cl39330   9.037   4.941   9.261 -0.2458  0.2149 -0.5027
  292MOL0     C39331  10.257   5.179   9.518 -0.1579 -0.1778 -0.4681
  292MOL0     C39332  10.366   5.257   9.550 -0.4306 -0.2506 -0.1774
  292MOL0     O39333  10.594   5.395   9.352 -0.1770  0.2427 -1.2214
  292MOL0     C39334  10.616   5.702   9.561 -0.1183  0.5220  0.1797
  292MOL0     C39335  10.679   5.829   9.564 -0.4153  0.6896 -0.3817
  292MOL0     N39336  10.383   5.985   9.376 -0.6033 -0.6639  0.1085
  292MOL0     N39337  10.319   5.875   9.359  0.6240 -0.6436 -0.3335
  292MOL0     C39338   9.767   5.988   8.476  0.2998  0.4952 -0.2402
  292MOL0     C39339   9.680   6.093   8.487 -0.0142 -1.2430  0.4173
  292MOL0     C39340   9.251   6.303   8.531 -0.2552  0.3969 -0.1229
  292MOL0     C39341   9.299   6.427   8.502  0.1101  0.0387 -0.0009
  292MOL0     C39342   9.205   6.533   8.468  0.2335 -0.5480 -0.5765
  292MOL0     C39343   9.070   6.516   8.488  1.0819 -0.5327 -0.0102
  292MOL0     O39344   8.986   6.627   8.464 -0.2209 -0.2781 -0.1058
  292MOL0     C39345   8.848   6.629   8.467 -0.4021  0.3072  0.2765
  292MOL0     C39346   8.804   6.764   8.509  0.3748  0.1303  1.0237
  292MOL0     C39347   8.753   6.849   8.389  0.1772  0.3445  0.0238
  292MOL0     C39348   8.603   6.899   8.409 -0.3470 -0.6992 -0.5352
  292MOL0     C39349   8.566   7.012   8.317  0.0096 -0.4543 -0.3843
  292MOL0     C39350   8.527   7.106   8.262 -0.0222 -0.6687  1.0857
  292MOL0     C39351   9.021   6.389   8.501 -0.1245  0.2378  0.5780
  292MOL0     C39352   9.114   6.288   8.526  0.1483  0.0389 -0.3135
  292MOL0     H39353   9.446   5.951   8.701 -1.3097 -2.0805  0.8485
  292MOL0     H39354   9.611   5.769   8.691 -0.5911 -1.8411 -2.5637
  292MOL0     H39355   9.792   5.624   8.662  2.5635  2.1798  0.1123
  292MOL0     H39356   9.707   5.604   8.502 -0.3172 -0.1505  1.4120
  292MOL0     H39357   9.887   5.440   8.541  2.8851 -0.4804 -1.1800
  292MOL0     H39358   9.904   5.550   8.395  1.6664  3.6877 -0.8459
  292MOL0     H39359  10.126   5.512   8.516 -3.4675 -2.9766 -0.9363
  292MOL0     H39360  10.073   5.682   8.510 -1.4665  0.1269 -2.9481
  292MOL0     H39361   9.963   5.571   8.755  0.5091  0.2162  0.1848
  292MOL0     H39362  10.079   5.453   8.722  0.4747  0.5782 -2.3266
  292MOL0     H39363  10.266   5.619   8.753  0.1056  1.2436 -1.3414
  292MOL0     H39364  10.157   5.754   8.753  2.4020  0.7339  0.9987
  292MOL0     H39365  10.057   5.686   8.962  0.5220  1.0687  0.4897
  292MOL0     H39366  10.152   5.534   8.964 -0.1551  0.4121  2.4360
  292MOL0     H39367  10.361   5.670   9.000 -0.1307 -3.2466  4.1425
  292MOL0     H39368  10.264   5.819   8.970 -0.1018 -0.3549 -1.7355
  292MOL0     H39369  10.268   5.637   9.199 -0.6327  0.3422 -0.8119
  292MOL0     H39370  10.147   5.765   9.180  0.4611  0.5350  0.0462
  292MOL0     H39371  10.419   5.950   9.064 -2.2803  1.2177 -0.0976
  292MOL0     H39372  10.585   6.156   9.142  0.7961  0.8419  0.8562
  292MOL0     H39373  10.438   6.237   9.179  0.5314  0.6562  0.0751
  292MOL0     H39374  10.472   6.290   9.405 -0.5581 -1.7882  0.7682
  292MOL0     H39375  10.619   6.320   9.324  0.7991 -0.0781 -1.6340
  292MOL0     H39376  10.586   6.062   9.497  0.2556 -2.5350 -1.4951
  292MOL0     H39377  10.689   6.195   9.533 -0.2091  0.2531  0.1014
  292MOL0     H39378  10.825   6.161   9.343 -0.0822 -0.4141  0.0282
  292MOL0     H39379  10.726   6.049   9.268 -0.0353  3.7073 -2.1110
  292MOL0     H39380  10.843   5.794   9.262 -0.5854  1.5551  0.2711
  292MOL0     H39381  10.624   5.545   9.187  0.6587 -1.5769  2.0133
  292MOL0     H39382  10.745   5.660   9.134 -1.3546 -0.1104  0.1743
  292MOL0     H39383  10.799   5.505   9.200  1.8616  0.6020 -1.8902
  292MOL0     H39384  10.271   5.541   9.391 -1.1867 -0.6838 -2.2806
  292MOL0     H39385  10.070   5.410   9.350 -0.6459 -0.7477  1.8073
  292MOL0     H39386   9.938   5.222   9.292 -0.6991 -1.0095  1.5117
  292MOL0     H39387  10.078   5.128   9.224 -1.0408 -2.2278 -0.5206
  292MOL0     H39388   9.904   4.999   9.178  2.9837 -2.8494  0.0951
  292MOL0     H39389   9.975   4.935   9.338 -1.4604  0.5595  2.2473
  292MOL0     H39390   9.793   5.060   9.455 -0.2194 -0.6039 -0.3630
  292MOL0     H39391   9.772   4.899   9.405 -1.6560 -0.7498  1.7412
  292MOL0     H39392   9.673   5.145   9.240  1.8295 -0.7487  0.5722
  292MOL0     H39393   9.679   4.990   9.170  2.1855 -0.0396  0.0950
  292MOL0     H39394   9.526   5.061   9.432  0.5581 -3.1370  1.2080
  292MOL0     H39395   9.531   4.899   9.355  0.1710 -0.6039 -2.6109
  292MOL0     H39396   9.432   5.148   9.190 -5.9408 -0.1132 -3.2219
  292MOL0     H39397   9.449   4.987   9.150 -0.7076  0.9734 -0.9729
  292MOL0     H39398   9.271   5.087   9.375  1.3639  0.4021  0.0804
  292MOL0     H39399   9.283   4.924   9.343  0.0331 -0.1334 -1.3819
  292MOL0     H39400   9.184   5.004   9.097 -1.6357  0.5122 -0.8029
  292MOL0     H39401   9.131   5.140   9.185 -0.5713 -0.6962 -0.2865
  292MOL0     H39402  10.244   5.078   9.556  0.5549  0.5618  1.9431
  292MOL0     H39403  10.451   5.224   9.610  1.9409  1.0069 -2.6349
  292MOL0     H39404  10.559   5.669   9.648  3.0754  1.6221  2.9251
  292MOL0     H39405  10.639   5.872   9.655  1.3605 -1.3002  1.4610
  292MOL0     H39406   9.853   5.995   8.411  1.4008  0.4041  1.1700
  292MOL0     H39407   9.702   6.180   8.426  1.6827  0.0591  2.7181
  292MOL0     H39408   9.405   6.442   8.481  0.8865 -4.0583  0.1809
  292MOL0     H39409   9.241   6.632   8.439 -3.2585  1.4916  1.3490
  292MOL0     H39410   8.814   6.608   8.365 -1.4373 -1.4344  0.9329
  292MOL0     H39411   8.798   6.553   8.528 -0.9351 -0.5322 -1.1553
  292MOL0     H39412   8.890   6.807   8.560  0.5559  0.1965  0.6638
  292MOL0     H39413   8.720   6.745   8.577 -0.7797 -4.5848 -1.3260
  292MOL0     H39414   8.773   6.799   8.294  4.1128 -0.9914  1.3154
  292MOL0     H39415   8.814   6.940   8.381  0.5178  0.0101 -1.3569
  292MOL0     H39416   8.581   6.941   8.508 -2.7623  2.1351 -2.1193
  292MOL0     H39417   8.534   6.815   8.401 -1.2977  0.0890 -0.7340
  292MOL0     H39418   8.490   7.190   8.206 -2.6810 -4.2650 -3.2985
  292MOL0     H39419   8.916   6.363   8.495  0.1689 -1.0081  0.4228
  292MOL0     H39420   9.075   6.189   8.550 -1.7345  0.9903  0.6984
  293MOL0     O39421   4.500   7.569   6.253 -0.7312 -0.9420 -0.5192
  293MOL0     C39422   4.417   7.601   6.168 -0.3776 -0.0701 -0.2682
  293MOL0     O39423   4.435   7.703   6.075 -0.2409 -0.2123  0.0669
  293MOL0     C39424   4.546   7.786   6.077 -0.6201  0.0775 -0.7591
  293MOL0     C39425   4.581   7.843   5.955 -0.5634  0.4377 -0.2182
  293MOL0     C39426   4.692   7.927   5.933 -0.1204  0.4132 -0.3683
  293MOL0     C39427   4.772   7.955   6.040 -0.0442  0.8311 -0.2968
  293MOL0     O39428   4.889   8.029   6.022 -0.1954 -0.2388  0.4481
  293MOL0     C39429   5.008   7.957   6.053  1.0083 -1.2783 -0.5954
  293MOL0     C39430   5.125   8.056   6.019 -0.2826  1.0430 -0.1350
  293MOL0     C39431   5.264   8.008   5.990  0.0518  1.3665 -0.1568
  293MOL0     C39432   5.360   8.116   5.947 -0.0714 -0.4051  0.5098
  293MOL0     C39433   5.511   8.063   5.938  0.1732 -0.3283 -0.1920
  293MOL0     C39434   5.614   8.177   5.946  0.2027  0.7500 -0.0223
  293MOL0     C39435   5.770   8.147   5.952 -0.0447 -0.1645  0.1954
  293MOL0     C39436   5.839   8.076   5.831  0.0226  1.3080 -0.6027
  293MOL0     N39437   5.855   8.163   5.719  0.4397 -0.4913  0.6398
  293MOL0     C39438   5.972   8.218   5.678  0.3235 -0.2974 -0.5095
  293MOL0     C39439   5.957   8.283   5.561 -0.2565  0.0469 -0.2700
  293MOL0     C39440   6.062   8.353   5.485 -0.1962 -0.3228 -0.2919
  293MOL0     C39441   6.022   8.483   5.411  0.7196  0.1776  0.1205
  293MOL0     C39442   6.012   8.602   5.515  0.1467  0.3058  0.1235
  293MOL0     C39443   5.970   8.734   5.444  0.5425  1.1345 -0.6453
  293MOL0     O39444   6.027   8.852   5.497  0.3597 -0.2038 -0.2762
  293MOL0     C39445   6.009   8.976   5.445 -0.2456  0.6011  0.3937
  293MOL0     C39446   5.947   8.997   5.322  0.3103 -1.1132  0.4171
  293MOL0     C39447   5.930   9.129   5.272  0.5821  0.5258  0.6866
  293MOL0     C39448   5.840   9.143   5.149 -0.6012  0.8454 -0.0287
  293MOL0     C39449   5.994   9.244   5.329  0.2965 -0.2168 -0.2061
  293MOL0     C39450   5.998   9.379   5.273 -0.4351  0.0224  0.2328
  293MOL0     O39451   6.037   9.474   5.365 -0.9061  0.3148 -0.8369
  293MOL0     C39452   6.083   9.592   5.314  0.0699 -0.3357 -0.0300
  293MOL0     C39453   6.212   9.631   5.351  0.4196 -1.1167  1.1419
  293MOL0     C39454   6.260   9.760   5.312  1.2074 -0.5659 -0.3009
  293MOL0     C39455   6.180   9.842   5.243  0.3749  0.0761  0.6635
  293MOL0     O39456   6.227   9.967   5.207  0.4301  0.1631  0.8106
  293MOL0     C39457   6.155  10.069   5.152  0.1025  0.5898  0.3816
  293MOL0     C39458   6.208  10.196   5.218 -0.2848 -0.1129 -0.5882
  293MOL0     C39459   6.135  10.314   5.151  0.0676 -0.2109 -0.2657
  293MOL0     C39460   6.138  10.441   5.233 -0.2885  0.2557 -0.0940
  293MOL0     C39461   6.261  10.529   5.212  0.5928  0.7203  0.8132
  293MOL0     C39462   6.276  10.572   5.065  0.8526  1.4938  0.1218
  293MOL0     C39463   6.371  10.692   5.049  0.4643  0.6094 -0.6518
  293MOL0     C39464   6.295  10.821   5.083  0.6571 -0.3752  0.5613
  293MOL0    Cl39465   6.129  10.832   4.991 -0.1428 -0.0885 -0.2120
  293MOL0     C39466   6.061   9.798   5.190 -0.6174 -0.6984 -0.6561
  293MOL0     C39467   6.014   9.677   5.234  0.8379  0.1500 -0.5083
  293MOL0     O39468   5.952   9.397   5.159  0.2467 -0.1906  1.2026
  293MOL0     C39469   6.059   9.220   5.449 -0.6312  0.0799 -0.6788
  293MOL0     C39470   6.062   9.092   5.504  0.1860 -0.0153  0.7550
  293MOL0     N39471   5.826   8.250   5.520 -0.0102  0.2041 -0.1587
  293MOL0     N39472   5.763   8.184   5.619 -0.5908 -0.4931 -0.4193
  293MOL0     C39473   4.737   7.905   6.175  0.5229 -0.3971  0.1065
  293MOL0     C39474   4.617   7.824   6.192 -0.0045  1.2031 -0.1668
  293MOL0     C39475   4.287   7.529   6.178  0.9405  0.8996  0.0585
  293MOL0     C39476   4.267   7.424   6.269 -0.8317  0.3488  0.2322
  293MOL0     C39477   4.145   7.355   6.264  0.6440  0.8778 -0.2262
  293MOL0     C39478   4.043   7.379   6.168  0.5673  0.0363 -1.8046
  293MOL0     O39479   3.927   7.299   6.179 -0.6475  0.1194 -0.5768
  293MOL0     C39480   3.824   7.340   6.087 -0.1738 -0.0791  0.3957
  293MOL0     C39481   3.738   7.450   6.131 -0.5788  0.8128  0.4821
  293MOL0     C39482   3.700   7.455   6.277  0.7601 -0.9108 -0.3898
  293MOL0     C39483   3.629   7.584   6.317  1.1962 -0.5068 -0.6051
  293MOL0     C39484   3.527   7.629   6.219  0.1697 -0.3229 -0.8993
  293MOL0     C39485   3.437   7.645   6.148  0.0367  0.8773  0.1451
  293MOL0     C39486   4.063   7.493   6.088 -0.3777 -0.7408 -0.2243
  293MOL0     C39487   4.182   7.575   6.104  0.3508 -1.0431  1.1101
  293MOL0     H39488   4.509   7.815   5.879  0.8262  2.5221 -2.4214
  293MOL0     H39489   4.718   7.976   5.839 -1.4026 -2.3618 -2.2908
  293MOL0     H39490   5.014   7.927   6.158  3.3684 -0.6833 -0.5107
  293MOL0     H39491   5.008   7.878   5.977 -2.1246 -0.2472 -1.8700
  293MOL0     H39492   5.099   8.115   5.931  2.1833  0.0354 -1.6483
  293MOL0     H39493   5.134   8.119   6.109  0.4125 -0.7266  1.0811
  293MOL0     H39494   5.301   7.967   6.084 -0.6665  2.4158  0.6099
  293MOL0     H39495   5.248   7.929   5.916 -3.9088  1.6665  0.1499
  293MOL0     H39496   5.324   8.160   5.854  0.7988 -3.4469 -1.4048
  293MOL0     H39497   5.355   8.200   6.016 -1.2510 -0.0391 -0.0083
  293MOL0     H39498   5.532   7.992   6.019 -1.9147 -0.8854 -0.0947
  293MOL0     H39499   5.528   8.021   5.839  0.9682 -0.3547 -0.0503
  293MOL0     H39500   5.596   8.242   5.859 -2.3530  1.0648  0.6565
  293MOL0     H39501   5.586   8.239   6.031 -1.0463 -2.5465  2.1546
  293MOL0     H39502   5.823   8.241   5.967 -2.6203  1.0259  3.0247
  293MOL0     H39503   5.778   8.086   6.043 -0.6468  0.6734  0.8212
  293MOL0     H39504   5.782   7.983   5.813 -0.9026  1.4696  1.1989
  293MOL0     H39505   5.938   8.051   5.870 -0.9566 -2.1004  0.0965
  293MOL0     H39506   6.070   8.200   5.721  0.0181 -1.0615 -0.1161
  293MOL0     H39507   6.148   8.381   5.546 -1.0184  1.5005  0.0964
  293MOL0     H39508   6.103   8.284   5.410  0.0422  1.4126 -1.8287
  293MOL0     H39509   5.918   8.464   5.382  1.4467 -1.5379 -1.6091
  293MOL0     H39510   6.089   8.504   5.328  0.5873 -2.8306 -0.8736
  293MOL0     H39511   6.105   8.627   5.568 -1.7125  1.2687  3.1283
  293MOL0     H39512   5.939   8.581   5.593 -1.1125  1.3102 -0.7418
  293MOL0     H39513   5.863   8.743   5.467  0.6270 -0.9866  0.7450
  293MOL0     H39514   6.002   8.727   5.339  2.5075  0.9090 -0.0584
  293MOL0     H39515   5.902   8.916   5.267  2.8228 -1.6161 -1.0350
  293MOL0     H39516   5.815   9.041   5.117 -1.8566  1.2948 -0.5256
  293MOL0     H39517   5.756   9.211   5.161 -0.3334  1.7791 -2.5920
  293MOL0     H39518   5.897   9.178   5.062  0.8804 -1.2719 -0.0037
  293MOL0     H39519   6.272   9.560   5.407 -1.0331 -1.7457  1.9528
  293MOL0     H39520   6.358   9.790   5.348  0.5022  1.2074  0.2703
  293MOL0     H39521   6.184  10.071   5.046 -1.9508  2.1767 -0.2215
  293MOL0     H39522   6.047  10.082   5.154 -0.0398 -0.3423 -0.5905
  293MOL0     H39523   6.195  10.186   5.326 -0.3416  1.1317 -0.4630
  293MOL0     H39524   6.314  10.220   5.207  0.3291 -0.3926  3.1482
  293MOL0     H39525   6.028  10.294   5.141 -0.4378  1.1746  1.7535
  293MOL0     H39526   6.175  10.309   5.049 -2.4369 -5.5951 -1.3398
  293MOL0     H39527   6.058  10.510   5.206  1.4875  1.8627 -1.4959
  293MOL0     H39528   6.117  10.424   5.339 -3.3568  1.5401 -0.4058
  293MOL0     H39529   6.350  10.469   5.232  1.2927 -0.0239 -3.4671
  293MOL0     H39530   6.276  10.612   5.281  0.6470 -1.7173  3.9176
  293MOL0     H39531   6.292  10.487   4.999 -1.5548  3.8067 -3.8334
  293MOL0     H39532   6.176  10.596   5.026  1.1642  1.0793 -0.9565
  293MOL0     H39533   6.416  10.689   4.950 -0.1987 -2.7164 -0.9723
  293MOL0     H39534   6.452  10.685   5.123  0.3373 -1.7835 -0.6719
  293MOL0     H39535   6.355  10.909   5.057  3.5839 -2.8347 -1.8514
  293MOL0     H39536   6.278  10.816   5.191  1.3844 -2.4401  0.6225
  293MOL0     H39537   6.005   9.869   5.130  0.8031 -0.2597 -1.4854
  293MOL0     H39538   5.910   9.654   5.213  0.1820  1.7137  0.8367
  293MOL0     H39539   6.101   9.305   5.502 -2.0187  1.6084 -1.9104
  293MOL0     H39540   6.120   9.093   5.597  4.9287 -0.4626 -1.8769
  293MOL0     H39541   4.812   7.928   6.250  0.8094  2.0260 -0.8313
  293MOL0     H39542   4.586   7.788   6.289 -1.5854  1.0628 -0.7063
  293MOL0     H39543   4.353   7.392   6.326 -2.2406  0.7811  2.7833
  293MOL0     H39544   4.126   7.275   6.335 -0.9014 -0.6497 -2.2019
  293MOL0     H39545   3.872   7.356   5.990 -0.2659  0.3561  0.4213
  293MOL0     H39546   3.766   7.253   6.054 -0.1741  0.2083 -0.3720
  293MOL0     H39547   3.651   7.436   6.066 -0.7212  0.3103  0.7756
  293MOL0     H39548   3.790   7.542   6.103 -1.8514  1.1139 -1.0057
  293MOL0     H39549   3.781   7.446   6.350 -0.4785  1.8536  1.5228
  293MOL0     H39550   3.629   7.374   6.294 -1.4123  0.9794  0.1100
  293MOL0     H39551   3.693   7.671   6.335  1.2193 -0.9126  1.5655
  293MOL0     H39552   3.588   7.561   6.416 -0.0325 -0.3592 -1.0709
  293MOL0     H39553   3.343   7.646   6.096 -0.0079 -2.1014 -0.0193
  293MOL0     H39554   3.984   7.531   6.025 -1.0400 -1.0742  0.3928
  293MOL0     H39555   4.178   7.660   6.037 -4.3377 -2.5631 -0.9535
  294MOL0     O39556   5.151   2.823   9.116 -0.3356 -0.2730  0.6420
  294MOL0     C39557   5.148   2.736   9.202 -0.1076  0.2865 -0.0268
  294MOL0     O39558   5.195   2.747   9.327  0.0283 -0.0459  0.2815
  294MOL0     C39559   5.293   2.837   9.341  0.1753 -1.2624  0.7149
  294MOL0     C39560   5.426   2.787   9.344  0.4139  1.0531 -0.4268
  294MOL0     C39561   5.526   2.874   9.381  0.4619  0.5473 -0.1079
  294MOL0     C39562   5.505   3.016   9.383 -0.7567  0.4258  0.2136
  294MOL0     O39563   5.601   3.112   9.407 -0.4935  0.4160  0.5930
  294MOL0     C39564   5.736   3.072   9.377  0.0130 -0.2795  0.3441
  294MOL0     C39565   5.837   3.191   9.376 -0.5013  0.3595  0.0865
  294MOL0     C39566   5.819   3.290   9.272 -0.6353  0.1081 -0.8497
  294MOL0     C39567   5.711   3.389   9.312 -0.2857  0.1152 -0.2916
  294MOL0     C39568   5.788   3.522   9.339  0.2022  0.7927  0.1375
  294MOL0     C39569   5.695   3.643   9.343  0.2751 -0.2955 -0.5659
  294MOL0     C39570   5.624   3.674   9.210  0.7426 -0.7455  0.1833
  294MOL0     C39571   5.636   3.815   9.154  0.8182 -0.2223  0.0251
  294MOL0     N39572   5.782   3.865   9.139  0.7499 -0.2420 -1.1901
  294MOL0     C39573   5.852   3.860   9.033 -1.9017 -0.1214 -0.4353
  294MOL0     C39574   5.960   3.942   9.065  0.4021  0.2661  0.2900
  294MOL0     C39575   6.059   3.982   8.963 -1.2496  0.5290  0.9558
  294MOL0     C39576   6.192   3.901   8.975 -0.4578  0.1236  1.0152
  294MOL0     C39577   6.309   3.978   8.910 -0.0982 -0.0198 -0.4852
  294MOL0     C39578   6.428   3.902   8.851 -0.4386 -0.7154  0.2789
  294MOL0     O39579   6.506   3.851   8.960  0.4249  0.7498  0.2060
  294MOL0     C39580   6.624   3.790   8.928 -0.5120  0.6652 -0.4529
  294MOL0     C39581   6.657   3.675   9.003 -0.0967  0.2181 -0.3096
  294MOL0     C39582   6.771   3.610   8.971 -0.0122 -0.3078 -0.0860
  294MOL0     C39583   6.782   3.475   9.038  0.6911 -0.7715 -0.6101
  294MOL0     C39584   6.865   3.658   8.877  0.5534  0.8006 -0.8693
  294MOL0     C39585   6.996   3.585   8.862 -0.2694  0.0537 -0.1596
  294MOL0     O39586   7.033   3.476   8.930  0.3920 -0.2642 -0.4125
  294MOL0     C39587   7.171   3.437   8.922 -0.6782 -1.4254 -0.4569
  294MOL0     C39588   7.234   3.420   8.800  0.4576  0.0586  0.5814
  294MOL0     C39589   7.368   3.382   8.793  0.7723 -0.5319  0.5641
  294MOL0     C39590   7.443   3.386   8.916 -0.4171 -1.3903 -0.0831
  294MOL0     O39591   7.581   3.372   8.932  0.9388  0.3893 -0.0290
  294MOL0     C39592   7.649   3.287   8.834 -0.1216 -0.4024  0.5984
  294MOL0     C39593   7.790   3.254   8.875 -0.0179  0.4758 -0.4885
  294MOL0     C39594   7.809   3.104   8.903 -0.1722 -0.3751  0.0728
  294MOL0     C39595   7.697   3.036   8.998 -0.5352 -0.2400 -0.2579
  294MOL0     C39596   7.773   2.917   9.065 -0.0604 -0.4703 -0.2909
  294MOL0     C39597   7.826   2.812   8.963 -0.8701  1.5144 -0.8075
  294MOL0     C39598   7.990   2.802   8.961 -0.1490 -0.4278  0.3775
  294MOL0     C39599   8.037   2.707   8.853 -0.4559 -0.2473  0.4196
  294MOL0    Cl39600   8.060   2.797   8.706  0.1675 -0.0143  0.3965
  294MOL0     C39601   7.380   3.421   9.035  0.0089  0.2699 -1.0794
  294MOL0     C39602   7.245   3.438   9.043  0.4478  0.0030  0.3999
  294MOL0     O39603   7.058   3.640   8.769  0.8211  0.4808 -0.2352
  294MOL0     C39604   6.832   3.778   8.815 -0.7686  0.0213  0.8405
  294MOL0     C39605   6.717   3.854   8.841 -0.0655  0.2018 -0.1331
  294MOL0     N39606   5.949   3.990   9.195  0.7980  0.3474 -0.1577
  294MOL0     N39607   5.840   3.930   9.236 -0.0191  0.0199  0.9030
  294MOL0     C39608   5.379   3.062   9.384  0.0296  0.4349  0.6283
  294MOL0     C39609   5.271   2.975   9.367 -0.0287 -0.1101  1.2007
  294MOL0     C39610   5.089   2.604   9.162  0.8877  1.0364  1.1736
  294MOL0     C39611   4.996   2.582   9.057  0.6980  0.8119 -0.1422
  294MOL0     C39612   4.948   2.454   9.018 -0.1702 -0.7081 -0.4962
  294MOL0     C39613   5.004   2.341   9.073 -0.0663  0.2451  0.3768
  294MOL0     O39614   4.965   2.217   9.026 -0.5869  0.1548 -0.3018
  294MOL0     C39615   5.036   2.151   8.914 -0.0481  0.2437  0.2816
  294MOL0     C39616   5.050   2.001   8.941 -1.0977 -0.3122 -0.2391
  294MOL0     C39617   4.916   1.931   8.934  0.3968 -0.3131 -0.3140
  294MOL0     C39618   4.938   1.795   8.890  0.1288 -0.1858  0.6834
  294MOL0     C39619   4.815   1.720   8.925  0.0345  0.3258 -0.4800
  294MOL0     C39620   4.720   1.646   8.949  0.2141  0.4657  0.6916
  294MOL0     C39621   5.088   2.356   9.189 -1.1437 -0.2555  0.6973
  294MOL0     C39622   5.133   2.489   9.228 -0.2488  0.7933 -0.9934
  294MOL0     H39623   5.447   2.680   9.343 -1.4089  0.6526 -1.0349
  294MOL0     H39624   5.619   2.835   9.421 -0.7671 -1.2135  1.2168
  294MOL0     H39625   5.765   3.010   9.463  0.3298  0.3327  0.6864
  294MOL0     H39626   5.746   3.016   9.284  1.3542 -2.1704  1.5408
  294MOL0     H39627   5.838   3.239   9.475 -2.4563  0.3664  0.1431
  294MOL0     H39628   5.931   3.136   9.366 -0.1958  0.5199  1.7822
  294MOL0     H39629   5.915   3.337   9.246  0.3793  0.2974  2.7334
  294MOL0     H39630   5.787   3.247   9.176 -2.0274 -0.1699 -0.2800
  294MOL0     H39631   5.654   3.390   9.218  1.5077  0.2195 -1.4170
  294MOL0     H39632   5.655   3.367   9.403 -0.3361 -1.5297 -0.6802
  294MOL0     H39633   5.839   3.508   9.435 -0.9992  1.6019  0.9317
  294MOL0     H39634   5.862   3.541   9.261  1.2650  2.5576  1.4953
  294MOL0     H39635   5.622   3.640   9.425 -0.9813  1.2682 -1.5624
  294MOL0     H39636   5.757   3.727   9.373  1.9155 -0.1898 -3.7977
  294MOL0     H39637   5.670   3.614   9.131 -3.1066 -3.0018 -0.5673
  294MOL0     H39638   5.522   3.637   9.221  1.3742 -2.5811  0.1879
  294MOL0     H39639   5.589   3.879   9.230 -2.4596 -2.8754  0.4542
  294MOL0     H39640   5.580   3.832   9.061  1.6173 -0.1043 -0.4454
  294MOL0     H39641   5.838   3.823   8.932  0.4202  4.1076 -2.5952
  294MOL0     H39642   6.017   3.960   8.864  1.2520  0.2037 -0.1151
  294MOL0     H39643   6.068   4.089   8.982 -2.6729  0.8120  0.1289
  294MOL0     H39644   6.178   3.815   8.908  0.3002  1.4163 -0.9044
  294MOL0     H39645   6.215   3.850   9.069  0.3883 -1.2479  0.1015
  294MOL0     H39646   6.340   4.053   8.983 -1.3755  2.6213 -2.4553
  294MOL0     H39647   6.264   4.027   8.823  1.4334 -0.1196 -1.3714
  294MOL0     H39648   6.482   3.980   8.798 -1.1726 -1.1230 -1.1112
  294MOL0     H39649   6.413   3.815   8.788  0.5862 -0.3740 -0.4500
  294MOL0     H39650   6.588   3.642   9.080 -1.1742  0.4332 -1.1546
  294MOL0     H39651   6.869   3.463   9.104 -0.5977 -1.1409  1.0995
  294MOL0     H39652   6.691   3.465   9.099 -0.3659 -1.5635 -2.2478
  294MOL0     H39653   6.771   3.399   8.961  1.3102  0.6047 -2.1039
  294MOL0     H39654   7.173   3.413   8.710 -0.7576  0.2672  1.3599
  294MOL0     H39655   7.411   3.361   8.696 -0.1352  0.9671 -0.1922
  294MOL0     H39656   7.591   3.197   8.813 -1.6458  0.5542  0.5748
  294MOL0     H39657   7.669   3.344   8.742  4.2447 -0.9523  0.9580
  294MOL0     H39658   7.862   3.291   8.802  0.9883  1.7483  1.0821
  294MOL0     H39659   7.816   3.308   8.967  2.9040 -1.8382  0.1939
  294MOL0     H39660   7.910   3.083   8.939 -0.3591 -0.9028  0.2903
  294MOL0     H39661   7.800   3.037   8.817 -0.7566 -1.0891  0.6835
  294MOL0     H39662   7.664   3.106   9.076  0.0030 -2.1423  1.8007
  294MOL0     H39663   7.605   3.006   8.947  0.0987 -1.4140 -0.7524
  294MOL0     H39664   7.698   2.869   9.128  0.1672  0.5484  0.7751
  294MOL0     H39665   7.856   2.960   9.122  0.2882  3.6108 -3.3875
  294MOL0     H39666   7.776   2.716   8.975 -0.9206  0.7687 -5.3309
  294MOL0     H39667   7.794   2.837   8.861 -1.1189 -0.2623 -1.1961
  294MOL0     H39668   8.028   2.768   9.058 -3.7340  0.2446  2.2020
  294MOL0     H39669   8.033   2.901   8.944 -1.0301  0.0860  1.0056
  294MOL0     H39670   7.957   2.636   8.831 -0.4732  0.2011 -1.0971
  294MOL0     H39671   8.131   2.654   8.870  1.5313  3.8137  4.0581
  294MOL0     H39672   7.425   3.431   9.134  0.5378  0.4208 -1.3284
  294MOL0     H39673   7.202   3.459   9.140  0.4777  0.3252  0.3452
  294MOL0     H39674   6.907   3.818   8.748 -0.5770 -1.1570  0.3291
  294MOL0     H39675   6.690   3.948   8.796 -1.1289  0.2272  0.5188
  294MOL0     H39676   5.365   3.169   9.393  1.8006  0.7134  0.4220
  294MOL0     H39677   5.169   3.011   9.367  0.1941  0.5375  1.0662
  294MOL0     H39678   4.965   2.652   8.981 -0.6762 -2.8357 -3.3070
  294MOL0     H39679   4.882   2.440   8.932  0.6299  1.4860 -1.5591
  294MOL0     H39680   4.984   2.170   8.819  1.7643  3.3834 -0.2471
  294MOL0     H39681   5.138   2.187   8.901  0.2026 -1.2544 -2.9873
  294MOL0     H39682   5.073   2.003   9.048 -1.3964  5.0715  0.0396
  294MOL0     H39683   5.131   1.958   8.883  0.1816  1.9626 -0.2611
  294MOL0     H39684   4.872   1.994   8.856 -0.2024  1.2993  1.2717
  294MOL0     H39685   4.858   1.935   9.026 -0.7025 -1.2452 -0.9391
  294MOL0     H39686   5.017   1.756   8.954 -1.6423  0.1829  3.2059
  294MOL0     H39687   4.970   1.774   8.787  2.8180 -2.4976  1.8590
  294MOL0     H39688   4.644   1.570   8.947 -2.8180  3.2676 -1.5891
  294MOL0     H39689   5.128   2.265   9.232 -3.4176 -2.5487 -1.6622
  294MOL0     H39690   5.211   2.503   9.302 -1.3693  0.7990  0.2024
  295MOL0     O39691   3.992  11.315   1.695 -0.0025 -0.3473 -1.4599
  295MOL0     C39692   3.948  11.250   1.604  0.3028 -0.2037  0.6800
  295MOL0     O39693   3.866  11.297   1.504 -0.0268  0.0222  0.3156
  295MOL0     C39694   3.789  11.412   1.503 -1.2674 -0.5053  0.2972
  295MOL0     C39695   3.760  11.472   1.379  1.4491 -0.1597  0.5684
  295MOL0     C39696   3.693  11.589   1.369  0.3677 -0.5001 -0.6202
  295MOL0     C39697   3.674  11.660   1.487  0.0759  0.6377  0.1748
  295MOL0     O39698   3.645  11.801   1.487  0.0520  0.9353 -0.0358
  295MOL0     C39699   3.617  11.875   1.371  0.1726  0.2116 -0.2283
  295MOL0     C39700   3.553  12.003   1.423  0.7632 -0.1564 -0.0886
  295MOL0     C39701   3.627  12.067   1.544 -0.8752 -0.3587 -0.3536
  295MOL0     C39702   3.541  12.191   1.573 -0.0150 -0.4273  0.0819
  295MOL0     C39703   3.595  12.291   1.679  0.6513 -0.0049 -0.4321
  295MOL0     C39704   3.611  12.222   1.809 -0.0644  0.5309  0.4183
  295MOL0     C39705   3.670  12.310   1.923  0.9125  0.0061  0.4920
  295MOL0     C39706   3.803  12.375   1.886 -0.3133 -0.2720  0.1292
  295MOL0     N39707   3.868  12.450   2.003 -0.7296  0.2547 -0.5270
  295MOL0     C39708   3.873  12.586   2.021  0.3282 -0.9711 -0.4771
  295MOL0     C39709   3.913  12.607   2.153  0.4029  0.5686  0.2555
  295MOL0     C39710   3.933  12.749   2.219 -0.4808  0.5197  1.3138
  295MOL0     C39711   4.077  12.788   2.215  1.1422  0.9021 -0.5353
  295MOL0     C39712   4.163  12.700   2.309  0.3435  0.7005 -0.4402
  295MOL0     C39713   4.113  12.689   2.447  0.5690  0.4650 -0.9351
  295MOL0     O39714   4.119  12.812   2.507 -0.1806  0.4947  0.6705
  295MOL0     C39715   4.044  12.843   2.615  0.0417 -0.3504 -0.1851
  295MOL0     C39716   3.999  12.750   2.710  0.7132 -0.6646 -0.1851
  295MOL0     C39717   3.929  12.793   2.818 -1.1705 -0.3611 -0.5821
  295MOL0     C39718   3.875  12.682   2.899 -0.0315 -0.4048  0.3103
  295MOL0     C39719   3.915  12.934   2.837  0.2023  0.1007 -0.3781
  295MOL0     C39720   3.858  12.997   2.953  1.7368  0.5773 -0.3680
  295MOL0     O39721   3.843  13.140   2.945  0.0371  0.1472 -0.2266
  295MOL0     C39722   3.754  13.191   3.033  0.4118 -0.3733  0.2258
  295MOL0     C39723   3.750  13.184   3.175 -0.3174 -0.4306  0.4895
  295MOL0     C39724   3.649  13.241   3.248  0.4655  0.2078 -0.4764
  295MOL0     C39725   3.551  13.332   3.179  0.5445  0.0050 -0.6416
  295MOL0     O39726   3.441  13.379   3.246 -0.0165 -0.2012  0.6429
  295MOL0     C39727   3.427  13.411   3.381  0.6041  1.1502  0.7279
  295MOL0     C39728   3.299  13.346   3.433 -0.4151 -0.8673 -0.0904
  295MOL0     C39729   3.166  13.403   3.380 -0.4940 -0.0550  0.1277
  295MOL0     C39730   3.054  13.337   3.449  0.4846 -0.0780 -0.9784
  295MOL0     C39731   2.923  13.403   3.420  0.1725  1.7080  0.2206
  295MOL0     C39732   2.811  13.346   3.509  0.3312 -0.3492 -0.8733
  295MOL0     C39733   2.676  13.387   3.451  0.9314  0.3572  0.4879
  295MOL0     C39734   2.642  13.533   3.464 -0.1135 -0.1617  1.8863
  295MOL0    Cl39735   2.474  13.548   3.395 -0.5051  0.1292  0.5766
  295MOL0     C39736   3.562  13.344   3.043  0.3708 -0.0239  0.3518
  295MOL0     C39737   3.659  13.275   2.974 -0.1870  0.1482 -0.4317
  295MOL0     O39738   3.836  12.929   3.057  0.8167  0.1192  0.1521
  295MOL0     C39739   3.975  13.026   2.746 -0.4758  0.1529  0.5028
  295MOL0     C39740   4.035  12.977   2.636  1.1805  0.9845  1.0499
  295MOL0     N39741   3.946  12.476   2.200  0.5423  0.3863  0.1084
  295MOL0     N39742   3.923  12.390   2.112  0.2467 -0.3794  0.2581
  295MOL0     C39743   3.696  11.605   1.616 -0.1578  0.6442 -0.2897
  295MOL0     C39744   3.747  11.470   1.615  0.5660 -0.0635  0.6776
  295MOL0     C39745   4.003  11.114   1.573  0.5873  0.2089 -0.1907
  295MOL0     C39746   3.926  11.027   1.491 -1.2274 -0.0484  0.4313
  295MOL0     C39747   3.970  10.900   1.470  0.7482 -0.7987  0.3842
  295MOL0     C39748   4.085  10.844   1.528 -0.3905  0.4188 -0.3411
  295MOL0     O39749   4.145  10.726   1.489  0.2503  0.6701  0.0028
  295MOL0     C39750   4.066  10.641   1.412  0.3059 -0.0009  0.3229
  295MOL0     C39751   4.142  10.508   1.370 -0.0601  0.2053 -1.1299
  295MOL0     C39752   4.275  10.531   1.300  0.4462 -0.8583 -0.2176
  295MOL0     C39753   4.273  10.585   1.156 -0.8197  0.0409 -0.1374
  295MOL0     C39754   4.195  10.707   1.146  0.7557 -0.5704 -0.6631
  295MOL0     C39755   4.143  10.804   1.117  0.6737 -0.5108  0.1708
  295MOL0     C39756   4.165  10.928   1.601 -0.4030  0.2583 -0.2758
  295MOL0     C39757   4.118  11.059   1.626 -1.4480  0.6603 -0.2961
  295MOL0     H39758   3.784  11.436   1.279  0.7844  3.6781 -1.1344
  295MOL0     H39759   3.681  11.641   1.274  1.4322 -1.3934 -1.2737
  295MOL0     H39760   3.701  11.913   1.313 -2.9696  2.4650 -3.8205
  295MOL0     H39761   3.541  11.816   1.318 -1.4725 -1.3629  3.4980
  295MOL0     H39762   3.529  12.072   1.341  1.1492 -1.0948 -1.0224
  295MOL0     H39763   3.454  11.968   1.456  0.9604  1.3036  2.2376
  295MOL0     H39764   3.632  11.995   1.626 -1.4669 -0.9739 -0.8469
  295MOL0     H39765   3.731  12.099   1.529 -0.6467  1.3090  3.6020
  295MOL0     H39766   3.530  12.242   1.477  4.3210 -0.1527 -0.4950
  295MOL0     H39767   3.444  12.156   1.608 -1.0620  1.8065 -0.4323
  295MOL0     H39768   3.692  12.320   1.640  2.5167 -2.4377  2.0208
  295MOL0     H39769   3.525  12.374   1.692 -0.4180 -1.0971  1.1550
  295MOL0     H39770   3.511  12.186   1.835 -0.2102  0.6401  0.0279
  295MOL0     H39771   3.670  12.130   1.804  0.9731  1.2422 -1.8434
  295MOL0     H39772   3.608  12.398   1.941  1.0482  0.2671 -0.2814
  295MOL0     H39773   3.671  12.259   2.020  0.2264 -1.2409 -0.1372
  295MOL0     H39774   3.781  12.453   1.812 -0.0415  0.7719  1.1230
  295MOL0     H39775   3.885  12.322   1.837  3.7001  4.8248  0.4310
  295MOL0     H39776   3.839  12.671   1.964  2.7568  2.1985  2.3409
  295MOL0     H39777   3.885  12.821   2.153  2.2223  2.3199  1.1463
  295MOL0     H39778   3.894  12.749   2.321 -0.2053  0.6380  1.4197
  295MOL0     H39779   4.059  12.887   2.259 -0.6031 -0.6317  2.5591
  295MOL0     H39780   4.110  12.806   2.112 -1.6667  3.7089 -1.1446
  295MOL0     H39781   4.266  12.737   2.310  0.2662  0.9141 -0.0483
  295MOL0     H39782   4.167  12.596   2.273  1.1225  0.5349  0.0824
  295MOL0     H39783   4.179  12.634   2.514  1.4377  3.1234  0.5468
  295MOL0     H39784   4.022  12.628   2.450 -0.1121  1.2425 -3.2540
  295MOL0     H39785   4.017  12.646   2.686  2.7845 -0.2856 -0.4835
  295MOL0     H39786   3.777  12.656   2.856 -0.2802 -0.6044  0.9856
  295MOL0     H39787   3.933  12.590   2.890  0.7523  0.1084  0.0082
  295MOL0     H39788   3.861  12.696   3.006 -0.0448  2.4887  0.0031
  295MOL0     H39789   3.821  13.130   3.237  2.9947  1.5578 -1.2572
  295MOL0     H39790   3.641  13.216   3.353  1.8130  0.3313 -0.3219
  295MOL0     H39791   3.509  13.370   3.440 -0.5273 -4.4167 -1.0055
  295MOL0     H39792   3.421  13.519   3.396 -2.2579  0.9773  1.3029
  295MOL0     H39793   3.294  13.238   3.419  0.5720 -0.8869 -0.3554
  295MOL0     H39794   3.304  13.363   3.541 -3.6259 -1.5504  0.2664
  295MOL0     H39795   3.149  13.388   3.273  1.0969  2.2856 -0.5362
  295MOL0     H39796   3.150  13.510   3.398 -2.6599 -0.4076  0.6149
  295MOL0     H39797   3.059  13.234   3.411 -0.4922 -0.8499  0.8231
  295MOL0     H39798   3.074  13.339   3.556  0.6442  0.6135 -1.0218
  295MOL0     H39799   2.905  13.370   3.317 -1.9868 -0.2194  1.1339
  295MOL0     H39800   2.935  13.512   3.426  1.1272  1.5447  2.3075
  295MOL0     H39801   2.809  13.237   3.516  0.1150 -0.3706 -1.2226
  295MOL0     H39802   2.836  13.388   3.606  2.6393 -0.4859 -1.3498
  295MOL0     H39803   2.596  13.333   3.502  1.5727 -1.6750 -0.5615
  295MOL0     H39804   2.671  13.361   3.345 -0.0257 -0.1654  0.6531
  295MOL0     H39805   2.707  13.602   3.409  0.9600 -2.6293 -0.1219
  295MOL0     H39806   2.637  13.562   3.569 -1.5171 -1.0686  2.1057
  295MOL0     H39807   3.494  13.409   2.989  1.3769 -1.5426 -2.9982
  295MOL0     H39808   3.649  13.272   2.866 -4.3290 -3.5761 -0.2436
  295MOL0     H39809   3.982  13.134   2.741  0.5790  0.0892 -3.7231
  295MOL0     H39810   4.082  13.034   2.556 -0.2316 -1.8485 -2.0708
  295MOL0     H39811   3.692  11.657   1.711  2.0056 -0.9254  0.7505
  295MOL0     H39812   3.759  11.419   1.710 -0.9154 -0.1982  0.8167
  295MOL0     H39813   3.835  11.067   1.448  0.9602  3.6413 -1.2584
  295MOL0     H39814   3.917  10.829   1.408  0.9091 -0.5898  0.0027
  295MOL0     H39815   3.989  10.619   1.486  0.3463  2.2629  1.1005
  295MOL0     H39816   4.024  10.691   1.324  1.4880  3.1484  1.4346
  295MOL0     H39817   4.077  10.452   1.302 -1.8179  3.2882 -2.1621
  295MOL0     H39818   4.149  10.456   1.466 -5.7864  0.5382 -0.2181
  295MOL0     H39819   4.320  10.431   1.301  1.8915 -0.2935 -2.2381
  295MOL0     H39820   4.339  10.587   1.368  1.3549 -0.3645 -1.4314
  295MOL0     H39821   4.235  10.509   1.087 -1.7653 -0.9639  1.4172
  295MOL0     H39822   4.374  10.605   1.120 -1.1331  1.8437 -0.1114
  295MOL0     H39823   4.110  10.904   1.096  0.9314 -0.6384 -0.9297
  295MOL0     H39824   4.256  10.901   1.654  0.9020 -0.2742 -2.6355
  295MOL0     H39825   4.192  11.119   1.679  0.7108 -2.7210  0.8918
  296MOL0     O39826   7.258   8.276   4.285  0.0992 -0.3027 -0.5304
  296MOL0     C39827   7.322   8.216   4.374  0.1894 -0.3505 -0.3468
  296MOL0     O39828   7.432   8.268   4.447  0.4626  0.1200  0.1163
  296MOL0     C39829   7.493   8.387   4.426 -0.1995 -0.2703 -0.0577
  296MOL0     C39830   7.510   8.488   4.522  0.0156 -0.0276 -0.7074
  296MOL0     C39831   7.568   8.607   4.497 -0.1228 -0.8913 -0.3817
  296MOL0     C39832   7.639   8.611   4.372 -0.5738  0.4395  0.0167
  296MOL0     O39833   7.732   8.709   4.329 -0.5906 -0.0016 -0.3833
  296MOL0     C39834   7.722   8.824   4.404  0.3218 -0.3781  0.9092
  296MOL0     C39835   7.833   8.915   4.372  0.7919  0.9474  0.2015
  296MOL0     C39836   7.973   8.857   4.409  0.2982  0.0970 -0.7219
  296MOL0     C39837   8.072   8.981   4.369  0.3346  0.2054 -0.1905
  296MOL0     C39838   8.155   8.959   4.245 -0.6365 -0.2257  0.9701
  296MOL0     C39839   8.084   8.987   4.108 -0.7803  0.1485  0.2315
  296MOL0     C39840   8.025   8.868   4.040  0.4348 -0.4424 -0.0851
  296MOL0     C39841   7.938   8.910   3.911 -0.0692 -0.5496 -0.0972
  296MOL0     N39842   7.828   8.999   3.946  0.3372 -0.2557  0.0428
  296MOL0     C39843   7.715   8.958   4.008  0.3844 -1.1037 -0.4913
  296MOL0     C39844   7.623   9.060   4.013  0.2763 -0.6858  0.8110
  296MOL0     C39845   7.484   9.035   4.051  0.1757 -0.5455 -1.1504
  296MOL0     C39846   7.445   8.987   4.195  0.2115  0.2375  0.8919
  296MOL0     C39847   7.302   8.989   4.230 -0.4445 -0.7157  0.0452
  296MOL0     C39848   7.246   8.861   4.292 -0.4874  0.4655  0.1165
  296MOL0     O39849   7.289   8.864   4.422  0.2143 -0.2484 -0.0381
  296MOL0     C39850   7.250   8.761   4.504 -0.7985  0.0727 -0.4412
  296MOL0     C39851   7.172   8.645   4.478  0.2513  0.5536 -0.4653
  296MOL0     C39852   7.157   8.547   4.585 -1.6377  0.8966 -1.0545
  296MOL0     C39853   7.063   8.430   4.561  0.1841  0.2727  0.1812
  296MOL0     C39854   7.228   8.564   4.710 -0.0452  0.3498  0.1135
  296MOL0     C39855   7.212   8.467   4.828 -0.5798 -0.3816 -0.1611
  296MOL0     O39856   7.301   8.489   4.935  0.1105 -0.3666 -0.3631
  296MOL0     C39857   7.304   8.391   5.038 -0.1140 -0.5442  0.2710
  296MOL0     C39858   7.186   8.343   5.105  0.1028  0.0385 -0.3723
  296MOL0     C39859   7.193   8.258   5.211 -0.3672  0.0887  1.3034
  296MOL0     C39860   7.319   8.223   5.256 -0.1291 -0.0514  1.2160
  296MOL0     O39861   7.338   8.141   5.370 -0.0135  0.3958  0.6987
  296MOL0     C39862   7.352   8.000   5.346  0.7365 -0.1393  0.4903
  296MOL0     C39863   7.417   7.923   5.450  1.1542 -0.2801  0.3944
  296MOL0     C39864   7.408   7.770   5.415 -0.1497 -0.4275 -0.1434
  296MOL0     C39865   7.401   7.700   5.560  0.1097  0.4681  0.5077
  296MOL0     C39866   7.389   7.544   5.552 -0.1833 -0.8083 -0.2354
  296MOL0     C39867   7.333   7.474   5.676  0.3243 -0.2425 -0.0114
  296MOL0     C39868   7.385   7.527   5.811  0.7784 -0.1604  0.8658
  296MOL0     C39869   7.295   7.481   5.926  0.8519  0.1489  0.5246
  296MOL0    Cl39870   7.315   7.320   5.983 -0.1463 -0.7648  0.3636
  296MOL0     C39871   7.432   8.279   5.196  0.0253  0.2638 -0.0960
  296MOL0     C39872   7.432   8.365   5.080 -0.5198  0.4306 -0.1217
  296MOL0     O39873   7.133   8.373   4.819 -0.0288  0.6949  0.4382
  296MOL0     C39874   7.304   8.673   4.719  0.3734 -0.2915  0.3110
  296MOL0     C39875   7.306   8.780   4.626  0.0496 -0.0407  0.0448
  296MOL0     N39876   7.686   9.167   3.949  0.3340 -0.7398  0.5937
  296MOL0     N39877   7.817   9.137   3.921  0.1300 -0.2304  0.7336
  296MOL0     C39878   7.625   8.506   4.277 -1.2395  0.3296 -0.6876
  296MOL0     C39879   7.552   8.394   4.303 -0.6961  0.4397 -0.5635
  296MOL0     C39880   7.270   8.085   4.415  0.3002 -0.8625  1.1974
  296MOL0     C39881   7.167   8.026   4.338 -0.4429  0.1202 -0.3397
  296MOL0     C39882   7.123   7.896   4.370 -0.5854 -0.0778 -0.4680
  296MOL0     C39883   7.193   7.816   4.469  0.2592 -0.3568  0.2262
  296MOL0     O39884   7.169   7.674   4.478 -0.8578 -0.4344 -0.8050
  296MOL0     C39885   7.195   7.633   4.605  0.1399  0.5378  1.0347
  296MOL0     C39886   7.143   7.486   4.624 -0.7833 -1.3649 -0.2950
  296MOL0     C39887   7.198   7.430   4.758 -0.0898 -0.5163  0.1333
  296MOL0     C39888   7.121   7.299   4.785 -0.8759 -0.1348  0.0018
  296MOL0     C39889   7.163   7.173   4.728  0.2941 -0.9505 -0.0904
  296MOL0     C39890   7.204   7.067   4.700 -0.1008  1.0902  0.0978
  296MOL0     C39891   7.288   7.881   4.548 -0.0404 -0.1472  0.9642
  296MOL0     C39892   7.327   8.005   4.513 -0.1725 -0.1210 -0.5288
  296MOL0     H39893   7.453   8.469   4.613 -0.7081 -1.9066 -1.5084
  296MOL0     H39894   7.563   8.678   4.579 -3.3180  0.2690 -1.4294
  296MOL0     H39895   7.624   8.872   4.396 -0.1012 -1.0376  1.9124
  296MOL0     H39896   7.741   8.808   4.511  1.7484  0.9938  0.9002
  296MOL0     H39897   7.836   8.940   4.266  1.9211 -2.2450 -0.6227
  296MOL0     H39898   7.820   9.009   4.426  0.5186  2.9494 -3.0620
  296MOL0     H39899   7.977   8.842   4.518  2.1974  2.0072 -0.4528
  296MOL0     H39900   7.997   8.767   4.351 -0.3318  0.9986 -2.4420
  296MOL0     H39901   8.011   9.072   4.368 -3.4635 -2.0942  0.0425
  296MOL0     H39902   8.144   8.983   4.451 -1.0580  0.9433  1.0689
  296MOL0     H39903   8.246   9.020   4.253 -0.0456 -0.7231 -1.3019
  296MOL0     H39904   8.178   8.852   4.248 -2.7260 -0.7292  0.2549
  296MOL0     H39905   8.019   9.074   4.122  0.1186  0.3956  4.0276
  296MOL0     H39906   8.169   9.021   4.049 -2.3009 -1.2921 -3.0248
  296MOL0     H39907   8.103   8.805   3.995 -0.6631 -2.4512  0.7237
  296MOL0     H39908   7.970   8.811   4.115 -0.1392 -0.4174 -0.4831
  296MOL0     H39909   7.876   8.824   3.885 -1.6594 -0.6488  3.4362
  296MOL0     H39910   7.996   8.950   3.827 -1.7193 -0.9529 -1.5045
  296MOL0     H39911   7.706   8.862   4.059  1.7309  0.2697  2.5684
  296MOL0     H39912   7.414   9.112   4.019 -0.3082  0.5766  2.1838
  296MOL0     H39913   7.443   8.947   4.000 -4.9601  0.0948  1.2381
  296MOL0     H39914   7.492   9.053   4.268  2.6989 -0.2137 -0.2257
  296MOL0     H39915   7.498   8.894   4.217  2.5500  1.8629  2.6300
  296MOL0     H39916   7.252   9.018   4.138 -1.4065 -1.1150  0.4281
  296MOL0     H39917   7.302   9.069   4.304 -1.6158  2.7576 -3.3757
  296MOL0     H39918   7.277   8.767   4.247 -1.9888 -0.7435  1.4815
  296MOL0     H39919   7.137   8.855   4.284 -0.5672 -0.0567  1.3751
  296MOL0     H39920   7.116   8.637   4.385  2.2426 -0.4122 -1.6534
  296MOL0     H39921   7.090   8.332   4.601  2.2749  0.2737 -1.0571
  296MOL0     H39922   6.969   8.459   4.609  0.4472  2.7005 -0.6015
  296MOL0     H39923   7.033   8.428   4.456 -0.6454 -2.4254  0.3894
  296MOL0     H39924   7.084   8.372   5.084 -0.9849 -0.6884  3.2076
  296MOL0     H39925   7.102   8.217   5.255 -3.3969  2.6057 -2.0145
  296MOL0     H39926   7.248   7.967   5.337  0.7425 -0.9304  2.7695
  296MOL0     H39927   7.406   7.997   5.251 -0.8293  2.4345 -0.5992
  296MOL0     H39928   7.516   7.966   5.467  1.2550  0.0318 -0.9302
  296MOL0     H39929   7.364   7.941   5.545  0.3460 -1.0024  0.0869
  296MOL0     H39930   7.484   7.724   5.351  0.7967 -1.3801  1.5927
  296MOL0     H39931   7.314   7.744   5.364 -0.7214 -1.9474  1.5584
  296MOL0     H39932   7.477   7.735   5.631 -0.4652  4.6146 -0.6645
  296MOL0     H39933   7.307   7.728   5.609 -0.9959  0.1283 -1.3580
  296MOL0     H39934   7.491   7.511   5.529  0.0155 -0.2730 -0.1555
  296MOL0     H39935   7.320   7.524   5.470 -3.2120 -0.2027  1.9756
  296MOL0     H39936   7.228   7.503   5.664 -0.1453 -2.2828 -1.3743
  296MOL0     H39937   7.344   7.367   5.661  3.0585 -0.0936  0.4350
  296MOL0     H39938   7.387   7.637   5.805  0.9268 -0.2395 -1.1128
  296MOL0     H39939   7.484   7.487   5.835 -0.1042 -1.9885  1.6024
  296MOL0     H39940   7.190   7.492   5.894  1.2734  0.0354 -0.9856
  296MOL0     H39941   7.295   7.561   6.000 -0.4119  0.8996 -0.2574
  296MOL0     H39942   7.526   8.269   5.250  0.0482 -1.4448 -0.3850
  296MOL0     H39943   7.524   8.399   5.034  0.3079 -1.0192  0.3823
  296MOL0     H39944   7.381   8.678   4.796 -2.3248  0.2256  3.1318
  296MOL0     H39945   7.384   8.854   4.643  4.2868 -3.3197 -2.9725
  296MOL0     H39946   7.669   8.520   4.178 -0.7307 -1.4322 -0.7321
  296MOL0     H39947   7.523   8.316   4.233 -1.7326 -0.2979  0.6346
  296MOL0     H39948   7.114   8.081   4.261  1.3395  0.6889 -1.2212
  296MOL0     H39949   7.042   7.849   4.315 -0.4285 -2.1040  0.9301
  296MOL0     H39950   7.303   7.631   4.618  0.7906 -1.4935 -3.0277
  296MOL0     H39951   7.142   7.694   4.679  1.4874 -0.9177  3.3302
  296MOL0     H39952   7.184   7.435   4.536  4.7253 -1.6565  2.0206
  296MOL0     H39953   7.035   7.504   4.617 -0.4792  1.2714  0.7479
  296MOL0     H39954   7.174   7.501   4.838  0.5413  1.3832 -1.3055
  296MOL0     H39955   7.306   7.419   4.764  0.1169  0.3066 -1.5291
  296MOL0     H39956   7.018   7.312   4.750 -1.4005 -1.4136  0.9802
  296MOL0     H39957   7.128   7.279   4.892 -1.5803  0.3844  0.1532
  296MOL0     H39958   7.252   6.973   4.678 -1.2604  0.1016  1.6023
  296MOL0     H39959   7.332   7.833   4.634 -2.5254  0.6303  2.8042
  296MOL0     H39960   7.407   8.040   4.578 -1.6696 -0.8418  1.8556
  297MOL0     O39961   3.554   2.006   0.358  0.6258 -1.0733 -0.0895
  297MOL0     C39962   3.482   2.073   0.434  0.1247  0.0357 -0.2398
  297MOL0     O39963   3.511   2.086   0.576 -0.0043  0.5225  0.5309
  297MOL0     C39964   3.613   2.028   0.649  0.7739 -0.5169  0.7302
  297MOL0     C39965   3.724   1.968   0.590  0.1287  0.6496  0.1511
  297MOL0     C39966   3.816   1.902   0.659 -0.1604 -0.7790  0.7456
  297MOL0     C39967   3.818   1.915   0.798 -0.0418 -0.6449  0.0014
  297MOL0     O39968   3.919   1.855   0.869  0.5745  1.1643  0.0640
  297MOL0     C39969   3.929   1.880   1.012 -0.4751 -0.2909 -0.3116
  297MOL0     C39970   4.064   1.830   1.075 -0.5274 -0.0759  0.3051
  297MOL0     C39971   4.187   1.873   0.994  0.9086  0.6853 -1.1319
  297MOL0     C39972   4.324   1.879   1.068  0.3655 -0.0053 -0.5844
  297MOL0     C39973   4.437   1.886   0.964  0.2241 -0.4478  0.4604
  297MOL0     C39974   4.427   1.989   0.856  0.1378  0.3685 -0.4615
  297MOL0     C39975   4.533   1.968   0.760 -0.5450 -1.0030  0.0449
  297MOL0     C39976   4.549   2.094   0.673 -0.4914 -0.2928 -0.7201
  297MOL0     N39977   4.645   2.076   0.567  0.4945 -0.0382  0.3443
  297MOL0     C39978   4.651   1.966   0.484  0.4391 -0.2024 -0.2332
  297MOL0     C39979   4.766   1.975   0.414  0.4072  0.1835 -0.8741
  297MOL0     C39980   4.813   1.883   0.303 -0.3048 -0.3321  0.7482
  297MOL0     C39981   4.882   1.771   0.370 -0.3435 -0.9336  0.3818
  297MOL0     C39982   4.909   1.641   0.292  0.1129 -0.5429  0.6943
  297MOL0     C39983   4.790   1.559   0.243  0.0754  0.0853 -0.3393
  297MOL0     O39984   4.677   1.591   0.323  0.3601  0.4510  0.0912
  297MOL0     C39985   4.565   1.508   0.303  0.7759 -0.3772  0.3776
  297MOL0     C39986   4.552   1.414   0.200 -0.2581  0.1891 -0.0837
  297MOL0     C39987   4.451   1.319   0.193  0.7007  0.3130 -0.0721
  297MOL0     C39988   4.454   1.219   0.077 -0.2102 -0.4527  0.2112
  297MOL0     C39989   4.336   1.331   0.281 -0.0103  0.2305 -0.6064
  297MOL0     C39990   4.223   1.233   0.283  0.0384  0.4556 -0.4714
  297MOL0     O39991   4.108   1.266   0.354  0.2663  0.4406  0.6700
  297MOL0     C39992   4.012   1.169   0.366  0.3025  1.4636  0.3332
  297MOL0     C39993   3.953   1.108   0.249  0.2264 -0.5110  0.5225
  297MOL0     C39994   3.846   1.016   0.271 -0.4016  0.0521  0.3916
  297MOL0     C39995   3.800   0.975   0.399 -0.0579 -0.1584 -0.1397
  297MOL0     O39996   3.707   0.879   0.407 -0.2326 -0.3499  0.3710
  297MOL0     C39997   3.720   0.767   0.328  0.2524  0.0096 -0.2589
  297MOL0     C39998   3.784   0.647   0.401 -0.2836  0.8677  0.5206
  297MOL0     C39999   3.789   0.524   0.303  1.3321 -0.8352  0.0878
  297MOL0     C40000   3.891   0.536   0.186 -0.2839  0.3120 -0.2584
  297MOL0     C40001   3.898   0.405   0.100  0.3290 -1.0311  0.2721
  297MOL0     C40002   3.763   0.377   0.030 -0.4989 -0.1005  0.8497
  297MOL0     C40003   3.784   0.250  -0.064 -0.5071 -1.3890 -0.1622
  297MOL0     C40004   3.646   0.190  -0.095 -0.9055  0.0101 -0.5558
  297MOL0    Cl40005   3.668   0.031  -0.163  0.0068 -0.2569 -0.0942
  297MOL0     C40006   3.850   1.039   0.517 -1.0144 -0.2120  1.1329
  297MOL0     C40007   3.954   1.137   0.497 -0.1974  0.0130  0.5332
  297MOL0     O40008   4.252   1.116   0.247 -0.0927 -0.0530  1.0050
  297MOL0     C40009   4.343   1.431   0.377 -0.0531 -0.1455 -0.1259
  297MOL0     C40010   4.461   1.510   0.395 -0.3841  0.7778  0.6639
  297MOL0     N40011   4.833   2.077   0.467 -0.5191  0.0100  0.5096
  297MOL0     N40012   4.763   2.136   0.554 -0.3328 -0.1686 -0.3599
  297MOL0     C40013   3.710   1.983   0.862  0.2093  0.1005 -0.0917
  297MOL0     C40014   3.599   2.036   0.782 -0.3867  0.4746 -0.5063
  297MOL0     C40015   3.362   2.137   0.396 -0.3387 -0.1406  0.0849
  297MOL0     C40016   3.275   2.196   0.493  0.5888  1.1518  0.6587
  297MOL0     C40017   3.144   2.234   0.464  0.3898  0.0591 -0.8142
  297MOL0     C40018   3.095   2.212   0.333  0.0045  0.7069 -0.0051
  297MOL0     O40019   2.971   2.261   0.310  0.5550  0.5274  0.3528
  297MOL0     C40020   2.904   2.205   0.201  0.8030  1.2539  0.5014
  297MOL0     C40021   2.750   2.219   0.213 -0.6509  0.1276 -0.6236
  297MOL0     C40022   2.697   2.129   0.323  1.1743  0.1411  0.5879
  297MOL0     C40023   2.537   2.139   0.333  1.2037  0.0935  0.1647
  297MOL0     C40024   2.492   2.265   0.385  0.7872  0.0109  0.5391
  297MOL0     C40025   2.422   2.364   0.395  0.3030  0.5624 -0.5989
  297MOL0     C40026   3.180   2.165   0.233  0.9656  0.3508 -0.2625
  297MOL0     C40027   3.315   2.123   0.264  0.5798  0.4123  0.0140
  297MOL0     H40028   3.743   1.976   0.483  2.2726 -1.0268  0.3229
  297MOL0     H40029   3.902   1.857   0.611  0.0577  1.8284 -1.5488
  297MOL0     H40030   3.931   1.988   1.033 -0.1772 -0.3439 -0.0580
  297MOL0     H40031   3.847   1.836   1.070  0.2289 -1.6673 -0.3317
  297MOL0     H40032   4.063   1.864   1.179 -1.7388  2.3819 -0.4419
  297MOL0     H40033   4.074   1.721   1.082  2.6013  0.0102 -1.0930
  297MOL0     H40034   4.182   1.813   0.902 -4.2354  0.6776 -1.1104
  297MOL0     H40035   4.176   1.979   0.970  0.0699  1.0020  0.5325
  297MOL0     H40036   4.334   1.974   1.121  4.2537 -0.2998 -0.5063
  297MOL0     H40037   4.343   1.798   1.140  0.0029 -3.0749 -3.7051
  297MOL0     H40038   4.529   1.902   1.021  0.4927 -1.1140  0.2364
  297MOL0     H40039   4.439   1.778   0.943 -1.0842 -0.5938  1.0218
  297MOL0     H40040   4.333   1.990   0.800  0.0206  3.4283 -0.3665
  297MOL0     H40041   4.439   2.089   0.900  1.4574 -0.1296  0.3755
  297MOL0     H40042   4.630   1.957   0.810 -0.5075  1.0630  0.5273
  297MOL0     H40043   4.519   1.875   0.704  0.5075 -1.5040  0.5895
  297MOL0     H40044   4.595   2.170   0.738  1.6054  0.3523 -2.8340
  297MOL0     H40045   4.450   2.122   0.639 -0.3828 -1.4632 -2.0640
  297MOL0     H40046   4.573   1.897   0.457 -1.1490  0.7994  1.5761
  297MOL0     H40047   4.724   1.844   0.253 -0.5918  2.4469 -1.1023
  297MOL0     H40048   4.875   1.948   0.241 -0.3212 -1.4241 -0.4465
  297MOL0     H40049   4.836   1.740   0.464 -1.1964 -1.5823 -0.2290
  297MOL0     H40050   4.984   1.801   0.398  0.8462 -3.8961 -0.3220
  297MOL0     H40051   4.981   1.581   0.349 -2.3175 -4.1613  0.3129
  297MOL0     H40052   4.960   1.678   0.203 -1.3055  0.4604  0.2726
  297MOL0     H40053   4.821   1.456   0.261  1.6511  0.4228 -0.9612
  297MOL0     H40054   4.778   1.572   0.135 -0.1848  0.2340 -0.2942
  297MOL0     H40055   4.629   1.411   0.124  1.4869  1.0467  1.5627
  297MOL0     H40056   4.375   1.253   0.010 -0.0680  3.7203  1.8074
  297MOL0     H40057   4.546   1.223   0.018 -0.0575  1.2599  0.5095
  297MOL0     H40058   4.450   1.114   0.105  0.2226 -0.8440 -1.1098
  297MOL0     H40059   3.985   1.134   0.148 -0.0398  0.1378  0.5972
  297MOL0     H40060   3.796   0.974   0.184 -2.4292  2.6298  0.1780
  297MOL0     H40061   3.614   0.748   0.310  0.8475 -0.8867 -3.3230
  297MOL0     H40062   3.763   0.785   0.229 -1.4355 -0.9223 -1.2196
  297MOL0     H40063   3.888   0.667   0.430  0.2855 -1.6027  0.3791
  297MOL0     H40064   3.723   0.614   0.485 -1.4200 -0.6893 -0.8613
  297MOL0     H40065   3.689   0.505   0.264  1.4423 -3.7198  0.9589
  297MOL0     H40066   3.809   0.432   0.358 -0.0408  0.2721  2.5924
  297MOL0     H40067   3.866   0.619   0.120  1.9187  0.0125 -1.5597
  297MOL0     H40068   3.988   0.556   0.233 -0.5657 -1.3407  1.1793
  297MOL0     H40069   3.927   0.316   0.158 -1.3398 -1.9753 -0.2694
  297MOL0     H40070   3.971   0.431   0.023 -0.4154 -2.4848 -0.9753
  297MOL0     H40071   3.683   0.349   0.099  0.1427 -0.0548  1.6219
  297MOL0     H40072   3.719   0.458  -0.030  0.9665 -1.7464 -2.7519
  297MOL0     H40073   3.852   0.174  -0.024 -1.1026 -0.7090  2.3479
  297MOL0     H40074   3.822   0.277  -0.162 -2.3772 -0.7305 -0.7476
  297MOL0     H40075   3.584   0.250  -0.162 -1.7715 -0.4183 -0.1633
  297MOL0     H40076   3.591   0.188   0.000 -0.1779  0.9546 -0.1124
  297MOL0     H40077   3.813   1.005   0.613  1.9184 -2.7483  1.5354
  297MOL0     H40078   3.987   1.190   0.586 -0.1205 -1.9274  1.7102
  297MOL0     H40079   4.270   1.441   0.457 -0.4819 -0.0235 -0.5276
  297MOL0     H40080   4.473   1.584   0.473 -2.8644  2.0531 -0.0592
  297MOL0     H40081   3.702   2.007   0.968 -1.6012  1.9648 -0.5848
  297MOL0     H40082   3.514   2.094   0.816 -0.7948 -0.8474  0.8066
  297MOL0     H40083   3.309   2.200   0.596  3.1985 -2.8696  0.1588
  297MOL0     H40084   3.087   2.283   0.543  1.7363  1.5541 -0.7201
  297MOL0     H40085   2.939   2.246   0.105 -0.7316  0.2483 -0.5374
  297MOL0     H40086   2.920   2.097   0.190 -0.3403  1.3208 -3.7841
  297MOL0     H40087   2.702   2.224   0.115 -2.2159  0.7478  0.1412
  297MOL0     H40088   2.745   2.324   0.245 -1.3868 -0.5811  1.7988
  297MOL0     H40089   2.748   2.146   0.417  2.7258  1.0059 -0.3677
  297MOL0     H40090   2.722   2.028   0.292  3.1262  1.4551 -2.7333
  297MOL0     H40091   2.492   2.059   0.393  1.0222  1.0334  1.3171
  297MOL0     H40092   2.496   2.125   0.232  1.0293  2.5510 -0.1584
  297MOL0     H40093   2.371   2.457   0.413  0.4478  0.3631  0.9800
  297MOL0     H40094   3.158   2.153   0.127 -1.0495 -2.3446  0.3402
  297MOL0     H40095   3.383   2.078   0.193 -1.3223 -0.4272 -1.3818
  298MOL0     O40096   5.841   9.158   2.075 -0.7670 -0.5717 -0.0003
  298MOL0     C40097   5.798   9.061   2.133  0.1752  0.3548  1.0867
  298MOL0     O40098   5.833   9.025   2.256 -0.0381 -0.8280  0.2806
  298MOL0     C40099   5.919   9.108   2.326 -0.0483  0.1447  0.3748
  298MOL0     C40100   6.056   9.104   2.313 -0.8175 -0.2720  0.2387
  298MOL0     C40101   6.142   9.182   2.392 -0.6856  1.5412 -0.6045
  298MOL0     C40102   6.088   9.272   2.488 -0.3576  0.4087  0.2297
  298MOL0     O40103   6.180   9.341   2.556 -0.6447 -0.4862  0.1188
  298MOL0     C40104   6.164   9.356   2.700 -0.2429 -0.0745 -0.0923
  298MOL0     C40105   6.302   9.387   2.768  0.1847 -0.4249  0.4490
  298MOL0     C40106   6.383   9.269   2.796  0.0741 -0.4328  0.6306
  298MOL0     C40107   6.511   9.316   2.863  0.2099  0.7180 -0.5198
  298MOL0     C40108   6.612   9.191   2.846 -0.0126 -0.6799 -0.7204
  298MOL0     C40109   6.746   9.230   2.910 -0.4818 -0.2122 -0.1040
  298MOL0     C40110   6.773   9.244   3.054  0.3938 -0.2360  0.2694
  298MOL0     C40111   6.760   9.113   3.126 -0.2051 -0.0078  0.3348
  298MOL0     N40112   6.795   9.127   3.265 -0.1204  0.4927  0.8048
  298MOL0     C40113   6.743   9.039   3.366  0.0068 -0.0734  0.1108
  298MOL0     C40114   6.824   9.075   3.472  0.5118  1.5908  0.4480
  298MOL0     C40115   6.810   9.031   3.617 -0.9862 -0.5107  0.0625
  298MOL0     C40116   6.941   8.954   3.647  0.2292  0.3433  0.1108
  298MOL0     C40117   6.936   8.892   3.786 -0.0094  0.6139 -0.1851
  298MOL0     C40118   6.911   8.985   3.909  0.1369  0.0707 -0.2401
  298MOL0     O40119   6.971   8.953   4.041  0.2532  0.5265  1.8775
  298MOL0     C40120   6.908   8.850   4.102  0.8352 -0.1320  0.6402
  298MOL0     C40121   6.810   8.877   4.195 -0.3366  0.5650  0.7428
  298MOL0     C40122   6.751   8.765   4.261 -0.0784 -0.4470 -0.9911
  298MOL0     C40123   6.655   8.810   4.379 -0.0363  0.4627 -0.3695
  298MOL0     C40124   6.802   8.636   4.249  0.7384  0.4366  0.1989
  298MOL0     C40125   6.753   8.518   4.327 -0.9219  0.1815 -0.2073
  298MOL0     O40126   6.772   8.401   4.262  0.6314 -0.1430  0.0572
  298MOL0     C40127   6.717   8.296   4.336  0.9823 -0.5682  0.3327
  298MOL0     C40128   6.582   8.267   4.335  0.6448 -0.2556  0.1402
  298MOL0     C40129   6.539   8.154   4.401 -0.4156 -0.3565 -1.0840
  298MOL0     C40130   6.619   8.063   4.453  0.3333  0.2670 -0.1123
  298MOL0     O40131   6.555   7.958   4.513 -0.3188 -0.6490 -0.2318
  298MOL0     C40132   6.631   7.876   4.602  0.0699 -0.0560  0.9137
  298MOL0     C40133   6.551   7.755   4.635  1.3971 -0.0866  0.2474
  298MOL0     C40134   6.440   7.782   4.744 -1.0029 -0.6867  0.3205
  298MOL0     C40135   6.364   7.652   4.771 -0.7278  0.0578  1.0300
  298MOL0     C40136   6.234   7.668   4.840 -0.5170  0.1147  0.0873
  298MOL0     C40137   6.157   7.530   4.854 -0.6058  0.0338 -1.0717
  298MOL0     C40138   6.168   7.462   4.992 -0.3751  0.0162  0.0627
  298MOL0     C40139   6.295   7.391   5.023 -0.7993 -0.0298 -0.2684
  298MOL0    Cl40140   6.292   7.324   5.183  0.2041  0.0578  0.1247
  298MOL0     C40141   6.759   8.089   4.447 -0.0672 -0.2034 -0.4617
  298MOL0     C40142   6.811   8.211   4.391 -0.3559  0.0596 -1.1621
  298MOL0     O40143   6.694   8.531   4.433  0.1133 -0.0593 -0.0840
  298MOL0     C40144   6.907   8.617   4.152 -0.7168  0.3298  0.4361
  298MOL0     C40145   6.955   8.721   4.076 -0.1330  0.2331  1.1429
  298MOL0     N40146   6.929   9.153   3.435 -0.3605 -0.6594 -0.7555
  298MOL0     N40147   6.909   9.192   3.305  0.1667  0.1416  0.0977
  298MOL0     C40148   5.945   9.287   2.489  1.1228  0.3361 -0.0240
  298MOL0     C40149   5.861   9.206   2.406 -0.1975  1.0708 -0.5736
  298MOL0     C40150   5.717   8.953   2.064  1.0121  0.0579  1.2674
  298MOL0     C40151   5.712   8.944   1.921 -0.2571  0.3292 -0.6615
  298MOL0     C40152   5.638   8.849   1.860  0.0189 -0.0512  1.2461
  298MOL0     C40153   5.565   8.748   1.927 -0.1134 -0.3614 -0.6245
  298MOL0     O40154   5.501   8.658   1.844 -0.7263  0.4201  0.3219
  298MOL0     C40155   5.431   8.544   1.908  0.9052 -0.8117  0.8309
  298MOL0     C40156   5.356   8.470   1.789 -0.1037 -0.5960 -1.0375
  298MOL0     C40157   5.445   8.422   1.689  0.3512  0.1481 -0.2152
  298MOL0     C40158   5.367   8.401   1.559 -0.2982  0.0829  0.0116
  298MOL0     C40159   5.273   8.295   1.575 -0.3396  0.5933  1.2029
  298MOL0     C40160   5.206   8.200   1.603  0.0711  0.4309 -0.5193
  298MOL0     C40161   5.574   8.740   2.070 -0.7179 -0.2372 -0.3086
  298MOL0     C40162   5.645   8.847   2.134 -0.8058  0.6127 -0.3033
  298MOL0     H40163   6.112   9.033   2.253 -0.0263 -0.4244  1.1157
  298MOL0     H40164   6.247   9.159   2.375 -1.0995  1.1071 -2.8580
  298MOL0     H40165   6.098   9.439   2.724  1.0710  1.0385 -0.2065
  298MOL0     H40166   6.138   9.264   2.754  0.1876 -1.0295 -1.4229
  298MOL0     H40167   6.351   9.470   2.717  0.0434  0.2271  1.3375
  298MOL0     H40168   6.279   9.423   2.869 -1.0298  4.0023 -1.1768
  298MOL0     H40169   6.317   9.210   2.860 -1.2693 -0.2940 -0.5733
  298MOL0     H40170   6.398   9.210   2.705 -1.3608  0.3956 -0.1874
  298MOL0     H40171   6.554   9.403   2.813  2.3071  0.0419  0.0076
  298MOL0     H40172   6.481   9.332   2.967 -1.5531 -1.9137 -0.5101
  298MOL0     H40173   6.571   9.104   2.898  2.0964 -2.1183 -1.3327
  298MOL0     H40174   6.627   9.164   2.741  2.4018 -2.9659  0.1096
  298MOL0     H40175   6.821   9.162   2.870  2.7172  2.1858  1.3536
  298MOL0     H40176   6.790   9.320   2.867  3.2776 -1.8797 -0.1663
  298MOL0     H40177   6.880   9.265   3.061  0.4488 -0.9876  2.1610
  298MOL0     H40178   6.714   9.324   3.101 -0.1887 -0.7744  0.4676
  298MOL0     H40179   6.821   9.034   3.081 -0.2003  0.6851 -0.9190
  298MOL0     H40180   6.654   9.083   3.131  0.2471 -1.4493  3.2604
  298MOL0     H40181   6.648   8.988   3.373  1.2520 -2.3397  2.1994
  298MOL0     H40182   6.822   9.122   3.677  1.3494 -0.7598  0.0973
  298MOL0     H40183   6.721   8.974   3.644  0.1146 -1.3235  2.2243
  298MOL0     H40184   7.031   9.016   3.641  1.2422 -1.1803 -1.3413
  298MOL0     H40185   6.952   8.876   3.572 -0.6102  1.0085 -0.7217
  298MOL0     H40186   7.033   8.848   3.809  1.4619  4.0600  0.7345
  298MOL0     H40187   6.860   8.814   3.796 -0.6027  0.9186 -1.9582
  298MOL0     H40188   6.802   8.994   3.917  0.2289  1.8463 -0.7379
  298MOL0     H40189   6.963   9.079   3.892 -0.5051  0.1174 -2.0797
  298MOL0     H40190   6.773   8.979   4.200  0.3116  0.7779  1.4053
  298MOL0     H40191   6.658   8.918   4.398  2.2379  0.8071 -2.1867
  298MOL0     H40192   6.556   8.774   4.350 -0.4633  1.5418 -0.2872
  298MOL0     H40193   6.693   8.777   4.476  0.0828  0.3984 -0.4370
  298MOL0     H40194   6.518   8.339   4.284 -5.0672 -3.1757  2.3287
  298MOL0     H40195   6.431   8.155   4.412 -0.3569  2.3816  0.1258
  298MOL0     H40196   6.720   7.842   4.547  0.2591  3.0021 -0.9088
  298MOL0     H40197   6.665   7.930   4.690 -4.2357  1.0275  2.1271
  298MOL0     H40198   6.498   7.713   4.549 -0.7479 -1.5894  2.1540
  298MOL0     H40199   6.627   7.684   4.668  0.6491 -0.4156  1.3290
  298MOL0     H40200   6.370   7.862   4.718 -1.3000  0.4044  3.8198
  298MOL0     H40201   6.501   7.810   4.831  0.6002 -1.8661 -0.3964
  298MOL0     H40202   6.352   7.584   4.685  1.1123 -1.2266  1.7067
  298MOL0     H40203   6.439   7.590   4.822  0.5105  0.2066 -0.5295
  298MOL0     H40204   6.182   7.730   4.766  2.2425  2.1638 -0.3213
  298MOL0     H40205   6.261   7.718   4.933  0.6238 -1.4079  0.6090
  298MOL0     H40206   6.052   7.551   4.831 -0.7300 -1.3323 -1.8234
  298MOL0     H40207   6.175   7.461   4.771 -3.0434 -1.5781 -0.3551
  298MOL0     H40208   6.093   7.385   5.009  0.6246 -1.0997 -0.4423
  298MOL0     H40209   6.154   7.535   5.073  1.7901 -0.6137  1.0917
  298MOL0     H40210   6.382   7.457   5.012 -0.9379  0.1830 -0.1048
  298MOL0     H40211   6.305   7.314   4.947 -1.7500 -1.5352  1.0731
  298MOL0     H40212   6.839   8.028   4.490 -0.7063  0.2439  1.4620
  298MOL0     H40213   6.917   8.222   4.374  0.2505  0.1372  2.1574
  298MOL0     H40214   6.956   8.520   4.146 -1.4087  0.0443 -1.9132
  298MOL0     H40215   7.037   8.694   4.009 -1.8252  0.8356 -1.3068
  298MOL0     H40216   5.905   9.368   2.548  2.2980 -0.6587  2.3211
  298MOL0     H40217   5.755   9.225   2.423  0.3938  3.8280  0.5408
  298MOL0     H40218   5.760   9.025   1.868  0.1496 -1.9422 -4.0345
  298MOL0     H40219   5.625   8.839   1.752  3.0824 -4.7516  1.0237
  298MOL0     H40220   5.513   8.486   1.950  1.7010  0.4048  0.9973
  298MOL0     H40221   5.361   8.568   1.988 -0.5394  1.0237 -0.8705
  298MOL0     H40222   5.287   8.540   1.742 -0.4994 -0.8687 -0.8647
  298MOL0     H40223   5.312   8.380   1.834  2.0274 -0.6424  1.1440
  298MOL0     H40224   5.488   8.327   1.722  2.2473  0.4045 -1.7660
  298MOL0     H40225   5.528   8.490   1.669 -0.0859  0.8876  0.4169
  298MOL0     H40226   5.444   8.370   1.487  0.2453 -0.2686  0.7297
  298MOL0     H40227   5.327   8.496   1.523 -1.3356  0.9401  3.1181
  298MOL0     H40228   5.153   8.112   1.633  3.2571 -2.1710 -1.9434
  298MOL0     H40229   5.527   8.661   2.127 -0.5582 -0.7203 -0.8359
  298MOL0     H40230   5.658   8.848   2.242  1.9713  1.4408 -0.5973
  299MOL0     O40231  11.534   1.870   6.127  0.0991 -0.1968  0.1461
  299MOL0     C40232  11.528   1.748   6.154  0.5596  0.4225 -0.5043
  299MOL0     O40233  11.550   1.692   6.276 -0.0498 -0.3221 -0.3041
  299MOL0     C40234  11.615   1.770   6.371  0.7898 -0.1564  0.1994
  299MOL0     C40235  11.731   1.826   6.344 -0.8414 -0.2360  0.8861
  299MOL0     C40236  11.816   1.888   6.439 -0.1389 -0.0221  1.1053
  299MOL0     C40237  11.789   1.883   6.573  0.0687 -0.1938 -0.3098
  299MOL0     O40238  11.873   1.950   6.658 -0.1631  0.5048  0.1337
  299MOL0     C40239  11.821   1.960   6.791  0.0439 -0.0965  0.5730
  299MOL0     C40240  11.895   2.069   6.849  0.0426  0.3884  0.3530
  299MOL0     C40241  11.797   2.182   6.882 -0.6161  0.6540 -0.3300
  299MOL0     C40242  11.867   2.320   6.904  0.4729  0.7271  0.9835
  299MOL0     C40243  11.759   2.431   6.934 -0.5303  0.3686  0.3833
  299MOL0     C40244  11.820   2.573   6.974  0.7765  0.3316  0.0666
  299MOL0     C40245  11.893   2.621   6.851  0.4488 -0.3143  0.7985
  299MOL0     C40246  11.928   2.764   6.871  0.3874 -0.2220  0.3324
  299MOL0     N40247  11.855   2.864   6.789  0.6241  0.2842  0.5787
  299MOL0     C40248  11.891   2.949   6.685  0.3184 -0.0997  0.3062
  299MOL0     C40249  11.773   3.004   6.642 -0.9392 -0.0865 -0.2040
  299MOL0     C40250  11.762   3.089   6.517 -0.5554  0.4883 -0.9122
  299MOL0     C40251  11.664   3.201   6.535 -0.1651  0.2513  0.5126
  299MOL0     C40252  11.697   3.301   6.639 -0.2790  0.1671 -0.3189
  299MOL0     C40253  11.589   3.318   6.748 -0.6337 -0.5519  0.1858
  299MOL0     O40254  11.646   3.396   6.848 -0.1788 -0.4020 -0.5421
  299MOL0     C40255  11.551   3.440   6.943 -0.5242  0.8387  0.4000
  299MOL0     C40256  11.584   3.555   7.020  0.8026  1.0186 -0.0883
  299MOL0     C40257  11.515   3.608   7.126  0.9928 -0.3059 -0.1848
  299MOL0     C40258  11.592   3.707   7.214  0.1755  0.3599  0.9072
  299MOL0     C40259  11.385   3.557   7.146 -0.3489 -0.9647 -0.4581
  299MOL0     C40260  11.309   3.602   7.263  0.2253 -0.3299 -0.1017
  299MOL0     O40261  11.338   3.719   7.336 -0.3914  0.1434  0.3212
  299MOL0     C40262  11.278   3.774   7.440  0.1863 -0.2101 -0.8204
  299MOL0     C40263  11.306   3.908   7.475  0.3444  1.2839  0.1332
  299MOL0     C40264  11.237   3.964   7.587 -0.3910 -0.6061  0.4712
  299MOL0     C40265  11.136   3.893   7.654  1.1071  0.2514  0.4877
  299MOL0     O40266  11.065   3.943   7.758 -0.0143 -0.3856  0.2957
  299MOL0     C40267  10.942   3.890   7.809 -0.0235 -0.9281  0.1092
  299MOL0     C40268  10.823   3.885   7.706 -0.0247 -0.2242  0.3381
  299MOL0     C40269  10.695   3.872   7.791  0.4871 -0.3521 -0.1596
  299MOL0     C40270  10.582   3.890   7.676 -1.1005  0.3080  0.5705
  299MOL0     C40271  10.446   3.851   7.733  0.3094  0.2300 -0.3542
  299MOL0     C40272  10.324   3.852   7.641  0.0076 -0.3351 -0.0944
  299MOL0     C40273  10.197   3.806   7.710  0.3999  0.3971 -0.2602
  299MOL0     C40274  10.084   3.761   7.615 -0.4821  0.5153 -0.3924
  299MOL0    Cl40275   9.944   3.734   7.714  0.1123  0.4293  0.3189
  299MOL0     C40276  11.124   3.757   7.624 -0.1494 -0.9423 -0.7201
  299MOL0     C40277  11.187   3.699   7.519 -0.4184  0.3681 -0.3320
  299MOL0     O40278  11.198   3.548   7.270 -0.6849 -0.6374  0.5941
  299MOL0     C40279  11.336   3.452   7.060 -1.1733 -0.3361 -0.2587
  299MOL0     C40280  11.412   3.393   6.960  0.8057 -0.0620  0.5463
  299MOL0     N40281  11.671   2.954   6.721  0.0609  0.0261 -0.4239
  299MOL0     N40282  11.723   2.883   6.814 -0.3554  0.6099  0.3293
  299MOL0     C40283  11.658   1.826   6.599 -0.0233 -0.1926  0.5853
  299MOL0     C40284  11.569   1.771   6.503 -0.0677  0.9440  0.7345
  299MOL0     C40285  11.453   1.678   6.042 -0.0390  0.7205  0.3536
  299MOL0     C40286  11.386   1.747   5.933 -0.5209 -0.3452  0.2718
  299MOL0     C40287  11.319   1.677   5.829 -0.6017 -0.5129 -0.4200
  299MOL0     C40288  11.300   1.542   5.834  0.2698  0.0964  0.0341
  299MOL0     O40289  11.205   1.488   5.743 -0.3017 -0.3721 -0.4560
  299MOL0     C40290  11.166   1.351   5.764 -0.0741 -0.5979  0.3802
  299MOL0     C40291  11.061   1.309   5.662  0.4928  0.3440 -0.5558
  299MOL0     C40292  11.038   1.149   5.655 -0.0009 -0.2984 -0.8593
  299MOL0     C40293  11.164   1.070   5.644  0.2086  0.4601  0.3454
  299MOL0     C40294  11.242   1.111   5.524  0.4810  0.0141 -0.6096
  299MOL0     C40295  11.272   1.126   5.402  0.9806 -0.0680 -1.1348
  299MOL0     C40296  11.378   1.477   5.940 -0.0793  0.3979 -0.4113
  299MOL0     C40297  11.439   1.543   6.038 -0.8516 -0.4411 -0.3467
  299MOL0     H40298  11.763   1.824   6.240 -1.3739  0.2532  0.7119
  299MOL0     H40299  11.905   1.931   6.394 -1.3786  0.8984 -0.5483
  299MOL0     H40300  11.715   1.986   6.798 -0.0593 -0.5675  0.8134
  299MOL0     H40301  11.831   1.866   6.847  4.4135 -0.0433  0.2518
  299MOL0     H40302  11.948   2.030   6.937  0.4419  1.3571  0.5562
  299MOL0     H40303  11.980   2.103   6.788  2.8997  0.4008  3.9448
  299MOL0     H40304  11.724   2.193   6.801  1.5209  1.6368 -2.2316
  299MOL0     H40305  11.758   2.143   6.977 -0.8289 -0.0013 -0.6778
  299MOL0     H40306  11.929   2.329   6.993 -0.3753 -0.0009  1.6565
  299MOL0     H40307  11.921   2.351   6.813 -1.6283  2.6491  0.2860
  299MOL0     H40308  11.689   2.446   6.852  1.0476 -2.2223 -1.5702
  299MOL0     H40309  11.715   2.386   7.024 -1.1519  0.1606 -0.0239
  299MOL0     H40310  11.731   2.629   7.003  0.3796 -0.7596  1.0378
  299MOL0     H40311  11.885   2.569   7.062  0.0120  3.0704  0.8586
  299MOL0     H40312  11.979   2.557   6.828 -0.0251  0.4645 -4.1747
  299MOL0     H40313  11.826   2.618   6.765 -0.1025 -1.6963  1.2552
  299MOL0     H40314  12.034   2.774   6.847  0.3707  1.1711  0.7372
  299MOL0     H40315  11.928   2.797   6.976 -1.4935 -0.6168  0.4908
  299MOL0     H40316  11.990   2.971   6.645  0.9439 -2.3495  0.4866
  299MOL0     H40317  11.861   3.134   6.508  0.0646 -0.6949 -0.1885
  299MOL0     H40318  11.738   3.024   6.433  0.6426 -0.4247 -0.5758
  299MOL0     H40319  11.558   3.174   6.542 -0.4472  1.0212 -0.6141
  299MOL0     H40320  11.653   3.255   6.441 -0.4937 -0.6835  0.0033
  299MOL0     H40321  11.694   3.398   6.588 -1.6109 -0.5335 -1.6546
  299MOL0     H40322  11.791   3.276   6.688 -0.2429  0.5729 -0.1719
  299MOL0     H40323  11.563   3.223   6.797 -0.9348  0.2313  1.5785
  299MOL0     H40324  11.493   3.351   6.705 -0.0864  2.0689  0.8233
  299MOL0     H40325  11.668   3.612   6.979 -1.4769  2.9759 -2.4054
  299MOL0     H40326  11.601   3.675   7.317  2.6428 -1.1855  0.2954
  299MOL0     H40327  11.694   3.716   7.174 -0.7520 -0.2679 -1.8125
  299MOL0     H40328  11.553   3.810   7.214 -1.3700 -0.1455 -1.2639
  299MOL0     H40329  11.395   3.959   7.440  2.1001 -1.3959  0.4030
  299MOL0     H40330  11.284   4.060   7.601 -0.2314 -0.2597 -1.9853
  299MOL0     H40331  10.956   3.793   7.858 -0.4777 -1.2379 -0.3582
  299MOL0     H40332  10.905   3.953   7.890 -1.4735  0.5036 -1.5873
  299MOL0     H40333  10.823   3.981   7.653 -1.3942 -0.1139  0.5171
  299MOL0     H40334  10.843   3.810   7.629  0.6898 -0.1587  0.4435
  299MOL0     H40335  10.681   3.945   7.872 -1.1615 -1.0733  0.2498
  299MOL0     H40336  10.695   3.774   7.839 -2.1576  0.9050  2.7730
  299MOL0     H40337  10.578   3.994   7.642 -2.6654 -0.1312 -0.7446
  299MOL0     H40338  10.607   3.819   7.597 -2.5647  0.6884 -0.2671
  299MOL0     H40339  10.415   3.904   7.823 -0.5848 -2.6426  1.1601
  299MOL0     H40340  10.466   3.747   7.761 -0.2460  0.4232  0.7814
  299MOL0     H40341  10.303   3.946   7.588  0.5027 -0.0214  0.2639
  299MOL0     H40342  10.339   3.790   7.552  0.5816  1.7173 -1.5165
  299MOL0     H40343  10.160   3.892   7.766 -0.0662  0.9271 -1.3576
  299MOL0     H40344  10.227   3.730   7.782  0.6306 -2.2204 -2.9289
  299MOL0     H40345  10.117   3.663   7.577 -0.0601 -0.1805  1.6511
  299MOL0     H40346  10.060   3.838   7.542 -3.6819 -0.3274 -0.3745
  299MOL0     H40347  11.056   3.694   7.681  1.5127 -2.3978 -0.2564
  299MOL0     H40348  11.178   3.594   7.492 -1.3481  0.0756  1.0378
  299MOL0     H40349  11.231   3.426   7.061 -0.4330 -3.7874  0.5536
  299MOL0     H40350  11.375   3.311   6.900  1.5334 -0.9273  1.2601
  299MOL0     H40351  11.618   1.823   6.700 -2.9946  0.4513 -0.4535
  299MOL0     H40352  11.475   1.723   6.529 -1.8866  2.0277 -3.0740
  299MOL0     H40353  11.403   1.854   5.921 -0.9063 -0.4034 -0.9193
  299MOL0     H40354  11.264   1.731   5.753 -1.0425  0.7937  0.7894
  299MOL0     H40355  11.248   1.280   5.773 -0.2087 -0.6551  1.2681
  299MOL0     H40356  11.110   1.348   5.859 -2.2962  1.0587 -0.7796
  299MOL0     H40357  11.090   1.359   5.569  1.3804  3.6786  1.3232
  299MOL0     H40358  10.966   1.359   5.685 -0.8432 -2.4667  0.5619
  299MOL0     H40359  10.970   1.119   5.574  0.0657  1.6488 -1.6778
  299MOL0     H40360  10.994   1.112   5.748  0.7651 -0.3801 -0.5195
  299MOL0     H40361  11.122   0.971   5.623 -1.4400  1.4231 -1.1375
  299MOL0     H40362  11.225   1.067   5.735  0.6662 -1.0413  0.0188
  299MOL0     H40363  11.284   1.149   5.298  0.8707 -0.0404 -1.1408
  299MOL0     H40364  11.388   1.369   5.938  0.6002  0.4562 -0.1007
  299MOL0     H40365  11.494   1.482   6.109  0.8080 -2.6556 -3.2932
  300MOL0     O40366  10.110   5.035   7.708 -0.2618  0.4148 -0.3833
  300MOL0     C40367  10.161   5.072   7.605 -0.0611  0.7377 -0.5115
  300MOL0     O40368  10.149   5.202   7.548  0.6459  1.0136  0.2242
  300MOL0     C40369  10.084   5.297   7.615  0.4398 -1.1417 -0.2398
  300MOL0     C40370  10.131   5.429   7.618  0.0564  1.2997  0.0479
  300MOL0     C40371  10.052   5.541   7.640 -0.5092  0.2879  0.5482
  300MOL0     C40372   9.919   5.525   7.675  0.4422  0.1166  0.3841
  300MOL0     O40373   9.847   5.635   7.700 -0.9427 -0.1053 -0.2496
  300MOL0     C40374   9.769   5.697   7.593 -0.5029 -0.1493 -0.5251
  300MOL0     C40375   9.673   5.798   7.651 -0.2442  0.0952 -0.6027
  300MOL0     C40376   9.574   5.869   7.544  0.0449 -0.3126 -0.2975
  300MOL0     C40377   9.507   5.989   7.624  0.4368 -0.1302 -0.4094
  300MOL0     C40378   9.391   6.071   7.562 -0.4692  0.2623 -0.3767
  300MOL0     C40379   9.326   6.168   7.668 -0.0603  0.1316 -0.2938
  300MOL0     C40380   9.227   6.271   7.617 -0.3468  0.0277  0.6290
  300MOL0     C40381   9.088   6.217   7.610  0.4616 -0.1743  0.3318
  300MOL0     N40382   9.004   6.304   7.534 -0.4775  0.1426  0.5274
  300MOL0     C40383   8.978   6.432   7.561 -0.0828  0.4347 -0.3290
  300MOL0     C40384   8.876   6.467   7.490  0.7153  1.5472 -0.1213
  300MOL0     C40385   8.814   6.602   7.489  0.4224  0.3921 -0.4282
  300MOL0     C40386   8.659   6.594   7.459  0.6789 -0.2042  1.3827
  300MOL0     C40387   8.579   6.515   7.561 -0.1859 -0.0013  0.3466
  300MOL0     C40388   8.420   6.524   7.554  0.0002 -0.9348  0.4149
  300MOL0     O40389   8.357   6.470   7.443  0.3230 -0.0252  0.2304
  300MOL0     C40390   8.220   6.467   7.414 -0.8629 -0.6244  0.2590
  300MOL0     C40391   8.124   6.481   7.510  0.6732 -0.2044 -0.1297
  300MOL0     C40392   7.986   6.482   7.473 -0.5203 -1.0872 -0.1852
  300MOL0     C40393   7.890   6.490   7.582 -0.2645  0.0186  0.7479
  300MOL0     C40394   7.948   6.474   7.337  0.1602 -0.4515 -0.6058
  300MOL0     C40395   7.803   6.483   7.284  0.1182  0.0039  0.7399
  300MOL0     O40396   7.704   6.392   7.332  0.2554 -0.8343  0.1388
  300MOL0     C40397   7.584   6.396   7.279  0.5292  0.1657 -0.2465
  300MOL0     C40398   7.551   6.399   7.137 -0.2346 -0.1367  0.5140
  300MOL0     C40399   7.420   6.386   7.092  0.5017  0.4223 -0.5945
  300MOL0     C40400   7.315   6.370   7.183  0.0430 -0.2662 -0.4351
  300MOL0     O40401   7.189   6.348   7.142  0.8314 -0.5498 -0.2045
  300MOL0     C40402   7.126   6.427   7.050 -0.2597 -0.3312  0.6895
  300MOL0     C40403   7.083   6.549   7.125 -0.4536 -0.1739 -0.6343
  300MOL0     C40404   6.949   6.525   7.203  0.1923 -0.0419 -0.2198
  300MOL0     C40405   6.903   6.643   7.288 -0.1727 -0.1578 -0.2123
  300MOL0     C40406   6.794   6.594   7.378  0.2248 -0.3637  0.2032
  300MOL0     C40407   6.693   6.709   7.404  0.2859 -0.0175 -1.0735
  300MOL0     C40408   6.566   6.652   7.472 -1.2792  1.0372 -0.5417
  300MOL0     C40409   6.482   6.773   7.512  0.7185 -0.6159  0.2120
  300MOL0    Cl40410   6.383   6.735   7.650  0.2944  0.2183  0.0707
  300MOL0     C40411   7.351   6.369   7.320  0.6574  0.5582  0.0266
  300MOL0     C40412   7.482   6.385   7.365  0.2867 -1.1952 -0.2641
  300MOL0     O40413   7.782   6.573   7.210  0.0603  0.1882 -0.4033
  300MOL0     C40414   8.055   6.452   7.240 -0.8826 -0.1152 -0.0718
  300MOL0     C40415   8.191   6.446   7.281  0.4465 -0.1050  0.1560
  300MOL0     N40416   8.840   6.357   7.403  0.0238  0.1620 -0.1623
  300MOL0     N40417   8.908   6.251   7.450  0.1898 -0.1674  0.4331
  300MOL0     C40418   9.865   5.396   7.691  0.0469  0.3211 -0.4345
  300MOL0     C40419   9.945   5.284   7.646 -0.1298 -0.4916 -0.0937
  300MOL0     C40420  10.237   4.967   7.524 -0.1562 -0.2798 -0.1972
  300MOL0     C40421  10.285   4.997   7.398  0.0044  1.0144  0.2775
  300MOL0     C40422  10.352   4.896   7.327  0.4000 -0.4010  0.1503
  300MOL0     C40423  10.354   4.762   7.376 -0.3982  1.2828  0.4364
  300MOL0     O40424  10.414   4.659   7.305 -0.9671  0.8564 -0.9911
  300MOL0     C40425  10.344   4.531   7.308 -0.3184 -0.2350  0.8875
  300MOL0     C40426  10.321   4.480   7.170 -0.5826 -0.0483 -0.0320
  300MOL0     C40427  10.438   4.403   7.111 -0.0289  1.1396  1.3060
  300MOL0     C40428  10.453   4.389   6.960  0.6442  0.1451  0.8415
  300MOL0     C40429  10.551   4.284   6.925 -0.7650 -0.5939  0.2050
  300MOL0     C40430  10.641   4.205   6.907  0.9440 -1.0446  0.2079
  300MOL0     C40431  10.304   4.735   7.502  0.2133 -0.6284  0.4691
  300MOL0     C40432  10.254   4.844   7.580 -0.2880 -0.5131  1.5450
  300MOL0     H40433  10.234   5.454   7.593 -0.6962  3.4207 -1.1697
  300MOL0     H40434  10.080   5.645   7.629  1.9978 -0.3738 -0.0535
  300MOL0     H40435   9.829   5.757   7.524 -1.4505  1.0966 -0.3166
  300MOL0     H40436   9.716   5.624   7.530 -0.0638 -0.8187 -0.1277
  300MOL0     H40437   9.610   5.733   7.712  0.4387 -0.2464 -0.2484
  300MOL0     H40438   9.721   5.883   7.700 -1.9726  1.5594 -1.3082
  300MOL0     H40439   9.627   5.918   7.461 -3.0185  1.0748 -1.5776
  300MOL0     H40440   9.506   5.793   7.506 -0.3160 -0.7501  1.1776
  300MOL0     H40441   9.471   5.946   7.718  0.2179  0.3731 -0.2584
  300MOL0     H40442   9.584   6.064   7.639 -1.1538  1.6244 -0.6304
  300MOL0     H40443   9.433   6.135   7.484 -2.6414 -0.5753 -2.3489
  300MOL0     H40444   9.317   6.001   7.522  0.6032 -0.9790 -0.2388
  300MOL0     H40445   9.295   6.112   7.757 -1.0670  0.7084 -0.2728
  300MOL0     H40446   9.403   6.243   7.689  0.1631  1.4084 -4.5976
  300MOL0     H40447   9.234   6.351   7.691 -1.3870 -1.3455  2.2954
  300MOL0     H40448   9.261   6.308   7.520  2.5290 -0.1868  1.4783
  300MOL0     H40449   9.035   6.198   7.703  1.1033 -5.6707 -0.1001
  300MOL0     H40450   9.087   6.124   7.553  1.7332  0.6939 -1.2118
  300MOL0     H40451   9.026   6.504   7.626 -1.3060 -1.8960  3.4629
  300MOL0     H40452   8.825   6.639   7.591 -2.4247  2.9737 -0.9405
  300MOL0     H40453   8.854   6.669   7.413 -3.4065  2.0020 -1.2222
  300MOL0     H40454   8.646   6.555   7.357 -1.1649 -0.8600  1.8448
  300MOL0     H40455   8.633   6.700   7.463  0.1583 -0.2803  0.4396
  300MOL0     H40456   8.605   6.532   7.666 -0.0585 -3.1293  0.9365
  300MOL0     H40457   8.596   6.410   7.535 -1.6860  0.3490 -2.4808
  300MOL0     H40458   8.391   6.629   7.554 -0.4127 -0.9977  2.6102
  300MOL0     H40459   8.390   6.471   7.645 -1.7210  0.1798  0.5360
  300MOL0     H40460   8.149   6.488   7.616 -1.9852  3.5611  0.4358
  300MOL0     H40461   7.953   6.467   7.668  4.7015 -3.0874 -3.1566
  300MOL0     H40462   7.845   6.588   7.598 -0.6669 -0.1967  0.9674
  300MOL0     H40463   7.816   6.409   7.584  0.0968 -0.3471  3.6471
  300MOL0     H40464   7.634   6.419   7.070  3.1241 -2.2663  3.6926
  300MOL0     H40465   7.398   6.385   6.985  0.5862 -3.1886 -0.6855
  300MOL0     H40466   7.184   6.468   6.968 -1.8610  0.6852  0.0141
  300MOL0     H40467   7.043   6.369   7.007  1.1608 -1.1983 -1.0281
  300MOL0     H40468   7.162   6.571   7.197  2.2502 -1.7278 -2.9088
  300MOL0     H40469   7.063   6.637   7.062 -1.6861  2.1452  2.7276
  300MOL0     H40470   6.963   6.451   7.282  0.3809  0.5232  0.2823
  300MOL0     H40471   6.867   6.490   7.139  0.2832 -1.1491  0.2337
  300MOL0     H40472   6.995   6.687   7.328  0.9822 -1.7651 -0.9608
  300MOL0     H40473   6.873   6.721   7.217 -0.2740  0.1388  0.1509
  300MOL0     H40474   6.836   6.558   7.473  1.8497  1.2321  0.1462
  300MOL0     H40475   6.737   6.516   7.327 -1.4348  0.2844  0.9921
  300MOL0     H40476   6.732   6.787   7.470 -1.5385  0.7705 -0.8388
  300MOL0     H40477   6.661   6.762   7.313  3.3781  0.5850 -1.9227
  300MOL0     H40478   6.594   6.592   7.559 -1.2248  0.4358 -0.9761
  300MOL0     H40479   6.511   6.581   7.411  0.3870 -0.8617  0.0637
  300MOL0     H40480   6.422   6.799   7.424  1.5632 -1.0736 -0.5142
  300MOL0     H40481   6.553   6.852   7.538  0.0698 -0.4387  1.5263
  300MOL0     H40482   7.269   6.355   7.389 -0.3952  1.6367 -0.9456
  300MOL0     H40483   7.514   6.394   7.468 -2.4212  2.9322  0.4675
  300MOL0     H40484   8.035   6.438   7.134  1.6814  1.8979 -0.8977
  300MOL0     H40485   8.273   6.433   7.210  1.2031  1.4663  0.6838
  300MOL0     H40486   9.762   5.386   7.725 -0.0721 -2.5398 -1.3831
  300MOL0     H40487   9.922   5.178   7.646  0.4478 -0.6416 -1.3986
  300MOL0     H40488  10.266   5.087   7.340 -1.1490 -0.3730 -1.6427
  300MOL0     H40489  10.388   4.912   7.226 -0.5715 -0.5170 -0.2277
  300MOL0     H40490  10.399   4.451   7.358  0.4711  0.0739  0.5259
  300MOL0     H40491  10.251   4.542   7.364  0.0092  2.4931  1.0383
  300MOL0     H40492  10.298   4.567   7.107  0.5396  0.9151  0.8480
  300MOL0     H40493  10.244   4.402   7.166 -0.0997 -0.4890 -1.4906
  300MOL0     H40494  10.427   4.300   7.146  1.4257 -0.6816 -2.9663
  300MOL0     H40495  10.534   4.433   7.154  0.9450 -0.1737  0.1100
  300MOL0     H40496  10.469   4.486   6.913  1.0096 -0.1862  0.2685
  300MOL0     H40497  10.354   4.359   6.925  0.0454  2.3000  0.5196
  300MOL0     H40498  10.712   4.125   6.914  0.1101 -1.9776 -1.4074
  300MOL0     H40499  10.299   4.637   7.549 -2.1880  0.3911  2.6212
  300MOL0     H40500  10.225   4.839   7.684 -2.0929 -4.0924  1.0339
  301MOL0     O40501   9.220   6.639   7.562 -0.2663  0.1043 -0.3032
  301MOL0     C40502   9.324   6.681   7.525 -0.4087  0.3742 -0.7545
  301MOL0     O40503   9.330   6.769   7.419  0.1591  0.7290 -0.7404
  301MOL0     C40504   9.214   6.813   7.364 -0.6520 -0.3654  0.3062
  301MOL0     C40505   9.142   6.920   7.427  0.9581 -0.0585 -0.1372
  301MOL0     C40506   9.014   6.957   7.380  0.7433 -0.4576 -0.8604
  301MOL0     C40507   8.955   6.890   7.274  0.1067  0.0882  0.1056
  301MOL0     O40508   8.825   6.911   7.231  0.0271  0.5583 -0.4540
  301MOL0     C40509   8.766   6.824   7.124 -0.0481 -1.4759 -0.1230
  301MOL0     C40510   8.620   6.874   7.094  0.0882 -0.8242 -0.0871
  301MOL0     C40511   8.525   6.828   7.203 -0.3422  0.4397  0.6196
  301MOL0     C40512   8.389   6.898   7.177  0.0809 -0.2279 -1.4240
  301MOL0     C40513   8.294   6.847   7.281 -0.4613 -0.3289 -0.6858
  301MOL0     C40514   8.157   6.915   7.252 -0.6640 -0.5210  0.2950
  301MOL0     C40515   8.058   6.858   7.355 -0.3193 -0.6107 -0.5173
  301MOL0     C40516   7.921   6.858   7.314 -0.1059 -0.7219 -0.2636
  301MOL0     N40517   7.887   7.008   7.305 -0.5405 -0.1231 -0.7665
  301MOL0     C40518   7.834   7.053   7.187  0.0179  0.0433 -0.2773
  301MOL0     C40519   7.806   7.181   7.212  0.0146  0.9940 -0.0538
  301MOL0     C40520   7.750   7.286   7.109 -0.7490 -0.7016 -0.6459
  301MOL0     C40521   7.600   7.266   7.087 -0.2249 -0.3540  0.2297
  301MOL0     C40522   7.527   7.304   7.220  0.4113  0.8062  0.7305
  301MOL0     C40523   7.553   7.444   7.283 -0.5461 -0.3224 -0.2724
  301MOL0     O40524   7.434   7.486   7.357  0.0018 -0.3566  0.6843
  301MOL0     C40525   7.446   7.610   7.436  0.8210  0.3923  0.7442
  301MOL0     C40526   7.559   7.657   7.489 -1.3391 -0.2045  0.1755
  301MOL0     C40527   7.557   7.777   7.554  0.8323  0.0571  0.6918
  301MOL0     C40528   7.684   7.831   7.609  0.6665 -0.5723  0.5864
  301MOL0     C40529   7.425   7.842   7.576 -0.2973 -0.2105 -0.5119
  301MOL0     C40530   7.414   7.964   7.653  0.1228  0.7471  0.1278
  301MOL0     O40531   7.518   8.065   7.652 -0.0701 -0.5778 -0.0869
  301MOL0     C40532   7.484   8.170   7.724 -0.2317 -0.1699 -1.0815
  301MOL0     C40533   7.413   8.271   7.669 -0.9215  0.2625 -0.4793
  301MOL0     C40534   7.394   8.389   7.737  0.2400 -0.9213 -0.9028
  301MOL0     C40535   7.446   8.413   7.863  0.4346 -0.2574  0.0525
  301MOL0     O40536   7.396   8.509   7.949 -0.8122  0.4943 -0.1144
  301MOL0     C40537   7.447   8.538   8.083  0.9889 -0.3053  0.2789
  301MOL0     C40538   7.366   8.647   8.157  0.0772  0.8638  0.6183
  301MOL0     C40539   7.371   8.612   8.301 -0.0517 -0.4309 -0.0100
  301MOL0     C40540   7.301   8.733   8.379 -0.9924 -0.3736  0.9215
  301MOL0     C40541   7.311   8.718   8.532 -0.9717 -0.4534  0.1997
  301MOL0     C40542   7.252   8.585   8.587 -0.0961  0.3226  0.4778
  301MOL0     C40543   7.242   8.578   8.744 -0.6113  0.5535  0.6652
  301MOL0     C40544   7.297   8.452   8.806 -0.1358 -0.3820 -1.1793
  301MOL0    Cl40545   7.193   8.323   8.739 -0.8549  0.3863 -0.2427
  301MOL0     C40546   7.528   8.311   7.917 -0.6596 -0.5303  0.0289
  301MOL0     C40547   7.545   8.182   7.847  0.2614  0.0257 -0.7037
  301MOL0     O40548   7.306   7.980   7.714 -0.2065  0.2302 -0.6648
  301MOL0     C40549   7.305   7.783   7.525 -1.0228 -0.7624  0.8978
  301MOL0     C40550   7.323   7.668   7.464  0.7078 -0.4208 -0.2888
  301MOL0     N40551   7.834   7.204   7.345  0.7516  0.4506 -0.3019
  301MOL0     N40552   7.878   7.097   7.405  0.0484 -0.6045 -0.5618
  301MOL0     C40553   9.038   6.804   7.206 -0.1380  0.1663  0.4277
  301MOL0     C40554   9.165   6.763   7.248 -0.7158 -0.1571  0.6443
  301MOL0     C40555   9.449   6.636   7.596 -0.3115 -0.7195 -0.1930
  301MOL0     C40556   9.452   6.565   7.710 -0.2842 -0.7736  0.2596
  301MOL0     C40557   9.569   6.538   7.779 -0.3859 -1.4912 -0.7603
  301MOL0     C40558   9.689   6.610   7.745  0.7380  0.1873  0.2433
  301MOL0     O40559   9.797   6.625   7.824  0.2602  0.1170  0.8311
  301MOL0     C40560   9.819   6.547   7.934 -0.3939 -0.0325 -1.1433
  301MOL0     C40561   9.974   6.530   7.959 -0.3997 -0.1981  0.1855
  301MOL0     C40562  10.029   6.671   8.011  0.3027  0.4377  0.4495
  301MOL0     C40563   9.943   6.765   8.103  0.8133 -0.2627 -0.2806
  301MOL0     C40564   9.892   6.695   8.221  0.1408 -0.2885 -0.9696
  301MOL0     C40565   9.850   6.641   8.325 -0.2650  0.8042 -0.3582
  301MOL0     C40566   9.691   6.668   7.613  0.6029 -0.6098 -0.9845
  301MOL0     C40567   9.571   6.684   7.540 -0.1856  0.1985 -0.4890
  301MOL0     H40568   9.176   6.978   7.512 -2.4567  0.6064  0.9176
  301MOL0     H40569   8.961   7.031   7.438 -0.2883 -1.3998 -0.5790
  301MOL0     H40570   8.818   6.828   7.028 -3.4523 -2.3641 -2.1717
  301MOL0     H40571   8.763   6.724   7.169  2.3202 -1.4065  0.3154
  301MOL0     H40572   8.636   6.982   7.100  0.5725 -0.9435  4.4631
  301MOL0     H40573   8.584   6.849   6.994 -0.4198  1.0192 -0.4060
  301MOL0     H40574   8.512   6.719   7.199 -0.7615  0.5309 -1.2920
  301MOL0     H40575   8.573   6.870   7.292  3.4674  1.0717 -1.5059
  301MOL0     H40576   8.395   7.007   7.185 -1.0118 -0.2276 -0.2827
  301MOL0     H40577   8.358   6.875   7.075  0.8189  2.1665 -2.2477
  301MOL0     H40578   8.288   6.740   7.259 -0.0854 -0.0938 -2.0378
  301MOL0     H40579   8.342   6.865   7.377 -0.4482 -0.8022 -0.6016
  301MOL0     H40580   8.157   7.024   7.246  1.2703 -0.5756 -1.9900
  301MOL0     H40581   8.130   6.884   7.151  0.8027 -2.8730  0.5383
  301MOL0     H40582   8.084   6.752   7.368 -0.3079 -0.5824 -0.3076
  301MOL0     H40583   8.079   6.907   7.451  0.8398  0.5211 -1.3158
  301MOL0     H40584   7.868   6.817   7.401  4.4531  2.3416  4.5468
  301MOL0     H40585   7.905   6.812   7.216 -0.3545 -0.2185 -0.4654
  301MOL0     H40586   7.821   6.997   7.095 -2.2003 -1.8079  1.0562
  301MOL0     H40587   7.771   7.383   7.156  0.6993 -0.6059 -1.4474
  301MOL0     H40588   7.803   7.274   7.015  1.6245 -1.6809  0.7329
  301MOL0     H40589   7.576   7.166   7.049  0.7402 -0.8015  0.7632
  301MOL0     H40590   7.569   7.332   7.004 -1.1645 -0.7528  0.2538
  301MOL0     H40591   7.539   7.234   7.303  1.9158  1.3481  1.0025
  301MOL0     H40592   7.424   7.293   7.184  0.5846  1.7793 -0.1081
  301MOL0     H40593   7.568   7.517   7.203  2.6940 -2.0742 -1.4578
  301MOL0     H40594   7.640   7.436   7.348 -0.1140  1.9584 -0.4616
  301MOL0     H40595   7.658   7.615   7.474 -1.0880  1.1287 -2.4590
  301MOL0     H40596   7.676   7.872   7.711  3.3064  2.5275 -0.2659
  301MOL0     H40597   7.753   7.747   7.614  1.8252  0.1696 -1.7380
  301MOL0     H40598   7.724   7.905   7.539 -0.1550 -0.7131 -0.0424
  301MOL0     H40599   7.379   8.248   7.569  0.2438 -0.3885 -0.7467
  301MOL0     H40600   7.332   8.458   7.680 -1.5805  0.2135  2.1841
  301MOL0     H40601   7.445   8.444   8.138  3.7583 -0.0077  1.0151
  301MOL0     H40602   7.552   8.564   8.071  1.6375 -1.9409  1.9962
  301MOL0     H40603   7.394   8.746   8.119 -2.0882  0.2543 -3.1031
  301MOL0     H40604   7.269   8.640   8.107  1.3190 -1.9867 -1.6892
  301MOL0     H40605   7.476   8.596   8.324  2.1921  2.7391 -5.8736
  301MOL0     H40606   7.308   8.525   8.323 -0.8409  0.4792  1.5190
  301MOL0     H40607   7.342   8.831   8.353  1.9631 -0.9226  2.9714
  301MOL0     H40608   7.195   8.745   8.353 -0.8080 -0.0120  0.2997
  301MOL0     H40609   7.264   8.802   8.583  0.5109  2.3421 -2.6835
  301MOL0     H40610   7.416   8.729   8.563 -0.9938  1.5744 -0.2831
  301MOL0     H40611   7.151   8.581   8.547 -0.8755 -1.3574  2.4071
  301MOL0     H40612   7.302   8.493   8.555 -0.7536  0.3056 -0.5087
  301MOL0     H40613   7.137   8.585   8.775 -1.1354 -1.6563 -0.3987
  301MOL0     H40614   7.291   8.668   8.783  2.0609 -1.1698  1.5457
  301MOL0     H40615   7.281   8.447   8.914 -4.0947 -3.3187 -1.6679
  301MOL0     H40616   7.399   8.439   8.770 -1.0887  1.9691 -5.3734
  301MOL0     H40617   7.574   8.314   8.015 -0.0358  1.8178 -0.2639
  301MOL0     H40618   7.599   8.099   7.892  3.0789  1.9718 -0.2221
  301MOL0     H40619   7.211   7.837   7.522 -1.3962 -1.3812  1.2078
  301MOL0     H40620   7.235   7.620   7.423 -0.7053  3.4762 -2.2690
  301MOL0     H40621   9.004   6.744   7.123 -4.3722 -1.3957  2.9658
  301MOL0     H40622   9.229   6.684   7.209  0.5309  1.2088 -0.1848
  301MOL0     H40623   9.360   6.532   7.759 -1.4235 -1.4833 -2.1745
  301MOL0     H40624   9.573   6.491   7.876  0.2601  3.6492  2.0626
  301MOL0     H40625   9.776   6.586   8.027  1.5480  0.4982 -0.4149
  301MOL0     H40626   9.774   6.455   7.897  0.2754 -0.1012 -1.8212
  301MOL0     H40627  10.007   6.509   7.857  0.8399 -1.4074  0.7925
  301MOL0     H40628  10.007   6.445   8.019  1.8699  0.9459  0.6289
  301MOL0     H40629  10.067   6.726   7.925 -2.9713  1.6308 -0.3844
  301MOL0     H40630  10.115   6.650   8.075  0.2816  1.0105  0.6732
  301MOL0     H40631   9.854   6.809   8.057  1.5942  0.8459 -0.7597
  301MOL0     H40632  10.007   6.851   8.125  0.3692 -0.9393  5.1627
  301MOL0     H40633   9.798   6.598   8.408  0.0755 -2.1622 -1.5514
  301MOL0     H40634   9.781   6.697   7.559  1.8230 -0.0883  1.1962
  301MOL0     H40635   9.577   6.746   7.451  1.4516  0.1633 -0.4342
  302MOL0     O40636   8.185   4.112   3.778 -0.7175  0.3546  0.1105
  302MOL0     C40637   8.291   4.066   3.749 -0.1906  0.3748 -0.1127
  302MOL0     O40638   8.335   3.936   3.773 -0.3151  0.0167 -0.7915
  302MOL0     C40639   8.250   3.840   3.829 -0.5620  0.2700  0.3144
  302MOL0     C40640   8.142   3.792   3.764 -0.6995 -1.1233  0.3702
  302MOL0     C40641   8.056   3.696   3.822 -0.6338 -0.4612 -0.7269
  302MOL0     C40642   8.098   3.633   3.947  0.3363 -0.6106 -0.2293
  302MOL0     O40643   8.014   3.533   3.991  0.8108 -1.1852  0.3633
  302MOL0     C40644   8.081   3.436   4.063 -0.2196 -0.2022  0.1561
  302MOL0     C40645   7.981   3.325   4.099  1.1787 -0.1212  0.2006
  302MOL0     C40646   8.066   3.214   4.159 -0.0622  0.1569  0.0243
  302MOL0     C40647   7.976   3.095   4.176  0.2388  0.4199 -0.0940
  302MOL0     C40648   8.031   2.998   4.270 -0.5071  1.1073 -0.1157
  302MOL0     C40649   8.017   2.850   4.224  0.4485  0.6755  0.0032
  302MOL0     C40650   8.052   2.744   4.334 -0.1489  0.2111 -0.5659
  302MOL0     C40651   8.206   2.699   4.325  0.9167  0.2242  0.6629
  302MOL0     N40652   8.239   2.631   4.202 -0.5263  0.5674 -0.6143
  302MOL0     C40653   8.163   2.520   4.157 -0.4090 -1.0051 -0.2402
  302MOL0     C40654   8.203   2.497   4.030 -0.5749  0.5011 -0.9626
  302MOL0     C40655   8.143   2.400   3.927 -0.5233  0.8117 -0.9648
  302MOL0     C40656   7.996   2.406   3.926  1.2436 -0.0472 -0.3546
  302MOL0     C40657   7.924   2.547   3.910 -1.1260  1.0756 -0.0612
  302MOL0     C40658   7.783   2.544   3.862  0.0934 -0.3325 -0.0086
  302MOL0     O40659   7.741   2.679   3.861  0.3974 -0.7466 -1.0171
  302MOL0     C40660   7.609   2.709   3.813  0.1935 -0.0964 -0.0905
  302MOL0     C40661   7.521   2.615   3.778  0.0882  0.2287 -0.5875
  302MOL0     C40662   7.396   2.653   3.737 -1.1390  0.3792  0.6967
  302MOL0     C40663   7.323   2.542   3.653 -0.0424 -0.0698 -0.4926
  302MOL0     C40664   7.352   2.787   3.754 -0.2861 -0.0082  0.3825
  302MOL0     C40665   7.210   2.830   3.714  0.3266  0.9444  0.1742
  302MOL0     O40666   7.205   2.959   3.695 -0.0610 -0.0267 -0.0000
  302MOL0     C40667   7.108   3.007   3.614 -0.0687 -0.6865 -0.4432
  302MOL0     C40668   7.061   2.932   3.503 -0.6615 -0.0904  1.2715
  302MOL0     C40669   6.961   2.992   3.433  0.2956 -0.2937 -0.4267
  302MOL0     C40670   6.893   3.121   3.465 -0.9642  0.4040 -0.1447
  302MOL0     O40671   6.790   3.156   3.386 -0.0606 -0.2413 -0.0647
  302MOL0     C40672   6.730   3.283   3.399  0.4794 -0.3763  0.1269
  302MOL0     C40673   6.648   3.312   3.268 -0.2750 -0.2740 -0.6593
  302MOL0     C40674   6.573   3.440   3.275  0.8539  0.2382  0.3189
  302MOL0     C40675   6.519   3.474   3.137 -0.0194 -0.4829 -1.0895
  302MOL0     C40676   6.430   3.602   3.136  0.3472  0.5573 -0.1145
  302MOL0     C40677   6.355   3.606   3.002 -1.0556  0.2242  0.8301
  302MOL0     C40678   6.260   3.728   3.008  0.7672 -0.3968  0.4699
  302MOL0     C40679   6.248   3.796   2.873 -0.9180  0.1994  0.3853
  302MOL0    Cl40680   6.111   3.912   2.884  0.0612 -0.0577 -0.5223
  302MOL0     C40681   6.944   3.193   3.574 -0.0772  0.4603  0.0224
  302MOL0     C40682   7.054   3.135   3.642  0.6987  0.5419 -0.2238
  302MOL0     O40683   7.111   2.748   3.718 -0.0894  0.1807  0.1542
  302MOL0     C40684   7.444   2.881   3.796  0.3717 -0.3163  0.3811
  302MOL0     C40685   7.574   2.839   3.820  0.8945  0.6985  0.6186
  302MOL0     N40686   8.304   2.587   4.003 -0.0937  0.2424  0.2073
  302MOL0     N40687   8.329   2.659   4.104 -0.3686 -0.2773  0.0161
  302MOL0     C40688   8.205   3.685   4.023  0.1660 -0.5650  0.4589
  302MOL0     C40689   8.285   3.775   3.952  0.1450  0.0860  0.3913
  302MOL0     C40690   8.390   4.153   3.693 -0.2546  0.9953 -0.5325
  302MOL0     C40691   8.490   4.108   3.619 -0.2320 -0.1783 -0.3285
  302MOL0     C40692   8.592   4.188   3.572 -0.5509  0.1968  0.2321
  302MOL0     C40693   8.594   4.327   3.583  0.1127  0.9418 -0.2083
  302MOL0     O40694   8.691   4.395   3.512 -0.5867  0.2523 -0.5525
  302MOL0     C40695   8.686   4.538   3.520  0.5467 -0.3497  0.5738
  302MOL0     C40696   8.787   4.603   3.422  0.8024  0.0408  1.4519
  302MOL0     C40697   8.749   4.584   3.274  0.2531  0.0785  0.0716
  302MOL0     C40698   8.869   4.617   3.189  0.4976 -0.2376  0.6193
  302MOL0     C40699   8.927   4.750   3.197  0.5486 -0.9463  0.6198
  302MOL0     C40700   8.987   4.853   3.230 -0.3496  0.5021  1.0128
  302MOL0     C40701   8.486   4.375   3.667  0.1747 -0.7423  0.2201
  302MOL0     C40702   8.382   4.296   3.711  0.5097  0.4186  0.3707
  302MOL0     H40703   8.108   3.833   3.670 -3.9054 -4.5607 -0.2218
  302MOL0     H40704   7.952   3.673   3.798 -1.3288  2.5239 -1.0010
  302MOL0     H40705   8.163   3.396   4.001  0.1447  1.0632 -0.2065
  302MOL0     H40706   8.132   3.473   4.153  0.7462 -0.8230 -0.1148
  302MOL0     H40707   7.904   3.369   4.161  1.9256  3.2698 -1.0622
  302MOL0     H40708   7.930   3.284   4.011  4.0406 -2.2750 -0.6149
  302MOL0     H40709   8.151   3.183   4.098  0.3449 -1.4123  1.3186
  302MOL0     H40710   8.102   3.244   4.258  0.3464 -0.4053  0.0522
  302MOL0     H40711   7.875   3.121   4.206 -0.4445 -1.2379 -0.8240
  302MOL0     H40712   7.961   3.060   4.074 -0.8309  0.7385 -0.0526
  302MOL0     H40713   8.134   3.028   4.293 -0.9608  2.1911  0.5658
  302MOL0     H40714   7.989   3.008   4.371  2.8045  0.1465  1.5257
  302MOL0     H40715   7.915   2.820   4.198  0.6601  1.6690 -2.1556
  302MOL0     H40716   8.076   2.815   4.139 -0.8857 -1.6526 -0.0730
  302MOL0     H40717   8.031   2.785   4.433  4.9072 -0.5383  1.0717
  302MOL0     H40718   7.985   2.659   4.320 -1.4972  1.0776  0.3830
  302MOL0     H40719   8.228   2.643   4.416 -2.5627 -1.9794  0.3694
  302MOL0     H40720   8.265   2.791   4.328 -0.2662  0.9831  1.4374
  302MOL0     H40721   8.080   2.466   4.203  0.6587 -3.2723 -0.8465
  302MOL0     H40722   8.194   2.411   3.831 -1.8128 -0.8886 -1.9010
  302MOL0     H40723   8.180   2.304   3.965  0.9800  1.5287 -0.5171
  302MOL0     H40724   7.971   2.367   4.024 -0.0153  2.0235  0.2268
  302MOL0     H40725   7.951   2.338   3.853 -1.4076  2.3494 -1.1249
  302MOL0     H40726   7.974   2.610   3.836 -0.5184 -2.4030 -2.9012
  302MOL0     H40727   7.931   2.590   4.010 -1.7931  0.5314  0.2324
  302MOL0     H40728   7.723   2.465   3.909 -2.3363  1.3849 -0.0928
  302MOL0     H40729   7.791   2.523   3.755  1.4074  0.0869 -0.0086
  302MOL0     H40730   7.544   2.510   3.763 -3.9737 -0.9761  0.4170
  302MOL0     H40731   7.387   2.496   3.577 -1.4928 -0.5051 -1.4912
  302MOL0     H40732   7.271   2.467   3.713 -2.0338  1.7842  0.2132
  302MOL0     H40733   7.241   2.579   3.591  1.0326  0.4601 -1.6351
  302MOL0     H40734   7.092   2.836   3.463 -1.3908  0.4455 -0.7008
  302MOL0     H40735   6.923   2.944   3.344  0.1226  0.0776 -0.5514
  302MOL0     H40736   6.675   3.299   3.493  0.2112  1.3650 -0.2901
  302MOL0     H40737   6.818   3.347   3.407  0.3673 -0.3541  1.3912
  302MOL0     H40738   6.713   3.327   3.181 -1.6931  1.7037 -1.4396
  302MOL0     H40739   6.587   3.222   3.253  3.2047 -3.4130  1.9771
  302MOL0     H40740   6.632   3.526   3.311  0.5865  1.4307 -1.9113
  302MOL0     H40741   6.483   3.435   3.337 -1.5847  0.0715 -2.9671
  302MOL0     H40742   6.595   3.482   3.058  3.6271 -2.3215  1.9351
  302MOL0     H40743   6.468   3.386   3.097  0.1468 -0.6671 -0.8940
  302MOL0     H40744   6.476   3.701   3.142  1.6628 -0.1046  1.8186
  302MOL0     H40745   6.368   3.588   3.225 -2.0965 -0.8106 -1.9140
  302MOL0     H40746   6.421   3.620   2.915  0.0026 -3.0134  0.9636
  302MOL0     H40747   6.303   3.513   2.975  1.4592 -1.1117  0.2357
  302MOL0     H40748   6.299   3.807   3.072 -0.6751 -1.3779  2.6840
  302MOL0     H40749   6.166   3.688   3.048  0.3716 -0.2802 -0.3131
  302MOL0     H40750   6.204   3.735   2.794  1.6122 -0.7970 -0.3408
  302MOL0     H40751   6.343   3.831   2.833 -1.3932 -0.0715 -1.0538
  302MOL0     H40752   6.911   3.292   3.602 -0.1211  0.1646  1.0279
  302MOL0     H40753   7.101   3.201   3.715  3.0536  0.4808 -1.5969
  302MOL0     H40754   7.423   2.987   3.810  0.1492 -0.4255  0.8774
  302MOL0     H40755   7.650   2.905   3.860  1.6832  0.2867 -0.1684
  302MOL0     H40756   8.234   3.648   4.121 -0.8749 -4.1433 -0.4513
  302MOL0     H40757   8.375   3.805   4.005 -0.2186 -2.1578  2.4924
  302MOL0     H40758   8.513   4.002   3.625 -2.0936 -0.5364  3.9564
  302MOL0     H40759   8.684   4.148   3.533 -0.7033 -2.0456  1.9566
  302MOL0     H40760   8.586   4.574   3.495  0.8277  1.3856  1.7533
  302MOL0     H40761   8.707   4.567   3.624  2.2357 -1.2468  0.5313
  302MOL0     H40762   8.889   4.567   3.436  1.6987  1.6584 -0.4828
  302MOL0     H40763   8.789   4.712   3.437  2.2074  0.6992 -2.3327
  302MOL0     H40764   8.665   4.649   3.246  0.3036 -0.3677 -1.1936
  302MOL0     H40765   8.707   4.485   3.251 -1.3271  0.1107  2.4765
  302MOL0     H40766   8.844   4.604   3.084  0.4055 -1.5640  0.7844
  302MOL0     H40767   8.959   4.554   3.195 -0.8220 -2.1642  1.1558
  302MOL0     H40768   9.043   4.941   3.255  1.0117  0.3509 -1.2727
  302MOL0     H40769   8.470   4.481   3.687  3.8174  0.0855 -0.4534
  302MOL0     H40770   8.294   4.341   3.754 -0.1406  1.8480 -2.2263
  303MOL0     O40771   9.079   4.273   3.832  1.2849  0.4846 -0.8181
  303MOL0     C40772   9.057   4.331   3.726  0.0901  0.2860 -0.4760
  303MOL0     O40773   9.059   4.469   3.711 -0.0254  0.2695  0.3177
  303MOL0     C40774   9.108   4.541   3.816 -0.6050  0.6062  0.9203
  303MOL0     C40775   9.042   4.660   3.848 -0.0472 -0.8688 -0.0494
  303MOL0     C40776   9.093   4.747   3.945 -0.0399 -0.7598 -0.5627
  303MOL0     C40777   9.212   4.717   4.018  0.4383  0.7251  0.7791
  303MOL0     O40778   9.277   4.807   4.098 -0.1103 -0.1113  0.5653
  303MOL0     C40779   9.225   4.941   4.080  0.6218 -0.0086 -0.8293
  303MOL0     C40780   9.267   5.011   3.951  0.0878 -0.5623  0.6494
  303MOL0     C40781   9.250   5.157   3.971 -0.1205 -0.3421  0.2961
  303MOL0     C40782   9.305   5.238   3.850 -0.7738 -0.2894 -0.7281
  303MOL0     C40783   9.288   5.385   3.861 -1.0349 -0.8144  0.2733
  303MOL0     C40784   9.342   5.452   3.727 -0.1543  0.6767  0.4540
  303MOL0     C40785   9.299   5.596   3.705 -0.4215 -1.0617 -0.3538
  303MOL0     C40786   9.361   5.666   3.580  0.0977  0.8771  0.0146
  303MOL0     N40787   9.507   5.663   3.590 -0.0169  0.1810  0.7484
  303MOL0     C40788   9.582   5.745   3.670 -0.4540 -0.0583  0.0320
  303MOL0     C40789   9.707   5.710   3.637  0.0768  0.4944  0.6291
  303MOL0     C40790   9.844   5.774   3.679  0.3069  0.0224 -0.1466
  303MOL0     C40791   9.868   5.798   3.829  0.0764 -0.5345 -0.4108
  303MOL0     C40792  10.006   5.863   3.853  0.0104  0.4961  0.3146
  303MOL0     C40793  10.038   5.859   3.995  0.2578 -0.2231  0.1117
  303MOL0     O40794  10.151   5.941   4.030 -0.3501  0.2055  0.6127
  303MOL0     C40795  10.176   5.951   4.161 -0.1846  0.2931 -0.3616
  303MOL0     C40796  10.101   5.902   4.271  0.2965 -0.0646  0.8395
  303MOL0     C40797  10.140   5.917   4.403 -0.2841  0.5954  0.0152
  303MOL0     C40798  10.058   5.843   4.508 -0.8737 -0.0483  1.1907
  303MOL0     C40799  10.261   5.987   4.430 -1.0733  0.5090 -0.3796
  303MOL0     C40800  10.312   6.007   4.563  0.0228 -0.5809  0.3551
  303MOL0     O40801  10.234   6.096   4.640 -1.5938  0.1481 -0.5217
  303MOL0     C40802  10.275   6.144   4.765  1.5074 -0.4629  0.4948
  303MOL0     C40803  10.330   6.059   4.863 -0.2079 -0.5736  0.6325
  303MOL0     C40804  10.373   6.104   4.992  0.7641  1.3506  0.3792
  303MOL0     C40805  10.351   6.240   5.023 -0.5849  0.8241 -0.1115
  303MOL0     O40806  10.386   6.281   5.152 -0.5648 -0.2668 -0.8398
  303MOL0     C40807  10.299   6.366   5.227 -0.3375  0.1071 -0.0472
  303MOL0     C40808  10.371   6.493   5.278  0.2435  0.1221 -0.1254
  303MOL0     C40809  10.285   6.575   5.375  0.4258  0.6074 -0.6874
  303MOL0     C40810  10.172   6.653   5.308  0.7359  0.0202  0.8518
  303MOL0     C40811  10.218   6.798   5.291  0.6288 -0.4852  0.8855
  303MOL0     C40812  10.209   6.883   5.421 -0.1499  0.1298  0.1895
  303MOL0     C40813  10.258   7.029   5.415  0.2861  0.4281 -0.2036
  303MOL0     C40814  10.385   7.040   5.322 -0.6834  0.2648  0.9184
  303MOL0    Cl40815  10.461   7.187   5.360  0.0101 -0.0236 -0.2024
  303MOL0     C40816  10.303   6.323   4.931  0.7717 -0.2635  0.4477
  303MOL0     C40817  10.260   6.280   4.796  0.0608 -0.4444  0.1827
  303MOL0     O40818  10.426   5.959   4.591  0.1968 -0.4996 -0.5274
  303MOL0     C40819  10.338   6.041   4.327  0.2897  0.2545 -0.0361
  303MOL0     C40820  10.293   6.021   4.199 -0.6664 -0.7713  0.3679
  303MOL0     N40821   9.704   5.600   3.553  0.3306 -0.3374 -0.0884
  303MOL0     N40822   9.584   5.575   3.517  0.2523 -0.0638  0.0918
  303MOL0     C40823   9.274   4.602   3.980  0.5966  1.0209 -0.7442
  303MOL0     C40824   9.228   4.507   3.889 -0.1875  0.3801 -0.3317
  303MOL0     C40825   9.009   4.251   3.611 -0.6320 -0.0149 -0.4183
  303MOL0     C40826   8.993   4.111   3.627 -0.3902 -0.2841 -0.7289
  303MOL0     C40827   8.962   4.030   3.520 -0.9489 -0.1533  0.6232
  303MOL0     C40828   8.940   4.090   3.390 -0.9353 -0.1922 -0.2611
  303MOL0     O40829   8.879   4.027   3.283  0.2407 -0.7643 -0.9227
  303MOL0     C40830   8.888   3.885   3.270  0.1838  0.5837  0.1922
  303MOL0     C40831   8.779   3.839   3.169  0.7090  0.0129 -0.2206
  303MOL0     C40832   8.793   3.691   3.122  0.9113  0.2545 -0.7031
  303MOL0     C40833   8.795   3.593   3.248 -0.0491  0.0330 -0.0958
  303MOL0     C40834   8.792   3.459   3.205 -0.0400 -1.1109 -0.1411
  303MOL0     C40835   8.783   3.344   3.184  0.3559  0.4596  0.5570
  303MOL0     C40836   8.956   4.228   3.376 -1.2291  0.4240 -0.3732
  303MOL0     C40837   8.996   4.306   3.482 -0.1520  0.4810  0.8471
  303MOL0     H40838   8.960   4.697   3.787  3.6244  1.7306 -4.0149
  303MOL0     H40839   9.035   4.838   3.953  0.5295 -0.5144  1.3269
  303MOL0     H40840   9.123   4.945   4.118  0.5294 -2.2282 -0.7261
  303MOL0     H40841   9.277   4.997   4.159 -0.1169 -1.8093  1.0222
  303MOL0     H40842   9.370   4.985   3.927  0.1157  1.0384 -1.2752
  303MOL0     H40843   9.203   4.977   3.869  3.1853 -0.5889 -1.9618
  303MOL0     H40844   9.145   5.175   3.996  0.4412 -0.7598  3.4566
  303MOL0     H40845   9.305   5.189   4.060  1.2971 -1.1790 -0.2543
  303MOL0     H40846   9.407   5.203   3.833 -1.2596 -2.5514  0.6275
  303MOL0     H40847   9.253   5.209   3.758  1.3512 -0.1715 -2.0337
  303MOL0     H40848   9.181   5.405   3.871 -0.8358  0.3053  0.2718
  303MOL0     H40849   9.336   5.429   3.949 -0.3087 -0.6708 -0.1839
  303MOL0     H40850   9.450   5.442   3.730  0.0106  2.2699  0.8283
  303MOL0     H40851   9.311   5.388   3.644  0.4273  0.2314  0.5821
  303MOL0     H40852   9.192   5.613   3.710 -0.0534  1.2613  1.4085
  303MOL0     H40853   9.337   5.641   3.797  1.2547 -3.3812  0.1982
  303MOL0     H40854   9.332   5.771   3.577  0.6830  1.0881  1.1581
  303MOL0     H40855   9.323   5.607   3.496  2.8328 -0.1686 -0.6149
  303MOL0     H40856   9.556   5.828   3.735 -0.4349  0.1173 -0.1825
  303MOL0     H40857   9.921   5.714   3.631  0.1309  0.2532 -0.7256
  303MOL0     H40858   9.842   5.877   3.641  0.0899  1.8223  4.1099
  303MOL0     H40859   9.849   5.706   3.885  2.6618 -1.2887 -0.6238
  303MOL0     H40860   9.787   5.860   3.868  0.1382 -1.4404  1.2342
  303MOL0     H40861  10.032   5.956   3.802 -0.8439 -0.2767 -1.6177
  303MOL0     H40862  10.082   5.792   3.818 -0.0769 -0.1323  1.3434
  303MOL0     H40863  10.052   5.756   4.027 -0.5157  0.6263  3.5970
  303MOL0     H40864   9.954   5.895   4.055 -1.8720 -3.6344 -0.5506
  303MOL0     H40865  10.001   5.859   4.259 -0.3209  1.2466  1.0889
  303MOL0     H40866  10.114   5.755   4.541  1.8281  0.7098 -1.0495
  303MOL0     H40867  10.049   5.906   4.597  1.6892  1.1114  0.7223
  303MOL0     H40868   9.963   5.805   4.469  0.6977 -0.1545 -3.0363
  303MOL0     H40869  10.366   5.958   4.844  2.7758  0.3365  0.9928
  303MOL0     H40870  10.408   6.036   5.068  2.2453 -2.2271 -3.1900
  303MOL0     H40871  10.214   6.404   5.170 -1.8042 -2.6121  0.1334
  303MOL0     H40872  10.250   6.314   5.310  0.1872 -1.5162 -0.7067
  303MOL0     H40873  10.465   6.469   5.330  0.6633 -2.3169 -1.8758
  303MOL0     H40874  10.391   6.561   5.194  0.0760  2.3599  1.5396
  303MOL0     H40875  10.344   6.650   5.428 -1.5048  1.3993  0.4474
  303MOL0     H40876  10.247   6.500   5.445  0.8367 -1.3126 -2.4151
  303MOL0     H40877  10.142   6.606   5.214  3.5022  3.3478 -1.9412
  303MOL0     H40878  10.088   6.647   5.378  0.4783  0.8307  0.6202
  303MOL0     H40879  10.153   6.846   5.217  1.8713  0.9090  0.6483
  303MOL0     H40880  10.316   6.791   5.245  0.0526  2.3670 -1.0133
  303MOL0     H40881  10.106   6.876   5.458  1.1911 -0.4417  4.2978
  303MOL0     H40882  10.283   6.840   5.489  0.5751  3.3555  1.6284
  303MOL0     H40883  10.270   7.069   5.516 -3.0008  0.3931  0.3145
  303MOL0     H40884  10.180   7.086   5.364  0.7256  1.1863 -0.0460
  303MOL0     H40885  10.368   7.031   5.215 -1.7995  0.4351  1.0679
  303MOL0     H40886  10.450   6.952   5.336 -0.9948 -0.3322 -1.1195
  303MOL0     H40887  10.301   6.430   4.951 -1.8670 -0.8338  4.2862
  303MOL0     H40888  10.242   6.358   4.722  3.0711 -2.7075 -3.3125
  303MOL0     H40889  10.433   6.087   4.352 -0.3935  1.7049  0.0104
  303MOL0     H40890  10.345   6.059   4.111 -4.0975  1.4522 -0.8867
  303MOL0     H40891   9.365   4.581   4.034 -0.1061  1.9408  0.8750
  303MOL0     H40892   9.283   4.417   3.866  0.3779  0.2943  1.2322
  303MOL0     H40893   9.030   4.065   3.718 -0.3212  0.8029 -0.1996
  303MOL0     H40894   8.944   3.924   3.533  0.3274 -0.4674 -0.0033
  303MOL0     H40895   8.993   3.863   3.250  0.0740  2.0673 -2.3550
  303MOL0     H40896   8.867   3.845   3.370  0.4769  2.4479  1.0481
  303MOL0     H40897   8.773   3.902   3.080  0.6600 -0.5711 -0.6373
  303MOL0     H40898   8.684   3.834   3.223  0.4272 -4.4906 -0.7492
  303MOL0     H40899   8.878   3.679   3.054  1.3519 -1.0143  0.0317
  303MOL0     H40900   8.707   3.662   3.061  1.2469  2.1345 -2.1672
  303MOL0     H40901   8.709   3.610   3.313  0.3514 -0.4493  0.5730
  303MOL0     H40902   8.890   3.619   3.295  1.5183 -1.7034 -2.0804
  303MOL0     H40903   8.784   3.245   3.142  0.0109  1.3284 -1.6733
  303MOL0     H40904   8.930   4.274   3.281 -0.9990  0.2610 -0.5155
  303MOL0     H40905   9.008   4.413   3.466  0.6910  0.0231 -2.4279
  304MOL0     O40906   4.908   2.982   7.246  0.1418  0.6738  0.3942
  304MOL0     C40907   4.883   3.080   7.181 -0.2696 -0.9647  0.1610
  304MOL0     O40908   4.983   3.183   7.154  1.2058 -0.3386 -0.3515
  304MOL0     C40909   5.098   3.187   7.226  0.9552 -0.9591 -0.8304
  304MOL0     C40910   5.209   3.237   7.158  0.1104  0.3361 -0.4496
  304MOL0     C40911   5.326   3.277   7.223  0.2094  0.0725  0.0939
  304MOL0     C40912   5.343   3.259   7.359  0.7135 -0.8055 -0.5128
  304MOL0     O40913   5.462   3.282   7.430 -0.4121  0.0210 -0.3736
  304MOL0     C40914   5.571   3.323   7.352  0.4119  0.6826 -0.6167
  304MOL0     C40915   5.672   3.359   7.462  0.4135  0.2032 -0.8824
  304MOL0     C40916   5.809   3.402   7.405  0.2091  0.2417  0.4310
  304MOL0     C40917   5.920   3.433   7.507  1.0675  0.0892  0.3024
  304MOL0     C40918   6.039   3.501   7.446 -0.3217 -1.4490 -0.9257
  304MOL0     C40919   6.127   3.546   7.556 -0.5118  0.4192  0.6278
  304MOL0     C40920   6.244   3.434   7.566  0.0452  0.6276  0.0475
  304MOL0     C40921   6.324   3.441   7.690  0.0605 -0.5659 -0.4135
  304MOL0     N40922   6.429   3.542   7.698  0.6646  0.5684  0.0618
  304MOL0     C40923   6.558   3.525   7.656 -1.1933 -0.1926  0.0932
  304MOL0     C40924   6.630   3.632   7.713 -0.8807  0.1157  0.1377
  304MOL0     C40925   6.777   3.669   7.695  0.0075  0.0883  0.0409
  304MOL0     C40926   6.841   3.735   7.811  0.0789 -0.7952 -0.9213
  304MOL0     C40927   6.990   3.742   7.809 -1.2245 -0.3765  0.0425
  304MOL0     C40928   7.057   3.837   7.706 -0.0707  0.3449  0.0095
  304MOL0     O40929   7.193   3.848   7.742  0.0009  0.3154 -0.5729
  304MOL0     C40930   7.295   3.784   7.669  0.3628  0.0784  0.5899
  304MOL0     C40931   7.281   3.683   7.564  0.1726 -0.2458  0.2866
  304MOL0     C40932   7.387   3.609   7.508 -0.5635  0.1221 -0.3074
  304MOL0     C40933   7.343   3.503   7.417 -0.2711 -0.3141  1.0543
  304MOL0     C40934   7.523   3.639   7.560  0.2617 -0.4390 -0.2298
  304MOL0     C40935   7.650   3.567   7.530  0.0871 -0.7774  0.3734
  304MOL0     O40936   7.763   3.631   7.589  0.5532 -0.1792 -0.3999
  304MOL0     C40937   7.892   3.592   7.582 -1.0312 -0.2431 -0.1527
  304MOL0     C40938   7.955   3.539   7.470 -0.3760 -0.9457  0.4046
  304MOL0     C40939   8.093   3.496   7.467  0.0635 -0.9887  0.6561
  304MOL0     C40940   8.167   3.530   7.582  0.8254 -0.3144  0.7149
  304MOL0     O40941   8.297   3.498   7.602  0.0752  0.0103 -0.0568
  304MOL0     C40942   8.376   3.441   7.506  0.4584 -0.5194 -0.7303
  304MOL0     C40943   8.516   3.491   7.537 -0.5794  0.3116 -0.0298
  304MOL0     C40944   8.593   3.427   7.652  1.2089 -0.4560  0.6582
  304MOL0     C40945   8.697   3.321   7.614 -0.2785  0.8884  0.2291
  304MOL0     C40946   8.795   3.280   7.720 -0.6368 -0.7534 -0.6322
  304MOL0     C40947   8.915   3.205   7.662 -0.7779 -0.7570  0.2282
  304MOL0     C40948   9.009   3.158   7.772 -0.6475  0.8625  0.4766
  304MOL0     C40949   9.112   3.059   7.705  0.1694 -0.4326  0.5298
  304MOL0    Cl40950   9.032   2.924   7.632 -0.3020  0.4146 -0.3423
  304MOL0     C40951   8.095   3.586   7.692 -0.8523  0.9881  0.3725
  304MOL0     C40952   7.964   3.616   7.691  0.3089 -0.5731  0.7701
  304MOL0     O40953   7.656   3.467   7.457  0.4575 -0.3612 -0.1634
  304MOL0     C40954   7.531   3.738   7.660  0.3956 -0.1008 -0.2260
  304MOL0     C40955   7.419   3.810   7.709  0.2576 -0.9336  0.9416
  304MOL0     N40956   6.534   3.708   7.777 -0.4985  0.2239  0.7438
  304MOL0     N40957   6.414   3.656   7.770  0.1510  0.3881 -0.1640
  304MOL0     C40958   5.239   3.203   7.430 -0.6991 -0.2550 -0.7059
  304MOL0     C40959   5.116   3.184   7.370  0.3346 -0.8067  0.2665
  304MOL0     C40960   4.749   3.108   7.146 -0.5349 -0.1943  1.1258
  304MOL0     C40961   4.644   3.010   7.142 -0.4541  0.5566 -0.9483
  304MOL0     C40962   4.508   3.053   7.100 -0.5021  0.5256  0.1442
  304MOL0     C40963   4.485   3.187   7.074  1.0939  0.2406 -0.1185
  304MOL0     O40964   4.360   3.234   7.025 -0.1833  0.3695 -0.0385
  304MOL0     C40965   4.241   3.147   7.030 -0.3277 -0.4540  0.0296
  304MOL0     C40966   4.117   3.227   6.999  0.8026  0.6383 -0.2871
  304MOL0     C40967   4.076   3.327   7.107 -0.4056  0.2126  0.7904
  304MOL0     C40968   3.941   3.391   7.090 -0.2106 -0.7035 -0.3952
  304MOL0     C40969   3.910   3.508   7.175 -0.2584 -1.2098  0.4406
  304MOL0     C40970   3.894   3.615   7.242  0.0982 -0.4739  0.9848
  304MOL0     C40971   4.584   3.276   7.075  1.0143  0.4686  0.3552
  304MOL0     C40972   4.717   3.240   7.109  0.8063  0.0445  0.0225
  304MOL0     H40973   5.196   3.240   7.050 -0.9336  1.0461 -0.3146
  304MOL0     H40974   5.400   3.335   7.168  0.5757 -1.0412 -0.6088
  304MOL0     H40975   5.610   3.245   7.287  4.5291  2.6190 -0.8145
  304MOL0     H40976   5.551   3.400   7.276  0.7985 -1.1457 -2.6610
  304MOL0     H40977   5.622   3.442   7.512 -4.0845 -0.5289 -3.6149
  304MOL0     H40978   5.683   3.274   7.530  3.2112  0.1502 -1.2738
  304MOL0     H40979   5.854   3.331   7.334  0.5419  1.8240 -1.0145
  304MOL0     H40980   5.803   3.498   7.352  0.0452 -1.1504 -2.2335
  304MOL0     H40981   5.872   3.506   7.573  0.9763  1.4856 -1.2457
  304MOL0     H40982   5.945   3.334   7.547 -1.2516 -1.1309 -1.0793
  304MOL0     H40983   6.085   3.446   7.364 -1.2411  0.6881 -2.9604
  304MOL0     H40984   6.016   3.598   7.400 -1.8953 -1.6107 -0.5543
  304MOL0     H40985   6.178   3.637   7.522  1.1556 -1.4316 -2.3428
  304MOL0     H40986   6.081   3.560   7.654  0.1570  1.0708  0.8576
  304MOL0     H40987   6.198   3.336   7.580 -1.1754  1.0496 -0.8158
  304MOL0     H40988   6.310   3.423   7.480  2.1831  1.4602  1.4982
  304MOL0     H40989   6.376   3.345   7.694  2.5404  0.5861 -2.4335
  304MOL0     H40990   6.262   3.447   7.780 -1.1344 -1.5116 -1.1407
  304MOL0     H40991   6.603   3.449   7.594  0.7500 -1.6052  2.9901
  304MOL0     H40992   6.823   3.574   7.667 -2.3377 -1.2811  0.5002
  304MOL0     H40993   6.792   3.734   7.608  0.5570 -0.2253 -0.0978
  304MOL0     H40994   6.809   3.682   7.901  0.0717 -0.5916 -0.8039
  304MOL0     H40995   6.812   3.838   7.832  1.5772 -0.6581  0.6473
  304MOL0     H40996   7.026   3.643   7.781 -0.9361  0.5809 -3.3607
  304MOL0     H40997   7.023   3.765   7.911 -0.2981 -1.7132  0.0612
  304MOL0     H40998   7.025   3.941   7.709 -1.9927 -0.2153  0.0738
  304MOL0     H40999   7.033   3.808   7.603 -0.9093  1.1612 -0.0376
  304MOL0     H41000   7.178   3.661   7.537  1.3865 -2.8994 -2.8424
  304MOL0     H41001   7.239   3.470   7.418  0.0000 -2.2600 -4.3395
  304MOL0     H41002   7.366   3.528   7.313 -1.3013  0.4350  0.9900
  304MOL0     H41003   7.412   3.423   7.444  0.4633 -0.4312 -1.0061
  304MOL0     H41004   7.890   3.528   7.384 -1.5166 -0.5375  1.1920
  304MOL0     H41005   8.152   3.445   7.391  1.2852  0.9676  0.2034
  304MOL0     H41006   8.382   3.332   7.513  1.2057 -0.4061  1.0757
  304MOL0     H41007   8.362   3.474   7.403 -2.2320 -0.9994 -0.5943
  304MOL0     H41008   8.578   3.483   7.447 -0.8618 -1.7208 -0.0846
  304MOL0     H41009   8.507   3.598   7.559 -4.6009 -0.5768  4.2661
  304MOL0     H41010   8.523   3.388   7.727  0.1713  0.7108  0.3283
  304MOL0     H41011   8.639   3.513   7.701  2.3771 -0.8134  0.2084
  304MOL0     H41012   8.660   3.232   7.563  1.8450  0.0466  0.0745
  304MOL0     H41013   8.755   3.370   7.535  2.2772 -0.8972  0.8718
  304MOL0     H41014   8.737   3.217   7.788  0.1412  1.5949  2.4248
  304MOL0     H41015   8.842   3.355   7.783  0.4973 -2.9839  1.3186
  304MOL0     H41016   8.875   3.125   7.599 -2.0299  0.1486 -0.1636
  304MOL0     H41017   8.971   3.264   7.589 -0.3043 -0.7044  0.6254
  304MOL0     H41018   8.963   3.094   7.848  1.1100  1.1961  1.8964
  304MOL0     H41019   9.054   3.242   7.827 -2.5734  0.0096  3.6220
  304MOL0     H41020   9.187   3.034   7.781  1.1941 -0.7273 -0.5604
  304MOL0     H41021   9.175   3.119   7.639 -2.5188  3.4935  1.1678
  304MOL0     H41022   8.143   3.589   7.790 -2.2044 -2.3241  1.2767
  304MOL0     H41023   7.916   3.662   7.777  0.9666  2.2044 -0.2574
  304MOL0     H41024   7.623   3.777   7.702 -0.5195  1.3755  0.4815
  304MOL0     H41025   7.439   3.891   7.778  2.4830  0.2894 -0.9947
  304MOL0     H41026   5.258   3.190   7.537  4.5541  3.1117 -0.8956
  304MOL0     H41027   5.024   3.176   7.428 -1.2026 -0.2022 -1.9841
  304MOL0     H41028   4.681   2.911   7.165  0.0947  1.3845  2.2200
  304MOL0     H41029   4.440   2.968   7.103  2.7012 -2.5084 -3.0247
  304MOL0     H41030   4.249   3.056   6.969 -2.8795 -1.7131  1.4158
  304MOL0     H41031   4.227   3.111   7.132  2.8033  1.5854  1.3446
  304MOL0     H41032   4.029   3.162   6.995 -1.0057  2.4905  3.6407
  304MOL0     H41033   4.130   3.280   6.904  0.1475 -0.2573 -0.8963
  304MOL0     H41034   4.145   3.411   7.109  0.7349 -0.6006 -1.1870
  304MOL0     H41035   4.082   3.287   7.209 -0.5797 -0.5659  0.5095
  304MOL0     H41036   3.858   3.320   7.092  0.7704 -2.0234 -2.5921
  304MOL0     H41037   3.953   3.429   6.989  2.4853 -1.1806 -0.3411
  304MOL0     H41038   3.869   3.706   7.293 -0.2927  1.0085 -1.6332
  304MOL0     H41039   4.545   3.375   7.049 -0.8509  0.1287  1.6229
  304MOL0     H41040   4.793   3.317   7.105 -0.9052  1.7893 -0.8293
  305MOL0     O41041   8.244   1.749  10.659 -0.3697  0.3989  0.0279
  305MOL0     C41042   8.319   1.847  10.685  1.7560  0.8892 -0.5279
  305MOL0     O41043   8.330   1.953  10.601 -0.1349  0.6548  0.0790
  305MOL0     C41044   8.308   1.963  10.464 -0.1925 -0.0825 -0.2091
  305MOL0     C41045   8.348   2.086  10.399  1.1668 -0.0804 -0.3593
  305MOL0     C41046   8.309   2.096  10.258 -0.4598 -0.0251  0.4579
  305MOL0     C41047   8.275   1.986  10.182  0.4552 -0.7158 -0.2129
  305MOL0     O41048   8.251   2.015  10.054  0.1443 -0.8164 -0.9700
  305MOL0     C41049   8.240   1.911   9.959  0.0467  0.3754 -1.0450
  305MOL0     C41050   8.100   1.855   9.946  0.1177 -0.0219  0.8704
  305MOL0     C41051   8.001   1.943   9.871 -0.2881 -0.1582 -0.0123
  305MOL0     C41052   7.980   2.077   9.941  0.5496  0.5154  0.1591
  305MOL0     C41053   7.866   2.149   9.874  1.5280 -0.8480  0.3899
  305MOL0     C41054   7.826   2.293   9.915  0.0718 -0.0079 -0.1331
  305MOL0     C41055   7.704   2.351   9.841 -0.2343 -0.2854 -0.2084
  305MOL0     C41056   7.651   2.473   9.924  0.2272  0.6463  0.1087
  305MOL0     N41057   7.730   2.598   9.911 -0.2989 -0.4908  0.3718
  305MOL0     C41058   7.766   2.672   9.799 -0.1793 -0.0750 -0.4491
  305MOL0     C41059   7.869   2.750   9.846  0.1468 -0.3323  0.6504
  305MOL0     C41060   7.950   2.833   9.752 -0.0612 -0.4719  0.2117
  305MOL0     C41061   7.914   2.983   9.752  1.3078 -0.3180  0.2063
  305MOL0     C41062   8.030   3.072   9.791 -0.3146  0.3647 -0.9653
  305MOL0     C41063   7.990   3.218   9.770  0.5372  0.7594 -0.7197
  305MOL0     O41064   7.908   3.259   9.881 -0.0390  0.4293  0.2822
  305MOL0     C41065   7.965   3.311   9.995 -0.0215  1.1860 -0.1094
  305MOL0     C41066   7.899   3.402  10.073  0.5071 -0.0120  0.3015
  305MOL0     C41067   7.942   3.440  10.199  0.0078  0.6098 -0.2077
  305MOL0     C41068   7.842   3.531  10.276 -0.3306 -0.0862 -0.2854
  305MOL0     C41069   8.067   3.393  10.253  0.1949 -0.1014 -0.1837
  305MOL0     C41070   8.115   3.426  10.386 -0.1920 -0.2993 -0.0655
  305MOL0     O41071   8.245   3.374  10.418 -0.6521 -0.9204  0.1998
  305MOL0     C41072   8.277   3.402  10.545  0.0275  0.7280 -0.2056
  305MOL0     C41073   8.364   3.503  10.586  0.1244 -0.9040  0.3733
  305MOL0     C41074   8.408   3.497  10.719  0.6773  0.5120 -0.6725
  305MOL0     C41075   8.361   3.404  10.816  0.7240 -0.7676  0.7281
  305MOL0     O41076   8.408   3.405  10.941  0.2543 -0.0509 -0.2006
  305MOL0     C41077   8.373   3.516  11.026 -0.0005  0.2578 -0.3226
  305MOL0     C41078   8.368   3.477  11.167  0.7657  0.0942 -0.1828
  305MOL0     C41079   8.287   3.340  11.174 -1.5341  0.6201 -0.2939
  305MOL0     C41080   8.306   3.289  11.319  0.0378 -0.4750 -0.5084
  305MOL0     C41081   8.266   3.383  11.442  0.0566 -0.0277 -0.5396
  305MOL0     C41082   8.321   3.341  11.577 -0.0296 -1.6593  0.0981
  305MOL0     C41083   8.292   3.463  11.674 -0.7696  0.6670 -0.3591
  305MOL0     C41084   8.328   3.428  11.819  0.3673  0.4864 -0.1589
  305MOL0    Cl41085   8.507   3.426  11.801 -0.1090  0.2453  0.7495
  305MOL0     C41086   8.294   3.295  10.763  0.2951  0.2089  0.2173
  305MOL0     C41087   8.249   3.294  10.631 -0.2731 -0.0690  0.1480
  305MOL0     O41088   8.055   3.505  10.462 -0.9781 -0.7917 -0.1216
  305MOL0     C41089   8.146   3.315  10.171  0.2950  0.0863  0.7105
  305MOL0     C41090   8.094   3.270  10.044  0.5132 -1.0091  0.7856
  305MOL0     N41091   7.879   2.741   9.981 -0.3448 -0.1921 -0.1586
  305MOL0     N41092   7.803   2.645  10.016  0.0491  0.1952  0.6931
  305MOL0     C41093   8.269   1.862  10.238  1.0116  0.1197  0.0512
  305MOL0     C41094   8.279   1.853  10.377 -0.1966 -0.0858  0.2039
  305MOL0     C41095   8.373   1.850  10.815  0.7424 -0.4667 -0.0901
  305MOL0     C41096   8.434   1.971  10.853  0.0372 -0.5817 -0.5921
  305MOL0     C41097   8.488   1.985  10.976 -0.1538  0.9166 -0.1558
  305MOL0     C41098   8.476   1.886  11.070 -0.2295  0.5934 -0.3244
  305MOL0     O41099   8.559   1.894  11.181  0.6680 -0.0255 -0.4828
  305MOL0     C41100   8.501   1.841  11.309  0.1639 -0.6758  0.4308
  305MOL0     C41101   8.567   1.903  11.435  0.0899  0.1722  0.1107
  305MOL0     C41102   8.719   1.881  11.425 -0.4964  0.1650  0.4172
  305MOL0     C41103   8.788   1.968  11.529 -0.2947 -0.1712 -0.4509
  305MOL0     C41104   8.769   2.111  11.503 -0.7239  0.2504 -0.7767
  305MOL0     C41105   8.752   2.229  11.492 -0.4229  0.6126  0.1645
  305MOL0     C41106   8.418   1.758  11.038  0.8197  0.0699  0.0887
  305MOL0     C41107   8.357   1.745  10.911 -0.0900  0.3743 -0.6007
  305MOL0     H41108   8.392   2.160  10.465  3.0066  0.4001 -2.0549
  305MOL0     H41109   8.306   2.198  10.221 -2.4823 -0.2716 -0.1658
  305MOL0     H41110   8.263   1.960   9.864 -0.4411  0.2345 -1.2405
  305MOL0     H41111   8.319   1.840   9.983 -0.0520  0.9442  1.2398
  305MOL0     H41112   8.076   1.762   9.893 -4.8973  1.2943  0.3179
  305MOL0     H41113   8.063   1.845  10.049  2.7883 -0.6626  1.8597
  305MOL0     H41114   8.029   1.943   9.765  2.0110  0.2034  0.5522
  305MOL0     H41115   7.907   1.887   9.875 -0.0862 -0.4265  1.4855
  305MOL0     H41116   7.961   2.072  10.049  0.8467  3.5384  0.4430
  305MOL0     H41117   8.067   2.141   9.925 -0.0375  0.7016 -2.7297
  305MOL0     H41118   7.885   2.154   9.766 -0.5108 -0.9742 -0.0133
  305MOL0     H41119   7.774   2.089   9.878 -0.1990  1.4842 -1.7292
  305MOL0     H41120   7.800   2.299  10.022 -5.6706  1.6125 -1.2503
  305MOL0     H41121   7.900   2.368   9.888 -1.3839  2.5899  2.4654
  305MOL0     H41122   7.727   2.383   9.739 -1.4296  0.4016 -0.2799
  305MOL0     H41123   7.631   2.269   9.837  2.0750 -2.5094  0.6519
  305MOL0     H41124   7.650   2.443  10.029  3.0292  1.1015  0.3256
  305MOL0     H41125   7.548   2.482   9.888 -0.1465 -2.3820  0.1402
  305MOL0     H41126   7.733   2.662   9.696  0.3730  2.0897 -0.9008
  305MOL0     H41127   8.051   2.833   9.795  0.4822 -1.5963 -0.9775
  305MOL0     H41128   7.956   2.790   9.651 -1.1124  0.1064 -0.1118
  305MOL0     H41129   7.837   3.001   9.828  0.3530 -2.4011 -0.2040
  305MOL0     H41130   7.881   3.007   9.651  2.2231 -1.6090 -0.4208
  305MOL0     H41131   8.110   3.040   9.723  0.3661  1.5017 -0.7225
  305MOL0     H41132   8.048   3.043   9.895  2.3684  0.2768 -1.3634
  305MOL0     H41133   7.937   3.231   9.675 -4.0927  0.2166  1.5490
  305MOL0     H41134   8.066   3.296   9.755  1.0180 -0.0825 -3.0934
  305MOL0     H41135   7.799   3.429  10.040  0.9977  0.9281 -0.4515
  305MOL0     H41136   7.811   3.501  10.377 -0.9655 -2.6909 -1.1530
  305MOL0     H41137   7.877   3.634  10.269 -1.2701  0.2123 -0.7849
  305MOL0     H41138   7.748   3.538  10.220 -0.2935  1.1439 -0.1999
  305MOL0     H41139   8.404   3.567  10.507  2.5988 -1.2348  1.2676
  305MOL0     H41140   8.473   3.578  10.750  1.4635 -0.5348  0.5151
  305MOL0     H41141   8.455   3.588  11.010  2.1509 -1.6695  1.4344
  305MOL0     H41142   8.273   3.542  10.991 -0.3255 -2.8106 -2.0097
  305MOL0     H41143   8.473   3.476  11.199  1.1773 -1.2562 -1.4915
  305MOL0     H41144   8.320   3.555  11.227 -0.2470 -1.8513  1.6499
  305MOL0     H41145   8.337   3.266  11.111  0.0046  1.8533 -0.6007
  305MOL0     H41146   8.181   3.354  11.153 -1.9126 -0.7756  0.5281
  305MOL0     H41147   8.257   3.195  11.344 -0.4093  0.4546  2.5439
  305MOL0     H41148   8.414   3.288  11.333  0.1988 -2.7128 -1.4765
  305MOL0     H41149   8.157   3.378  11.447 -0.1517  3.1390  3.3683
  305MOL0     H41150   8.309   3.482  11.426  2.1279 -1.3732 -4.8194
  305MOL0     H41151   8.273   3.246  11.603  0.2800 -1.2466  2.3914
  305MOL0     H41152   8.429   3.321  11.582  0.1325 -0.6026  1.2586
  305MOL0     H41153   8.189   3.499  11.669 -0.5700  1.1095 -1.6701
  305MOL0     H41154   8.352   3.549  11.643 -2.7165  1.4901 -2.0481
  305MOL0     H41155   8.277   3.335  11.847 -0.4843  0.8726 -0.3665
  305MOL0     H41156   8.292   3.509  11.883 -0.9287  1.9889 -2.6305
  305MOL0     H41157   8.254   3.216  10.826  0.2205  0.3187  0.3090
  305MOL0     H41158   8.190   3.210  10.598 -3.2516  2.1552 -0.6697
  305MOL0     H41159   8.249   3.309  10.207  0.8709  1.8762 -0.5109
  305MOL0     H41160   8.163   3.201   9.994  0.9303 -1.2694  1.6927
  305MOL0     H41161   8.252   1.775  10.175 -0.1950  0.5321 -0.2269
  305MOL0     H41162   8.266   1.752  10.415  3.2166 -1.0874 -0.9065
  305MOL0     H41163   8.437   2.064  10.797 -3.6737  1.2812  1.8758
  305MOL0     H41164   8.546   2.074  10.999 -4.0217  3.5444  0.4360
  305MOL0     H41165   8.392   1.849  11.315  0.1864 -1.2275  2.4515
  305MOL0     H41166   8.523   1.733  11.310  1.2740 -0.4864  2.2351
  305MOL0     H41167   8.537   1.841  11.521  0.2966 -0.9150 -0.5843
  305MOL0     H41168   8.544   2.008  11.452  2.1149  0.3471  2.3766
  305MOL0     H41169   8.753   1.922  11.330 -0.2113  1.9984  1.2740
  305MOL0     H41170   8.751   1.778  11.446  0.7292  0.6415  1.0264
  305MOL0     H41171   8.897   1.970  11.525 -0.1246  3.1717  1.6453
  305MOL0     H41172   8.757   1.949  11.633 -1.5758  0.3137 -0.7233
  305MOL0     H41173   8.735   2.334  11.484 -0.9088  0.4594 -1.0551
  305MOL0     H41174   8.423   1.677  11.110  1.0626  1.4307  1.6568
  305MOL0     H41175   8.313   1.649  10.888  1.3186 -0.1823 -1.0780
  306MOL0     O41176  11.188   0.381   7.900 -0.1039 -0.3413  0.0247
  306MOL0     C41177  11.260   0.352   7.800 -1.0920 -0.0228  0.0589
  306MOL0     O41178  11.223   0.306   7.678  0.9876  0.0660  0.4347
  306MOL0     C41179  11.084   0.286   7.663  0.3181  0.7302 -0.2098
  306MOL0     C41180  11.034   0.337   7.542 -0.8683 -0.2406  1.1834
  306MOL0     C41181  10.894   0.304   7.516  0.1458  0.6431  0.4333
  306MOL0     C41182  10.819   0.219   7.586  0.5059  1.0543 -1.0729
  306MOL0     O41183  10.690   0.185   7.539 -0.2218 -0.6003 -0.7827
  306MOL0     C41184  10.590   0.163   7.639  0.0100  0.1230  0.3582
  306MOL0     C41185  10.458   0.160   7.579 -0.2968  0.4131  0.1462
  306MOL0     C41186  10.430   0.291   7.498  1.2001  0.3856  0.7379
  306MOL0     C41187  10.282   0.272   7.447 -0.8347 -0.2354 -0.2709
  306MOL0     C41188  10.242   0.393   7.373  0.4793 -0.3483  0.4275
  306MOL0     C41189  10.208   0.510   7.453  1.0847  0.3669 -0.1550
  306MOL0     C41190  10.134   0.609   7.356  0.1504 -0.0601 -0.8990
  306MOL0     C41191  10.208   0.662   7.231  0.9652 -0.5516 -0.2165
  306MOL0     N41192  10.107   0.702   7.135 -0.4449  0.0749  0.2542
  306MOL0     C41193  10.016   0.804   7.150  0.7509 -0.3793  0.6453
  306MOL0     C41194   9.948   0.792   7.030 -0.3642  0.5370 -0.4154
  306MOL0     C41195   9.833   0.876   6.987  0.0247 -0.0470  0.0927
  306MOL0     C41196   9.692   0.813   7.010 -0.0324 -0.6062 -0.1139
  306MOL0     C41197   9.582   0.897   6.963 -0.5932 -0.5690  0.3344
  306MOL0     C41198   9.441   0.822   6.966  0.9814 -0.4115  0.5474
  306MOL0     O41199   9.345   0.907   6.898 -0.7135 -0.2812  0.2749
  306MOL0     C41200   9.229   0.851   6.856 -0.1644 -0.2009  0.5613
  306MOL0     C41201   9.166   0.903   6.741 -0.1472  0.1504 -0.2701
  306MOL0     C41202   9.047   0.855   6.684  0.2635  0.4969 -0.0134
  306MOL0     C41203   8.990   0.925   6.549 -0.0869  0.3506  0.4429
  306MOL0     C41204   8.994   0.728   6.732 -0.0096  0.2135  0.1551
  306MOL0     C41205   8.884   0.650   6.673  0.1989  0.9970  0.7771
  306MOL0     O41206   8.828   0.553   6.745 -0.1940 -0.2498  0.8676
  306MOL0     C41207   8.712   0.494   6.693 -0.0823  0.1782  0.5782
  306MOL0     C41208   8.600   0.566   6.653 -0.2480  0.4901  0.2284
  306MOL0     C41209   8.484   0.499   6.630 -0.1098  0.5555  0.3285
  306MOL0     C41210   8.479   0.356   6.616 -0.1240 -0.5524  0.2083
  306MOL0     O41211   8.367   0.290   6.584 -0.9276  0.2389 -0.5946
  306MOL0     C41212   8.260   0.361   6.517 -1.1449 -0.0766 -0.1665
  306MOL0     C41213   8.289   0.413   6.372 -0.1360  0.0719  0.1850
  306MOL0     C41214   8.362   0.305   6.287 -0.5254  0.5672  0.5247
  306MOL0     C41215   8.355   0.348   6.142 -0.3480  0.0932  0.4223
  306MOL0     C41216   8.415   0.236   6.041 -0.0558 -0.2170  0.2853
  306MOL0     C41217   8.452   0.292   5.901 -0.1881  0.0945  0.1758
  306MOL0     C41218   8.575   0.219   5.846  0.4343 -0.4122 -0.3514
  306MOL0     C41219   8.575   0.220   5.693 -0.2924 -0.8532 -0.4341
  306MOL0    Cl41220   8.547   0.379   5.628  0.2115 -0.4102  0.3522
  306MOL0     C41221   8.596   0.293   6.648 -0.1619 -0.8177  0.6722
  306MOL0     C41222   8.719   0.353   6.676  0.5558 -0.0434 -0.7316
  306MOL0     O41223   8.863   0.671   6.550  0.0137  0.2655 -0.3523
  306MOL0     C41224   9.072   0.663   6.829 -0.7940  0.1379 -0.0332
  306MOL0     C41225   9.185   0.727   6.897 -0.1774 -0.6153  0.2636
  306MOL0     N41226   9.988   0.685   6.956  0.2209  0.0435 -0.1759
  306MOL0     N41227  10.082   0.623   7.024 -0.0392 -0.8839 -0.1059
  306MOL0     C41228  10.881   0.166   7.700  0.7100 -0.6277 -0.8098
  306MOL0     C41229  11.011   0.200   7.742 -0.0568  0.0533 -0.2057
  306MOL0     C41230  11.405   0.353   7.834  0.3523 -0.8499 -0.7664
  306MOL0     C41231  11.448   0.365   7.973  0.0998 -0.4026 -0.0825
  306MOL0     C41232  11.577   0.341   8.005 -1.1382  1.0707  0.3453
  306MOL0     C41233  11.675   0.324   7.908 -0.2723 -1.3792 -0.4956
  306MOL0     O41234  11.811   0.319   7.955 -0.3104  0.8055 -0.3784
  306MOL0     C41235  11.896   0.389   7.876 -0.3517  0.9870  0.9921
  306MOL0     C41236  12.046   0.389   7.922  0.5479 -0.2394  0.0865
  306MOL0     C41237  12.064   0.456   8.059 -0.0109  0.8129  1.0715
  306MOL0     C41238  12.022   0.366   8.181 -0.4668 -0.0654  0.0589
  306MOL0     C41239  12.050   0.441   8.311 -0.0474  0.6746  0.1464
  306MOL0     C41240  12.078   0.494   8.419  0.3584 -0.7147  0.4270
  306MOL0     C41241  11.639   0.344   7.777  0.6728 -1.2152  0.5074
  306MOL0     C41242  11.507   0.360   7.740 -0.1750 -0.8933 -1.1267
  306MOL0     H41243  11.104   0.401   7.489 -2.2318  1.4588  1.3563
  306MOL0     H41244  10.845   0.346   7.428  1.2157  0.1241 -0.4387
  306MOL0     H41245  10.611   0.072   7.695  1.9541 -0.0316 -0.5676
  306MOL0     H41246  10.589   0.253   7.701  0.3394  1.9034 -2.0575
  306MOL0     H41247  10.462   0.073   7.514 -2.9528  0.3334 -0.0179
  306MOL0     H41248  10.378   0.129   7.647  1.7473 -0.8515  2.1101
  306MOL0     H41249  10.426   0.385   7.555 -2.9674 -0.8430  2.9148
  306MOL0     H41250  10.497   0.305   7.413  0.1457  0.1240 -0.1650
  306MOL0     H41251  10.255   0.186   7.386 -3.3849 -0.6442  1.2775
  306MOL0     H41252  10.219   0.258   7.535 -0.3921 -0.0334  0.0829
  306MOL0     H41253  10.332   0.415   7.316 -1.7519 -0.3195 -3.4020
  306MOL0     H41254  10.159   0.372   7.305  1.8073 -2.7132 -0.5639
  306MOL0     H41255  10.144   0.478   7.536  1.6531  0.9474  0.5222
  306MOL0     H41256  10.300   0.557   7.488  0.4988 -0.4131  2.6317
  306MOL0     H41257  10.030   0.585   7.330  0.1821  1.1041 -2.1631
  306MOL0     H41258  10.126   0.697   7.420  1.5375 -1.7999  1.8551
  306MOL0     H41259  10.265   0.587   7.175 -0.3894 -0.6019 -1.5910
  306MOL0     H41260  10.267   0.752   7.251 -1.5544  2.2449 -4.0544
  306MOL0     H41261   9.989   0.881   7.222  0.9238  0.2867  0.0051
  306MOL0     H41262   9.854   0.971   7.037 -2.6736  0.0112  1.2818
  306MOL0     H41263   9.845   0.884   6.878  0.4070 -1.2692  0.0270
  306MOL0     H41264   9.681   0.792   7.117 -2.1189 -3.0461 -0.7062
  306MOL0     H41265   9.681   0.721   6.953  1.6573 -1.3691  0.7089
  306MOL0     H41266   9.600   0.953   6.871  1.0130  1.2543  1.6734
  306MOL0     H41267   9.577   0.980   7.034 -0.8246  2.9834 -3.4496
  306MOL0     H41268   9.407   0.817   7.070 -3.0865  3.0366 -0.3418
  306MOL0     H41269   9.449   0.724   6.917  1.1980  0.6334 -1.6391
  306MOL0     H41270   9.211   0.989   6.691  1.0911  0.4252  1.2459
  306MOL0     H41271   9.045   1.017   6.529  1.0229 -0.0017  1.6840
  306MOL0     H41272   9.007   0.847   6.474  1.6834 -1.4163  2.5189
  306MOL0     H41273   8.885   0.945   6.567 -0.7961 -1.7721 -0.9017
  306MOL0     H41274   8.591   0.674   6.648  1.7449  0.6414 -1.6795
  306MOL0     H41275   8.400   0.563   6.604  1.4095  2.6805  0.3737
  306MOL0     H41276   8.168   0.304   6.502 -1.3513  0.7334 -2.2929
  306MOL0     H41277   8.235   0.451   6.574  1.6162  0.3945  0.4374
  306MOL0     H41278   8.191   0.433   6.328  0.3972  1.4699 -0.4382
  306MOL0     H41279   8.348   0.504   6.358 -2.1044  1.1422 -1.6770
  306MOL0     H41280   8.308   0.210   6.288  0.0587  0.2331  0.5319
  306MOL0     H41281   8.464   0.293   6.325 -0.8818 -2.4469  0.7629
  306MOL0     H41282   8.254   0.377   6.111  0.1303  0.0554 -1.2844
  306MOL0     H41283   8.418   0.436   6.135  1.4853 -1.1587  0.4809
  306MOL0     H41284   8.348   0.150   6.032  1.8616 -1.7171 -0.3401
  306MOL0     H41285   8.509   0.211   6.089 -1.2301 -0.5855  2.5134
  306MOL0     H41286   8.363   0.274   5.840  0.5385 -1.0828 -0.5829
  306MOL0     H41287   8.481   0.398   5.903  3.6770 -0.8063  1.8137
  306MOL0     H41288   8.586   0.116   5.881  1.8144 -0.3431 -0.5289
  306MOL0     H41289   8.668   0.258   5.887 -0.1805 -0.7169  1.4181
  306MOL0     H41290   8.498   0.151   5.659 -2.5277  0.4959  1.5947
  306MOL0     H41291   8.670   0.183   5.652 -0.1321 -2.2515  1.1014
  306MOL0     H41292   8.602   0.185   6.645  1.6713 -0.8238  2.2339
  306MOL0     H41293   8.811   0.297   6.691 -0.8047 -2.2617 -0.1193
  306MOL0     H41294   9.032   0.569   6.867 -2.0270 -0.0722 -1.7572
  306MOL0     H41295   9.249   0.666   6.960 -0.8167 -0.2379  1.2984
  306MOL0     H41296  10.821   0.093   7.753  2.0371 -2.1542 -1.3199
  306MOL0     H41297  11.039   0.157   7.838 -3.2176  0.0386  0.8148
  306MOL0     H41298  11.375   0.384   8.051  0.5721 -0.8883  0.4916
  306MOL0     H41299  11.614   0.358   8.106 -0.6068 -0.3757  0.4202
  306MOL0     H41300  11.895   0.349   7.774  2.6118 -0.4724  1.4046
  306MOL0     H41301  11.874   0.494   7.858 -1.2087  0.5111 -1.0052
  306MOL0     H41302  12.111   0.443   7.853  0.8383 -0.9437 -0.2094
  306MOL0     H41303  12.080   0.285   7.916 -0.4464 -0.7022  1.8293
  306MOL0     H41304  11.993   0.539   8.059 -1.9430 -0.6230 -2.4349
  306MOL0     H41305  12.168   0.487   8.069  0.3347 -0.2428  0.9253
  306MOL0     H41306  12.079   0.273   8.180  1.7020  1.1851  0.7317
  306MOL0     H41307  11.913   0.358   8.180 -0.6365  0.7551  3.0882
  306MOL0     H41308  12.100   0.534   8.516  0.7309  0.5174 -0.1390
  306MOL0     H41309  11.698   0.315   7.691 -0.0550 -2.3543  0.3596
  306MOL0     H41310  11.479   0.375   7.636  0.0501 -1.7712 -1.3275
  307MOL0     O41311   8.695  10.024   7.057 -0.6743 -0.0004  0.5124
  307MOL0     C41312   8.670   9.929   6.979  0.2581 -0.7356  0.3974
  307MOL0     O41313   8.615   9.945   6.852 -0.3472  0.4705  0.2502
  307MOL0     C41314   8.620  10.064   6.790  0.3519  0.5542  0.1683
  307MOL0     C41315   8.509  10.150   6.782 -0.7583  0.2571 -0.0755
  307MOL0     C41316   8.511  10.252   6.691  0.4872 -0.4542  1.3282
  307MOL0     C41317   8.626  10.289   6.619  0.4005  0.4992 -1.0163
  307MOL0     O41318   8.625  10.408   6.550 -0.5733 -0.2134 -0.2261
  307MOL0     C41319   8.527  10.407   6.442  0.0447 -0.4443 -0.2989
  307MOL0     C41320   8.599  10.484   6.326 -0.3951 -0.1615  0.2252
  307MOL0     C41321   8.743  10.432   6.295  1.1997 -0.5395 -0.5977
  307MOL0     C41322   8.804  10.500   6.170  0.6342 -0.1903  0.1471
  307MOL0     C41323   8.954  10.478   6.158  0.4194 -0.3782  0.9466
  307MOL0     C41324   9.012  10.533   6.034 -0.4880 -0.4879 -0.2063
  307MOL0     C41325   9.164  10.496   6.022  0.9610 -0.0619  0.1243
  307MOL0     C41326   9.239  10.544   5.902 -0.1625 -0.4752 -1.4621
  307MOL0     N41327   9.203  10.470   5.775  0.4828 -0.2717 -0.5385
  307MOL0     C41328   9.120  10.363   5.758 -0.5944  0.4810 -0.0494
  307MOL0     C41329   9.154  10.323   5.633 -0.2759  0.3017  0.3829
  307MOL0     C41330   9.077  10.212   5.560  0.7099 -0.2284  0.6257
  307MOL0     C41331   8.999  10.112   5.647 -0.6571 -1.0629 -0.4047
  307MOL0     C41332   8.963   9.972   5.583  0.3987  0.3039  0.1353
  307MOL0     C41333   8.904   9.887   5.693  0.2758 -1.5334 -0.4527
  307MOL0     O41334   8.897   9.761   5.638 -0.2806 -0.5384  0.2887
  307MOL0     C41335   8.855   9.655   5.712  0.8440  0.0884 -0.0221
  307MOL0     C41336   8.769   9.670   5.824 -0.3858 -0.4450 -0.7853
  307MOL0     C41337   8.734   9.553   5.898 -0.5593 -0.0476 -0.5949
  307MOL0     C41338   8.663   9.559   6.039  0.0379  0.2675  0.2798
  307MOL0     C41339   8.760   9.425   5.845  0.4466  0.3054 -0.0661
  307MOL0     C41340   8.725   9.289   5.900  0.3580 -0.4270 -0.0220
  307MOL0     O41341   8.786   9.177   5.847 -0.3880  0.5538  0.7711
  307MOL0     C41342   8.749   9.058   5.903  0.9822  0.5105 -0.3921
  307MOL0     C41343   8.828   8.994   5.997 -0.6983 -0.0768 -1.0615
  307MOL0     C41344   8.789   8.880   6.061  0.2229 -0.0104 -0.1553
  307MOL0     C41345   8.658   8.827   6.043  1.5909 -0.1893 -0.6257
  307MOL0     O41346   8.600   8.723   6.115  0.7034 -1.2348  0.7629
  307MOL0     C41347   8.636   8.677   6.246  0.3357 -1.1327  0.1687
  307MOL0     C41348   8.639   8.797   6.337  0.2584  0.3995  0.7669
  307MOL0     C41349   8.661   8.757   6.479 -0.6107  0.8670  0.2783
  307MOL0     C41350   8.780   8.665   6.516  0.8518  0.3250  0.1693
  307MOL0     C41351   8.768   8.628   6.668 -0.4356 -0.2118 -0.2344
  307MOL0     C41352   8.888   8.552   6.725  0.3154 -0.4718  0.9282
  307MOL0     C41353   8.942   8.427   6.649  0.4996 -0.0144  0.2377
  307MOL0     C41354   8.832   8.312   6.639 -0.9404  0.5442  0.4991
  307MOL0    Cl41355   8.763   8.281   6.805  0.4991  0.4724 -0.0857
  307MOL0     C41356   8.584   8.887   5.934 -0.4780  0.8739  0.0451
  307MOL0     C41357   8.628   9.007   5.874 -0.3153  0.1971  0.6505
  307MOL0     O41358   8.635   9.290   5.982 -0.2406 -0.7402 -0.1933
  307MOL0     C41359   8.847   9.414   5.731  0.3964 -0.7275  0.0787
  307MOL0     C41360   8.887   9.527   5.668  0.8710 -0.1413  0.6901
  307MOL0     N41361   9.242  10.407   5.573  0.5154 -0.0873  0.7530
  307MOL0     N41362   9.268  10.502   5.667  0.4657  0.2082  0.5098
  307MOL0     C41363   8.738  10.207   6.627 -0.1425 -0.3061 -0.8873
  307MOL0     C41364   8.739  10.103   6.716  0.4243 -0.4421  0.4846
  307MOL0     C41365   8.703   9.792   7.035 -0.3522  0.0572  0.4191
  307MOL0     C41366   8.687   9.685   6.941 -0.9762  0.1723  0.3854
  307MOL0     C41367   8.720   9.558   6.986 -0.0512  0.2868 -0.0539
  307MOL0     C41368   8.739   9.530   7.116  0.7804  0.1960 -0.5368
  307MOL0     O41369   8.761   9.398   7.144 -0.2192  0.1506 -0.0767
  307MOL0     C41370   8.647   9.342   7.218 -0.3966 -0.4861  0.4794
  307MOL0     C41371   8.671   9.194   7.250 -0.4690 -0.6079 -0.0724
  307MOL0     C41372   8.762   9.168   7.374 -0.7692  0.0312 -0.5468
  307MOL0     C41373   8.808   9.018   7.391  1.0389  0.0139 -0.2072
  307MOL0     C41374   8.871   8.991   7.516  0.0660 -0.2735  0.3518
  307MOL0     C41375   8.917   8.962   7.624  0.2429 -0.3825 -0.4101
  307MOL0     C41376   8.760   9.638   7.207 -0.0535  0.7111  0.2871
  307MOL0     C41377   8.752   9.777   7.164  0.2294  0.2731  0.3040
  307MOL0     H41378   8.428  10.122   6.848  0.4168 -3.0688  0.1401
  307MOL0     H41379   8.430  10.322   6.675  1.6441  0.9388  1.2827
  307MOL0     H41380   8.497  10.306   6.411 -0.0764 -0.0748 -1.4433
  307MOL0     H41381   8.436  10.463   6.465  0.6090  1.4610 -2.3336
  307MOL0     H41382   8.531  10.467   6.242 -1.3031 -0.6480  1.0355
  307MOL0     H41383   8.604  10.588   6.358  4.6904  0.1120 -0.6607
  307MOL0     H41384   8.814  10.461   6.373  1.9409 -0.3444 -1.3238
  307MOL0     H41385   8.756  10.324   6.286  3.7549 -0.2250 -1.7279
  307MOL0     H41386   8.759  10.451   6.083 -1.8211 -0.8119  1.6586
  307MOL0     H41387   8.776  10.605   6.176  0.9184 -0.0441 -0.8573
  307MOL0     H41388   9.004  10.522   6.245 -0.6494  1.8845  0.4942
  307MOL0     H41389   8.965  10.370   6.151 -0.7244 -0.4288 -4.2885
  307MOL0     H41390   8.959  10.495   5.946 -0.9857  0.1653 -0.1945
  307MOL0     H41391   9.014  10.641   6.018 -0.5685 -0.7815 -2.5213
  307MOL0     H41392   9.200  10.536   6.118 -2.7180  0.7065  1.3633
  307MOL0     H41393   9.167  10.387   6.015  2.2896  0.0572 -1.9381
  307MOL0     H41394   9.345  10.532   5.925  0.1914 -2.6549 -3.7098
  307MOL0     H41395   9.225  10.652   5.889  1.8008  0.1098  0.6938
  307MOL0     H41396   9.053  10.315   5.830  1.6036  1.8668  3.1509
  307MOL0     H41397   9.012  10.249   5.480 -1.8327 -0.0152  2.6501
  307MOL0     H41398   9.155  10.148   5.517  1.5307  0.8395  0.4848
  307MOL0     H41399   8.908  10.157   5.687 -1.0996 -1.3454 -1.0773
  307MOL0     H41400   9.071  10.096   5.728 -3.9220 -1.8695  2.5418
  307MOL0     H41401   9.051   9.921   5.543  0.3148 -2.1812  2.8054
  307MOL0     H41402   8.881   9.977   5.511 -2.2983 -2.8069  2.6621
  307MOL0     H41403   8.806   9.926   5.723  2.4267  2.0754  2.6886
  307MOL0     H41404   8.969   9.869   5.778 -0.5469  1.3155  0.8994
  307MOL0     H41405   8.727   9.760   5.866 -2.6594 -1.9260  0.3200
  307MOL0     H41406   8.559   9.527   6.024 -0.7277  2.6891 -0.1063
  307MOL0     H41407   8.721   9.497   6.108 -0.7643 -0.7642  0.0589
  307MOL0     H41408   8.661   9.656   6.090  2.0126  0.7511 -0.5049
  307MOL0     H41409   8.928   9.033   6.013 -1.3536  0.5041  2.6344
  307MOL0     H41410   8.858   8.841   6.135 -2.2062  0.9275  2.8592
  307MOL0     H41411   8.561   8.609   6.287  1.8376 -1.9726  1.6683
  307MOL0     H41412   8.734   8.629   6.254  1.7741  1.1202 -2.2114
  307MOL0     H41413   8.716   8.867   6.304 -0.2718  0.5821 -0.1196
  307MOL0     H41414   8.546   8.856   6.333 -0.2668 -0.4762 -0.8289
  307MOL0     H41415   8.561   8.726   6.511 -0.4696 -0.1552 -0.2070
  307MOL0     H41416   8.680   8.857   6.518 -1.7991  1.3803 -0.3968
  307MOL0     H41417   8.774   8.574   6.457 -0.0679  0.5567 -0.1077
  307MOL0     H41418   8.878   8.709   6.497  0.4594  0.5144 -1.5963
  307MOL0     H41419   8.676   8.568   6.672  0.1112 -1.2051 -1.7371
  307MOL0     H41420   8.751   8.724   6.717  0.0036  0.9686 -2.2608
  307MOL0     H41421   8.964   8.629   6.735 -1.6520  1.7585 -0.3239
  307MOL0     H41422   8.856   8.512   6.822 -0.9505 -2.4328 -0.2215
  307MOL0     H41423   9.031   8.393   6.704 -0.4463 -2.1107  0.5864
  307MOL0     H41424   8.990   8.450   6.553  2.1216  2.1419  1.4597
  307MOL0     H41425   8.869   8.216   6.602 -1.0076  1.0154 -0.8515
  307MOL0     H41426   8.753   8.349   6.573 -1.3053 -1.5973 -0.3616
  307MOL0     H41427   8.484   8.852   5.910 -0.7878  1.5657  0.3001
  307MOL0     H41428   8.553   9.051   5.809  0.5723 -1.1469 -1.3822
  307MOL0     H41429   8.890   9.318   5.705  2.4799  0.1286  0.2169
  307MOL0     H41430   8.934   9.514   5.570 -0.2119  1.0765 -0.0183
  307MOL0     H41431   8.822  10.231   6.562  0.9084 -1.2809  0.0533
  307MOL0     H41432   8.821  10.032   6.710 -1.5909 -2.8174 -1.2866
  307MOL0     H41433   8.651   9.710   6.842 -1.1842  0.5018  0.5430
  307MOL0     H41434   8.713   9.469   6.925  1.5607  0.4804 -0.5647
  307MOL0     H41435   8.617   9.402   7.305 -1.4030 -1.0652  0.5359
  307MOL0     H41436   8.554   9.347   7.162 -1.3264 -0.0534  1.9918
  307MOL0     H41437   8.738   9.157   7.172  4.0746  1.7384  2.3099
  307MOL0     H41438   8.577   9.138   7.253 -1.8172  1.6187  1.3341
  307MOL0     H41439   8.733   9.202   7.474 -0.9181 -3.9205  0.9215
  307MOL0     H41440   8.854   9.215   7.340 -0.1931  0.0847  1.0049
  307MOL0     H41441   8.866   8.978   7.307 -2.7503 -2.3564 -1.9957
  307MOL0     H41442   8.719   8.954   7.394  0.6834  0.4812 -0.6321
  307MOL0     H41443   8.961   8.954   7.721 -2.2847  1.0713  0.9966
  307MOL0     H41444   8.781   9.623   7.313 -0.7246  2.9018  0.7923
  307MOL0     H41445   8.758   9.860   7.234  1.6902 -0.4776  1.1061
  308MOL0     O41446   5.089   9.483  10.024  0.1181  0.3413  0.7518
  308MOL0     C41447   5.158   9.563  10.079  0.4874  1.2892 -0.3205
  308MOL0     O41448   5.189   9.560  10.216  0.4481 -0.0016  0.2163
  308MOL0     C41449   5.114   9.487  10.311 -0.9023 -0.1082  0.4116
  308MOL0     C41450   5.164   9.364  10.352 -0.6626 -0.2792  0.7181
  308MOL0     C41451   5.090   9.299  10.451  0.7022  0.3180 -0.4270
  308MOL0     C41452   4.970   9.348  10.508 -0.0939  0.3335 -0.5499
  308MOL0     O41453   4.902   9.292  10.614  0.4606 -0.6488 -0.0688
  308MOL0     C41454   4.871   9.162  10.578  0.3893  0.2033 -0.0141
  308MOL0     C41455   4.736   9.117  10.649  0.2611 -0.3726 -0.0395
  308MOL0     C41456   4.761   9.085  10.800 -0.0481 -0.2113  1.0109
  308MOL0     C41457   4.639   9.018  10.873 -0.8587 -0.2049 -0.3335
  308MOL0     C41458   4.618   9.054  11.025 -0.3461 -0.5414  0.9014
  308MOL0     C41459   4.511   8.955  11.074 -0.5003  0.3731  0.8927
  308MOL0     C41460   4.492   8.956  11.225  0.5648 -0.8804 -0.0134
  308MOL0     C41461   4.434   9.094  11.278 -0.5668 -0.1047  0.9369
  308MOL0     N41462   4.410   9.107  11.423  0.3037 -0.1968  0.0190
  308MOL0     C41463   4.502   9.102  11.526  0.0276  0.2042  0.0361
  308MOL0     C41464   4.422   9.130  11.635 -1.1160 -0.1653  0.4536
  308MOL0     C41465   4.463   9.126  11.778  0.2227 -0.2908  0.6245
  308MOL0     C41466   4.528   9.005  11.814  0.4967  0.5370  0.7515
  308MOL0     C41467   4.576   9.000  11.955 -0.2216  0.1876  0.0847
  308MOL0     C41468   4.607   8.858  11.985 -0.5120  0.6341  0.0099
  308MOL0     O41469   4.711   8.808  11.894  0.1765 -0.4734 -0.6871
  308MOL0     C41470   4.774   8.687  11.922  0.1488  0.8839 -0.3392
  308MOL0     C41471   4.793   8.644  12.058  0.3939 -0.2070 -0.4542
  308MOL0     C41472   4.843   8.518  12.090  0.3718  0.2852 -0.1696
  308MOL0     C41473   4.890   8.492  12.241  1.0513  0.0419 -0.3144
  308MOL0     C41474   4.843   8.423  11.980 -0.4992  0.8476 -0.4508
  308MOL0     C41475   4.869   8.272  11.988  0.2800  0.3402  0.4182
  308MOL0     O41476   4.837   8.177  11.887  0.0441 -0.1995 -0.0822
  308MOL0     C41477   4.878   8.051  11.918  0.3486  0.7584 -0.5523
  308MOL0     C41478   4.925   7.976  11.804 -0.1130  0.3871 -0.3011
  308MOL0     C41479   4.964   7.841  11.827  0.1467  0.4379  0.4650
  308MOL0     C41480   4.958   7.775  11.946 -0.9773  0.6275  0.1248
  308MOL0     O41481   5.012   7.651  11.941  0.4660 -0.5940  0.5587
  308MOL0     C41482   4.975   7.551  12.041  0.0087 -0.3103  0.1673
  308MOL0     C41483   4.827   7.507  12.054  0.6207 -0.5023  0.4229
  308MOL0     C41484   4.820   7.363  12.107  0.8961 -0.1996  0.4427
  308MOL0     C41485   4.664   7.327  12.111  0.2477  0.7991  0.3941
  308MOL0     C41486   4.662   7.172  12.129 -1.2156 -0.6194  0.4556
  308MOL0     C41487   4.520   7.123  12.127 -0.3548 -1.0134 -0.1706
  308MOL0     C41488   4.517   6.974  12.134  0.2961 -1.4140  0.4029
  308MOL0     C41489   4.383   6.913  12.104 -1.1932 -0.2097 -0.1497
  308MOL0    Cl41490   4.258   6.960  12.219  0.6434 -0.1689  0.0704
  308MOL0     C41491   4.894   7.842  12.047 -0.5527 -0.9668  0.2239
  308MOL0     C41492   4.839   7.970  12.025 -0.8600  0.1714 -0.4789
  308MOL0     O41493   4.922   8.246  12.089  1.3100 -0.8473 -0.2573
  308MOL0     C41494   4.817   8.467  11.849  0.0165 -0.0599  0.7196
  308MOL0     C41495   4.794   8.597  11.813  1.0313  0.5045  0.2816
  308MOL0     N41496   4.297   9.148  11.588 -0.2782 -0.3878  0.2820
  308MOL0     N41497   4.281   9.129  11.461 -0.7117 -0.5842  0.7120
  308MOL0     C41498   4.924   9.465  10.453 -0.3377 -0.7713 -0.7161
  308MOL0     C41499   4.989   9.539  10.351 -0.2333 -0.0695 -0.6342
  308MOL0     C41500   5.239   9.656  10.005 -0.5258  0.2866 -0.2207
  308MOL0     C41501   5.215   9.684   9.876  0.0607 -1.0577 -0.5769
  308MOL0     C41502   5.279   9.785   9.806  0.3589 -0.2722  0.1622
  308MOL0     C41503   5.381   9.866   9.871 -0.5009  0.7991  0.0148
  308MOL0     O41504   5.447   9.973   9.816  0.5923  0.4365  0.1244
  308MOL0     C41505   5.388  10.025   9.694 -0.2125 -0.8504  0.5110
  308MOL0     C41506   5.452  10.160   9.669 -0.4158  0.4807 -0.8925
  308MOL0     C41507   5.383  10.269   9.764 -0.8600 -0.1034  1.2568
  308MOL0     C41508   5.461  10.407   9.788  0.5179 -0.3908  0.9718
  308MOL0     C41509   5.490  10.476   9.657  0.6400 -1.7957  0.2504
  308MOL0     C41510   5.497  10.501   9.539  0.8545 -0.5286  0.0514
  308MOL0     C41511   5.407   9.837  10.006  0.1521 -0.0189 -0.0422
  308MOL0     C41512   5.346   9.723  10.070  0.2537 -0.1084 -1.4300
  308MOL0     H41513   5.257   9.328  10.310 -1.2825 -0.5279 -0.4826
  308MOL0     H41514   5.133   9.202  10.473 -3.5905 -2.0324 -1.3424
  308MOL0     H41515   4.857   9.139  10.472 -1.6633  0.8189  0.0860
  308MOL0     H41516   4.950   9.092  10.609  1.2114  1.6663  1.3876
  308MOL0     H41517   4.668   9.203  10.652  0.9255  0.1453  0.5597
  308MOL0     H41518   4.682   9.039  10.594 -1.8840 -0.6022  2.2221
  308MOL0     H41519   4.854   9.034  10.828 -1.0564 -0.9279  3.4170
  308MOL0     H41520   4.756   9.184  10.846 -3.3732  0.5376 -0.6586
  308MOL0     H41521   4.545   9.056  10.833 -0.7136  1.2240  0.5954
  308MOL0     H41522   4.641   8.909  10.863  2.0178 -0.1490 -1.3773
  308MOL0     H41523   4.707   9.031  11.084 -0.8561  1.9445  2.7875
  308MOL0     H41524   4.598   9.160  11.040  1.9421 -0.0091  0.6125
  308MOL0     H41525   4.420   8.976  11.017  1.2697  0.5056 -2.0272
  308MOL0     H41526   4.546   8.856  11.043 -2.2216  0.0408 -0.0907
  308MOL0     H41527   4.413   8.888  11.257 -3.7317  1.7057 -3.9118
  308MOL0     H41528   4.590   8.944  11.273  0.2231 -2.9960  0.2763
  308MOL0     H41529   4.346   9.108  11.215 -0.1587 -0.3878  0.2885
  308MOL0     H41530   4.500   9.177  11.249 -0.7134 -0.7154 -1.3966
  308MOL0     H41531   4.609   9.083  11.535  0.3983  2.1058  0.0930
  308MOL0     H41532   4.523   9.215  11.799 -1.1936  0.2208  2.7383
  308MOL0     H41533   4.381   9.135  11.849  0.5984 -3.6462  1.6889
  308MOL0     H41534   4.622   8.995  11.760  1.2884 -0.1176  2.2020
  308MOL0     H41535   4.450   8.931  11.793 -0.8959  1.2357  3.0515
  308MOL0     H41536   4.508   9.026  12.037  0.8760  0.8440  0.8147
  308MOL0     H41537   4.667   9.059  11.968 -1.4644  2.2626 -0.0771
  308MOL0     H41538   4.515   8.800  11.974 -0.4057  0.1067  1.6670
  308MOL0     H41539   4.643   8.861  12.088 -0.1385 -2.4448  0.0742
  308MOL0     H41540   4.777   8.705  12.147 -4.2863 -1.3515 -0.2623
  308MOL0     H41541   4.806   8.447  12.294  1.7075 -2.5215 -1.2982
  308MOL0     H41542   4.971   8.418  12.250 -0.3007 -1.2280  2.6659
  308MOL0     H41543   4.910   8.585  12.295 -0.4216 -0.6336  1.5136
  308MOL0     H41544   4.947   8.023  11.709  2.4643 -0.0752  0.0022
  308MOL0     H41545   4.995   7.780  11.743 -1.7296  2.2394 -1.6728
  308MOL0     H41546   5.040   7.467  12.017  1.1236  0.4157  0.5564
  308MOL0     H41547   4.996   7.585  12.143  1.5177  0.2522 -0.3129
  308MOL0     H41548   4.771   7.577  12.116 -0.2378 -0.3616 -0.4884
  308MOL0     H41549   4.774   7.501  11.958 -0.2773  1.0584  0.7909
  308MOL0     H41550   4.855   7.349  12.210 -1.3491 -1.3550  1.1179
  308MOL0     H41551   4.858   7.295  12.031 -0.5016 -1.2699  0.6530
  308MOL0     H41552   4.607   7.378  12.189 -1.1105 -1.0113  0.6517
  308MOL0     H41553   4.623   7.350  12.012  0.1701  0.9020  0.4501
  308MOL0     H41554   4.729   7.140  12.209 -1.7507 -1.1982  0.6747
  308MOL0     H41555   4.703   7.135  12.034 -0.5235  1.3981 -0.0898
  308MOL0     H41556   4.466   7.172  12.208 -0.3276 -0.2221 -0.6263
  308MOL0     H41557   4.474   7.152  12.032  0.5152 -1.8247 -0.8624
  308MOL0     H41558   4.545   6.944  12.235  3.3530 -2.7098 -0.6974
  308MOL0     H41559   4.601   6.941  12.072  2.1625  0.0234  2.0295
  308MOL0     H41560   4.393   6.806  12.081  1.1636  0.8200 -5.5256
  308MOL0     H41561   4.360   6.955  12.006  1.8300  0.6534 -0.5777
  308MOL0     H41562   4.861   7.782  12.132  0.1572 -1.9267 -0.1605
  308MOL0     H41563   4.784   8.009  12.111  2.3112  2.0685  0.8683
  308MOL0     H41564   4.819   8.411  11.756 -0.6417 -0.4986  0.9610
  308MOL0     H41565   4.766   8.628  11.713 -0.0930 -0.5815  0.2373
  308MOL0     H41566   4.828   9.506  10.485 -0.1369 -1.6109  1.0580
  308MOL0     H41567   4.960   9.637  10.315  3.0160  1.4791  0.5773
  308MOL0     H41568   5.125   9.640   9.834 -1.0102  0.6193 -0.1440
  308MOL0     H41569   5.250   9.795   9.702  0.0847 -0.1232  0.2531
  308MOL0     H41570   5.418   9.964   9.609 -0.8326  1.4635 -1.4830
  308MOL0     H41571   5.279  10.036   9.700 -0.5361 -2.9644 -0.7076
  308MOL0     H41572   5.437  10.189   9.565  0.7474  0.5347 -1.0545
  308MOL0     H41573   5.560  10.154   9.688 -0.7072  0.5847  1.0363
  308MOL0     H41574   5.369  10.231   9.866 -2.3918  1.8040  1.8231
  308MOL0     H41575   5.280  10.288   9.734 -0.0662  1.9786 -0.3959
  308MOL0     H41576   5.562  10.396   9.828  1.9786 -1.2727 -2.6568
  308MOL0     H41577   5.395  10.477   9.841 -2.1859 -0.7624 -1.6598
  308MOL0     H41578   5.510  10.525   9.435 -1.1461 -0.5941 -0.2456
  308MOL0     H41579   5.491   9.893  10.046 -0.0361  0.7996 -0.7548
  308MOL0     H41580   5.371   9.721  10.176 -1.7061 -1.5410 -0.9509
  309MOL0     O41581   9.867   3.581   6.837  1.1371  0.3518  0.0062
  309MOL0     C41582   9.856   3.580   6.963  0.1103 -0.4363  0.7231
  309MOL0     O41583   9.732   3.569   7.038 -0.5173  0.3251 -0.0562
  309MOL0     C41584   9.605   3.561   6.979 -0.0598 -0.5660 -0.0028
  309MOL0     C41585   9.574   3.627   6.861  0.3169  0.0458 -0.1369
  309MOL0     C41586   9.444   3.619   6.816  0.4197  0.0278 -1.3966
  309MOL0     C41587   9.341   3.538   6.877  0.1582 -0.8843 -0.3140
  309MOL0     O41588   9.220   3.537   6.831  0.3561  0.4438 -0.7806
  309MOL0     C41589   9.165   3.623   6.729  0.4263  0.1465  0.3679
  309MOL0     C41590   9.148   3.770   6.785  0.3344  0.6932  0.1765
  309MOL0     C41591   9.090   3.782   6.927  0.6715  0.2257  0.4722
  309MOL0     C41592   9.147   3.895   7.014  0.1629  0.2035 -0.4663
  309MOL0     C41593   9.060   3.894   7.142  0.5442  0.5738 -0.7113
  309MOL0     C41594   9.122   3.978   7.255 -0.6014 -0.6161 -0.7745
  309MOL0     C41595   9.031   3.986   7.390 -0.9494 -0.4356  0.2265
  309MOL0     C41596   9.093   4.082   7.501  0.2608  0.1263  0.2133
  309MOL0     N41597   9.233   4.029   7.538 -0.2588 -1.3579 -0.3869
  309MOL0     C41598   9.256   3.914   7.609 -0.1916 -0.4930 -0.8476
  309MOL0     C41599   9.384   3.875   7.584  0.9343  0.2111 -0.0431
  309MOL0     C41600   9.450   3.747   7.619  0.4310  0.3732 -0.1775
  309MOL0     C41601   9.350   3.622   7.608 -0.9435  0.5859 -0.6216
  309MOL0     C41602   9.286   3.617   7.473  0.7619 -0.4838  0.0688
  309MOL0     C41603   9.186   3.510   7.474  0.1115 -0.2575  0.2019
  309MOL0     O41604   9.096   3.552   7.366  0.4430 -0.0532 -0.6795
  309MOL0     C41605   9.005   3.464   7.312  0.1425 -0.0187  0.0840
  309MOL0     C41606   9.035   3.326   7.318 -0.3227  0.5872 -0.0634
  309MOL0     C41607   8.943   3.232   7.255  0.5674 -0.3008 -0.8623
  309MOL0     C41608   8.947   3.088   7.298 -0.7146 -0.4074 -0.5820
  309MOL0     C41609   8.837   3.284   7.172 -0.1965  1.5249 -1.3719
  309MOL0     C41610   8.723   3.193   7.136 -0.6466 -0.4666 -0.7771
  309MOL0     O41611   8.597   3.256   7.136  0.2403  0.3563  0.3537
  309MOL0     C41612   8.489   3.176   7.152  0.5621  0.7581  0.3168
  309MOL0     C41613   8.430   3.101   7.052  1.3712  0.3857 -0.2619
  309MOL0     C41614   8.332   2.999   7.081  0.9214 -0.8968  0.2040
  309MOL0     C41615   8.292   2.975   7.205 -0.7756 -0.7077 -0.3757
  309MOL0     O41616   8.211   2.860   7.223 -0.7339  0.3826  0.0575
  309MOL0     C41617   8.131   2.860   7.336  0.5031 -0.0098  0.1202
  309MOL0     C41618   8.044   2.732   7.358 -0.3589 -0.7006  0.3100
  309MOL0     C41619   7.993   2.695   7.509 -0.5879  0.4422  0.5087
  309MOL0     C41620   7.899   2.570   7.500  0.1089 -1.0150  0.2772
  309MOL0     C41621   7.848   2.551   7.641  0.4180 -0.4375 -0.4516
  309MOL0     C41622   7.735   2.441   7.647 -0.4511 -0.0981  0.6206
  309MOL0     C41623   7.605   2.477   7.571  0.5904 -0.3296 -0.8846
  309MOL0     C41624   7.498   2.363   7.580 -0.6131  0.0022 -0.0275
  309MOL0    Cl41625   7.576   2.212   7.495 -0.2007  0.4690 -0.0744
  309MOL0     C41626   8.348   3.052   7.313 -0.5269  1.0175  0.1313
  309MOL0     C41627   8.449   3.153   7.284 -0.4956 -0.3163  0.2566
  309MOL0     O41628   8.740   3.076   7.091 -0.2906 -1.1449  0.0408
  309MOL0     C41629   8.821   3.422   7.157  0.3234  0.2910  0.1343
  309MOL0     C41630   8.902   3.510   7.226 -1.1445  0.4300  0.0466
  309MOL0     N41631   9.439   3.986   7.508 -1.0213  0.2060  0.2684
  309MOL0     N41632   9.340   4.061   7.475  0.3818 -0.4392  0.0203
  309MOL0     C41633   9.368   3.481   6.998 -0.7575  0.4177 -0.4667
  309MOL0     C41634   9.499   3.500   7.054  0.2553 -0.4496 -0.6031
  309MOL0     C41635   9.985   3.561   7.036 -0.2903 -0.3157 -0.7920
  309MOL0     C41636   9.989   3.573   7.181  0.1709 -0.0548  0.0954
  309MOL0     C41637  10.115   3.563   7.249  0.4286 -0.2329  0.7009
  309MOL0     C41638  10.238   3.550   7.181  0.7174 -0.2183  0.2017
  309MOL0     O41639  10.364   3.585   7.222 -0.4628  0.3254 -0.7029
  309MOL0     C41640  10.376   3.571   7.363 -0.0284  0.0999  0.0195
  309MOL0     C41641  10.517   3.566   7.434 -0.1259 -0.0120  0.0484
  309MOL0     C41642  10.633   3.644   7.366  0.7329 -0.2697  0.0659
  309MOL0     C41643  10.765   3.590   7.425 -0.7058  1.0005 -0.3755
  309MOL0     C41644  10.868   3.670   7.373 -0.5970  1.6376  0.5840
  309MOL0     C41645  10.951   3.748   7.335 -1.1297  0.4299  0.1951
  309MOL0     C41646  10.226   3.551   7.041  0.5348 -0.0763 -0.4713
  309MOL0     C41647  10.105   3.556   6.971 -0.1607  0.0493  0.5438
  309MOL0     H41648   9.647   3.694   6.816  0.6907 -0.1490  0.1735
  309MOL0     H41649   9.416   3.675   6.727 -0.3401 -0.2564 -1.3500
  309MOL0     H41650   9.219   3.633   6.634 -0.4966 -1.0209 -0.3157
  309MOL0     H41651   9.075   3.563   6.706 -0.5796  2.0484 -0.9402
  309MOL0     H41652   9.245   3.820   6.787  0.3533  0.6991 -0.6225
  309MOL0     H41653   9.086   3.830   6.718 -0.0847  0.1453  0.0583
  309MOL0     H41654   8.983   3.795   6.905  0.7288 -2.7347 -2.3674
  309MOL0     H41655   9.106   3.684   6.972  0.7350 -0.1318 -0.3076
  309MOL0     H41656   9.252   3.884   7.041 -0.4481  0.7799  2.5173
  309MOL0     H41657   9.152   3.990   6.959  0.3154  1.4806  1.6630
  309MOL0     H41658   8.958   3.930   7.123 -0.1638 -0.6941  0.4482
  309MOL0     H41659   9.054   3.794   7.186 -2.5017  1.2148  0.6723
  309MOL0     H41660   9.225   3.946   7.275  0.3944  2.9238  0.4321
  309MOL0     H41661   9.132   4.080   7.217  3.8284 -0.3712  0.4623
  309MOL0     H41662   8.926   4.014   7.379 -0.6793  0.7378  0.4349
  309MOL0     H41663   9.023   3.888   7.437  0.2230  0.0006  1.4041
  309MOL0     H41664   9.019   4.084   7.582  1.2908  0.2338  1.1885
  309MOL0     H41665   9.113   4.181   7.459 -1.0135  0.8439  1.2128
  309MOL0     H41666   9.189   3.858   7.674 -0.8320  1.1508 -0.0135
  309MOL0     H41667   9.537   3.727   7.556 -0.3032 -0.8309 -0.8348
  309MOL0     H41668   9.471   3.768   7.725 -0.9743  0.7853  0.0374
  309MOL0     H41669   9.272   3.643   7.683 -0.7441  2.5014 -0.9036
  309MOL0     H41670   9.393   3.529   7.645 -0.3662  2.3884  3.9556
  309MOL0     H41671   9.358   3.590   7.395 -0.0870 -1.3773 -0.4278
  309MOL0     H41672   9.231   3.709   7.448 -1.4877 -1.3703  1.4278
  309MOL0     H41673   9.140   3.499   7.573 -0.1936  0.7250  0.1708
  309MOL0     H41674   9.232   3.412   7.453  0.5127 -0.5688  2.2755
  309MOL0     H41675   9.122   3.273   7.355 -2.4018 -1.6542  1.9885
  309MOL0     H41676   8.867   3.055   7.365 -2.5006  0.9287 -1.9472
  309MOL0     H41677   8.941   3.028   7.207 -1.5688  0.2440 -0.9703
  309MOL0     H41678   9.045   3.076   7.345 -1.1601 -1.5152  0.1002
  309MOL0     H41679   8.446   3.129   6.948 -1.6882 -0.7226 -1.1330
  309MOL0     H41680   8.289   2.962   6.988  2.4084  3.3809 -2.4633
  309MOL0     H41681   8.187   2.857   7.430  0.9494 -1.0981 -0.1717
  309MOL0     H41682   8.059   2.943   7.337 -0.4746 -0.8400  0.0798
  309MOL0     H41683   7.962   2.756   7.289 -0.2227  0.3792  0.5048
  309MOL0     H41684   8.112   2.653   7.325 -0.5102 -1.4925  1.8227
  309MOL0     H41685   7.942   2.783   7.549  0.7295  0.3447  2.5584
  309MOL0     H41686   8.076   2.670   7.576 -0.0053 -1.6196 -0.8810
  309MOL0     H41687   7.816   2.595   7.434  0.5324  1.7619  0.6943
  309MOL0     H41688   7.957   2.483   7.468 -0.8069 -2.3437  2.0346
  309MOL0     H41689   7.801   2.641   7.683  0.3439 -0.9820  0.6645
  309MOL0     H41690   7.925   2.529   7.715 -1.1045  2.4936  2.2579
  309MOL0     H41691   7.777   2.343   7.623 -0.7145 -1.0861  3.7461
  309MOL0     H41692   7.703   2.426   7.750 -0.4322 -1.8130  0.4088
  309MOL0     H41693   7.628   2.505   7.468  4.9783 -1.0980 -0.3024
  309MOL0     H41694   7.557   2.555   7.632  0.1832 -3.1975  2.8457
  309MOL0     H41695   7.402   2.400   7.542  0.0658  2.1092  0.1741
  309MOL0     H41696   7.489   2.336   7.686  0.9164  1.3647  0.4775
  309MOL0     H41697   8.324   3.024   7.415 -1.5647 -0.3117 -0.4490
  309MOL0     H41698   8.506   3.208   7.358  1.4109  1.2776 -2.2234
  309MOL0     H41699   8.738   3.463   7.101  0.6147  0.7872  0.0566
  309MOL0     H41700   8.891   3.618   7.226  0.0472  0.6612 -3.0423
  309MOL0     H41701   9.291   3.427   7.051 -1.5889  0.1156 -1.9475
  309MOL0     H41702   9.522   3.461   7.153  0.1611  0.6722 -0.1221
  309MOL0     H41703   9.896   3.578   7.236 -2.1336 -3.9667 -2.9286
  309MOL0     H41704  10.120   3.578   7.357  4.2349  1.8938  0.3913
  309MOL0     H41705  10.319   3.654   7.407  0.2944  1.6021 -2.2440
  309MOL0     H41706  10.340   3.473   7.395  2.0836 -0.3480  1.2155
  309MOL0     H41707  10.545   3.461   7.434 -2.6032 -0.8348  3.6417
  309MOL0     H41708  10.524   3.584   7.541  1.6297  0.8103 -0.1635
  309MOL0     H41709  10.617   3.751   7.382  0.3498  0.2722 -3.1911
  309MOL0     H41710  10.633   3.636   7.256  0.3827  1.6258 -0.0951
  309MOL0     H41711  10.776   3.486   7.392  1.2075  1.1555 -0.3607
  309MOL0     H41712  10.756   3.597   7.533  0.8711  0.0945 -0.1590
  309MOL0     H41713  11.043   3.786   7.294  1.1984 -1.1294  3.5819
  309MOL0     H41714  10.315   3.548   6.980 -0.4709 -0.4520 -1.9715
  309MOL0     H41715  10.115   3.570   6.864 -1.1425 -0.1436  0.4192
  310MOL0     O41716   9.919  10.207   0.132  1.2368 -0.5322 -0.2787
  310MOL0     C41717   9.807  10.247   0.101 -0.6525  0.4408  0.4735
  310MOL0     O41718   9.722  10.185   0.023  0.2545 -0.6697  1.1163
  310MOL0     C41719   9.766  10.063  -0.039 -0.3435  0.3795  0.3408
  310MOL0     C41720   9.742   9.931   0.015  0.2169  0.2029 -0.0392
  310MOL0     C41721   9.786   9.828  -0.068 -0.3759  0.1262  0.1101
  310MOL0     C41722   9.856   9.843  -0.189 -0.4856 -0.7942  0.2882
  310MOL0     O41723   9.896   9.737  -0.257  0.2810  0.7326  0.0274
  310MOL0     C41724  10.032   9.701  -0.248  0.2314 -0.8683  1.0862
  310MOL0     C41725  10.047   9.558  -0.299  0.3109 -0.3498  1.2025
  310MOL0     C41726  10.195   9.513  -0.316 -0.0132  0.3068 -0.0438
  310MOL0     C41727  10.208   9.356  -0.310  0.1138 -0.3819  0.0912
  310MOL0     C41728  10.353   9.298  -0.323 -1.0493  0.2742 -0.2314
  310MOL0     C41729  10.457   9.365  -0.229 -0.7057  0.5694  0.1724
  310MOL0     C41730  10.592   9.291  -0.261 -0.7359 -1.4473  0.4908
  310MOL0     C41731  10.709   9.366  -0.192 -0.9293  0.9467 -0.3180
  310MOL0     N41732  10.841   9.316  -0.238 -0.7882 -0.3567 -0.2189
  310MOL0     C41733  10.911   9.352  -0.353  0.0196 -0.6081 -0.5962
  310MOL0     C41734  11.010   9.259  -0.356 -0.0321 -1.0533  0.6814
  310MOL0     C41735  11.139   9.250  -0.436 -1.2872 -0.6243 -0.4233
  310MOL0     C41736  11.120   9.299  -0.579  0.1146  0.2215  1.1574
  310MOL0     C41737  11.019   9.202  -0.648  0.6037 -0.6937 -0.3129
  310MOL0     C41738  11.077   9.160  -0.778 -0.2382  0.4930  0.5799
  310MOL0     O41739  11.106   9.278  -0.860  0.5021  0.4404 -1.3098
  310MOL0     C41740  11.074   9.276  -0.994  0.1780 -1.1581  1.4944
  310MOL0     C41741  11.121   9.183  -1.080  0.3110 -0.6836  0.6400
  310MOL0     C41742  11.090   9.189  -1.216 -0.7596 -0.1383 -0.5087
  310MOL0     C41743  11.146   9.077  -1.294 -0.3307 -0.4028 -0.2139
  310MOL0     C41744  11.000   9.275  -1.259 -0.0134 -0.5241 -0.7950
  310MOL0     C41745  10.947   9.272  -1.393 -0.1714  0.6036  0.8374
  310MOL0     O41746  10.806   9.297  -1.401  0.2245  0.0652  0.7476
  310MOL0     C41747  10.767   9.331  -1.529  0.5393 -0.0229  0.5750
  310MOL0     C41748  10.727   9.461  -1.562  0.1088  0.2902  0.3131
  310MOL0     C41749  10.676   9.488  -1.680  1.1097 -0.8181  0.1082
  310MOL0     C41750  10.655   9.386  -1.774 -0.7882 -0.7106  0.4763
  310MOL0     O41751  10.597   9.408  -1.890  0.1510  0.0386  0.3137
  310MOL0     C41752  10.592   9.536  -1.951  0.3935 -0.2404 -1.2032
  310MOL0     C41753  10.627   9.522  -2.097 -0.0420  0.2439  0.6738
  310MOL0     C41754  10.761   9.451  -2.100  0.0051  0.2204  0.3858
  310MOL0     C41755  10.881   9.521  -2.041 -0.5464  0.0476 -0.5112
  310MOL0     C41756  11.007   9.471  -2.105 -1.2284 -0.4547  0.0790
  310MOL0     C41757  11.140   9.507  -2.032  0.6515 -0.8312  0.1172
  310MOL0     C41758  11.149   9.658  -2.019 -0.0136 -0.7289 -0.0712
  310MOL0     C41759  11.295   9.690  -1.961  0.2795  0.3977  0.4766
  310MOL0    Cl41760  11.310   9.871  -1.985  0.2255 -0.0659 -0.5263
  310MOL0     C41761  10.696   9.254  -1.746  0.9115  0.3276 -0.0324
  310MOL0     C41762  10.757   9.229  -1.625  0.2927 -0.8417 -0.4223
  310MOL0     O41763  11.024   9.263  -1.487 -0.0793  0.1095 -0.6614
  310MOL0     C41764  10.944   9.370  -1.169 -0.2290 -0.4678  0.5312
  310MOL0     C41765  10.990   9.378  -1.034  0.6103 -0.8402  1.5664
  310MOL0     N41766  10.988   9.166  -0.258 -0.4551 -0.7120 -0.4537
  310MOL0     N41767  10.883   9.201  -0.187  0.2934  0.0370 -0.4439
  310MOL0     C41768   9.887   9.973  -0.227 -0.2330 -0.3716  0.4961
  310MOL0     C41769   9.833  10.082  -0.166  1.3411 -0.5138 -0.5914
  310MOL0     C41770   9.786  10.392   0.132  0.3741  0.1739  0.6687
  310MOL0     C41771   9.881  10.480   0.193 -0.6175  0.2195  0.8191
  310MOL0     C41772   9.859  10.613   0.223  0.0291  0.5632  0.9101
  310MOL0     C41773   9.728  10.665   0.182 -0.0286 -0.8310  0.4311
  310MOL0     O41774   9.691  10.797   0.203  0.0542  0.3422  0.4419
  310MOL0     C41775   9.763  10.896   0.287  0.0739  0.1920  0.6109
  310MOL0     C41776   9.756  11.029   0.228  0.3000  0.3038  0.1201
  310MOL0     C41777   9.833  11.142   0.297 -0.7105  0.4924  0.0332
  310MOL0     C41778   9.828  11.266   0.205 -0.3095 -0.5264 -0.5526
  310MOL0     C41779   9.884  11.375   0.280 -0.5158 -0.0547 -0.9628
  310MOL0     C41780   9.923  11.479   0.334 -0.1459 -0.0365  0.1433
  310MOL0     C41781   9.632  10.579   0.129 -0.3914  0.2492  0.6819
  310MOL0     C41782   9.653  10.449   0.097 -0.3641 -0.5822 -0.2357
  310MOL0     H41783   9.697   9.911   0.112  0.9609 -0.7250  0.1246
  310MOL0     H41784   9.752   9.728  -0.042 -1.2685  0.4309  0.1416
  310MOL0     H41785  10.082   9.772  -0.313 -0.2957 -0.5561  1.0169
  310MOL0     H41786  10.060   9.700  -0.142  2.6756 -2.4012  0.5073
  310MOL0     H41787  10.008   9.484  -0.228  1.2449 -1.8746  0.1691
  310MOL0     H41788   9.992   9.550  -0.394  0.2732  5.6163  0.3536
  310MOL0     H41789  10.227   9.556  -0.412 -1.9418  1.1539 -0.3567
  310MOL0     H41790  10.260   9.556  -0.239  0.5549  0.2562 -0.4824
  310MOL0     H41791  10.180   9.334  -0.207  1.7855 -0.2805  0.5985
  310MOL0     H41792  10.145   9.308  -0.385  0.2344  0.4776 -0.5729
  310MOL0     H41793  10.329   9.194  -0.302  0.0454 -0.3245 -1.7655
  310MOL0     H41794  10.398   9.298  -0.423 -0.1704 -0.0938  0.1527
  310MOL0     H41795  10.471   9.472  -0.247  3.1397  0.0942 -0.3869
  310MOL0     H41796  10.428   9.343  -0.126 -0.9541  0.6559  0.1223
  310MOL0     H41797  10.585   9.186  -0.231  2.2641 -1.3693  1.8895
  310MOL0     H41798  10.614   9.287  -0.368 -0.7467 -0.6730  0.4553
  310MOL0     H41799  10.691   9.358  -0.084  0.0490  2.2327 -0.0373
  310MOL0     H41800  10.698   9.472  -0.216 -2.0278  1.1185  0.8482
  310MOL0     H41801  10.894   9.431  -0.425  0.1525 -0.1514 -0.1266
  310MOL0     H41802  11.219   9.317  -0.403 -0.3246 -0.6543 -2.5657
  310MOL0     H41803  11.183   9.151  -0.422  0.0412 -0.0205 -0.0619
  310MOL0     H41804  11.208   9.318  -0.642  0.1816  0.4182  1.3087
  310MOL0     H41805  11.076   9.399  -0.575  1.4999  1.2730 -3.7164
  310MOL0     H41806  10.924   9.250  -0.670 -0.6253 -3.1256 -0.6723
  310MOL0     H41807  10.997   9.109  -0.595  0.4247 -0.9334 -0.8025
  310MOL0     H41808  11.019   9.091  -0.840  1.5718 -0.1914 -0.4229
  310MOL0     H41809  11.170   9.106  -0.760 -1.9646 -2.4607  1.3489
  310MOL0     H41810  11.191   9.112  -1.037  1.3453 -0.8572 -1.2089
  310MOL0     H41811  11.247   9.054  -1.262 -0.0220 -0.0642 -0.9182
  310MOL0     H41812  11.083   8.988  -1.301  0.7561 -1.1304 -1.0634
  310MOL0     H41813  11.162   9.096  -1.401  1.1886 -0.2348  0.0289
  310MOL0     H41814  10.742   9.549  -1.501 -0.1538  0.6408 -0.1154
  310MOL0     H41815  10.655   9.591  -1.706  2.1185 -0.3071  1.2511
  310MOL0     H41816  10.492   9.581  -1.942  0.7881  0.9310 -2.4544
  310MOL0     H41817  10.670   9.595  -1.903  0.9761 -2.6419  1.0137
  310MOL0     H41818  10.552   9.468  -2.155  1.2998  1.8016 -2.8021
  310MOL0     H41819  10.636   9.613  -2.157 -2.9499  0.0822 -0.1345
  310MOL0     H41820  10.774   9.421  -2.205 -2.8388  0.3282 -0.0739
  310MOL0     H41821  10.751   9.354  -2.050 -4.3197  1.1006  1.5873
  310MOL0     H41822  10.863   9.627  -2.061  0.5750  0.6380  1.3872
  310MOL0     H41823  10.905   9.486  -1.940  3.2895 -2.0488 -1.9186
  310MOL0     H41824  11.015   9.508  -2.207 -0.1390 -3.1363 -0.8819
  310MOL0     H41825  11.000   9.362  -2.095  3.3228 -1.0062 -0.7802
  310MOL0     H41826  11.157   9.460  -1.935 -4.4764 -0.8977  1.2350
  310MOL0     H41827  11.223   9.508  -2.104  0.3406  1.3683 -0.2718
  310MOL0     H41828  11.072   9.685  -1.946 -1.0755  0.0981 -1.4446
  310MOL0     H41829  11.116   9.710  -2.109  1.2829  2.8636  1.3400
  310MOL0     H41830  11.373   9.630  -2.009 -0.0079 -0.5127  1.1016
  310MOL0     H41831  11.297   9.662  -1.855  1.4133  1.2261  0.6861
  310MOL0     H41832  10.681   9.185  -1.828  1.0686  2.5179 -2.0165
  310MOL0     H41833  10.802   9.134  -1.596  4.2638  0.7413 -0.6906
  310MOL0     H41834  10.886   9.448  -1.217  2.5240  0.3759 -1.6902
  310MOL0     H41835  10.962   9.451  -0.959  0.6151 -0.6257  1.3586
  310MOL0     H41836   9.938   9.990  -0.321 -0.6939  1.8170  0.5751
  310MOL0     H41837   9.834  10.183  -0.204 -1.1777 -0.9102 -1.9258
  310MOL0     H41838   9.981  10.441   0.206 -1.4003 -1.7847  1.1560
  310MOL0     H41839   9.940  10.680   0.252  0.9588 -0.2845  0.3153
  310MOL0     H41840   9.719  10.894   0.387 -0.4775  1.0094  0.4003
  310MOL0     H41841   9.868  10.873   0.308 -0.0234  1.9152  3.3844
  310MOL0     H41842   9.648  11.035   0.214 -0.0609 -2.8253  0.7243
  310MOL0     H41843   9.798  11.031   0.126  0.5672  0.2590  0.2271
  310MOL0     H41844   9.935  11.103   0.311 -1.5478 -1.3697  1.3335
  310MOL0     H41845   9.792  11.158   0.397  1.4424  3.6886  0.5623
  310MOL0     H41846   9.723  11.299   0.201 -1.0282 -1.9079  3.2804
  310MOL0     H41847   9.888  11.245   0.116  2.4069  1.0035  0.8107
  310MOL0     H41848   9.972  11.566   0.374  1.1608 -1.4637  1.7758
  310MOL0     H41849   9.533  10.620   0.119 -0.0303  0.8073 -0.7560
  310MOL0     H41850   9.574  10.386   0.057 -1.0287 -0.9662  1.5522
  311MOL0     O41851   4.045   1.189   1.790 -0.8119 -0.6165  0.0073
  311MOL0     C41852   4.141   1.176   1.714  0.5706 -0.0360 -0.2462
  311MOL0     O41853   4.133   1.197   1.578 -0.2333  0.0449  0.2606
  311MOL0     C41854   4.021   1.240   1.528  0.3344  0.0594  0.0562
  311MOL0     C41855   3.968   1.361   1.566  0.6264  0.1718  0.1743
  311MOL0     C41856   3.849   1.404   1.501 -0.1936  0.2972  0.3098
  311MOL0     C41857   3.799   1.332   1.388  0.3083  0.3449  1.0330
  311MOL0     O41858   3.692   1.386   1.316  0.8553  0.0456  0.1802
  311MOL0     C41859   3.702   1.362   1.173 -0.1998 -0.7591  0.5158
  311MOL0     C41860   3.638   1.486   1.097  1.3762 -0.4056  0.4574
  311MOL0     C41861   3.486   1.506   1.152 -0.2747  0.2794 -0.7768
  311MOL0     C41862   3.382   1.522   1.041 -0.2890  0.5555 -0.1676
  311MOL0     C41863   3.251   1.544   1.120  0.4722 -1.1330 -0.2813
  311MOL0     C41864   3.123   1.516   1.038  0.0522 -0.6409 -0.4270
  311MOL0     C41865   3.113   1.589   0.905  0.1877 -0.2616  0.7469
  311MOL0     C41866   3.105   1.746   0.905 -0.3294 -0.8714 -1.0946
  311MOL0     N41867   2.988   1.819   0.959 -0.5048  0.3575  0.5801
  311MOL0     C41868   2.868   1.767   1.006  0.2306  0.1746 -0.8941
  311MOL0     C41869   2.805   1.879   1.048  0.4285  0.8976  0.2704
  311MOL0     C41870   2.665   1.880   1.100 -1.0436 -0.4474  0.2062
  311MOL0     C41871   2.644   1.802   1.240 -0.1764  0.2075 -0.1767
  311MOL0     C41872   2.511   1.727   1.269  0.7011 -0.1198  0.3219
  311MOL0     C41873   2.505   1.592   1.198 -0.2868 -0.2679 -0.5859
  311MOL0     O41874   2.387   1.519   1.220 -0.0473 -0.2351  1.0855
  311MOL0     C41875   2.384   1.383   1.182  0.6514  0.5191 -0.0556
  311MOL0     C41876   2.304   1.293   1.249 -1.0153  0.4786  0.6112
  311MOL0     C41877   2.280   1.158   1.209 -0.0105  0.0158 -0.7769
  311MOL0     C41878   2.188   1.084   1.305 -0.0011  0.0307 -0.4750
  311MOL0     C41879   2.345   1.111   1.091  0.6869  1.0602  0.3249
  311MOL0     C41880   2.332   0.969   1.037  0.4989 -0.5927  0.3840
  311MOL0     O41881   2.265   0.878   1.112  0.0646  0.2265  0.6691
  311MOL0     C41882   2.236   0.749   1.066  0.5273 -0.3359 -1.2696
  311MOL0     C41883   2.177   0.724   0.941  0.2493 -0.6750  0.4935
  311MOL0     C41884   2.142   0.587   0.913  0.9559  0.3214 -0.6764
  311MOL0     C41885   2.168   0.483   1.001  0.1419 -0.1728  0.0664
  311MOL0     O41886   2.127   0.349   0.975  0.4222  0.4456 -0.9632
  311MOL0     C41887   2.239   0.251   0.967 -0.2684  0.0346  0.5002
  311MOL0     C41888   2.175   0.122   0.965  0.5184  0.5973  0.6343
  311MOL0     C41889   2.095   0.082   1.083 -0.0814 -0.1336  0.2194
  311MOL0     C41890   2.050  -0.063   1.073  0.1832 -0.1866  0.6213
  311MOL0     C41891   2.003  -0.113   1.213  0.0305 -0.3118  0.3081
  311MOL0     C41892   1.884  -0.044   1.284 -0.4062  0.3146 -0.7763
  311MOL0     C41893   1.769  -0.015   1.193  0.4590 -0.5173  0.3499
  311MOL0     C41894   1.678  -0.125   1.141  0.2510  0.2990  0.1220
  311MOL0    Cl41895   1.626  -0.234   1.272  0.0124 -0.1710 -0.1086
  311MOL0     C41896   2.228   0.523   1.123 -1.2383  0.6844 -0.2368
  311MOL0     C41897   2.265   0.648   1.160  0.5869 -0.6453  0.9060
  311MOL0     O41898   2.362   0.953   0.917 -0.0127 -0.2333  0.6594
  311MOL0     C41899   2.441   1.197   1.030 -0.0044  0.1895  0.2218
  311MOL0     C41900   2.451   1.331   1.067  0.0185  0.7640  0.2102
  311MOL0     N41901   2.885   1.989   1.033 -0.5385 -0.1890  0.6089
  311MOL0     N41902   2.996   1.950   0.978 -0.4943 -0.4188 -0.9091
  311MOL0     C41903   3.862   1.211   1.347 -0.5821 -0.0775 -0.2596
  311MOL0     C41904   3.975   1.169   1.419  0.8647  0.9548 -0.8256
  311MOL0     C41905   4.281   1.141   1.763 -0.1843  0.2533  0.1839
  311MOL0     C41906   4.394   1.151   1.682  0.7676 -0.7500 -0.4420
  311MOL0     C41907   4.520   1.113   1.730  0.9366  0.2729  0.2604
  311MOL0     C41908   4.530   1.045   1.853 -0.8713  0.1945  0.0511
  311MOL0     O41909   4.652   0.997   1.905  0.5332  0.1399  1.3084
  311MOL0     C41910   4.699   1.047   2.030 -0.3769 -0.5562 -0.0163
  311MOL0     C41911   4.818   0.965   2.079 -0.0029 -0.7474  0.3276
  311MOL0     C41912   4.862   0.970   2.219 -0.4200 -0.0918 -0.1425
  311MOL0     C41913   4.935   1.106   2.238 -0.1531  0.0074  0.6576
  311MOL0     C41914   4.962   1.127   2.390 -0.0047  0.1685  1.3459
  311MOL0     C41915   4.978   1.142   2.510 -0.0194 -0.7643  0.5602
  311MOL0     C41916   4.417   1.034   1.930 -0.1681  0.5265  0.0086
  311MOL0     C41917   4.298   1.103   1.892 -0.5143 -0.9391  0.5734
  311MOL0     H41918   4.008   1.411   1.654 -0.8830  1.0001  0.4176
  311MOL0     H41919   3.799   1.496   1.530 -0.2429  0.4594 -0.2769
  311MOL0     H41920   3.807   1.347   1.148  1.0966  0.5731  4.4243
  311MOL0     H41921   3.631   1.281   1.148  0.7748 -1.7120  0.7544
  311MOL0     H41922   3.696   1.579   1.096 -2.0165  1.9356  1.8801
  311MOL0     H41923   3.632   1.458   0.991 -0.6551 -1.1346  0.7085
  311MOL0     H41924   3.458   1.416   1.207  1.0066  2.1434  3.2658
  311MOL0     H41925   3.479   1.597   1.212  0.4885 -0.7062  0.8806
  311MOL0     H41926   3.413   1.605   0.976  3.2774  0.0851  0.7644
  311MOL0     H41927   3.383   1.423   0.996 -0.6259 -0.1378  1.2865
  311MOL0     H41928   3.249   1.485   1.211  1.0722  0.1013  0.5628
  311MOL0     H41929   3.255   1.648   1.153  1.1168 -0.1680 -3.0661
  311MOL0     H41930   3.118   1.408   1.025  1.0741 -0.6423 -0.9760
  311MOL0     H41931   3.042   1.547   1.104 -1.0488 -1.7655 -1.2192
  311MOL0     H41932   3.187   1.558   0.831 -1.1538 -0.7704 -0.4396
  311MOL0     H41933   3.009   1.570   0.875 -0.1015  1.1893  0.7683
  311MOL0     H41934   3.110   1.777   0.800 -0.6494 -0.6879 -1.0578
  311MOL0     H41935   3.204   1.774   0.940  1.0036 -2.2533 -3.4757
  311MOL0     H41936   2.827   1.668   1.022 -1.4534  1.0338  0.4863
  311MOL0     H41937   2.626   1.979   1.126 -3.9128 -2.0660  2.7464
  311MOL0     H41938   2.590   1.846   1.029  0.7186 -0.9274 -1.4966
  311MOL0     H41939   2.661   1.868   1.325 -4.9726  0.1460  1.0962
  311MOL0     H41940   2.722   1.726   1.254  1.1925  1.4824 -0.6018
  311MOL0     H41941   2.426   1.795   1.270  1.0030  0.2864  2.4322
  311MOL0     H41942   2.536   1.698   1.372  1.0395 -2.2361 -0.2931
  311MOL0     H41943   2.593   1.533   1.226 -1.1785 -2.5844 -2.3917
  311MOL0     H41944   2.505   1.613   1.091 -1.3274 -0.1438 -0.5759
  311MOL0     H41945   2.258   1.323   1.343 -0.6102 -1.3464  1.4476
  311MOL0     H41946   2.122   1.155   1.354 -0.9472 -0.5746 -0.8467
  311MOL0     H41947   2.131   1.004   1.256 -0.8846 -0.9085  1.9506
  311MOL0     H41948   2.252   1.049   1.387  1.0686 -0.3181 -1.4297
  311MOL0     H41949   2.157   0.796   0.863  3.3704 -1.1521 -0.8763
  311MOL0     H41950   2.080   0.566   0.826 -1.9444 -0.9445  1.5153
  311MOL0     H41951   2.306   0.258   0.881  0.4013 -1.9310  0.8158
  311MOL0     H41952   2.304   0.250   1.055  1.1957 -2.2667 -0.5020
  311MOL0     H41953   2.114   0.118   0.875 -0.1489  0.4083  1.0896
  311MOL0     H41954   2.256   0.050   0.945 -0.0341  0.7354 -2.6039
  311MOL0     H41955   2.015   0.152   1.110  0.1742 -0.8956  3.3348
  311MOL0     H41956   2.167   0.078   1.165  1.4261 -2.5348 -1.1079
  311MOL0     H41957   1.963  -0.069   1.006  2.6663 -3.1479 -2.7843
  311MOL0     H41958   2.127  -0.133   1.038  0.3381  0.7263 -0.9600
  311MOL0     H41959   2.082  -0.094   1.285 -1.4987  2.4761  1.4098
  311MOL0     H41960   1.995  -0.221   1.228  1.5855 -0.2269  1.9148
  311MOL0     H41961   1.849  -0.110   1.364  0.8892  2.0232  1.3118
  311MOL0     H41962   1.916   0.055   1.316 -2.1818  0.3295  1.1242
  311MOL0     H41963   1.792   0.054   1.112 -0.3656  0.5141  0.9717
  311MOL0     H41964   1.704   0.053   1.249  3.1200  2.3087  0.2514
  311MOL0     H41965   1.728  -0.167   1.053 -1.5279  0.3548 -0.9601
  311MOL0     H41966   1.585  -0.089   1.095 -1.0793 -2.9453 -0.0187
  311MOL0     H41967   2.256   0.446   1.194  0.7936  2.0985  0.5786
  311MOL0     H41968   2.308   0.663   1.259  1.6539  1.4151  0.1717
  311MOL0     H41969   2.495   1.157   0.945 -2.1422  1.0243 -1.6231
  311MOL0     H41970   2.525   1.394   1.019  0.2842 -1.6191 -2.8272
  311MOL0     H41971   3.827   1.147   1.267  3.0549 -0.1133 -2.0129
  311MOL0     H41972   4.029   1.080   1.388 -2.1747 -0.9657 -0.9601
  311MOL0     H41973   4.397   1.184   1.579 -1.7635  0.3984 -0.2221
  311MOL0     H41974   4.605   1.121   1.664 -0.4612 -2.6831 -2.1897
  311MOL0     H41975   4.732   1.150   2.021  0.3450 -0.7859 -0.0420
  311MOL0     H41976   4.621   1.048   2.108 -1.7924 -2.2592 -1.3106
  311MOL0     H41977   4.904   0.976   2.013 -0.3808 -3.8064 -0.8346
  311MOL0     H41978   4.797   0.862   2.049  0.6909  0.3466 -4.8491
  311MOL0     H41979   4.925   0.883   2.238 -1.5347 -1.0389 -0.6581
  311MOL0     H41980   4.785   0.956   2.295 -0.4528 -1.0794 -0.3452
  311MOL0     H41981   4.875   1.185   2.193 -1.1765 -2.1465 -2.1109
  311MOL0     H41982   5.032   1.114   2.188  1.6812 -2.9251  3.3875
  311MOL0     H41983   4.999   1.171   2.611  0.9564 -1.0658  0.4592
  311MOL0     H41984   4.411   0.983   2.026 -0.1832 -2.0265 -1.2631
  311MOL0     H41985   4.217   1.099   1.964 -1.1199 -1.0615 -0.1051
  312MOL0     O41986   6.355   7.153   4.648  0.7955  0.5661  0.1798
  312MOL0     C41987   6.371   7.078   4.753  0.7262 -0.2579  0.1147
  312MOL0     O41988   6.279   7.063   4.850 -0.1019 -1.3923  0.0816
  312MOL0     C41989   6.146   7.095   4.834 -0.5506  0.2217  0.3194
  312MOL0     C41990   6.080   7.096   4.707 -1.0244  0.8244 -0.5662
  312MOL0     C41991   5.949   7.146   4.696 -0.4808  0.3071  0.2739
  312MOL0     C41992   5.874   7.171   4.811  0.0117 -0.4854 -0.0299
  312MOL0     O41993   5.751   7.235   4.800 -0.5011 -0.0394  0.2229
  312MOL0     C41994   5.642   7.164   4.857 -0.0519 -0.7997  0.3800
  312MOL0     C41995   5.514   7.268   4.841 -0.4147  0.1223 -2.0334
  312MOL0     C41996   5.383   7.211   4.904  0.6036  0.3583 -0.0645
  312MOL0     C41997   5.299   7.128   4.800  0.1119  0.6575  0.3916
  312MOL0     C41998   5.171   7.093   4.867 -0.5467 -0.3383  0.4363
  312MOL0     C41999   5.078   7.219   4.905 -0.0579  1.0999 -0.3447
  312MOL0     C42000   4.946   7.159   4.953 -0.5303 -0.4251  0.2309
  312MOL0     C42001   4.822   7.232   4.936  0.3705 -0.7056 -0.2365
  312MOL0     N42002   4.830   7.374   4.983 -0.5228  0.4825  0.0590
  312MOL0     C42003   4.845   7.409   5.115  1.1522  0.5882  0.0224
  312MOL0     C42004   4.854   7.545   5.116 -1.3159 -0.2944 -0.6134
  312MOL0     C42005   4.868   7.639   5.237 -0.1293 -0.1225 -0.6572
  312MOL0     C42006   5.012   7.637   5.301 -0.5448 -0.0724 -0.2870
  312MOL0     C42007   5.130   7.674   5.210  0.3076  0.8671  0.7563
  312MOL0     C42008   5.130   7.820   5.179 -0.5126 -0.1878 -0.1741
  312MOL0     O42009   5.256   7.861   5.111 -0.2797 -0.3951  0.5311
  312MOL0     C42010   5.265   7.834   4.976  0.0145  0.4089  0.7419
  312MOL0     C42011   5.159   7.802   4.889  0.4991  0.6765  0.1844
  312MOL0     C42012   5.166   7.778   4.752 -1.3824 -0.6295 -1.2046
  312MOL0     C42013   5.036   7.747   4.697 -0.1420 -0.1375  1.3096
  312MOL0     C42014   5.289   7.791   4.690  0.9656  0.5746 -0.2091
  312MOL0     C42015   5.289   7.782   4.549 -0.6802  0.0636 -0.1530
  312MOL0     O42016   5.409   7.736   4.501 -0.3645 -0.0186 -0.1196
  312MOL0     C42017   5.458   7.776   4.374 -0.7552  1.0693 -0.3493
  312MOL0     C42018   5.568   7.699   4.323  0.0717  0.7478 -0.0226
  312MOL0     C42019   5.629   7.725   4.195 -0.3493 -0.2708  1.1852
  312MOL0     C42020   5.585   7.824   4.113  0.3226  0.3446 -0.1687
  312MOL0     O42021   5.624   7.855   3.986 -0.0556  0.5180  0.2945
  312MOL0     C42022   5.729   7.785   3.909 -0.1804 -0.8797  0.2773
  312MOL0     C42023   5.866   7.849   3.944  0.8380  0.7420  0.2708
  312MOL0     C42024   5.972   7.784   3.858 -0.3774 -0.7214  0.2225
  312MOL0     C42025   5.993   7.831   3.716  0.5668  0.4840  0.0554
  312MOL0     C42026   6.073   7.957   3.710 -0.0267  0.4285 -0.0337
  312MOL0     C42027   6.122   7.990   3.570 -0.1763  0.2352 -0.7048
  312MOL0     C42028   6.228   8.100   3.574 -0.5726  0.6178  0.6498
  312MOL0     C42029   6.222   8.190   3.450 -0.0190 -0.5421 -0.6900
  312MOL0    Cl42030   6.303   8.352   3.468  0.2647  0.0435 -0.2165
  312MOL0     C42031   5.471   7.896   4.170 -0.4124  0.2323  0.6750
  312MOL0     C42032   5.405   7.874   4.294  0.4220 -0.3031  0.6902
  312MOL0     O42033   5.198   7.815   4.477  0.4856  0.2816 -0.3361
  312MOL0     C42034   5.405   7.822   4.773 -0.8856 -0.6247 -0.7510
  312MOL0     C42035   5.391   7.852   4.909 -0.3107  0.3042  0.4653
  312MOL0     N42036   4.840   7.581   4.981  0.6301 -0.6097  0.3881
  312MOL0     N42037   4.838   7.480   4.906 -0.1677 -0.7787  0.6829
  312MOL0     C42038   5.935   7.150   4.931  0.7266  0.7318 -0.6124
  312MOL0     C42039   6.070   7.116   4.947 -0.3088  0.3324  0.4713
  312MOL0     C42040   6.503   7.024   4.779 -0.3777 -0.2896  1.3597
  312MOL0     C42041   6.615   7.055   4.700  0.7819  0.9942 -0.4678
  312MOL0     C42042   6.740   7.033   4.739 -0.6108  0.0633 -1.4470
  312MOL0     C42043   6.761   6.965   4.863  0.0565  0.9551  0.6057
  312MOL0     O42044   6.884   6.942   4.907 -0.2229  0.7593 -0.6800
  312MOL0     C42045   6.910   6.825   4.994 -0.0831  0.4045 -0.4632
  312MOL0     C42046   6.991   6.734   4.913 -1.1453 -0.0065  0.2195
  312MOL0     C42047   7.038   6.598   4.973  0.1152  0.3912  0.9957
  312MOL0     C42048   6.919   6.505   5.025 -0.6719  0.0341  0.5421
  312MOL0     C42049   6.788   6.517   4.940 -0.0545  0.0544 -0.4265
  312MOL0     C42050   6.693   6.515   4.867 -0.5912  0.3227 -0.4003
  312MOL0     C42051   6.648   6.921   4.930 -0.1847 -0.3788 -0.5683
  312MOL0     C42052   6.522   6.945   4.891 -0.4724  0.3639  0.0561
  312MOL0     H42053   6.132   7.094   4.612  0.6165 -0.0474  0.3046
  312MOL0     H42054   5.905   7.166   4.599 -2.9686 -2.7879  0.5968
  312MOL0     H42055   5.621   7.081   4.788 -0.0334 -1.2442  0.8976
  312MOL0     H42056   5.654   7.134   4.962 -1.0155  1.1925  1.1247
  312MOL0     H42057   5.541   7.358   4.896  2.2589 -1.0202 -1.2636
  312MOL0     H42058   5.504   7.291   4.735  1.4093  1.0898 -2.0389
  312MOL0     H42059   5.384   7.147   4.992  1.0154 -2.1772 -1.7866
  312MOL0     H42060   5.335   7.306   4.931  0.0767  0.7632 -2.2178
  312MOL0     H42061   5.287   7.181   4.705 -1.0697 -1.6825 -0.8559
  312MOL0     H42062   5.363   7.042   4.777  1.5233  1.4308  1.2669
  312MOL0     H42063   5.125   7.020   4.800  0.3989 -0.1513 -0.4484
  312MOL0     H42064   5.189   7.036   4.959 -0.9134  1.2211  1.5060
  312MOL0     H42065   5.121   7.280   4.985  0.9544  0.5565 -0.4513
  312MOL0     H42066   5.064   7.284   4.818  0.7844  2.7590  0.7042
  312MOL0     H42067   4.934   7.067   4.896  0.2816 -0.1493 -0.4114
  312MOL0     H42068   4.967   7.117   5.052  3.5991  1.8391  0.5422
  312MOL0     H42069   4.742   7.171   4.980 -2.5155  1.6737 -1.8089
  312MOL0     H42070   4.804   7.247   4.829 -0.8389  1.5740  0.2228
  312MOL0     H42071   4.853   7.346   5.202  1.1884  1.7759  0.9038
  312MOL0     H42072   4.843   7.740   5.206  2.8720  1.3085  1.1580
  312MOL0     H42073   4.799   7.609   5.316 -1.7815  0.0216 -1.9838
  312MOL0     H42074   5.028   7.536   5.338 -1.5074 -0.2319 -0.2667
  312MOL0     H42075   5.008   7.705   5.387 -1.4981 -0.0220 -0.3564
  312MOL0     H42076   5.113   7.616   5.118  0.7583 -2.1506  2.4510
  312MOL0     H42077   5.228   7.650   5.251  1.9737 -0.3730 -3.4432
  312MOL0     H42078   5.129   7.878   5.272 -3.3612 -0.0293 -0.2092
  312MOL0     H42079   5.032   7.834   5.132 -1.3264 -0.6856  1.3084
  312MOL0     H42080   5.059   7.799   4.930  0.3881 -1.8555 -0.1309
  312MOL0     H42081   4.946   7.745   4.760 -3.1338  1.3170 -2.5072
  312MOL0     H42082   5.010   7.822   4.622  0.7366 -1.9999 -0.9831
  312MOL0     H42083   5.057   7.653   4.646 -3.4945  1.0268 -2.8146
  312MOL0     H42084   5.605   7.614   4.379  0.4782  1.2375  0.4684
  312MOL0     H42085   5.715   7.661   4.174 -2.9142 -3.2639 -1.2073
  312MOL0     H42086   5.717   7.677   3.920  0.7374 -0.9773  0.3432
  312MOL0     H42087   5.704   7.798   3.803 -0.5529  1.5404  0.5952
  312MOL0     H42088   5.865   7.958   3.945 -2.4493  0.9517  4.2181
  312MOL0     H42089   5.897   7.822   4.045  0.4163 -2.0593 -0.2584
  312MOL0     H42090   5.944   7.678   3.855 -4.5447  0.0661  2.9038
  312MOL0     H42091   6.071   7.799   3.902 -0.5820 -2.5013  1.4129
  312MOL0     H42092   6.039   7.749   3.660  0.7564  0.2800  0.5057
  312MOL0     H42093   5.901   7.849   3.659  1.8880  3.6294 -1.3079
  312MOL0     H42094   6.160   7.969   3.776 -1.4856  1.4580  1.7879
  312MOL0     H42095   6.010   8.041   3.740  0.5288  0.9017 -0.1877
  312MOL0     H42096   6.163   7.898   3.527 -1.0874  0.8409 -2.9899
  312MOL0     H42097   6.031   8.027   3.523 -1.7056 -0.5419  1.4579
  312MOL0     H42098   6.325   8.052   3.592  0.6650  1.5360 -2.7058
  312MOL0     H42099   6.193   8.162   3.657 -0.9717 -1.0404  1.7622
  312MOL0     H42100   6.119   8.215   3.423  0.1496  1.0114 -0.0043
  312MOL0     H42101   6.263   8.139   3.363  2.3289 -1.5661  0.9132
  312MOL0     H42102   5.431   7.972   4.103 -1.2477  0.7178  1.6930
  312MOL0     H42103   5.329   7.940   4.336 -1.1246 -1.8086  0.3657
  312MOL0     H42104   5.496   7.861   4.729 -0.5554 -0.1994  0.2732
  312MOL0     H42105   5.469   7.882   4.980 -0.6648 -1.8191  1.8522
  312MOL0     H42106   5.886   7.182   5.023 -1.3424 -0.9989 -1.0377
  312MOL0     H42107   6.108   7.113   5.049  1.4024  0.5520 -0.1320
  312MOL0     H42108   6.603   7.106   4.605  0.3472  3.1186  0.6561
  312MOL0     H42109   6.821   7.064   4.674 -0.5262 -0.4394 -1.5929
  312MOL0     H42110   6.961   6.850   5.088 -0.3820 -1.3943  0.2281
  312MOL0     H42111   6.821   6.767   5.021  0.7851 -2.3257 -2.9039
  312MOL0     H42112   7.076   6.793   4.877  0.7977 -4.4025 -3.4856
  312MOL0     H42113   6.954   6.713   4.812  0.8275  2.7147 -1.1854
  312MOL0     H42114   7.103   6.609   5.060 -1.1707  2.6921  1.7685
  312MOL0     H42115   7.095   6.547   4.895 -0.5747  2.0232 -0.6672
  312MOL0     H42116   6.903   6.542   5.127 -4.1120  1.2129 -0.3031
  312MOL0     H42117   6.937   6.397   5.032  2.5824  0.5674  2.3646
  312MOL0     H42118   6.605   6.523   4.806  0.3804  1.4928 -1.7031
  312MOL0     H42119   6.659   6.874   5.027 -1.2807 -3.2919 -1.7666
  312MOL0     H42120   6.446   6.921   4.965  0.9591 -1.6471  0.9649
  313MOL0     O42121   1.742   1.311   6.260 -0.1694 -0.2790  0.4502
  313MOL0     C42122   1.632   1.303   6.313 -0.7910  0.5698 -0.4184
  313MOL0     O42123   1.562   1.412   6.349 -0.0963  0.3779  0.4723
  313MOL0     C42124   1.600   1.534   6.309 -0.5761 -0.7718  0.3450
  313MOL0     C42125   1.561   1.582   6.183 -0.7410  0.6657  0.2002
  313MOL0     C42126   1.577   1.710   6.155 -0.2739 -0.0820  0.3317
  313MOL0     C42127   1.620   1.806   6.246 -0.2205  0.3024 -0.4211
  313MOL0     O42128   1.617   1.941   6.225 -0.0842  0.0213  0.1966
  313MOL0     C42129   1.618   1.997   6.096  0.0419 -0.0815  0.2065
  313MOL0     C42130   1.596   2.153   6.110  0.9300 -0.0412 -0.3649
  313MOL0     C42131   1.716   2.228   6.163  0.3203  0.9797 -0.2057
  313MOL0     C42132   1.696   2.262   6.313 -0.0218  0.1815  1.0721
  313MOL0     C42133   1.829   2.300   6.377 -0.1729 -0.1209  0.3138
  313MOL0     C42134   1.925   2.185   6.414 -0.5406  0.5829  0.0128
  313MOL0     C42135   1.871   2.058   6.479 -0.5897  0.3093  0.5356
  313MOL0     C42136   1.838   2.081   6.627  0.4759 -0.3969 -0.5218
  313MOL0     N42137   1.830   1.969   6.722 -0.3087 -0.1966  0.7298
  313MOL0     C42138   1.718   1.889   6.722  0.1005  0.2337  0.9503
  313MOL0     C42139   1.748   1.781   6.805  0.6252  0.3317  0.2776
  313MOL0     C42140   1.635   1.672   6.831 -0.5869  0.1911 -0.6261
  313MOL0     C42141   1.510   1.729   6.912 -0.0108 -0.0055  0.2598
  313MOL0     C42142   1.545   1.791   7.052 -0.4053 -0.4026  0.4830
  313MOL0     C42143   1.456   1.738   7.165  0.1637  0.7593  0.2168
  313MOL0     O42144   1.495   1.792   7.299  0.9029 -0.3666  0.0760
  313MOL0     C42145   1.589   1.726   7.380 -0.3644  0.1256 -1.2964
  313MOL0     C42146   1.676   1.625   7.332 -0.6563 -0.0284 -0.2755
  313MOL0     C42147   1.758   1.560   7.421  0.2692 -0.6837  0.3387
  313MOL0     C42148   1.849   1.457   7.351  0.0388 -0.7047 -0.9146
  313MOL0     C42149   1.760   1.581   7.562 -0.3329 -0.4556 -0.1884
  313MOL0     C42150   1.866   1.527   7.654  0.6233  1.0216 -0.6052
  313MOL0     O42151   1.995   1.494   7.612  0.2812 -0.0758  0.6568
  313MOL0     C42152   2.084   1.445   7.710 -0.2909 -0.9312 -0.3404
  313MOL0     C42153   2.064   1.366   7.816 -0.8722  0.3603  0.4921
  313MOL0     C42154   2.161   1.350   7.918  0.3656 -0.4458  1.3637
  313MOL0     C42155   2.278   1.429   7.920  0.9526  0.0060  0.4075
  313MOL0     O42156   2.371   1.406   8.017 -0.0081 -0.1047  0.3408
  313MOL0     C42157   2.492   1.480   8.021 -0.7567 -0.5261 -0.2372
  313MOL0     C42158   2.597   1.394   8.110 -1.0791 -0.3249 -0.2187
  313MOL0     C42159   2.619   1.249   8.066  0.2673 -0.0727  0.2470
  313MOL0     C42160   2.712   1.230   7.943  0.2161 -0.6457 -0.2275
  313MOL0     C42161   2.773   1.093   7.928  0.2911 -0.3818  0.0715
  313MOL0     C42162   2.672   0.991   7.873 -0.1783  0.1417 -0.2884
  313MOL0     C42163   2.609   1.016   7.740 -0.3953  0.4372  0.1360
  313MOL0     C42164   2.697   0.981   7.622  0.4617 -0.2360  0.0870
  313MOL0    Cl42165   2.599   0.997   7.472 -0.3842  0.0649 -0.0679
  313MOL0     C42166   2.298   1.520   7.810  0.0726  1.2014 -0.7989
  313MOL0     C42167   2.202   1.520   7.706 -1.1477 -0.2070  0.0992
  313MOL0     O42168   1.815   1.506   7.765 -0.8811 -0.0458 -0.4090
  313MOL0     C42169   1.675   1.684   7.608 -0.3833  0.3747 -0.0039
  313MOL0     C42170   1.591   1.756   7.517 -0.3444  0.2242 -0.8895
  313MOL0     N42171   1.878   1.796   6.841 -0.4001 -0.1934  0.2587
  313MOL0     N42172   1.927   1.906   6.797  0.2664  0.1459 -0.0342
  313MOL0     C42173   1.655   1.762   6.368  0.0865  0.0960 -0.1563
  313MOL0     C42174   1.650   1.630   6.406  0.7716 -0.7740 -0.5595
  313MOL0     C42175   1.589   1.179   6.374  0.0781  1.0310  0.1522
  313MOL0     C42176   1.447   1.154   6.384 -0.7329  0.5961  0.8421
  313MOL0     C42177   1.399   1.043   6.447 -0.2870 -0.0613 -1.2380
  313MOL0     C42178   1.493   0.954   6.501  0.9524  0.9226  0.5132
  313MOL0     O42179   1.453   0.851   6.580 -0.2874  0.3994  0.4445
  313MOL0     C42180   1.443   0.894   6.712  0.3586  1.0704 -0.1158
  313MOL0     C42181   1.308   0.850   6.766  0.3505 -0.3628 -0.0345
  313MOL0     C42182   1.190   0.947   6.735  0.6961  0.5396 -0.6550
  313MOL0     C42183   1.105   0.887   6.636  2.1326  0.0098  0.1633
  313MOL0     C42184   1.041   0.753   6.679 -0.1373 -0.4773 -0.0900
  313MOL0     C42185   1.006   0.645   6.718 -0.2800  0.3401 -0.4497
  313MOL0     C42186   1.630   0.970   6.487  0.4346  0.5568  0.0757
  313MOL0     C42187   1.677   1.086   6.429  1.2021 -0.6788  0.5351
  313MOL0     H42188   1.514   1.513   6.113 -3.1576  1.0637  1.3442
  313MOL0     H42189   1.540   1.754   6.064 -4.7054 -2.8164  0.5223
  313MOL0     H42190   1.706   1.965   6.039 -2.2414 -1.3283 -2.9408
  313MOL0     H42191   1.528   1.959   6.046  0.8980 -1.7430 -0.1450
  313MOL0     H42192   1.573   2.190   6.010  1.3188 -1.6775 -1.0906
  313MOL0     H42193   1.511   2.168   6.177  1.3635 -1.2660  0.4980
  313MOL0     H42194   1.807   2.167   6.153 -0.1233  0.6177 -2.4511
  313MOL0     H42195   1.748   2.319   6.111 -0.0571  0.8409 -0.6787
  313MOL0     H42196   1.633   2.352   6.313  0.8969  0.8665 -0.6933
  313MOL0     H42197   1.661   2.176   6.371  4.0412 -3.5760 -1.4188
  313MOL0     H42198   1.875   2.377   6.315 -0.0667  0.8534  1.5640
  313MOL0     H42199   1.805   2.354   6.469 -0.2496  2.1572 -0.9826
  313MOL0     H42200   1.973   2.153   6.322  0.0708 -0.4171  0.6596
  313MOL0     H42201   2.000   2.229   6.481  2.0559 -0.4142 -2.0682
  313MOL0     H42202   1.798   2.003   6.419  4.3389 -1.6919 -4.5165
  313MOL0     H42203   1.946   1.979   6.488 -0.8691 -0.2451 -1.4670
  313MOL0     H42204   1.745   2.140   6.630 -1.7667 -3.6677  2.0474
  313MOL0     H42205   1.915   2.148   6.665  0.5222  0.7049 -2.4555
  313MOL0     H42206   1.616   1.905   6.688 -1.0422 -4.2818  1.5712
  313MOL0     H42207   1.594   1.625   6.741 -2.9843  4.3995 -1.9743
  313MOL0     H42208   1.679   1.596   6.897 -2.3455  0.6341  1.1751
  313MOL0     H42209   1.448   1.639   6.920 -0.7259  0.1579 -2.3784
  313MOL0     H42210   1.463   1.800   6.842  1.5544 -1.3352 -2.2912
  313MOL0     H42211   1.546   1.899   7.039 -2.5112 -0.5285 -1.2738
  313MOL0     H42212   1.643   1.758   7.088 -1.4365 -1.9518  2.0676
  313MOL0     H42213   1.474   1.630   7.171 -5.2788 -0.3618  3.7126
  313MOL0     H42214   1.348   1.748   7.152  0.1623  1.9403  0.9666
  313MOL0     H42215   1.684   1.578   7.234  2.8434 -1.3312  0.4767
  313MOL0     H42216   1.793   1.428   7.261 -1.2153  2.7899 -1.4083
  313MOL0     H42217   1.938   1.506   7.311  1.8846 -2.2434  1.0810
  313MOL0     H42218   1.860   1.374   7.421  2.3097 -1.5726 -2.2035
  313MOL0     H42219   1.972   1.309   7.824  0.8120 -2.2808  2.8711
  313MOL0     H42220   2.143   1.281   8.000 -1.1256 -1.0730  0.5572
  313MOL0     H42221   2.543   1.495   7.925  1.2822 -0.2311  0.8343
  313MOL0     H42222   2.471   1.579   8.061 -1.0153 -0.4898 -0.4608
  313MOL0     H42223   2.695   1.442   8.121 -1.3110  0.2060 -0.4456
  313MOL0     H42224   2.555   1.394   8.211  0.5569 -3.8928  0.6176
  313MOL0     H42225   2.519   1.206   8.051 -2.0751  4.4915  0.8854
  313MOL0     H42226   2.670   1.200   8.149 -2.0005 -2.1932  0.5152
  313MOL0     H42227   2.668   1.265   7.849 -0.4824  1.6311  0.8744
  313MOL0     H42228   2.795   1.299   7.964  1.5976 -2.4734  0.5699
  313MOL0     H42229   2.801   1.055   8.027  3.2815  1.3755  0.0002
  313MOL0     H42230   2.854   1.081   7.856 -0.0544  1.9093 -0.7709
  313MOL0     H42231   2.710   0.891   7.892 -2.2573 -0.6294  0.0666
  313MOL0     H42232   2.584   1.006   7.936  0.1596  2.4550 -0.2689
  313MOL0     H42233   2.589   1.123   7.723  1.5193  1.4406  3.3513
  313MOL0     H42234   2.516   0.960   7.730  1.5926 -3.5043  1.8328
  313MOL0     H42235   2.733   0.878   7.621 -1.9724 -1.2470  2.5850
  313MOL0     H42236   2.773   1.058   7.638 -0.1819  0.5016 -0.2804
  313MOL0     H42237   2.386   1.583   7.816 -0.5968  2.3335 -2.3483
  313MOL0     H42238   2.211   1.580   7.615  1.2958 -3.0681 -1.7239
  313MOL0     H42239   1.682   1.723   7.709  0.2535  0.0512  0.0813
  313MOL0     H42240   1.529   1.839   7.549  2.5675  2.1479  0.1285
  313MOL0     H42241   1.683   1.834   6.445 -3.7419  0.9038  0.6886
  313MOL0     H42242   1.680   1.605   6.507 -0.7449  2.1520  0.7354
  313MOL0     H42243   1.382   1.198   6.309  0.9841 -2.1457 -2.5143
  313MOL0     H42244   1.292   1.023   6.443  0.0452 -3.7316  2.0542
  313MOL0     H42245   1.526   0.840   6.760 -0.2559 -0.0894 -0.3018
  313MOL0     H42246   1.475   0.998   6.723  0.2702  0.8320  3.1651
  313MOL0     H42247   1.311   0.842   6.875 -1.3468  0.4772  0.1146
  313MOL0     H42248   1.281   0.754   6.721  0.7456  0.1638 -1.4330
  313MOL0     H42249   1.220   1.049   6.709  1.6342 -0.5212 -4.3680
  313MOL0     H42250   1.126   0.948   6.823  2.4450  1.3581  0.6656
  313MOL0     H42251   1.160   0.867   6.544  1.2369 -2.8748  0.1657
  313MOL0     H42252   1.021   0.954   6.616  3.6015  1.9215  0.1449
  313MOL0     H42253   0.956   0.554   6.745  0.5019  0.3578  1.2104
  313MOL0     H42254   1.700   0.893   6.519  1.2255  0.9434 -0.6683
  313MOL0     H42255   1.785   1.098   6.430  1.0785  1.0242 -1.0041
  314MOL0     O42256   1.431   7.858   6.371  0.6291  1.0629  0.6596
  314MOL0     C42257   1.449   7.792   6.271  0.1517  0.4279  0.5243
  314MOL0     O42258   1.534   7.814   6.163 -0.2031 -1.1234 -0.1624
  314MOL0     C42259   1.641   7.905   6.159  0.2902  0.6345 -0.4738
  314MOL0     C42260   1.734   7.893   6.062 -0.6072  0.1070  0.3961
  314MOL0     C42261   1.842   7.985   6.055 -0.0072 -0.0725 -0.1574
  314MOL0     C42262   1.848   8.106   6.131  0.4236  0.3685 -0.6997
  314MOL0     O42263   1.962   8.187   6.116 -0.2343 -0.0930 -0.2697
  314MOL0     C42264   1.961   8.298   6.204  0.0070  0.2565  0.8852
  314MOL0     C42265   2.087   8.389   6.162  0.7510  0.0721  0.4959
  314MOL0     C42266   2.208   8.319   6.209  0.7951 -0.3332 -0.4301
  314MOL0     C42267   2.329   8.413   6.229 -0.1985 -0.2443 -0.1904
  314MOL0     C42268   2.458   8.371   6.153  0.2148 -0.4486  0.0808
  314MOL0     C42269   2.533   8.239   6.210  0.3378 -1.1909  0.2037
  314MOL0     C42270   2.679   8.247   6.164  0.1015 -0.0702  0.4794
  314MOL0     C42271   2.751   8.113   6.164  0.7033  0.3190 -0.0405
  314MOL0     N42272   2.715   8.037   6.039  0.0878 -0.3183  0.8940
  314MOL0     C42273   2.744   8.065   5.907 -0.2807 -0.6094  0.3543
  314MOL0     C42274   2.699   7.965   5.826 -1.3659 -0.3288  0.7649
  314MOL0     C42275   2.729   7.944   5.676 -0.0476  0.2524 -0.8073
  314MOL0     C42276   2.769   7.801   5.653  0.3842 -0.5488 -0.3259
  314MOL0     C42277   2.863   7.779   5.530 -0.7571  0.6262 -0.1350
  314MOL0     C42278   2.908   7.628   5.518 -0.5373 -0.0502 -0.1337
  314MOL0     O42279   2.954   7.591   5.647 -0.1758  0.2389 -0.8674
  314MOL0     C42280   3.089   7.609   5.673 -0.6350  0.3616  0.5943
  314MOL0     C42281   3.181   7.698   5.614 -0.2155 -0.0523 -0.0026
  314MOL0     C42282   3.319   7.699   5.641  0.3221 -0.3395  0.3824
  314MOL0     C42283   3.393   7.799   5.553  0.3833  0.5706  0.2296
  314MOL0     C42284   3.365   7.611   5.745 -0.4198  0.1868  0.6515
  314MOL0     C42285   3.506   7.592   5.788  0.2893  0.2207  0.3245
  314MOL0     O42286   3.586   7.670   5.719 -0.0817 -0.6193 -0.1540
  314MOL0     C42287   3.707   7.705   5.780  0.2549  1.3139 -0.0985
  314MOL0     C42288   3.818   7.707   5.699  0.2073  0.0483  0.2394
  314MOL0     C42289   3.937   7.758   5.757  1.2509 -1.1817  0.3006
  314MOL0     C42290   3.945   7.797   5.884 -0.7788 -0.0774 -0.6226
  314MOL0     O42291   4.053   7.853   5.947  0.0357  0.2746  0.6175
  314MOL0     C42292   4.163   7.876   5.866  0.3770  0.9257  0.2358
  314MOL0     C42293   4.246   7.968   5.964  0.5922  0.6372 -0.1840
  314MOL0     C42294   4.260   8.105   5.919  0.1209 -1.2394  0.7708
  314MOL0     C42295   4.132   8.197   5.910  0.1446  0.6438 -0.7491
  314MOL0     C42296   4.160   8.348   5.908  0.6461  0.7069  0.2652
  314MOL0     C42297   4.024   8.421   5.870 -0.0341 -0.2650  0.9117
  314MOL0     C42298   4.031   8.566   5.920  0.5062  0.2850  1.2821
  314MOL0     C42299   3.884   8.630   5.916  0.1961 -0.0342 -0.1625
  314MOL0    Cl42300   3.784   8.553   6.036  0.1308 -0.0270 -0.2954
  314MOL0     C42301   3.830   7.794   5.957 -0.4334 -0.2018  0.0091
  314MOL0     C42302   3.713   7.755   5.905 -0.5340 -1.1611  0.2151
  314MOL0     O42303   3.537   7.524   5.885 -0.3989  0.5062 -0.0477
  314MOL0     C42304   3.264   7.519   5.809 -1.2539 -0.4472 -0.3098
  314MOL0     C42305   3.135   7.526   5.771 -0.0327  0.3202 -0.8941
  314MOL0     N42306   2.647   7.873   5.914  0.7576  0.1642 -0.4789
  314MOL0     N42307   2.639   7.924   6.042 -0.8891  0.1372  0.0108
  314MOL0     C42308   1.738   8.117   6.227  0.3212  0.4645 -0.0117
  314MOL0     C42309   1.640   8.018   6.233 -0.3265 -1.1212  0.1754
  314MOL0     C42310   1.366   7.673   6.254 -0.3571 -0.1279  0.2682
  314MOL0     C42311   1.313   7.609   6.364 -0.4935  0.4407 -0.2254
  314MOL0     C42312   1.248   7.487   6.359 -0.4102  0.0807  0.1422
  314MOL0     C42313   1.226   7.432   6.232 -0.5800  0.9099  0.5155
  314MOL0     O42314   1.166   7.308   6.246  0.6362  1.0820  0.4068
  314MOL0     C42315   1.117   7.243   6.127  0.7117  0.1722 -0.8792
  314MOL0     C42316   1.033   7.117   6.154 -1.1192  0.4458 -0.0185
  314MOL0     C42317   0.913   7.141   6.239  0.2307  0.9288 -0.6150
  314MOL0     C42318   0.848   7.012   6.288  0.7930  0.1527 -0.1682
  314MOL0     C42319   0.783   6.935   6.177  0.2614 -0.1505  0.2209
  314MOL0     C42320   0.758   6.871   6.074 -0.5552 -0.4542 -0.3859
  314MOL0     C42321   1.268   7.503   6.117 -0.1306  1.0865 -0.6329
  314MOL0     C42322   1.343   7.621   6.126  0.6117  0.9014 -0.1355
  314MOL0     H42323   1.740   7.799   6.008 -2.2003  0.5184 -0.5413
  314MOL0     H42324   1.928   7.970   5.990  0.3931 -1.4316  0.6355
  314MOL0     H42325   1.866   8.352   6.205 -2.6538 -3.9705  2.3216
  314MOL0     H42326   1.975   8.256   6.304 -1.3890  0.3402  1.1245
  314MOL0     H42327   2.087   8.381   6.052  1.9252  0.2732  0.4736
  314MOL0     H42328   2.085   8.493   6.196 -2.5385  0.0721  0.5915
  314MOL0     H42329   2.208   8.279   6.311  3.8189 -0.1315 -0.2618
  314MOL0     H42330   2.239   8.240   6.140  0.0200 -1.0353  0.0022
  314MOL0     H42331   2.301   8.513   6.195  1.6721  0.1320 -0.7283
  314MOL0     H42332   2.360   8.419   6.334  1.7232  0.3728 -0.7468
  314MOL0     H42333   2.437   8.340   6.050 -3.9785 -0.8141  0.8878
  314MOL0     H42334   2.526   8.456   6.161  1.1138 -1.2438  1.1908
  314MOL0     H42335   2.529   8.249   6.319 -1.1710  1.0545  0.0279
  314MOL0     H42336   2.477   8.149   6.184 -4.7939  1.3667  1.0523
  314MOL0     H42337   2.684   8.281   6.060 -0.4822 -0.5786  0.2860
  314MOL0     H42338   2.738   8.312   6.230  0.7624  0.0302 -0.1944
  314MOL0     H42339   2.722   8.058   6.253  4.0790 -0.7395  0.5550
  314MOL0     H42340   2.859   8.130   6.171  1.3915 -2.6197 -1.9320
  314MOL0     H42341   2.804   8.145   5.865 -1.9646 -0.9688 -3.1062
  314MOL0     H42342   2.632   7.956   5.626  0.1585  1.7855 -0.8856
  314MOL0     H42343   2.795   8.023   5.639  1.1617 -0.7461 -0.8496
  314MOL0     H42344   2.674   7.749   5.641 -0.8916  0.9681  2.3177
  314MOL0     H42345   2.822   7.765   5.742 -0.8256  0.2029  0.7312
  314MOL0     H42346   2.948   7.835   5.570  0.1933 -0.4295 -0.6511
  314MOL0     H42347   2.841   7.839   5.441  0.9146  0.1480 -0.8930
  314MOL0     H42348   2.988   7.612   5.445 -0.1485  0.7706  0.1044
  314MOL0     H42349   2.815   7.573   5.495 -1.4495 -0.5109  3.9130
  314MOL0     H42350   3.146   7.764   5.535 -1.8893  5.0125  4.3494
  314MOL0     H42351   3.397   7.899   5.598  0.9126  1.6320 -2.0526
  314MOL0     H42352   3.486   7.762   5.509 -0.7360 -1.0769 -0.8915
  314MOL0     H42353   3.339   7.833   5.464  0.9696  1.0721  0.0583
  314MOL0     H42354   3.801   7.673   5.597 -1.4451  0.3641  0.3872
  314MOL0     H42355   4.023   7.760   5.692 -0.9298 -2.8672 -2.8927
  314MOL0     H42356   4.212   7.783   5.838  0.3948  1.2193 -0.7726
  314MOL0     H42357   4.134   7.943   5.784 -2.7904  0.0374  0.4956
  314MOL0     H42358   4.196   7.970   6.061 -2.0372  2.5049 -1.4500
  314MOL0     H42359   4.340   7.916   5.985 -1.5193 -4.4311 -1.8201
  314MOL0     H42360   4.314   8.106   5.824  0.0529  1.5523  0.6718
  314MOL0     H42361   4.330   8.155   5.987  2.2567 -1.3506 -1.2336
  314MOL0     H42362   4.084   8.159   5.819 -0.9553  0.7074 -0.2061
  314MOL0     H42363   4.066   8.170   5.993  1.3640  1.1598  0.4245
  314MOL0     H42364   4.241   8.352   5.835 -0.7102 -0.5366 -1.4153
  314MOL0     H42365   4.189   8.373   6.011 -1.4034 -1.3660  1.4330
  314MOL0     H42366   4.014   8.416   5.761 -1.3226  0.6129  0.9629
  314MOL0     H42367   3.930   8.375   5.902  0.1310 -0.5099  1.0493
  314MOL0     H42368   4.097   8.631   5.863  1.1298  0.2058  1.9060
  314MOL0     H42369   4.065   8.562   6.024 -0.0009 -0.1246  1.4422
  314MOL0     H42370   3.842   8.645   5.816 -0.0726 -0.6603 -0.1461
  314MOL0     H42371   3.901   8.730   5.958  2.3781 -0.0987 -0.7706
  314MOL0     H42372   3.822   7.839   6.055  1.0028  0.4405 -0.1442
  314MOL0     H42373   3.627   7.775   5.968  0.5420 -0.7182  1.5863
  314MOL0     H42374   3.303   7.454   5.886  5.0312  2.1996 -0.6414
  314MOL0     H42375   3.062   7.460   5.816  1.7624 -1.1452  0.0255
  314MOL0     H42376   1.736   8.199   6.298 -0.3275  0.7976 -0.4076
  314MOL0     H42377   1.559   8.044   6.302  0.1512 -1.6293  0.9413
  314MOL0     H42378   1.327   7.645   6.466  1.1817 -0.9389  0.0968
  314MOL0     H42379   1.221   7.442   6.454  0.6403 -0.0121  0.4099
  314MOL0     H42380   1.042   7.305   6.079  0.5233  1.0457  0.4896
  314MOL0     H42381   1.202   7.221   6.061  1.8424  1.4257  0.1101
  314MOL0     H42382   1.096   7.040   6.199 -0.4917 -0.2460 -1.9919
  314MOL0     H42383   1.019   7.066   6.058  2.1085  1.0325 -0.9363
  314MOL0     H42384   0.835   7.175   6.170 -0.9309  0.5784  0.4703
  314MOL0     H42385   0.917   7.228   6.306  0.7220  0.9074 -0.6124
  314MOL0     H42386   0.762   7.042   6.349 -1.8602 -4.0510 -1.3539
  314MOL0     H42387   0.925   6.956   6.342  0.6115  0.1881  0.1253
  314MOL0     H42388   0.741   6.820   5.981 -0.1415 -1.4679  0.0734
  314MOL0     H42389   1.258   7.464   6.016  3.2716 -1.1307 -0.2562
  314MOL0     H42390   1.376   7.673   6.037 -2.0954  2.5961 -0.2689
  315MOL0     O42391   5.995   2.317   3.925 -0.3461 -0.3954  0.2566
  315MOL0     C42392   5.880   2.295   3.889 -0.1333  0.3227 -0.2977
  315MOL0     O42393   5.801   2.387   3.842 -0.3158  0.9552  1.1546
  315MOL0     C42394   5.822   2.524   3.860 -0.0837  1.3332 -0.5915
  315MOL0     C42395   5.892   2.585   3.967  0.8764  0.6283  0.4088
  315MOL0     C42396   5.891   2.729   3.968 -1.1350 -0.3333  0.5988
  315MOL0     C42397   5.830   2.807   3.866 -0.1249 -1.2813 -0.7419
  315MOL0     O42398   5.825   2.943   3.881  0.4729 -0.0682  0.2665
  315MOL0     C42399   5.876   3.024   3.989 -0.7514  1.1843  0.3581
  315MOL0     C42400   5.793   3.019   4.116 -0.7253 -0.3952 -0.0852
  315MOL0     C42401   5.835   3.123   4.222 -0.2081 -0.7773  0.0860
  315MOL0     C42402   5.714   3.193   4.286 -0.0486 -0.7615  0.0516
  315MOL0     C42403   5.762   3.275   4.408  0.5278  0.9388  0.1455
  315MOL0     C42404   5.847   3.405   4.372 -0.2500 -0.1265 -0.5321
  315MOL0     C42405   5.762   3.514   4.307  0.4745 -0.3103  0.5866
  315MOL0     C42406   5.736   3.634   4.389  1.6193  0.1957 -0.2063
  315MOL0     N42407   5.612   3.618   4.467  0.5123 -0.5136  0.4790
  315MOL0     C42408   5.616   3.566   4.591 -0.8667 -0.6323  1.1110
  315MOL0     C42409   5.481   3.557   4.613  0.3496  0.7005 -0.2880
  315MOL0     C42410   5.419   3.479   4.721 -0.2790  0.1054  0.6476
  315MOL0     C42411   5.447   3.553   4.849  0.0390  0.0602 -0.5936
  315MOL0     C42412   5.365   3.507   4.970  0.2046 -0.2477  0.7233
  315MOL0     C42413   5.410   3.590   5.092 -0.2553  0.6221 -0.3690
  315MOL0     O42414   5.420   3.731   5.076 -0.3124 -0.0873 -0.6088
  315MOL0     C42415   5.411   3.810   5.192 -0.2402  0.4360  0.4663
  315MOL0     C42416   5.405   3.769   5.330  0.8666 -0.4925 -0.8343
  315MOL0     C42417   5.382   3.871   5.431 -1.0725 -0.3174 -0.1448
  315MOL0     C42418   5.354   3.815   5.569  0.1664  0.2102 -0.3055
  315MOL0     C42419   5.366   4.011   5.388  0.1763 -0.4314 -0.8150
  315MOL0     C42420   5.340   4.118   5.483  0.0462  0.7024 -0.0687
  315MOL0     O42421   5.320   4.246   5.423 -0.8408  0.5032  0.4419
  315MOL0     C42422   5.283   4.350   5.500  0.1490 -0.0505 -0.8594
  315MOL0     C42423   5.326   4.476   5.447 -0.5600 -0.0090  0.1892
  315MOL0     C42424   5.279   4.597   5.510 -0.6168  0.0651  0.3167
  315MOL0     C42425   5.200   4.599   5.632 -1.0960 -0.0574 -0.0643
  315MOL0     O42426   5.143   4.711   5.683 -0.8487 -0.1038  1.0280
  315MOL0     C42427   5.207   4.842   5.690 -0.9128  1.3254 -0.6501
  315MOL0     C42428   5.098   4.948   5.675 -0.2898 -0.0294  0.3131
  315MOL0     C42429   5.073   5.003   5.534  0.8717 -0.9328 -0.5429
  315MOL0     C42430   4.964   5.110   5.524 -0.8365 -0.3686 -1.1800
  315MOL0     C42431   4.825   5.063   5.571  0.8540 -0.4842  0.6522
  315MOL0     C42432   4.706   5.156   5.538  0.1408  0.4241 -0.4846
  315MOL0     C42433   4.573   5.094   5.599  0.0863 -0.8463  0.1969
  315MOL0     C42434   4.546   4.941   5.574  0.3022  0.0725 -0.9746
  315MOL0    Cl42435   4.411   4.904   5.683 -0.3162  0.0136 -0.0311
  315MOL0     C42436   5.163   4.472   5.681 -0.2966  0.1460 -0.9777
  315MOL0     C42437   5.204   4.352   5.625  0.6609  0.7427 -1.0748
  315MOL0     O42438   5.357   4.101   5.598 -0.1883 -0.4859 -0.2415
  315MOL0     C42439   5.369   4.047   5.254  0.5007 -1.3089  0.0108
  315MOL0     C42440   5.396   3.948   5.159  0.0301  0.4324  1.1603
  315MOL0     N42441   5.407   3.641   4.533 -0.6150 -0.2555 -0.5283
  315MOL0     N42442   5.487   3.674   4.441 -0.5845  0.0410 -0.5762
  315MOL0     C42443   5.770   2.743   3.760 -1.0336  0.3117 -0.3022
  315MOL0     C42444   5.765   2.605   3.764 -0.6503  0.1682  0.8035
  315MOL0     C42445   5.818   2.167   3.932 -0.4576  0.5090  0.0507
  315MOL0     C42446   5.887   2.063   3.981 -0.9685 -0.0293 -0.0469
  315MOL0     C42447   5.823   1.945   4.033 -0.6708 -0.4898  0.4796
  315MOL0     C42448   5.686   1.925   4.030 -0.2937 -0.7525  1.0114
  315MOL0     O42449   5.604   1.823   4.077 -0.8642 -0.1903 -0.6595
  315MOL0     C42450   5.642   1.770   4.204  0.3003 -0.9527 -0.2766
  315MOL0     C42451   5.590   1.624   4.210  1.0575 -0.2006  0.4171
  315MOL0     C42452   5.451   1.593   4.131 -0.1956  0.3108 -0.4165
  315MOL0     C42453   5.330   1.635   4.205 -0.0458 -0.1651  0.2844
  315MOL0     C42454   5.298   1.539   4.308  0.5751  0.5266  0.4542
  315MOL0     C42455   5.267   1.451   4.389  1.0963  0.8801 -0.2590
  315MOL0     C42456   5.622   2.030   3.960 -0.7633 -0.6917  0.4623
  315MOL0     C42457   5.683   2.145   3.913  0.8686 -0.6759 -1.0172
  315MOL0     H42458   5.939   2.514   4.034  0.2414 -2.0529 -1.8225
  315MOL0     H42459   5.927   2.781   4.056 -1.2273  1.0288 -0.1546
  315MOL0     H42460   5.976   2.989   4.016 -1.8037 -2.0842  0.4748
  315MOL0     H42461   5.873   3.126   3.951 -0.9147  0.2653 -2.3303
  315MOL0     H42462   5.691   3.049   4.091  0.0018  1.7348 -0.7069
  315MOL0     H42463   5.794   2.922   4.166  2.1232  0.2259  1.2677
  315MOL0     H42464   5.901   3.079   4.297 -0.2116  0.1779  0.6738
  315MOL0     H42465   5.896   3.195   4.166  0.4863  2.4907  4.5184
  315MOL0     H42466   5.667   3.264   4.218  0.9309  1.3584  1.4514
  315MOL0     H42467   5.649   3.112   4.321 -0.6560  0.1825  1.2063
  315MOL0     H42468   5.674   3.298   4.468  0.8509 -0.7121  1.3055
  315MOL0     H42469   5.822   3.209   4.472 -1.1384  1.2579  2.1248
  315MOL0     H42470   5.891   3.450   4.462 -0.0614  0.8356 -1.0901
  315MOL0     H42471   5.925   3.368   4.306 -0.5045 -5.2391  1.6187
  315MOL0     H42472   5.832   3.561   4.237  1.3230  0.8808  2.1883
  315MOL0     H42473   5.674   3.468   4.261  1.0923 -1.9748  0.9727
  315MOL0     H42474   5.725   3.724   4.328 -4.5831  0.3540  0.4862
  315MOL0     H42475   5.812   3.652   4.465 -0.8608 -1.2230  2.8373
  315MOL0     H42476   5.683   3.508   4.653 -1.9531 -1.0076  1.9699
  315MOL0     H42477   5.313   3.473   4.694 -0.1846 -1.6141  0.5974
  315MOL0     H42478   5.462   3.380   4.735 -4.0255 -1.2414  7.5313
  315MOL0     H42479   5.441   3.660   4.828 -1.3927 -0.4117 -2.8916
  315MOL0     H42480   5.552   3.528   4.868  0.8939  1.4775 -3.0743
  315MOL0     H42481   5.381   3.402   4.996  3.6349  0.5075  2.1502
  315MOL0     H42482   5.257   3.518   4.959  0.0673 -0.8407  1.4204
  315MOL0     H42483   5.505   3.546   5.125 -1.7339 -1.9803  0.7165
  315MOL0     H42484   5.349   3.563   5.179  2.5475 -3.0122  0.6955
  315MOL0     H42485   5.414   3.664   5.357  2.3129 -0.2382 -0.2811
  315MOL0     H42486   5.393   3.715   5.591 -2.7170 -0.4640  2.3575
  315MOL0     H42487   5.395   3.878   5.648 -3.3885 -0.2865  2.1477
  315MOL0     H42488   5.245   3.806   5.570  0.0167 -0.2633 -4.0792
  315MOL0     H42489   5.392   4.483   5.362  2.1247 -1.0929  2.0382
  315MOL0     H42490   5.315   4.690   5.466  2.3707 -1.3666 -0.5237
  315MOL0     H42491   5.247   4.864   5.789 -0.7286  5.2988 -1.4399
  315MOL0     H42492   5.288   4.865   5.620  0.7524 -1.0377  0.3738
  315MOL0     H42493   5.010   4.906   5.725 -0.5789  0.9498  0.6468
  315MOL0     H42494   5.137   5.031   5.734  2.1740 -0.2828 -0.8407
  315MOL0     H42495   5.054   4.917   5.469  0.0201 -3.2831  2.5556
  315MOL0     H42496   5.169   5.046   5.503  0.4503  0.5037  0.0987
  315MOL0     H42497   5.003   5.194   5.582 -1.2785 -1.1372  0.2874
  315MOL0     H42498   4.957   5.135   5.418 -2.8593 -3.7061 -1.9938
  315MOL0     H42499   4.828   5.056   5.680  2.3756 -0.8538  0.5997
  315MOL0     H42500   4.812   4.965   5.524 -3.0542  0.1804 -0.0277
  315MOL0     H42501   4.714   5.256   5.582  0.8192 -0.2415  0.9974
  315MOL0     H42502   4.707   5.160   5.429  0.8815  0.3235 -0.4820
  315MOL0     H42503   4.495   5.162   5.563  0.9844  0.2541  0.2602
  315MOL0     H42504   4.562   5.112   5.706 -0.0385 -0.8399  0.1825
  315MOL0     H42505   4.634   4.878   5.592  0.0719 -0.1187 -0.5013
  315MOL0     H42506   4.504   4.931   5.473  0.8182 -1.5319 -1.0687
  315MOL0     H42507   5.097   4.481   5.767  1.0546  2.4157 -0.0798
  315MOL0     H42508   5.163   4.257   5.658  2.0943  0.3318 -0.3832
  315MOL0     H42509   5.339   4.144   5.217 -3.0928 -2.1704  0.2517
  315MOL0     H42510   5.408   3.978   5.056  1.2311  1.6781  1.6225
  315MOL0     H42511   5.718   2.797   3.682  0.1304  1.0699 -0.5681
  315MOL0     H42512   5.712   2.564   3.679 -3.4148  2.0210  1.4957
  315MOL0     H42513   5.994   2.073   3.998 -1.1167  1.5657  0.0781
  315MOL0     H42514   5.891   1.883   4.089 -1.2526 -0.6226  1.0526
  315MOL0     H42515   5.751   1.780   4.210  0.0672  1.8876  1.2580
  315MOL0     H42516   5.609   1.826   4.292 -0.1614  1.5958 -1.9498
  315MOL0     H42517   5.583   1.577   4.308  1.9503 -0.1988  0.4931
  315MOL0     H42518   5.660   1.561   4.154  1.4986 -1.4194  2.2402
  315MOL0     H42519   5.460   1.490   4.097  6.3455  0.8458 -1.7737
  315MOL0     H42520   5.447   1.646   4.035 -0.4572  0.7133 -0.1849
  315MOL0     H42521   5.246   1.652   4.137 -0.4557  0.1638  0.8620
  315MOL0     H42522   5.360   1.732   4.245 -0.6742  0.6111 -1.0729
  315MOL0     H42523   5.245   1.389   4.474 -3.4930  0.1425 -1.7265
  315MOL0     H42524   5.514   2.034   3.953 -0.6281  0.6592 -2.0018
  315MOL0     H42525   5.610   2.211   3.868 -0.9416 -2.5389 -0.9767
  316MOL0     O42526   3.079   6.798   4.693 -0.7369 -0.3256 -0.2569
  316MOL0     C42527   3.124   6.878   4.606  0.3136 -0.2065  0.0222
  316MOL0     O42528   3.122   6.849   4.478  0.1820 -0.4388  0.6770
  316MOL0     C42529   3.035   6.752   4.435  0.6263  0.9297 -0.0086
  316MOL0     C42530   2.897   6.747   4.466 -0.2850 -0.3621 -0.0292
  316MOL0     C42531   2.821   6.649   4.399  1.2017  0.9245 -1.3441
  316MOL0     C42532   2.875   6.568   4.303 -0.5750 -0.0318  0.0247
  316MOL0     O42533   2.780   6.498   4.234  0.3085  0.0930  0.6662
  316MOL0     C42534   2.815   6.458   4.100  0.5760 -0.5797 -0.2514
  316MOL0     C42535   2.850   6.310   4.100  1.1157 -0.0594 -0.3495
  316MOL0     C42536   2.884   6.258   3.950  0.5810 -0.2595  0.2788
  316MOL0     C42537   2.772   6.241   3.853  0.0213  0.2454 -0.1632
  316MOL0     C42538   2.819   6.233   3.703 -0.2038 -0.4884 -0.2582
  316MOL0     C42539   2.827   6.376   3.636 -0.3557  0.8220  0.1339
  316MOL0     C42540   2.834   6.359   3.479 -0.6422 -0.4779  0.1796
  316MOL0     C42541   2.823   6.498   3.405  0.7155 -0.3525  0.2580
  316MOL0     N42542   2.701   6.579   3.441 -0.7942  0.2810 -0.6786
  316MOL0     C42543   2.574   6.544   3.490  0.2585  0.8627 -0.2080
  316MOL0     C42544   2.504   6.658   3.501 -0.1048 -0.1891  0.3961
  316MOL0     C42545   2.360   6.668   3.549  0.1289 -1.0536 -0.4365
  316MOL0     C42546   2.344   6.734   3.687  0.3212 -0.4718  0.8290
  316MOL0     C42547   2.202   6.730   3.746 -0.4085  0.7221  1.0190
  316MOL0     C42548   2.091   6.808   3.669  0.0013 -0.5057  0.1327
  316MOL0     O42549   2.143   6.931   3.606 -0.1083  0.5344  0.8528
  316MOL0     C42550   2.176   7.047   3.668  0.0983 -0.4439 -0.8736
  316MOL0     C42551   2.250   7.143   3.601 -0.4398  1.0216  0.0724
  316MOL0     C42552   2.293   7.264   3.657 -0.4599  0.1619 -0.1120
  316MOL0     C42553   2.374   7.343   3.560  0.0562  0.0066  0.4322
  316MOL0     C42554   2.260   7.294   3.791 -0.2735 -0.1284 -0.2262
  316MOL0     C42555   2.285   7.431   3.857 -0.6115 -0.3052 -0.5416
  316MOL0     O42556   2.219   7.465   3.972  0.5997  0.4684 -0.0464
  316MOL0     C42557   2.210   7.591   4.023  0.8632 -0.8086  0.0508
  316MOL0     C42558   2.097   7.614   4.098  0.8942  0.1234 -0.0042
  316MOL0     C42559   2.082   7.723   4.179 -1.8382 -0.6048  0.1592
  316MOL0     C42560   2.178   7.829   4.167 -0.0688  0.3702 -0.4910
  316MOL0     O42561   2.167   7.947   4.232 -0.4717 -0.0575  0.2386
  316MOL0     C42562   2.078   7.962   4.335  0.0798  0.2687  0.5269
  316MOL0     C42563   2.093   8.110   4.382  0.4913  0.9301  0.2395
  316MOL0     C42564   1.991   8.150   4.493  0.3968  0.1887  0.8666
  316MOL0     C42565   1.985   8.061   4.608 -0.7068  0.2356  0.2726
  316MOL0     C42566   2.070   8.106   4.726 -0.1651 -0.4940  0.5478
  316MOL0     C42567   2.200   8.039   4.750  0.2893 -0.6914  0.1226
  316MOL0     C42568   2.178   7.908   4.835  0.6344  0.4817  1.8130
  316MOL0     C42569   2.300   7.824   4.843  1.2943  0.5740 -0.3801
  316MOL0    Cl42570   2.428   7.882   4.954  0.2167  0.5011  0.5442
  316MOL0     C42571   2.294   7.806   4.086  0.4914 -0.7843 -0.4560
  316MOL0     C42572   2.307   7.690   4.010  0.2167  0.6823  0.3091
  316MOL0     O42573   2.359   7.504   3.794 -0.1312  0.1549 -0.4655
  316MOL0     C42574   2.178   7.199   3.851 -1.1340 -0.1680 -0.2914
  316MOL0     C42575   2.140   7.081   3.796  0.7964  0.1808  1.2094
  316MOL0     N42576   2.596   6.754   3.459 -0.2474  0.0047  0.2732
  316MOL0     N42577   2.711   6.712   3.428  0.2208 -0.4322 -0.4031
  316MOL0     C42578   3.013   6.583   4.262  0.4909 -0.7625  0.6221
  316MOL0     C42579   3.091   6.672   4.330 -0.1939 -0.6554 -0.2392
  316MOL0     C42580   3.203   6.992   4.656 -0.9335  0.9423 -0.6075
  316MOL0     C42581   3.244   7.092   4.569 -0.3578 -0.1932  0.2331
  316MOL0     C42582   3.314   7.199   4.613 -0.2557 -0.4368  0.6022
  316MOL0     C42583   3.339   7.213   4.753 -0.1897 -0.6069 -0.4306
  316MOL0     O42584   3.418   7.319   4.785  0.0774 -0.8967 -0.7918
  316MOL0     C42585   3.462   7.334   4.930 -0.2403 -0.0223 -0.0043
  316MOL0     C42586   3.579   7.238   4.978  1.2944  0.8878 -0.9741
  316MOL0     C42587   3.709   7.286   4.916 -0.0173  0.2460  0.7798
  316MOL0     C42588   3.817   7.332   5.014 -0.1198  0.4913 -0.2994
  316MOL0     C42589   3.769   7.457   5.073 -0.7016  0.2103 -0.1713
  316MOL0     C42590   3.743   7.551   5.137 -0.1938 -0.5939  0.0886
  316MOL0     C42591   3.294   7.116   4.844  0.8093 -0.0630  0.7822
  316MOL0     C42592   3.225   7.008   4.796  0.1935 -0.2364 -0.2487
  316MOL0     H42593   2.859   6.814   4.543  2.0742  0.2547  0.6749
  316MOL0     H42594   2.715   6.642   4.422  0.8098  2.8202 -2.3194
  316MOL0     H42595   2.742   6.464   4.018  0.8058  1.4126 -0.3484
  316MOL0     H42596   2.892   6.523   4.057 -0.1926 -1.4397 -3.1794
  316MOL0     H42597   2.937   6.291   4.163 -1.1081 -1.9842  2.3765
  316MOL0     H42598   2.767   6.257   4.146 -0.3525  1.7305 -0.8079
  316MOL0     H42599   2.945   6.341   3.914 -1.9180  1.7267  0.3127
  316MOL0     H42600   2.934   6.161   3.957 -2.9045 -2.0942  2.9330
  316MOL0     H42601   2.721   6.151   3.888  2.1683 -0.3038  1.8777
  316MOL0     H42602   2.693   6.316   3.863  2.9618  3.6398 -0.2724
  316MOL0     H42603   2.912   6.177   3.685  0.1303 -0.7480  2.0405
  316MOL0     H42604   2.745   6.168   3.655  0.7588 -1.7408 -0.1122
  316MOL0     H42605   2.739   6.430   3.671 -2.4387 -0.6488 -2.4852
  316MOL0     H42606   2.922   6.413   3.676  2.4724 -4.1425 -1.0441
  316MOL0     H42607   2.926   6.309   3.447  2.1203  3.1500  1.6645
  316MOL0     H42608   2.744   6.305   3.448 -2.1158  2.9710 -2.2795
  316MOL0     H42609   2.822   6.499   3.295 -2.8555  0.2213  0.1619
  316MOL0     H42610   2.915   6.555   3.423  0.2811  0.0676  1.1762
  316MOL0     H42611   2.544   6.441   3.511  0.5498  1.0776  1.4101
  316MOL0     H42612   2.306   6.715   3.466  0.3617 -2.0026 -1.1445
  316MOL0     H42613   2.318   6.567   3.553  1.0404 -1.4035  0.9267
  316MOL0     H42614   2.381   6.837   3.689 -1.4521  0.2129  0.6193
  316MOL0     H42615   2.420   6.696   3.756  1.9870  2.3567  0.7393
  316MOL0     H42616   2.218   6.782   3.841 -0.6885 -0.3446  1.6652
  316MOL0     H42617   2.176   6.624   3.734 -0.4483  1.1036 -6.0671
  316MOL0     H42618   2.004   6.818   3.736 -2.1911 -2.7862 -2.1604
  316MOL0     H42619   2.054   6.746   3.587 -0.9954  2.9510 -2.2797
  316MOL0     H42620   2.269   7.117   3.497 -0.0508 -1.5245  0.7033
  316MOL0     H42621   2.478   7.326   3.588  0.1762 -2.7445 -1.2389
  316MOL0     H42622   2.360   7.313   3.455 -1.7331  0.5701  0.4710
  316MOL0     H42623   2.348   7.449   3.558  0.7162  0.1674 -0.8240
  316MOL0     H42624   2.027   7.533   4.115  1.9721 -0.3246  2.9310
  316MOL0     H42625   1.994   7.726   4.241 -3.7546 -0.5461 -2.4184
  316MOL0     H42626   1.978   7.925   4.315  0.0734  1.4965 -2.1104
  316MOL0     H42627   2.112   7.900   4.419 -0.0115  3.0848  2.8130
  316MOL0     H42628   2.197   8.128   4.414  0.3782  2.6009 -0.2240
  316MOL0     H42629   2.076   8.169   4.292  0.8553  2.3381  1.0572
  316MOL0     H42630   1.887   8.150   4.459  0.1281  2.0565  1.5645
  316MOL0     H42631   2.011   8.249   4.535 -2.1228  1.2784 -0.2813
  316MOL0     H42632   1.879   8.062   4.637 -1.3977 -0.5333 -1.9809
  316MOL0     H42633   2.011   7.958   4.584  1.8531  0.7420  0.6337
  316MOL0     H42634   2.023   8.104   4.824  0.1541  2.2874  0.8401
  316MOL0     H42635   2.089   8.214   4.715  0.1614 -0.6854 -1.1488
  316MOL0     H42636   2.258   8.036   4.657  0.2570 -2.6070  0.1373
  316MOL0     H42637   2.260   8.096   4.822 -0.2613  0.2871 -0.1760
  316MOL0     H42638   2.096   7.856   4.784 -0.1247  2.9259  0.3530
  316MOL0     H42639   2.143   7.919   4.938 -1.1408  0.0494  1.2936
  316MOL0     H42640   2.333   7.824   4.739 -0.3240  1.2505 -0.9277
  316MOL0     H42641   2.288   7.721   4.880  2.1512  1.0876  1.4041
  316MOL0     H42642   2.362   7.886   4.061 -0.3393  0.0782 -0.0211
  316MOL0     H42643   2.398   7.667   3.956 -0.3291 -1.0244  0.0319
  316MOL0     H42644   2.131   7.213   3.948 -1.8592  1.6580 -0.8490
  316MOL0     H42645   2.085   7.011   3.860 -0.1227  0.2107  0.4772
  316MOL0     H42646   3.062   6.525   4.184  0.8484 -1.3709  1.2816
  316MOL0     H42647   3.197   6.671   4.306 -0.3775  0.9099 -1.2906
  316MOL0     H42648   3.225   7.085   4.463 -0.5995 -0.9031  0.3194
  316MOL0     H42649   3.344   7.276   4.542 -0.5926 -0.5918  0.2902
  316MOL0     H42650   3.489   7.440   4.943  1.4007 -0.6980  2.7816
  316MOL0     H42651   3.370   7.319   4.987 -0.3201  1.9998  0.5035
  316MOL0     H42652   3.544   7.136   4.959  2.4649 -0.0143  1.3312
  316MOL0     H42653   3.568   7.241   5.086 -1.8251 -0.3632 -1.1628
  316MOL0     H42654   3.694   7.353   4.830 -0.4373 -1.0221 -0.1665
  316MOL0     H42655   3.753   7.200   4.865 -0.9535  0.2483 -0.0747
  316MOL0     H42656   3.907   7.348   4.954  1.6542  1.0847  2.3989
  316MOL0     H42657   3.830   7.256   5.091  0.0006  0.1006 -0.7026
  316MOL0     H42658   3.721   7.646   5.183 -0.6642 -0.5959 -0.1197
  316MOL0     H42659   3.310   7.127   4.950 -0.1858  0.8690  0.8554
  316MOL0     H42660   3.168   6.958   4.873  0.0873  2.0655  1.2577
  317MOL0     O42661   9.297   4.278   1.387  1.0280  0.3824  0.7257
  317MOL0     C42662   9.418   4.306   1.408  2.1934 -0.3652 -0.0512
  317MOL0     O42663   9.504   4.372   1.323 -0.5955  0.3187 -0.8094
  317MOL0     C42664   9.474   4.445   1.218  0.1756  0.3382  0.4497
  317MOL0     C42665   9.355   4.514   1.202  1.1791  0.6577  1.1708
  317MOL0     C42666   9.336   4.587   1.087 -0.4496  0.1646 -0.2440
  317MOL0     C42667   9.434   4.604   0.989  0.8244 -0.3976 -0.0705
  317MOL0     O42668   9.400   4.673   0.874  1.0044  0.2734 -1.2044
  317MOL0     C42669   9.509   4.738   0.802  0.5222  0.4338 -0.0481
  317MOL0     C42670   9.456   4.829   0.687  0.3816 -0.0314 -0.6916
  317MOL0     C42671   9.570   4.918   0.623 -0.2134  1.0560 -0.4027
  317MOL0     C42672   9.560   4.925   0.473  0.4019 -0.5215 -1.3011
  317MOL0     C42673   9.686   4.959   0.405 -0.0088 -0.5591  0.0622
  317MOL0     C42674   9.752   5.092   0.460 -0.5265 -0.3351  0.2991
  317MOL0     C42675   9.887   5.112   0.389  0.6526  0.9555  1.2326
  317MOL0     C42676   9.958   5.228   0.443 -0.0622  0.0591  0.0809
  317MOL0     N42677  10.080   5.260   0.368 -0.1278  0.3627  0.4612
  317MOL0     C42678  10.084   5.250   0.229 -0.2965  0.2926 -0.0658
  317MOL0     C42679  10.213   5.262   0.201 -0.1469 -0.3605  0.8400
  317MOL0     C42680  10.256   5.248   0.059 -0.0864  0.3397  1.2130
  317MOL0     C42681  10.234   5.375  -0.014  0.9543 -0.8140 -0.3179
  317MOL0     C42682  10.293   5.356  -0.154  0.0008 -0.0579  0.0985
  317MOL0     C42683  10.308   5.483  -0.236  0.0728  0.4311  0.8100
  317MOL0     O42684  10.196   5.571  -0.200  0.7963 -1.0533 -0.1328
  317MOL0     C42685  10.214   5.711  -0.206 -0.2814  0.0093 -0.5088
  317MOL0     C42686  10.321   5.762  -0.288  0.4525  0.5010  0.5818
  317MOL0     C42687  10.350   5.902  -0.305  0.5898  0.2371 -0.4096
  317MOL0     C42688  10.461   5.947  -0.396  0.3337 -0.9809  0.0089
  317MOL0     C42689  10.260   5.991  -0.231  0.5957  0.8574  0.8007
  317MOL0     C42690  10.275   6.139  -0.250 -0.4990 -0.4296 -0.4496
  317MOL0     O42691  10.158   6.210  -0.232  0.5116  0.3692 -0.2565
  317MOL0     C42692  10.167   6.344  -0.259  0.3223 -0.1726 -0.4106
  317MOL0     C42693  10.206   6.395  -0.381 -0.4090  1.0763 -0.3520
  317MOL0     C42694  10.215   6.525  -0.408 -0.1250  0.1865  0.3308
  317MOL0     C42695  10.186   6.613  -0.313 -0.1175 -0.1308 -0.1633
  317MOL0     O42696  10.205   6.745  -0.349  0.3477 -1.3031  0.8996
  317MOL0     C42697  10.101   6.832  -0.316 -0.5446  0.9245  0.4269
  317MOL0     C42698  10.117   6.965  -0.391 -0.7735  0.8184  0.0672
  317MOL0     C42699  10.000   7.058  -0.379 -0.4500 -0.0512  0.0794
  317MOL0     C42700  10.025   7.205  -0.428 -0.4550  0.2310  0.2026
  317MOL0     C42701   9.899   7.281  -0.474 -0.2206 -0.4805  0.0481
  317MOL0     C42702   9.935   7.404  -0.557  0.3100  0.8947  0.0303
  317MOL0     C42703   9.799   7.450  -0.624  0.1611  0.1419 -0.3029
  317MOL0     C42704   9.809   7.551  -0.738 -0.1617  1.0225 -0.5284
  317MOL0    Cl42705   9.884   7.700  -0.685  0.3172 -0.7180  0.3391
  317MOL0     C42706  10.159   6.576  -0.176  0.0880 -0.3139  0.0796
  317MOL0     C42707  10.141   6.436  -0.148  0.4402  0.4328 -0.5092
  317MOL0     O42708  10.385   6.186  -0.270 -0.3026 -1.1799  0.2644
  317MOL0     C42709  10.149   5.940  -0.158 -0.6936  0.8172 -0.0811
  317MOL0     C42710  10.135   5.799  -0.138 -0.7449  0.0853  0.0716
  317MOL0     N42711  10.282   5.296   0.318  0.1583 -0.2267  0.6434
  317MOL0     N42712  10.191   5.309   0.416  0.4104 -0.3546 -0.9829
  317MOL0     C42713   9.553   4.545   1.011 -0.2381 -0.1934 -0.1008
  317MOL0     C42714   9.571   4.468   1.126  0.0589  0.2319  0.5425
  317MOL0     C42715   9.477   4.258   1.533  0.6713  0.2027  0.0866
  317MOL0     C42716   9.443   4.307   1.660  0.3772  0.6335 -0.5763
  317MOL0     C42717   9.511   4.265   1.765 -0.1309 -0.4621  0.0572
  317MOL0     C42718   9.612   4.177   1.761 -0.5871  1.2694 -0.2004
  317MOL0     O42719   9.663   4.133   1.877 -0.2446  0.1747 -1.2634
  317MOL0     C42720   9.718   4.006   1.893  0.2290  0.0057  0.5564
  317MOL0     C42721   9.765   3.973   2.037 -0.3413  0.5856  0.7074
  317MOL0     C42722   9.646   3.937   2.126  0.2348  0.1625 -0.3184
  317MOL0     C42723   9.678   3.977   2.268 -0.2023 -0.3044 -0.2683
  317MOL0     C42724   9.639   3.868   2.361 -0.3788  0.8002 -0.3666
  317MOL0     C42725   9.622   3.769   2.430 -0.7740  0.4658 -0.4624
  317MOL0     C42726   9.656   4.139   1.645 -0.5567  0.2445  0.3631
  317MOL0     C42727   9.594   4.182   1.530  0.1518 -0.2884 -0.9838
  317MOL0     H42728   9.286   4.491   1.283 -2.1403  1.4501 -1.1964
  317MOL0     H42729   9.240   4.630   1.058  0.0882  0.0714 -2.3346
  317MOL0     H42730   9.554   4.801   0.879 -2.2207 -3.7082  5.7131
  317MOL0     H42731   9.583   4.661   0.775 -2.4183 -2.2218 -1.1075
  317MOL0     H42732   9.410   4.762   0.614 -1.5819 -1.2879  1.5661
  317MOL0     H42733   9.385   4.893   0.739  2.5377  0.8121  1.3787
  317MOL0     H42734   9.561   5.017   0.670  2.4416  1.9914 -1.6838
  317MOL0     H42735   9.664   4.870   0.650 -0.6258 -0.8230 -2.0131
  317MOL0     H42736   9.542   4.822   0.440 -4.1184  0.6166 -3.0906
  317MOL0     H42737   9.475   4.988   0.444  0.4631 -0.4351 -1.2954
  317MOL0     H42738   9.754   4.876   0.423 -2.6880 -2.9383 -0.2247
  317MOL0     H42739   9.666   4.964   0.298  3.1814  0.1635 -0.6277
  317MOL0     H42740   9.684   5.177   0.454 -2.5333 -1.6664  2.3736
  317MOL0     H42741   9.772   5.087   0.567 -0.6872 -0.2199  0.3337
  317MOL0     H42742   9.952   5.026   0.407  0.1928  0.1075 -0.8717
  317MOL0     H42743   9.874   5.119   0.281  2.4213  0.4319  0.9503
  317MOL0     H42744   9.994   5.200   0.543  0.1286  3.1884  1.0122
  317MOL0     H42745   9.889   5.312   0.453 -1.0819 -0.7376 -0.0907
  317MOL0     H42746  10.010   5.220   0.156 -1.7331  0.4079  1.2746
  317MOL0     H42747  10.360   5.216   0.064  0.2173  1.4264  2.2187
  317MOL0     H42748  10.205   5.161   0.017  1.1189 -0.5456  1.5351
  317MOL0     H42749  10.268   5.461   0.044 -0.8645 -0.8480  0.8755
  317MOL0     H42750  10.126   5.392  -0.016  1.0969  0.5563  1.6380
  317MOL0     H42751  10.230   5.278  -0.198  0.4428 -0.5294  0.3005
  317MOL0     H42752  10.392   5.313  -0.141  1.8081  2.4365 -3.5903
  317MOL0     H42753  10.316   5.455  -0.342  0.2827 -0.4556  1.0528
  317MOL0     H42754  10.405   5.530  -0.218  1.7466 -1.0751 -3.1419
  317MOL0     H42755  10.379   5.691  -0.346  0.8287 -1.1974  2.8951
  317MOL0     H42756  10.477   5.874  -0.475 -0.4797  0.1190 -1.2202
  317MOL0     H42757  10.428   6.039  -0.446 -0.6370 -1.4885 -0.3049
  317MOL0     H42758  10.554   5.957  -0.339  0.5879  0.6677 -0.6325
  317MOL0     H42759  10.238   6.321  -0.453 -0.8190 -2.5182  2.8313
  317MOL0     H42760  10.253   6.533  -0.510  3.4648  0.7012  1.5632
  317MOL0     H42761  10.006   6.788  -0.348  1.0116 -1.5114 -1.1250
  317MOL0     H42762  10.111   6.853  -0.209  3.5291 -0.5279  0.5142
  317MOL0     H42763  10.205   7.023  -0.361 -0.9694  0.5001  1.2867
  317MOL0     H42764  10.133   6.941  -0.497 -1.1947  1.3814 -0.1234
  317MOL0     H42765   9.969   7.051  -0.275 -1.1554 -1.0414 -0.1815
  317MOL0     H42766   9.923   7.003  -0.434 -0.9896 -1.2976  1.9871
  317MOL0     H42767  10.075   7.259  -0.347 -2.8722  1.9681  0.6682
  317MOL0     H42768  10.082   7.199  -0.521 -0.1374  1.1168  0.3298
  317MOL0     H42769   9.842   7.313  -0.386 -0.1267 -0.6766  0.1804
  317MOL0     H42770   9.843   7.206  -0.529  2.7467 -1.9536 -1.1866
  317MOL0     H42771   9.984   7.485  -0.502 -0.0235  3.1309 -2.7407
  317MOL0     H42772  10.005   7.363  -0.631 -1.4737 -1.0983 -0.6646
  317MOL0     H42773   9.734   7.491  -0.547 -0.0784  2.3265 -1.6038
  317MOL0     H42774   9.736   7.369  -0.662 -0.5756  1.3728 -1.7639
  317MOL0     H42775   9.707   7.572  -0.774 -0.3012  3.8699  1.2034
  317MOL0     H42776   9.863   7.515  -0.826 -2.5011  1.1687 -2.1336
  317MOL0     H42777  10.131   6.657  -0.108 -0.9813  1.0491 -1.8832
  317MOL0     H42778  10.103   6.394  -0.056  0.8717 -3.1549 -1.8190
  317MOL0     H42779  10.078   6.008  -0.112  2.1687  4.1909 -0.1951
  317MOL0     H42780  10.068   5.752  -0.066  0.6738  0.4331  1.6849
  317MOL0     H42781   9.626   4.540   0.931  0.3996  2.0620  0.2734
  317MOL0     H42782   9.660   4.407   1.140 -0.6447 -1.3224 -1.2947
  317MOL0     H42783   9.360   4.376   1.676  1.3172  1.6203  0.2252
  317MOL0     H42784   9.467   4.295   1.860  0.4130 -3.4133  1.3790
  317MOL0     H42785   9.643   3.934   1.858  1.6593  0.1296 -3.2769
  317MOL0     H42786   9.804   3.991   1.828 -0.7737 -2.1518 -0.3687
  317MOL0     H42787   9.807   4.064   2.080 -0.9343  0.3448  1.8464
  317MOL0     H42788   9.842   3.896   2.044 -0.2138  0.7872  1.6322
  317MOL0     H42789   9.619   3.832   2.132 -0.8818  0.4786  4.4960
  317MOL0     H42790   9.558   3.991   2.089 -1.2465 -3.0081 -1.8239
  317MOL0     H42791   9.617   4.066   2.290 -2.9130 -1.1472 -3.5599
  317MOL0     H42792   9.782   3.998   2.292 -0.4847  1.3419 -0.3356
  317MOL0     H42793   9.599   3.686   2.493 -3.5084  0.5291 -1.2051
  317MOL0     H42794   9.736   4.067   1.633  0.6986  1.7051 -0.3841
  317MOL0     H42795   9.632   4.145   1.435 -0.5343  0.1393 -1.4341
  318MOL0     O42796   4.167   0.317   3.089  1.2031  0.7552  0.5192
  318MOL0     C42797   4.129   0.419   3.025 -0.5844  0.4991 -0.5032
  318MOL0     O42798   4.076   0.434   2.897 -0.2418  0.4746 -0.1842
  318MOL0     C42799   4.057   0.316   2.820 -0.0410  0.4486 -0.0394
  318MOL0     C42800   3.994   0.200   2.872  0.6992 -0.0465 -0.6587
  318MOL0     C42801   3.968   0.088   2.785 -0.9260  0.6291  0.0422
  318MOL0     C42802   4.029   0.084   2.659 -0.4159 -0.1863  0.8856
  318MOL0     O42803   4.022  -0.014   2.565  0.0760 -0.3109 -0.3754
  318MOL0     C42804   3.935  -0.119   2.566 -0.2898 -0.1788 -0.4067
  318MOL0     C42805   3.781  -0.071   2.565 -1.0125 -1.2225  0.7376
  318MOL0     C42806   3.701  -0.198   2.550 -1.1063  0.1105 -0.4192
  318MOL0     C42807   3.559  -0.170   2.527  0.2559  0.1563 -0.5176
  318MOL0     C42808   3.468  -0.288   2.494 -0.0616 -0.6396  1.1129
  318MOL0     C42809   3.441  -0.299   2.339 -0.1777  0.8304 -0.0834
  318MOL0     C42810   3.362  -0.176   2.281  0.1895 -0.5230  0.6098
  318MOL0     C42811   3.211  -0.210   2.260 -0.0599 -0.2319  0.6883
  318MOL0     N42812   3.119  -0.101   2.228  0.5948 -0.5900  1.2826
  318MOL0     C42813   3.085   0.002   2.315  0.3059  0.3154  0.3106
  318MOL0     C42814   2.978   0.061   2.245 -0.6333  0.8166  0.6250
  318MOL0     C42815   2.899   0.170   2.310  0.3240  0.5531  0.2907
  318MOL0     C42816   2.955   0.310   2.280 -0.7514 -0.0223  0.5608
  318MOL0     C42817   2.889   0.351   2.143 -0.4779  1.5846 -0.4034
  318MOL0     C42818   2.961   0.485   2.120  0.0487  0.1969  1.1577
  318MOL0     O42819   3.093   0.460   2.068 -0.0142  0.5885 -0.2633
  318MOL0     C42820   3.107   0.447   1.935 -0.2420  0.1153  0.3579
  318MOL0     C42821   3.238   0.414   1.898  0.1914 -0.1864 -0.3181
  318MOL0     C42822   3.261   0.380   1.768  0.2799 -0.0518 -0.7353
  318MOL0     C42823   3.400   0.338   1.749 -0.1409 -0.4148  0.6983
  318MOL0     C42824   3.168   0.384   1.667 -0.5419  0.5534 -0.6893
  318MOL0     C42825   3.192   0.343   1.526 -0.5670 -0.7107  0.1889
  318MOL0     O42826   3.182   0.448   1.433 -0.2472 -0.5156 -0.4125
  318MOL0     C42827   3.140   0.428   1.308  0.6423 -0.5709  0.6735
  318MOL0     C42828   3.171   0.319   1.217  0.8708 -1.3293 -0.8862
  318MOL0     C42829   3.125   0.317   1.087  0.4955  0.1931 -0.3019
  318MOL0     C42830   3.052   0.420   1.028  0.6417  0.7996  0.1009
  318MOL0     O42831   3.012   0.419   0.896  0.1388 -0.3289 -0.7661
  318MOL0     C42832   3.027   0.302   0.817  0.5068 -0.2770 -0.1123
  318MOL0     C42833   3.018   0.348   0.674  0.0674 -0.4524 -0.3458
  318MOL0     C42834   3.057   0.219   0.590 -0.1876  0.2334  0.2765
  318MOL0     C42835   3.086   0.241   0.442 -0.0502  0.1906 -0.0650
  318MOL0     C42836   2.983   0.186   0.345 -0.3709 -0.2786 -0.6312
  318MOL0     C42837   2.850   0.263   0.336 -0.0942 -0.5373  0.1298
  318MOL0     C42838   2.740   0.166   0.281  0.2137  0.1605 -0.1930
  318MOL0     C42839   2.789   0.088   0.162 -0.3177  0.3921 -0.4465
  318MOL0    Cl42840   2.664  -0.020   0.099 -0.0583  0.2991 -0.0352
  318MOL0     C42841   3.017   0.527   1.115  0.0546 -0.5326 -0.6013
  318MOL0     C42842   3.060   0.529   1.253  0.1908  0.6305  0.0152
  318MOL0     O42843   3.220   0.223   1.500  0.4661  0.2965  0.6426
  318MOL0     C42844   3.039   0.432   1.700  0.2701 -0.0240 -0.4588
  318MOL0     C42845   3.009   0.467   1.836 -0.1248  0.5282  0.0089
  318MOL0     N42846   2.959  -0.001   2.119  0.6256  0.9410 -0.2210
  318MOL0     N42847   3.057  -0.090   2.105  1.3670  0.1755 -1.1026
  318MOL0     C42848   4.106   0.197   2.619  0.7141 -0.1677 -0.9684
  318MOL0     C42849   4.107   0.319   2.691  0.3296 -0.9168  0.2601
  318MOL0     C42850   4.139   0.557   3.078  0.2579 -0.2231  0.1726
  318MOL0     C42851   4.181   0.564   3.211 -0.0442 -0.6631 -0.0825
  318MOL0     C42852   4.179   0.689   3.272 -0.2398 -0.2332  0.8791
  318MOL0     C42853   4.116   0.796   3.211  0.8342  0.4212  0.4723
  318MOL0     O42854   4.112   0.910   3.293 -0.1587  0.4066 -0.3516
  318MOL0     C42855   3.979   0.971   3.293 -0.7862 -0.8063 -0.0292
  318MOL0     C42856   3.988   1.118   3.359  0.2460 -0.7189 -0.3160
  318MOL0     C42857   3.843   1.174   3.373  0.0303 -0.0820  0.2785
  318MOL0     C42858   3.832   1.316   3.431  0.3603  0.2538 -0.1900
  318MOL0     C42859   3.696   1.352   3.439 -0.7864 -0.5757 -0.4349
  318MOL0     C42860   3.582   1.395   3.444 -0.2063  0.0480 -0.4490
  318MOL0     C42861   4.078   0.792   3.075  0.1225  0.7115 -0.1098
  318MOL0     C42862   4.097   0.672   3.008  1.0225  0.0616 -0.1148
  318MOL0     H42863   3.946   0.193   2.969  1.9591  1.6967  0.1345
  318MOL0     H42864   3.920   0.006   2.837  4.1531 -1.3638  2.1807
  318MOL0     H42865   3.962  -0.169   2.473  0.1008 -0.6153 -0.0664
  318MOL0     H42866   3.954  -0.183   2.653  0.0510  1.8591  1.0983
  318MOL0     H42867   3.752  -0.007   2.648 -0.2015  1.3648 -0.8436
  318MOL0     H42868   3.764  -0.002   2.481 -0.3518 -1.5500  0.3260
  318MOL0     H42869   3.748  -0.258   2.472  0.6033 -1.3257  1.6289
  318MOL0     H42870   3.716  -0.243   2.648  1.4660  1.6873 -0.0179
  318MOL0     H42871   3.523  -0.104   2.607 -0.7989  0.6897 -1.4108
  318MOL0     H42872   3.565  -0.099   2.445  1.4996 -0.0575 -0.6286
  318MOL0     H42873   3.527  -0.373   2.528 -1.0778 -3.4414 -3.3550
  318MOL0     H42874   3.375  -0.282   2.551  1.2189 -1.9614  3.4944
  318MOL0     H42875   3.547  -0.311   2.317  1.1351  1.5434  4.7275
  318MOL0     H42876   3.387  -0.392   2.322  3.9569 -1.4780 -2.1250
  318MOL0     H42877   3.376  -0.086   2.341 -3.4414  0.7937 -0.2624
  318MOL0     H42878   3.410  -0.166   2.182  2.3710  3.4951  1.8415
  318MOL0     H42879   3.182  -0.258   2.354  2.6842 -1.8495  0.8322
  318MOL0     H42880   3.198  -0.280   2.178 -1.0440 -1.2749  1.6996
  318MOL0     H42881   3.116   0.032   2.414  0.8158  0.5826  0.0763
  318MOL0     H42882   2.797   0.161   2.271  0.5382  1.9249 -0.6808
  318MOL0     H42883   2.899   0.158   2.418  1.6239 -0.5494  0.2006
  318MOL0     H42884   3.064   0.309   2.278 -0.5219  2.4411  3.8199
  318MOL0     H42885   2.926   0.381   2.358  1.5830  2.3365 -0.5352
  318MOL0     H42886   2.783   0.369   2.161 -1.8879 -3.9394 -1.0701
  318MOL0     H42887   2.896   0.275   2.065 -2.3244 -0.7398  1.5176
  318MOL0     H42888   2.987   0.543   2.209  0.6263 -0.1225  1.2004
  318MOL0     H42889   2.899   0.544   2.052  2.1521  0.9156 -0.2334
  318MOL0     H42890   3.310   0.410   1.978 -1.8083 -0.9967  1.5472
  318MOL0     H42891   3.427   0.238   1.786 -0.3278 -0.9923 -0.6446
  318MOL0     H42892   3.426   0.339   1.642 -2.3311  1.1373  0.0994
  318MOL0     H42893   3.469   0.411   1.792 -0.0906  0.2619 -0.4700
  318MOL0     H42894   3.238   0.242   1.256  0.5540 -1.9458 -1.5364
  318MOL0     H42895   3.160   0.234   1.027  1.7845  0.1472  0.4715
  318MOL0     H42896   3.130   0.266   0.807  0.7187  0.9677 -4.6268
  318MOL0     H42897   2.951   0.230   0.848  0.5139  0.2787  1.3072
  318MOL0     H42898   2.921   0.392   0.647 -1.3719 -2.9210  0.4757
  318MOL0     H42899   3.079   0.437   0.658 -0.2581  0.2624  2.0616
  318MOL0     H42900   2.990   0.134   0.605 -0.2119 -0.6173 -3.5532
  318MOL0     H42901   3.155   0.181   0.621 -1.3609 -3.7302 -0.2031
  318MOL0     H42902   3.109   0.346   0.419  1.9205  0.6668  3.3600
  318MOL0     H42903   3.184   0.199   0.417  0.7093  1.8145 -0.0003
  318MOL0     H42904   2.966   0.083   0.376 -2.3157  0.2106  0.0913
  318MOL0     H42905   3.030   0.186   0.246 -0.7030 -1.9942 -0.8217
  318MOL0     H42906   2.829   0.302   0.436 -0.5433  0.0077 -0.1763
  318MOL0     H42907   2.853   0.353   0.275 -3.3009 -0.2680  0.1840
  318MOL0     H42908   2.650   0.225   0.263  2.7594  4.1476 -1.2019
  318MOL0     H42909   2.714   0.091   0.357 -2.8853  1.7322  0.4692
  318MOL0     H42910   2.875   0.030   0.197 -2.6614 -2.0300  1.7395
  318MOL0     H42911   2.824   0.151   0.079  0.5518 -2.1913 -2.1658
  318MOL0     H42912   2.965   0.611   1.071  0.3773  0.9831  1.7360
  318MOL0     H42913   3.023   0.611   1.313 -2.5602 -0.5042  0.0133
  318MOL0     H42914   2.969   0.417   1.618  1.3053 -2.7014 -0.9453
  318MOL0     H42915   2.908   0.500   1.859  0.2968  1.3035  0.8269
  318MOL0     H42916   4.160   0.185   2.526 -0.0333 -2.1525 -1.1905
  318MOL0     H42917   4.170   0.403   2.664  1.1809 -2.4782 -3.4157
  318MOL0     H42918   4.220   0.487   3.276  0.1868 -1.2494 -0.8965
  318MOL0     H42919   4.217   0.699   3.373 -0.3429 -1.4565  1.0529
  318MOL0     H42920   3.925   0.974   3.198 -2.4785 -2.9423  0.7740
  318MOL0     H42921   3.918   0.904   3.356 -3.8705  0.8548 -1.0350
  318MOL0     H42922   4.049   1.190   3.303 -2.2561  2.9833  1.3079
  318MOL0     H42923   4.049   1.101   3.448 -0.5253 -1.6224  0.0487
  318MOL0     H42924   3.798   1.102   3.442 -1.0741  0.5796  0.2600
  318MOL0     H42925   3.798   1.171   3.273 -2.0559  1.4046  1.1208
  318MOL0     H42926   3.873   1.394   3.365  1.0480  0.7805  0.8375
  318MOL0     H42927   3.882   1.328   3.527  0.4186 -0.6326 -0.1072
  318MOL0     H42928   3.487   1.446   3.440 -1.1057 -1.1112  2.7117
  318MOL0     H42929   4.035   0.870   3.013  2.3321 -0.8234 -3.8825
  318MOL0     H42930   4.065   0.682   2.905  2.1562  2.2339 -0.3014
  319MOL0     O42931   2.060   6.783   0.912  0.2729 -0.0037 -0.7616
  319MOL0     C42932   2.044   6.834   1.024  0.1550  0.3999 -0.7320
  319MOL0     O42933   1.942   6.921   1.059  0.0873  0.1834  0.5902
  319MOL0     C42934   1.834   6.935   0.971 -0.8548  0.1489 -0.3857
  319MOL0     C42935   1.781   6.838   0.883  0.2155  0.0046  0.4046
  319MOL0     C42936   1.667   6.879   0.815  0.2465 -0.7752 -0.2585
  319MOL0     C42937   1.608   7.003   0.829 -0.2051 -0.6480  0.1762
  319MOL0     O42938   1.494   7.037   0.765 -0.7463  0.2823  0.2793
  319MOL0     C42939   1.463   6.981   0.634  0.3991  0.2142  0.3710
  319MOL0     C42940   1.351   6.882   0.648 -0.6507 -0.2618 -0.6631
  319MOL0     C42941   1.327   6.798   0.515 -0.4258  0.2646 -0.1668
  319MOL0     C42942   1.188   6.733   0.506  0.3936 -0.1453 -0.6120
  319MOL0     C42943   1.074   6.839   0.474  0.2216 -0.2495  0.6514
  319MOL0     C42944   0.941   6.767   0.488  0.4542  1.2004  0.8534
  319MOL0     C42945   0.835   6.869   0.440  0.1539 -0.3115  0.3662
  319MOL0     C42946   0.694   6.805   0.421 -0.4038  0.1172  0.0038
  319MOL0     N42947   0.611   6.868   0.321 -0.0898  0.7596  0.6282
  319MOL0     C42948   0.590   7.003   0.318 -1.2195 -0.1883 -0.1155
  319MOL0     C42949   0.545   7.014   0.193  0.3798 -0.3948  0.7279
  319MOL0     C42950   0.482   7.142   0.136  0.0912 -1.2551 -0.8586
  319MOL0     C42951   0.587   7.201   0.038 -0.3934  0.8863  0.7269
  319MOL0     C42952   0.533   7.320  -0.034 -0.3297 -0.0115  0.8936
  319MOL0     C42953   0.636   7.396  -0.109 -0.0744  0.1533 -0.2015
  319MOL0     O42954   0.695   7.303  -0.210 -0.0105 -0.3150 -0.7953
  319MOL0     C42955   0.815   7.335  -0.261  0.4745 -0.3010  0.2498
  319MOL0     C42956   0.896   7.244  -0.310  0.1919  0.3972 -0.5566
  319MOL0     C42957   1.022   7.265  -0.361 -0.8082  0.8373  0.2323
  319MOL0     C42958   1.089   7.138  -0.416 -0.7935 -1.3774 -0.4236
  319MOL0     C42959   1.067   7.403  -0.369 -0.1876 -0.0737  1.3501
  319MOL0     C42960   1.193   7.441  -0.449  0.1661 -0.0877  0.0446
  319MOL0     O42961   1.196   7.571  -0.493  0.1090 -0.3423 -0.3144
  319MOL0     C42962   1.312   7.614  -0.558  1.3585  0.0264 -1.2900
  319MOL0     C42963   1.329   7.626  -0.691 -0.3487  0.1467 -0.4701
  319MOL0     C42964   1.455   7.660  -0.740  0.6442 -0.7815  0.2877
  319MOL0     C42965   1.562   7.669  -0.652  0.8328  0.0764  0.1729
  319MOL0     O42966   1.690   7.687  -0.684 -0.2582  0.4109 -0.3828
  319MOL0     C42967   1.731   7.727  -0.813  0.5813 -0.8888  0.1426
  319MOL0     C42968   1.856   7.823  -0.800 -0.3254  0.2995 -0.5564
  319MOL0     C42969   1.814   7.946  -0.721 -1.0450  0.7223  0.2452
  319MOL0     C42970   1.929   8.049  -0.734  0.0736 -0.2195 -0.2511
  319MOL0     C42971   1.928   8.153  -0.635  0.9825 -0.4571  0.2390
  319MOL0     C42972   2.059   8.153  -0.555  0.3774 -0.5639 -0.1499
  319MOL0     C42973   2.087   8.298  -0.516  0.8769 -0.9958  0.3537
  319MOL0     C42974   1.972   8.356  -0.427  0.1866  0.8794 -0.1119
  319MOL0    Cl42975   1.914   8.239  -0.311  0.1991 -0.3449  0.0097
  319MOL0     C42976   1.536   7.654  -0.513 -0.5195 -0.1074 -0.2120
  319MOL0     C42977   1.415   7.629  -0.466 -1.2951 -0.6999  0.6744
  319MOL0     O42978   1.290   7.363  -0.448  0.1846  0.2522 -0.0902
  319MOL0     C42979   0.991   7.496  -0.305  0.4368 -0.8500 -0.2158
  319MOL0     C42980   0.859   7.473  -0.246 -0.2347 -0.3749 -0.1817
  319MOL0     N42981   0.532   6.898   0.129 -0.2802  0.9839  0.3108
  319MOL0     N42982   0.578   6.803   0.208  0.8224  0.4789  0.1709
  319MOL0     C42983   1.665   7.097   0.916 -0.4023 -0.2362 -0.4033
  319MOL0     C42984   1.787   7.062   0.983  0.8729 -0.3020  0.3284
  319MOL0     C42985   2.138   6.804   1.131 -0.5638  0.0821 -0.5876
  319MOL0     C42986   2.147   6.890   1.247  1.3426 -0.1040 -0.8420
  319MOL0     C42987   2.235   6.859   1.343  0.1478  0.2111  0.0929
  319MOL0     C42988   2.333   6.757   1.332  0.7285  0.3529  0.0087
  319MOL0     O42989   2.434   6.752   1.426 -0.8720 -0.0063  0.3565
  319MOL0     C42990   2.568   6.746   1.381  0.7656 -1.2198  0.0453
  319MOL0     C42991   2.642   6.877   1.435  1.1913  0.5884  0.5875
  319MOL0     C42992   2.634   6.869   1.597  0.2808 -0.7343  0.5180
  319MOL0     C42993   2.769   6.828   1.647 -0.2087 -0.2160 -0.1437
  319MOL0     C42994   2.787   6.686   1.682  0.7014  0.0074 -0.4504
  319MOL0     C42995   2.807   6.566   1.703  0.6007  0.3528  0.7143
  319MOL0     C42996   2.311   6.661   1.237 -0.6280  0.5749  0.3354
  319MOL0     C42997   2.217   6.677   1.133 -0.3187 -1.4957 -0.5311
  319MOL0     H42998   1.835   6.744   0.871 -0.0830  0.0323 -1.3616
  319MOL0     H42999   1.624   6.799   0.756 -2.3527 -0.2979  0.8408
  319MOL0     H43000   1.431   7.058   0.563 -0.8979 -1.3188 -0.7905
  319MOL0     H43001   1.549   6.936   0.584 -0.1888  0.5828 -1.0140
  319MOL0     H43002   1.377   6.809   0.725  3.2525  0.3825 -1.1309
  319MOL0     H43003   1.257   6.933   0.668 -1.0979 -1.9001  1.8387
  319MOL0     H43004   1.340   6.873   0.437 -1.8309  0.3726 -0.3306
  319MOL0     H43005   1.407   6.723   0.509  1.7302  2.5627 -3.6432
  319MOL0     H43006   1.183   6.652   0.432 -0.3182 -1.7473  1.1051
  319MOL0     H43007   1.153   6.684   0.597  0.8703 -1.8061 -1.2850
  319MOL0     H43008   1.073   6.931   0.535 -4.8871 -1.3228  2.6932
  319MOL0     H43009   1.083   6.875   0.371 -0.6383  2.1300  1.3404
  319MOL0     H43010   0.932   6.677   0.427 -1.1243  3.5145 -2.7234
  319MOL0     H43011   0.922   6.748   0.594 -1.3889 -1.3893  0.1672
  319MOL0     H43012   0.831   6.959   0.502  0.9511 -1.3776  2.0093
  319MOL0     H43013   0.872   6.907   0.345  0.3314 -0.7334  0.2637
  319MOL0     H43014   0.643   6.809   0.518 -0.8850  0.9270 -0.2676
  319MOL0     H43015   0.694   6.696   0.408 -1.8514  0.3069 -1.9002
  319MOL0     H43016   0.610   7.082   0.390 -2.8067  1.0189 -0.9316
  319MOL0     H43017   0.393   7.133   0.073 -1.1775  3.2500 -0.0471
  319MOL0     H43018   0.460   7.219   0.210 -2.3109 -0.8640 -1.8823
  319MOL0     H43019   0.630   7.116  -0.016 -2.0630 -1.8276  3.3268
  319MOL0     H43020   0.672   7.237   0.097 -0.1626 -1.0473  1.6608
  319MOL0     H43021   0.487   7.392   0.034 -3.8602 -1.0704 -0.2030
  319MOL0     H43022   0.455   7.281  -0.099 -0.0567 -3.3860  2.3770
  319MOL0     H43023   0.711   7.442  -0.043  1.3897 -0.5539 -1.3236
  319MOL0     H43024   0.583   7.473  -0.165 -0.3113 -0.3957 -0.7308
  319MOL0     H43025   0.848   7.147  -0.315  4.0991 -1.9194  1.8540
  319MOL0     H43026   1.189   7.112  -0.380 -0.5870  0.1777  0.2297
  319MOL0     H43027   1.029   7.050  -0.391 -0.9486 -1.3779 -0.7881
  319MOL0     H43028   1.097   7.148  -0.524 -0.2618  0.5196 -0.2586
  319MOL0     H43029   1.239   7.616  -0.751 -1.2342 -0.6450  0.9192
  319MOL0     H43030   1.480   7.664  -0.845  0.9327 -2.2670  0.2763
  319MOL0     H43031   1.755   7.641  -0.875 -4.2156 -0.1564 -3.3027
  319MOL0     H43032   1.654   7.782  -0.868  0.8850 -1.2052 -0.6082
  319MOL0     H43033   1.927   7.778  -0.730 -3.8058 -3.0949  1.1251
  319MOL0     H43034   1.899   7.856  -0.895 -0.1000  2.0645  0.1200
  319MOL0     H43035   1.801   7.924  -0.615 -0.0533 -2.2524 -0.1374
  319MOL0     H43036   1.719   7.980  -0.764 -1.1585  0.0344 -0.0769
  319MOL0     H43037   2.024   7.998  -0.718  1.2797  2.4121  1.6058
  319MOL0     H43038   1.932   8.082  -0.838  2.5732 -4.4913 -1.7933
  319MOL0     H43039   1.850   8.132  -0.562  0.7340 -1.6555 -0.3396
  319MOL0     H43040   1.906   8.247  -0.686 -0.5099  1.2635  3.7578
  319MOL0     H43041   2.051   8.105  -0.457  0.5791  1.9488  1.1819
  319MOL0     H43042   2.144   8.130  -0.620  1.5526  1.8976  0.4024
  319MOL0     H43043   2.102   8.367  -0.599  1.7623 -6.0260 -4.2021
  319MOL0     H43044   2.185   8.298  -0.467  1.2205  0.5564 -0.2959
  319MOL0     H43045   1.890   8.381  -0.494  1.1651  0.0949 -1.6460
  319MOL0     H43046   2.008   8.448  -0.381  0.2117  0.0081  1.7313
  319MOL0     H43047   1.615   7.672  -0.441 -0.5027  1.1688 -0.5256
  319MOL0     H43048   1.405   7.615  -0.359 -0.6087 -1.8254  0.6138
  319MOL0     H43049   1.021   7.600  -0.307 -0.6512 -0.5364 -0.7497
  319MOL0     H43050   0.798   7.561  -0.230 -0.4160 -0.1725 -1.8027
  319MOL0     H43051   1.614   7.188   0.948  2.1143  1.1837 -0.1515
  319MOL0     H43052   1.837   7.125   1.056 -1.7566  0.6389  1.4590
  319MOL0     H43053   2.071   6.966   1.263  1.3650 -0.4262  1.0202
  319MOL0     H43054   2.245   6.917   1.434 -5.2226  0.7039  0.6857
  319MOL0     H43055   2.614   6.653   1.417  1.1892 -0.1020  2.5763
  319MOL0     H43056   2.582   6.749   1.272  1.9768  4.8116  0.0306
  319MOL0     H43057   2.579   6.957   1.395 -2.1955 -1.3413  1.5730
  319MOL0     H43058   2.746   6.878   1.401  1.3852 -3.2139  0.5472
  319MOL0     H43059   2.557   6.799   1.630 -0.4347 -0.4583 -0.5454
  319MOL0     H43060   2.615   6.969   1.640  0.3769 -1.7536  3.1513
  319MOL0     H43061   2.806   6.886   1.732  2.0322 -0.8301 -0.6337
  319MOL0     H43062   2.847   6.843   1.572 -1.0867 -2.6142 -1.6460
  319MOL0     H43063   2.813   6.461   1.723 -1.2158 -0.0334 -0.4461
  319MOL0     H43064   2.368   6.569   1.251 -0.2220  1.1337  3.0367
  319MOL0     H43065   2.193   6.607   1.054 -0.5170  2.1775 -4.0384
  320MOL0     O43066   6.177   9.013   4.049  0.1660 -0.4595 -0.1474
  320MOL0     C43067   6.240   8.919   4.107  0.4859  0.6783 -0.5008
  320MOL0     O43068   6.336   8.943   4.198 -0.4453 -0.3347 -0.1623
  320MOL0     C43069   6.349   9.076   4.247  0.8668  0.1617 -0.5662
  320MOL0     C43070   6.245   9.150   4.302  0.5661  1.1235 -0.4602
  320MOL0     C43071   6.274   9.273   4.357 -0.6735 -0.0222 -1.2565
  320MOL0     C43072   6.401   9.338   4.340 -0.3633 -0.7920 -0.4548
  320MOL0     O43073   6.418   9.466   4.400 -0.0947 -1.1537  0.2157
  320MOL0     C43074   6.376   9.569   4.303 -0.0937  0.8238  0.3914
  320MOL0     C43075   6.305   9.683   4.385 -0.3371  0.2079 -0.5783
  320MOL0     C43076   6.157   9.650   4.420  0.1470 -0.2063  0.0898
  320MOL0     C43077   6.086   9.775   4.475 -0.8562  0.3747 -0.0908
  320MOL0     C43078   5.941   9.753   4.516 -0.2790 -0.6010  0.0338
  320MOL0     C43079   5.835   9.745   4.404 -0.7378 -0.2508  0.3445
  320MOL0     C43080   5.691   9.757   4.473 -0.1739  0.5058 -0.3880
  320MOL0     C43081   5.579   9.761   4.367  0.6115 -0.2079 -0.6769
  320MOL0     N43082   5.452   9.777   4.445  0.7175 -0.1888 -0.4436
  320MOL0     C43083   5.406   9.696   4.547  0.6242 -0.0926 -0.3638
  320MOL0     C43084   5.288   9.754   4.571 -0.0193 -0.6238 -0.4891
  320MOL0     C43085   5.186   9.700   4.668  0.0510  1.2770 -0.3024
  320MOL0     C43086   5.103   9.575   4.634 -0.7082 -0.8626 -1.0114
  320MOL0     C43087   5.172   9.437   4.653  0.1648  0.4877  0.1544
  320MOL0     C43088   5.064   9.320   4.635 -0.1245 -0.3621 -0.0828
  320MOL0     O43089   5.114   9.191   4.667  0.1696  0.0736  0.7237
  320MOL0     C43090   5.019   9.091   4.681  0.2642 -0.5028 -0.0565
  320MOL0     C43091   4.879   9.094   4.658 -0.5688 -0.4118  0.1629
  320MOL0     C43092   4.794   8.986   4.669  0.1175 -0.5894  0.2837
  320MOL0     C43093   4.647   9.012   4.639  1.3398 -0.4547 -0.1941
  320MOL0     C43094   4.851   8.856   4.702  0.0827 -0.2053  0.0428
  320MOL0     C43095   4.763   8.734   4.735 -0.3311  0.1494  0.9332
  320MOL0     O43096   4.629   8.740   4.697  0.1421 -0.3257 -0.4548
  320MOL0     C43097   4.549   8.634   4.736 -0.3215  0.2654  0.0393
  320MOL0     C43098   4.484   8.617   4.866  0.3852 -0.2177  1.1401
  320MOL0     C43099   4.417   8.495   4.901 -0.3413 -0.7320  0.4981
  320MOL0     C43100   4.400   8.399   4.805 -0.2525 -1.2880  0.3454
  320MOL0     O43101   4.333   8.293   4.832  0.4490 -0.0227  0.9284
  320MOL0     C43102   4.386   8.157   4.809 -0.6576  0.4626  0.3467
  320MOL0     C43103   4.279   8.057   4.873  0.4457  0.4539  0.6418
  320MOL0     C43104   4.319   8.024   5.015 -0.4776  0.4785  0.3358
  320MOL0     C43105   4.189   7.991   5.102 -0.2549  0.7313 -0.3884
  320MOL0     C43106   4.250   7.956   5.240 -0.3574 -0.2526 -0.9608
  320MOL0     C43107   4.202   7.821   5.299  0.2469 -0.2549  0.7395
  320MOL0     C43108   4.069   7.815   5.375  0.2429 -0.6475 -0.3314
  320MOL0     C43109   3.970   7.890   5.302  0.2650  0.3748 -0.0538
  320MOL0    Cl43110   3.826   7.878   5.392  0.2623  0.0435  0.0861
  320MOL0     C43111   4.468   8.409   4.683  0.6401 -0.4718  0.4172
  320MOL0     C43112   4.543   8.527   4.654  0.0845  0.9777 -0.6259
  320MOL0     O43113   4.824   8.629   4.764  0.1514 -0.4266 -0.5516
  320MOL0     C43114   4.992   8.852   4.731  0.7778 -0.0319  0.6107
  320MOL0     C43115   5.074   8.960   4.715 -0.7860  0.1326  0.4755
  320MOL0     N43116   5.264   9.862   4.488 -0.7792 -0.4534 -0.1453
  320MOL0     N43117   5.360   9.881   4.411  0.3069  0.6148 -0.4096
  320MOL0     C43118   6.509   9.256   4.290 -0.0829 -0.0454 -0.4032
  320MOL0     C43119   6.481   9.124   4.244 -0.7845  0.0740  1.0420
  320MOL0     C43120   6.202   8.788   4.064  0.0738  0.5166  0.7206
  320MOL0     C43121   6.154   8.756   3.932  0.9263 -0.5869 -0.2628
  320MOL0     C43122   6.094   8.631   3.910 -0.5270  0.5452  0.1719
  320MOL0     C43123   6.083   8.536   4.013 -0.0914  0.7848 -1.0068
  320MOL0     O43124   6.016   8.417   4.002  0.3227  0.7310  0.3614
  320MOL0     C43125   5.937   8.379   3.888  0.1445  0.4152 -0.0360
  320MOL0     C43126   5.824   8.291   3.941  0.2575  0.4188 -1.6524
  320MOL0     C43127   5.738   8.210   3.842  0.4362  0.1638 -0.1423
  320MOL0     C43128   5.609   8.161   3.895  0.5449 -0.8151  0.2439
  320MOL0     C43129   5.514   8.274   3.892  0.0378 -0.8618 -0.5438
  320MOL0     C43130   5.452   8.377   3.905  0.1965 -0.3562 -0.5294
  320MOL0     C43131   6.139   8.557   4.142  0.5740 -0.7330  1.1052
  320MOL0     C43132   6.201   8.683   4.163 -0.2882  1.1412 -0.8034
  320MOL0     H43133   6.143   9.114   4.300 -0.4369  3.7141  0.0170
  320MOL0     H43134   6.183   9.318   4.395 -2.5282 -3.4201 -1.3281
  320MOL0     H43135   6.461   9.617   4.253 -0.0951  3.8169  2.9533
  320MOL0     H43136   6.303   9.535   4.228  2.9706  1.8383 -3.3991
  320MOL0     H43137   6.368   9.704   4.472  0.2312 -0.6512 -0.7657
  320MOL0     H43138   6.297   9.771   4.321 -2.4098  1.0839  0.7751
  320MOL0     H43139   6.104   9.643   4.325 -2.7173  1.8204  1.3966
  320MOL0     H43140   6.153   9.555   4.474  2.1392 -1.2959 -1.5254
  320MOL0     H43141   6.157   9.798   4.556  1.8601  0.8739 -2.4330
  320MOL0     H43142   6.100   9.857   4.404 -1.7833  0.9708  0.3990
  320MOL0     H43143   5.930   9.666   4.581  0.1040 -1.2747 -0.7870
  320MOL0     H43144   5.926   9.839   4.582  1.1493 -2.6157  3.2448
  320MOL0     H43145   5.857   9.829   4.339 -0.1803 -2.4040 -2.4163
  320MOL0     H43146   5.847   9.652   4.348 -0.6983 -0.6563  1.0074
  320MOL0     H43147   5.688   9.676   4.546  2.3166  1.6316  1.0897
  320MOL0     H43148   5.696   9.851   4.529 -2.0001 -0.1971  1.0459
  320MOL0     H43149   5.569   9.676   4.300 -3.5464 -1.6460  1.4591
  320MOL0     H43150   5.594   9.851   4.307 -0.1179  0.0294 -0.5161
  320MOL0     H43151   5.442   9.604   4.592 -1.0515 -1.2011 -1.1677
  320MOL0     H43152   5.240   9.682   4.761 -0.0787  0.4345 -0.3813
  320MOL0     H43153   5.108   9.776   4.679 -3.9124 -2.2580 -1.3299
  320MOL0     H43154   5.063   9.575   4.532  1.6779  0.3987 -2.0295
  320MOL0     H43155   5.026   9.572   4.712 -0.1417  2.4423 -0.1494
  320MOL0     H43156   5.199   9.424   4.758 -0.5616  0.8453  0.3913
  320MOL0     H43157   5.255   9.425   4.582  0.5550  1.3166  0.4592
  320MOL0     H43158   5.018   9.315   4.536  1.3823  1.9898 -0.9821
  320MOL0     H43159   4.990   9.336   4.714  0.7400  1.5916  0.3942
  320MOL0     H43160   4.839   9.191   4.631 -0.1531  0.7807  3.3711
  320MOL0     H43161   4.611   8.982   4.540  1.2493 -0.2844 -0.2136
  320MOL0     H43162   4.584   8.967   4.716 -1.4518  2.4798 -0.5226
  320MOL0     H43163   4.638   9.121   4.646  1.6459 -0.4515  0.1993
  320MOL0     H43164   4.493   8.704   4.931 -2.1196  1.9676 -1.1743
  320MOL0     H43165   4.377   8.486   5.001 -4.4744 -0.4578 -0.9393
  320MOL0     H43166   4.381   8.132   4.702 -1.0890  1.6313  0.0777
  320MOL0     H43167   4.489   8.148   4.844  0.6485 -2.1560 -3.4869
  320MOL0     H43168   4.180   8.104   4.872 -0.3931 -1.2205  0.8141
  320MOL0     H43169   4.284   7.959   4.824  1.2922 -0.9580  3.3846
  320MOL0     H43170   4.374   8.104   5.065  2.7065 -2.5989  2.2633
  320MOL0     H43171   4.391   7.941   5.011  2.5358  2.9708 -0.9372
  320MOL0     H43172   4.133   8.084   5.117 -0.6113  0.0276  4.1893
  320MOL0     H43173   4.124   7.912   5.066 -3.0439  1.0309  3.4113
  320MOL0     H43174   4.218   8.030   5.314  1.1722 -0.3417 -0.1503
  320MOL0     H43175   4.358   7.974   5.239 -0.3320 -0.2544  0.0331
  320MOL0     H43176   4.199   7.755   5.213  3.8989  1.0268 -0.5708
  320MOL0     H43177   4.278   7.771   5.361 -1.3993 -1.2557  2.0294
  320MOL0     H43178   4.093   7.855   5.474  6.5039 -2.1904 -0.7532
  320MOL0     H43179   4.025   7.716   5.384 -2.3750  0.6232  2.5484
  320MOL0     H43180   3.954   7.840   5.206  2.7024 -1.0480  0.1990
  320MOL0     H43181   3.990   7.997   5.292 -1.1193  0.4819 -2.6559
  320MOL0     H43182   4.456   8.324   4.617 -0.0534 -0.3220  0.3434
  320MOL0     H43183   4.604   8.524   4.565 -0.1441  1.3018 -0.7965
  320MOL0     H43184   5.037   8.761   4.770  1.3715 -0.0833 -0.1751
  320MOL0     H43185   5.181   8.948   4.730 -0.7585 -1.5746 -0.7978
  320MOL0     H43186   6.605   9.306   4.278 -1.0809  2.6185  1.7084
  320MOL0     H43187   6.558   9.061   4.201 -1.2141 -2.8901  4.1670
  320MOL0     H43188   6.155   8.836   3.859  1.0126 -2.7955 -2.8344
  320MOL0     H43189   6.039   8.613   3.818  0.0057  0.7237 -0.1884
  320MOL0     H43190   5.901   8.458   3.823 -1.0088  1.2158  1.5155
  320MOL0     H43191   5.999   8.312   3.827 -1.6055 -0.7418 -0.6159
  320MOL0     H43192   5.765   8.354   4.008 -0.8812 -0.9294 -1.3235
  320MOL0     H43193   5.873   8.214   4.003 -2.7785  0.4159  0.9850
  320MOL0     H43194   5.802   8.126   3.817  1.4545  1.4672 -2.2319
  320MOL0     H43195   5.725   8.266   3.749  3.0493  0.8726 -0.1515
  320MOL0     H43196   5.626   8.134   4.000  0.7553  1.0301  0.7145
  320MOL0     H43197   5.566   8.081   3.833  1.5944  0.8949 -2.8887
  320MOL0     H43198   5.390   8.456   3.941 -1.8254 -2.1294  0.0901
  320MOL0     H43199   6.116   8.490   4.224 -0.4621 -1.0296  0.5904
  320MOL0     H43200   6.224   8.715   4.265 -1.7315 -1.0637  0.2901
  321MOL0     O43201   3.752   6.484   5.702 -0.5702  0.5999 -1.1799
  321MOL0     C43202   3.627   6.476   5.697 -0.9672 -0.1377 -0.3490
  321MOL0     O43203   3.545   6.404   5.785 -0.5403 -0.2178 -0.0412
  321MOL0     C43204   3.600   6.305   5.868 -0.4966 -0.5493 -0.1772
  321MOL0     C43205   3.718   6.316   5.940 -0.3788 -1.1209  0.2247
  321MOL0     C43206   3.773   6.218   6.016 -0.6149  0.1479  0.2889
  321MOL0     C43207   3.707   6.104   6.042 -0.0583 -1.1552 -0.4201
  321MOL0     O43208   3.779   6.010   6.097  0.4057 -0.2816  0.0462
  321MOL0     C43209   3.694   5.900   6.144  0.4823 -0.7595 -0.4420
  321MOL0     C43210   3.786   5.802   6.220 -0.2829  0.4633 -0.1426
  321MOL0     C43211   3.699   5.703   6.287 -0.2658 -0.5534 -0.2932
  321MOL0     C43212   3.637   5.606   6.182  0.0013  0.1198 -0.0775
  321MOL0     C43213   3.597   5.484   6.264 -0.3307  1.4821 -0.4198
  321MOL0     C43214   3.535   5.382   6.174 -0.2366 -1.0537 -0.8195
  321MOL0     C43215   3.518   5.244   6.247 -0.7912  0.1941 -0.2894
  321MOL0     C43216   3.480   5.122   6.168  0.4060  0.3568 -0.4112
  321MOL0     N43217   3.432   5.008   6.258  0.4969 -1.3492 -0.1300
  321MOL0     C43218   3.506   4.915   6.321 -0.6915 -0.1054  1.3313
  321MOL0     C43219   3.417   4.819   6.356 -0.3279 -0.7323  0.9821
  321MOL0     C43220   3.459   4.690   6.423 -0.4737  0.6314 -0.2192
  321MOL0     C43221   3.540   4.607   6.314  0.0506  0.1558 -0.2564
  321MOL0     C43222   3.440   4.540   6.216 -0.2338 -0.1919  0.7139
  321MOL0     C43223   3.510   4.434   6.132 -0.6882  1.4077 -0.2486
  321MOL0     O43224   3.631   4.494   6.079 -0.0410  0.0204 -1.0126
  321MOL0     C43225   3.630   4.550   5.952 -0.8559  0.4189  0.8335
  321MOL0     C43226   3.522   4.585   5.874 -0.0855  0.8697  0.0242
  321MOL0     C43227   3.530   4.635   5.737 -0.1608 -0.2210 -0.8140
  321MOL0     C43228   3.406   4.674   5.662  0.0619 -0.4781 -0.4152
  321MOL0     C43229   3.657   4.657   5.684 -0.2993 -0.4600  0.2565
  321MOL0     C43230   3.686   4.682   5.543 -0.2996 -0.0819  0.2527
  321MOL0     O43231   3.815   4.698   5.506  1.1037  0.5459 -0.4598
  321MOL0     C43232   3.832   4.755   5.387 -0.1198 -0.9020  0.1484
  321MOL0     C43233   3.818   4.696   5.261 -0.2421 -0.8543 -0.5178
  321MOL0     C43234   3.843   4.762   5.141 -0.3264 -0.2078  0.5771
  321MOL0     C43235   3.885   4.891   5.149 -0.6749 -0.4911  0.6180
  321MOL0     O43236   3.917   4.977   5.038 -0.5433  0.3383 -0.1448
  321MOL0     C43237   3.844   4.945   4.920  0.0616  0.9585  0.4512
  321MOL0     C43238   3.861   5.039   4.812 -0.0441 -0.3515  0.0580
  321MOL0     C43239   3.999   5.080   4.773  0.1755  0.2416 -0.1214
  321MOL0     C43240   4.006   5.219   4.727  1.0373 -0.2868 -0.2415
  321MOL0     C43241   4.156   5.256   4.700  0.4381  0.6586 -0.2983
  321MOL0     C43242   4.177   5.379   4.606 -0.1823  0.1978 -0.5642
  321MOL0     C43243   4.120   5.510   4.666 -0.5512 -0.3868  0.2874
  321MOL0     C43244   4.139   5.639   4.578  0.2165 -0.1729  0.2248
  321MOL0    Cl43245   4.140   5.781   4.685 -0.0267 -0.3248  0.8356
  321MOL0     C43246   3.908   4.950   5.269  0.0341 -0.0949 -0.6173
  321MOL0     C43247   3.872   4.892   5.392  0.9944  0.6833 -0.4840
  321MOL0     O43248   3.595   4.659   5.463 -0.3314  0.5618 -0.2787
  321MOL0     C43249   3.768   4.648   5.775  1.2662  0.1799  1.1171
  321MOL0     C43250   3.754   4.591   5.901  0.7820  0.0579 -0.4084
  321MOL0     N43251   3.289   4.867   6.326 -0.5904 -0.0423  0.1251
  321MOL0     N43252   3.303   4.974   6.267 -0.2029 -0.1334  0.0873
  321MOL0     C43253   3.584   6.091   5.984 -0.8850 -0.6379 -0.2733
  321MOL0     C43254   3.526   6.195   5.906  0.0236 -0.3525  0.2476
  321MOL0     C43255   3.545   6.543   5.593  0.1417  0.3880  0.2578
  321MOL0     C43256   3.598   6.614   5.484 -0.4295 -0.0693 -0.4006
  321MOL0     C43257   3.509   6.679   5.395 -1.0008  0.4336 -0.8138
  321MOL0     C43258   3.371   6.663   5.413 -0.1149  0.3273  0.1962
  321MOL0     O43259   3.282   6.724   5.322 -0.4582 -0.1738  0.1614
  321MOL0     C43260   3.301   6.686   5.182 -0.2377 -0.3184  0.4097
  321MOL0     C43261   3.174   6.722   5.111  0.0077 -0.0317 -0.9554
  321MOL0     C43262   3.126   6.616   5.010 -0.3819 -0.5373 -0.1842
  321MOL0     C43263   3.224   6.593   4.896  0.4430 -0.1390  0.1449
  321MOL0     C43264   3.336   6.507   4.929  0.9699  0.0860 -0.3454
  321MOL0     C43265   3.431   6.433   4.955  0.5543  0.1442 -0.6870
  321MOL0     C43266   3.319   6.597   5.521  0.5729 -0.0260  0.5455
  321MOL0     C43267   3.408   6.534   5.607  0.3052  0.8000  0.1394
  321MOL0     H43268   3.768   6.412   5.944 -2.7472  0.1347  2.6325
  321MOL0     H43269   3.869   6.235   6.063 -0.4248 -0.5236  0.1593
  321MOL0     H43270   3.612   5.932   6.209  0.0384  0.5720 -1.6168
  321MOL0     H43271   3.649   5.850   6.058 -1.8766  2.0323 -0.9785
  321MOL0     H43272   3.858   5.750   6.157  0.4752  0.8742  0.3735
  321MOL0     H43273   3.835   5.865   6.295  0.9380 -1.3106  0.6280
  321MOL0     H43274   3.757   5.639   6.354 -0.8901 -3.2599 -2.1603
  321MOL0     H43275   3.618   5.744   6.348 -0.8458  0.9790 -1.9631
  321MOL0     H43276   3.555   5.661   6.135  0.5785  0.4079 -0.7605
  321MOL0     H43277   3.705   5.576   6.102 -0.1480  0.9528 -0.5310
  321MOL0     H43278   3.687   5.429   6.294 -0.0424  1.7012 -0.8625
  321MOL0     H43279   3.524   5.508   6.342 -1.4139 -1.8518 -0.2621
  321MOL0     H43280   3.434   5.404   6.136 -0.1650 -0.6312 -0.7653
  321MOL0     H43281   3.599   5.372   6.086 -0.5882 -0.8848 -1.0994
  321MOL0     H43282   3.616   5.218   6.289 -0.2556 -2.0218 -2.6672
  321MOL0     H43283   3.451   5.254   6.333 -0.3006  3.4793 -0.1528
  321MOL0     H43284   3.570   5.081   6.122  0.6216 -0.8785  1.0462
  321MOL0     H43285   3.400   5.142   6.096  1.1103  0.8230 -1.0755
  321MOL0     H43286   3.615   4.919   6.320 -0.6707 -0.2386  2.2864
  321MOL0     H43287   3.522   4.703   6.511 -0.3860  0.0125 -0.1881
  321MOL0     H43288   3.366   4.640   6.451 -1.7082  0.7586 -3.6459
  321MOL0     H43289   3.575   4.529   6.382  1.5449  1.2172  0.2364
  321MOL0     H43290   3.624   4.650   6.260  1.2694  0.4423  1.7622
  321MOL0     H43291   3.406   4.617   6.146 -1.5930 -0.4285  1.0929
  321MOL0     H43292   3.365   4.485   6.273  1.3202 -1.2871  1.8083
  321MOL0     H43293   3.443   4.389   6.058  0.5123  3.2862 -2.6575
  321MOL0     H43294   3.544   4.357   6.202 -1.7388  0.1390 -1.0881
  321MOL0     H43295   3.419   4.566   5.900 -0.1746 -0.6312 -1.3363
  321MOL0     H43296   3.315   4.690   5.720 -0.1217  0.2662 -0.8872
  321MOL0     H43297   3.417   4.772   5.614 -1.6387  0.6901  1.4021
  321MOL0     H43298   3.380   4.603   5.582 -0.5772 -0.4092 -0.2802
  321MOL0     H43299   3.771   4.599   5.253 -0.0902 -1.0139  0.4157
  321MOL0     H43300   3.844   4.705   5.049 -2.4301  1.5205 -0.6230
  321MOL0     H43301   3.875   4.848   4.878 -0.6901  1.1562 -0.5817
  321MOL0     H43302   3.737   4.941   4.938  0.3907  2.6863  3.2943
  321MOL0     H43303   3.811   4.999   4.723 -0.0494  3.6269 -1.9501
  321MOL0     H43304   3.796   5.125   4.833  1.5429  0.7805  0.5867
  321MOL0     H43305   4.064   5.021   4.708  2.2364 -0.0266  2.0510
  321MOL0     H43306   4.046   5.072   4.872 -0.3377  3.1447  0.4376
  321MOL0     H43307   3.971   5.211   4.624  1.4292 -0.8573 -0.3328
  321MOL0     H43308   3.950   5.294   4.785 -0.0250 -2.5020  1.7808
  321MOL0     H43309   4.228   5.182   4.663  0.8521 -0.6417  2.7823
  321MOL0     H43310   4.209   5.279   4.793  0.9394  0.4080 -0.5167
  321MOL0     H43311   4.284   5.398   4.589 -0.6501  0.6854 -3.6417
  321MOL0     H43312   4.139   5.365   4.504  0.4357  0.1689 -0.7990
  321MOL0     H43313   4.173   5.527   4.761 -2.2679  3.2245  0.7419
  321MOL0     H43314   4.017   5.492   4.697 -0.0545 -0.9371  1.7281
  321MOL0     H43315   4.065   5.637   4.497 -1.7939 -2.7328  1.9699
  321MOL0     H43316   4.237   5.635   4.529  0.6366  0.3392  1.0058
  321MOL0     H43317   3.941   5.053   5.268 -3.3558  1.1633 -2.7829
  321MOL0     H43318   3.883   4.931   5.492 -4.1013 -1.3159  1.1524
  321MOL0     H43319   3.874   4.649   5.749  1.9498 -0.2805  3.6322
  321MOL0     H43320   3.845   4.578   5.960 -0.6080  2.1989  2.4349
  321MOL0     H43321   3.532   5.996   5.989  0.1970 -1.2174  0.1601
  321MOL0     H43322   3.424   6.200   5.870 -0.1975  2.8199  1.0138
  321MOL0     H43323   3.706   6.621   5.481 -0.2324 -1.3978  1.7389
  321MOL0     H43324   3.549   6.735   5.312  2.9293 -1.5078 -0.4722
  321MOL0     H43325   3.386   6.744   5.144  0.1746 -1.8556 -1.1208
  321MOL0     H43326   3.321   6.580   5.164 -0.5456 -0.1480 -0.9973
  321MOL0     H43327   3.201   6.809   5.050  1.1666 -0.4325 -1.0401
  321MOL0     H43328   3.086   6.740   5.174 -0.5610 -3.4469 -0.6187
  321MOL0     H43329   3.036   6.655   4.961 -0.0920 -1.1611 -1.2549
  321MOL0     H43330   3.107   6.524   5.066  0.3729 -0.6337 -0.0759
  321MOL0     H43331   3.266   6.693   4.888 -2.6768  1.5118  2.2919
  321MOL0     H43332   3.168   6.561   4.807 -3.3377 -2.2373  2.9914
  321MOL0     H43333   3.509   6.361   4.970 -0.5723 -0.5411  2.8310
  321MOL0     H43334   3.210   6.592   5.528  0.5351 -1.7326 -0.6221
  321MOL0     H43335   3.370   6.481   5.694  2.9211  1.0377  1.5172
  322MOL0     O43336   4.944   6.853   5.103  0.2816  0.0791 -0.1847
  322MOL0     C43337   5.020   6.752   5.121 -0.4834  0.7780 -0.0697
  322MOL0     O43338   5.112   6.749   5.221 -0.7384 -0.3038  0.1039
  322MOL0     C43339   5.120   6.835   5.330 -0.4000  0.5131 -0.9375
  322MOL0     C43340   5.127   6.781   5.460  0.4124 -0.2668  0.3507
  322MOL0     C43341   5.118   6.859   5.576 -0.4680  0.1361  0.3115
  322MOL0     C43342   5.131   6.998   5.566  0.0598 -1.0849  0.2621
  322MOL0     O43343   5.143   7.070   5.680 -0.0812 -0.1859  0.9871
  322MOL0     C43344   5.144   7.212   5.684 -0.2027 -0.1166 -1.0856
  322MOL0     C43345   5.150   7.262   5.830  0.2062  1.0047 -0.1785
  322MOL0     C43346   5.015   7.220   5.902 -0.0671  0.7557 -0.1414
  322MOL0     C43347   5.043   7.143   6.037  0.5822 -0.0278 -0.0984
  322MOL0     C43348   5.093   7.232   6.153 -0.8639 -0.1128  0.7481
  322MOL0     C43349   4.971   7.294   6.229 -0.4189 -0.3879  0.2860
  322MOL0     C43350   4.994   7.353   6.369 -0.0020  0.1701  0.0922
  322MOL0     C43351   4.972   7.511   6.359  0.2405 -0.1919  0.7751
  322MOL0     N43352   5.072   7.574   6.262 -0.2472  0.4320  0.7276
  322MOL0     C43353   5.206   7.548   6.269  0.3332 -0.8060  0.4629
  322MOL0     C43354   5.260   7.619   6.167 -0.4242  0.3836  0.8159
  322MOL0     C43355   5.404   7.599   6.128 -0.2517  0.5013 -1.0004
  322MOL0     C43356   5.443   7.491   6.028 -0.6662  1.1249  0.3648
  322MOL0     C43357   5.591   7.442   6.051 -0.5880  0.5885  0.7476
  322MOL0     C43358   5.625   7.321   5.971 -0.9981  0.5620 -0.3134
  322MOL0     O43359   5.758   7.317   5.909  0.8992  1.0033  1.0881
  322MOL0     C43360   5.863   7.299   5.985 -0.1222  0.6210 -0.7527
  322MOL0     C43361   5.975   7.371   5.939 -0.4475  0.0407  0.3222
  322MOL0     C43362   6.097   7.373   6.014  0.0316  0.7191  0.1930
  322MOL0     C43363   6.210   7.437   5.958  0.3165 -0.2499  0.1769
  322MOL0     C43364   6.099   7.302   6.146  1.1427 -0.6089 -0.1254
  322MOL0     C43365   6.219   7.291   6.234  0.1516  0.2054  0.0966
  322MOL0     O43366   6.327   7.338   6.181 -0.6154  0.3497  0.5459
  322MOL0     C43367   6.447   7.325   6.239 -0.7815  0.2646  0.5211
  322MOL0     C43368   6.546   7.419   6.199 -0.7877 -0.3363 -0.1314
  322MOL0     C43369   6.683   7.401   6.232  0.7119 -0.5261 -0.4335
  322MOL0     C43370   6.722   7.297   6.321  0.1850  0.1860  1.2135
  322MOL0     O43371   6.852   7.269   6.348  0.6622 -0.5555 -0.1731
  322MOL0     C43372   6.964   7.334   6.289 -0.2997 -0.3433  0.0742
  322MOL0     C43373   7.089   7.241   6.293 -0.0631 -0.7219  0.0314
  322MOL0     C43374   7.049   7.095   6.255  0.1334 -0.5505 -0.3401
  322MOL0     C43375   7.173   7.022   6.213 -0.2602 -1.0262  0.1663
  322MOL0     C43376   7.143   6.888   6.172 -0.1673 -0.4031  0.6879
  322MOL0     C43377   7.272   6.817   6.103 -0.0990 -0.5562 -0.0239
  322MOL0     C43378   7.287   6.671   6.153 -0.6678  0.0514 -0.4281
  322MOL0     C43379   7.427   6.643   6.225  0.4362 -0.5526 -0.7829
  322MOL0    Cl43380   7.444   6.468   6.249 -0.5219  0.1568  0.3684
  322MOL0     C43381   6.627   7.208   6.364 -0.3675 -0.6309  0.0886
  322MOL0     C43382   6.498   7.224   6.332  0.1639  0.9071  0.4463
  322MOL0     O43383   6.209   7.254   6.349  0.3988 -0.0215 -0.1515
  322MOL0     C43384   5.985   7.244   6.187 -0.4868  0.5787  1.1600
  322MOL0     C43385   5.871   7.234   6.108  0.0593 -0.2329  0.1137
  322MOL0     N43386   5.160   7.677   6.091 -0.7618 -0.6934  0.0067
  322MOL0     N43387   5.049   7.649   6.152  0.1546 -0.0003  0.0619
  322MOL0     C43388   5.137   7.061   5.440 -0.1519 -0.7497  0.4124
  322MOL0     C43389   5.125   6.976   5.326  0.0273 -0.1052 -0.0898
  322MOL0     C43390   5.022   6.633   5.036  0.0865  0.6374  0.2769
  322MOL0     C43391   4.902   6.596   4.968 -0.1658 -0.2687  0.3837
  322MOL0     C43392   4.912   6.478   4.887  0.3261 -0.3263 -0.5507
  322MOL0     C43393   5.035   6.407   4.869  0.1130  0.5075  0.0343
  322MOL0     O43394   5.025   6.308   4.770 -0.5179  0.2238 -0.1237
  322MOL0     C43395   5.128   6.212   4.751  0.7572 -0.2964  0.1352
  322MOL0     C43396   5.067   6.069   4.724 -0.4825  0.1760 -0.6234
  322MOL0     C43397   4.991   6.060   4.585 -0.1629 -0.5305 -0.1734
  322MOL0     C43398   4.901   5.940   4.587 -0.5630 -0.0498  0.3402
  322MOL0     C43399   4.838   5.896   4.463 -0.6207 -0.3645  1.3206
  322MOL0     C43400   4.782   5.876   4.360  0.6938 -0.0448  0.1985
  322MOL0     C43401   5.141   6.443   4.945 -0.5665 -0.1304  0.0841
  322MOL0     C43402   5.124   6.546   5.034  0.3319 -0.4318  0.2904
  322MOL0     H43403   5.097   6.677   5.469 -3.7674  0.6590 -0.6214
  322MOL0     H43404   5.113   6.820   5.678 -1.9538  2.5892  1.2571
  322MOL0     H43405   5.231   7.261   5.637  0.2267  0.9515  0.7270
  322MOL0     H43406   5.055   7.253   5.637 -0.5954 -2.4599 -2.5365
  322MOL0     H43407   5.234   7.213   5.880 -1.0157 -0.9187  0.0872
  322MOL0     H43408   5.154   7.371   5.836  0.8968  1.0185 -0.6973
  322MOL0     H43409   4.960   7.310   5.931 -2.0910 -1.3269  3.1016
  322MOL0     H43410   4.951   7.166   5.832 -2.3314  1.1173  1.5245
  322MOL0     H43411   4.949   7.099   6.070 -0.4842  2.3373  0.2016
  322MOL0     H43412   5.115   7.061   6.028 -1.5879 -1.9677 -0.6324
  322MOL0     H43413   5.148   7.163   6.217 -1.0724 -1.8973 -0.9063
  322MOL0     H43414   5.149   7.322   6.125  0.0921 -0.8199  0.3309
  322MOL0     H43415   4.917   7.354   6.155 -0.3097 -1.8122 -1.0030
  322MOL0     H43416   4.902   7.211   6.245  0.5316 -1.5690 -1.4034
  322MOL0     H43417   4.928   7.312   6.446  0.7586 -1.7839 -0.2221
  322MOL0     H43418   5.098   7.348   6.402  0.0320  0.6216  0.0550
  322MOL0     H43419   4.997   7.563   6.452  0.3281  3.6639 -1.1810
  322MOL0     H43420   4.868   7.530   6.331  0.2201 -2.7264 -1.1966
  322MOL0     H43421   5.256   7.487   6.342  1.3048  1.6764  1.9861
  322MOL0     H43422   5.442   7.695   6.090 -1.0197  0.6332 -1.4530
  322MOL0     H43423   5.455   7.571   6.220 -5.3281  1.3719  2.4541
  322MOL0     H43424   5.423   7.522   5.925 -1.6735 -2.7779 -0.7569
  322MOL0     H43425   5.378   7.404   6.042  0.8980 -0.8319 -3.2258
  322MOL0     H43426   5.622   7.424   6.155  2.3110  1.0308  0.0526
  322MOL0     H43427   5.656   7.526   6.025  3.6317 -1.7366  2.7050
  322MOL0     H43428   5.548   7.317   5.892  0.6374  1.2311 -2.0192
  322MOL0     H43429   5.617   7.232   6.035  2.0827  1.0382  0.8907
  322MOL0     H43430   5.952   7.425   5.848  2.2745 -0.5302 -0.7864
  322MOL0     H43431   6.162   7.491   5.875 -0.8194 -0.0950  0.9199
  322MOL0     H43432   6.264   7.511   6.017 -1.9484  1.0549  0.7518
  322MOL0     H43433   6.287   7.370   5.919 -0.2017  0.3329 -2.0117
  322MOL0     H43434   6.524   7.507   6.140  4.3577  1.8402  0.6952
  322MOL0     H43435   6.757   7.469   6.192  0.5480  0.0857  0.2838
  322MOL0     H43436   6.950   7.354   6.182  3.7715 -4.0889 -1.4629
  322MOL0     H43437   6.983   7.428   6.341  0.7778 -0.7433  0.4461
  322MOL0     H43438   7.174   7.281   6.237  1.0258  1.5886  3.0553
  322MOL0     H43439   7.129   7.245   6.394 -4.0132  2.1398  1.7592
  322MOL0     H43440   6.977   7.090   6.172 -0.7530 -0.0190  0.3765
  322MOL0     H43441   6.999   7.051   6.342 -0.7058  0.1849 -0.4363
  322MOL0     H43442   7.224   7.067   6.128  0.4450 -0.6028  0.8066
  322MOL0     H43443   7.241   7.026   6.299 -0.9827 -0.2922  0.7226
  322MOL0     H43444   7.056   6.893   6.107 -1.8069 -0.6063  2.7507
  322MOL0     H43445   7.100   6.844   6.263 -0.8281 -1.7603 -0.2515
  322MOL0     H43446   7.257   6.812   5.995  2.5011  0.4145 -0.4915
  322MOL0     H43447   7.360   6.879   6.124 -0.4403 -0.0411 -0.1047
  322MOL0     H43448   7.283   6.591   6.077 -1.8480  0.6326 -1.0094
  322MOL0     H43449   7.210   6.644   6.226 -1.3870 -1.5710 -1.7100
  322MOL0     H43450   7.426   6.687   6.325  0.5266 -0.9729 -0.5930
  322MOL0     H43451   7.515   6.684   6.174  1.1499 -2.7592 -1.4821
  322MOL0     H43452   6.669   7.120   6.412  0.3533 -0.9984 -1.1713
  322MOL0     H43453   6.433   7.144   6.367 -0.1644  2.1638  2.9279
  322MOL0     H43454   5.995   7.166   6.262  2.1148 -0.9413 -0.5719
  322MOL0     H43455   5.793   7.168   6.143 -1.0641 -0.4622 -2.5854
  322MOL0     H43456   5.121   7.167   5.423 -1.5191 -0.6247  2.1819
  322MOL0     H43457   5.120   7.024   5.228 -1.9582 -1.9867 -0.9887
  322MOL0     H43458   4.812   6.655   4.979  1.3797  1.9033  2.1995
  322MOL0     H43459   4.824   6.434   4.841 -1.8545  2.5676  0.5527
  322MOL0     H43460   5.196   6.242   4.671  0.2305  1.7976  0.3993
  322MOL0     H43461   5.181   6.194   4.846 -1.3630 -0.0128  1.4390
  322MOL0     H43462   5.009   6.032   4.809  1.4383 -2.2877 -0.2754
  322MOL0     H43463   5.145   5.995   4.706  1.7074  1.9809  0.7825
  322MOL0     H43464   5.063   6.058   4.503 -0.3692  0.9877 -0.4289
  322MOL0     H43465   4.937   6.149   4.551  1.2574 -0.7286 -3.3079
  322MOL0     H43466   4.826   5.954   4.666  0.2595 -4.8257  2.2920
  322MOL0     H43467   4.959   5.854   4.621  0.0109  0.1460 -0.1424
  322MOL0     H43468   4.723   5.874   4.271  0.1071  1.2618  0.5233
  322MOL0     H43469   5.232   6.384   4.941  0.7290  1.8346 -1.7914
  322MOL0     H43470   5.215   6.558   5.093  1.1814 -0.1007 -1.0321
  323MOL0     O43471   5.154   3.547   3.958 -0.4930 -0.3079 -0.1829
  323MOL0     C43472   5.269   3.512   3.954 -0.5955  0.2388 -0.1178
  323MOL0     O43473   5.310   3.398   4.023 -0.2918  0.2396  0.1727
  323MOL0     C43474   5.263   3.374   4.141  0.3823 -0.1276  0.1959
  323MOL0     C43475   5.257   3.233   4.181  0.6026 -0.2332 -0.7372
  323MOL0     C43476   5.230   3.199   4.316 -0.2595 -0.9940  0.5441
  323MOL0     C43477   5.187   3.300   4.405 -0.9333 -0.3118 -0.3130
  323MOL0     O43478   5.137   3.263   4.526 -0.2278  0.1035  0.4748
  323MOL0     C43479   4.998   3.258   4.524  0.4712  0.1948 -0.2278
  323MOL0     C43480   4.940   3.136   4.450  1.0150 -1.2559  0.0026
  323MOL0     C43481   4.793   3.129   4.463 -0.0768  0.4341  0.2163
  323MOL0     C43482   4.727   3.014   4.390  0.5790  0.5418  0.6987
  323MOL0     C43483   4.578   3.024   4.382 -0.5070 -0.0278 -0.4473
  323MOL0     C43484   4.519   3.117   4.286  1.3123 -1.4102 -0.4479
  323MOL0     C43485   4.523   3.089   4.137 -0.5041 -0.0213  0.7948
  323MOL0     C43486   4.445   2.958   4.114  0.2521 -0.1149  0.0345
  323MOL0     N43487   4.454   2.929   3.968 -0.0256 -0.4034 -0.1856
  323MOL0     C43488   4.352   2.935   3.873  0.2939  0.5565 -1.0980
  323MOL0     C43489   4.397   2.888   3.755  1.7941 -0.4903  0.0291
  323MOL0     C43490   4.327   2.897   3.628  0.2524 -0.4901 -0.0759
  323MOL0     C43491   4.395   2.998   3.544  0.0920 -0.6416  0.3794
  323MOL0     C43492   4.336   2.998   3.403  0.8216 -0.1378 -0.2519
  323MOL0     C43493   4.403   3.094   3.301 -0.0454 -0.0954  0.0604
  323MOL0     O43494   4.322   3.090   3.177  0.0532 -0.0981  0.3921
  323MOL0     C43495   4.365   3.169   3.073  0.5615 -0.3164  0.4097
  323MOL0     C43496   4.449   3.283   3.097 -0.4300  0.1818  0.9325
  323MOL0     C43497   4.461   3.374   3.001  0.1405 -0.7591 -0.4817
  323MOL0     C43498   4.535   3.504   3.035  0.8794  0.0038 -0.7604
  323MOL0     C43499   4.398   3.369   2.871 -0.6104  0.8730 -0.5709
  323MOL0     C43500   4.411   3.475   2.763  1.0523 -0.5030  0.3882
  323MOL0     O43501   4.353   3.440   2.646  0.2034  0.6849 -0.2478
  323MOL0     C43502   4.363   3.521   2.543  0.1408 -0.8663 -0.3263
  323MOL0     C43503   4.422   3.475   2.430 -0.5416 -0.1703  0.4994
  323MOL0     C43504   4.433   3.544   2.313 -0.3330  0.0033 -0.1291
  323MOL0     C43505   4.368   3.670   2.299 -1.4284 -0.3748 -0.3486
  323MOL0     O43506   4.390   3.727   2.179 -0.2693 -0.6824 -1.0382
  323MOL0     C43507   4.352   3.863   2.144  0.3898 -0.1264 -1.4399
  323MOL0     C43508   4.383   3.875   1.997 -0.8065 -0.4479 -0.2122
  323MOL0     C43509   4.319   3.999   1.925 -0.0909  0.6954  0.6826
  323MOL0     C43510   4.418   4.113   1.918 -0.0333 -0.0086 -0.1066
  323MOL0     C43511   4.348   4.225   1.850  0.2852  0.4522 -0.4130
  323MOL0     C43512   4.446   4.329   1.798  0.3009 -0.5533 -0.4011
  323MOL0     C43513   4.388   4.419   1.685 -0.1379 -1.3883 -0.1943
  323MOL0     C43514   4.470   4.552   1.686  0.3330 -0.4167  0.1318
  323MOL0    Cl43515   4.383   4.664   1.580  0.0789  0.0888 -0.1433
  323MOL0     C43516   4.288   3.715   2.411 -0.5082 -0.7508 -0.9409
  323MOL0     C43517   4.295   3.639   2.539 -0.2162 -0.2285  0.6258
  323MOL0     O43518   4.468   3.582   2.781  0.2729 -0.1766  0.0304
  323MOL0     C43519   4.336   3.243   2.850 -0.2814 -0.4638 -0.2827
  323MOL0     C43520   4.316   3.144   2.943 -0.3268 -0.7921 -0.8935
  323MOL0     N43521   4.530   2.851   3.783  1.1425  0.6203 -1.1677
  323MOL0     N43522   4.559   2.873   3.903 -0.2614 -1.1126  0.6933
  323MOL0     C43523   5.186   3.436   4.372 -0.2124  0.6181 -0.4209
  323MOL0     C43524   5.221   3.477   4.243 -0.7824  0.3797 -1.3461
  323MOL0     C43525   5.355   3.571   3.856 -0.2095 -0.1959  0.4798
  323MOL0     C43526   5.302   3.676   3.774 -0.0319  0.9408  0.8084
  323MOL0     C43527   5.374   3.716   3.659  1.1519  0.0547  0.1065
  323MOL0     C43528   5.507   3.664   3.647  0.4011  0.1247  0.3573
  323MOL0     O43529   5.580   3.702   3.543 -0.5950 -0.0839  0.4271
  323MOL0     C43530   5.554   3.634   3.417  0.0821  0.0316  0.5217
  323MOL0     C43531   5.468   3.721   3.325  0.2006 -0.8195  0.5854
  323MOL0     C43532   5.441   3.659   3.183 -0.2852 -0.4251 -0.8570
  323MOL0     C43533   5.364   3.759   3.098  0.7688 -0.8499 -0.0801
  323MOL0     C43534   5.350   3.722   2.962  0.7290 -0.0532 -0.0629
  323MOL0     C43535   5.337   3.703   2.843 -0.1312 -0.7949 -0.2892
  323MOL0     C43536   5.555   3.576   3.739 -0.3481  0.5932  0.2931
  323MOL0     C43537   5.481   3.521   3.836  0.5203  0.7821 -0.2002
  323MOL0     H43538   5.258   3.158   4.103 -2.1575 -0.4672 -0.6671
  323MOL0     H43539   5.212   3.094   4.338  0.7835 -1.4301 -0.5659
  323MOL0     H43540   4.967   3.251   4.628  2.3277  4.1209  0.7822
  323MOL0     H43541   4.944   3.343   4.483  1.6135  1.7095  1.2632
  323MOL0     H43542   4.948   3.162   4.344 -3.8782  1.4544  0.0040
  323MOL0     H43543   4.989   3.042   4.478  4.5228  0.4479  0.0422
  323MOL0     H43544   4.787   3.118   4.572  1.4307 -0.3891  0.2451
  323MOL0     H43545   4.746   3.223   4.433 -0.1395  0.0773 -0.8445
  323MOL0     H43546   4.765   3.007   4.287 -1.1571 -1.2698  0.1296
  323MOL0     H43547   4.762   2.923   4.439 -0.6509  1.0138  2.5371
  323MOL0     H43548   4.537   2.922   4.385 -0.5389 -0.0296  2.4189
  323MOL0     H43549   4.543   3.065   4.477 -2.2711  2.7685 -2.1787
  323MOL0     H43550   4.416   3.142   4.312  0.7289 -0.8840 -2.9763
  323MOL0     H43551   4.567   3.215   4.297 -1.4586 -0.1735  2.1923
  323MOL0     H43552   4.466   3.159   4.076 -2.8777 -0.6310  2.1751
  323MOL0     H43553   4.624   3.092   4.094 -0.8626  1.0107  0.0116
  323MOL0     H43554   4.342   2.966   4.152 -0.6680  1.2986 -2.5095
  323MOL0     H43555   4.494   2.874   4.165 -1.3576  0.6437  3.0785
  323MOL0     H43556   4.258   2.978   3.904 -0.4671 -2.5041  1.3873
  323MOL0     H43557   4.328   2.798   3.581  2.5823 -0.3532 -0.4677
  323MOL0     H43558   4.224   2.925   3.650  0.3995 -1.0207  1.3887
  323MOL0     H43559   4.503   2.978   3.550  0.0198 -3.2622 -3.4042
  323MOL0     H43560   4.380   3.100   3.580  0.7395 -0.7817  1.0723
  323MOL0     H43561   4.231   3.030   3.407  0.8852 -0.0200  1.6488
  323MOL0     H43562   4.354   2.904   3.350 -2.4621 -1.4164  0.6656
  323MOL0     H43563   4.505   3.058   3.286 -0.1529 -0.6917  0.7302
  323MOL0     H43564   4.398   3.197   3.339  0.4768  0.5205 -1.4505
  323MOL0     H43565   4.506   3.301   3.187 -3.9719  1.4389  3.1605
  323MOL0     H43566   4.583   3.512   3.133 -0.5668  5.3710 -0.1700
  323MOL0     H43567   4.616   3.518   2.962  2.8150  0.1508  1.2955
  323MOL0     H43568   4.467   3.590   3.030 -1.0246 -1.3644  0.3427
  323MOL0     H43569   4.468   3.378   2.436  0.2153  0.2316  1.3866
  323MOL0     H43570   4.501   3.502   2.240  0.8889 -0.8583  1.4460
  323MOL0     H43571   4.259   3.902   2.187  2.2948  1.2775  1.8026
  323MOL0     H43572   4.429   3.922   2.196  1.7115 -2.7892 -0.1569
  323MOL0     H43573   4.492   3.884   1.993 -0.8764  0.0346 -1.1138
  323MOL0     H43574   4.357   3.784   1.941 -0.8887 -0.2377 -0.5164
  323MOL0     H43575   4.236   4.043   1.982  0.8624  2.1498  0.9887
  323MOL0     H43576   4.280   3.957   1.831  0.9662 -1.9382  1.3292
  323MOL0     H43577   4.444   4.146   2.019  1.5121  0.0519 -0.4945
  323MOL0     H43578   4.514   4.090   1.870  1.5587  0.4318  2.6054
  323MOL0     H43579   4.278   4.266   1.923  0.8838  0.9582 -0.1091
  323MOL0     H43580   4.289   4.195   1.762  1.3083 -1.4967 -0.4949
  323MOL0     H43581   4.473   4.394   1.882  2.9230  0.1272 -1.6816
  323MOL0     H43582   4.535   4.285   1.751 -1.3482 -3.6051 -0.9663
  323MOL0     H43583   4.283   4.444   1.706  0.3941  1.4592 -0.4259
  323MOL0     H43584   4.390   4.375   1.585 -2.0853  1.5005 -1.6596
  323MOL0     H43585   4.572   4.549   1.647  0.4885  3.0563 -0.0594
  323MOL0     H43586   4.481   4.587   1.789  0.2658  2.1371 -0.6407
  323MOL0     H43587   4.241   3.813   2.420  2.7039  1.2941 -3.8026
  323MOL0     H43588   4.222   3.667   2.614  0.6229 -1.5270  1.9855
  323MOL0     H43589   4.282   3.226   2.758  1.0949 -1.6103 -0.9130
  323MOL0     H43590   4.263   3.051   2.927 -0.9900 -0.2222 -2.1126
  323MOL0     H43591   5.138   3.506   4.439  2.5012  0.1519  2.2239
  323MOL0     H43592   5.231   3.583   4.222  0.1100  0.8376  1.0400
  323MOL0     H43593   5.199   3.710   3.779 -0.4662  0.2481 -1.7631
  323MOL0     H43594   5.337   3.772   3.573 -0.5017 -1.2833 -0.0774
  323MOL0     H43595   5.642   3.605   3.359  0.8358  1.0790  1.1165
  323MOL0     H43596   5.500   3.542   3.442  1.4457 -1.5110 -1.8447
  323MOL0     H43597   5.509   3.822   3.324 -2.3405  0.2783  0.2268
  323MOL0     H43598   5.364   3.734   3.354 -0.1017 -0.8730 -0.4296
  323MOL0     H43599   5.390   3.563   3.197  3.2504 -2.2703  0.6736
  323MOL0     H43600   5.541   3.634   3.147  0.5608 -1.2265  1.8308
  323MOL0     H43601   5.418   3.854   3.112  2.6967 -1.9331  0.2462
  323MOL0     H43602   5.272   3.775   3.155  2.7607  2.0631  2.7767
  323MOL0     H43603   5.323   3.671   2.742 -2.1908  0.8447 -0.5976
  323MOL0     H43604   5.657   3.541   3.724 -0.5719  0.5422 -1.3232
  323MOL0     H43605   5.520   3.450   3.908 -2.6092 -1.3329 -0.3608
  324MOL0     O43606   1.660  11.390   4.340 -0.6895 -0.0885 -0.0628
  324MOL0     C43607   1.668  11.265   4.338  0.2113  0.4751 -0.3040
  324MOL0     O43608   1.621  11.180   4.233  0.5136 -0.2956 -0.0623
  324MOL0     C43609   1.570  11.236   4.117 -0.3731 -0.2973 -0.3530
  324MOL0     C43610   1.490  11.350   4.101 -1.1323  0.6498 -0.1527
  324MOL0     C43611   1.438  11.378   3.976 -0.2984 -0.4604 -1.5719
  324MOL0     C43612   1.475  11.307   3.862 -0.1963  0.4361  0.5461
  324MOL0     O43613   1.436  11.342   3.733  0.5112  0.3907 -0.2399
  324MOL0     C43614   1.419  11.486   3.705  0.7792 -0.1249  0.2375
  324MOL0     C43615   1.399  11.499   3.563  0.0083 -0.7079  0.2909
  324MOL0     C43616   1.257  11.507   3.510 -1.0422 -0.0095 -0.8635
  324MOL0     C43617   1.271  11.495   3.362  0.3352  0.3021 -0.5709
  324MOL0     C43618   1.134  11.527   3.298 -0.0587  0.1211  0.2126
  324MOL0     C43619   1.147  11.589   3.158 -0.4960 -0.2471  0.1263
  324MOL0     C43620   1.019  11.597   3.081  0.2762 -0.4914  0.9364
  324MOL0     C43621   1.046  11.635   2.927 -1.0120  0.3221  0.5222
  324MOL0     N43622   0.917  11.632   2.858  0.0542  0.4718  0.2035
  324MOL0     C43623   0.901  11.662   2.723  0.3773  0.4210 -0.1794
  324MOL0     C43624   0.765  11.664   2.705  0.2564 -0.3902  0.0927
  324MOL0     C43625   0.699  11.687   2.578 -0.5065 -0.9326  0.1177
  324MOL0     C43626   0.630  11.561   2.531 -0.2141  0.4725  0.3296
  324MOL0     C43627   0.498  11.537   2.605  0.4270  0.0121  1.0423
  324MOL0     C43628   0.459  11.387   2.598  0.0723 -0.6785  0.1248
  324MOL0     O43629   0.424  11.342   2.465 -0.1077 -0.2005  0.8287
  324MOL0     C43630   0.292  11.367   2.425 -0.7826  0.3006 -0.5840
  324MOL0     C43631   0.172  11.297   2.470  0.8166  0.1997 -0.5615
  324MOL0     C43632   0.049  11.320   2.393 -0.0694 -0.0742 -0.8470
  324MOL0     C43633  -0.077  11.242   2.457 -0.5676  0.0717  0.3286
  324MOL0     C43634   0.039  11.429   2.300 -0.2208  0.1550  0.4030
  324MOL0     C43635  -0.087  11.469   2.224  1.2559 -0.0730  0.7859
  324MOL0     O43636  -0.171  11.357   2.189  0.9413 -0.3586 -0.6423
  324MOL0     C43637  -0.277  11.354   2.094 -1.1267 -1.1278  0.5673
  324MOL0     C43638  -0.292  11.458   1.994  0.7055 -0.0319 -0.4726
  324MOL0     C43639  -0.402  11.449   1.911 -0.1264 -0.7598 -0.7801
  324MOL0     C43640  -0.493  11.348   1.926  0.1944  0.4352  0.8172
  324MOL0     O43641  -0.589  11.346   1.828  0.0745  0.3779  0.1109
  324MOL0     C43642  -0.692  11.259   1.841  0.9927  0.1603  0.6950
  324MOL0     C43643  -0.736  11.242   1.694 -1.4091 -0.1525 -0.3018
  324MOL0     C43644  -0.680  11.131   1.615  0.6142 -0.7508  1.0880
  324MOL0     C43645  -0.727  10.994   1.658 -0.2499  0.2507  0.0447
  324MOL0     C43646  -0.684  10.894   1.541  0.0465 -0.1741  0.0471
  324MOL0     C43647  -0.740  10.758   1.549  0.1158 -0.2880  0.1109
  324MOL0     C43648  -0.643  10.664   1.607 -0.1007 -0.6611  0.8694
  324MOL0     C43649  -0.681  10.525   1.653  0.7707  0.5160 -0.4736
  324MOL0    Cl43650  -0.770  10.519   1.808 -0.2209  0.5403  0.0703
  324MOL0     C43651  -0.479  11.253   2.032  0.0243  0.3401 -0.1339
  324MOL0     C43652  -0.367  11.253   2.108 -0.3502  0.3311  0.3140
  324MOL0     O43653  -0.112  11.587   2.185  0.2652  0.5992  0.0509
  324MOL0     C43654   0.162  11.503   2.279  1.1165 -0.4719  0.2140
  324MOL0     C43655   0.278  11.470   2.334 -1.3832  0.4109 -0.4058
  324MOL0     N43656   0.704  11.638   2.829 -0.8820 -0.1362  0.0082
  324MOL0     N43657   0.801  11.618   2.911  0.0996 -0.4425 -0.4882
  324MOL0     C43658   1.551  11.190   3.879 -0.5919  0.4234 -0.1715
  324MOL0     C43659   1.594  11.157   4.006 -0.4714  0.9854  0.4537
  324MOL0     C43660   1.713  11.177   4.448 -0.5265 -0.3354 -1.0774
  324MOL0     C43661   1.737  11.232   4.579 -0.9634 -0.1937 -0.5157
  324MOL0     C43662   1.758  11.145   4.695 -0.2232 -0.4407 -0.4540
  324MOL0     C43663   1.761  11.004   4.677  0.7255  0.3200  0.9976
  324MOL0     O43664   1.785  10.906   4.774  0.7767  0.1333 -0.4743
  324MOL0     C43665   1.781  10.953   4.914  0.0456  0.7774  0.0260
  324MOL0     C43666   1.763  10.820   4.996 -0.2362 -0.9882 -0.1790
  324MOL0     C43667   1.627  10.747   4.950  0.1713  0.7661  0.3559
  324MOL0     C43668   1.608  10.625   5.038  0.0497  0.9251  1.0671
  324MOL0     C43669   1.489  10.544   4.994 -0.7819  0.7492  0.3195
  324MOL0     C43670   1.382  10.495   4.969 -0.7003 -0.5183  0.1252
  324MOL0     C43671   1.753  10.957   4.543  0.0545  0.4813 -0.6070
  324MOL0     C43672   1.722  11.035   4.436  0.6463 -0.0797  0.3542
  324MOL0     H43673   1.469  11.402   4.194  0.7979 -2.6670  2.3378
  324MOL0     H43674   1.374  11.465   3.964  3.2331  2.4362 -1.1883
  324MOL0     H43675   1.340  11.548   3.750 -1.3482 -1.6601 -1.1855
  324MOL0     H43676   1.507  11.543   3.735 -0.7746  2.0239  0.9986
  324MOL0     H43677   1.436  11.597   3.532 -4.0530  1.5010  1.7018
  324MOL0     H43678   1.437  11.413   3.508 -1.7298 -0.6770 -1.0503
  324MOL0     H43679   1.190  11.429   3.548  0.2190 -1.5064 -1.5912
  324MOL0     H43680   1.213  11.605   3.532 -1.0912 -0.5538  1.7376
  324MOL0     H43681   1.346  11.564   3.321 -0.2344  1.5959  0.4954
  324MOL0     H43682   1.292  11.390   3.341  0.1949 -0.4168  2.4608
  324MOL0     H43683   1.065  11.442   3.294 -0.2122  0.2014  1.0270
  324MOL0     H43684   1.077  11.598   3.358 -1.3268 -0.2644 -0.4892
  324MOL0     H43685   1.200  11.685   3.161 -2.8503  1.1359  4.1077
  324MOL0     H43686   1.197  11.517   3.093 -0.0563 -0.0958  0.2906
  324MOL0     H43687   0.956  11.508   3.083 -1.6608  0.7053 -1.3857
  324MOL0     H43688   0.949  11.671   3.121 -0.8690 -0.1719 -1.4596
  324MOL0     H43689   1.113  11.561   2.882 -1.9283 -1.6648  2.2586
  324MOL0     H43690   1.103  11.728   2.919 -1.6811  0.6522 -0.5992
  324MOL0     H43691   0.978  11.684   2.650  0.0149  1.0843 -0.3632
  324MOL0     H43692   0.631  11.773   2.582  1.9067  1.0945  3.1808
  324MOL0     H43693   0.785  11.705   2.512  0.8271  0.2341  2.0542
  324MOL0     H43694   0.695  11.475   2.551 -0.5940 -0.4231 -1.9862
  324MOL0     H43695   0.623  11.557   2.422  1.3168 -3.1412  0.1963
  324MOL0     H43696   0.420  11.588   2.548  1.2265  0.8804  0.7134
  324MOL0     H43697   0.500  11.561   2.712 -4.5738  2.7337  0.8247
  324MOL0     H43698   0.385  11.358   2.673  1.3835 -4.3351  0.2279
  324MOL0     H43699   0.538  11.320   2.635 -1.9706 -3.0629  0.4358
  324MOL0     H43700   0.176  11.225   2.551  1.3314 -0.0888 -0.8317
  324MOL0     H43701  -0.052  11.163   2.529 -0.1912 -1.7635 -1.7042
  324MOL0     H43702  -0.132  11.314   2.517  0.7608 -0.5236  2.3857
  324MOL0     H43703  -0.139  11.203   2.376  0.7313  2.3355 -1.8972
  324MOL0     H43704  -0.227  11.544   1.988  2.0667 -1.0098 -0.2888
  324MOL0     H43705  -0.406  11.516   1.826  1.5494 -2.9761 -2.7254
  324MOL0     H43706  -0.670  11.159   1.881 -1.9441  0.6046  3.9506
  324MOL0     H43707  -0.772  11.301   1.902 -0.5812 -0.9224 -0.5346
  324MOL0     H43708  -0.844  11.240   1.706 -1.6255  4.7934  0.4189
  324MOL0     H43709  -0.717  11.334   1.638 -2.1457  0.7905  0.9346
  324MOL0     H43710  -0.571  11.130   1.620  0.8894 -0.6643 -2.2285
  324MOL0     H43711  -0.703  11.146   1.509  0.2638  0.6593  1.3451
  324MOL0     H43712  -0.687  10.976   1.758 -0.6562  3.9295  0.9804
  324MOL0     H43713  -0.835  10.997   1.671 -0.0885 -0.9488  1.9842
  324MOL0     H43714  -0.576  10.900   1.524 -0.5040  3.4556 -3.5548
  324MOL0     H43715  -0.719  10.939   1.447  1.1826  0.1868 -0.2126
  324MOL0     H43716  -0.834  10.760   1.605 -0.7950 -5.6662 -0.6682
  324MOL0     H43717  -0.758  10.726   1.446  2.0570 -0.7245 -0.1314
  324MOL0     H43718  -0.596  10.719   1.689 -2.8828  1.5069  1.1782
  324MOL0     H43719  -0.578  10.654   1.520 -2.5669 -0.5288 -1.0987
  324MOL0     H43720  -0.598  10.455   1.668 -0.0081  0.0268  2.0054
  324MOL0     H43721  -0.741  10.475   1.576  1.9508  0.9829 -1.7475
  324MOL0     H43722  -0.550  11.183   2.074 -1.4639  3.6524  3.5632
  324MOL0     H43723  -0.381  11.202   2.203 -0.8832 -0.0048  0.0587
  324MOL0     H43724   0.155  11.589   2.213  5.9562  1.8387  2.2141
  324MOL0     H43725   0.370  11.524   2.318 -0.2350 -0.3017  2.9769
  324MOL0     H43726   1.583  11.123   3.799 -3.8404 -1.7141  0.1294
  324MOL0     H43727   1.665  11.076   4.022 -1.2814  0.5427  1.9068
  324MOL0     H43728   1.748  11.336   4.606  2.2521 -1.8280  7.2055
  324MOL0     H43729   1.774  11.186   4.794  4.4245 -1.9485 -0.3132
  324MOL0     H43730   1.868  11.010   4.949 -0.9980  1.3343  1.8653
  324MOL0     H43731   1.683  10.999   4.926  0.4806  2.0905 -1.1743
  324MOL0     H43732   1.759  10.863   5.097 -0.4230  0.0746 -0.6275
  324MOL0     H43733   1.852  10.757   4.984  1.5703  1.2480  0.7783
  324MOL0     H43734   1.633  10.706   4.849 -2.2702 -0.5272  0.6670
  324MOL0     H43735   1.548  10.823   4.960  3.6752  4.6862  1.1323
  324MOL0     H43736   1.599  10.664   5.140 -0.1320  0.9446  1.0442
  324MOL0     H43737   1.700  10.565   5.032  0.4152  1.5849 -0.2855
  324MOL0     H43738   1.288  10.452   4.940  0.2090 -2.2859 -0.3499
  324MOL0     H43739   1.775  10.851   4.531  2.6941  0.8929  0.1036
  324MOL0     H43740   1.699  10.985   4.343 -1.3804 -0.3994  0.9747
  325MOL0     O43741   0.644  10.703   6.439  0.6520 -0.1409  0.3570
  325MOL0     C43742   0.678  10.756   6.334 -0.5534  0.9678  0.5165
  325MOL0     O43743   0.606  10.756   6.219 -0.3657 -0.1226 -0.6133
  325MOL0     C43744   0.499  10.664   6.214 -0.2499  0.9851 -0.0253
  325MOL0     C43745   0.523  10.545   6.143 -0.4639 -0.0822 -0.2334
  325MOL0     C43746   0.435  10.440   6.145  0.2239 -0.2081  0.4237
  325MOL0     C43747   0.306  10.459   6.195  0.4451 -0.6710  0.6226
  325MOL0     O43748   0.226  10.353   6.190  0.5914  0.1956  0.5567
  325MOL0     C43749   0.245  10.243   6.284  0.1732  0.5442  0.1020
  325MOL0     C43750   0.158  10.249   6.409 -0.5651  0.5383  0.5951
  325MOL0     C43751   0.199  10.132   6.500 -0.9365  0.1431  0.4765
  325MOL0     C43752   0.144  10.162   6.644  0.9287  0.0353  0.2880
  325MOL0     C43753   0.173  10.299   6.704 -0.0334  0.4973  0.2578
  325MOL0     C43754   0.327  10.316   6.722  0.3823  0.0157  0.8630
  325MOL0     C43755   0.367  10.446   6.776  0.1302 -0.3439 -0.3620
  325MOL0     C43756   0.392  10.570   6.685 -0.4644  0.5840 -0.5941
  325MOL0     N43757   0.420  10.703   6.747  0.2899 -0.2304  0.3651
  325MOL0     C43758   0.550  10.752   6.781  0.1502 -0.9051  1.3451
  325MOL0     C43759   0.532  10.846   6.869  0.2472 -0.4766  0.3684
  325MOL0     C43760   0.637  10.935   6.928 -0.0421 -0.5609  0.3049
  325MOL0     C43761   0.592  11.077   6.898  0.3590 -0.3505 -0.1922
  325MOL0     C43762   0.683  11.185   6.967 -0.1075  0.0065  0.3832
  325MOL0     C43763   0.828  11.168   6.924 -0.2106  0.5545 -0.2272
  325MOL0     O43764   0.832  11.181   6.783  0.0462  0.5096 -0.2906
  325MOL0     C43765   0.932  11.251   6.713 -0.1210  0.3371  0.5155
  325MOL0     C43766   1.034  11.316   6.776  0.4337 -0.8001  0.2141
  325MOL0     C43767   1.131  11.391   6.700  0.2908 -0.3548 -0.4949
  325MOL0     C43768   1.229  11.473   6.782 -0.1210  0.8686  0.6302
  325MOL0     C43769   1.134  11.384   6.560  0.3127  0.2712  0.3200
  325MOL0     C43770   1.233  11.440   6.459 -0.2704  1.0087  0.2843
  325MOL0     O43771   1.202  11.431   6.332 -1.0999  0.5958  0.4069
  325MOL0     C43772   1.294  11.466   6.236  0.3758  0.1485 -1.2758
  325MOL0     C43773   1.294  11.375   6.131  0.5623 -0.2772 -0.0152
  325MOL0     C43774   1.359  11.398   6.011  0.5179  0.9069 -0.0962
  325MOL0     C43775   1.442  11.511   6.001  0.3359  0.1926 -0.4099
  325MOL0     O43776   1.523  11.528   5.897  0.5937 -0.3530 -0.0499
  325MOL0     C43777   1.654  11.475   5.941  0.1446 -0.0835 -0.4646
  325MOL0     C43778   1.742  11.482   5.819 -0.3544  0.7334  0.6128
  325MOL0     C43779   1.764  11.345   5.740  0.8852  0.2890  0.2832
  325MOL0     C43780   1.806  11.227   5.832  0.0524  1.1528 -0.2512
  325MOL0     C43781   1.817  11.093   5.760 -0.6565 -0.0942 -0.2392
  325MOL0     C43782   1.969  11.082   5.697 -0.9349 -0.3524  0.6355
  325MOL0     C43783   2.041  10.949   5.712  0.2082 -0.1861 -0.6523
  325MOL0     C43784   2.104  10.927   5.851 -0.1360  0.7792  0.3915
  325MOL0    Cl43785   1.975  10.874   5.958 -0.3955 -0.2227 -0.1371
  325MOL0     C43786   1.447  11.601   6.108  1.4660 -1.0517  0.1846
  325MOL0     C43787   1.375  11.577   6.225 -0.5718 -0.3637 -0.7430
  325MOL0     O43788   1.343  11.477   6.503 -0.7448  0.1355  0.7624
  325MOL0     C43789   1.032  11.305   6.501 -0.0886 -0.3303  0.0422
  325MOL0     C43790   0.934  11.238   6.572  0.4498  0.6620 -0.6441
  325MOL0     N43791   0.399  10.853   6.892 -0.1184 -0.4481 -0.7487
  325MOL0     N43792   0.332  10.772   6.822 -0.4869 -0.0269 -0.3344
  325MOL0     C43793   0.272  10.582   6.260  0.7122  1.4469  0.4437
  325MOL0     C43794   0.376  10.676   6.280  0.8378 -0.3046 -0.6166
  325MOL0     C43795   0.802  10.828   6.344  0.6871 -0.2842 -0.1326
  325MOL0     C43796   0.846  10.919   6.245 -0.1035 -0.0915  0.2329
  325MOL0     C43797   0.974  10.982   6.247  0.7995 -0.7441 -0.1775
  325MOL0     C43798   1.062  10.959   6.354 -0.0445  0.2452  0.5765
  325MOL0     O43799   1.186  11.017   6.356  0.0177 -0.5165  0.6379
  325MOL0     C43800   1.273  11.000   6.473  0.2390 -0.2664  0.2825
  325MOL0     C43801   1.386  11.108   6.465  0.8781 -0.1405 -1.0631
  325MOL0     C43802   1.500  11.044   6.387 -0.0196 -0.2520 -0.0350
  325MOL0     C43803   1.540  11.134   6.278 -0.2221 -0.3660  0.9480
  325MOL0     C43804   1.661  11.069   6.220  0.9285 -1.7930  0.6193
  325MOL0     C43805   1.754  11.006   6.177 -0.0148  0.2949  0.0614
  325MOL0     C43806   1.019  10.860   6.451 -0.3064  0.3044 -0.4836
  325MOL0     C43807   0.893  10.798   6.447 -0.1187 -0.8074 -0.2480
  325MOL0     H43808   0.621  10.529   6.099 -0.9819 -1.4893 -0.9348
  325MOL0     H43809   0.468  10.348   6.097 -2.4088 -1.4453  0.7928
  325MOL0     H43810   0.212  10.154   6.229 -0.0659 -1.5975  3.4642
  325MOL0     H43811   0.349  10.228   6.315  0.7009 -1.4797 -2.2794
  325MOL0     H43812   0.186  10.346   6.449 -0.2589  1.1093 -0.9267
  325MOL0     H43813   0.054  10.254   6.376 -0.2869 -1.1919 -0.7168
  325MOL0     H43814   0.154  10.038   6.467  2.0528 -1.3681  0.4158
  325MOL0     H43815   0.307  10.114   6.502 -1.0460 -0.9331 -1.1667
  325MOL0     H43816   0.037  10.164   6.623  1.2283  1.5007 -1.3739
  325MOL0     H43817   0.160  10.079   6.713 -1.2532 -0.5362  0.1751
  325MOL0     H43818   0.118  10.375   6.648 -2.6859 -1.7879 -0.4703
  325MOL0     H43819   0.115  10.292   6.797 -3.1889 -3.3167 -1.7257
  325MOL0     H43820   0.364  10.230   6.779  2.6989 -1.1892 -2.1600
  325MOL0     H43821   0.363  10.302   6.620 -1.4723 -1.5199  0.3633
  325MOL0     H43822   0.295  10.475   6.853 -1.1886 -3.5419 -0.2070
  325MOL0     H43823   0.459  10.429   6.831  0.6599 -1.7408 -1.6047
  325MOL0     H43824   0.310  10.561   6.614  0.8390 -1.0341 -1.9578
  325MOL0     H43825   0.482  10.558   6.625 -0.1405 -0.1874  0.0337
  325MOL0     H43826   0.644  10.716   6.739  2.6370  3.7229  2.2555
  325MOL0     H43827   0.648  10.926   7.036  1.7466 -4.0552 -0.0437
  325MOL0     H43828   0.737  10.918   6.886 -0.9533 -2.1231 -1.3768
  325MOL0     H43829   0.487  11.096   6.926  0.4531  2.5562 -1.4517
  325MOL0     H43830   0.597  11.086   6.789  0.9842 -2.4685 -0.3691
  325MOL0     H43831   0.683  11.175   7.076 -0.7413  2.0460  0.5987
  325MOL0     H43832   0.645  11.286   6.952  0.1577  0.3723  1.9784
  325MOL0     H43833   0.874  11.076   6.960  0.1936  0.3195 -1.3192
  325MOL0     H43834   0.882  11.242   6.985 -0.6365  0.5918  0.1036
  325MOL0     H43835   1.036  11.317   6.884 -0.5523  0.6712  0.2409
  325MOL0     H43836   1.214  11.469   6.890 -0.3458 -0.2632  0.5695
  325MOL0     H43837   1.331  11.436   6.769  0.3273  1.6940  1.7162
  325MOL0     H43838   1.219  11.576   6.746 -0.6472  0.2286 -1.1854
  325MOL0     H43839   1.223  11.293   6.133  1.4345 -1.0795 -0.8832
  325MOL0     H43840   1.346  11.314   5.944 -1.3208 -0.1368  1.4674
  325MOL0     H43841   1.707  11.541   6.011  2.2118 -0.6495 -1.4202
  325MOL0     H43842   1.642  11.373   5.977  0.7213 -1.3588 -3.5997
  325MOL0     H43843   1.719  11.560   5.746  2.0743  0.2156 -0.8091
  325MOL0     H43844   1.843  11.508   5.852  1.3847 -0.6536 -3.0895
  325MOL0     H43845   1.836  11.350   5.657 -1.3068  1.8691 -1.6561
  325MOL0     H43846   1.667  11.328   5.691 -0.3189 -0.7578  2.8662
  325MOL0     H43847   1.899  11.243   5.887  2.2401 -5.9087 -0.8987
  325MOL0     H43848   1.720  11.211   5.897 -0.4584  1.5114 -0.8194
  325MOL0     H43849   1.744  11.083   5.679 -0.9842 -0.0656  0.0511
  325MOL0     H43850   1.802  11.012   5.831 -0.5751 -0.7751 -0.9783
  325MOL0     H43851   1.968  11.095   5.589 -0.2015 -1.0435  0.5409
  325MOL0     H43852   2.037  11.159   5.734  0.8837 -1.1846 -0.8275
  325MOL0     H43853   2.126  10.954   5.644  1.2635  2.0938  0.7003
  325MOL0     H43854   1.980  10.859   5.698 -0.6918  0.3658 -0.3556
  325MOL0     H43855   2.163  11.012   5.887  0.3151  3.1489 -4.9808
  325MOL0     H43856   2.168  10.839   5.842 -0.9532  0.2689 -0.5495
  325MOL0     H43857   1.524  11.677   6.111  3.1631 -2.7210  3.1453
  325MOL0     H43858   1.382  11.653   6.302 -2.4125  0.0991 -0.9820
  325MOL0     H43859   1.019  11.276   6.397 -1.7227  1.7559 -0.3978
  325MOL0     H43860   0.868  11.159   6.537  1.4768 -0.9780  0.9380
  325MOL0     H43861   0.172  10.589   6.299 -0.7689 -0.5067 -2.5981
  325MOL0     H43862   0.370  10.768   6.336 -0.2741 -2.2893  2.8536
  325MOL0     H43863   0.782  10.932   6.158  2.6250 -0.3506 -1.9543
  325MOL0     H43864   0.990  11.059   6.173 -0.0118  0.6975  1.0768
  325MOL0     H43865   1.213  11.026   6.561  2.2285 -1.0066  1.9173
  325MOL0     H43866   1.305  10.897   6.491  1.5172  0.1840  0.6288
  325MOL0     H43867   1.415  11.138   6.567 -3.2163 -2.1721  0.9458
  325MOL0     H43868   1.359  11.197   6.408  0.4748  0.2467 -0.2939
  325MOL0     H43869   1.481  10.948   6.338 -0.1458  0.3326 -1.1642
  325MOL0     H43870   1.577  11.030   6.464 -0.6916 -3.3848  0.1914
  325MOL0     H43871   1.567  11.234   6.315 -1.7615  1.0575 -1.5384
  325MOL0     H43872   1.454  11.149   6.213  0.7602  2.3631  0.1204
  325MOL0     H43873   1.837  10.954   6.134 -3.1256 -3.1844 -2.3073
  325MOL0     H43874   1.089  10.829   6.528  0.3794 -1.4478 -1.7413
  325MOL0     H43875   0.878  10.724   6.525  0.4863 -0.6269  0.0468
  326MOL0     O43876   1.256   0.391   2.833  0.0485 -0.3341 -0.7907
  326MOL0     C43877   1.327   0.487   2.829 -0.1722  0.5738 -0.5617
  326MOL0     O43878   1.307   0.609   2.766 -0.1726 -0.5632 -0.1276
  326MOL0     C43879   1.216   0.630   2.667  0.3438  0.3587 -0.0828
  326MOL0     C43880   1.202   0.757   2.619 -0.3331  0.2384 -0.3963
  326MOL0     C43881   1.096   0.791   2.531  0.3620 -0.4520  0.5783
  326MOL0     C43882   1.007   0.697   2.487 -0.1441 -0.6233  0.4325
  326MOL0     O43883   0.912   0.751   2.400 -0.2144 -0.2217  0.1554
  326MOL0     C43884   0.807   0.659   2.360 -0.0451  0.8294  0.5225
  326MOL0     C43885   0.708   0.719   2.260 -0.2525  0.7515  0.5630
  326MOL0     C43886   0.770   0.789   2.133  0.2348  0.2053  1.0028
  326MOL0     C43887   0.672   0.839   2.022 -0.4979  0.2905  0.5323
  326MOL0     C43888   0.613   0.717   1.943 -0.0426  0.0824  0.2168
  326MOL0     C43889   0.703   0.595   1.923 -1.1569 -0.1415 -1.1863
  326MOL0     C43890   0.647   0.500   1.825  0.8452  0.7583 -0.4752
  326MOL0     C43891   0.746   0.403   1.773 -0.0327  0.0258  1.7111
  326MOL0     N43892   0.692   0.300   1.683  0.0046  0.6115 -0.6287
  326MOL0     C43893   0.759   0.232   1.586 -0.6719 -0.6023  0.0453
  326MOL0     C43894   0.673   0.156   1.523  1.8919  0.0749  0.2944
  326MOL0     C43895   0.685   0.050   1.420  0.2096  0.2404  1.1862
  326MOL0     C43896   0.807   0.060   1.332  0.4787  0.3462  1.0093
  326MOL0     C43897   0.812  -0.061   1.240  0.0221  1.8662 -1.0151
  326MOL0     C43898   0.859  -0.188   1.307  0.3917  0.0525 -0.2669
  326MOL0     O43899   0.867  -0.294   1.207 -0.5679 -0.8033 -0.1433
  326MOL0     C43900   0.868  -0.429   1.246  0.1526 -0.3031 -0.2307
  326MOL0     C43901   0.980  -0.507   1.228  1.2651  0.7840  0.5097
  326MOL0     C43902   0.988  -0.637   1.280 -0.6941 -0.8996 -0.5915
  326MOL0     C43903   1.085  -0.729   1.217 -0.4553 -0.0707 -0.7514
  326MOL0     C43904   0.886  -0.681   1.363  0.1482 -0.4880 -0.2120
  326MOL0     C43905   0.888  -0.816   1.422  1.1508  0.5690  0.0650
  326MOL0     O43906   0.772  -0.887   1.421  0.6008  0.2431 -1.0344
  326MOL0     C43907   0.771  -1.014   1.466 -0.1984  1.5349  0.3254
  326MOL0     C43908   0.875  -1.111   1.420 -0.2647 -0.9194 -0.1116
  326MOL0     C43909   0.850  -1.241   1.461 -1.1277 -1.1193 -0.0704
  326MOL0     C43910   0.746  -1.282   1.541  0.4218 -0.6781  0.1536
  326MOL0     O43911   0.747  -1.404   1.600 -0.2781 -0.1961  0.1094
  326MOL0     C43912   0.868  -1.493   1.606  0.7656 -0.7701  0.1890
  326MOL0     C43913   0.844  -1.589   1.720 -0.4766  1.1171  0.4452
  326MOL0     C43914   0.743  -1.706   1.706 -0.1504 -0.7227  1.4241
  326MOL0     C43915   0.720  -1.785   1.826  0.6046 -0.6999 -0.0989
  326MOL0     C43916   0.593  -1.862   1.824  0.1712  0.7300 -0.3661
  326MOL0     C43917   0.618  -2.016   1.824  0.6924 -0.1870 -0.2456
  326MOL0     C43918   0.677  -2.064   1.689 -0.0765 -0.0125  0.0468
  326MOL0     C43919   0.726  -2.203   1.689  0.7588  0.2680 -0.7661
  326MOL0    Cl43920   0.599  -2.330   1.657 -0.0470 -0.0785 -0.1386
  326MOL0     C43921   0.642  -1.192   1.576  0.3251 -1.2595 -0.0553
  326MOL0     C43922   0.650  -1.058   1.524  0.2388  0.2295  0.0177
  326MOL0     O43923   0.992  -0.852   1.479 -0.1129 -0.4563  0.4703
  326MOL0     C43924   0.761  -0.613   1.373  0.0507  0.4008 -0.8467
  326MOL0     C43925   0.763  -0.488   1.310 -0.7689 -0.9285 -0.9820
  326MOL0     N43926   0.554   0.168   1.600 -0.7607  0.8359  0.5953
  326MOL0     N43927   0.563   0.261   1.687 -0.1335  0.5359 -0.5400
  326MOL0     C43928   1.024   0.560   2.526  0.5292  0.8229 -0.1016
  326MOL0     C43929   1.126   0.533   2.617  0.6458 -1.2504  0.5639
  326MOL0     C43930   1.468   0.461   2.883 -0.4480  0.2611 -0.7354
  326MOL0     C43931   1.522   0.328   2.898 -0.2716 -0.0897 -0.6551
  326MOL0     C43932   1.658   0.313   2.920 -0.0894 -0.6731  0.9500
  326MOL0     C43933   1.747   0.426   2.922  0.5056  0.0171  0.9098
  326MOL0     O43934   1.883   0.409   2.936  0.0072  1.1409  0.1671
  326MOL0     C43935   1.979   0.516   2.906 -0.3247  0.1106  0.9464
  326MOL0     C43936   2.128   0.466   2.921 -0.6375 -0.0113 -0.1923
  326MOL0     C43937   2.158   0.323   2.869  1.2960 -0.3096 -0.0732
  326MOL0     C43938   2.310   0.305   2.872 -1.6023  0.7432  0.9943
  326MOL0     C43939   2.328   0.163   2.834  0.2451 -0.8294  0.1671
  326MOL0     C43940   2.343   0.054   2.801 -0.3338 -0.1984  0.2377
  326MOL0     C43941   1.691   0.550   2.907  0.9746  0.3103  0.4569
  326MOL0     C43942   1.554   0.571   2.894  0.0340 -0.5165  0.4653
  326MOL0     H43943   1.272   0.828   2.661  1.1794 -3.2510  3.7017
  326MOL0     H43944   1.075   0.895   2.508 -0.1258 -0.5251  0.6767
  326MOL0     H43945   0.857   0.573   2.315 -0.9212 -1.1036  3.0637
  326MOL0     H43946   0.759   0.618   2.449  1.2164 -1.6968  0.1144
  326MOL0     H43947   0.651   0.637   2.215  1.0009 -0.3199  0.8642
  326MOL0     H43948   0.646   0.789   2.315 -0.5726  0.4918  0.5419
  326MOL0     H43949   0.828   0.877   2.161  0.5760  0.3317 -0.0627
  326MOL0     H43950   0.844   0.721   2.090 -0.2830 -0.0926  0.5745
  326MOL0     H43951   0.589   0.893   2.068 -0.5553 -0.1517  0.9610
  326MOL0     H43952   0.731   0.899   1.952  1.4109 -2.0227  0.0239
  326MOL0     H43953   0.531   0.682   2.006  0.7053  0.1779  1.2764
  326MOL0     H43954   0.568   0.750   1.849 -2.1896  0.6900  1.3946
  326MOL0     H43955   0.805   0.626   1.897 -0.6029  0.2944  1.2550
  326MOL0     H43956   0.710   0.547   2.022  1.5273 -0.4177 -1.4362
  326MOL0     H43957   0.562   0.459   1.881 -1.4812  4.3568 -1.0101
  326MOL0     H43958   0.620   0.541   1.728  3.2853 -2.0314 -2.5014
  326MOL0     H43959   0.797   0.358   1.858  0.4358 -2.1019  0.3667
  326MOL0     H43960   0.814   0.456   1.706 -2.0053  0.1570 -0.3274
  326MOL0     H43961   0.863   0.251   1.563 -1.1305 -1.6802 -3.5056
  326MOL0     H43962   0.688  -0.041   1.480 -1.1249  0.4724  1.6333
  326MOL0     H43963   0.597   0.056   1.355  1.7799 -1.4706 -1.3059
  326MOL0     H43964   0.892   0.068   1.401  1.8880  2.8322 -0.8750
  326MOL0     H43965   0.803   0.149   1.269  1.4868  0.8384  1.6067
  326MOL0     H43966   0.881  -0.033   1.159 -1.0371  1.0436 -2.2420
  326MOL0     H43967   0.715  -0.088   1.198  0.6658  0.7367 -1.8338
  326MOL0     H43968   0.793  -0.211   1.391 -0.2176  0.7738 -0.5326
  326MOL0     H43969   0.960  -0.190   1.349  1.4639 -2.5164 -2.6709
  326MOL0     H43970   1.068  -0.470   1.177  1.7342  1.2858  1.6488
  326MOL0     H43971   1.113  -0.707   1.114  1.5108 -2.4129 -0.7948
  326MOL0     H43972   1.166  -0.762   1.283 -0.3895 -1.3373 -1.4265
  326MOL0     H43973   1.019  -0.816   1.206 -2.1453  1.1716 -0.8663
  326MOL0     H43974   0.967  -1.099   1.363  1.5079 -3.2969  2.0235
  326MOL0     H43975   0.930  -1.308   1.428  0.9464  1.8498 -1.5339
  326MOL0     H43976   0.858  -1.554   1.515  0.7725 -1.1511  0.4454
  326MOL0     H43977   0.959  -1.433   1.597 -0.6810  1.2728 -5.0368
  326MOL0     H43978   0.943  -1.636   1.724  1.4976  4.9778  1.6895
  326MOL0     H43979   0.826  -1.538   1.815  0.1477  1.6484  0.2858
  326MOL0     H43980   0.786  -1.783   1.641  2.1222 -0.3069  2.3381
  326MOL0     H43981   0.651  -1.678   1.654  0.0053  0.3586  1.7192
  326MOL0     H43982   0.796  -1.859   1.852 -0.3081 -1.0545  1.7483
  326MOL0     H43983   0.723  -1.717   1.912 -2.9296  0.7165 -0.9247
  326MOL0     H43984   0.540  -1.832   1.733  1.6305  1.1651 -1.1053
  326MOL0     H43985   0.533  -1.824   1.907 -2.7560 -2.6040 -0.7387
  326MOL0     H43986   0.694  -2.041   1.898  1.0135 -0.6410 -0.7264
  326MOL0     H43987   0.528  -2.075   1.844  1.7918 -2.0265 -0.4791
  326MOL0     H43988   0.763  -2.000   1.665 -0.3952 -0.0990 -1.4018
  326MOL0     H43989   0.605  -2.060   1.607  1.4192 -0.5273 -1.3521
  326MOL0     H43990   0.768  -2.228   1.787  1.6339 -2.5130 -1.7494
  326MOL0     H43991   0.803  -2.212   1.612  1.4637  2.9887 -0.4911
  326MOL0     H43992   0.554  -1.206   1.638  0.0242  0.8336  0.0757
  326MOL0     H43993   0.568  -0.987   1.532  1.3276  1.5661 -0.3345
  326MOL0     H43994   0.670  -0.646   1.422 -0.2933 -1.7439 -2.8008
  326MOL0     H43995   0.675  -0.431   1.338  0.8158 -0.0946  3.0307
  326MOL0     H43996   0.944   0.488   2.513 -1.4880  2.0636  3.8270
  326MOL0     H43997   1.125   0.429   2.648 -2.2912 -1.1452  1.0729
  326MOL0     H43998   1.471   0.233   2.885  0.7211 -0.2909 -4.2048
  326MOL0     H43999   1.680   0.207   2.933 -0.9479 -1.0593 -0.4671
  326MOL0     H44000   1.945   0.554   2.810 -3.8399 -0.5995  1.7898
  326MOL0     H44001   1.963   0.589   2.986 -6.8524 -1.3843  1.5618
  326MOL0     H44002   2.151   0.457   3.027  4.4525  3.0328 -0.7180
  326MOL0     H44003   2.198   0.539   2.879  0.7665  0.8487  3.2807
  326MOL0     H44004   2.124   0.314   2.765 -1.0643  1.3276  0.4747
  326MOL0     H44005   2.112   0.254   2.939  2.1075  2.4606  3.4819
  326MOL0     H44006   2.357   0.321   2.970  2.7065 -0.8998 -0.5301
  326MOL0     H44007   2.361   0.373   2.802 -2.3006  0.7149  0.4517
  326MOL0     H44008   2.355  -0.051   2.782 -0.9243 -0.3447  0.6350
  326MOL0     H44009   1.757   0.631   2.937  2.3260 -0.7577  0.4823
  326MOL0     H44010   1.520   0.674   2.902 -0.8420 -0.8045  0.4457
  327MOL0     O44011   3.127   8.973   8.882 -0.1595  1.4777  0.2589
  327MOL0     C44012   3.048   8.882   8.851 -0.4711  0.3793  0.0901
  327MOL0     O44013   2.932   8.888   8.780 -0.7138 -0.1988  0.2816
  327MOL0     C44014   2.895   9.007   8.720 -0.2900  0.0606 -0.6489
  327MOL0     C44015   2.890   9.121   8.804  0.8395  0.1614  0.1651
  327MOL0     C44016   2.815   9.237   8.761  0.1424  0.4754 -0.7286
  327MOL0     C44017   2.772   9.239   8.626  0.4773 -0.5211  0.1351
  327MOL0     O44018   2.739   9.365   8.573 -0.5470 -0.4480  0.4468
  327MOL0     C44019   2.852   9.455   8.534  1.0040 -0.1191 -0.3766
  327MOL0     C44020   2.801   9.585   8.478 -0.2307  0.2144 -0.2094
  327MOL0     C44021   2.703   9.672   8.547 -0.8272 -0.4574 -1.9811
  327MOL0     C44022   2.742   9.698   8.693 -0.0535 -0.2829 -0.3868
  327MOL0     C44023   2.626   9.775   8.769  0.2169 -0.0298  0.3321
  327MOL0     C44024   2.615   9.915   8.718 -1.0181  0.1383  0.6931
  327MOL0     C44025   2.543   9.999   8.825  0.2558 -0.5792 -0.1496
  327MOL0     C44026   2.547  10.142   8.762  0.8929  0.9474  0.3953
  327MOL0     N44027   2.474  10.222   8.859  0.0821 -0.2691 -0.1305
  327MOL0     C44028   2.337  10.259   8.870 -0.3719 -0.2938 -0.1753
  327MOL0     C44029   2.332  10.368   8.949 -0.0344 -0.1153  0.8528
  327MOL0     C44030   2.206  10.456   8.965  0.0154 -0.0584  0.0131
  327MOL0     C44031   2.094  10.374   9.040  0.6764  0.8836 -0.7053
  327MOL0     C44032   1.968  10.454   9.071  0.4587  1.0548 -0.6471
  327MOL0     C44033   1.851  10.423   8.980  0.5627 -0.2948  0.1526
  327MOL0     O44034   1.766  10.322   9.039  0.3448  0.0357 -0.1728
  327MOL0     C44035   1.631  10.335   9.031 -0.8496  0.0909 -0.6788
  327MOL0     C44036   1.558  10.271   9.135  0.1514 -0.6634 -0.5655
  327MOL0     C44037   1.414  10.278   9.132 -0.6441 -0.5999 -0.0586
  327MOL0     C44038   1.347  10.213   9.253 -0.6682 -0.2345  0.2012
  327MOL0     C44039   1.343  10.350   9.026 -0.4130 -0.0666 -0.5381
  327MOL0     C44040   1.196  10.359   9.001  1.1453  0.0504  0.3011
  327MOL0     O44041   1.156  10.459   8.909 -0.3535 -0.3904 -0.3468
  327MOL0     C44042   1.042  10.533   8.939  0.1883  0.8256  0.1951
  327MOL0     C44043   1.028  10.598   9.064 -0.2570  0.1065 -1.1979
  327MOL0     C44044   0.906  10.671   9.089 -0.9011 -0.3887 -0.4571
  327MOL0     C44045   0.801  10.681   8.989 -0.7493 -0.4182 -0.8680
  327MOL0     O44046   0.688  10.754   9.014 -0.8824  0.5392  0.1891
  327MOL0     C44047   0.566  10.699   8.949 -0.2634 -0.8051  0.6327
  327MOL0     C44048   0.444  10.725   9.044 -0.1491 -0.6076  0.4824
  327MOL0     C44049   0.449  10.645   9.179 -0.1626 -0.5614  0.0224
  327MOL0     C44050   0.315  10.587   9.231 -0.2083 -0.5599 -0.5476
  327MOL0     C44051   0.204  10.687   9.224  0.3688  0.8443 -0.6333
  327MOL0     C44052   0.207  10.814   9.308 -0.7922  0.5378  0.2259
  327MOL0     C44053   0.079  10.894   9.303 -0.5188  0.1644 -0.0116
  327MOL0     C44054   0.126  11.021   9.368 -0.0779 -0.0892 -0.5049
  327MOL0    Cl44055   0.157  11.004   9.543  0.5608 -0.1913 -0.5329
  327MOL0     C44056   0.826  10.609   8.868 -0.2150  0.3865 -0.3953
  327MOL0     C44057   0.935  10.526   8.860 -0.9164 -0.5677 -0.5238
  327MOL0     O44058   1.116  10.279   9.065 -0.3728 -0.1822 -0.3037
  327MOL0     C44059   1.426  10.406   8.922  1.6599 -1.1584 -0.6839
  327MOL0     C44060   1.564  10.401   8.930  0.4070 -0.3518 -0.4171
  327MOL0     N44061   2.452  10.390   9.012  0.1398  0.3125  0.0453
  327MOL0     N44062   2.535  10.301   8.960  0.0800 -0.3872  0.5473
  327MOL0     C44063   2.797   9.126   8.533 -0.4262 -0.0387 -1.0165
  327MOL0     C44064   2.860   9.016   8.590  1.2879  0.7064 -0.3866
  327MOL0     C44065   3.095   8.737   8.858  0.1282 -0.7591 -0.3777
  327MOL0     C44066   3.182   8.694   8.958 -0.3464 -0.2114 -0.0851
  327MOL0     C44067   3.246   8.571   8.955 -0.0772  0.2106  0.2618
  327MOL0     C44068   3.209   8.472   8.855 -0.1036 -0.7822 -0.6772
  327MOL0     O44069   3.265   8.339   8.843  0.1729 -0.0373  0.1137
  327MOL0     C44070   3.259   8.285   8.708  0.1954 -0.2372 -0.1034
  327MOL0     C44071   3.330   8.150   8.694 -1.4165  0.2646 -1.0788
  327MOL0     C44072   3.343   8.099   8.545 -0.2188  0.0812 -0.4764
  327MOL0     C44073   3.354   8.206   8.433 -0.1361  0.5514 -0.2358
  327MOL0     C44074   3.478   8.283   8.441  0.0410 -0.0566  0.3102
  327MOL0     C44075   3.569   8.357   8.448  0.0672 -0.8431 -0.5112
  327MOL0     C44076   3.123   8.524   8.755 -1.0134 -0.3664  0.7102
  327MOL0     C44077   3.068   8.649   8.759  0.3924  0.0659 -0.0052
  327MOL0     H44078   2.921   9.124   8.908 -0.3407 -2.4328  0.6488
  327MOL0     H44079   2.809   9.317   8.833  0.7885  1.5643 -1.8524
  327MOL0     H44080   2.914   9.472   8.623 -2.6956  0.1815  2.3552
  327MOL0     H44081   2.912   9.408   8.455 -0.4159 -2.7278 -0.0255
  327MOL0     H44082   2.886   9.654   8.467 -0.8166  0.5808 -3.9539
  327MOL0     H44083   2.764   9.576   8.375 -1.4962 -1.5841  0.3649
  327MOL0     H44084   2.699   9.769   8.496  3.9330  1.3338  0.4420
  327MOL0     H44085   2.611   9.614   8.541  0.1807 -3.0868  2.6125
  327MOL0     H44086   2.771   9.606   8.745  1.7057  0.1095 -0.6068
  327MOL0     H44087   2.836   9.752   8.710 -0.2659 -0.1205  0.3126
  327MOL0     H44088   2.530   9.727   8.746  0.7640 -0.0351 -2.2285
  327MOL0     H44089   2.643   9.777   8.877  1.5583  3.8744  0.2000
  327MOL0     H44090   2.713   9.962   8.704 -1.8611  0.9620 -3.9833
  327MOL0     H44091   2.570   9.912   8.619  1.6809 -3.9374 -0.6987
  327MOL0     H44092   2.438   9.970   8.833 -0.2642  0.9540 -0.9142
  327MOL0     H44093   2.598  10.001   8.920  0.9213 -0.1766 -0.5308
  327MOL0     H44094   2.497  10.135   8.665  0.6010  0.9673  0.5450
  327MOL0     H44095   2.649  10.179   8.749  1.6571 -1.4211 -1.0031
  327MOL0     H44096   2.251  10.236   8.809 -2.6446  1.0798  2.3120
  327MOL0     H44097   2.214  10.558   9.004 -0.6498  0.5211 -1.3247
  327MOL0     H44098   2.184  10.479   8.861 -0.0423  3.0079  0.6073
  327MOL0     H44099   2.135  10.341   9.136  2.1955  2.3139 -0.8166
  327MOL0     H44100   2.062  10.287   8.983 -0.6431  0.7343  0.2278
  327MOL0     H44101   1.989  10.559   9.051  2.4136  0.7448 -0.3534
  327MOL0     H44102   1.942  10.450   9.177  0.0253 -0.6084 -0.7919
  327MOL0     H44103   1.878  10.388   8.880  2.9635 -1.1719  1.0457
  327MOL0     H44104   1.791  10.514   8.970 -0.1420 -0.4305  2.5088
  327MOL0     H44105   1.607  10.217   9.216  0.3857  1.5535  0.8684
  327MOL0     H44106   1.333  10.300   9.317 -1.6626  1.6722 -2.4300
  327MOL0     H44107   1.247  10.172   9.234 -2.2687  3.0331  0.9103
  327MOL0     H44108   1.411  10.137   9.299 -0.1184  1.6373  2.7534
  327MOL0     H44109   1.109  10.582   9.134 -0.2751 -1.0910 -1.4373
  327MOL0     H44110   0.910  10.722   9.184  1.2342  0.2361 -0.8433
  327MOL0     H44111   0.549  10.748   8.853 -2.7567 -0.5273  1.1233
  327MOL0     H44112   0.543  10.593   8.935 -2.1149 -0.1409 -2.1213
  327MOL0     H44113   0.431  10.829   9.074  2.4369 -0.4848  1.4710
  327MOL0     H44114   0.353  10.698   8.990  1.5475  0.4576 -3.2277
  327MOL0     H44115   0.478  10.696   9.271  2.1415  0.0913 -1.0065
  327MOL0     H44116   0.509  10.554   9.178  1.1694  0.2211  2.1350
  327MOL0     H44117   0.279  10.519   9.152 -1.0139 -0.9425  0.1350
  327MOL0     H44118   0.321  10.532   9.325 -3.1538  0.6451  0.4632
  327MOL0     H44119   0.107  10.649   9.258 -0.8862  3.3614 -1.1452
  327MOL0     H44120   0.180  10.710   9.120 -3.9857 -0.5425 -0.1579
  327MOL0     H44121   0.238  10.775   9.406  1.0369 -3.3590 -1.6836
  327MOL0     H44122   0.284  10.875   9.261  1.7638 -1.0643  2.0444
  327MOL0     H44123   0.003  10.846   9.365 -0.1790  1.2387  1.2838
  327MOL0     H44124   0.052  10.913   9.198 -1.2297 -1.0516 -0.0566
  327MOL0     H44125   0.042  11.085   9.340 -0.2551 -2.1051 -5.5801
  327MOL0     H44126   0.217  11.051   9.317  1.9544 -5.3917 -0.6435
  327MOL0     H44127   0.753  10.600   8.788 -0.1030  0.0240 -0.4542
  327MOL0     H44128   0.920  10.449   8.785  0.3504 -0.6142 -0.7555
  327MOL0     H44129   1.397  10.450   8.828  5.9216  0.4897 -1.4489
  327MOL0     H44130   1.621  10.432   8.843 -1.0154 -0.7841 -1.5562
  327MOL0     H44131   2.789   9.139   8.426 -0.6854  3.4357 -0.6935
  327MOL0     H44132   2.869   8.927   8.529 -2.6250  0.3039 -0.6030
  327MOL0     H44133   3.215   8.765   9.034  1.7728  0.0667 -1.1952
  327MOL0     H44134   3.316   8.540   9.032  1.1469  1.6907 -0.2035
  327MOL0     H44135   3.155   8.263   8.682 -0.1139  1.9478 -0.9512
  327MOL0     H44136   3.294   8.366   8.644 -1.5766  1.1204  0.5512
  327MOL0     H44137   3.277   8.082   8.761 -1.7222  1.5441  0.0366
  327MOL0     H44138   3.431   8.163   8.733 -2.0651  0.1082  0.7481
  327MOL0     H44139   3.248   8.045   8.537 -0.2406 -0.0018  0.2435
  327MOL0     H44140   3.433   8.038   8.530 -0.1268  0.2981 -0.8134
  327MOL0     H44141   3.275   8.282   8.435  0.6524  1.4145  2.3686
  327MOL0     H44142   3.341   8.144   8.344 -3.3598  1.5987 -0.6284
  327MOL0     H44143   3.647   8.429   8.460  1.9443 -2.8567 -0.0996
  327MOL0     H44144   3.079   8.459   8.679  0.0127 -0.0521 -0.1752
  327MOL0     H44145   2.997   8.668   8.680 -0.8040 -3.8776 -0.0705
  328MOL0     O44146   6.044   0.683   1.972  1.3808 -0.1149  0.0540
  328MOL0     C44147   6.083   0.643   2.080  0.9162  0.4614 -0.5881
  328MOL0     O44148   6.210   0.663   2.138  0.0119 -0.2006  0.2264
  328MOL0     C44149   6.294   0.750   2.070  0.0178  0.6709  0.8157
  328MOL0     C44150   6.425   0.718   2.076 -0.1681  0.5976  0.2423
  328MOL0     C44151   6.526   0.797   2.022  0.4374 -0.1000  0.2959
  328MOL0     C44152   6.491   0.915   1.959  0.1235  0.0519  0.8484
  328MOL0     O44153   6.609   0.979   1.906  0.1947 -0.1502  0.3714
  328MOL0     C44154   6.599   1.085   1.811  0.1848 -0.3479  0.5596
  328MOL0     C44155   6.721   1.171   1.793  0.1684 -0.1088  0.0653
  328MOL0     C44156   6.743   1.266   1.908 -0.2262 -0.1472 -0.3128
  328MOL0     C44157   6.842   1.198   2.015 -1.2807  0.0913 -0.4461
  328MOL0     C44158   6.874   1.300   2.122  0.0002 -1.0949 -0.5497
  328MOL0     C44159   6.756   1.321   2.224  0.5832 -0.5875 -0.1525
  328MOL0     C44160   6.729   1.203   2.311  0.1584 -0.0677  0.0073
  328MOL0     C44161   6.623   1.112   2.248 -0.2335  0.4816  0.7961
  328MOL0     N44162   6.536   1.033   2.342  0.1698 -0.4824 -0.1277
  328MOL0     C44163   6.404   1.009   2.344  0.1308 -0.2565 -0.3321
  328MOL0     C44164   6.370   0.919   2.438  1.3947 -0.1298  1.3153
  328MOL0     C44165   6.228   0.882   2.471  0.9473  0.0204  0.3163
  328MOL0     C44166   6.228   0.817   2.613  0.6557 -0.5466  0.3008
  328MOL0     C44167   6.087   0.779   2.658  0.2458 -0.8690 -0.4470
  328MOL0     C44168   5.996   0.895   2.714 -0.2682 -0.8674 -0.0336
  328MOL0     O44169   5.874   0.836   2.770  0.4539 -0.0989 -0.9246
  328MOL0     C44170   5.765   0.916   2.800  0.0683  0.5493 -0.2723
  328MOL0     C44171   5.762   1.049   2.778 -0.2762 -0.3708 -0.0792
  328MOL0     C44172   5.650   1.130   2.813  0.4464 -0.8286 -0.0166
  328MOL0     C44173   5.666   1.281   2.800 -0.2929 -0.5076 -0.1341
  328MOL0     C44174   5.525   1.072   2.845 -0.4270  1.1391  0.1274
  328MOL0     C44175   5.388   1.135   2.870  0.6699  1.0519 -0.4580
  328MOL0     O44176   5.300   1.049   2.936 -1.0431 -0.1076  0.0832
  328MOL0     C44177   5.172   1.072   2.983  0.1978 -0.5684 -0.0174
  328MOL0     C44178   5.123   1.200   3.005  0.1350  0.1832 -0.3400
  328MOL0     C44179   4.991   1.199   3.050  0.5228  0.2331  0.0581
  328MOL0     C44180   4.912   1.086   3.062 -0.1459  1.2472  0.2417
  328MOL0     O44181   4.780   1.099   3.089 -0.3082 -0.2420 -0.1968
  328MOL0     C44182   4.723   0.996   3.163  0.0536  0.6030 -0.4356
  328MOL0     C44183   4.575   1.039   3.191  0.1933  0.9126  0.5908
  328MOL0     C44184   4.493   0.947   3.285  0.4381 -0.2163  0.2589
  328MOL0     C44185   4.508   0.990   3.441 -0.4609 -0.2079  0.7310
  328MOL0     C44186   4.468   0.879   3.545  0.0569  0.7038  1.4875
  328MOL0     C44187   4.572   0.881   3.662 -0.3445  0.3408 -0.0443
  328MOL0     C44188   4.548   0.772   3.767  0.0039 -1.1485  0.1086
  328MOL0     C44189   4.424   0.792   3.849  0.0413 -0.7002 -0.0474
  328MOL0    Cl44190   4.401   0.646   3.961  0.5563 -0.6141 -0.3828
  328MOL0     C44191   4.970   0.962   3.023  0.0318  0.4130  0.3271
  328MOL0     C44192   5.096   0.952   2.976  0.4876  0.6441 -0.0065
  328MOL0     O44193   5.369   1.250   2.833  0.0735 -0.6968 -0.2986
  328MOL0     C44194   5.533   0.932   2.870 -0.9266  0.1197 -0.7251
  328MOL0     C44195   5.650   0.853   2.851 -1.1345  0.5714 -0.6395
  328MOL0     N44196   6.480   0.900   2.512 -0.8054 -0.2092  0.4030
  328MOL0     N44197   6.579   0.967   2.455  0.1348  0.1872  0.6472
  328MOL0     C44198   6.356   0.952   1.942 -0.1222 -0.3910  0.4888
  328MOL0     C44199   6.260   0.870   2.001 -0.2393  0.3729 -0.7518
  328MOL0     C44200   5.987   0.571   2.162  0.4087 -0.4432 -0.3988
  328MOL0     C44201   5.865   0.532   2.098  0.4747  0.7973 -0.6196
  328MOL0     C44202   5.771   0.470   2.177 -0.5177 -0.7832  0.6557
  328MOL0     C44203   5.788   0.443   2.316  0.7110  1.3517  0.4385
  328MOL0     O44204   5.690   0.378   2.387  0.1797  0.0224  0.4561
  328MOL0     C44205   5.569   0.343   2.314  0.2354 -0.7702 -0.0276
  328MOL0     C44206   5.467   0.298   2.412 -0.5537 -0.0974  0.4731
  328MOL0     C44207   5.335   0.304   2.354 -0.0069  0.3880 -0.3724
  328MOL0     C44208   5.210   0.307   2.451 -0.3799 -0.2357  0.4002
  328MOL0     C44209   5.085   0.284   2.385 -0.7992 -0.2176  0.1134
  328MOL0     C44210   4.991   0.271   2.311  0.3155  0.2102 -0.2828
  328MOL0     C44211   5.913   0.467   2.376  1.1317 -0.0594 -0.2777
  328MOL0     C44212   6.007   0.537   2.297 -0.5655  0.2885 -0.4223
  328MOL0     H44213   6.467   0.628   2.120  0.9659  0.9375 -0.1058
  328MOL0     H44214   6.628   0.763   2.038  1.5048  2.8172  0.5005
  328MOL0     H44215   6.588   1.036   1.714  2.1864  0.4506 -0.1308
  328MOL0     H44216   6.507   1.140   1.831 -0.1379 -1.3335  1.8321
  328MOL0     H44217   6.815   1.117   1.782  1.0848  0.9889  1.9653
  328MOL0     H44218   6.709   1.232   1.703  1.0333  0.7092  0.4823
  328MOL0     H44219   6.794   1.356   1.871  3.8783 -2.0501  0.1031
  328MOL0     H44220   6.649   1.287   1.959 -2.2154  2.4737 -4.4659
  328MOL0     H44221   6.803   1.099   2.042 -0.0617 -0.9746 -2.3495
  328MOL0     H44222   6.941   1.179   1.971 -0.5205  1.8729  0.3880
  328MOL0     H44223   6.963   1.273   2.178  0.5413 -0.9949 -1.3388
  328MOL0     H44224   6.899   1.395   2.073 -3.6454  0.4308  0.1801
  328MOL0     H44225   6.797   1.386   2.301 -0.8493  0.0742  0.0813
  328MOL0     H44226   6.666   1.366   2.179  0.4065 -1.1269 -0.3516
  328MOL0     H44227   6.817   1.141   2.328  0.2024  0.1799  0.6898
  328MOL0     H44228   6.702   1.235   2.412  0.8220  0.3875  0.0446
  328MOL0     H44229   6.672   1.043   2.178 -2.6007  0.7345 -1.2452
  328MOL0     H44230   6.561   1.170   2.180 -1.8122  1.0221  2.6227
  328MOL0     H44231   6.330   1.057   2.281  0.6108 -2.9135 -3.1316
  328MOL0     H44232   6.167   0.972   2.457 -1.6284 -1.3935  1.5822
  328MOL0     H44233   6.203   0.802   2.400  1.3417 -0.6770  0.9369
  328MOL0     H44234   6.270   0.881   2.692 -1.8737  0.8231  0.6304
  328MOL0     H44235   6.281   0.721   2.614  0.8992 -0.4884  3.3540
  328MOL0     H44236   6.091   0.713   2.745  1.8829 -0.3086 -0.0584
  328MOL0     H44237   6.024   0.731   2.582 -1.3720  2.5911 -1.4806
  328MOL0     H44238   5.963   0.977   2.649 -2.6397 -1.3059  0.4983
  328MOL0     H44239   6.058   0.952   2.784 -0.7042 -0.9379  0.4183
  328MOL0     H44240   5.853   1.102   2.751  0.4296 -0.7377  1.4869
  328MOL0     H44241   5.597   1.326   2.872  1.1369 -0.6608  1.4113
  328MOL0     H44242   5.771   1.307   2.820  0.9651 -4.5013 -0.6971
  328MOL0     H44243   5.637   1.310   2.699  0.0650 -2.5131 -0.8530
  328MOL0     H44244   5.176   1.294   2.997 -0.6769  0.5830 -1.1590
  328MOL0     H44245   4.953   1.299   3.061  0.1623  0.0009  0.9757
  328MOL0     H44246   4.707   0.910   3.098  0.5259 -2.0538  2.6987
  328MOL0     H44247   4.770   0.971   3.259 -3.4084  1.1751  1.6173
  328MOL0     H44248   4.560   1.140   3.230 -1.6177  1.6533 -1.7734
  328MOL0     H44249   4.522   1.042   3.096  0.2377 -1.6158  0.4279
  328MOL0     H44250   4.518   0.840   3.281 -0.4863 -0.4955  1.4730
  328MOL0     H44251   4.386   0.953   3.264  0.5147  1.7191  0.2373
  328MOL0     H44252   4.614   1.019   3.443 -0.1441 -1.2091 -0.2158
  328MOL0     H44253   4.458   1.084   3.464 -2.2906 -1.2397  1.1600
  328MOL0     H44254   4.468   0.781   3.497 -5.8006  0.9312  0.2759
  328MOL0     H44255   4.364   0.895   3.578 -0.2183  0.5986  0.6895
  328MOL0     H44256   4.677   0.879   3.630 -0.0385 -3.3360  0.8300
  328MOL0     H44257   4.581   0.974   3.718 -0.2123  1.5023 -1.8868
  328MOL0     H44258   4.632   0.769   3.837  1.9274 -3.7748 -2.0682
  328MOL0     H44259   4.541   0.673   3.720 -2.5659 -0.6376 -0.7381
  328MOL0     H44260   4.336   0.803   3.784  0.7956 -0.4995 -1.0567
  328MOL0     H44261   4.434   0.881   3.911  2.7025 -1.5749  0.8798
  328MOL0     H44262   4.916   0.868   3.013 -0.0598 -0.0480  3.9487
  328MOL0     H44263   5.147   0.862   2.944 -0.7167 -0.7569  1.7708
  328MOL0     H44264   5.443   0.876   2.891  0.5795 -2.9532 -1.8319
  328MOL0     H44265   5.669   0.750   2.879  2.2409  1.4400  0.8012
  328MOL0     H44266   6.330   1.030   1.871  3.6315  0.4549 -0.1808
  328MOL0     H44267   6.152   0.882   1.996 -0.3449  0.9148  1.5372
  328MOL0     H44268   5.850   0.542   1.991 -1.0390 -1.8828 -0.7398
  328MOL0     H44269   5.683   0.442   2.121  1.7147 -3.4788 -1.8498
  328MOL0     H44270   5.532   0.441   2.285  1.5915 -0.7597 -1.9064
  328MOL0     H44271   5.576   0.278   2.226  1.7172  0.0618 -0.5513
  328MOL0     H44272   5.472   0.366   2.498 -2.8132  2.2842 -1.1268
  328MOL0     H44273   5.490   0.194   2.437 -2.0033  0.2426  3.7413
  328MOL0     H44274   5.314   0.212   2.298 -0.6194  2.6136 -4.1895
  328MOL0     H44275   5.318   0.388   2.286  0.8810  2.1194  1.4509
  328MOL0     H44276   5.213   0.406   2.499  2.5556  1.2914 -2.5198
  328MOL0     H44277   5.227   0.232   2.528 -2.5342 -0.9238  0.2944
  328MOL0     H44278   4.897   0.257   2.262  0.9442  2.8098 -2.4417
  328MOL0     H44279   5.937   0.442   2.479 -0.8999 -2.2887 -0.2741
  328MOL0     H44280   6.101   0.554   2.350 -0.1637 -3.1089  0.1489
  329MOL0     O44281   9.623   6.284   7.992  0.1767 -0.2343  0.7489
  329MOL0     C44282   9.657   6.285   8.110  0.6073  0.0231 -0.5973
  329MOL0     O44283   9.593   6.364   8.204  0.0422  0.1344  0.7578
  329MOL0     C44284   9.491   6.449   8.160  0.1989  0.4062  0.1658
  329MOL0     C44285   9.377   6.413   8.086  0.4347  0.5888  0.2152
  329MOL0     C44286   9.280   6.496   8.037  0.1214  0.1656 -0.4210
  329MOL0     C44287   9.281   6.632   8.075 -0.1405  0.1282  1.4162
  329MOL0     O44288   9.188   6.725   8.038 -0.4213  1.4238  0.0522
  329MOL0     C44289   9.111   6.711   7.915  0.1095  0.9373  1.0633
  329MOL0     C44290   9.019   6.826   7.879  0.1859 -0.2475 -0.0530
  329MOL0     C44291   9.116   6.942   7.836  0.2071 -0.1994  0.1002
  329MOL0     C44292   9.043   7.059   7.794  0.3597  0.6377  0.4493
  329MOL0     C44293   9.114   7.180   7.738 -0.4100  0.4498 -0.3576
  329MOL0     C44294   9.129   7.279   7.847  0.1571 -1.0160  0.2067
  329MOL0     C44295   9.226   7.384   7.794 -0.3124  0.5209  0.6866
  329MOL0     C44296   9.293   7.461   7.914  0.1164  0.1802  0.4139
  329MOL0     N44297   9.198   7.558   7.966  0.0475  0.0141 -0.8470
  329MOL0     C44298   9.175   7.682   7.911  0.2829 -0.1744 -0.0104
  329MOL0     C44299   9.094   7.742   7.989  0.0990 -0.0647 -0.5212
  329MOL0     C44300   9.045   7.880   7.980 -0.9000 -0.3408  0.4945
  329MOL0     C44301   9.108   7.964   8.090 -1.1486 -0.7460 -0.4230
  329MOL0     C44302   9.260   7.991   8.036 -0.0235 -0.0651  0.0017
  329MOL0     C44303   9.263   8.090   7.920  0.6980 -0.3369  0.4975
  329MOL0     O44304   9.180   8.207   7.932  0.8887 -0.4688  0.2921
  329MOL0     C44305   9.170   8.303   7.835 -0.0177  0.8583  0.2144
  329MOL0     C44306   9.235   8.291   7.706  0.1703  0.4234  0.2657
  329MOL0     C44307   9.235   8.382   7.602 -0.8205 -0.1449  0.2728
  329MOL0     C44308   9.318   8.334   7.481 -0.3619 -0.1339  0.5164
  329MOL0     C44309   9.170   8.503   7.629  0.4414  0.3613 -0.3954
  329MOL0     C44310   9.169   8.625   7.536 -0.9434 -0.6752  0.7262
  329MOL0     O44311   9.190   8.598   7.404 -0.6465 -0.3945 -0.5146
  329MOL0     C44312   9.209   8.696   7.310  0.1264 -0.0700  0.6602
  329MOL0     C44313   9.106   8.793   7.280 -0.6289  0.2891  0.1423
  329MOL0     C44314   9.117   8.873   7.166 -0.5038  0.2349 -0.4981
  329MOL0     C44315   9.229   8.885   7.092  0.0148  0.0476 -0.1567
  329MOL0     O44316   9.234   8.949   6.969 -0.5864  0.4245  0.0798
  329MOL0     C44317   9.169   8.879   6.861 -0.2758  0.7991 -0.1421
  329MOL0     C44318   9.031   8.922   6.827 -0.7150 -0.7482  0.2017
  329MOL0     C44319   9.040   9.055   6.739  0.3156 -0.3319  0.9147
  329MOL0     C44320   9.069   9.184   6.820 -0.6989  0.3479  0.5431
  329MOL0     C44321   8.979   9.308   6.770 -0.7665 -1.0476  0.0693
  329MOL0     C44322   9.032   9.446   6.827 -0.2908  0.2184 -0.3216
  329MOL0     C44323   8.947   9.557   6.751  0.0994 -0.2732 -0.0226
  329MOL0     C44324   8.993   9.619   6.617 -0.0715  0.1661 -0.1694
  329MOL0    Cl44325   8.877   9.758   6.588  0.1714 -0.6411  0.3342
  329MOL0     C44326   9.338   8.803   7.134 -0.0889  0.9322  0.0027
  329MOL0     C44327   9.330   8.706   7.242  0.3668  0.5621 -0.2894
  329MOL0     O44328   9.119   8.727   7.578  0.1368 -0.4179 -0.8355
  329MOL0     C44329   9.091   8.518   7.759 -0.8363  0.0364  0.5348
  329MOL0     C44330   9.102   8.422   7.859  0.6232 -0.5541 -0.0157
  329MOL0     N44331   9.066   7.660   8.093  0.0492  0.3835  0.9105
  329MOL0     N44332   9.124   7.547   8.074 -0.2226  0.4454 -0.2135
  329MOL0     C44333   9.395   6.679   8.141  0.0575  1.2746 -1.3005
  329MOL0     C44334   9.496   6.588   8.188  1.1378  0.1956 -0.1383
  329MOL0     C44335   9.757   6.205   8.147  0.4425  0.2528  0.6473
  329MOL0     C44336   9.750   6.069   8.096  0.1345 -1.2864  0.1650
  329MOL0     C44337   9.866   5.989   8.102 -0.5570  0.3063 -1.2256
  329MOL0     C44338   9.984   6.041   8.163 -0.4914 -0.3280  0.7631
  329MOL0     O44339  10.107   5.978   8.175  0.3932  0.1373  0.4172
  329MOL0     C44340  10.137   5.838   8.139  0.6977  0.0676 -0.4395
  329MOL0     C44341  10.138   5.811   7.991  0.1375  0.6077  0.6956
  329MOL0     C44342  10.187   5.662   7.964 -0.0977 -0.0255 -0.8898
  329MOL0     C44343  10.080   5.564   8.000 -0.7357  0.6303  0.4661
  329MOL0     C44344  10.119   5.430   7.955  0.0555 -0.0176 -1.1228
  329MOL0     C44345  10.166   5.322   7.925 -0.2806 -1.1131 -0.0479
  329MOL0     C44346   9.980   6.174   8.212  0.8606 -0.8360  0.1544
  329MOL0     C44347   9.870   6.252   8.211 -0.4350 -0.7147  0.6396
  329MOL0     H44348   9.360   6.306   8.082 -0.2067  0.6651  0.7082
  329MOL0     H44349   9.213   6.450   7.965 -1.6212 -1.4308  2.0803
  329MOL0     H44350   9.184   6.697   7.835  2.4780 -2.2919  3.4578
  329MOL0     H44351   9.052   6.619   7.922 -1.0714  1.4672 -1.2525
  329MOL0     H44352   8.948   6.799   7.801  0.8295  3.1509 -2.0207
  329MOL0     H44353   8.968   6.849   7.973 -0.5899  0.3745 -0.6226
  329MOL0     H44354   9.198   6.958   7.906 -0.8692 -0.5771  1.4937
  329MOL0     H44355   9.169   6.923   7.742 -3.0514 -0.2548 -1.8965
  329MOL0     H44356   8.976   7.027   7.714 -1.2180  2.8601  0.7989
  329MOL0     H44357   8.969   7.086   7.869  1.1995  0.8411  1.2229
  329MOL0     H44358   9.211   7.143   7.707 -0.4472 -3.7690  3.4564
  329MOL0     H44359   9.075   7.232   7.651 -0.0760  0.7242 -0.3447
  329MOL0     H44360   9.037   7.331   7.874 -0.6657 -2.8210  1.0525
  329MOL0     H44361   9.171   7.230   7.935 -0.0523  2.0761  2.1675
  329MOL0     H44362   9.300   7.317   7.749 -0.0699  2.8675 -2.7979
  329MOL0     H44363   9.196   7.455   7.717 -1.3119 -0.5198  0.0838
  329MOL0     H44364   9.379   7.518   7.878  1.1238 -1.5639 -0.0651
  329MOL0     H44365   9.327   7.388   7.988  1.4863 -0.0663 -0.4190
  329MOL0     H44366   9.197   7.704   7.807 -0.9072 -2.9764 -0.9504
  329MOL0     H44367   9.058   7.919   7.878  0.9263 -0.6563  0.5733
  329MOL0     H44368   8.938   7.881   8.003 -0.7568  2.0096  1.3233
  329MOL0     H44369   9.105   7.916   8.188 -0.7540 -0.0377 -0.0565
  329MOL0     H44370   9.057   8.060   8.104  0.5258  0.1908 -0.4646
  329MOL0     H44371   9.304   7.899   7.996 -2.2352 -0.7743 -0.9289
  329MOL0     H44372   9.318   8.024   8.123 -2.5048  3.4884  0.5071
  329MOL0     H44373   9.214   8.032   7.841 -0.5906  2.0584 -0.5970
  329MOL0     H44374   9.371   8.102   7.906  0.5348  1.7671  0.6262
  329MOL0     H44375   9.276   8.191   7.703  2.2404  1.0725  2.9629
  329MOL0     H44376   9.361   8.235   7.501 -2.0282 -1.5517 -2.3457
  329MOL0     H44377   9.251   8.311   7.399 -0.0420  0.3839  0.1045
  329MOL0     H44378   9.381   8.412   7.436 -2.6871 -0.1192 -3.1167
  329MOL0     H44379   9.027   8.806   7.354 -1.1442  0.2431 -0.3923
  329MOL0     H44380   9.028   8.934   7.155  0.1822  2.1529  3.0991
  329MOL0     H44381   9.234   8.873   6.773  0.1978 -3.2456  0.2754
  329MOL0     H44382   9.163   8.776   6.900  4.1519  1.5665  3.3415
  329MOL0     H44383   8.979   8.842   6.773 -1.1569 -1.1871  1.2395
  329MOL0     H44384   8.973   8.935   6.919  0.3572 -3.9338  1.4695
  329MOL0     H44385   8.946   9.068   6.686  1.4552  0.1304 -1.0762
  329MOL0     H44386   9.109   9.047   6.654 -1.3822  0.0669 -0.5434
  329MOL0     H44387   9.077   9.170   6.929  2.1241  0.3854  0.4148
  329MOL0     H44388   9.173   9.207   6.797 -1.7855  2.0294 -3.3792
  329MOL0     H44389   8.871   9.299   6.785 -1.1502  0.9493 -1.1435
  329MOL0     H44390   8.995   9.315   6.662 -2.3268  1.4755 -0.0729
  329MOL0     H44391   9.006   9.446   6.933 -0.8096 -0.0860 -0.4468
  329MOL0     H44392   9.138   9.470   6.810 -1.2363  2.6891 -4.0209
  329MOL0     H44393   8.950   9.651   6.806  1.5108  0.1633 -0.8085
  329MOL0     H44394   8.847   9.517   6.732 -1.3373  2.2628  1.7092
  329MOL0     H44395   8.995   9.543   6.537  2.0420 -0.7851  0.7159
  329MOL0     H44396   9.090   9.667   6.626 -1.3800  4.0691 -3.4220
  329MOL0     H44397   9.429   8.807   7.075 -0.2448  1.6015 -0.2042
  329MOL0     H44398   9.401   8.629   7.272  0.5618  0.6320 -0.5732
  329MOL0     H44399   9.036   8.610   7.773 -1.0202  0.1546 -0.8090
  329MOL0     H44400   9.043   8.441   7.948  1.3930 -0.5392  0.5017
  329MOL0     H44401   9.402   6.781   8.176  0.4320  0.5256  0.9636
  329MOL0     H44402   9.578   6.631   8.244 -0.2750  0.9591  1.4002
  329MOL0     H44403   9.661   6.037   8.043  1.4090 -1.7668 -1.7950
  329MOL0     H44404   9.862   5.889   8.059 -2.2195 -0.4308  0.4490
  329MOL0     H44405  10.228   5.799   8.184  0.5164  1.0094  0.7834
  329MOL0     H44406  10.055   5.778   8.181  1.4726 -0.1246  0.8329
  329MOL0     H44407  10.217   5.874   7.949 -0.4320 -0.5701 -2.3958
  329MOL0     H44408  10.047   5.839   7.937  2.2295 -0.8916 -4.1971
  329MOL0     H44409  10.280   5.647   8.019 -0.9763  2.6834  1.5606
  329MOL0     H44410  10.214   5.642   7.860 -1.0711 -1.8673 -0.8319
  329MOL0     H44411   9.982   5.597   7.964  0.8567  2.0485 -3.0770
  329MOL0     H44412  10.083   5.555   8.109  1.0866 -5.7434  0.2789
  329MOL0     H44413  10.216   5.232   7.898 -2.4834 -2.4364 -0.0051
  329MOL0     H44414  10.075   6.211   8.249  0.2586  0.2571  0.6472
  329MOL0     H44415   9.869   6.346   8.265 -1.5113 -0.0437 -0.5087
  330MOL0     O44416   3.379  10.934   8.406  0.3721  0.4304  0.4575
  330MOL0     C44417   3.449  11.038   8.406  1.1859 -0.5522  0.9204
  330MOL0     O44418   3.503  11.107   8.296  0.1704 -0.6561  1.0256
  330MOL0     C44419   3.458  11.091   8.173 -0.3881 -0.0731 -0.1768
  330MOL0     C44420   3.324  11.082   8.132  0.2331 -1.0962  0.2440
  330MOL0     C44421   3.287  11.065   7.999 -0.4869 -0.0990 -0.3267
  330MOL0     C44422   3.384  11.050   7.902 -0.2504 -1.0551  0.9752
  330MOL0     O44423   3.354  11.021   7.772 -0.5121 -0.1642 -1.0701
  330MOL0     C44424   3.228  11.058   7.706 -0.3303  0.2434  0.9967
  330MOL0     C44425   3.261  11.003   7.564  0.0862  0.0288  0.0137
  330MOL0     C44426   3.304  11.115   7.472 -0.4727 -0.8587  0.0992
  330MOL0     C44427   3.333  11.057   7.327  0.4900 -0.5137 -0.5023
  330MOL0     C44428   3.411  11.163   7.248  0.0371 -0.7424  0.9845
  330MOL0     C44429   3.329  11.287   7.209  0.4426  0.3106 -0.4258
  330MOL0     C44430   3.416  11.360   7.108 -0.2736  0.2116  0.3266
  330MOL0     C44431   3.417  11.313   6.962  0.2010  0.8294 -0.7576
  330MOL0     N44432   3.311  11.377   6.886 -0.0551  0.4858 -0.2531
  330MOL0     C44433   3.330  11.472   6.789 -0.5950  0.4792  0.0288
  330MOL0     C44434   3.211  11.491   6.728  1.1328 -0.5832 -0.0350
  330MOL0     C44435   3.169  11.601   6.627 -0.3060  0.0644  0.4709
  330MOL0     C44436   3.264  11.642   6.520 -0.7505 -0.5160 -1.3146
  330MOL0     C44437   3.219  11.760   6.429 -0.5480 -0.3651  0.1863
  330MOL0     C44438   3.336  11.789   6.333  0.8368 -0.5292 -0.6768
  330MOL0     O44439   3.351  11.689   6.227 -0.0918 -0.7811 -0.3750
  330MOL0     C44440   3.280  11.710   6.111 -0.2444 -0.0998 -0.5531
  330MOL0     C44441   3.177  11.806   6.089  0.1653  0.6691 -0.2876
  330MOL0     C44442   3.113  11.813   5.961  0.5823 -0.0193  0.5122
  330MOL0     C44443   3.026  11.937   5.927  1.0792 -0.8947  0.1801
  330MOL0     C44444   3.141  11.725   5.862 -0.2037  0.6318 -0.0528
  330MOL0     C44445   3.072  11.731   5.732  0.1323  1.1364  0.1329
  330MOL0     O44446   2.937  11.698   5.721  0.4766 -0.0057 -0.5055
  330MOL0     C44447   2.868  11.753   5.614 -0.2680 -0.2410  0.1308
  330MOL0     C44448   2.753  11.675   5.589  0.1321  0.0628 -0.5427
  330MOL0     C44449   2.666  11.692   5.485  0.0631 -0.5392 -0.1164
  330MOL0     C44450   2.692  11.789   5.386  0.7555  0.3243 -0.5190
  330MOL0     O44451   2.609  11.790   5.286  0.4895 -0.0108  0.0541
  330MOL0     C44452   2.651  11.866   5.164  0.3183  0.8643 -0.3522
  330MOL0     C44453   2.543  11.846   5.058  0.4060  0.5669 -1.3384
  330MOL0     C44454   2.413  11.911   5.104  0.1717  0.3992 -0.5779
  330MOL0     C44455   2.397  12.060   5.100  1.0528  0.3402  1.3442
  330MOL0     C44456   2.381  12.096   4.943  0.5582  0.1629  0.1139
  330MOL0     C44457   2.368  12.248   4.925 -1.2060  0.0581  0.1999
  330MOL0     C44458   2.390  12.298   4.778 -0.2933 -0.2516  0.0501
  330MOL0     C44459   2.289  12.248   4.671  0.3616 -0.1592  0.6951
  330MOL0    Cl44460   2.127  12.273   4.709  0.1320 -0.2376  0.1864
  330MOL0     C44461   2.814  11.862   5.402  0.2913  0.5460  0.0079
  330MOL0     C44462   2.901  11.854   5.519 -0.2792 -0.3272  0.4352
  330MOL0     O44463   3.151  11.775   5.644 -1.1817 -0.7012 -0.0740
  330MOL0     C44464   3.220  11.611   5.897  0.5868 -0.6253 -0.3325
  330MOL0     C44465   3.296  11.613   6.009 -1.1842 -0.3352 -0.2369
  330MOL0     N44466   3.123  11.402   6.789  0.2701  0.4426 -0.1413
  330MOL0     N44467   3.184  11.324   6.880  0.3842  0.2867 -0.8918
  330MOL0     C44468   3.516  11.049   7.947 -0.7132 -0.3040  0.3568
  330MOL0     C44469   3.553  11.068   8.079  0.5484  0.5937 -0.2966
  330MOL0     C44470   3.481  11.085   8.540  0.0377 -0.9099 -0.0459
  330MOL0     C44471   3.445  11.023   8.659 -0.4485  0.3054  0.4503
  330MOL0     C44472   3.496  11.063   8.791  0.8272  0.8855  0.1926
  330MOL0     C44473   3.580  11.166   8.801 -0.0254  0.5771 -0.1224
  330MOL0     O44474   3.618  11.206   8.930 -0.5864  0.5657  0.0388
  330MOL0     C44475   3.676  11.331   8.953  0.4450 -0.5572 -0.6371
  330MOL0     C44476   3.824  11.302   8.946 -0.4526  0.3903  0.0812
  330MOL0     C44477   3.907  11.431   8.910  0.1047  0.5850  0.2026
  330MOL0     C44478   4.059  11.404   8.938  0.9244  0.3848 -0.1865
  330MOL0     C44479   4.104  11.320   8.825 -0.6769 -0.4282  0.2222
  330MOL0     C44480   4.157  11.276   8.726 -0.2746  0.4860  0.3800
  330MOL0     C44481   3.620  11.238   8.681 -0.3222 -0.3559 -0.6520
  330MOL0     C44482   3.576  11.191   8.551 -0.2386 -0.1437 -0.2990
  330MOL0     H44483   3.247  11.082   8.208  0.2623 -4.5665  0.4142
  330MOL0     H44484   3.185  11.050   7.965 -1.6337 -1.4463  3.1732
  330MOL0     H44485   3.137  11.015   7.749 -0.5160 -0.9588 -0.5169
  330MOL0     H44486   3.207  11.165   7.713 -1.3194 -0.0500  4.4849
  330MOL0     H44487   3.324  10.915   7.581 -1.1705 -1.7775 -3.4846
  330MOL0     H44488   3.173  10.947   7.530  0.2090 -0.9582  1.2556
  330MOL0     H44489   3.231  11.197   7.470  0.3524 -0.1056  0.3564
  330MOL0     H44490   3.393  11.154   7.521 -1.1178  0.6485  0.1312
  330MOL0     H44491   3.391  10.965   7.337  1.8569  0.3110 -0.5563
  330MOL0     H44492   3.238  11.029   7.281 -0.2402 -1.1119  1.2745
  330MOL0     H44493   3.500  11.191   7.305  0.8004 -3.6359  1.3386
  330MOL0     H44494   3.437  11.103   7.160 -0.4895 -0.4179  0.5973
  330MOL0     H44495   3.247  11.246   7.149 -1.0440  0.3287  1.5180
  330MOL0     H44496   3.286  11.348   7.289 -1.4222 -0.4733 -0.7678
  330MOL0     H44497   3.378  11.462   7.109 -0.4017  0.1614  0.5367
  330MOL0     H44498   3.521  11.352   7.137 -0.3858 -1.6317  0.3218
  330MOL0     H44499   3.397  11.206   6.961 -0.9137  1.0039  0.1141
  330MOL0     H44500   3.513  11.331   6.912  1.0049 -0.5479  0.2348
  330MOL0     H44501   3.424  11.525   6.775 -0.5533 -0.0095 -1.8260
  330MOL0     H44502   3.084  11.559   6.572  1.6603 -0.8133 -2.1068
  330MOL0     H44503   3.127  11.693   6.667 -1.3917  1.4024 -3.2816
  330MOL0     H44504   3.293  11.559   6.455  1.9059 -2.2185  1.7601
  330MOL0     H44505   3.351  11.676   6.577 -2.1760  0.9507  0.0735
  330MOL0     H44506   3.192  11.847   6.489 -1.4499  0.4339 -1.2978
  330MOL0     H44507   3.133  11.746   6.362 -1.4613  0.7560  1.0636
  330MOL0     H44508   3.429  11.789   6.390  0.0328  0.2166  0.7056
  330MOL0     H44509   3.332  11.890   6.293 -0.3022 -0.4029 -0.2896
  330MOL0     H44510   3.159  11.887   6.159 -1.4119  0.5655 -0.5419
  330MOL0     H44511   3.012  11.996   6.018  0.1657 -0.7170 -0.0689
  330MOL0     H44512   3.076  11.992   5.847 -2.2717  1.8184 -0.2848
  330MOL0     H44513   2.925  11.913   5.893 -1.3192  4.9539  2.0185
  330MOL0     H44514   2.739  11.586   5.650 -1.5579  1.0069  0.5475
  330MOL0     H44515   2.589  11.622   5.456 -0.0274 -0.8790  0.9056
  330MOL0     H44516   2.670  11.973   5.178  3.7345  0.5319 -1.5259
  330MOL0     H44517   2.739  11.818   5.121 -0.3655 -0.6139 -0.1506
  330MOL0     H44518   2.580  11.863   4.956  4.5178  0.5701 -0.0173
  330MOL0     H44519   2.506  11.743   5.054  0.3930  0.5990 -2.9189
  330MOL0     H44520   2.388  11.883   5.207  3.3599 -0.7845 -0.0074
  330MOL0     H44521   2.327  11.870   5.050 -1.4148  1.1950  1.2352
  330MOL0     H44522   2.307  12.104   5.143 -0.9689  0.9532 -2.9137
  330MOL0     H44523   2.481  12.112   5.146 -0.6609  3.7123  0.9651
  330MOL0     H44524   2.291  12.054   4.895  2.9096 -3.9503 -1.2045
  330MOL0     H44525   2.464  12.069   4.878  1.3850 -2.0875  1.9401
  330MOL0     H44526   2.288  12.295   4.983  0.0287  1.4289  0.8345
  330MOL0     H44527   2.454  12.294   4.973  0.6895  0.4118 -3.1709
  330MOL0     H44528   2.494  12.270   4.757 -0.2979 -0.1925 -0.0502
  330MOL0     H44529   2.368  12.405   4.771  3.4361  0.8086  2.0221
  330MOL0     H44530   2.314  12.143   4.654 -1.2617 -0.6155  0.9833
  330MOL0     H44531   2.295  12.308   4.579 -1.8577  0.6345  1.0049
  330MOL0     H44532   2.838  11.934   5.325 -0.0749  2.9593  2.0181
  330MOL0     H44533   2.988  11.918   5.519 -1.0835  0.7899 -0.0831
  330MOL0     H44534   3.235  11.544   5.814 -0.9320  0.5562 -1.6172
  330MOL0     H44535   3.369  11.535   6.030  1.4102  1.9524 -0.2500
  330MOL0     H44536   3.595  11.035   7.873 -0.1466  3.4270  0.0780
  330MOL0     H44537   3.659  11.064   8.098  0.7846  1.1506 -1.4002
  330MOL0     H44538   3.386  10.932   8.671 -1.5592  0.7885 -1.0558
  330MOL0     H44539   3.464  11.031   8.889 -0.8175 -0.8499 -0.8524
  330MOL0     H44540   3.657  11.410   8.879  2.9116  3.1375  2.3148
  330MOL0     H44541   3.648  11.364   9.053 -0.9639 -5.0281  0.6547
  330MOL0     H44542   3.840  11.209   8.890 -2.3975 -1.7306  2.7587
  330MOL0     H44543   3.863  11.284   9.046  2.5879 -0.9639 -1.2094
  330MOL0     H44544   3.869  11.518   8.964  1.8983  1.9919 -0.7092
  330MOL0     H44545   3.891  11.453   8.804  0.5323  0.5263  0.1228
  330MOL0     H44546   4.086  11.362   9.035 -2.1296 -0.3366  0.4469
  330MOL0     H44547   4.120  11.491   8.911  3.6180 -2.3452 -3.9138
  330MOL0     H44548   4.194  11.238   8.633  2.5892  1.3723  1.0397
  330MOL0     H44549   3.672  11.333   8.677  1.0582 -0.7609  3.1856
  330MOL0     H44550   3.605  11.252   8.466  0.0697 -0.4368 -0.4016
  331MOL0     O44551   3.966   8.328   2.985  0.5680  0.5896  0.1112
  331MOL0     C44552   3.925   8.238   3.067 -0.4966  0.1364  0.5357
  331MOL0     O44553   3.799   8.187   3.087 -0.0911  0.6556 -0.3141
  331MOL0     C44554   3.702   8.265   3.041  0.9186 -0.3031  0.3658
  331MOL0     C44555   3.654   8.386   3.091  0.3753  0.1685  0.6402
  331MOL0     C44556   3.535   8.434   3.036  0.3082 -0.1438 -0.0397
  331MOL0     C44557   3.474   8.386   2.918  0.5901  0.0344 -0.2967
  331MOL0     O44558   3.374   8.443   2.847  0.3459  0.1162  0.3106
  331MOL0     C44559   3.270   8.509   2.921 -0.7456 -0.6256  0.1824
  331MOL0     C44560   3.174   8.559   2.815 -0.3061 -0.4019  0.2144
  331MOL0     C44561   3.104   8.440   2.741  0.2237 -0.7743 -0.0754
  331MOL0     C44562   3.127   8.452   2.595  0.1970  0.0184 -0.3879
  331MOL0     C44563   3.073   8.344   2.503  0.2174  0.6097  1.2221
  331MOL0     C44564   2.926   8.316   2.510 -0.3359 -0.3153  0.2327
  331MOL0     C44565   2.850   8.448   2.503 -0.3733 -0.2997  0.1734
  331MOL0     C44566   2.734   8.428   2.407 -0.2286  0.1474 -0.5129
  331MOL0     N44567   2.655   8.549   2.387 -0.9558 -0.3907  0.3476
  331MOL0     C44568   2.567   8.612   2.470 -1.4532 -0.6039  0.3879
  331MOL0     C44569   2.557   8.744   2.428  0.9365 -0.2996 -0.2314
  331MOL0     C44570   2.483   8.863   2.488 -0.1479 -0.3049 -0.1027
  331MOL0     C44571   2.333   8.849   2.468  0.7437  0.4078  0.7328
  331MOL0     C44572   2.303   8.863   2.320  1.7702  0.4093  0.3822
  331MOL0     C44573   2.355   8.987   2.256  0.1919 -0.6978  0.6582
  331MOL0     O44574   2.347   9.111   2.332 -0.1161  0.7160 -0.5159
  331MOL0     C44575   2.222   9.166   2.365 -0.6171  0.5254  0.3718
  331MOL0     C44576   2.218   9.235   2.483  0.4664 -0.7429 -0.4685
  331MOL0     C44577   2.103   9.294   2.539 -0.3033  0.1308  0.8606
  331MOL0     C44578   2.109   9.363   2.677  0.7220  0.0332 -0.6573
  331MOL0     C44579   1.981   9.285   2.454 -0.4721  0.6824 -0.6449
  331MOL0     C44580   1.860   9.363   2.482  0.1127 -0.3722 -0.3488
  331MOL0     O44581   1.819   9.451   2.391  0.3897  0.4116  0.1684
  331MOL0     C44582   1.697   9.523   2.389  0.7367  0.8552  0.2358
  331MOL0     C44583   1.581   9.443   2.414 -0.9984  0.1816 -0.0887
  331MOL0     C44584   1.456   9.505   2.439 -0.1890  0.2700 -0.9537
  331MOL0     C44585   1.442   9.635   2.415 -0.5912 -0.6202  0.9907
  331MOL0     O44586   1.317   9.697   2.422  0.3931  0.1175 -0.2600
  331MOL0     C44587   1.211   9.639   2.504  0.3126  0.4795 -0.7890
  331MOL0     C44588   1.107   9.744   2.522 -1.2803 -0.2026  0.0094
  331MOL0     C44589   1.144   9.873   2.593  0.5392 -0.0258 -0.4548
  331MOL0     C44590   1.155   9.837   2.741 -0.0540  0.1985 -0.7254
  331MOL0     C44591   1.173   9.968   2.822  0.1534 -0.0873 -1.5290
  331MOL0     C44592   1.160   9.939   2.973  0.3468 -0.5746 -1.4406
  331MOL0     C44593   1.191  10.062   3.055 -0.8038  0.6073  1.0288
  331MOL0     C44594   1.144  10.051   3.196 -0.3098  0.0207 -1.4131
  331MOL0    Cl44595   0.998  10.152   3.229  0.3819  0.2192  0.0110
  331MOL0     C44596   1.550   9.718   2.386 -0.0243  0.0006  0.5511
  331MOL0     C44597   1.686   9.662   2.374  0.2117 -0.8546  0.0227
  331MOL0     O44598   1.811   9.341   2.596 -0.7711  0.1373  0.0183
  331MOL0     C44599   1.982   9.216   2.336 -0.5008  0.2452  1.4186
  331MOL0     C44600   2.104   9.167   2.282 -0.0891 -0.1720 -0.5352
  331MOL0     N44601   2.643   8.753   2.320  0.3033  0.3822  0.6944
  331MOL0     N44602   2.698   8.635   2.294  0.1729 -0.0470 -0.2852
  331MOL0     C44603   3.533   8.280   2.852  0.5228  0.0236  0.5319
  331MOL0     C44604   3.646   8.213   2.919  0.2209 -0.7743 -0.1277
  331MOL0     C44605   4.026   8.196   3.164  0.4881 -0.3418 -0.0468
  331MOL0     C44606   4.149   8.171   3.120 -0.7494 -0.4967  0.1753
  331MOL0     C44607   4.246   8.129   3.205 -0.4757  1.0320  0.1732
  331MOL0     C44608   4.228   8.119   3.347 -0.2864  0.4311  0.1162
  331MOL0     O44609   4.331   8.081   3.434  0.5257  0.0536 -0.2138
  331MOL0     C44610   4.318   8.119   3.572  0.3334 -0.1187 -0.8107
  331MOL0     C44611   4.450   8.098   3.645  0.8751 -0.4591  0.1356
  331MOL0     C44612   4.439   8.115   3.795  0.0914  0.2913 -0.3043
  331MOL0     C44613   4.411   7.984   3.860  0.2774 -0.8725  1.3603
  331MOL0     C44614   4.372   7.993   3.997  0.3714  0.5562  0.0056
  331MOL0     C44615   4.346   8.008   4.116  0.3053  0.4758  0.1451
  331MOL0     C44616   4.097   8.144   3.391 -0.2594 -0.3279  1.3492
  331MOL0     C44617   3.995   8.184   3.302  0.6037  0.7488  0.2561
  331MOL0     H44618   3.695   8.428   3.182 -1.0705 -1.1973  1.9887
  331MOL0     H44619   3.506   8.530   3.078 -3.3589 -0.7856 -0.7274
  331MOL0     H44620   3.217   8.444   2.991 -0.9549 -3.0264 -2.0092
  331MOL0     H44621   3.312   8.595   2.973 -0.2233 -1.5106  1.2486
  331MOL0     H44622   3.097   8.608   2.875 -0.5679  0.9672 -1.1899
  331MOL0     H44623   3.223   8.632   2.751  0.6284 -1.2072 -0.0327
  331MOL0     H44624   3.140   8.343   2.778  3.1608  0.4568  0.5421
  331MOL0     H44625   2.996   8.446   2.756  0.2902 -1.2017  0.6623
  331MOL0     H44626   3.100   8.554   2.566  1.5918  1.4864  2.9712
  331MOL0     H44627   3.236   8.447   2.586  0.1156 -3.8533 -0.8454
  331MOL0     H44628   3.094   8.372   2.399 -0.3370 -2.6730  0.0912
  331MOL0     H44629   3.127   8.250   2.518  0.8834  0.7754 -0.0142
  331MOL0     H44630   2.914   8.243   2.429  1.7490  0.5295 -0.9151
  331MOL0     H44631   2.902   8.271   2.607 -0.3880 -0.7942  0.0008
  331MOL0     H44632   2.812   8.463   2.604  1.8394  1.1485  0.8766
  331MOL0     H44633   2.910   8.532   2.466 -1.6624  0.5392 -0.0745
  331MOL0     H44634   2.669   8.356   2.458  0.0454  0.6956  0.6428
  331MOL0     H44635   2.772   8.384   2.314 -2.7483  0.2946 -1.6951
  331MOL0     H44636   2.517   8.579   2.561 -1.0466 -0.9540  0.4859
  331MOL0     H44637   2.503   8.862   2.595  3.0353 -0.5538 -0.6071
  331MOL0     H44638   2.524   8.954   2.442 -0.2563 -0.7078 -1.0336
  331MOL0     H44639   2.279   8.902   2.547 -3.3062 -1.1032 -0.7500
  331MOL0     H44640   2.310   8.745   2.496 -1.6498  0.7301  0.1775
  331MOL0     H44641   2.195   8.856   2.304  1.4834  1.4768  1.6593
  331MOL0     H44642   2.347   8.783   2.261  0.6819  0.3497 -0.3722
  331MOL0     H44643   2.301   8.985   2.160  0.9991 -0.4482  0.1909
  331MOL0     H44644   2.462   8.984   2.236  0.6143 -1.9223  2.8659
  331MOL0     H44645   2.311   9.237   2.539  0.5059 -3.0633 -0.3373
  331MOL0     H44646   2.034   9.439   2.702 -2.2391 -2.8898  0.0538
  331MOL0     H44647   2.092   9.293   2.759 -0.0888  0.5343 -0.3851
  331MOL0     H44648   2.211   9.401   2.690  1.9482 -3.6819  2.5897
  331MOL0     H44649   1.580   9.335   2.421 -0.2654 -0.2310 -4.0600
  331MOL0     H44650   1.373   9.438   2.458 -1.3738  2.1817  1.2126
  331MOL0     H44651   1.164   9.552   2.458 -1.4409 -0.3804  2.3302
  331MOL0     H44652   1.248   9.612   2.603 -0.7099  1.2898 -0.1602
  331MOL0     H44653   1.066   9.770   2.424  1.1323  0.5223 -0.8824
  331MOL0     H44654   1.021   9.701   2.575 -0.4132 -1.6154  0.3267
  331MOL0     H44655   1.078   9.960   2.585  1.7407  0.8240 -1.4999
  331MOL0     H44656   1.241   9.901   2.552  0.8010  1.7407  1.2200
  331MOL0     H44657   1.064   9.784   2.772  1.0192 -2.8886 -2.4300
  331MOL0     H44658   1.227   9.760   2.771  2.0539  2.3592  0.1110
  331MOL0     H44659   1.087  10.034   2.809 -0.0828  0.4690  1.9917
  331MOL0     H44660   1.270  10.013   2.800  0.2887  2.3354  2.9031
  331MOL0     H44661   1.054   9.913   2.976  0.5691 -1.4318 -0.8195
  331MOL0     H44662   1.231   9.861   3.002  3.6990  1.8244 -2.4833
  331MOL0     H44663   1.134  10.142   3.007  0.9908  1.4211  0.1576
  331MOL0     H44664   1.297  10.086   3.048  0.1921 -1.9396  4.6538
  331MOL0     H44665   1.217  10.102   3.259 -1.3137  0.5854 -0.6681
  331MOL0     H44666   1.128   9.949   3.234  0.2183  0.7934  1.0699
  331MOL0     H44667   1.533   9.824   2.371  0.2699 -0.1116 -0.6636
  331MOL0     H44668   1.769   9.725   2.344  0.5635  0.0360  2.5758
  331MOL0     H44669   1.894   9.208   2.274  0.0633 -1.3070  0.7536
  331MOL0     H44670   2.106   9.112   2.189  0.3694 -0.7261 -0.1988
  331MOL0     H44671   3.488   8.239   2.762  0.9820 -2.2549  1.2595
  331MOL0     H44672   3.697   8.123   2.884 -1.2897 -1.0453 -1.7341
  331MOL0     H44673   4.184   8.191   3.020 -2.4174 -1.5610 -0.6638
  331MOL0     H44674   4.340   8.099   3.160 -0.7400  0.7338 -0.1851
  331MOL0     H44675   4.268   8.216   3.580  2.4495  0.9424  0.2533
  331MOL0     H44676   4.257   8.044   3.624  2.0922 -2.5697 -2.1128
  331MOL0     H44677   4.526   8.165   3.603 -3.8619  4.2067 -2.1755
  331MOL0     H44678   4.483   7.996   3.622 -0.1255 -0.6681 -0.4230
  331MOL0     H44679   4.364   8.188   3.826 -2.7669 -1.8449 -1.7082
  331MOL0     H44680   4.538   8.142   3.834 -0.7661  2.6502  0.3962
  331MOL0     H44681   4.506   7.930   3.866  0.3080 -0.6490  3.8709
  331MOL0     H44682   4.329   7.933   3.810  0.6358  2.3170 -3.0501
  331MOL0     H44683   4.333   8.018   4.222  0.4114  1.2830  0.0896
  331MOL0     H44684   4.074   8.146   3.497  2.1096 -0.2481  1.9317
  331MOL0     H44685   3.892   8.200   3.332 -0.7387 -0.7654 -3.0292
  332MOL0     O44686   0.563  10.101   7.648 -0.3590 -0.0922  0.1127
  332MOL0     C44687   0.599  10.156   7.759  0.3239  0.0767  0.3050
  332MOL0     O44688   0.723  10.185   7.794 -1.3802 -0.2844 -0.1813
  332MOL0     C44689   0.826  10.118   7.729  0.5834 -0.4470 -0.7939
  332MOL0     C44690   0.887  10.008   7.789  0.3223 -0.5515  0.1991
  332MOL0     C44691   0.982   9.932   7.723 -0.1251 -0.0476 -0.0350
  332MOL0     C44692   1.014   9.972   7.590 -0.7565 -0.4223  0.1399
  332MOL0     O44693   1.089   9.899   7.503  0.2418 -0.5593 -0.3876
  332MOL0     C44694   1.079   9.755   7.507  0.3404  0.4407 -0.7187
  332MOL0     C44695   1.154   9.687   7.391  0.3179 -0.8521  0.5564
  332MOL0     C44696   1.292   9.752   7.391 -1.2944 -0.7244 -0.3670
  332MOL0     C44697   1.359   9.683   7.275 -1.0062 -0.2152 -1.1134
  332MOL0     C44698   1.500   9.751   7.239  0.2702  0.5733 -0.7814
  332MOL0     C44699   1.479   9.798   7.099 -0.8985 -0.8072  0.8361
  332MOL0     C44700   1.605   9.862   7.054  0.5988 -0.8407 -0.0886
  332MOL0     C44701   1.617   9.834   6.896 -0.7578  0.4823  0.6098
  332MOL0     N44702   1.513   9.902   6.818 -0.4372  0.3465  0.0101
  332MOL0     C44703   1.535  10.024   6.755  0.9134  0.1591 -0.1609
  332MOL0     C44704   1.417  10.035   6.688  1.0600  0.3926 -0.3993
  332MOL0     C44705   1.357  10.156   6.623  0.5508  1.0862  0.3466
  332MOL0     C44706   1.265  10.222   6.724  0.2844 -0.5689 -0.2749
  332MOL0     C44707   1.232  10.366   6.679  0.6581 -0.3698  0.2109
  332MOL0     C44708   1.340  10.464   6.707 -1.1625  0.1978 -0.8268
  332MOL0     O44709   1.271  10.591   6.713 -0.0299 -0.1289 -0.0273
  332MOL0     C44710   1.334  10.702   6.742  0.3115 -0.3173 -0.9396
  332MOL0     C44711   1.261  10.809   6.787  0.2287 -0.8540  0.4888
  332MOL0     C44712   1.319  10.932   6.827 -0.2173 -0.4586  0.5842
  332MOL0     C44713   1.215  11.038   6.865  0.3852 -0.4085 -0.5576
  332MOL0     C44714   1.462  10.942   6.814 -0.0237 -0.5523 -0.0693
  332MOL0     C44715   1.535  11.057   6.851  0.3122 -1.1382  0.1239
  332MOL0     O44716   1.669  11.038   6.870  0.1666  0.3401  0.0551
  332MOL0     C44717   1.763  11.141   6.877  0.8583  0.7234 -0.4871
  332MOL0     C44718   1.776  11.249   6.784  0.4024 -0.4521  0.0543
  332MOL0     C44719   1.870  11.353   6.805  0.1802  0.8725  0.7626
  332MOL0     C44720   1.962  11.350   6.919  0.0167 -0.2437 -0.5682
  332MOL0     O44721   2.051  11.461   6.927 -0.0912 -1.1248 -0.2421
  332MOL0     C44722   2.084  11.489   7.064 -0.6189  0.2203  0.7154
  332MOL0     C44723   2.205  11.417   7.122  0.2865 -0.3899 -0.0879
  332MOL0     C44724   2.332  11.493   7.067 -0.5811 -0.4818 -0.1640
  332MOL0     C44725   2.355  11.452   6.922  0.9577 -0.8237  0.1604
  332MOL0     C44726   2.471  11.520   6.874  0.3304  0.3192  0.1755
  332MOL0     C44727   2.496  11.480   6.732 -0.1079  0.6285  0.6207
  332MOL0     C44728   2.596  11.579   6.655  1.1191  0.4638 -0.6035
  332MOL0     C44729   2.724  11.537   6.590  0.0871  0.2095 -0.8480
  332MOL0    Cl44730   2.699  11.417   6.458 -0.2234 -0.2034 -0.3055
  332MOL0     C44731   1.954  11.240   7.012  0.1706 -0.1639  0.1528
  332MOL0     C44732   1.860  11.132   6.980  0.3096  0.5652 -0.6796
  332MOL0     O44733   1.481  11.168   6.845 -0.5495  0.0839 -0.0451
  332MOL0     C44734   1.538  10.829   6.768 -0.0357 -0.0234 -0.9696
  332MOL0     C44735   1.470  10.712   6.728  0.3340 -0.8794 -0.5865
  332MOL0     N44736   1.349   9.916   6.683  0.7683  0.4186  0.4459
  332MOL0     N44737   1.408   9.841   6.767 -0.0648 -0.1600  0.4491
  332MOL0     C44738   0.955  10.084   7.535  0.6232 -0.8557  0.5881
  332MOL0     C44739   0.861  10.164   7.592 -0.1907 -0.5989  0.0252
  332MOL0     C44740   0.491  10.210   7.842 -0.0580  0.3337  0.3053
  332MOL0     C44741   0.364  10.168   7.818 -0.8100 -0.6295  0.3945
  332MOL0     C44742   0.265  10.231   7.897  0.4000 -0.1429  0.3319
  332MOL0     C44743   0.280  10.341   7.976 -0.7045  0.2382 -0.7266
  332MOL0     O44744   0.175  10.385   8.051  0.1255  0.4630 -0.3230
  332MOL0     C44745   0.177  10.514   8.107 -0.1590  0.2919  0.4204
  332MOL0     C44746   0.217  10.626   8.007 -0.7976 -0.4499  1.1658
  332MOL0     C44747   0.152  10.616   7.870  1.0784 -0.5179  0.5922
  332MOL0     C44748   0.242  10.664   7.750 -0.4050  0.2111  0.5434
  332MOL0     C44749   0.319  10.788   7.784 -0.4605 -0.0706  0.0386
  332MOL0     C44750   0.370  10.888   7.827  0.4007 -0.1070 -0.0209
  332MOL0     C44751   0.411  10.369   8.008 -0.1585 -0.4342 -0.5066
  332MOL0     C44752   0.516  10.298   7.950 -0.8805  0.2356  0.1086
  332MOL0     H44753   0.861   9.986   7.892  0.9695  0.3663  0.5744
  332MOL0     H44754   1.026   9.848   7.774 -2.4434 -2.6569 -2.0436
  332MOL0     H44755   1.128   9.721   7.599  0.3507  2.8798  0.2735
  332MOL0     H44756   0.973   9.729   7.512 -0.1294  2.1443  4.4625
  332MOL0     H44757   1.150   9.580   7.411  1.0049 -0.6714  1.7378
  332MOL0     H44758   1.098   9.712   7.300  2.4917  0.8224 -0.4074
  332MOL0     H44759   1.269   9.854   7.361  0.3901  0.2213  1.3412
  332MOL0     H44760   1.336   9.760   7.491  1.4818  0.0822 -1.5814
  332MOL0     H44761   1.381   9.588   7.324 -1.1575 -0.1064 -0.8321
  332MOL0     H44762   1.296   9.673   7.187 -0.9242 -0.3283 -1.1591
  332MOL0     H44763   1.528   9.826   7.314  0.7003 -1.0686  0.7607
  332MOL0     H44764   1.568   9.666   7.246 -0.6940 -0.0585  3.5647
  332MOL0     H44765   1.458   9.721   7.023 -0.2313  1.1952 -1.5065
  332MOL0     H44766   1.392   9.863   7.088 -0.8009 -1.1069 -3.6041
  332MOL0     H44767   1.615   9.970   7.066  1.8204 -0.6490 -2.3207
  332MOL0     H44768   1.683   9.819   7.117  0.2048 -3.2141 -1.1083
  332MOL0     H44769   1.620   9.729   6.868  1.3470  1.5511 -4.2760
  332MOL0     H44770   1.713   9.880   6.870 -0.4884 -0.8786 -0.9891
  332MOL0     H44771   1.613  10.098   6.768  2.5525 -1.1123 -2.1958
  332MOL0     H44772   1.439  10.220   6.590  4.5389 -1.4181  4.3070
  332MOL0     H44773   1.288  10.129   6.542  1.2059  0.6772 -0.0930
  332MOL0     H44774   1.313  10.230   6.822 -2.2121  0.8483  0.9223
  332MOL0     H44775   1.170  10.172   6.741 -0.2005  0.1771 -0.7397
  332MOL0     H44776   1.140  10.389   6.734 -1.2194 -3.8714 -1.1291
  332MOL0     H44777   1.211  10.357   6.572  3.7966 -0.3404 -0.4989
  332MOL0     H44778   1.404  10.457   6.619 -0.2815 -2.3246 -0.0551
  332MOL0     H44779   1.416  10.440   6.782  1.2940 -0.9082 -3.5115
  332MOL0     H44780   1.154  10.798   6.798 -0.1296  1.1603 -0.5954
  332MOL0     H44781   1.118  11.003   6.829 -0.3432  1.3600 -0.3725
  332MOL0     H44782   1.204  11.054   6.972 -3.0714 -4.2478 -0.0879
  332MOL0     H44783   1.235  11.125   6.802  3.2985 -1.1950 -0.8734
  332MOL0     H44784   1.703  11.249   6.704  1.3385  0.3621 -0.8413
  332MOL0     H44785   1.888  11.441   6.745 -1.9113  0.0357 -1.2318
  332MOL0     H44786   2.101  11.597   7.069 -0.5632  0.6154 -3.9157
  332MOL0     H44787   2.003  11.466   7.134 -2.2544 -1.2987 -1.5271
  332MOL0     H44788   2.199  11.419   7.231 -0.4305 -1.9620 -0.0769
  332MOL0     H44789   2.210  11.312   7.091  0.9262 -0.2314 -0.5618
  332MOL0     H44790   2.424  11.469   7.121  0.5051  2.1281 -0.6925
  332MOL0     H44791   2.307  11.599   7.081  0.7687 -0.0690 -0.7409
  332MOL0     H44792   2.335  11.348   6.896 -0.6863 -1.0003  1.8835
  332MOL0     H44793   2.278  11.491   6.856 -1.0441 -4.2520  0.2174
  332MOL0     H44794   2.557  11.498   6.939  1.3010  4.7790  0.7359
  332MOL0     H44795   2.447  11.625   6.890 -1.7751 -0.3176  1.6446
  332MOL0     H44796   2.533  11.378   6.727 -4.9647 -1.4087  0.6234
  332MOL0     H44797   2.404  11.490   6.673 -0.6686  2.6968  1.7282
  332MOL0     H44798   2.626  11.660   6.723 -0.1136  0.7773 -0.4124
  332MOL0     H44799   2.535  11.635   6.583 -1.3514  3.4719  3.3993
  332MOL0     H44800   2.790  11.502   6.670 -1.2417 -0.0216  0.1883
  332MOL0     H44801   2.764  11.628   6.543  1.7200  0.0101  0.0748
  332MOL0     H44802   2.016  11.231   7.100 -0.1563 -0.1906  0.3825
  332MOL0     H44803   1.852  11.050   7.050  2.2258  0.6180 -0.3523
  332MOL0     H44804   1.646  10.826   6.775 -0.1097  0.9223  1.7888
  332MOL0     H44805   1.522  10.628   6.684  0.3843 -1.5438  0.7008
  332MOL0     H44806   0.971  10.108   7.430  0.0215 -2.2199  0.1585
  332MOL0     H44807   0.810  10.244   7.539 -1.5225 -3.8001 -4.0168
  332MOL0     H44808   0.337  10.087   7.750  0.0136  0.9359 -1.9207
  332MOL0     H44809   0.169  10.190   7.867  0.9023  0.0119 -1.6941
  332MOL0     H44810   0.077  10.555   8.125 -0.3345  1.0469 -1.9615
  332MOL0     H44811   0.249  10.522   8.189  3.9768 -1.1528 -2.7312
  332MOL0     H44812   0.325  10.619   7.988 -1.0893 -1.2639 -0.4154
  332MOL0     H44813   0.190  10.720   8.056  0.2117 -1.0146  2.8866
  332MOL0     H44814   0.066  10.682   7.858  0.8228 -0.9461  0.0312
  332MOL0     H44815   0.120  10.513   7.849 -1.0755  0.5386 -1.7496
  332MOL0     H44816   0.190  10.681   7.656  0.4752 -0.7556 -0.1367
  332MOL0     H44817   0.313  10.584   7.724 -0.8094 -0.1860  0.6430
  332MOL0     H44818   0.416  10.974   7.870 -0.6410  0.3414  0.2156
  332MOL0     H44819   0.424  10.442   8.088 -2.1151 -1.3882  0.7509
  332MOL0     H44820   0.612  10.324   7.993 -0.3615  0.6298 -1.2586
  333MOL0     O44821   4.262   8.651   1.741 -0.0640 -0.4612  0.6523
  333MOL0     C44822   4.236   8.763   1.696 -1.0486  0.4138 -0.0113
  333MOL0     O44823   4.323   8.858   1.680 -0.4290 -0.7004 -0.1844
  333MOL0     C44824   4.454   8.840   1.716  0.8002  0.4014 -0.9633
  333MOL0     C44825   4.492   8.849   1.851 -0.1569  0.1314  0.1676
  333MOL0     C44826   4.620   8.810   1.880 -0.9045 -0.0585 -0.0172
  333MOL0     C44827   4.710   8.755   1.784  0.3257 -1.0307 -0.1574
  333MOL0     O44828   4.831   8.719   1.818  0.2084 -0.0902  0.0059
  333MOL0     C44829   4.880   8.673   1.940  0.5861  0.1116 -0.0696
  333MOL0     C44830   4.953   8.537   1.922 -0.1016  0.0644  1.0811
  333MOL0     C44831   4.857   8.427   1.858  0.2817 -0.4490 -0.2800
  333MOL0     C44832   4.940   8.309   1.823  0.1756 -0.1218  1.0902
  333MOL0     C44833   4.866   8.195   1.755 -0.0845 -0.0904 -0.3694
  333MOL0     C44834   4.810   8.229   1.623  0.3342  0.1930  0.7964
  333MOL0     C44835   4.732   8.110   1.576 -1.1400 -0.6992 -0.1231
  333MOL0     C44836   4.670   8.127   1.431 -0.3484  0.1076 -0.4588
  333MOL0     N44837   4.588   8.247   1.427  0.6250 -0.3356 -0.1911
  333MOL0     C44838   4.458   8.256   1.472  0.2964 -0.7216  1.1426
  333MOL0     C44839   4.421   8.389   1.457  0.4277  0.4987  0.9476
  333MOL0     C44840   4.276   8.438   1.473  0.3883 -0.0871  0.2718
  333MOL0     C44841   4.199   8.377   1.357  0.3753  0.7055  0.1250
  333MOL0     C44842   4.054   8.396   1.373  0.4697  1.0983 -0.3638
  333MOL0     C44843   3.980   8.317   1.487  0.1146  0.7100  0.3858
  333MOL0     O44844   3.988   8.178   1.448 -0.4373 -0.1641  0.0463
  333MOL0     C44845   4.009   8.086   1.546  0.4019 -0.3017 -0.6071
  333MOL0     C44846   4.119   8.095   1.625  0.1298 -0.5482 -0.0641
  333MOL0     C44847   4.157   7.997   1.713 -0.3329 -0.2116 -1.0672
  333MOL0     C44848   4.292   8.032   1.786  0.0786  1.0051 -0.1195
  333MOL0     C44849   4.073   7.878   1.727 -0.3454 -0.0451 -0.7767
  333MOL0     C44850   4.108   7.760   1.809 -0.9046 -0.4438 -0.0490
  333MOL0     O44851   4.004   7.683   1.834 -0.0300  0.2155  0.5185
  333MOL0     C44852   4.016   7.586   1.937  0.0705 -0.6250  0.1868
  333MOL0     C44853   4.071   7.464   1.898 -0.4206 -0.5342 -0.0551
  333MOL0     C44854   4.081   7.355   1.989 -0.3041 -0.8505  0.1987
  333MOL0     C44855   4.033   7.380   2.120  0.7394 -0.1251 -0.0609
  333MOL0     O44856   4.032   7.283   2.209  0.7280 -0.4020 -0.0291
  333MOL0     C44857   4.140   7.193   2.201  0.3214 -0.3087  1.0412
  333MOL0     C44858   4.168   7.103   2.322  1.4587  0.1007 -0.7905
  333MOL0     C44859   4.189   7.190   2.442 -1.2999  0.5969 -0.6717
  333MOL0     C44860   4.241   7.103   2.557 -0.2214 -0.4715  1.0777
  333MOL0     C44861   4.298   7.193   2.659 -0.2339  0.7791 -1.0149
  333MOL0     C44862   4.349   7.098   2.773  0.3935  0.4133 -0.3894
  333MOL0     C44863   4.366   7.182   2.910 -0.3418  0.0908 -0.5821
  333MOL0     C44864   4.516   7.200   2.938 -0.3847  0.7241  0.7513
  333MOL0    Cl44865   4.550   7.269   3.103 -0.1963 -0.2952 -0.2525
  333MOL0     C44866   3.970   7.501   2.158 -0.0626  0.3315  0.6554
  333MOL0     C44867   3.953   7.601   2.064  0.3085 -0.6868  0.8278
  333MOL0     O44868   4.216   7.741   1.847 -0.8718 -0.1403 -0.0343
  333MOL0     C44869   3.964   7.877   1.642 -1.0244 -0.7323  0.3404
  333MOL0     C44870   3.927   7.979   1.556  1.0272 -0.3558 -0.2283
  333MOL0     N44871   4.525   8.450   1.387  0.3160 -0.0203 -0.3932
  333MOL0     N44872   4.626   8.367   1.374 -0.0635 -0.0615 -0.0811
  333MOL0     C44873   4.668   8.751   1.649 -0.4912  0.0752 -0.6557
  333MOL0     C44874   4.544   8.792   1.620  0.3438 -0.5937  0.4659
  333MOL0     C44875   4.101   8.802   1.669  0.4571 -0.2113  1.4066
  333MOL0     C44876   4.076   8.927   1.602  0.0812  0.3564  0.1357
  333MOL0     C44877   3.941   8.971   1.564 -0.4998  0.3161  0.3806
  333MOL0     C44878   3.837   8.882   1.587  0.4121  0.6881  0.0755
  333MOL0     O44879   3.696   8.904   1.570 -0.5724  0.4783 -0.6413
  333MOL0     C44880   3.666   9.027   1.516  0.1533 -0.4528 -0.1521
  333MOL0     C44881   3.513   9.029   1.521  0.2706 -0.5640  0.2259
  333MOL0     C44882   3.438   8.922   1.425 -0.0900 -0.0720 -0.2742
  333MOL0     C44883   3.466   8.941   1.279  0.3938  0.8997 -0.0067
  333MOL0     C44884   3.422   9.071   1.227  0.3760  0.8190 -0.4058
  333MOL0     C44885   3.392   9.174   1.172 -0.0724  0.1509  0.3760
  333MOL0     C44886   3.865   8.750   1.632  1.3321 -0.4334  0.0519
  333MOL0     C44887   3.994   8.708   1.668 -0.6246  0.2616 -0.1852
  333MOL0     H44888   4.429   8.888   1.929 -1.2035 -0.9789 -0.1012
  333MOL0     H44889   4.648   8.822   1.984 -2.9038 -1.8349  0.8044
  333MOL0     H44890   4.965   8.740   1.958  1.2180 -0.0201 -2.2309
  333MOL0     H44891   4.805   8.667   2.019  2.5071 -1.2812  1.7936
  333MOL0     H44892   5.035   8.549   1.850  1.6502 -1.3767  2.7176
  333MOL0     H44893   4.999   8.491   2.010 -1.3329  1.4548  2.5108
  333MOL0     H44894   4.789   8.392   1.936  1.8610  0.3285  1.5277
  333MOL0     H44895   4.793   8.461   1.776 -0.0630 -1.8839 -0.6338
  333MOL0     H44896   5.021   8.338   1.756 -0.5281  1.8939  1.0389
  333MOL0     H44897   4.996   8.268   1.908  1.3616 -1.9423 -0.4798
  333MOL0     H44898   4.935   8.111   1.739 -0.6577 -0.1558 -3.0772
  333MOL0     H44899   4.792   8.169   1.831  1.0642  2.2116  1.6673
  333MOL0     H44900   4.743   8.316   1.626  0.8620  0.9973 -3.5335
  333MOL0     H44901   4.884   8.241   1.543 -1.0370  0.8705 -0.4216
  333MOL0     H44902   4.791   8.018   1.580 -0.4720 -0.2383  1.4524
  333MOL0     H44903   4.649   8.104   1.648  0.4825 -1.6872  1.7683
  333MOL0     H44904   4.593   8.050   1.419  0.2906 -0.9242  1.6324
  333MOL0     H44905   4.746   8.137   1.353  0.7345  1.3155  0.7083
  333MOL0     H44906   4.391   8.173   1.497 -1.7990  0.1158 -1.2702
  333MOL0     H44907   4.248   8.407   1.574  1.2871  0.6003  0.7436
  333MOL0     H44908   4.264   8.546   1.466  2.9902  0.2520  0.0790
  333MOL0     H44909   4.239   8.275   1.353  3.5233  1.8705 -0.6888
  333MOL0     H44910   4.216   8.420   1.258  1.0028 -0.7464 -0.4200
  333MOL0     H44911   4.002   8.355   1.286  0.0440 -1.0800  0.8563
  333MOL0     H44912   4.036   8.504   1.372  2.2159  1.4840  2.0091
  333MOL0     H44913   3.875   8.344   1.498 -0.7546 -2.7660  1.9101
  333MOL0     H44914   4.042   8.342   1.573  1.3900  1.9107 -0.8242
  333MOL0     H44915   4.183   8.180   1.603  1.0421 -1.6485 -1.9803
  333MOL0     H44916   4.338   8.130   1.771  1.5230  0.5768  1.1953
  333MOL0     H44917   4.275   8.009   1.892  1.0841 -1.4558 -0.4306
  333MOL0     H44918   4.372   7.961   1.765  0.7119  1.7162 -0.1651
  333MOL0     H44919   4.112   7.450   1.798  0.6167  0.9119  0.1452
  333MOL0     H44920   4.127   7.267   1.946  3.0969  0.5238  0.7513
  333MOL0     H44921   4.122   7.125   2.117  0.1642 -0.2981  1.0651
  333MOL0     H44922   4.234   7.244   2.178  1.6960 -3.3082 -0.5017
  333MOL0     H44923   4.079   7.043   2.341 -0.0853  3.0564  2.6407
  333MOL0     H44924   4.250   7.037   2.296  0.7619 -1.7365  1.3782
  333MOL0     H44925   4.097   7.239   2.475 -2.6736 -1.5128 -1.1435
  333MOL0     H44926   4.269   7.261   2.417 -0.6671  0.8920  1.9611
  333MOL0     H44927   4.155   7.042   2.586  0.7453 -2.3806  0.1504
  333MOL0     H44928   4.324   7.043   2.519 -0.3980  1.1320 -2.1234
  333MOL0     H44929   4.216   7.262   2.681 -0.3130  0.2956  0.3355
  333MOL0     H44930   4.386   7.250   2.627  1.8898 -1.0117  1.1973
  333MOL0     H44931   4.280   7.017   2.796  2.3101 -1.0528  0.4310
  333MOL0     H44932   4.445   7.050   2.752  2.2389  4.6114 -2.8601
  333MOL0     H44933   4.317   7.128   2.991  0.8864  1.0681  0.8711
  333MOL0     H44934   4.320   7.281   2.903 -0.3714  0.1717  0.6138
  333MOL0     H44935   4.560   7.258   2.856  0.4853 -0.5431  0.3046
  333MOL0     H44936   4.561   7.101   2.938  0.3029  1.0261  0.5014
  333MOL0     H44937   3.922   7.491   2.255 -2.4846 -1.4854 -0.6334
  333MOL0     H44938   3.917   7.701   2.086  1.4372  0.0409 -0.4489
  333MOL0     H44939   3.912   7.782   1.652  1.4588 -2.1218  1.1302
  333MOL0     H44940   3.838   7.959   1.497  0.3073  0.7155  0.4502
  333MOL0     H44941   4.744   8.698   1.592  1.6746 -0.8529  2.7248
  333MOL0     H44942   4.505   8.772   1.520  1.9921  1.6276 -0.7027
  333MOL0     H44943   4.151   9.002   1.579 -0.5323  1.5223  1.7248
  333MOL0     H44944   3.923   9.057   1.500 -1.3363 -0.8970 -1.0764
  333MOL0     H44945   3.696   9.109   1.582 -3.2052  0.2273  0.7105
  333MOL0     H44946   3.711   9.046   1.418 -2.3388 -0.6692 -1.4220
  333MOL0     H44947   3.472   9.129   1.505  2.5311  0.0656 -2.4302
  333MOL0     H44948   3.491   8.984   1.619  2.6136 -4.6568 -0.8786
  333MOL0     H44949   3.331   8.921   1.446 -0.3075  2.1454 -0.9563
  333MOL0     H44950   3.483   8.826   1.453 -0.1453 -0.7566 -2.4074
  333MOL0     H44951   3.413   8.856   1.234  1.8686 -0.5941  0.9892
  333MOL0     H44952   3.573   8.931   1.264  0.2108 -1.1324 -0.2722
  333MOL0     H44953   3.355   9.264   1.127 -2.1741 -2.4712 -3.6757
  333MOL0     H44954   3.776   8.688   1.637 -0.9315  2.5509 -0.2951
  333MOL0     H44955   4.006   8.608   1.709 -0.9368  0.1180 -0.4412
  334MOL0     O44956   1.992   4.470   7.929  0.1945 -0.0313  0.3857
  334MOL0     C44957   2.035   4.561   7.997  0.0562 -0.3228  0.1938
  334MOL0     O44958   2.112   4.542   8.102  1.0255 -0.7867 -0.3784
  334MOL0     C44959   2.122   4.415   8.156 -0.0366 -0.4251  0.2641
  334MOL0     C44960   2.017   4.347   8.215 -0.2167  0.2066  0.6612
  334MOL0     C44961   2.033   4.225   8.291 -0.3571  0.1089  0.5337
  334MOL0     C44962   2.165   4.175   8.311 -0.8202  0.1467 -0.3365
  334MOL0     O44963   2.204   4.056   8.374  0.5084 -0.4965 -0.2131
  334MOL0     C44964   2.110   3.987   8.465  0.2364  0.4216  0.4505
  334MOL0     C44965   2.158   3.847   8.487 -0.0420  0.0132  1.1587
  334MOL0     C44966   2.128   3.756   8.361 -0.3382 -1.1060 -0.3540
  334MOL0     C44967   2.170   3.609   8.363  0.0988  0.3506 -0.4332
  334MOL0     C44968   2.124   3.542   8.488 -0.5063  0.9383 -0.2344
  334MOL0     C44969   2.171   3.395   8.493  0.8434 -0.0137 -0.6061
  334MOL0     C44970   2.326   3.389   8.485  0.3867  0.1267 -0.4514
  334MOL0     C44971   2.423   3.489   8.557 -0.2951  0.5699 -0.2770
  334MOL0     N44972   2.404   3.485   8.702 -0.4669 -0.0126  0.1912
  334MOL0     C44973   2.417   3.375   8.777 -0.2499  0.0398  0.3714
  334MOL0     C44974   2.372   3.412   8.896 -0.1414  0.5068 -0.2321
  334MOL0     C44975   2.348   3.336   9.016  0.9422  0.3811  0.1311
  334MOL0     C44976   2.236   3.234   8.997  0.6398 -1.0148  0.6607
  334MOL0     C44977   2.101   3.309   8.980  0.2814  0.0028  0.7418
  334MOL0     C44978   2.032   3.361   9.104  0.2725  0.0785 -0.4870
  334MOL0     O44979   1.901   3.417   9.060  0.7239  0.1821 -0.5982
  334MOL0     C44980   1.788   3.364   9.118 -1.1200  0.2836 -0.0204
  334MOL0     C44981   1.677   3.436   9.095 -0.0031 -0.0004  0.7543
  334MOL0     C44982   1.548   3.404   9.135  0.0958 -0.0188 -0.5222
  334MOL0     C44983   1.434   3.491   9.084  0.5402 -0.0842  0.1877
  334MOL0     C44984   1.535   3.289   9.224 -0.0858 -0.5433  0.3217
  334MOL0     C44985   1.407   3.234   9.269  0.5980 -0.0190 -0.8803
  334MOL0     O44986   1.417   3.120   9.349 -0.4913 -0.2416 -0.1856
  334MOL0     C44987   1.299   3.053   9.391 -0.5912  0.4479 -0.4065
  334MOL0     C44988   1.224   2.974   9.304 -0.7393 -1.1283 -0.2592
  334MOL0     C44989   1.106   2.925   9.349  0.4192  0.5636  0.1963
  334MOL0     C44990   1.065   2.937   9.479  0.5853 -0.7547 -0.0493
  334MOL0     O44991   0.937   2.881   9.511  0.2117  0.5097 -0.7841
  334MOL0     C44992   0.834   2.978   9.528  0.4537  0.7174  0.2319
  334MOL0     C44993   0.702   2.913   9.555 -0.2838  0.8362 -0.5129
  334MOL0     C44994   0.722   2.786   9.653 -0.4415 -0.8920  0.2731
  334MOL0     C44995   0.567   2.756   9.670  0.3159  0.3080  0.1671
  334MOL0     C44996   0.548   2.647   9.787  0.4465  0.3074  0.3274
  334MOL0     C44997   0.404   2.595   9.790  0.3771  0.3639 -0.4900
  334MOL0     C44998   0.377   2.491   9.901  0.1683  0.0764  0.1395
  334MOL0     C44999   0.246   2.409   9.902 -0.2103 -0.3462  0.0067
  334MOL0    Cl45000   0.102   2.469   9.977 -0.1748  0.3131 -0.3112
  334MOL0     C45001   1.135   3.026   9.567 -1.1904  0.5500 -1.0580
  334MOL0     C45002   1.248   3.087   9.522  0.2594  0.3229 -0.3410
  334MOL0     O45003   1.307   3.275   9.224  0.5357  0.2014  0.7527
  334MOL0     C45004   1.647   3.206   9.243 -0.2937 -1.2778 -0.4627
  334MOL0     C45005   1.774   3.251   9.204  0.0059  0.2550  0.0007
  334MOL0     N45006   2.349   3.551   8.888  0.0974 -0.1947  0.7307
  334MOL0     N45007   2.363   3.594   8.767 -0.7691  0.5889 -1.1552
  334MOL0     C45008   2.278   4.249   8.273 -0.2814  0.6836  0.0023
  334MOL0     C45009   2.253   4.367   8.185 -0.5587 -0.0961  0.0531
  334MOL0     C45010   1.985   4.697   7.967 -1.0147  0.7016 -0.0266
  334MOL0     C45011   2.053   4.814   8.013 -0.9403 -0.3418  1.4606
  334MOL0     C45012   2.015   4.944   7.973  0.0783  0.6985  0.6555
  334MOL0     C45013   1.912   4.958   7.883 -1.0653  0.4772  0.2081
  334MOL0     O45014   1.867   5.075   7.824 -0.7414  0.6826  0.2228
  334MOL0     C45015   1.922   5.207   7.865  0.0297  1.2882  0.4711
  334MOL0     C45016   1.855   5.245   7.991 -1.0113 -0.9861  0.2091
  334MOL0     C45017   1.701   5.260   7.967 -0.2423 -0.5431  0.1949
  334MOL0     C45018   1.660   5.401   7.926 -0.1141  0.0513  0.2499
  334MOL0     C45019   1.521   5.399   7.855  0.2030 -0.4131 -0.5507
  334MOL0     C45020   1.404   5.393   7.816 -1.1448 -0.5964  1.0146
  334MOL0     C45021   1.841   4.845   7.848  0.1216 -0.2646  0.5343
  334MOL0     C45022   1.875   4.710   7.887 -0.2156 -0.1957  0.2490
  334MOL0     H45023   1.918   4.388   8.199  0.1067  0.7819  0.0980
  334MOL0     H45024   1.946   4.167   8.318 -1.7794  2.3333  0.9585
  334MOL0     H45025   2.110   4.046   8.557  2.6059 -0.1876  0.8973
  334MOL0     H45026   2.010   3.980   8.422 -0.2188 -1.7059  1.7245
  334MOL0     H45027   2.266   3.844   8.503  0.6149  1.7759 -1.9981
  334MOL0     H45028   2.109   3.800   8.572 -1.8620  1.9985  1.2821
  334MOL0     H45029   2.019   3.756   8.360 -0.4094  1.9799 -0.8358
  334MOL0     H45030   2.169   3.805   8.272  4.1410 -0.8940  1.5166
  334MOL0     H45031   2.120   3.552   8.283 -0.9395 -1.7423  1.5960
  334MOL0     H45032   2.277   3.608   8.339  0.0170 -0.1656 -0.7929
  334MOL0     H45033   2.156   3.593   8.579  5.0900 -1.9878 -0.0974
  334MOL0     H45034   2.015   3.544   8.480 -0.5127  1.0178 -0.1254
  334MOL0     H45035   2.132   3.353   8.587  0.2630 -0.4186 -1.0242
  334MOL0     H45036   2.132   3.330   8.414 -2.6466 -2.7401  2.9527
  334MOL0     H45037   2.366   3.292   8.518  2.3805  1.9505  3.0415
  334MOL0     H45038   2.347   3.388   8.377 -0.5276 -3.8948 -0.7375
  334MOL0     H45039   2.426   3.593   8.523  2.0794  1.0443  1.1802
  334MOL0     H45040   2.523   3.458   8.528  0.5999  0.7788  2.3138
  334MOL0     H45041   2.461   3.277   8.758 -1.2006  0.0600 -2.3444
  334MOL0     H45042   2.445   3.289   9.033  1.0890  1.1474  1.6259
  334MOL0     H45043   2.322   3.408   9.095 -2.2949  1.2755 -1.5778
  334MOL0     H45044   2.232   3.168   9.084  1.9335  1.3678  2.6561
  334MOL0     H45045   2.255   3.181   8.903  0.1866  0.9144 -0.5742
  334MOL0     H45046   2.040   3.227   8.942 -0.3880  0.4781  0.7833
  334MOL0     H45047   2.111   3.391   8.908  0.2589 -1.2616 -0.7400
  334MOL0     H45048   2.090   3.437   9.158  2.4233  0.9219 -3.7174
  334MOL0     H45049   2.020   3.276   9.171  3.0316 -0.4246 -0.5177
  334MOL0     H45050   1.678   3.517   9.024 -3.2853 -0.9331 -0.5400
  334MOL0     H45051   1.392   3.517   9.182 -1.6545 -0.8778 -0.5024
  334MOL0     H45052   1.468   3.587   9.043 -2.6738  1.0279 -0.1047
  334MOL0     H45053   1.362   3.437   9.022  3.4092 -0.8616 -2.7463
  334MOL0     H45054   1.260   2.953   9.204  1.9334 -0.1110  0.4198
  334MOL0     H45055   1.055   2.860   9.279  1.0006 -1.7729  1.8440
  334MOL0     H45056   0.870   3.040   9.611  0.6140  1.0482 -0.0778
  334MOL0     H45057   0.825   3.047   9.443 -1.5477 -0.9478 -1.0017
  334MOL0     H45058   0.635   2.988   9.597  2.9056  2.2267  2.5925
  334MOL0     H45059   0.663   2.869   9.462  0.6158 -3.0145  0.7594
  334MOL0     H45060   0.756   2.811   9.754 -1.5076 -1.7629  0.8757
  334MOL0     H45061   0.775   2.701   9.610 -0.8975 -1.1438  0.1971
  334MOL0     H45062   0.519   2.849   9.702  2.2066  1.2694  0.3142
  334MOL0     H45063   0.531   2.719   9.574  3.8727 -1.7090 -0.5725
  334MOL0     H45064   0.569   2.693   9.884  1.1433  0.9711 -0.1222
  334MOL0     H45065   0.622   2.566   9.785 -0.1088 -0.1958 -0.8286
  334MOL0     H45066   0.337   2.680   9.797  1.5980  1.2642  0.6034
  334MOL0     H45067   0.381   2.545   9.695  0.2489  1.3257 -0.9792
  334MOL0     H45068   0.405   2.551   9.988  1.7952  3.1218 -2.2493
  334MOL0     H45069   0.455   2.415   9.888  1.5397  1.6294 -1.1074
  334MOL0     H45070   0.275   2.318   9.955 -1.7784 -0.9235 -0.0594
  334MOL0     H45071   0.227   2.388   9.796  1.6337 -0.5390 -0.3114
  334MOL0     H45072   1.094   3.030   9.667  0.8048  0.6408 -0.2136
  334MOL0     H45073   1.307   3.157   9.580  1.7880 -0.6867 -0.6520
  334MOL0     H45074   1.653   3.112   9.296  3.1185 -1.2643 -0.5848
  334MOL0     H45075   1.853   3.185   9.237 -0.4133 -1.0975 -1.5903
  334MOL0     H45076   2.376   4.206   8.290 -1.0042 -1.4083 -0.7776
  334MOL0     H45077   2.330   4.427   8.137 -0.8195  0.1679 -0.0403
  334MOL0     H45078   2.156   4.806   8.048 -0.2831  3.8861  1.0170
  334MOL0     H45079   2.070   5.025   8.020  0.8356  1.1841 -1.0009
  334MOL0     H45080   2.030   5.195   7.881 -0.0173 -0.5117 -0.3003
  334MOL0     H45081   1.903   5.270   7.778  1.8338 -1.9642 -2.5255
  334MOL0     H45082   1.907   5.338   8.016  1.1798 -2.2317  0.4642
  334MOL0     H45083   1.886   5.179   8.073  2.1305 -1.7030 -1.4345
  334MOL0     H45084   1.654   5.237   8.063  1.4454 -2.0740  0.7128
  334MOL0     H45085   1.670   5.182   7.896  1.9049 -1.0905 -0.2265
  334MOL0     H45086   1.739   5.446   7.865  0.8455 -0.0368  1.4090
  334MOL0     H45087   1.662   5.465   8.015 -1.9580 -1.8490  1.7559
  334MOL0     H45088   1.302   5.384   7.784 -0.3377  0.0142 -2.0677
  334MOL0     H45089   1.755   4.850   7.781 -1.7687  0.7896  2.8950
  334MOL0     H45090   1.826   4.629   7.835  0.4635  0.3202 -1.2395
  335MOL0     O45091   8.411   5.162   0.528  0.5904 -0.2403 -0.1910
  335MOL0     C45092   8.388   5.255   0.453 -1.0623 -0.0358 -0.7355
  335MOL0     O45093   8.382   5.257   0.319  0.2803  0.2181  0.3160
  335MOL0     C45094   8.370   5.139   0.249 -1.0931  0.4159  0.2742
  335MOL0     C45095   8.386   5.001   0.294  0.3086  0.4041 -0.7265
  335MOL0     C45096   8.365   4.890   0.214  0.5228 -0.7305  0.0850
  335MOL0     C45097   8.327   4.907   0.081  0.2130 -0.5869  0.0857
  335MOL0     O45098   8.316   4.803  -0.011  0.7854 -0.2672 -0.7852
  335MOL0     C45099   8.324   4.668   0.033 -0.4111 -0.9645  0.6918
  335MOL0     C45100   8.321   4.572  -0.090 -0.4019 -0.0295  0.0552
  335MOL0     C45101   8.343   4.414  -0.084 -1.4373 -0.3182  0.1327
  335MOL0     C45102   8.315   4.345   0.047 -0.3507 -0.4268  1.0562
  335MOL0     C45103   8.433   4.316   0.130  1.5365  0.3169 -0.1485
  335MOL0     C45104   8.376   4.235   0.254 -1.0993 -0.0467  0.3869
  335MOL0     C45105   8.493   4.209   0.349 -0.3030 -0.4270  0.3163
  335MOL0     C45106   8.444   4.155   0.482  0.9852 -0.3715  0.2111
  335MOL0     N45107   8.548   4.185   0.578  0.0502  0.0661  1.5436
  335MOL0     C45108   8.547   4.279   0.669  0.4026 -0.6198  0.5420
  335MOL0     C45109   8.657   4.259   0.748  0.0995 -0.8730  0.3473
  335MOL0     C45110   8.744   4.351   0.836  0.5744  0.1531  0.0274
  335MOL0     C45111   8.814   4.436   0.733 -0.1878  0.4657  0.8830
  335MOL0     C45112   8.939   4.518   0.779  0.3962  0.6200  0.2367
  335MOL0     C45113   8.976   4.630   0.687  0.1766  0.0343  0.1814
  335MOL0     O45114   8.873   4.732   0.699 -0.2489  0.9116 -0.6972
  335MOL0     C45115   8.881   4.844   0.620  0.3332 -0.8741  0.5590
  335MOL0     C45116   8.984   4.873   0.529  0.3111  0.2993  0.1503
  335MOL0     C45117   8.985   4.990   0.456 -1.2122 -0.3232 -0.1260
  335MOL0     C45118   9.119   5.014   0.397 -0.4855 -0.8721 -0.1172
  335MOL0     C45119   8.869   5.079   0.446  0.0843 -0.3990  0.1107
  335MOL0     C45120   8.866   5.196   0.352 -0.8743 -0.4632 -0.2220
  335MOL0     O45121   8.789   5.303   0.384  0.3952 -0.3883  0.2489
  335MOL0     C45122   8.808   5.419   0.307 -0.6461  0.1707 -0.3213
  335MOL0     C45123   8.724   5.449   0.204 -0.7119 -0.0447 -1.1693
  335MOL0     C45124   8.743   5.565   0.133 -0.4653 -0.1714  0.8214
  335MOL0     C45125   8.852   5.648   0.150 -0.2802  0.7391 -0.3554
  335MOL0     O45126   8.896   5.744   0.064 -1.0021  0.1692  0.6336
  335MOL0     C45127   8.847   5.740  -0.066  0.0038  0.2108 -0.9177
  335MOL0     C45128   8.901   5.856  -0.150  0.7554 -0.1812  0.7898
  335MOL0     C45129   8.830   5.869  -0.285 -1.1051  0.6777  0.1350
  335MOL0     C45130   8.878   5.972  -0.377  0.4178 -0.7845  0.0190
  335MOL0     C45131   8.803   5.961  -0.514 -0.1712 -0.2051 -0.1653
  335MOL0     C45132   8.830   6.097  -0.572  0.2893  0.2216  0.0519
  335MOL0     C45133   8.762   6.117  -0.708  0.6447  0.1182  0.8409
  335MOL0     C45134   8.756   6.011  -0.818 -0.4325 -0.5327 -0.2628
  335MOL0    Cl45135   8.927   5.976  -0.841 -0.1237 -0.3966  0.0384
  335MOL0     C45136   8.936   5.620   0.256  0.0127  0.0009  0.1772
  335MOL0     C45137   8.908   5.505   0.339 -0.7662  0.3714  0.9998
  335MOL0     O45138   8.918   5.174   0.243 -0.3401  0.1421 -0.7864
  335MOL0     C45139   8.771   5.044   0.532  0.2218 -0.4160  1.1584
  335MOL0     C45140   8.772   4.927   0.610  0.3079 -0.1254 -0.9730
  335MOL0     N45141   8.717   4.137   0.709 -0.6108  0.3455 -0.5414
  335MOL0     N45142   8.651   4.098   0.608 -0.1639  0.9118  0.1137
  335MOL0     C45143   8.289   5.041   0.039  0.4295  0.4422 -0.0143
  335MOL0     C45144   8.320   5.149   0.122  0.5242 -0.2523  1.0801
  335MOL0     C45145   8.390   5.383   0.527  0.3358 -0.7241 -0.1808
  335MOL0     C45146   8.339   5.396   0.661  1.0390  0.4029 -0.0258
  335MOL0     C45147   8.320   5.517   0.724  0.8971 -0.6295  0.2313
  335MOL0     C45148   8.360   5.634   0.666 -0.1620  0.4066 -0.4414
  335MOL0     O45149   8.367   5.745   0.749  0.4279  0.0071  1.2690
  335MOL0     C45150   8.481   5.747   0.823  0.7777 -0.3517  0.0010
  335MOL0     C45151   8.584   5.844   0.774 -0.6181 -0.6072  0.1106
  335MOL0     C45152   8.673   5.899   0.880 -0.6995  0.5044  0.0727
  335MOL0     C45153   8.763   5.797   0.962  0.1331 -0.1376 -0.2820
  335MOL0     C45154   8.835   5.864   1.071  0.2144 -0.3301  0.4969
  335MOL0     C45155   8.895   5.936   1.150 -0.0275  0.5480  0.4836
  335MOL0     C45156   8.410   5.625   0.538  0.7490 -0.6048 -0.3276
  335MOL0     C45157   8.429   5.502   0.468 -0.2822 -0.3302  0.4099
  335MOL0     H45158   8.411   4.993   0.400  0.2143 -1.5515 -0.8138
  335MOL0     H45159   8.373   4.789   0.254  0.4615 -1.3539 -1.4227
  335MOL0     H45160   8.422   4.644   0.076  0.7744  0.9131 -0.7755
  335MOL0     H45161   8.246   4.642   0.105 -0.3727  0.8542  1.4576
  335MOL0     H45162   8.219   4.563  -0.128 -1.2283 -3.4625  2.5556
  335MOL0     H45163   8.368   4.623  -0.174  2.2756 -2.7429 -0.2424
  335MOL0     H45164   8.267   4.374  -0.151 -0.8798 -0.6030 -0.3421
  335MOL0     H45165   8.441   4.375  -0.113 -0.5804  0.1487  2.1876
  335MOL0     H45166   8.240   4.403   0.101 -1.3601 -1.6744  1.0426
  335MOL0     H45167   8.264   4.253   0.019  1.0682 -0.7119 -0.8004
  335MOL0     H45168   8.499   4.251   0.070  1.7045 -1.2106  1.5986
  335MOL0     H45169   8.492   4.405   0.154  0.2062  1.5954 -1.4206
  335MOL0     H45170   8.302   4.290   0.313  0.4915 -1.7251  4.2273
  335MOL0     H45171   8.336   4.141   0.216  2.6983 -2.7059  2.3584
  335MOL0     H45172   8.561   4.134   0.309  0.2775  1.2733 -2.0763
  335MOL0     H45173   8.551   4.300   0.365  1.6863 -1.8909  1.8576
  335MOL0     H45174   8.437   4.046   0.480 -1.1159 -0.3143  1.2529
  335MOL0     H45175   8.353   4.206   0.515  0.9317  0.9474 -1.7988
  335MOL0     H45176   8.486   4.369   0.661 -0.6857 -1.4444 -1.0631
  335MOL0     H45177   8.696   4.415   0.910 -0.7882  1.5206 -1.9479
  335MOL0     H45178   8.812   4.286   0.892  0.1320  0.9564  1.5750
  335MOL0     H45179   8.738   4.491   0.678  0.1100 -0.7335 -0.7964
  335MOL0     H45180   8.853   4.366   0.658 -1.9648  0.7445 -0.3613
  335MOL0     H45181   9.011   4.436   0.783 -1.2504 -0.8837  0.4164
  335MOL0     H45182   8.911   4.557   0.877 -0.2832  3.0262 -0.8347
  335MOL0     H45183   8.971   4.570   0.595  0.9857 -1.9456  1.3497
  335MOL0     H45184   9.079   4.657   0.712  0.0733 -0.8756  1.7402
  335MOL0     H45185   9.062   4.800   0.506 -0.6304 -0.1993 -1.6731
  335MOL0     H45186   9.108   5.029   0.289 -1.5102 -1.0208 -0.0420
  335MOL0     H45187   9.163   5.095   0.456 -1.4592 -2.2372  2.6688
  335MOL0     H45188   9.190   4.932   0.403  0.0379 -0.6887 -2.5814
  335MOL0     H45189   8.632   5.392   0.203 -2.5126  2.6186 -0.4004
  335MOL0     H45190   8.662   5.586   0.065 -0.3260 -3.0958 -0.3744
  335MOL0     H45191   8.876   5.640  -0.100  0.4728 -0.1360  0.4200
  335MOL0     H45192   8.739   5.756  -0.070 -0.4526 -2.0797  0.5964
  335MOL0     H45193   8.889   5.953  -0.102 -0.0173  0.5270 -0.7518
  335MOL0     H45194   9.007   5.852  -0.174  1.2535 -2.5050  3.0007
  335MOL0     H45195   8.726   5.900  -0.278 -0.9620  1.5421 -1.2221
  335MOL0     H45196   8.856   5.777  -0.340 -0.2515  0.0295  1.5680
  335MOL0     H45197   8.862   6.071  -0.332  1.4305 -0.4677 -0.2857
  335MOL0     H45198   8.986   5.964  -0.395  0.5576 -0.3792  0.6407
  335MOL0     H45199   8.695   5.956  -0.497 -0.4939  1.7172 -1.3263
  335MOL0     H45200   8.846   5.875  -0.565  0.7238  0.2957 -0.2675
  335MOL0     H45201   8.807   6.182  -0.507 -2.4651 -0.9990  0.8514
  335MOL0     H45202   8.936   6.120  -0.586 -0.0875  1.6064 -0.7566
  335MOL0     H45203   8.790   6.215  -0.748 -2.5594  0.2253 -1.6367
  335MOL0     H45204   8.655   6.130  -0.689  0.1017  0.0547 -1.7992
  335MOL0     H45205   8.710   6.060  -0.904  2.5739  0.0979 -1.6661
  335MOL0     H45206   8.700   5.920  -0.797 -2.6149  0.4935 -1.2948
  335MOL0     H45207   9.030   5.668   0.284 -0.0879  0.2458  0.0950
  335MOL0     H45208   8.975   5.473   0.419 -0.1351 -3.2628 -0.7841
  335MOL0     H45209   8.693   5.120   0.527 -1.0348 -1.7450 -2.4762
  335MOL0     H45210   8.692   4.898   0.677 -0.2622  1.1087 -1.0950
  335MOL0     H45211   8.247   5.051  -0.061  0.2699 -0.2589 -0.0269
  335MOL0     H45212   8.301   5.250   0.086 -2.9908 -1.9299 -2.5575
  335MOL0     H45213   8.298   5.303   0.699 -0.7433  0.7122 -1.0476
  335MOL0     H45214   8.279   5.509   0.824 -0.3733  3.1201  0.1698
  335MOL0     H45215   8.449   5.785   0.921  1.2982  0.0410  0.0247
  335MOL0     H45216   8.527   5.649   0.837  1.7966 -0.2308 -2.0794
  335MOL0     H45217   8.533   5.913   0.706  0.2962 -0.3885 -0.3733
  335MOL0     H45218   8.656   5.789   0.712  0.1912 -1.9474  2.1491
  335MOL0     H45219   8.619   5.962   0.951  0.5554  0.7927  0.8089
  335MOL0     H45220   8.747   5.957   0.824 -0.8093 -2.4534 -3.4929
  335MOL0     H45221   8.823   5.738   0.892 -0.1284 -1.1194  0.2924
  335MOL0     H45222   8.692   5.733   1.016 -1.1607  4.4232  4.2024
  335MOL0     H45223   8.942   6.006   1.217  1.1899 -0.9562  1.2667
  335MOL0     H45224   8.454   5.716   0.500  3.2917 -1.7387 -0.3292
  335MOL0     H45225   8.466   5.512   0.366 -1.0007  0.7873  0.2392
  336MOL0     O45226   5.093  10.219   9.580 -0.4240  0.4870  0.0849
  336MOL0     C45227   5.097  10.304   9.496 -0.4292  0.0241 -0.8344
  336MOL0     O45228   5.149  10.285   9.372 -0.0733 -0.0712 -0.5493
  336MOL0     C45229   5.216  10.166   9.336  0.8826  1.2092 -0.4313
  336MOL0     C45230   5.152  10.037   9.353 -0.5256  0.4539 -0.3415
  336MOL0     C45231   5.227   9.923   9.341 -0.7262  0.1769 -0.5531
  336MOL0     C45232   5.357   9.931   9.294 -0.1076 -0.2371  0.1129
  336MOL0     O45233   5.431   9.820   9.257  0.3890 -0.2395  0.1714
  336MOL0     C45234   5.448   9.702   9.340  0.5846  0.0277  0.5951
  336MOL0     C45235   5.482   9.730   9.492 -0.7752  0.2454 -0.2186
  336MOL0     C45236   5.537   9.609   9.581  0.0845  0.8577  0.3321
  336MOL0     C45237   5.418   9.510   9.603  0.0003 -0.1963 -0.0496
  336MOL0     C45238   5.449   9.391   9.693  0.5475 -0.2900 -1.0000
  336MOL0     C45239   5.480   9.426   9.833 -0.1901  0.0107  0.3010
  336MOL0     C45240   5.513   9.300   9.916 -0.0101 -0.7804  0.9144
  336MOL0     C45241   5.478   9.331  10.064 -0.2638  0.5066 -1.1570
  336MOL0     N45242   5.503   9.204  10.142 -0.0186 -0.4295  0.3432
  336MOL0     C45243   5.521   9.074  10.096 -0.2580  0.6100  0.4700
  336MOL0     C45244   5.535   8.992  10.201 -0.0857  0.9059 -0.2493
  336MOL0     C45245   5.547   8.843  10.191  0.6970 -0.3076  0.0981
  336MOL0     C45246   5.653   8.794  10.089  1.0153 -0.0736  0.6542
  336MOL0     C45247   5.783   8.765  10.178  0.8878  0.2980  0.5323
  336MOL0     C45248   5.836   8.891  10.230 -0.2063 -1.1534 -0.2802
  336MOL0     O45249   5.895   8.975  10.122  0.0352  0.8110 -0.0603
  336MOL0     C45250   5.912   9.108  10.129  0.4972  0.0957 -0.0286
  336MOL0     C45251   5.883   9.200  10.235 -0.2151 -0.0469  0.0659
  336MOL0     C45252   5.878   9.342  10.211 -0.2485  0.6749  0.5057
  336MOL0     C45253   5.838   9.425  10.332  0.1709 -0.2167  0.8213
  336MOL0     C45254   5.908   9.396  10.089  0.1229 -0.2794  0.2969
  336MOL0     C45255   5.910   9.535  10.047 -0.1982  1.2509 -0.7352
  336MOL0     O45256   5.955   9.575   9.925 -0.6270 -0.1822  0.0952
  336MOL0     C45257   5.925   9.705   9.889 -0.9664  0.6799  0.4623
  336MOL0     C45258   5.806   9.763   9.885  1.5531  0.2336  0.2311
  336MOL0     C45259   5.794   9.904   9.855  0.6621  0.4362  0.7453
  336MOL0     C45260   5.908   9.971   9.821 -0.2799 -0.0745  0.1050
  336MOL0     O45261   5.894  10.104   9.780 -0.1702  0.5130 -0.1065
  336MOL0     C45262   5.947  10.141   9.645  0.7093  1.1443  0.0308
  336MOL0     C45263   5.892  10.272   9.596 -0.5081  0.5713 -1.1751
  336MOL0     C45264   5.934  10.393   9.679 -0.4171 -0.6718 -0.2779
  336MOL0     C45265   5.876  10.515   9.621 -0.1914 -0.4598  0.8170
  336MOL0     C45266   5.888  10.639   9.707  0.0393 -0.2258  0.5331
  336MOL0     C45267   5.892  10.761   9.625 -0.7843  0.4137  0.3835
  336MOL0     C45268   5.877  10.887   9.717  1.1894  0.0141 -0.7581
  336MOL0     C45269   5.834  11.004   9.645  0.4032  0.6602  0.4815
  336MOL0    Cl45270   5.977  11.058   9.546  0.4094 -0.2437  0.4408
  336MOL0     C45271   6.030   9.906   9.831 -0.9546 -0.0736 -1.1119
  336MOL0     C45272   6.043   9.772   9.850 -0.0439 -1.0118 -0.4872
  336MOL0     O45273   5.854   9.611  10.127  0.4990  0.1025 -0.5231
  336MOL0     C45274   5.948   9.304   9.990 -0.4631  0.6375  0.2548
  336MOL0     C45275   5.955   9.166  10.012 -0.2386 -0.2076  0.0379
  336MOL0     N45276   5.525   9.074  10.315  1.0198  0.2388  0.1329
  336MOL0     N45277   5.497   9.196  10.277 -0.8357  1.0264 -0.4119
  336MOL0     C45278   5.408  10.059   9.266 -1.2339 -0.2736 -0.4852
  336MOL0     C45279   5.346  10.176   9.295 -0.6497 -0.1849 -0.3195
  336MOL0     C45280   5.049  10.433   9.540  0.1911 -0.1136 -0.4355
  336MOL0     C45281   5.091  10.558   9.483 -0.8304 -0.7777 -0.6931
  336MOL0     C45282   5.064  10.682   9.546  0.7808 -1.2715 -0.6790
  336MOL0     C45283   5.014  10.682   9.677 -0.1454  0.6013 -0.1353
  336MOL0     O45284   5.003  10.790   9.759 -0.1627 -0.5011 -0.6806
  336MOL0     C45285   5.039  10.918   9.709 -0.7259  0.3413  0.1458
  336MOL0     C45286   4.979  11.025   9.808  0.2052  0.9519 -0.7029
  336MOL0     C45287   4.823  11.012   9.813  0.9032 -0.2673  0.0856
  336MOL0     C45288   4.784  10.945   9.943 -1.1646  0.6645 -0.2664
  336MOL0     C45289   4.648  10.971   9.988  0.0993  0.2601 -0.0385
  336MOL0     C45290   4.540  10.990  10.039 -0.5266  0.9363  0.1629
  336MOL0     C45291   4.965  10.567   9.718  0.4518 -0.6046  0.0219
  336MOL0     C45292   4.963  10.444   9.656  0.2564 -0.6907  0.2741
  336MOL0     H45293   5.046  10.030   9.374 -0.0149 -2.3473  1.8824
  336MOL0     H45294   5.173   9.832   9.367  1.4907 -0.8011  0.9538
  336MOL0     H45295   5.361   9.637   9.332 -0.3678  1.4492 -1.5727
  336MOL0     H45296   5.539   9.652   9.303  1.8596  0.8372  2.4820
  336MOL0     H45297   5.540   9.822   9.487 -0.6159  0.1206 -3.6324
  336MOL0     H45298   5.387   9.749   9.543  0.3620 -1.9683  3.0155
  336MOL0     H45299   5.622   9.565   9.528  1.5418  0.9666  2.4752
  336MOL0     H45300   5.570   9.653   9.675 -2.4069 -1.8550  2.6717
  336MOL0     H45301   5.336   9.566   9.647  1.0967  2.3233 -1.0457
  336MOL0     H45302   5.388   9.469   9.506 -0.6076  1.9353 -0.8074
  336MOL0     H45303   5.366   9.323   9.673  0.1794  0.3063 -1.5188
  336MOL0     H45304   5.543   9.356   9.651  0.9737 -1.8873  1.1064
  336MOL0     H45305   5.567   9.494   9.835 -0.6562  0.5999  1.0328
  336MOL0     H45306   5.397   9.483   9.876 -0.3341 -0.3135  0.4536
  336MOL0     H45307   5.436   9.224   9.898 -1.2527  0.0863  2.2508
  336MOL0     H45308   5.615   9.266   9.901  0.4542  0.2120  1.6840
  336MOL0     H45309   5.377   9.371  10.078 -0.6836 -1.3599  2.1508
  336MOL0     H45310   5.540   9.410  10.109  0.4749 -0.9573  0.5300
  336MOL0     H45311   5.520   9.040   9.993  1.0444 -1.7504  1.1387
  336MOL0     H45312   5.557   8.794  10.289  0.6229  0.9832  0.7719
  336MOL0     H45313   5.447   8.812  10.161 -0.1247  1.0871  1.2417
  336MOL0     H45314   5.677   8.865  10.010  1.3283  1.8115  2.3527
  336MOL0     H45315   5.608   8.710  10.037  2.0311  1.1260 -2.3727
  336MOL0     H45316   5.852   8.710  10.113 -0.0672  0.5898 -0.7708
  336MOL0     H45317   5.764   8.686  10.251  2.0126 -2.9187 -2.3650
  336MOL0     H45318   5.908   8.858  10.305  0.1985 -0.2858 -0.2714
  336MOL0     H45319   5.767   8.954  10.286  2.3545  0.0179  1.8063
  336MOL0     H45320   5.849   9.164  10.331  1.9910 -1.2899  0.4426
  336MOL0     H45321   5.840   9.385  10.434 -1.3033  2.0167  1.7986
  336MOL0     H45322   5.900   9.514  10.341 -1.4840  0.8430  2.6168
  336MOL0     H45323   5.733   9.452  10.322 -0.2993 -1.2202  2.4851
  336MOL0     H45324   5.717   9.710   9.917 -2.0416  3.6900 -2.8823
  336MOL0     H45325   5.701   9.960   9.857  1.2238  1.3854  0.7665
  336MOL0     H45326   6.055  10.156   9.645  1.2023 -1.3198 -2.9716
  336MOL0     H45327   5.938  10.064   9.567 -1.1361  1.5581 -0.2341
  336MOL0     H45328   5.921  10.297   9.494  0.3032 -0.2791 -1.1572
  336MOL0     H45329   5.783  10.262   9.606 -0.4283  0.7166  0.0847
  336MOL0     H45330   6.041  10.412   9.665 -0.8118  1.6209 -0.5909
  336MOL0     H45331   5.920  10.389   9.787  1.4999 -1.4174 -0.0175
  336MOL0     H45332   5.935  10.529   9.529 -0.3792 -1.2368  0.5757
  336MOL0     H45333   5.771  10.493   9.600 -0.0789  0.4416 -0.9583
  336MOL0     H45334   5.983  10.634   9.763  0.6388  2.8791 -0.0147
  336MOL0     H45335   5.804  10.642   9.777 -1.1128 -0.0349 -0.8325
  336MOL0     H45336   5.989  10.759   9.575 -0.5015  1.5805  0.8446
  336MOL0     H45337   5.813  10.766   9.551 -0.1863 -3.7255 -0.7438
  336MOL0     H45338   5.965  10.912   9.777 -0.5771 -0.2571  2.1240
  336MOL0     H45339   5.800  10.863   9.790  2.2555  1.2651  0.8636
  336MOL0     H45340   5.801  11.078   9.718 -0.7605  0.1655  0.4743
  336MOL0     H45341   5.750  10.981   9.579 -0.0353  2.5070  0.3544
  336MOL0     H45342   6.118   9.968   9.820 -0.5141 -0.8106 -1.8263
  336MOL0     H45343   6.137   9.718   9.845 -0.1035 -1.0908 -0.7569
  336MOL0     H45344   5.983   9.333   9.891 -0.1132 -0.0116  0.1838
  336MOL0     H45345   6.002   9.108   9.933  0.4575 -0.6114  0.7491
  336MOL0     H45346   5.516  10.060   9.252 -1.4314  2.6182 -2.7659
  336MOL0     H45347   5.410  10.264   9.294  0.4006 -0.9357 -0.6258
  336MOL0     H45348   5.147  10.557   9.390 -2.2371  0.1424 -1.6040
  336MOL0     H45349   5.093  10.775   9.498  2.0537 -1.3489 -0.1045
  336MOL0     H45350   5.148  10.929   9.707 -0.5899 -0.7428  1.0370
  336MOL0     H45351   4.997  10.919   9.608  1.2789 -2.2449 -0.8216
  336MOL0     H45352   4.998  11.127   9.773  0.0803  1.4947  0.7622
  336MOL0     H45353   5.020  11.010   9.908 -0.9403  0.2161 -0.3216
  336MOL0     H45354   4.783  10.964   9.723  1.6053  2.6630 -1.9365
  336MOL0     H45355   4.777  11.111   9.802  0.1754 -0.6922 -0.7747
  336MOL0     H45356   4.841  10.984  10.028 -0.3747 -0.1967 -0.3875
  336MOL0     H45357   4.794  10.837   9.931 -2.3481  0.3656  1.1483
  336MOL0     H45358   4.444  11.018  10.076 -0.0995  2.1440  0.4029
  336MOL0     H45359   4.912  10.574   9.813 -0.1517  2.2629 -0.4357
  336MOL0     H45360   4.919  10.350   9.690  1.3699 -2.5535 -2.9879
  337MOL0     O45361   8.882   6.478   4.385  0.3093  0.6344  0.3007
  337MOL0     C45362   8.807   6.386   4.344 -0.8376 -0.1924  0.3814
  337MOL0     O45363   8.721   6.390   4.233 -0.2022 -0.1783  0.7126
  337MOL0     C45364   8.728   6.494   4.146 -0.1653 -0.3213  0.5786
  337MOL0     C45365   8.853   6.563   4.119  0.4536 -0.3014 -0.4978
  337MOL0     C45366   8.864   6.652   4.014 -0.2437  0.0314  0.2295
  337MOL0     C45367   8.758   6.686   3.930 -0.1943  0.0352  0.1417
  337MOL0     O45368   8.800   6.771   3.824  0.1537  0.5723 -0.0352
  337MOL0     C45369   8.712   6.804   3.710 -0.2249 -0.1836 -0.1855
  337MOL0     C45370   8.805   6.854   3.599  0.3304  0.7159  0.6653
  337MOL0     C45371   8.723   6.872   3.467  0.4886  1.0106  0.4097
  337MOL0     C45372   8.586   6.951   3.478 -0.4068 -0.6318 -0.0927
  337MOL0     C45373   8.611   7.099   3.539  0.9733 -0.2422  0.4987
  337MOL0     C45374   8.476   7.163   3.548  0.3510  0.0293  0.2578
  337MOL0     C45375   8.374   7.087   3.622 -0.9659  0.8051  0.3533
  337MOL0     C45376   8.275   7.181   3.702 -0.0785 -0.4150 -0.1256
  337MOL0     N45377   8.187   7.260   3.618  0.0317  0.1748  0.5387
  337MOL0     C45378   8.147   7.390   3.656 -0.3342  0.6143  0.3068
  337MOL0     C45379   8.051   7.442   3.574 -1.0622  0.7389 -0.6732
  337MOL0     C45380   7.994   7.572   3.558  0.5376 -1.4430  0.4482
  337MOL0     C45381   8.101   7.677   3.529  0.3657  0.2754 -0.2863
  337MOL0     C45382   8.170   7.648   3.398 -0.5371 -0.1457  0.3579
  337MOL0     C45383   8.271   7.757   3.342  0.4625  0.4200 -0.1627
  337MOL0     O45384   8.300   7.847   3.452  0.4599 -0.6423  0.0882
  337MOL0     C45385   8.353   7.970   3.416  0.2957 -0.3694  0.2427
  337MOL0     C45386   8.334   8.081   3.508  0.4208 -0.4555  0.0131
  337MOL0     C45387   8.376   8.205   3.488 -0.1944 -0.5177 -0.4207
  337MOL0     C45388   8.356   8.311   3.597 -0.4363 -1.0338 -0.3977
  337MOL0     C45389   8.461   8.237   3.374  0.5542  0.9067  0.2732
  337MOL0     C45390   8.535   8.367   3.340 -0.5628 -0.9612  0.3195
  337MOL0     O45391   8.620   8.356   3.228 -0.2507 -0.2537  0.3929
  337MOL0     C45392   8.689   8.467   3.211 -0.2577  0.5368  0.1854
  337MOL0     C45393   8.803   8.491   3.283 -1.6356 -0.3304 -0.3949
  337MOL0     C45394   8.888   8.601   3.255 -0.7031 -0.1898 -0.1199
  337MOL0     C45395   8.851   8.703   3.174  0.6663  0.1756  0.0653
  337MOL0     O45396   8.915   8.819   3.167 -0.5670  0.0726  0.1261
  337MOL0     C45397   8.847   8.927   3.231 -0.3456  0.1159 -0.3934
  337MOL0     C45398   8.921   9.051   3.188 -0.4710  0.2174  0.3448
  337MOL0     C45399   8.886   9.173   3.275  0.2490 -0.3348  0.3179
  337MOL0     C45400   8.961   9.289   3.206 -1.4608 -0.0437 -0.2359
  337MOL0     C45401   8.950   9.425   3.280  0.6585  0.1230 -0.3142
  337MOL0     C45402   8.990   9.532   3.177 -0.4140 -0.6694 -0.4361
  337MOL0     C45403   9.123   9.606   3.224 -0.3384 -0.1775 -0.0745
  337MOL0     C45404   9.200   9.654   3.103 -0.6951  0.3550 -0.4938
  337MOL0    Cl45405   9.096   9.746   2.999  0.1002  0.4063 -0.7119
  337MOL0     C45406   8.733   8.684   3.098  0.2020 -0.4888 -0.3950
  337MOL0     C45407   8.665   8.559   3.111 -0.6957 -0.3976  0.5919
  337MOL0     O45408   8.520   8.473   3.408 -0.7911  0.3200  0.3940
  337MOL0     C45409   8.481   8.131   3.280  1.2812 -0.5718 -0.1401
  337MOL0     C45410   8.422   8.003   3.296  0.2900  0.1531 -0.5277
  337MOL0     N45411   8.043   7.340   3.477  0.4349  0.7292 -1.1295
  337MOL0     N45412   8.115   7.228   3.503 -0.4918 -0.0704 -0.2876
  337MOL0     C45413   8.643   6.610   3.937  0.4165 -0.0112 -0.4307
  337MOL0     C45414   8.627   6.517   4.043  0.0243 -0.2230  0.3703
  337MOL0     C45415   8.829   6.260   4.402 -0.6918  0.6292  0.0383
  337MOL0     C45416   8.926   6.240   4.498 -0.2696 -0.1612 -0.3651
  337MOL0     C45417   8.959   6.108   4.544 -0.0176  0.7093 -0.7141
  337MOL0     C45418   8.887   6.000   4.493 -0.7001 -0.8073 -0.0965
  337MOL0     O45419   8.892   5.870   4.530 -0.6284 -0.8379 -0.2602
  337MOL0     C45420   8.977   5.833   4.642 -0.4598  0.4810  0.6742
  337MOL0     C45421   9.117   5.807   4.583  0.1185 -0.0365  0.2818
  337MOL0     C45422   9.222   5.816   4.693  0.4236  0.0501 -0.4443
  337MOL0     C45423   9.367   5.775   4.648  0.4985 -0.6675 -0.3387
  337MOL0     C45424   9.436   5.855   4.543  0.0254  0.5798  0.2231
  337MOL0     C45425   9.488   5.909   4.453 -1.0621 -0.6064  0.5300
  337MOL0     C45426   8.794   6.022   4.398 -0.5205 -0.6262 -0.4946
  337MOL0     C45427   8.760   6.143   4.342 -0.3662 -0.5799 -0.1332
  337MOL0     H45428   8.946   6.546   4.173 -0.2378 -1.1036  0.4965
  337MOL0     H45429   8.966   6.687   4.002  1.2503 -4.0022 -0.6135
  337MOL0     H45430   8.659   6.719   3.665 -0.4213  1.8074 -4.1333
  337MOL0     H45431   8.638   6.877   3.744  0.8702  0.2300  1.4294
  337MOL0     H45432   8.855   6.941   3.643  2.9360 -0.1231 -0.4242
  337MOL0     H45433   8.888   6.783   3.590 -1.7833 -1.9164  0.4293
  337MOL0     H45434   8.789   6.932   3.404 -0.9118  1.2020 -0.9314
  337MOL0     H45435   8.722   6.771   3.425  0.7073  1.0152  0.3898
  337MOL0     H45436   8.541   6.955   3.379 -0.5461  0.4906  0.0112
  337MOL0     H45437   8.520   6.896   3.546 -1.8701  0.8539 -0.2515
  337MOL0     H45438   8.655   7.091   3.639 -0.1297  2.4690  1.2860
  337MOL0     H45439   8.683   7.156   3.480  4.3736 -3.9604  0.6232
  337MOL0     H45440   8.482   7.264   3.588 -0.1804  1.7886 -3.6647
  337MOL0     H45441   8.435   7.188   3.450  0.2582 -0.3780  0.1910
  337MOL0     H45442   8.322   7.025   3.548 -1.4081 -1.3194  2.3102
  337MOL0     H45443   8.421   7.023   3.697  1.3172  0.9821 -0.8584
  337MOL0     H45444   8.332   7.258   3.754 -1.8086  0.1146  1.1128
  337MOL0     H45445   8.217   7.122   3.774  0.5230 -3.5096 -1.9682
  337MOL0     H45446   8.199   7.452   3.728  1.4220  0.9847 -1.2040
  337MOL0     H45447   7.915   7.577   3.483  0.6795  2.7537  0.3400
  337MOL0     H45448   7.942   7.596   3.651  2.5023  1.9471  0.8441
  337MOL0     H45449   8.170   7.662   3.613 -1.5761 -0.3985  1.2735
  337MOL0     H45450   8.056   7.776   3.519  1.0525  0.3809 -3.2284
  337MOL0     H45451   8.093   7.635   3.321 -0.3427 -0.6813  0.2525
  337MOL0     H45452   8.224   7.553   3.401 -1.1176 -0.4707  1.0628
  337MOL0     H45453   8.225   7.798   3.251  0.9548 -1.5946 -1.3963
  337MOL0     H45454   8.363   7.704   3.316 -0.4260 -0.4474 -1.7439
  337MOL0     H45455   8.278   8.071   3.601 -0.2246  0.9023 -0.2010
  337MOL0     H45456   8.311   8.401   3.553 -1.3480 -0.1890  2.1245
  337MOL0     H45457   8.287   8.270   3.671 -2.7570 -3.3630 -3.5708
  337MOL0     H45458   8.455   8.333   3.637 -0.6333 -2.1756  0.7686
  337MOL0     H45459   8.830   8.411   3.350  1.8171  0.5099 -0.5921
  337MOL0     H45460   8.983   8.612   3.307 -1.7761 -1.7636  2.3883
  337MOL0     H45461   8.742   8.920   3.201  0.5278 -2.3179 -3.2802
  337MOL0     H45462   8.852   8.917   3.340 -1.6251  1.2668 -0.2069
  337MOL0     H45463   9.028   9.040   3.206  0.2723  4.0852 -0.7762
  337MOL0     H45464   8.914   9.073   3.081  2.3476  1.0487  0.2683
  337MOL0     H45465   8.913   9.158   3.379 -0.5182 -0.8523  0.4470
  337MOL0     H45466   8.782   9.204   3.273  0.1005 -0.3166  3.5043
  337MOL0     H45467   9.064   9.259   3.186 -0.7760  2.0346 -0.0330
  337MOL0     H45468   8.929   9.300   3.102 -0.0578 -1.7487 -0.9020
  337MOL0     H45469   9.012   9.432   3.370 -1.3469 -0.8237  1.2165
  337MOL0     H45470   8.846   9.443   3.309  1.7470  4.0309  1.7674
  337MOL0     H45471   9.007   9.482   3.081  2.8468 -1.3422  0.3883
  337MOL0     H45472   8.908   9.603   3.160  1.3686  1.3123 -1.3130
  337MOL0     H45473   9.187   9.533   3.275 -1.0332 -1.1517 -0.5632
  337MOL0     H45474   9.094   9.687   3.292 -3.0766 -2.4389  1.6803
  337MOL0     H45475   9.221   9.565   3.043 -1.9722 -1.1464  1.1966
  337MOL0     H45476   9.290   9.706   3.138  0.9966 -3.0217  0.5880
  337MOL0     H45477   8.691   8.760   3.032  0.4677  0.0392  0.0431
  337MOL0     H45478   8.589   8.537   3.036  2.6465  1.1911 -3.6888
  337MOL0     H45479   8.545   8.133   3.192  1.0327 -2.9283 -0.4295
  337MOL0     H45480   8.449   7.941   3.211 -0.4041 -2.1409  0.8464
  337MOL0     H45481   8.560   6.615   3.867  1.8025 -2.1105 -2.3632
  337MOL0     H45482   8.528   6.474   4.055 -2.3516  4.9379  1.9991
  337MOL0     H45483   8.976   6.326   4.541 -0.1703  0.4597 -1.6725
  337MOL0     H45484   9.053   6.111   4.598  1.5151  4.0779 -3.2620
  337MOL0     H45485   8.998   5.908   4.720  3.4480  0.7324 -0.4034
  337MOL0     H45486   8.931   5.757   4.706 -1.7187  1.5135  1.0309
  337MOL0     H45487   9.144   5.879   4.505  1.3080 -2.2470 -1.4724
  337MOL0     H45488   9.118   5.708   4.537 -1.1577 -0.1177  0.3891
  337MOL0     H45489   9.198   5.754   4.780  1.6325 -0.0829 -0.1783
  337MOL0     H45490   9.221   5.916   4.739  2.4521 -1.2637  2.8007
  337MOL0     H45491   9.381   5.673   4.611 -0.7455 -0.9710 -0.0424
  337MOL0     H45492   9.426   5.785   4.739 -0.8198 -1.4009  0.6482
  337MOL0     H45493   9.530   5.958   4.367 -0.4440 -0.6365  0.8088
  337MOL0     H45494   8.743   5.934   4.359  0.5150 -0.5862 -2.0010
  337MOL0     H45495   8.698   6.156   4.254  0.0653 -1.1069 -0.5282
  338MOL0     O45496   9.350   6.707  10.393 -1.4257 -0.5291 -0.2861
  338MOL0     C45497   9.375   6.758  10.502  0.0525 -1.2685 -0.4908
  338MOL0     O45498   9.308   6.728  10.617  0.0817  0.0363  1.0327
  338MOL0     C45499   9.192   6.663  10.615  0.6124  0.0881 -0.2517
  338MOL0     C45500   9.160   6.577  10.719 -0.9207 -0.0725  0.8697
  338MOL0     C45501   9.033   6.516  10.738  0.5651 -0.5807  0.4273
  338MOL0     C45502   8.934   6.528  10.636 -0.4747  1.1899  0.0042
  338MOL0     O45503   8.829   6.453  10.659  0.2658  0.2483 -0.0876
  338MOL0     C45504   8.742   6.407  10.554 -0.6636 -0.0234  0.4625
  338MOL0     C45505   8.600   6.393  10.609  0.7460  0.3250  0.2686
  338MOL0     C45506   8.524   6.522  10.613  0.3386 -0.3486  0.4054
  338MOL0     C45507   8.383   6.480  10.655  0.0654 -0.1695  0.5063
  338MOL0     C45508   8.297   6.608  10.689 -0.0147 -0.0041  1.5603
  338MOL0     C45509   8.174   6.569  10.766  0.0964  0.6955  0.0904
  338MOL0     C45510   8.104   6.692  10.834  1.1082  0.0554 -0.4614
  338MOL0     C45511   8.174   6.724  10.977  0.4733 -0.1846  0.2778
  338MOL0     N45512   8.082   6.667  11.075 -0.5041  0.1786 -0.8474
  338MOL0     C45513   7.990   6.753  11.120 -0.3667 -0.0603  0.6502
  338MOL0     C45514   7.895   6.682  11.180 -0.4874  1.0498 -0.0795
  338MOL0     C45515   7.779   6.726  11.261 -0.0162  1.0347  0.0842
  338MOL0     C45516   7.654   6.759  11.174 -0.2711 -0.2316  0.2547
  338MOL0     C45517   7.529   6.790  11.269 -0.0369 -0.4841 -0.5394
  338MOL0     C45518   7.408   6.822  11.184 -0.1562  0.1585 -0.1496
  338MOL0     O45519   7.336   6.940  11.225 -0.7406 -0.0587 -0.5700
  338MOL0     C45520   7.246   6.941  11.327  0.0219 -0.5163  0.0270
  338MOL0     C45521   7.231   6.839  11.418  0.3313 -0.2784 -0.2932
  338MOL0     C45522   7.142   6.859  11.539  0.2393  0.5559 -1.3495
  338MOL0     C45523   7.114   6.734  11.620  0.4722 -0.1529  0.8134
  338MOL0     C45524   7.090   6.986  11.573 -0.3261  0.1589  1.0990
  338MOL0     C45525   7.042   7.019  11.710  0.1040  0.4092  0.2195
  338MOL0     O45526   7.020   7.151  11.729  0.5449 -0.3754  0.2459
  338MOL0     C45527   7.013   7.195  11.860 -0.2777 -0.1064  0.5018
  338MOL0     C45528   6.886   7.197  11.921  1.3153  0.5150 -0.9146
  338MOL0     C45529   6.869   7.245  12.053 -0.3470  0.2244 -0.4880
  338MOL0     C45530   6.973   7.315  12.116  1.2494 -0.4404 -0.0184
  338MOL0     O45531   6.968   7.377  12.238 -0.0506  0.6945  0.3320
  338MOL0     C45532   6.847   7.344  12.305  1.0512 -0.2906 -0.0103
  338MOL0     C45533   6.842   7.408  12.452 -0.8130  0.4695 -0.7747
  338MOL0     C45534   6.953   7.338  12.539  0.4668  0.1082  0.7614
  338MOL0     C45535   6.977   7.422  12.670 -0.5303  0.6028  0.5716
  338MOL0     C45536   7.119   7.430  12.698  0.2879 -1.2612  0.2057
  338MOL0     C45537   7.140   7.461  12.847 -0.1721  0.9625  0.3590
  338MOL0     C45538   7.287   7.439  12.891 -0.5225  0.2390  0.7640
  338MOL0     C45539   7.297   7.426  13.039 -0.7312 -0.1445  0.0788
  338MOL0    Cl45540   7.276   7.582  13.140  0.0182  0.4791  0.0251
  338MOL0     C45541   7.097   7.321  12.041 -0.2167 -0.5205 -0.6368
  338MOL0     C45542   7.120   7.274  11.913 -0.1354  0.2377  0.1812
  338MOL0     O45543   7.042   6.927  11.801  0.2259  0.1905  0.5781
  338MOL0     C45544   7.110   7.089  11.475  0.9376 -0.0050 -0.1542
  338MOL0     C45545   7.184   7.063  11.361  0.0378  0.1450  0.3798
  338MOL0     N45546   7.933   6.551  11.169  0.6774  0.5683  0.0630
  338MOL0     N45547   8.044   6.538  11.106  0.6207 -0.7646 -0.1400
  338MOL0     C45548   8.965   6.616  10.527 -0.0408 -0.7295  0.4632
  338MOL0     C45549   9.089   6.683  10.516 -0.4629 -0.6672  0.6008
  338MOL0     C45550   9.483   6.862  10.519 -0.1553  0.5750 -0.6174
  338MOL0     C45551   9.518   6.928  10.642 -0.0191  0.1546  0.3929
  338MOL0     C45552   9.625   7.012  10.650  0.4724  0.0451  0.3194
  338MOL0     C45553   9.697   7.048  10.543  0.5414  0.3704  0.4037
  338MOL0     O45554   9.787   7.149  10.566  0.1513  0.3588  0.0429
  338MOL0     C45555   9.842   7.231  10.461 -0.1575  0.2592  0.1573
  338MOL0     C45556   9.981   7.285  10.496  0.2776  0.0057 -0.0212
  338MOL0     C45557  10.065   7.193  10.598  0.3242  0.6109  0.6348
  338MOL0     C45558  10.200   7.245  10.635 -1.4862  0.4502 -0.1353
  338MOL0     C45559  10.260   7.193  10.755  0.9022  0.3210 -1.0230
  338MOL0     C45560  10.300   7.176  10.870  0.2022  0.0228 -0.2731
  338MOL0     C45561   9.667   6.991  10.419  0.3468  0.4648 -0.1551
  338MOL0     C45562   9.570   6.889  10.417 -0.0399  0.1706  0.4503
  338MOL0     H45563   9.234   6.586  10.798 -1.2885 -0.9208  1.3186
  338MOL0     H45564   9.008   6.444  10.815 -1.1847 -1.5852 -0.9857
  338MOL0     H45565   8.743   6.472  10.466 -2.0566  0.9435  1.1157
  338MOL0     H45566   8.785   6.313  10.520  4.4243  1.7340  1.2048
  338MOL0     H45567   8.542   6.341  10.532  2.9024  2.0603 -2.7669
  338MOL0     H45568   8.588   6.327  10.695 -1.9871 -0.9836 -0.9971
  338MOL0     H45569   8.581   6.590  10.677  1.0634 -0.3593 -0.1998
  338MOL0     H45570   8.512   6.555  10.509 -2.7883 -2.7043 -0.1243
  338MOL0     H45571   8.330   6.416  10.584 -0.7986  2.5483 -1.4560
  338MOL0     H45572   8.391   6.412  10.741  2.0273 -2.1815 -1.1606
  338MOL0     H45573   8.358   6.681  10.742  1.8608  0.0342 -0.4931
  338MOL0     H45574   8.274   6.660  10.596  0.9931  1.5018  2.1243
  338MOL0     H45575   8.101   6.521  10.700  0.8714  0.3254 -0.5243
  338MOL0     H45576   8.200   6.495  10.842  4.5608  1.3723 -0.4864
  338MOL0     H45577   8.125   6.777  10.769  2.2212  1.4894  1.6478
  338MOL0     H45578   8.002   6.670  10.866  1.8920 -1.0171  1.4498
  338MOL0     H45579   8.192   6.831  10.996  1.1999 -0.7608  3.2550
  338MOL0     H45580   8.265   6.663  10.973  0.4810 -0.1087 -1.3396
  338MOL0     H45581   7.987   6.861  11.109 -2.9544  0.1624  2.4020
  338MOL0     H45582   7.747   6.652  11.335 -2.2375  0.0808 -1.7041
  338MOL0     H45583   7.814   6.813  11.318  2.9996 -0.2037  0.2850
  338MOL0     H45584   7.625   6.669  11.118 -0.5981  0.4627 -0.7290
  338MOL0     H45585   7.670   6.845  11.108  1.4079  0.0519  0.9763
  338MOL0     H45586   7.543   6.881  11.328  1.8524 -0.3012 -1.2033
  338MOL0     H45587   7.515   6.706  11.337  0.6377 -3.5786 -3.9056
  338MOL0     H45588   7.338   6.737  11.183 -0.4836  0.2605  3.3561
  338MOL0     H45589   7.446   6.841  11.083  0.2981  0.0285 -0.0006
  338MOL0     H45590   7.277   6.742  11.408  0.8335 -0.3905  2.3444
  338MOL0     H45591   7.144   6.650  11.557  0.6384  2.0215 -2.2200
  338MOL0     H45592   7.171   6.725  11.713  1.5427 -2.8344  0.0061
  338MOL0     H45593   7.005   6.725  11.634  0.4176  0.6976  1.0141
  338MOL0     H45594   6.802   7.154  11.866  0.5966  0.9142 -0.1447
  338MOL0     H45595   6.769   7.238  12.094 -0.3164  2.0836 -0.0032
  338MOL0     H45596   6.756   7.371  12.250  1.1222 -2.3957 -1.2999
  338MOL0     H45597   6.832   7.236  12.315 -4.7743 -0.0601 -2.4468
  338MOL0     H45598   6.879   7.510  12.439  1.0742 -0.1974 -0.9168
  338MOL0     H45599   6.749   7.398  12.509  0.0472 -1.5011  0.4192
  338MOL0     H45600   7.040   7.329  12.473  0.5949 -2.5330  1.1664
  338MOL0     H45601   6.923   7.242  12.583  0.5513  1.1031  3.1255
  338MOL0     H45602   6.933   7.522  12.663 -1.3706  0.2278  0.4334
  338MOL0     H45603   6.932   7.366  12.753 -0.6585 -1.5629 -0.8876
  338MOL0     H45604   7.160   7.508  12.633 -0.8959 -1.4625 -0.8125
  338MOL0     H45605   7.148   7.326  12.677 -1.6869 -1.7819 -0.1267
  338MOL0     H45606   7.116   7.565  12.873  3.8301  2.1461  0.0076
  338MOL0     H45607   7.086   7.395  12.915 -0.0759  1.2634  0.7341
  338MOL0     H45608   7.351   7.522  12.859 -0.6401  0.0372 -0.0142
  338MOL0     H45609   7.323   7.346  12.846  0.3152  1.4422 -1.1897
  338MOL0     H45610   7.395   7.382  13.058  0.7985  1.5885 -3.0569
  338MOL0     H45611   7.223   7.356  13.080 -1.4210  1.2089  1.2623
  338MOL0     H45612   7.168   7.376  12.102  1.3342 -2.0612 -0.9755
  338MOL0     H45613   7.207   7.293  11.851 -0.4844 -1.9733 -1.1236
  338MOL0     H45614   7.067   7.187  11.492 -0.2207 -0.7503  1.5472
  338MOL0     H45615   7.194   7.148  11.294  0.3729  1.5059  2.0902
  338MOL0     H45616   8.885   6.642  10.458 -0.6021 -2.8289  0.2664
  338MOL0     H45617   9.108   6.753  10.436  0.9768  0.5433  1.9207
  338MOL0     H45618   9.456   6.906  10.728  0.6198 -2.0217  0.3720
  338MOL0     H45619   9.650   7.052  10.748 -1.8030 -1.2939  1.5142
  338MOL0     H45620   9.853   7.177  10.366 -0.9626 -4.0517  2.2704
  338MOL0     H45621   9.789   7.324  10.438  0.3192  0.4311 -0.2905
  338MOL0     H45622   9.958   7.384  10.537 -2.2885  0.9020 -3.2526
  338MOL0     H45623  10.041   7.297  10.405  1.3131  1.1868  0.7803
  338MOL0     H45624  10.074   7.093  10.554  0.4251  0.8427  0.1245
  338MOL0     H45625  10.025   7.194  10.700  0.3220 -0.8000  0.6691
  338MOL0     H45626  10.199   7.354  10.649 -1.5494  0.2017  2.1696
  338MOL0     H45627  10.268   7.229  10.551  0.9944 -0.5156  1.9408
  338MOL0     H45628  10.328   7.150  10.970 -0.7845 -1.4273 -0.3455
  338MOL0     H45629   9.717   7.015  10.326  0.4487  1.1270  0.0604
  338MOL0     H45630   9.539   6.855  10.319  0.3575  1.7260 -0.2399
  339MOL0     O45631   4.723  10.254   3.362  0.3322  0.8406 -0.7395
  339MOL0     C45632   4.832  10.195   3.363  0.3114  0.0131  0.5360
  339MOL0     O45633   4.862  10.090   3.276 -0.4038 -0.0817  0.0715
  339MOL0     C45634   4.809  10.087   3.154  1.2177  0.1720 -0.4905
  339MOL0     C45635   4.670  10.054   3.143  0.0781 -0.1453 -0.6699
  339MOL0     C45636   4.602  10.048   3.021  0.6108  0.1963 -0.2370
  339MOL0     C45637   4.679  10.078   2.902 -0.0004  1.4346 -0.1814
  339MOL0     O45638   4.634  10.069   2.774  0.6287  0.9020 -0.3793
  339MOL0     C45639   4.494  10.020   2.760 -0.4043 -0.8902 -0.3844
  339MOL0     C45640   4.445  10.012   2.617 -0.2642  0.2124 -0.5042
  339MOL0     C45641   4.326   9.918   2.595 -0.8637  0.0757 -0.4302
  339MOL0     C45642   4.190   9.990   2.575  0.2047  0.2611  0.5824
  339MOL0     C45643   4.194  10.070   2.439 -0.7850 -0.0962 -0.1821
  339MOL0     C45644   4.187   9.980   2.317  0.6527 -0.2069 -0.2541
  339MOL0     C45645   4.136  10.046   2.193 -0.3486 -1.1977 -0.7170
  339MOL0     C45646   4.121   9.944   2.079 -1.8787  0.8987  0.5057
  339MOL0     N45647   4.240   9.885   2.025  0.9820 -0.2801 -0.2857
  339MOL0     C45648   4.365   9.949   2.006  0.1258 -0.2053 -0.3634
  339MOL0     C45649   4.434   9.862   1.928  0.5741  0.2254 -0.0406
  339MOL0     C45650   4.571   9.874   1.878 -1.0325 -0.0262 -0.6312
  339MOL0     C45651   4.670   9.878   1.996 -0.4602 -0.7833  0.8449
  339MOL0     C45652   4.708   9.733   2.032 -0.0794  0.2263  0.3349
  339MOL0     C45653   4.803   9.722   2.151  0.1343  0.8811 -0.9918
  339MOL0     O45654   4.768   9.825   2.253 -0.1524  0.4739 -1.1193
  339MOL0     C45655   4.860   9.827   2.354  0.4911 -0.5344 -0.2314
  339MOL0     C45656   4.995   9.863   2.322  0.2865  1.0747 -0.6226
  339MOL0     C45657   5.099   9.868   2.419  0.8519 -0.8655  0.1021
  339MOL0     C45658   5.233   9.908   2.356  0.6593  0.2120  0.2308
  339MOL0     C45659   5.064   9.853   2.550  0.2586 -0.7455 -0.9242
  339MOL0     C45660   5.168   9.824   2.650  0.9152 -0.7740 -0.0550
  339MOL0     O45661   5.115   9.816   2.781 -0.0014 -0.1382 -0.8057
  339MOL0     C45662   5.196   9.820   2.887  0.3198  0.0058 -0.5089
  339MOL0     C45663   5.245   9.705   2.941 -0.8579  1.4007 -0.0308
  339MOL0     C45664   5.332   9.719   3.051 -1.3076  0.2372 -0.4530
  339MOL0     C45665   5.343   9.849   3.119 -0.0305 -0.0517  0.0503
  339MOL0     O45666   5.399   9.877   3.243  0.2945  0.9594 -0.6476
  339MOL0     C45667   5.503   9.794   3.284  0.1572  0.2636  0.1139
  339MOL0     C45668   5.572   9.827   3.417 -0.6316 -0.0838  0.4112
  339MOL0     C45669   5.469   9.874   3.526 -0.5755  1.1914  0.0871
  339MOL0     C45670   5.435   9.759   3.621 -0.2451  0.2813  0.0525
  339MOL0     C45671   5.325   9.668   3.566  0.2541 -0.1737  0.0658
  339MOL0     C45672   5.265   9.551   3.654 -0.6545  0.6211  0.1383
  339MOL0     C45673   5.363   9.445   3.708 -0.5944  0.0659  0.4950
  339MOL0     C45674   5.436   9.366   3.599 -0.0584 -0.9309 -0.0422
  339MOL0    Cl45675   5.305   9.273   3.522  0.1778 -0.0252 -0.4053
  339MOL0     C45676   5.283   9.958   3.064  0.2240  0.7637  0.4500
  339MOL0     C45677   5.205   9.942   2.950  0.7012  0.2830  0.2025
  339MOL0     O45678   5.286   9.812   2.625  0.3100  0.3555 -0.3912
  339MOL0     C45679   4.924   9.829   2.585  0.4791 -0.2799 -0.4303
  339MOL0     C45680   4.821   9.822   2.488  0.5063  0.7677 -0.4028
  339MOL0     N45681   4.355   9.755   1.894 -0.6110  0.1703 -1.2054
  339MOL0     N45682   4.245   9.763   1.968  0.2156  0.7124  0.2746
  339MOL0     C45683   4.821  10.101   2.914  0.0268 -0.5795  1.2846
  339MOL0     C45684   4.883  10.100   3.041  0.6174  0.1701  0.2152
  339MOL0     C45685   4.930  10.242   3.466  0.0571 -0.8045 -0.3283
  339MOL0     C45686   4.901  10.336   3.562  0.3136  0.0866 -0.2936
  339MOL0     C45687   5.000  10.363   3.659 -0.3052 -0.0662 -0.7694
  339MOL0     C45688   5.125  10.297   3.671  0.1075 -0.2159  0.5308
  339MOL0     O45689   5.207  10.329   3.775  0.2223 -0.4160 -0.2633
  339MOL0     C45690   5.326  10.258   3.797 -0.1955 -0.3352 -0.3779
  339MOL0     C45691   5.438  10.338   3.741  0.5267  0.1364 -0.5260
  339MOL0     C45692   5.558  10.331   3.837  0.5495  0.6072 -0.6171
  339MOL0     C45693   5.667  10.431   3.804 -0.3116 -0.1999 -0.3603
  339MOL0     C45694   5.798  10.399   3.869  0.2747  0.0719 -0.1405
  339MOL0     C45695   5.907  10.372   3.908 -0.2816 -0.5659 -0.4756
  339MOL0     C45696   5.155  10.195   3.571 -0.2736 -0.9306  0.6163
  339MOL0     C45697   5.059  10.180   3.470 -0.2596  0.3936 -0.1700
  339MOL0     H45698   4.614  10.052   3.236  0.2789 -1.0377 -0.5643
  339MOL0     H45699   4.495  10.033   3.034  0.4768  1.3416  0.0970
  339MOL0     H45700   4.481   9.928   2.817 -2.9495  0.7185  1.8874
  339MOL0     H45701   4.435  10.094   2.815  2.0166 -2.2296  4.4683
  339MOL0     H45702   4.427  10.112   2.575 -2.5919 -0.4179 -1.1635
  339MOL0     H45703   4.528   9.976   2.555 -0.6083  0.5571 -1.1832
  339MOL0     H45704   4.336   9.843   2.516  0.3481 -0.0839 -0.1468
  339MOL0     H45705   4.316   9.859   2.687  0.4787  0.6142  0.0728
  339MOL0     H45706   4.113   9.915   2.591 -1.4430  1.8064  0.2596
  339MOL0     H45707   4.157  10.061   2.652 -2.1883  0.5884 -0.6588
  339MOL0     H45708   4.113  10.143   2.435  1.2106  2.1949 -0.8984
  339MOL0     H45709   4.282  10.133   2.427 -0.2201 -0.9315 -0.5438
  339MOL0     H45710   4.285   9.936   2.296  0.0557 -1.2021 -1.0362
  339MOL0     H45711   4.115   9.908   2.356  0.9166  0.1305  0.9003
  339MOL0     H45712   4.047  10.108   2.210 -2.2564 -4.0413  0.5157
  339MOL0     H45713   4.209  10.120   2.161  2.3989 -3.3037  0.2218
  339MOL0     H45714   4.074   9.995   1.994 -2.5630  0.5641  0.6790
  339MOL0     H45715   4.068   9.854   2.109  0.5048 -1.2223 -1.1614
  339MOL0     H45716   4.408  10.033   2.058 -0.0388 -1.1736  1.4378
  339MOL0     H45717   4.600   9.794   1.809  4.6917 -0.1802  1.4333
  339MOL0     H45718   4.574   9.964   1.815 -3.2078  2.1939  2.1621
  339MOL0     H45719   4.632   9.951   2.068  0.2164  4.1677 -3.2657
  339MOL0     H45720   4.748   9.933   1.942 -2.3821 -0.7074 -2.0622
  339MOL0     H45721   4.753   9.698   1.939 -0.3851  1.2473 -0.2153
  339MOL0     H45722   4.617   9.678   2.057 -0.2426  0.8596  1.1864
  339MOL0     H45723   4.904   9.728   2.111 -0.2744  1.2415 -2.0067
  339MOL0     H45724   4.789   9.622   2.195 -2.2264  1.8933  0.7681
  339MOL0     H45725   5.005   9.898   2.220  0.0587  4.3306  0.3715
  339MOL0     H45726   5.258  10.011   2.380 -1.7561  1.4976 -2.0848
  339MOL0     H45727   5.302   9.835   2.399 -0.3521 -2.0104 -1.6769
  339MOL0     H45728   5.238   9.894   2.247  0.9043  1.0637  0.1251
  339MOL0     H45729   5.249   9.628   2.864  0.6497 -0.4246  1.7618
  339MOL0     H45730   5.390   9.631   3.079 -5.2978 -2.0493  1.6182
  339MOL0     H45731   5.469   9.693   3.308  5.0399 -0.9215  3.6954
  339MOL0     H45732   5.574   9.808   3.201 -1.2764  1.5852 -0.9340
  339MOL0     H45733   5.641   9.748   3.448  2.9829  2.4754 -0.4073
  339MOL0     H45734   5.643   9.909   3.400  0.9740 -1.2269  1.3366
  339MOL0     H45735   5.376   9.914   3.485 -1.0523 -0.8531 -0.9601
  339MOL0     H45736   5.513   9.962   3.573 -2.9670  2.8552 -0.6174
  339MOL0     H45737   5.517   9.687   3.624 -0.3636  0.1876  2.4270
  339MOL0     H45738   5.410   9.799   3.719 -2.8587  2.1785 -1.2632
  339MOL0     H45739   5.357   9.624   3.471 -1.2974 -1.8051  0.2496
  339MOL0     H45740   5.239   9.726   3.531 -1.2502 -0.3714  3.0885
  339MOL0     H45741   5.230   9.594   3.748 -0.6940  0.5829  0.1411
  339MOL0     H45742   5.178   9.507   3.605  0.7290  0.6897 -2.5982
  339MOL0     H45743   5.317   9.379   3.781  3.8706 -2.6843  1.2113
  339MOL0     H45744   5.445   9.489   3.765 -0.9645 -1.0909  1.9699
  339MOL0     H45745   5.515   9.302   3.641  0.5659 -0.8785 -1.1001
  339MOL0     H45746   5.486   9.427   3.523  1.8372 -0.2067  1.6881
  339MOL0     H45747   5.279  10.046   3.126 -0.0789 -0.6162  2.4727
  339MOL0     H45748   5.163  10.030   2.901 -1.1170 -0.8741 -0.3916
  339MOL0     H45749   4.900   9.805   2.688 -2.5629  2.0949 -0.4349
  339MOL0     H45750   4.715   9.807   2.506  0.6676  1.4093  1.3405
  339MOL0     H45751   4.882  10.112   2.825 -1.0117  3.7819  0.8689
  339MOL0     H45752   4.989  10.123   3.033  0.3749  1.2078 -0.1441
  339MOL0     H45753   4.803  10.381   3.574 -0.5256 -1.3948 -1.1983
  339MOL0     H45754   4.972  10.431   3.738 -0.8284  1.4458 -2.2032
  339MOL0     H45755   5.337  10.235   3.904 -2.3349  0.7479  0.1162
  339MOL0     H45756   5.334  10.161   3.747 -2.4436  0.3376 -2.1814
  339MOL0     H45757   5.408  10.442   3.725 -0.1730 -0.1692 -1.3139
  339MOL0     H45758   5.467  10.291   3.646 -1.8085  1.5860 -2.0529
  339MOL0     H45759   5.594  10.227   3.838 -1.6237 -0.1925  0.4105
  339MOL0     H45760   5.523  10.367   3.934  0.4504 -0.0024 -0.4166
  339MOL0     H45761   5.632  10.524   3.851 -0.5254  0.5293 -1.9028
  339MOL0     H45762   5.679  10.446   3.696  0.1222  4.8010  0.1513
  339MOL0     H45763   5.999  10.350   3.959  0.7382  1.7411 -1.2118
  339MOL0     H45764   5.248  10.139   3.562  0.0534 -0.2190 -0.8523
  339MOL0     H45765   5.068  10.101   3.396 -2.9021  1.4286 -1.7375
  340MOL0     O45766   1.681   1.108   2.362  0.5426  0.1056 -0.1182
  340MOL0     C45767   1.699   1.104   2.485  0.1680 -0.4005  0.1387
  340MOL0     O45768   1.810   1.052   2.545  0.7902 -0.0387 -0.2629
  340MOL0     C45769   1.909   1.016   2.461  0.5165 -0.2411 -0.5681
  340MOL0     C45770   2.006   1.105   2.436 -0.9339 -0.0836  0.6188
  340MOL0     C45771   2.117   1.069   2.354  0.2725  0.3859 -0.2873
  340MOL0     C45772   2.104   0.961   2.261 -0.3989 -0.7104  0.3368
  340MOL0     O45773   2.191   0.932   2.164  0.0703 -0.1639 -0.0268
  340MOL0     C45774   2.329   0.952   2.167  0.5299 -0.1108 -0.4340
  340MOL0     C45775   2.359   1.079   2.080 -0.5583  0.2200 -0.3746
  340MOL0     C45776   2.309   1.083   1.932 -0.0205  0.0456  0.0324
  340MOL0     C45777   2.357   1.211   1.868 -0.9580 -0.2291  0.4525
  340MOL0     C45778   2.319   1.210   1.718 -0.9471 -0.0807 -0.1712
  340MOL0     C45779   2.439   1.185   1.624  0.0248 -0.2712  0.7211
  340MOL0     C45780   2.531   1.309   1.613  0.3392 -0.0750 -0.3041
  340MOL0     C45781   2.638   1.274   1.509  0.2241 -0.8020 -0.0385
  340MOL0     N45782   2.739   1.377   1.488  0.5624 -0.1835  0.4191
  340MOL0     C45783   2.818   1.463   1.575  0.0286 -0.7820  0.9154
  340MOL0     C45784   2.903   1.530   1.503 -0.0144 -1.0578  0.0107
  340MOL0     C45785   3.001   1.615   1.569 -0.1801 -0.0228 -0.0510
  340MOL0     C45786   3.084   1.700   1.470 -0.6405  0.0657  0.3899
  340MOL0     C45787   2.994   1.807   1.391  0.4210  0.8301 -0.6310
  340MOL0     C45788   3.068   1.933   1.342  0.0539  0.5217  0.1436
  340MOL0     O45789   3.105   2.006   1.458 -0.3726 -0.1245 -0.0217
  340MOL0     C45790   3.132   2.141   1.458  0.4321 -1.3308 -0.5096
  340MOL0     C45791   3.146   2.209   1.578  0.1149  1.1803 -0.1374
  340MOL0     C45792   3.147   2.352   1.582 -0.3660 -0.1404 -0.0632
  340MOL0     C45793   3.158   2.405   1.721 -0.1666 -1.5944  0.1363
  340MOL0     C45794   3.142   2.420   1.460  1.2487  0.0623  0.0291
  340MOL0     C45795   3.145   2.567   1.441  0.8725  0.2113 -0.2070
  340MOL0     O45796   3.137   2.612   1.313  0.2072  0.7374  0.2980
  340MOL0     C45797   3.264   2.640   1.256  0.5578 -0.3128  0.2687
  340MOL0     C45798   3.268   2.695   1.126  0.4302  0.4960  0.6797
  340MOL0     C45799   3.389   2.731   1.065 -0.0508  0.8193 -0.7487
  340MOL0     C45800   3.513   2.714   1.132 -0.3260 -1.1553  0.1816
  340MOL0     O45801   3.628   2.711   1.062  0.5171  0.0131  0.4745
  340MOL0     C45802   3.688   2.581   1.065  0.6656  1.0407 -0.5109
  340MOL0     C45803   3.822   2.562   0.986  0.2035 -0.5181 -0.8007
  340MOL0     C45804   3.872   2.671   0.892  0.3973 -0.3885 -0.2045
  340MOL0     C45805   3.953   2.785   0.953  0.7421 -1.0281  0.1786
  340MOL0     C45806   4.078   2.743   1.032  1.0810 -0.0502  0.8083
  340MOL0     C45807   4.172   2.858   1.028  0.6495  0.5698  0.6772
  340MOL0     C45808   4.299   2.831   1.104 -0.1531  0.0423 -0.2562
  340MOL0     C45809   4.275   2.818   1.259 -0.1495 -0.7108 -0.1603
  340MOL0    Cl45810   4.286   2.979   1.342  0.0043 -0.5076 -0.1244
  340MOL0     C45811   3.509   2.674   1.269  0.5744 -0.6144 -0.3083
  340MOL0     C45812   3.389   2.631   1.329  0.0426 -0.6258  0.6154
  340MOL0     O45813   3.139   2.641   1.540 -1.2044 -0.3641  0.2497
  340MOL0     C45814   3.115   2.350   1.339 -0.1854  0.1301  0.0660
  340MOL0     C45815   3.124   2.213   1.339 -0.0975  0.3021  0.7829
  340MOL0     N45816   2.882   1.502   1.372  0.5420  0.3591  0.3979
  340MOL0     N45817   2.784   1.406   1.359 -0.0659 -0.1785  0.1910
  340MOL0     C45818   1.997   0.880   2.280 -0.1221  0.1003  0.1540
  340MOL0     C45819   1.901   0.903   2.382 -1.6620 -0.1902 -0.1648
  340MOL0     C45820   1.572   1.143   2.562 -0.3961  0.1530 -0.2040
  340MOL0     C45821   1.451   1.169   2.498 -0.3863  0.2869  0.0590
  340MOL0     C45822   1.331   1.205   2.554  0.7801  1.2560  0.5960
  340MOL0     C45823   1.331   1.223   2.691  0.2689 -0.2080  0.4265
  340MOL0     O45824   1.219   1.237   2.755  0.8875 -0.3341  0.3802
  340MOL0     C45825   1.142   1.348   2.718  1.0038 -1.9274 -0.4386
  340MOL0     C45826   1.002   1.310   2.767 -0.1333 -0.1930 -0.1726
  340MOL0     C45827   0.997   1.283   2.925  0.0466  0.2926  0.0188
  340MOL0     C45828   0.852   1.261   2.964 -0.3026 -0.3911 -0.1510
  340MOL0     C45829   0.839   1.237   3.103 -0.1049  0.3495 -0.2670
  340MOL0     C45830   0.849   1.209   3.223 -0.9841 -0.7955  0.5788
  340MOL0     C45831   1.442   1.185   2.758 -0.8271  0.0811  0.6189
  340MOL0     C45832   1.568   1.147   2.698  0.5391 -0.1291 -0.2368
  340MOL0     H45833   2.005   1.207   2.474  2.4110  0.8627 -1.3789
  340MOL0     H45834   2.196   1.144   2.344  1.3924 -0.0777  3.4039
  340MOL0     H45835   2.360   0.970   2.271 -0.7942  1.9728 -0.3295
  340MOL0     H45836   2.385   0.872   2.119 -2.1437 -0.6021 -2.9630
  340MOL0     H45837   2.345   1.169   2.140  0.4907 -2.1828  3.8200
  340MOL0     H45838   2.468   1.082   2.074 -0.5838  0.8539 -0.6645
  340MOL0     H45839   2.344   0.986   1.894 -1.0741 -0.9875  1.6089
  340MOL0     H45840   2.200   1.078   1.921 -0.0348 -0.7338  0.5186
  340MOL0     H45841   2.318   1.298   1.920 -1.0920  0.8316 -1.3366
  340MOL0     H45842   2.463   1.212   1.896 -0.0678  0.2610 -2.5215
  340MOL0     H45843   2.241   1.139   1.691 -2.1517  1.8269 -2.0226
  340MOL0     H45844   2.266   1.303   1.695 -2.1666 -1.0497 -1.4626
  340MOL0     H45845   2.496   1.097   1.656  2.2389  1.4396  1.7411
  340MOL0     H45846   2.409   1.147   1.526 -0.5240 -0.8260  1.1019
  340MOL0     H45847   2.480   1.401   1.583  0.5017 -0.6773 -2.6382
  340MOL0     H45848   2.575   1.322   1.712 -1.7392 -0.0081  0.6626
  340MOL0     H45849   2.585   1.270   1.413 -2.9232 -1.2540  1.6041
  340MOL0     H45850   2.676   1.174   1.531  0.8639 -1.1895 -2.6148
  340MOL0     H45851   2.798   1.474   1.681 -2.5406  3.1869  0.2052
  340MOL0     H45852   2.947   1.689   1.629 -0.7227  0.5704 -1.2330
  340MOL0     H45853   3.064   1.555   1.635  1.2017  0.4326 -0.9288
  340MOL0     H45854   3.131   1.631   1.399 -1.9269  0.6974 -1.1492
  340MOL0     H45855   3.168   1.750   1.519  0.1206 -1.9000  1.1814
  340MOL0     H45856   2.920   1.840   1.466 -0.5913  2.0553 -2.1117
  340MOL0     H45857   2.942   1.757   1.309 -0.0161  0.3447 -0.0713
  340MOL0     H45858   3.008   1.988   1.270 -1.0619 -0.9529 -0.1093
  340MOL0     H45859   3.159   1.900   1.292  0.7462  0.6962  1.2475
  340MOL0     H45860   3.150   2.143   1.665 -2.7589 -1.9399 -2.1283
  340MOL0     H45861   3.091   2.491   1.725  1.0810 -0.6297  0.7838
  340MOL0     H45862   3.138   2.328   1.796 -0.2069  0.4341  2.3016
  340MOL0     H45863   3.253   2.455   1.735 -1.5290  1.7869 -1.6106
  340MOL0     H45864   3.180   2.708   1.064  0.7723  2.5262  0.5649
  340MOL0     H45865   3.399   2.756   0.960  2.1450  0.8100 -0.6081
  340MOL0     H45866   3.707   2.544   1.166 -1.4491  1.0346 -0.0800
  340MOL0     H45867   3.610   2.514   1.027 -0.1206  0.7215  1.5434
  340MOL0     H45868   3.899   2.546   1.061 -0.2948  2.8635  0.6120
  340MOL0     H45869   3.812   2.475   0.920 -0.6165 -1.7114  0.8255
  340MOL0     H45870   3.783   2.715   0.846 -1.0332 -2.7393  0.1577
  340MOL0     H45871   3.934   2.626   0.815  1.6327  1.1884 -0.1886
  340MOL0     H45872   3.984   2.848   0.869  1.3719 -2.3539 -0.6165
  340MOL0     H45873   3.888   2.833   1.027  2.2760  1.4910 -0.0238
  340MOL0     H45874   4.114   2.643   1.003 -3.2812 -1.0496 -2.1755
  340MOL0     H45875   4.032   2.716   1.127 -0.8409  1.2301  0.2981
  340MOL0     H45876   4.199   2.873   0.923 -0.0242  0.3715  0.4708
  340MOL0     H45877   4.123   2.949   1.063  0.3422 -0.7334  3.8899
  340MOL0     H45878   4.368   2.914   1.086 -0.9842  0.5088 -1.3614
  340MOL0     H45879   4.357   2.744   1.072  2.0914  1.6635 -0.8775
  340MOL0     H45880   4.355   2.762   1.308  0.7384  1.6310  1.2418
  340MOL0     H45881   4.184   2.764   1.289 -0.9742  0.5968 -0.2295
  340MOL0     H45882   3.597   2.659   1.330  1.1655  0.5862 -0.8355
  340MOL0     H45883   3.402   2.607   1.434  0.5159  2.5068  1.3965
  340MOL0     H45884   3.102   2.398   1.242 -1.4950  2.2473  1.2141
  340MOL0     H45885   3.119   2.157   1.246  2.2041 -0.8288  1.2541
  340MOL0     H45886   1.983   0.791   2.219  1.2850 -0.2782  0.3481
  340MOL0     H45887   1.810   0.845   2.395 -0.3465 -2.0283  1.2982
  340MOL0     H45888   1.452   1.173   2.389 -2.9819  1.1662 -0.0044
  340MOL0     H45889   1.243   1.227   2.495  0.4992  0.4945  0.7256
  340MOL0     H45890   1.182   1.430   2.779 -0.2199 -1.7212  0.1200
  340MOL0     H45891   1.159   1.373   2.613  1.6290  1.4759  0.3715
  340MOL0     H45892   0.983   1.218   2.712  2.0193 -0.2900 -0.8413
  340MOL0     H45893   0.918   1.375   2.744 -1.6702 -2.5182 -1.5842
  340MOL0     H45894   1.039   1.369   2.978  1.9796 -1.4153  1.4249
  340MOL0     H45895   1.055   1.193   2.949 -0.5690 -0.6936 -1.9999
  340MOL0     H45896   0.813   1.171   2.916  1.0073 -0.7630 -0.5582
  340MOL0     H45897   0.795   1.347   2.927  0.1401 -0.3265 -0.6961
  340MOL0     H45898   0.865   1.172   3.322 -0.2587 -2.6985 -0.2137
  340MOL0     H45899   1.427   1.186   2.866 -2.1838 -1.5398  0.4756
  340MOL0     H45900   1.659   1.109   2.745  1.7396 -1.2629 -3.2132
  341MOL0     O45901   5.815   6.663   2.774 -0.3928 -0.3963 -0.2178
  341MOL0     C45902   5.789   6.548   2.770 -0.0658 -0.2953  0.9509
  341MOL0     O45903   5.674   6.488   2.723 -0.5808 -0.7408 -0.0698
  341MOL0     C45904   5.556   6.548   2.684 -0.1997  0.2861  0.5709
  341MOL0     C45905   5.447   6.465   2.674  0.4407 -0.0145 -0.6283
  341MOL0     C45906   5.322   6.496   2.613  0.4777 -0.4601  0.2454
  341MOL0     C45907   5.301   6.631   2.562 -0.9776  0.5628 -0.3023
  341MOL0     O45908   5.191   6.682   2.510 -0.4065  0.2072  0.6053
  341MOL0     C45909   5.098   6.737   2.600  0.1081 -0.7107 -0.5437
  341MOL0     C45910   5.056   6.871   2.522  0.2743 -1.3260  0.0520
  341MOL0     C45911   4.921   6.920   2.568 -0.0722 -1.3584 -0.6470
  341MOL0     C45912   4.914   7.076   2.542 -0.7212  0.1515  0.3053
  341MOL0     C45913   4.795   7.120   2.626 -0.6989 -0.2371  0.1789
  341MOL0     C45914   4.747   7.263   2.575 -0.0113 -0.7183 -0.2943
  341MOL0     C45915   4.832   7.386   2.618  0.6568  0.4208  0.0335
  341MOL0     C45916   4.756   7.518   2.608 -0.0774  0.3447 -0.1041
  341MOL0     N45917   4.648   7.528   2.705 -0.7396  0.6443 -0.4899
  341MOL0     C45918   4.657   7.548   2.838  0.3064  1.0409 -0.0368
  341MOL0     C45919   4.526   7.563   2.882 -0.7720  0.5839 -0.5168
  341MOL0     C45920   4.477   7.593   3.024 -0.0880 -0.2184 -0.3345
  341MOL0     C45921   4.493   7.736   3.067  0.0820  0.4186  0.3569
  341MOL0     C45922   4.422   7.773   3.200  0.6064  0.0191  0.0278
  341MOL0     C45923   4.499   7.743   3.331  0.7901 -1.0155 -0.7776
  341MOL0     O45924   4.525   7.600   3.350  0.5414 -0.1896 -0.8088
  341MOL0     C45925   4.607   7.567   3.455  0.0723 -0.1829  0.2691
  341MOL0     C45926   4.631   7.651   3.561 -0.7383 -0.3647 -0.6200
  341MOL0     C45927   4.710   7.617   3.680  0.1552 -0.4921 -0.4981
  341MOL0     C45928   4.719   7.720   3.789 -0.3091 -0.4735 -1.1929
  341MOL0     C45929   4.767   7.491   3.688 -0.6154 -0.6066  0.1553
  341MOL0     C45930   4.849   7.444   3.803 -0.5563  0.8589 -0.2885
  341MOL0     O45931   4.937   7.338   3.757 -0.3817  0.2087  0.2853
  341MOL0     C45932   5.000   7.245   3.847 -0.0269 -0.7279 -0.1967
  341MOL0     C45933   5.123   7.194   3.820  0.0829  0.3711 -0.1319
  341MOL0     C45934   5.200   7.107   3.911  0.0166  0.2435 -0.1072
  341MOL0     C45935   5.140   7.066   4.034  0.3515 -0.3985  0.9386
  341MOL0     O45936   5.194   6.972   4.117  0.5043  0.5290  0.3139
  341MOL0     C45937   5.180   6.832   4.077 -0.2082 -0.0266 -1.0935
  341MOL0     C45938   5.319   6.766   4.071  0.1234 -0.3590 -0.0763
  341MOL0     C45939   5.318   6.614   4.096  0.1526  1.1526 -0.0552
  341MOL0     C45940   5.435   6.549   4.017  1.2087  0.4158 -1.5253
  341MOL0     C45941   5.459   6.400   4.047  0.2183 -0.1820  0.0724
  341MOL0     C45942   5.602   6.349   4.016 -0.9258 -0.3714  0.2559
  341MOL0     C45943   5.617   6.201   4.027 -0.3644  0.7375 -0.3078
  341MOL0     C45944   5.761   6.165   4.037  0.5852  0.3154 -0.6856
  341MOL0    Cl45945   5.777   5.982   4.039 -0.2504  0.0156  0.0429
  341MOL0     C45946   5.009   7.103   4.054  0.8866 -0.4253  0.7812
  341MOL0     C45947   4.940   7.194   3.965  0.2345 -0.9987 -0.2499
  341MOL0     O45948   4.837   7.481   3.920 -0.0601  0.4764 -0.5643
  341MOL0     C45949   4.762   7.418   3.566  1.0420  0.5125 -0.2808
  341MOL0     C45950   4.676   7.448   3.468  0.8008  0.1059 -0.0752
  341MOL0     N45951   4.439   7.532   2.784 -0.0459  0.4072 -0.1506
  341MOL0     N45952   4.508   7.519   2.676 -0.6298  1.7186 -0.9754
  341MOL0     C45953   5.406   6.719   2.598 -0.2857 -0.5451 -0.2631
  341MOL0     C45954   5.533   6.681   2.650 -0.5464  0.8123  0.6259
  341MOL0     C45955   5.887   6.453   2.813  0.3352 -0.6347 -0.1497
  341MOL0     C45956   6.023   6.460   2.764  0.1459 -0.4193 -0.7682
  341MOL0     C45957   6.124   6.379   2.814  0.5893  0.4313 -0.6587
  341MOL0     C45958   6.097   6.289   2.917 -0.9190  0.7137  0.4201
  341MOL0     O45959   6.202   6.213   2.975  0.1837 -0.3859 -0.3215
  341MOL0     C45960   6.330   6.207   2.926 -0.0002 -0.3578 -0.1941
  341MOL0     C45961   6.423   6.322   2.947  0.0349  0.2622  0.0366
  341MOL0     C45962   6.524   6.290   3.057  0.3074 -0.2039  1.1130
  341MOL0     C45963   6.616   6.408   3.070  0.8345 -0.4893  0.5771
  341MOL0     C45964   6.556   6.531   3.124  0.0460 -0.0484 -0.0309
  341MOL0     C45965   6.489   6.620   3.165 -0.0373  0.1355 -0.8007
  341MOL0     C45966   5.963   6.268   2.952  0.8821 -0.5377  0.8419
  341MOL0     C45967   5.857   6.357   2.903 -0.5054  0.4809 -1.2314
  341MOL0     H45968   5.446   6.361   2.704 -1.2374  0.5774  1.5374
  341MOL0     H45969   5.247   6.422   2.586 -0.5105  1.3329 -2.3529
  341MOL0     H45970   5.008   6.677   2.613  1.9382 -3.2423  1.5528
  341MOL0     H45971   5.132   6.761   2.701 -0.4450 -2.1981  0.0289
  341MOL0     H45972   5.132   6.950   2.523 -1.3513  0.2989 -0.0171
  341MOL0     H45973   5.048   6.841   2.417 -1.6805 -0.3654 -0.1035
  341MOL0     H45974   4.835   6.869   2.522 -0.7027 -1.0778  0.1915
  341MOL0     H45975   4.900   6.910   2.675  2.4228  4.3712  0.7707
  341MOL0     H45976   4.998   7.130   2.585  0.1870 -2.3015  1.7898
  341MOL0     H45977   4.882   7.086   2.438 -2.1701 -3.0279  0.3438
  341MOL0     H45978   4.718   7.043   2.635 -2.2826  1.3423  1.0192
  341MOL0     H45979   4.837   7.129   2.727  0.1573  1.4004 -0.2868
  341MOL0     H45980   4.727   7.271   2.468 -1.4264 -0.3478 -0.0190
  341MOL0     H45981   4.652   7.269   2.628 -1.1428 -1.3720 -2.1653
  341MOL0     H45982   4.855   7.380   2.725  0.6745 -1.2179 -0.0345
  341MOL0     H45983   4.928   7.399   2.566  0.6717 -0.2801 -0.1253
  341MOL0     H45984   4.725   7.530   2.504 -3.1151  0.4623  0.7367
  341MOL0     H45985   4.832   7.595   2.622  1.1601 -0.5471 -1.5759
  341MOL0     H45986   4.749   7.574   2.889  0.4615  1.3490 -0.4680
  341MOL0     H45987   4.374   7.560   3.041  0.2179 -0.3487  1.5277
  341MOL0     H45988   4.531   7.536   3.100  0.5680  1.2641  0.3695
  341MOL0     H45989   4.436   7.793   2.993 -1.1476 -2.4244 -1.0490
  341MOL0     H45990   4.599   7.761   3.071  1.3147 -3.7887 -0.5340
  341MOL0     H45991   4.323   7.727   3.210  1.2194 -0.9626  2.1834
  341MOL0     H45992   4.391   7.878   3.197 -3.0923 -0.9484 -2.0530
  341MOL0     H45993   4.430   7.774   3.410  1.9956  2.0666 -0.8011
  341MOL0     H45994   4.593   7.800   3.327  0.3500 -0.3463 -2.4579
  341MOL0     H45995   4.566   7.737   3.575 -3.0497 -1.8171 -1.8645
  341MOL0     H45996   4.652   7.799   3.756  2.2730  1.2575 -2.5832
  341MOL0     H45997   4.702   7.678   3.889 -0.0289 -1.6396 -1.6125
  341MOL0     H45998   4.822   7.757   3.779 -1.6668  3.3292 -2.7200
  341MOL0     H45999   5.174   7.231   3.731  1.2252  1.2617  0.8577
  341MOL0     H46000   5.302   7.082   3.883  0.7674  2.2076  0.6778
  341MOL0     H46001   5.115   6.783   4.150 -0.7039 -0.0566 -1.5446
  341MOL0     H46002   5.131   6.832   3.979 -0.3828  0.9009 -1.0155
  341MOL0     H46003   5.348   6.770   3.966  0.2738 -2.0453 -0.1220
  341MOL0     H46004   5.386   6.817   4.142 -0.3513 -0.0649  0.1689
  341MOL0     H46005   5.224   6.560   4.082  0.2660 -0.6532  4.4369
  341MOL0     H46006   5.332   6.604   4.204 -0.6682 -2.2190 -0.1625
  341MOL0     H46007   5.426   6.554   3.908  1.4050  0.1735 -1.5558
  341MOL0     H46008   5.526   6.600   4.048  0.0394  1.4652  0.3707
  341MOL0     H46009   5.392   6.343   3.981 -2.5561  2.2029  0.6176
  341MOL0     H46010   5.425   6.366   4.146 -4.3580  0.0788 -1.1652
  341MOL0     H46011   5.622   6.375   3.912  0.3354 -0.4291  0.4668
  341MOL0     H46012   5.674   6.400   4.082  1.7605 -0.8687 -2.1227
  341MOL0     H46013   5.553   6.163   3.947 -3.8416  1.7178  1.8060
  341MOL0     H46014   5.572   6.182   4.125 -5.2193  3.8669 -1.5339
  341MOL0     H46015   5.806   6.203   4.129 -0.1333 -0.5988  0.0696
  341MOL0     H46016   5.809   6.216   3.953  0.8497 -1.5220 -1.7029
  341MOL0     H46017   4.958   7.054   4.137 -0.7086 -0.8586 -0.4160
  341MOL0     H46018   4.839   7.230   3.980 -0.5632 -2.8812 -0.9475
  341MOL0     H46019   4.802   7.319   3.554 -0.1119  0.3280 -3.7659
  341MOL0     H46020   4.674   7.386   3.379  2.8741  3.6817 -2.9186
  341MOL0     H46021   5.386   6.823   2.576 -4.1589 -1.8101 -4.0111
  341MOL0     H46022   5.619   6.746   2.644 -1.2774  1.6962 -0.7019
  341MOL0     H46023   6.040   6.528   2.681 -1.1161 -2.5138 -2.8725
  341MOL0     H46024   6.225   6.394   2.777  1.2559 -1.2916  0.3202
  341MOL0     H46025   6.364   6.113   2.972 -1.1802  0.2069  1.9688
  341MOL0     H46026   6.329   6.176   2.821 -2.5092 -2.2639  0.2791
  341MOL0     H46027   6.362   6.408   2.976  1.4245  1.4517 -0.4504
  341MOL0     H46028   6.475   6.338   2.852 -1.6662 -2.7453 -1.5366
  341MOL0     H46029   6.584   6.202   3.033 -1.9802 -1.5810  0.1541
  341MOL0     H46030   6.469   6.281   3.151 -1.0283  0.9343  0.4727
  341MOL0     H46031   6.653   6.437   2.972 -0.2442 -0.1662  0.2479
  341MOL0     H46032   6.705   6.377   3.126  0.9219  0.1141  0.7829
  341MOL0     H46033   6.431   6.708   3.176 -0.7628 -0.3749 -0.4988
  341MOL0     H46034   5.943   6.180   3.013  0.9229 -1.6891 -0.7448
  341MOL0     H46035   5.753   6.338   2.926  0.0657 -0.3177  1.0043
  342MOL0     O46036   0.414   5.582   2.141 -0.6708 -0.0971  0.0735
  342MOL0     C46037   0.348   5.667   2.200 -0.4499 -0.1427  0.8060
  342MOL0     O46038   0.284   5.778   2.137  0.0324  0.3977 -1.0617
  342MOL0     C46039   0.281   5.787   1.997 -0.1349 -0.4567 -0.5076
  342MOL0     C46040   0.295   5.919   1.942  0.3836 -0.9249  0.8848
  342MOL0     C46041   0.276   5.937   1.803 -1.2348 -0.6835 -0.2778
  342MOL0     C46042   0.238   5.833   1.724  0.5872  0.3287  0.7242
  342MOL0     O46043   0.228   5.874   1.593  0.3699  1.1569  0.4432
  342MOL0     C46044   0.208   5.765   1.498  0.9445  0.0664 -0.2102
  342MOL0     C46045   0.265   5.817   1.373 -0.0936 -0.0373 -0.8033
  342MOL0     C46046   0.191   5.767   1.250  0.0136  1.1084 -1.6721
  342MOL0     C46047   0.239   5.825   1.120  0.8956  0.8638  0.5942
  342MOL0     C46048   0.118   5.813   1.027  0.5392 -0.1131 -0.2956
  342MOL0     C46049   0.168   5.871   0.894 -0.7591 -0.0534  0.2692
  342MOL0     C46050   0.061   5.868   0.780 -0.9612 -0.0166  0.0379
  342MOL0     C46051   0.111   5.848   0.638 -0.1898  0.2168  0.4827
  342MOL0     N46052   0.176   5.967   0.585  0.0571 -0.1788  0.7043
  342MOL0     C46053   0.123   6.087   0.555  0.3075  0.2162 -0.3063
  342MOL0     C46054   0.216   6.159   0.483  0.6068  0.2667  1.2374
  342MOL0     C46055   0.210   6.303   0.457 -0.1258 -0.3324 -0.7259
  342MOL0     C46056   0.266   6.336   0.321  0.2210  1.2331  0.3574
  342MOL0     C46057   0.266   6.483   0.293 -0.0112 -1.3713  0.3326
  342MOL0     C46058   0.399   6.550   0.317  0.7692 -0.0843 -0.3614
  342MOL0     O46059   0.398   6.580   0.460  0.3004  0.2799  0.6914
  342MOL0     C46060   0.364   6.707   0.501  0.2936  0.0762 -0.0777
  342MOL0     C46061   0.397   6.746   0.624 -0.5676 -0.7875 -0.1811
  342MOL0     C46062   0.368   6.878   0.680 -0.0793  0.4054  0.7303
  342MOL0     C46063   0.379   6.900   0.829  0.1451  0.1606 -1.3737
  342MOL0     C46064   0.314   6.978   0.588 -0.8918  0.8363  0.0928
  342MOL0     C46065   0.292   7.120   0.624 -0.8505  0.3615 -0.2603
  342MOL0     O46066   0.222   7.199   0.528 -0.5559  0.1271 -0.0700
  342MOL0     C46067   0.209   7.324   0.556  0.9822 -1.7049 -0.9670
  342MOL0     C46068   0.303   7.417   0.505 -0.2189  0.7723 -0.5799
  342MOL0     C46069   0.283   7.551   0.524 -0.2946 -0.4933  0.4649
  342MOL0     C46070   0.161   7.601   0.570  0.1040 -0.0010 -0.5169
  342MOL0     O46071   0.121   7.730   0.599 -0.8939 -0.5074 -0.2825
  342MOL0     C46072   0.205   7.843   0.565 -0.5414  0.5212  0.3194
  342MOL0     C46073   0.155   7.972   0.643 -0.1211 -0.8474  0.2762
  342MOL0     C46074   0.242   7.981   0.775  0.2058  0.2334 -0.0663
  342MOL0     C46075   0.228   8.120   0.840  0.2970 -0.3160 -0.1637
  342MOL0     C46076   0.085   8.149   0.891 -0.3298 -0.4607  0.0897
  342MOL0     C46077   0.019   8.048   0.989 -0.2423  0.5668  1.2449
  342MOL0     C46078  -0.124   8.090   1.028  0.4262 -0.2319 -0.3462
  342MOL0     C46079  -0.172   8.025   1.149 -1.1730  0.1209  0.2667
  342MOL0    Cl46080  -0.153   7.839   1.140 -0.0321 -0.8145 -0.3964
  342MOL0     C46081   0.064   7.502   0.614 -0.9746 -0.7152 -0.4731
  342MOL0     C46082   0.085   7.374   0.604  0.1952 -0.9117  0.4026
  342MOL0     O46083   0.345   7.162   0.725  0.2295 -0.7886 -0.5480
  342MOL0     C46084   0.282   6.938   0.454 -0.1618  0.4978  0.5190
  342MOL0     C46085   0.313   6.809   0.418  0.2946 -0.3598 -0.5282
  342MOL0     N46086   0.331   6.083   0.472 -0.4265  0.0218 -0.9693
  342MOL0     N46087   0.299   5.964   0.527 -0.5582  0.5036  0.0622
  342MOL0     C46088   0.247   5.706   1.776  0.5062  0.7687  0.8025
  342MOL0     C46089   0.261   5.682   1.914 -0.2034  0.2150  0.2756
  342MOL0     C46090   0.333   5.651   2.344  1.4991  0.3158  0.3557
  342MOL0     C46091   0.415   5.555   2.417  0.5623  0.2857  0.5697
  342MOL0     C46092   0.397   5.540   2.553 -0.0651 -0.7988  0.6291
  342MOL0     C46093   0.305   5.623   2.611 -1.2240  0.2656  0.0096
  342MOL0     O46094   0.304   5.633   2.752 -0.1400 -0.2241 -0.1332
  342MOL0     C46095   0.413   5.717   2.794 -0.3521 -0.5528  0.1375
  342MOL0     C46096   0.357   5.807   2.911 -0.2644 -0.2044  0.2746
  342MOL0     C46097   0.249   5.913   2.859  0.7398  0.4018 -0.9646
  342MOL0     C46098   0.186   5.985   2.982  0.0255  1.3718  0.8739
  342MOL0     C46099   0.289   6.080   3.025  0.0063  0.4992  0.9615
  342MOL0     C46100   0.368   6.160   3.056 -0.1919  0.3638 -0.1063
  342MOL0     C46101   0.227   5.718   2.545  0.0644  0.4324 -0.1752
  342MOL0     C46102   0.232   5.725   2.410  0.0435 -0.8950  1.1817
  342MOL0     H46103   0.328   6.002   2.003  3.2919 -0.8872 -0.5925
  342MOL0     H46104   0.269   6.031   1.750 -0.8744  0.6919  1.9582
  342MOL0     H46105   0.273   5.682   1.525  1.2590  1.0386  2.2593
  342MOL0     H46106   0.104   5.742   1.475  1.2720  0.9356 -2.9300
  342MOL0     H46107   0.250   5.925   1.372 -1.1610 -0.1367  1.0766
  342MOL0     H46108   0.371   5.800   1.355 -0.0771 -2.2975  0.9789
  342MOL0     H46109   0.206   5.659   1.239 -1.6895  0.7495 -0.8621
  342MOL0     H46110   0.083   5.782   1.256 -0.2423  0.5049 -3.8880
  342MOL0     H46111   0.273   5.928   1.120 -1.0781  1.5657  1.1836
  342MOL0     H46112   0.322   5.765   1.082 -1.1889 -0.6341 -2.0370
  342MOL0     H46113   0.089   5.707   1.033 -1.2146  0.4031  1.6248
  342MOL0     H46114   0.034   5.876   1.059 -0.3351 -1.5921  0.4744
  342MOL0     H46115   0.209   5.972   0.898 -2.1747  0.5339  0.6104
  342MOL0     H46116   0.258   5.817   0.864  0.4796  2.5129 -0.9239
  342MOL0     H46117  -0.009   5.788   0.804 -1.6074  0.3037 -0.7545
  342MOL0     H46118   0.003   5.961   0.784 -1.8135 -0.4677 -1.2919
  342MOL0     H46119   0.038   5.826   0.559  1.8972 -1.4218 -1.1251
  342MOL0     H46120   0.177   5.761   0.637  0.9299  0.9544  2.7860
  342MOL0     H46121   0.023   6.111   0.589 -0.2196 -2.2665  0.0165
  342MOL0     H46122   0.109   6.343   0.453  1.6052  4.7048 -1.3956
  342MOL0     H46123   0.259   6.356   0.539  0.1903  1.3750 -1.9439
  342MOL0     H46124   0.198   6.289   0.249 -2.7409  4.2106  0.9673
  342MOL0     H46125   0.366   6.291   0.317 -0.7584 -1.0006 -1.5032
  342MOL0     H46126   0.189   6.535   0.352  2.9799  1.7411  1.9120
  342MOL0     H46127   0.247   6.498   0.186  2.9790  0.1889 -0.0760
  342MOL0     H46128   0.404   6.628   0.241 -3.1833  0.4558 -0.2737
  342MOL0     H46129   0.475   6.472   0.300 -2.5814 -4.6022  2.8171
  342MOL0     H46130   0.419   6.670   0.699  1.5039 -0.3791 -0.2982
  342MOL0     H46131   0.479   6.939   0.848 -0.7820  3.2476 -2.3617
  342MOL0     H46132   0.306   6.973   0.864 -0.8320 -0.0049 -2.9566
  342MOL0     H46133   0.357   6.803   0.875 -0.5049  0.8750 -0.1261
  342MOL0     H46134   0.389   7.383   0.447 -2.1573  0.6583 -3.6112
  342MOL0     H46135   0.362   7.620   0.495 -0.5762  1.8743  4.5185
  342MOL0     H46136   0.314   7.837   0.567 -0.4247  2.0807 -0.0937
  342MOL0     H46137   0.166   7.875   0.467  0.4743 -0.3627 -0.3915
  342MOL0     H46138   0.152   8.062   0.582 -0.7743 -0.2393  1.1843
  342MOL0     H46139   0.050   7.961   0.673 -0.9461 -1.6674 -2.6241
  342MOL0     H46140   0.347   7.977   0.747 -0.1535  2.3314 -2.0308
  342MOL0     H46141   0.224   7.900   0.847 -3.0119  0.9183  0.0552
  342MOL0     H46142   0.301   8.123   0.922  0.8661  0.7652 -0.7059
  342MOL0     H46143   0.262   8.200   0.774  0.5493 -0.4901 -0.2467
  342MOL0     H46144   0.018   8.185   0.812  0.4464  2.7705  0.7272
  342MOL0     H46145   0.102   8.236   0.955  0.6203  1.5392 -2.6580
  342MOL0     H46146   0.016   7.959   0.926 -3.7746 -0.9581  3.2878
  342MOL0     H46147   0.081   8.016   1.073 -0.7056 -6.7134 -0.5141
  342MOL0     H46148  -0.197   8.083   0.947  0.1726  3.6215 -0.6141
  342MOL0     H46149  -0.118   8.197   1.049  3.1342  0.8861 -5.1442
  342MOL0     H46150  -0.275   8.059   1.167 -0.9992 -0.3472  2.5065
  342MOL0     H46151  -0.114   8.060   1.235 -2.8603  2.2944  0.6127
  342MOL0     H46152  -0.024   7.546   0.661  1.6064  1.3856  2.8108
  342MOL0     H46153   0.027   7.288   0.636  2.2727 -2.6700 -0.3264
  342MOL0     H46154   0.229   6.998   0.382  2.6138  2.2364 -0.2368
  342MOL0     H46155   0.312   6.791   0.311  0.5708  2.7131 -1.1594
  342MOL0     H46156   0.204   5.621   1.723 -1.0592  1.0174  1.5961
  342MOL0     H46157   0.257   5.581   1.951  0.6274  0.0055 -0.1769
  342MOL0     H46158   0.497   5.508   2.363 -1.8690  1.0894 -4.3675
  342MOL0     H46159   0.453   5.461   2.604  0.2589 -0.5002  0.7422
  342MOL0     H46160   0.503   5.662   2.821  0.7416  1.0101 -0.2176
  342MOL0     H46161   0.443   5.798   2.728  1.4281 -0.1945  1.3007
  342MOL0     H46162   0.445   5.860   2.950 -0.8167 -0.1769  1.5268
  342MOL0     H46163   0.316   5.754   2.997  1.2498  3.1899  3.3920
  342MOL0     H46164   0.172   5.861   2.800  2.1364 -1.1096 -1.5224
  342MOL0     H46165   0.292   5.992   2.797 -1.4629  2.3836 -0.1259
  342MOL0     H46166   0.158   5.907   3.053 -0.3984  0.4418 -0.2865
  342MOL0     H46167   0.101   6.048   2.955 -1.3223  0.6327  3.1495
  342MOL0     H46168   0.429   6.241   3.091 -0.8667  1.5958 -1.6586
  342MOL0     H46169   0.154   5.784   2.591 -0.2485  0.1865 -0.3160
  342MOL0     H46170   0.152   5.779   2.359  0.3509 -1.6870 -0.2072
  343MOL0     O46171   1.028   0.462   5.070  0.3669 -0.3875 -0.7239
  343MOL0     C46172   0.943   0.511   4.995  0.2187 -0.0496 -0.0651
  343MOL0     O46173   0.820   0.538   5.028 -0.1538  0.0282  0.5392
  343MOL0     C46174   0.784   0.503   5.156  0.2842  0.8791 -0.4368
  343MOL0     C46175   0.703   0.387   5.181  0.0622  0.2739  0.4527
  343MOL0     C46176   0.688   0.346   5.312 -0.5354 -0.2072  0.4408
  343MOL0     C46177   0.718   0.428   5.421 -0.1924  0.0745 -0.5873
  343MOL0     O46178   0.693   0.395   5.552 -0.7334 -0.1111 -0.1775
  343MOL0     C46179   0.587   0.456   5.614  0.9893  0.3398 -1.1798
  343MOL0     C46180   0.457   0.396   5.562  0.7568 -0.3175  1.0355
  343MOL0     C46181   0.334   0.433   5.646 -0.6567 -0.2773 -0.6193
  343MOL0     C46182   0.210   0.402   5.567 -0.3856  0.0109  0.8923
  343MOL0     C46183   0.075   0.446   5.634 -0.9217  0.3381  0.0738
  343MOL0     C46184  -0.048   0.416   5.550  0.1193  0.6889 -0.1470
  343MOL0     C46185  -0.178   0.445   5.620  0.4010 -0.0012 -0.1012
  343MOL0     C46186  -0.289   0.424   5.527  0.5047 -0.5630 -0.4423
  343MOL0     N46187  -0.416   0.446   5.610 -0.0346  0.4840  0.2487
  343MOL0     C46188  -0.439   0.558   5.681 -0.1327 -0.6520  0.0256
  343MOL0     C46189  -0.566   0.535   5.718  0.6710 -0.0141  0.3718
  343MOL0     C46190  -0.667   0.617   5.803  0.0287 -0.2574 -1.1065
  343MOL0     C46191  -0.681   0.754   5.755 -0.4308 -0.0486 -0.1004
  343MOL0     C46192  -0.690   0.858   5.859 -0.5045  0.7098 -0.2954
  343MOL0     C46193  -0.571   0.873   5.950  0.2616 -0.7579  0.3722
  343MOL0     O46194  -0.555   1.016   5.975 -0.1164 -0.0981  0.9304
  343MOL0     C46195  -0.434   1.051   6.035 -0.1041 -0.6434  0.4322
  343MOL0     C46196  -0.313   0.988   6.004  0.4290 -0.3064  0.3166
  343MOL0     C46197  -0.192   1.029   6.054 -0.3009  0.3948  0.1726
  343MOL0     C46198  -0.064   0.965   6.002 -0.7559  0.3556 -1.0638
  343MOL0     C46199  -0.189   1.135   6.148 -0.4809  1.9734 -0.2453
  343MOL0     C46200  -0.075   1.197   6.221  0.8748 -0.3368 -0.0502
  343MOL0     O46201  -0.094   1.236   6.353 -0.6970 -0.3292 -0.8216
  343MOL0     C46202   0.024   1.270   6.412 -1.2046  0.2745  0.2110
  343MOL0     C46203   0.049   1.406   6.439 -0.0925  0.5675 -0.3365
  343MOL0     C46204   0.166   1.449   6.508  0.5646  0.5068  0.2753
  343MOL0     C46205   0.263   1.360   6.556 -0.4262  0.1919  0.7806
  343MOL0     O46206   0.388   1.393   6.610  0.9954 -0.6892  0.0091
  343MOL0     C46207   0.393   1.526   6.662  0.7470 -0.0288  0.2816
  343MOL0     C46208   0.517   1.544   6.747  0.3760  0.0509  0.9733
  343MOL0     C46209   0.511   1.450   6.872  0.2200  1.0517  0.6941
  343MOL0     C46210   0.624   1.455   6.971 -0.1292 -0.2929  0.2823
  343MOL0     C46211   0.603   1.332   7.065 -0.2646 -0.3428 -0.0059
  343MOL0     C46212   0.696   1.329   7.182 -0.8996 -0.0478 -0.2055
  343MOL0     C46213   0.697   1.189   7.238  0.7187 -0.2420 -0.0866
  343MOL0     C46214   0.571   1.166   7.326 -0.3375  0.1647  0.5544
  343MOL0    Cl46215   0.563   0.988   7.325 -0.0378 -0.1131  0.1376
  343MOL0     C46216   0.239   1.225   6.533  0.0983  0.4571 -0.1782
  343MOL0     C46217   0.117   1.178   6.472  0.2640  0.1592 -0.4891
  343MOL0     O46218   0.034   1.201   6.170 -0.3063 -0.2025 -0.0112
  343MOL0     C46219  -0.310   1.201   6.173 -0.3997 -0.1071  0.6702
  343MOL0     C46220  -0.429   1.159   6.116 -0.3682 -0.3251 -1.5050
  343MOL0     N46221  -0.614   0.408   5.682  0.0628  0.6384  0.1678
  343MOL0     N46222  -0.514   0.353   5.619 -0.4903 -0.1372 -0.2933
  343MOL0     C46223   0.777   0.552   5.406  0.0951 -0.8479 -0.0274
  343MOL0     C46224   0.812   0.587   5.267 -0.3990 -0.7525  0.1604
  343MOL0     C46225   0.992   0.520   4.858 -0.1711 -0.2999  0.3245
  343MOL0     C46226   0.890   0.504   4.756 -0.8031 -0.2771  0.0655
  343MOL0     C46227   0.921   0.506   4.619 -0.9371  0.8674 -0.0445
  343MOL0     C46228   1.058   0.515   4.576  0.9698  0.1702 -0.1355
  343MOL0     O46229   1.088   0.499   4.446  0.5740 -0.1418 -0.0102
  343MOL0     C46230   1.026   0.389   4.391 -1.3735  1.1884  0.4481
  343MOL0     C46231   1.119   0.322   4.287  0.2927 -0.1855  0.0565
  343MOL0     C46232   1.253   0.283   4.358 -0.7783  1.0596 -1.0015
  343MOL0     C46233   1.326   0.191   4.258 -0.0970  0.4922 -0.0076
  343MOL0     C46234   1.294   0.053   4.278  0.1373 -0.2573 -1.2601
  343MOL0     C46235   1.249  -0.056   4.286 -1.5192  0.3643 -0.4332
  343MOL0     C46236   1.158   0.529   4.675  1.5452  0.0504  0.1816
  343MOL0     C46237   1.124   0.536   4.815  0.5973  0.6911 -0.2908
  343MOL0     H46238   0.678   0.317   5.101 -2.8800  0.7066  0.9043
  343MOL0     H46239   0.634   0.255   5.335 -1.6086  0.1431 -0.5738
  343MOL0     H46240   0.598   0.436   5.721  0.3266 -2.3243 -1.5460
  343MOL0     H46241   0.591   0.564   5.596  2.5332  0.3949 -0.7036
  343MOL0     H46242   0.440   0.436   5.462 -0.9694 -0.7106  1.1425
  343MOL0     H46243   0.467   0.287   5.573  0.9807 -0.4790 -0.5373
  343MOL0     H46244   0.328   0.377   5.740  1.8979 -0.6767 -0.6271
  343MOL0     H46245   0.335   0.537   5.679  1.2550 -0.0323 -1.2847
  343MOL0     H46246   0.202   0.460   5.475 -2.2675 -1.8989 -0.2505
  343MOL0     H46247   0.220   0.303   5.521 -1.7253  1.0385 -1.8771
  343MOL0     H46248   0.080   0.389   5.728  0.8204 -0.9222 -0.7493
  343MOL0     H46249   0.082   0.552   5.658 -0.2903  0.0902  1.0565
  343MOL0     H46250  -0.052   0.458   5.449  0.2177 -0.7815 -0.7885
  343MOL0     H46251  -0.032   0.309   5.535  1.4142  0.9828 -1.0703
  343MOL0     H46252  -0.173   0.377   5.706 -0.1192 -1.7662 -1.4259
  343MOL0     H46253  -0.183   0.548   5.657 -3.1318  0.8747 -2.5394
  343MOL0     H46254  -0.303   0.324   5.485 -0.3503  0.2812 -2.2831
  343MOL0     H46255  -0.276   0.489   5.440 -0.5383  0.9080  0.4416
  343MOL0     H46256  -0.381   0.648   5.698  1.7635 -1.1379 -3.2001
  343MOL0     H46257  -0.761   0.562   5.795 -0.2402  0.3830 -2.6153
  343MOL0     H46258  -0.636   0.625   5.907  0.5517 -2.3303 -1.0704
  343MOL0     H46259  -0.771   0.761   5.693  1.4429  4.2328 -2.7513
  343MOL0     H46260  -0.610   0.779   5.675 -1.1505  0.1279 -0.6917
  343MOL0     H46261  -0.783   0.841   5.915  2.1346 -2.3609  3.7351
  343MOL0     H46262  -0.688   0.949   5.798  1.4059 -1.5050 -3.8937
  343MOL0     H46263  -0.481   0.846   5.894 -0.6646 -0.8341 -1.1414
  343MOL0     H46264  -0.585   0.811   6.039  0.8088  0.8732  1.6409
  343MOL0     H46265  -0.294   0.913   5.929  2.4163  0.8403 -0.4018
  343MOL0     H46266  -0.079   0.941   5.896 -0.6838  0.8577 -1.1930
  343MOL0     H46267   0.017   1.038   5.999 -0.2592 -0.1383  0.1530
  343MOL0     H46268  -0.023   0.888   6.068 -1.8355  2.5356  2.4280
  343MOL0     H46269  -0.024   1.481   6.409 -0.8691 -0.2586 -0.5392
  343MOL0     H46270   0.187   1.555   6.511 -2.8789  1.3701 -1.4333
  343MOL0     H46271   0.391   1.597   6.578 -2.0263 -0.0429  0.2487
  343MOL0     H46272   0.303   1.543   6.722 -2.9927 -0.4609 -4.5282
  343MOL0     H46273   0.607   1.520   6.690 -0.0182  0.7589  0.0091
  343MOL0     H46274   0.533   1.649   6.774  3.5252 -0.5276  1.7258
  343MOL0     H46275   0.506   1.347   6.833  1.9578  1.9003 -2.0463
  343MOL0     H46276   0.417   1.477   6.922 -1.3588 -1.8034 -0.4358
  343MOL0     H46277   0.711   1.459   6.906 -1.4248  0.5309 -1.4972
  343MOL0     H46278   0.628   1.543   7.036  1.3126 -1.0914  1.3199
  343MOL0     H46279   0.634   1.251   6.998  1.3445 -1.3577  1.8687
  343MOL0     H46280   0.497   1.317   7.090 -0.2325  0.5376  0.7022
  343MOL0     H46281   0.798   1.349   7.146 -0.5320 -1.9567 -0.3501
  343MOL0     H46282   0.657   1.407   7.248  1.2224 -0.9055  2.2185
  343MOL0     H46283   0.795   1.176   7.286  0.0556 -0.1204  1.3817
  343MOL0     H46284   0.699   1.123   7.151 -1.3879  1.2274 -1.3318
  343MOL0     H46285   0.478   1.208   7.289  0.5802  0.7902 -1.1534
  343MOL0     H46286   0.590   1.198   7.429 -0.3917 -3.1137  1.6960
  343MOL0     H46287   0.317   1.151   6.546 -0.5803 -0.3413 -0.5243
  343MOL0     H46288   0.110   1.071   6.455  0.8104  0.2041 -1.0252
  343MOL0     H46289  -0.325   1.292   6.229  1.5465  0.1307  0.8817
  343MOL0     H46290  -0.518   1.221   6.117  0.5221  1.0181  0.1850
  343MOL0     H46291   0.784   0.614   5.495 -0.7784 -1.3522  0.4046
  343MOL0     H46292   0.871   0.673   5.238 -1.1496 -0.9870 -2.2589
  343MOL0     H46293   0.787   0.490   4.786 -1.0603 -0.2984 -0.8086
  343MOL0     H46294   0.843   0.495   4.545 -0.5951  3.7084 -0.9254
  343MOL0     H46295   1.008   0.310   4.464  1.5651 -1.0999 -1.0754
  343MOL0     H46296   0.933   0.421   4.344 -1.8749 -1.9141 -0.9465
  343MOL0     H46297   1.120   0.372   4.190 -0.9415 -1.0649 -0.4463
  343MOL0     H46298   1.065   0.231   4.259 -1.6504  1.0331 -0.3434
  343MOL0     H46299   1.216   0.231   4.447  0.2454  1.2684 -0.4402
  343MOL0     H46300   1.319   0.363   4.394  0.9618 -1.1031  0.9119
  343MOL0     H46301   1.432   0.210   4.274  0.1724 -0.0327 -1.0407
  343MOL0     H46302   1.319   0.235   4.158  0.3538 -1.3325 -0.8894
  343MOL0     H46303   1.224  -0.160   4.285  0.5535 -0.1694 -1.7711
  343MOL0     H46304   1.261   0.538   4.641  1.6472 -1.2305  0.1014
  343MOL0     H46305   1.203   0.556   4.887  0.9874 -2.6750  0.3939
  344MOL0     O46306   9.956   0.971   1.895  0.4064 -1.0197  0.1232
  344MOL0     C46307  10.027   1.073   1.885 -0.0732  0.3012 -0.3929
  344MOL0     O46308  10.160   1.076   1.859 -0.9021 -0.0116  0.5125
  344MOL0     C46309  10.232   0.960   1.855 -0.1793  0.0705  0.3687
  344MOL0     C46310  10.296   0.909   1.968 -0.6150  0.2952 -0.4169
  344MOL0     C46311  10.359   0.782   1.958 -0.3899  0.1679  0.3612
  344MOL0     C46312  10.371   0.709   1.832 -0.1119 -0.3550 -0.0433
  344MOL0     O46313  10.438   0.590   1.839  0.1257  0.2775  0.0105
  344MOL0     C46314  10.474   0.514   1.716 -0.2493 -0.9436 -1.0666
  344MOL0     C46315  10.580   0.574   1.633  0.0223 -0.4473  0.4646
  344MOL0     C46316  10.715   0.622   1.705  0.0188  0.2776 -0.2387
  344MOL0     C46317  10.788   0.727   1.626  0.0327 -0.6923 -0.4362
  344MOL0     C46318  10.929   0.755   1.677 -0.0024  0.2998  0.0999
  344MOL0     C46319  11.027   0.652   1.634  0.2544  0.5293  0.2500
  344MOL0     C46320  11.062   0.648   1.490 -0.2081 -0.8505 -0.5367
  344MOL0     C46321  11.118   0.773   1.429 -0.2429 -0.1443 -0.0428
  344MOL0     N46322  11.244   0.814   1.502  0.5900  0.4433  0.3991
  344MOL0     C46323  11.256   0.913   1.597  0.4676 -0.3743  0.2607
  344MOL0     C46324  11.387   0.904   1.629  0.0543  0.1576  0.5529
  344MOL0     C46325  11.452   0.990   1.738  0.2241  0.8249 -0.0699
  344MOL0     C46326  11.427   0.913   1.871  0.2262 -0.1673  0.8484
  344MOL0     C46327  11.449   1.001   1.996  0.1175  0.6227  1.0346
  344MOL0     C46328  11.343   1.106   2.022 -0.3999  0.3444 -0.3606
  344MOL0     O46329  11.216   1.051   1.999 -0.6561 -0.1604  0.4727
  344MOL0     C46330  11.112   1.134   1.988  0.5103 -0.3055  0.4572
  344MOL0     C46331  11.103   1.258   2.054 -0.4014  0.7304  0.2150
  344MOL0     C46332  10.983   1.331   2.059 -0.5598  1.8441 -1.1358
  344MOL0     C46333  10.998   1.450   2.146  0.6524  0.2440 -0.3780
  344MOL0     C46334  10.864   1.275   2.001 -0.7429 -0.9790 -1.3622
  344MOL0     C46335  10.741   1.344   1.995 -0.4570  0.0012  0.2038
  344MOL0     O46336  10.724   1.417   2.105  0.3814  0.2248  0.0490
  344MOL0     C46337  10.612   1.499   2.117  0.0363 -0.2547  0.0375
  344MOL0     C46338  10.624   1.641   2.112  0.7564 -0.7749 -0.5303
  344MOL0     C46339  10.524   1.730   2.086  0.3497 -0.1312 -0.0859
  344MOL0     C46340  10.396   1.675   2.067 -0.4988  0.2812  0.0351
  344MOL0     O46341  10.284   1.757   2.040  0.5809 -0.9857 -0.3623
  344MOL0     C46342  10.161   1.711   2.096  0.5845 -0.3312 -0.3674
  344MOL0     C46343  10.053   1.818   2.091  0.1222  0.1828  0.8549
  344MOL0     C46344  10.036   1.855   1.938 -0.7634  0.4299 -0.0048
  344MOL0     C46345   9.893   1.913   1.914 -0.5445  1.1521  0.9447
  344MOL0     C46346   9.886   1.953   1.769  0.3482 -1.0061  0.5793
  344MOL0     C46347   9.746   2.013   1.743 -0.3507 -0.0427 -0.0722
  344MOL0     C46348   9.742   2.062   1.601  0.0231 -0.6237  0.4232
  344MOL0     C46349   9.628   2.159   1.575  0.4060 -0.1133  0.1802
  344MOL0    Cl46350   9.686   2.260   1.450 -0.2265  0.0208 -0.1197
  344MOL0     C46351  10.380   1.535   2.081 -0.1403  0.6145  0.3010
  344MOL0     C46352  10.482   1.445   2.099  0.3414 -0.4266 -0.1242
  344MOL0     O46353  10.667   1.330   1.904  0.7458 -0.1404  0.1081
  344MOL0     C46354  10.877   1.152   1.925 -0.2371 -0.4487  0.2812
  344MOL0     C46355  11.002   1.084   1.916  0.1654  0.1163 -0.2354
  344MOL0     N46356  11.449   0.803   1.560 -0.8073 -0.7954  0.4204
  344MOL0     N46357  11.365   0.749   1.480 -0.3023  0.6616 -1.0613
  344MOL0     C46358  10.325   0.780   1.716 -0.7695  0.1705  0.9624
  344MOL0     C46359  10.245   0.899   1.728  0.4067  0.8613 -0.4059
  344MOL0     C46360   9.967   1.193   1.941  0.2955  0.1485  0.0260
  344MOL0     C46361  10.045   1.279   2.027 -0.1119 -0.4313  0.3062
  344MOL0     C46362   9.997   1.398   2.081 -0.2502 -0.0760  0.2423
  344MOL0     C46363   9.870   1.453   2.032  0.2873  0.6414  0.7563
  344MOL0     O46364   9.812   1.569   2.078 -0.1278 -0.1385 -0.0256
  344MOL0     C46365   9.690   1.528   2.136 -0.1550 -0.6767 -0.0457
  344MOL0     C46366   9.621   1.632   2.228  0.0426  1.1251  0.2542
  344MOL0     C46367   9.732   1.708   2.313 -0.1675 -0.5821 -0.2765
  344MOL0     C46368   9.671   1.775   2.431 -0.4066  1.0012 -0.2139
  344MOL0     C46369   9.752   1.890   2.486  0.0922 -0.4738  0.9748
  344MOL0     C46370   9.803   1.977   2.549  0.2088  0.2289  0.0772
  344MOL0     C46371   9.799   1.373   1.944  0.0134  0.5371  0.1138
  344MOL0     C46372   9.842   1.244   1.896 -0.2643  0.0770  0.0847
  344MOL0     H46373  10.307   0.962   2.062  1.7718 -1.1827  0.2200
  344MOL0     H46374  10.418   0.744   2.041  1.8999  3.0997  0.2720
  344MOL0     H46375  10.501   0.414   1.751 -1.6349 -1.9192 -2.5848
  344MOL0     H46376  10.389   0.485   1.652 -1.9776  2.1931 -0.4156
  344MOL0     H46377  10.616   0.496   1.565  0.9373  2.0559 -2.1400
  344MOL0     H46378  10.535   0.660   1.582 -1.5204 -0.1311  2.2529
  344MOL0     H46379  10.703   0.665   1.805 -0.0129 -0.9977  0.3376
  344MOL0     H46380  10.788   0.540   1.712  0.5468  0.8728  1.8864
  344MOL0     H46381  10.798   0.676   1.529 -1.8542 -0.5097 -0.7699
  344MOL0     H46382  10.727   0.816   1.615  0.2244 -0.6444 -1.2383
  344MOL0     H46383  10.957   0.855   1.645 -5.8806  1.2709 -3.4406
  344MOL0     H46384  10.928   0.755   1.786 -3.4062 -2.9263  0.2859
  344MOL0     H46385  11.126   0.668   1.680  0.8937  2.2358 -1.6022
  344MOL0     H46386  10.996   0.554   1.671 -1.1266  0.9806  0.3355
  344MOL0     H46387  11.142   0.575   1.481 -1.0127 -1.6062 -1.9080
  344MOL0     H46388  10.975   0.621   1.429  0.0756 -1.2458 -0.7733
  344MOL0     H46389  11.036   0.846   1.436 -1.2111 -1.1276 -0.9514
  344MOL0     H46390  11.154   0.769   1.326  1.7752  2.3135  0.4717
  344MOL0     H46391  11.196   0.992   1.642 -0.6876 -0.4500 -1.0884
  344MOL0     H46392  11.561   0.999   1.735  0.5950 -2.7127 -0.6708
  344MOL0     H46393  11.406   1.089   1.740  0.9536  1.1811  1.9784
  344MOL0     H46394  11.494   0.827   1.879  0.5167  0.1934  2.4820
  344MOL0     H46395  11.324   0.876   1.879  0.3592 -0.3287  1.8809
  344MOL0     H46396  11.543   1.057   1.991 -0.5517  1.6506 -0.7755
  344MOL0     H46397  11.455   0.949   2.092  2.2350  2.3252  1.9115
  344MOL0     H46398  11.371   1.187   1.955 -1.8533 -0.6143 -2.2217
  344MOL0     H46399  11.353   1.141   2.126 -1.0233  1.1248 -0.5548
  344MOL0     H46400  11.194   1.286   2.107  1.2935 -1.5505 -1.2919
  344MOL0     H46401  11.101   1.468   2.179  0.6495 -1.1430  0.4693
  344MOL0     H46402  10.973   1.534   2.080 -0.9235 -0.5390 -0.8270
  344MOL0     H46403  10.940   1.437   2.238  4.0086 -3.3487  1.5234
  344MOL0     H46404  10.720   1.685   2.137  0.1643  0.8606 -0.9802
  344MOL0     H46405  10.536   1.838   2.096  3.0635 -0.6092  3.3137
  344MOL0     H46406  10.130   1.630   2.029  3.8622 -1.3373 -0.8620
  344MOL0     H46407  10.169   1.674   2.199 -0.4121  0.1256 -0.1194
  344MOL0     H46408   9.961   1.785   2.139  0.5303 -3.1509 -0.4137
  344MOL0     H46409  10.093   1.907   2.141  0.9072  2.6932 -3.6079
  344MOL0     H46410  10.043   1.766   1.875  1.0622 -0.0949  0.8515
  344MOL0     H46411  10.110   1.929   1.905 -0.6450  0.1923 -0.2823
  344MOL0     H46412   9.820   1.834   1.932 -1.5010  2.2704  2.1452
  344MOL0     H46413   9.861   1.990   1.984 -1.1000  0.0694  1.9181
  344MOL0     H46414   9.909   1.867   1.706  0.2980  1.5330 -3.2280
  344MOL0     H46415   9.958   2.034   1.757 -2.4973  2.1742  3.1024
  344MOL0     H46416   9.676   1.931   1.762 -0.7703  0.1026 -0.9579
  344MOL0     H46417   9.734   2.094   1.816  1.8076 -2.2058  2.9239
  344MOL0     H46418   9.741   1.976   1.532  0.9453 -0.3488  0.0526
  344MOL0     H46419   9.836   2.115   1.586  0.3446 -1.4371 -0.6017
  344MOL0     H46420   9.605   2.222   1.662  4.3149  0.0924  1.2613
  344MOL0     H46421   9.535   2.110   1.544  0.7138 -0.9300  0.5078
  344MOL0     H46422  10.278   1.499   2.082 -0.6553  1.9650  2.3388
  344MOL0     H46423  10.470   1.337   2.100 -1.2844 -0.3851 -3.2605
  344MOL0     H46424  10.791   1.111   1.872  0.8415 -1.4038 -0.7967
  344MOL0     H46425  11.012   0.993   1.857  0.1371 -0.4281  0.5790
  344MOL0     H46426  10.348   0.743   1.617  6.7302  2.4622  1.1723
  344MOL0     H46427  10.200   0.948   1.642 -1.9823 -0.5485 -0.0561
  344MOL0     H46428  10.142   1.247   2.064 -0.9584  0.0109  3.1557
  344MOL0     H46429  10.047   1.450   2.162 -1.7260  1.2304  0.3798
  344MOL0     H46430   9.618   1.512   2.056  1.3566  0.7287 -1.7643
  344MOL0     H46431   9.705   1.445   2.207 -1.5564 -0.3772  0.6307
  344MOL0     H46432   9.549   1.585   2.296  1.6800 -0.1066  1.1998
  344MOL0     H46433   9.558   1.703   2.174 -2.3060 -0.6321  0.5351
  344MOL0     H46434   9.780   1.785   2.252 -1.3910  0.9995  0.6513
  344MOL0     H46435   9.806   1.632   2.340  2.0222  1.3380 -0.5816
  344MOL0     H46436   9.677   1.694   2.504  2.4557 -1.9668 -3.3788
  344MOL0     H46437   9.565   1.793   2.411 -0.5854  1.2923  0.9138
  344MOL0     H46438   9.858   2.052   2.604  4.4407 -1.5516 -1.3021
  344MOL0     H46439   9.698   1.396   1.914 -1.6056 -2.5892  2.5766
  344MOL0     H46440   9.790   1.202   1.811 -0.0336 -0.5753  0.2579
  345MOL0     O46441   8.265   4.739  10.188  0.7525  0.3723 -0.3187
  345MOL0     C46442   8.194   4.638  10.206 -0.0472 -0.3760  0.8771
  345MOL0     O46443   8.232   4.526  10.276 -0.3296 -0.1653  0.0089
  345MOL0     C46444   8.371   4.514  10.298  0.2863 -0.2553  0.1212
  345MOL0     C46445   8.458   4.459  10.211  0.6757 -0.4000 -0.3243
  345MOL0     C46446   8.589   4.445  10.246 -0.6351 -1.0808 -0.4902
  345MOL0     C46447   8.637   4.497  10.369  0.7685  0.2310  0.0559
  345MOL0     O46448   8.768   4.494  10.401 -0.2282 -0.6239 -0.0793
  345MOL0     C46449   8.824   4.438  10.523 -0.3529  0.5297  0.1352
  345MOL0     C46450   8.977   4.418  10.530  0.6136 -0.9911  0.0003
  345MOL0     C46451   9.050   4.557  10.525 -0.1981  0.0493  0.7715
  345MOL0     C46452   9.197   4.524  10.487 -0.1003  0.0903  0.7538
  345MOL0     C46453   9.267   4.655  10.449 -0.2121 -0.6283  0.1422
  345MOL0     C46454   9.227   4.722  10.312  0.2266 -0.0940 -0.1365
  345MOL0     C46455   9.318   4.678  10.191 -0.2075 -0.8000 -0.6875
  345MOL0     C46456   9.282   4.751  10.059  0.3961  0.0320  0.2232
  345MOL0     N46457   9.339   4.895  10.064  0.4432  1.8406  0.2866
  345MOL0     C46458   9.452   4.930  10.001 -0.3469  0.2167 -0.5859
  345MOL0     C46459   9.446   5.062   9.984  0.1610 -0.2239  0.7385
  345MOL0     C46460   9.573   5.135   9.941  0.0811 -0.3858  0.8155
  345MOL0     C46461   9.555   5.203   9.807  0.5199 -0.2912  0.5416
  345MOL0     C46462   9.670   5.300   9.794  0.5723 -0.2339  0.5127
  345MOL0     C46463   9.706   5.316   9.647  0.3178  0.3526 -0.4988
  345MOL0     O46464   9.593   5.354   9.569  0.1632  0.0150  0.3586
  345MOL0     C46465   9.596   5.393   9.437 -0.1752 -0.3709  0.1373
  345MOL0     C46466   9.711   5.449   9.367 -0.2737 -0.0223 -0.1343
  345MOL0     C46467   9.701   5.480   9.228  0.4421 -0.0449 -0.3679
  345MOL0     C46468   9.825   5.536   9.170  0.5699 -0.8362  0.3530
  345MOL0     C46469   9.584   5.466   9.155 -0.1853  0.0710  0.1808
  345MOL0     C46470   9.576   5.490   9.003  0.1861  0.2749  1.0320
  345MOL0     O46471   9.448   5.510   8.956 -0.5276 -0.5388  0.9548
  345MOL0     C46472   9.430   5.545   8.820  0.3918  0.5940 -0.5898
  345MOL0     C46473   9.482   5.459   8.707  0.4413 -0.4921 -0.1345
  345MOL0     C46474   9.455   5.492   8.570 -0.9758 -1.7997  0.2081
  345MOL0     C46475   9.389   5.614   8.548 -0.8815  1.0302 -0.1586
  345MOL0     O46476   9.352   5.641   8.414  0.0336  0.7316  0.4844
  345MOL0     C46477   9.364   5.766   8.363  0.1172 -0.3329 -0.2813
  345MOL0     C46478   9.379   5.770   8.210  0.4347 -0.4833  0.1215
  345MOL0     C46479   9.476   5.663   8.158 -0.8332  0.2222  0.1921
  345MOL0     C46480   9.620   5.673   8.217 -0.0294 -0.7248  0.6346
  345MOL0     C46481   9.732   5.578   8.148  0.3057  0.1154  0.9530
  345MOL0     C46482   9.699   5.427   8.144 -0.3468 -0.1043 -0.3822
  345MOL0     C46483   9.804   5.341   8.069  0.6414 -0.1566 -0.9305
  345MOL0     C46484   9.807   5.192   8.122  0.4897 -0.3383 -0.1582
  345MOL0    Cl46485   9.909   5.097   8.000  0.1556 -0.3805  0.1407
  345MOL0     C46486   9.341   5.698   8.654  0.9479  0.3355 -0.7628
  345MOL0     C46487   9.362   5.657   8.786  0.0321  0.2862  1.2958
  345MOL0     O46488   9.677   5.477   8.934  0.2140 -0.5471 -0.3064
  345MOL0     C46489   9.478   5.408   9.223 -0.2860  0.1872  0.0444
  345MOL0     C46490   9.477   5.372   9.362 -0.7392 -1.0603 -0.1893
  345MOL0     N46491   9.326   5.106  10.035 -0.7693  0.3385 -0.5464
  345MOL0     N46492   9.261   5.002  10.079  0.0825 -0.6604  0.4339
  345MOL0     C46493   8.548   4.572  10.453  0.5683 -0.3196  0.3966
  345MOL0     C46494   8.413   4.565  10.420 -0.0158 -1.6119  0.1439
  345MOL0     C46495   8.061   4.636  10.135 -0.1167  1.1090  0.1585
  345MOL0     C46496   8.019   4.731  10.052 -0.5441 -0.5660  0.6225
  345MOL0     C46497   7.909   4.713   9.963  0.0979 -0.5647 -0.4631
  345MOL0     C46498   7.832   4.604   9.968  0.9207 -0.6511 -0.0753
  345MOL0     O46499   7.722   4.617   9.899  0.4989  0.8698 -0.0480
  345MOL0     C46500   7.611   4.542   9.956  0.2523 -1.0060 -0.0426
  345MOL0     C46501   7.489   4.585   9.889  0.4688  0.4650 -0.2962
  345MOL0     C46502   7.498   4.633   9.747  0.3894  0.4888 -0.2795
  345MOL0     C46503   7.537   4.507   9.666 -0.7133  0.1047  1.8867
  345MOL0     C46504   7.528   4.533   9.528  0.3846  0.2720 -0.2587
  345MOL0     C46505   7.531   4.560   9.414 -0.5179 -0.1351  0.0505
  345MOL0     C46506   7.866   4.503  10.064  0.2229 -0.0791 -0.9393
  345MOL0     C46507   7.985   4.523  10.140  0.6776 -0.6326 -0.9502
  345MOL0     H46508   8.417   4.422  10.118  0.5459 -0.0079 -0.4240
  345MOL0     H46509   8.658   4.402  10.175 -1.4648 -0.6249 -1.6108
  345MOL0     H46510   8.790   4.506  10.602 -1.8263 -0.8042  0.6938
  345MOL0     H46511   8.776   4.342  10.545  0.7434 -0.3945 -1.3597
  345MOL0     H46512   9.006   4.369  10.623 -2.1327  0.4032  1.7040
  345MOL0     H46513   9.024   4.359  10.450  0.7588  1.6144 -2.0031
  345MOL0     H46514   9.003   4.622  10.451  1.7221 -0.8172 -1.3087
  345MOL0     H46515   9.054   4.607  10.622 -0.0535 -0.0211  0.8015
  345MOL0     H46516   9.247   4.471  10.569 -1.1342 -1.4565  0.4369
  345MOL0     H46517   9.187   4.465  10.395 -1.1436 -1.5811  1.8668
  345MOL0     H46518   9.259   4.713  10.542  4.4643  1.4686 -0.4712
  345MOL0     H46519   9.372   4.624  10.442 -1.3225 -4.7829 -1.6304
  345MOL0     H46520   9.122   4.698  10.296  0.2430 -0.4568  0.2826
  345MOL0     H46521   9.239   4.831  10.321 -0.2500 -0.0500 -0.0034
  345MOL0     H46522   9.424   4.699  10.212  0.1311 -2.8207 -0.1268
  345MOL0     H46523   9.335   4.571  10.174  3.9836 -0.5497  0.7561
  345MOL0     H46524   9.174   4.739  10.058  0.5711 -1.8207  0.6226
  345MOL0     H46525   9.318   4.704   9.967  0.8303  0.6375  0.0729
  345MOL0     H46526   9.532   4.875   9.953 -2.0941 -0.3282 -3.0289
  345MOL0     H46527   9.599   5.209  10.017  2.7489 -4.3016  4.1031
  345MOL0     H46528   9.652   5.061   9.930 -0.3948 -0.8900  0.7666
  345MOL0     H46529   9.472   5.274   9.815  0.0413 -0.9935  2.2487
  345MOL0     H46530   9.555   5.139   9.718  3.6540  3.2658 -2.3198
  345MOL0     H46531   9.762   5.276   9.847  1.4160  0.9186 -0.3838
  345MOL0     H46532   9.645   5.401   9.830  1.8687  0.6735 -1.0113
  345MOL0     H46533   9.734   5.221   9.601  1.7933  1.2626 -1.5811
  345MOL0     H46534   9.790   5.384   9.631 -1.7582  3.1145 -0.5178
  345MOL0     H46535   9.801   5.461   9.427 -2.2756 -2.8953  4.0032
  345MOL0     H46536   9.801   5.613   9.097  1.6956 -2.2527 -1.6084
  345MOL0     H46537   9.872   5.596   9.248 -2.5305  1.3822  0.6797
  345MOL0     H46538   9.897   5.467   9.125  0.6995  0.0395 -0.8111
  345MOL0     H46539   9.534   5.370   8.741  0.0466 -0.5388  0.3574
  345MOL0     H46540   9.478   5.431   8.484 -1.1800 -0.2543 -0.9950
  345MOL0     H46541   9.274   5.822   8.388 -0.6726 -1.2687 -0.9515
  345MOL0     H46542   9.448   5.821   8.407 -2.2558  2.0214  1.6206
  345MOL0     H46543   9.278   5.738   8.181 -0.6610 -0.1370  3.1969
  345MOL0     H46544   9.389   5.875   8.179 -1.0510 -0.4120 -0.2263
  345MOL0     H46545   9.482   5.680   8.051 -2.4194 -2.2680 -0.3740
  345MOL0     H46546   9.435   5.562   8.164  2.4756 -1.2162  0.4744
  345MOL0     H46547   9.642   5.779   8.202 -2.5826  0.0143  1.6572
  345MOL0     H46548   9.616   5.655   8.325  1.3679 -1.2186  0.6281
  345MOL0     H46549   9.836   5.575   8.184  1.6791 -3.0834 -2.5609
  345MOL0     H46550   9.749   5.608   8.044 -1.8806  0.3948  0.6410
  345MOL0     H46551   9.687   5.388   8.245 -2.2896 -0.4056 -0.6915
  345MOL0     H46552   9.614   5.428   8.075  1.8950 -0.1515 -3.3656
  345MOL0     H46553   9.906   5.381   8.069  0.2709  0.8081 -0.0981
  345MOL0     H46554   9.773   5.330   7.965 -0.1253 -4.2227 -0.4541
  345MOL0     H46555   9.704   5.160   8.141  0.2997 -0.7719 -1.7462
  345MOL0     H46556   9.850   5.198   8.222 -2.4084 -0.6292  1.1909
  345MOL0     H46557   9.278   5.777   8.616  0.3752  0.1557 -0.1993
  345MOL0     H46558   9.335   5.725   8.867  1.0780  0.7462  1.2701
  345MOL0     H46559   9.377   5.386   9.191 -0.4198 -0.9554  1.1592
  345MOL0     H46560   9.387   5.334   9.411 -2.6455 -0.1115 -2.7610
  345MOL0     H46561   8.578   4.623  10.544 -0.5976  0.8941  0.1249
  345MOL0     H46562   8.345   4.605  10.494 -0.9879 -4.8673  1.1812
  345MOL0     H46563   8.073   4.825  10.054  0.9600 -1.1930  5.9527
  345MOL0     H46564   7.868   4.800   9.915  0.7403 -0.7119 -1.3113
  345MOL0     H46565   7.624   4.434   9.941 -0.2224 -0.8304 -2.0324
  345MOL0     H46566   7.596   4.548  10.064 -1.4960 -1.3403 -0.2349
  345MOL0     H46567   7.445   4.670   9.943 -2.2588  0.2577 -1.9991
  345MOL0     H46568   7.418   4.504   9.907  0.5252  0.6665  0.8845
  345MOL0     H46569   7.570   4.714   9.727  0.4997  0.3659 -0.3827
  345MOL0     H46570   7.399   4.674   9.726  1.5158  2.5274 -2.0822
  345MOL0     H46571   7.472   4.423   9.691 -0.7796 -0.2812  0.5291
  345MOL0     H46572   7.640   4.480   9.688 -0.7408  0.2007  2.1391
  345MOL0     H46573   7.549   4.583   9.311  2.0328 -1.9436 -0.0121
  345MOL0     H46574   7.816   4.408  10.077  0.5477 -0.3535 -1.6080
  345MOL0     H46575   8.007   4.435  10.198 -0.3838 -0.6654 -0.5713
  346MOL0     O46576  10.258  11.078   4.605  0.1602  0.9760 -0.2726
  346MOL0     C46577  10.171  11.131   4.533 -0.1992 -0.0210 -0.2257
  346MOL0     O46578  10.158  11.113   4.396 -0.9104  0.1940  0.1755
  346MOL0     C46579  10.236  11.019   4.327  0.3406 -0.4574  0.6876
  346MOL0     C46580  10.230  11.041   4.193  0.2180 -0.2335  0.0848
  346MOL0     C46581  10.286  10.962   4.097  0.0262 -0.0597  0.4128
  346MOL0     C46582  10.361  10.854   4.133  0.2345 -0.5817  0.4608
  346MOL0     O46583  10.421  10.761   4.059  0.4378 -0.0074  0.2251
  346MOL0     C46584  10.363  10.730   3.929 -0.2421 -0.7263 -1.2377
  346MOL0     C46585  10.429  10.814   3.814 -0.5357  0.0887  0.1674
  346MOL0     C46586  10.579  10.809   3.815 -0.4527 -0.0182 -0.5027
  346MOL0     C46587  10.645  10.890   3.702  0.1741  0.0525  1.2223
  346MOL0     C46588  10.796  10.890   3.721 -0.1481 -0.8906  0.7864
  346MOL0     C46589  10.849  10.747   3.709 -0.0813 -1.3750  0.4464
  346MOL0     C46590  10.998  10.726   3.701 -0.8357  0.9246 -0.2115
  346MOL0     C46591  11.073  10.812   3.598  0.5317  1.0760 -0.1885
  346MOL0     N46592  11.020  10.818   3.450  0.3377  0.5361 -0.3967
  346MOL0     C46593  10.963  10.932   3.401 -0.1086 -0.0074  0.1528
  346MOL0     C46594  10.941  10.912   3.269 -1.6936  0.7413  0.0942
  346MOL0     C46595  10.882  11.018   3.183  1.0865 -0.6663  0.2881
  346MOL0     C46596  10.800  10.956   3.066 -0.4155 -0.3375 -0.4084
  346MOL0     C46597  10.789  11.057   2.947 -0.7571  1.2941 -1.1514
  346MOL0     C46598  10.711  10.997   2.828  0.4276 -0.0849 -0.2989
  346MOL0     O46599  10.780  10.890   2.769 -0.3515  0.2532  0.2928
  346MOL0     C46600  10.721  10.813   2.667  0.4296 -0.8790  0.4907
  346MOL0     C46601  10.798  10.727   2.596 -0.2201 -0.0800 -0.9957
  346MOL0     C46602  10.756  10.649   2.495 -0.2285 -0.5161  0.1406
  346MOL0     C46603  10.839  10.535   2.434  0.2346 -0.7180 -0.2282
  346MOL0     C46604  10.625  10.672   2.447 -0.3370  0.4131  1.6623
  346MOL0     C46605  10.558  10.606   2.326 -0.3610  0.1055  0.5047
  346MOL0     O46606  10.579  10.470   2.316  0.0150  0.1013 -0.5377
  346MOL0     C46607  10.491  10.403   2.223  0.5654 -1.2090  0.0264
  346MOL0     C46608  10.385  10.315   2.253 -0.9190 -0.7253 -0.7225
  346MOL0     C46609  10.312  10.252   2.145 -0.1575  0.0968 -0.0639
  346MOL0     C46610  10.338  10.290   2.011 -0.2430 -0.0725 -0.3289
  346MOL0     O46611  10.286  10.218   1.904  0.1157  0.1317 -0.6203
  346MOL0     C46612  10.309  10.270   1.767  0.8246  0.2458 -0.1186
  346MOL0     C46613  10.194  10.217   1.673 -0.6385  0.4074 -0.4937
  346MOL0     C46614  10.223  10.073   1.636 -1.4577 -0.0179  0.6577
  346MOL0     C46615  10.140  10.025   1.521 -0.5042  1.4683 -0.1894
  346MOL0     C46616  10.165   9.879   1.484 -0.6094 -0.6407  0.6067
  346MOL0     C46617  10.041   9.836   1.402 -1.1623 -0.4719 -0.3989
  346MOL0     C46618   9.906   9.808   1.463 -0.2449 -0.5878 -0.1431
  346MOL0     C46619   9.901   9.722   1.585 -0.4389 -0.5425 -0.2859
  346MOL0    Cl46620   9.731   9.671   1.627 -0.4019  0.5453  0.3765
  346MOL0     C46621  10.445  10.378   1.986 -0.5642  0.0856  0.8186
  346MOL0     C46622  10.522  10.427   2.089 -0.0930 -0.3341  0.4214
  346MOL0     O46623  10.485  10.682   2.255  0.0997  0.0574  0.0557
  346MOL0     C46624  10.549  10.769   2.512 -0.5091 -0.4216 -0.2906
  346MOL0     C46625  10.595  10.839   2.620  0.9263  0.1038 -0.0537
  346MOL0     N46626  10.991  10.780   3.244 -1.1215 -0.5405  0.0724
  346MOL0     N46627  11.049  10.734   3.349  0.2696 -0.3010  0.4574
  346MOL0     C46628  10.367  10.835   4.269  0.5289  0.2313 -0.9015
  346MOL0     C46629  10.311  10.910   4.368 -0.2932 -0.5897 -0.3387
  346MOL0     C46630  10.056  11.210   4.590 -0.6889 -0.1815  0.3930
  346MOL0     C46631   9.968  11.283   4.509  0.1042 -0.7347 -0.0635
  346MOL0     C46632   9.872  11.367   4.568 -0.3292  1.1066  0.4201
  346MOL0     C46633   9.866  11.374   4.700 -0.2312  0.5190 -0.5756
  346MOL0     O46634   9.770  11.452   4.755  0.4935 -0.1693  0.0405
  346MOL0     C46635   9.807  11.596   4.747  1.3709  1.5269 -0.4669
  346MOL0     C46636   9.680  11.674   4.774 -0.3455 -0.3362  0.7878
  346MOL0     C46637   9.714  11.824   4.732  0.6186  0.4600 -0.2289
  346MOL0     C46638   9.651  11.860   4.592 -0.8531  0.2363  0.4605
  346MOL0     C46639   9.734  11.795   4.488  0.3306  0.2537  0.2964
  346MOL0     C46640   9.807  11.762   4.391  0.0007 -0.6326 -0.3399
  346MOL0     C46641   9.947  11.301   4.789 -0.0103  0.9883  0.3071
  346MOL0     C46642  10.049  11.224   4.734  0.5314 -1.2353  0.3983
  346MOL0     H46643  10.175  11.125   4.152 -1.8886 -1.4391  0.2855
  346MOL0     H46644  10.275  10.975   3.990  0.9550 -3.1121 -0.1485
  346MOL0     H46645  10.376  10.623   3.916 -1.3051 -1.5484  3.0023
  346MOL0     H46646  10.256  10.753   3.929 -0.6095 -2.3055 -1.7942
  346MOL0     H46647  10.388  10.782   3.718 -0.0714  0.2427 -0.0891
  346MOL0     H46648  10.402  10.920   3.823  2.0326  0.7839  0.5933
  346MOL0     H46649  10.619  10.848   3.910 -0.9925 -3.1725  1.1349
  346MOL0     H46650  10.617  10.707   3.808 -0.2221  0.1506 -2.1675
  346MOL0     H46651  10.613  10.840   3.610  1.2883 -2.4704  2.1206
  346MOL0     H46652  10.620  10.996   3.693 -1.1113 -0.1205  2.4424
  346MOL0     H46653  10.844  10.958   3.649 -2.5718 -0.2352 -0.3305
  346MOL0     H46654  10.822  10.928   3.820 -1.4966  2.3921  0.0120
  346MOL0     H46655  10.817  10.677   3.787  0.4809  0.3500  2.2852
  346MOL0     H46656  10.808  10.723   3.610 -0.3709  1.0478 -0.0745
  346MOL0     H46657  11.051  10.752   3.793  1.7725  2.9206 -2.1293
  346MOL0     H46658  11.018  10.623   3.669 -0.3339  0.5627  1.2144
  346MOL0     H46659  11.181  10.793   3.601  0.1887 -3.2109 -4.4431
  346MOL0     H46660  11.069  10.916   3.632  0.9451  0.6001  1.4249
  346MOL0     H46661  10.930  11.024   3.449  2.6789  0.2328  1.8601
  346MOL0     H46662  10.829  11.077   3.258  0.1721  0.0098 -0.8497
  346MOL0     H46663  10.964  11.075   3.140 -0.7910 -0.0249 -2.8313
  346MOL0     H46664  10.704  10.917   3.102 -0.6168  1.2875  0.9316
  346MOL0     H46665  10.858  10.873   3.024 -1.0116 -1.4618  0.9201
  346MOL0     H46666  10.893  11.072   2.916 -0.5423 -0.3599 -1.3369
  346MOL0     H46667  10.733  11.146   2.975 -0.4713  0.5013  2.3974
  346MOL0     H46668  10.692  11.074   2.752 -1.4881  0.2813  0.4820
  346MOL0     H46669  10.615  10.964   2.868  0.2200 -2.0435 -2.2032
  346MOL0     H46670  10.900  10.716   2.630 -0.3713 -0.6393 -0.7140
  346MOL0     H46671  10.812  10.433   2.461 -3.3391  0.1980  0.1918
  346MOL0     H46672  10.843  10.543   2.325 -2.9894  1.5822 -0.3495
  346MOL0     H46673  10.942  10.558   2.463 -0.2310  2.2735 -0.5480
  346MOL0     H46674  10.354  10.274   2.349  2.3896  1.3510  1.4143
  346MOL0     H46675  10.238  10.175   2.166  2.9059 -3.1725 -0.3393
  346MOL0     H46676  10.303  10.379   1.761  0.9290  0.2805  0.3491
  346MOL0     H46677  10.402  10.237   1.721  1.5049  0.5916  0.9646
  346MOL0     H46678  10.101  10.219   1.729 -0.0007  1.2744  0.5654
  346MOL0     H46679  10.190  10.274   1.579  0.4941 -0.5903 -1.1780
  346MOL0     H46680  10.196  10.003   1.716 -1.0627 -3.6041 -2.0828
  346MOL0     H46681  10.326  10.065   1.600 -2.0266 -3.1753 -0.6709
  346MOL0     H46682  10.033  10.037   1.534 -1.2297  0.4821 -4.0146
  346MOL0     H46683  10.164  10.081   1.430 -1.2024  1.7495 -0.2015
  346MOL0     H46684  10.174   9.819   1.575 -2.2271 -0.2787  1.0336
  346MOL0     H46685  10.263   9.884   1.435  0.9211 -1.0098  3.4095
  346MOL0     H46686  10.013   9.914   1.330 -0.9047  0.7281  0.7673
  346MOL0     H46687  10.083   9.746   1.357  2.6078  0.8722  0.0912
  346MOL0     H46688   9.845   9.774   1.379  0.1972  0.8105 -1.0752
  346MOL0     H46689   9.856   9.903   1.488  0.2368 -0.6148  0.9941
  346MOL0     H46690   9.949   9.766   1.673 -0.9547 -2.3319  0.9666
  346MOL0     H46691   9.955   9.633   1.552  0.7310  0.7542 -2.0456
  346MOL0     H46692  10.490  10.395   1.889  1.2878  0.3189  1.6734
  346MOL0     H46693  10.614  10.483   2.078  2.8307 -4.4563  1.6843
  346MOL0     H46694  10.451  10.784   2.468 -0.6387  0.8487  0.3617
  346MOL0     H46695  10.537  10.913   2.673 -1.2539 -1.5685  0.0531
  346MOL0     H46696  10.413  10.742   4.298 -0.7274  0.2276  1.2861
  346MOL0     H46697  10.307  10.875   4.471  0.2983 -1.6034 -0.6450
  346MOL0     H46698   9.973  11.288   4.401 -1.3781 -2.2043 -0.2504
  346MOL0     H46699   9.798  11.420   4.508 -0.7016 -0.1325 -0.2394
  346MOL0     H46700   9.878  11.622   4.826  1.5603 -4.0492  1.5887
  346MOL0     H46701   9.860  11.611   4.652 -0.8042 -0.2821 -2.0939
  346MOL0     H46702   9.660  11.655   4.880 -0.4073 -0.3839  0.7677
  346MOL0     H46703   9.585  11.650   4.725 -0.4668  0.2118  0.7455
  346MOL0     H46704   9.820  11.848   4.741  0.7954 -0.6054  0.6216
  346MOL0     H46705   9.660  11.879   4.810  1.1137  1.7884 -0.7942
  346MOL0     H46706   9.654  11.967   4.569 -2.1238  0.0851 -0.5175
  346MOL0     H46707   9.545  11.834   4.591 -1.3186  1.9873  1.2882
  346MOL0     H46708   9.881  11.740   4.318 -0.2383  0.4470 -0.9412
  346MOL0     H46709   9.923  11.309   4.894 -1.7835  1.1781 -0.0805
  346MOL0     H46710  10.121  11.182   4.804 -0.1675 -2.6750  0.2815
  347MOL0     O46711   7.653   7.809   0.853 -0.3016 -0.3443 -0.0155
  347MOL0     C46712   7.605   7.872   0.948  0.3423  0.4147 -0.9646
  347MOL0     O46713   7.474   7.862   0.986  0.1571  0.1039  0.3420
  347MOL0     C46714   7.378   7.840   0.887  0.2178  0.3222 -0.1544
  347MOL0     C46715   7.273   7.745   0.909  0.3360 -0.1655 -0.0215
  347MOL0     C46716   7.168   7.710   0.817 -0.1264 -0.1049  0.0314
  347MOL0     C46717   7.173   7.777   0.691 -0.0455  0.8999  0.0557
  347MOL0     O46718   7.068   7.776   0.603  0.1215 -1.2024 -0.1827
  347MOL0     C46719   7.098   7.738   0.470 -0.2776 -1.2834 -0.5508
  347MOL0     C46720   6.972   7.736   0.384 -0.7852 -0.6223 -1.4802
  347MOL0     C46721   6.870   7.621   0.411  0.4704 -0.8156  0.2808
  347MOL0     C46722   6.747   7.651   0.329  0.8755 -0.1506 -0.1818
  347MOL0     C46723   6.649   7.541   0.349 -0.5521 -0.5362 -0.8843
  347MOL0     C46724   6.509   7.558   0.290  1.2066  0.0422 -0.0340
  347MOL0     C46725   6.516   7.532   0.136  1.1666 -0.2070  0.9307
  347MOL0     C46726   6.381   7.518   0.074  0.5700 -0.0631 -1.0098
  347MOL0     N46727   6.399   7.479  -0.065 -0.2652 -0.1434 -0.7008
  347MOL0     C46728   6.388   7.574  -0.158 -0.3562 -0.4283  0.1425
  347MOL0     C46729   6.385   7.507  -0.275 -0.1046 -0.7898  0.2167
  347MOL0     C46730   6.403   7.545  -0.420 -0.0054  0.2193 -0.5441
  347MOL0     C46731   6.278   7.609  -0.477 -0.0657 -0.6215  0.2383
  347MOL0     C46732   6.321   7.686  -0.606  0.3933 -0.7096 -0.0205
  347MOL0     C46733   6.218   7.732  -0.705  1.5629 -0.4569 -0.0667
  347MOL0     O46734   6.287   7.815  -0.798  0.0335  0.4036 -0.4659
  347MOL0     C46735   6.258   7.953  -0.813 -1.3925  1.6449 -0.5243
  347MOL0     C46736   6.360   8.035  -0.823 -0.4542 -0.6499 -0.8742
  347MOL0     C46737   6.340   8.176  -0.841  0.6209 -0.6591  0.2177
  347MOL0     C46738   6.459   8.274  -0.841 -1.7496 -0.0897 -0.3970
  347MOL0     C46739   6.202   8.225  -0.849  0.4764  0.2021  0.0355
  347MOL0     C46740   6.165   8.374  -0.854  0.2605  0.1463 -0.4113
  347MOL0     O46741   6.024   8.398  -0.858 -0.0179  0.1397 -0.0401
  347MOL0     C46742   5.978   8.522  -0.852  0.4426  0.5926  0.4955
  347MOL0     C46743   5.856   8.540  -0.920  0.7152 -0.8079  1.1492
  347MOL0     C46744   5.802   8.671  -0.931 -0.0962 -0.8737 -0.2187
  347MOL0     C46745   5.870   8.783  -0.872  0.0602  0.0887  0.1217
  347MOL0     O46746   5.825   8.905  -0.901 -0.8267  0.6319 -0.4294
  347MOL0     C46747   5.813   8.999  -0.788 -0.0984  0.5883  1.1067
  347MOL0     C46748   5.696   9.090  -0.811 -0.5336 -0.6700  1.1384
  347MOL0     C46749   5.686   9.222  -0.720  0.4781  0.4934  0.1480
  347MOL0     C46750   5.638   9.185  -0.569 -0.8873 -0.4756 -0.0462
  347MOL0     C46751   5.677   9.306  -0.485  0.3675 -1.0862  0.7260
  347MOL0     C46752   5.593   9.321  -0.353 -0.4179 -0.3755 -0.4988
  347MOL0     C46753   5.636   9.447  -0.271 -0.4915  0.3100 -0.0031
  347MOL0     C46754   5.536   9.473  -0.155 -1.1618  0.1505  0.3565
  347MOL0    Cl46755   5.515   9.346  -0.026 -0.4566  0.0030  0.4378
  347MOL0     C46756   5.975   8.762  -0.780 -0.1369  0.4264  0.2107
  347MOL0     C46757   6.030   8.631  -0.778 -1.6731 -0.1812  0.0834
  347MOL0     O46758   6.251   8.461  -0.842 -0.5047  0.7057 -0.2865
  347MOL0     C46759   6.099   8.137  -0.817 -0.9636 -0.2670  0.3369
  347MOL0     C46760   6.132   8.006  -0.793  0.1445  0.0316  0.2600
  347MOL0     N46761   6.385   7.375  -0.239 -0.3261  0.8164  0.3081
  347MOL0     N46762   6.391   7.352  -0.114 -0.5912  0.1706  0.0861
  347MOL0     C46763   7.289   7.848   0.659 -0.0617  0.1961  0.1129
  347MOL0     C46764   7.390   7.879   0.751 -0.5704 -0.2531 -0.1774
  347MOL0     C46765   7.690   7.972   1.024 -0.5078 -0.1845 -0.5476
  347MOL0     C46766   7.824   8.001   0.985  0.5253 -0.7411  0.6061
  347MOL0     C46767   7.916   8.064   1.057  0.1447 -0.8827  0.4877
  347MOL0     C46768   7.875   8.138   1.168 -0.5265  0.4916 -0.3111
  347MOL0     O46769   7.974   8.203   1.246  0.3901  0.3232 -0.7284
  347MOL0     C46770   7.976   8.207   1.388  0.0455 -0.0105 -0.8719
  347MOL0     C46771   7.997   8.067   1.430 -0.4011 -0.1342  0.3595
  347MOL0     C46772   7.984   8.051   1.589 -0.7452  0.3771  0.7528
  347MOL0     C46773   8.122   8.046   1.662 -0.2271 -1.1855  0.1526
  347MOL0     C46774   8.184   8.178   1.649 -0.1722  1.0988  0.4030
  347MOL0     C46775   8.252   8.279   1.638  1.0532 -0.8569  1.0765
  347MOL0     C46776   7.750   8.128   1.215 -0.2565 -0.3482  0.5456
  347MOL0     C46777   7.650   8.043   1.146 -0.3794  0.5343  0.4054
  347MOL0     H46778   7.295   7.682   0.994 -0.9987 -0.7929 -0.1173
  347MOL0     H46779   7.095   7.637   0.849  1.8465 -1.4968  1.5566
  347MOL0     H46780   7.154   7.821   0.424 -3.0838 -0.4397 -2.7431
  347MOL0     H46781   7.157   7.646   0.463  2.0820  0.1958 -1.3907
  347MOL0     H46782   6.915   7.829   0.391 -1.7011 -1.1854 -1.3422
  347MOL0     H46783   6.999   7.721   0.279  1.5356  0.1318 -1.0391
  347MOL0     H46784   6.921   7.533   0.370  3.5224  1.5569 -1.4673
  347MOL0     H46785   6.846   7.621   0.517 -0.0618 -0.8420  0.1616
  347MOL0     H46786   6.699   7.744   0.360 -1.6635 -1.2755 -0.4943
  347MOL0     H46787   6.762   7.661   0.221  2.1383 -1.0609 -0.1170
  347MOL0     H46788   6.686   7.440   0.326  0.1439 -0.5029  0.0548
  347MOL0     H46789   6.636   7.533   0.457  1.5929  0.7126 -0.4756
  347MOL0     H46790   6.437   7.490   0.338  1.0316  1.4554  1.8263
  347MOL0     H46791   6.478   7.662   0.302  0.8999  0.9134 -5.6510
  347MOL0     H46792   6.569   7.620   0.097  0.8974 -0.4441  0.0110
  347MOL0     H46793   6.575   7.443   0.112 -1.1289 -1.1031 -1.8886
  347MOL0     H46794   6.331   7.615   0.071  1.8046  0.5931 -0.8221
  347MOL0     H46795   6.321   7.442   0.125  1.1089  0.9195  1.2169
  347MOL0     H46796   6.371   7.680  -0.141 -1.3343 -0.7379  1.1860
  347MOL0     H46797   6.489   7.613  -0.424  0.5382 -0.3766  0.5729
  347MOL0     H46798   6.434   7.460  -0.481  1.8908 -0.7820  1.6314
  347MOL0     H46799   6.229   7.686  -0.416 -2.5984  2.1619 -4.7193
  347MOL0     H46800   6.204   7.540  -0.516 -0.4920 -0.3302  0.5172
  347MOL0     H46801   6.373   7.608  -0.663 -1.4428 -0.3202 -2.3875
  347MOL0     H46802   6.390   7.766  -0.575  1.6787 -2.6118  2.3622
  347MOL0     H46803   6.136   7.787  -0.658 -0.2410  0.5292 -3.9535
  347MOL0     H46804   6.180   7.642  -0.754  3.5527  0.1951 -3.0812
  347MOL0     H46805   6.461   7.996  -0.830  0.5849  1.9757 -2.0071
  347MOL0     H46806   6.444   8.340  -0.755  1.3202 -1.8346  1.6988
  347MOL0     H46807   6.557   8.227  -0.825 -0.3950  2.4556 -0.6740
  347MOL0     H46808   6.459   8.332  -0.933 -1.8898  0.2868 -0.1609
  347MOL0     H46809   5.812   8.459  -0.976  0.2560 -0.5378  1.1170
  347MOL0     H46810   5.718   8.681  -0.999 -1.0270  2.1811  1.1776
  347MOL0     H46811   5.779   8.941  -0.702 -0.7939  0.8545  1.0154
  347MOL0     H46812   5.904   9.050  -0.753 -0.2486  0.4051  1.7719
  347MOL0     H46813   5.714   9.125  -0.913  2.7737 -3.6176  0.5203
  347MOL0     H46814   5.609   9.024  -0.817  1.9444 -4.0988 -2.8252
  347MOL0     H46815   5.625   9.306  -0.757  1.9546  2.3580  1.7273
  347MOL0     H46816   5.780   9.277  -0.725 -0.3909  1.9511 -2.4577
  347MOL0     H46817   5.532   9.160  -0.561 -1.0510  0.4063  0.5944
  347MOL0     H46818   5.696   9.099  -0.534 -5.1058 -2.7297  2.3083
  347MOL0     H46819   5.658   9.394  -0.547  5.1171 -1.0917 -1.1065
  347MOL0     H46820   5.784   9.305  -0.463  1.0372 -1.5792 -2.1791
  347MOL0     H46821   5.486   9.323  -0.376 -0.8237  1.2360  1.2453
  347MOL0     H46822   5.616   9.237  -0.287  0.8739  0.2500 -0.1323
  347MOL0     H46823   5.648   9.538  -0.331 -0.6743  0.6248  0.4352
  347MOL0     H46824   5.734   9.422  -0.231 -0.9559 -1.9523 -0.1256
  347MOL0     H46825   5.436   9.489  -0.196 -2.5621 -2.5522  2.3852
  347MOL0     H46826   5.570   9.563  -0.104 -2.5054 -1.2708  4.0361
  347MOL0     H46827   6.024   8.848  -0.736 -0.6947 -0.0427  1.8066
  347MOL0     H46828   6.111   8.619  -0.706 -1.1104 -2.8338 -0.8866
  347MOL0     H46829   5.998   8.176  -0.805 -0.2309  1.7385  0.4264
  347MOL0     H46830   6.042   7.953  -0.763  0.8767 -1.1296  0.4300
  347MOL0     H46831   7.297   7.882   0.556  1.5446  2.3210  0.8669
  347MOL0     H46832   7.485   7.925   0.727 -1.6772  2.4081  0.2568
  347MOL0     H46833   7.862   7.957   0.893  0.1339  5.0239 -2.7494
  347MOL0     H46834   8.023   8.064   1.034  0.0245 -0.2283 -0.1169
  347MOL0     H46835   8.065   8.266   1.410  2.5888 -3.8904  0.3606
  347MOL0     H46836   7.885   8.241   1.438  0.6518 -0.8783  0.9022
  347MOL0     H46837   8.095   8.033   1.397  0.1349 -0.4783  2.2035
  347MOL0     H46838   7.920   8.011   1.376  3.2152 -1.1081 -4.4068
  347MOL0     H46839   7.935   7.956   1.613 -0.2863 -0.2329 -0.5899
  347MOL0     H46840   7.918   8.129   1.628 -1.8333 -0.5905  0.8973
  347MOL0     H46841   8.194   7.973   1.623  0.4685 -0.6447  0.3900
  347MOL0     H46842   8.108   8.029   1.769 -0.4044 -0.7210  0.2078
  347MOL0     H46843   8.317   8.364   1.641 -0.6044  1.0023 -4.1191
  347MOL0     H46844   7.715   8.176   1.306  0.1991  1.0901  0.0034
  347MOL0     H46845   7.544   8.046   1.169 -0.5614  0.6678 -0.4193
  348MOL0     O46846   3.619   1.806  10.655 -0.9530 -0.0378  0.0919
  348MOL0     C46847   3.535   1.891  10.623  0.1041 -0.0565 -0.9444
  348MOL0     O46848   3.426   1.864  10.543  0.1466  0.7387 -0.8750
  348MOL0     C46849   3.385   1.734  10.523  0.1784  0.8634 -0.0330
  348MOL0     C46850   3.348   1.659  10.639  0.8485  0.1831  1.1053
  348MOL0     C46851   3.270   1.543  10.636 -0.4379  0.8496  0.8583
  348MOL0     C46852   3.240   1.485  10.508  0.1804  0.1936 -1.4409
  348MOL0     O46853   3.151   1.376  10.521 -0.1121  0.2838  0.0958
  348MOL0     C46854   3.153   1.293  10.404 -0.3685 -0.3641  0.2151
  348MOL0     C46855   3.081   1.162  10.452 -0.4184 -0.1798 -0.5999
  348MOL0     C46856   2.942   1.201  10.505  0.3837  0.0484 -0.4126
  348MOL0     C46857   2.878   1.068  10.542  0.9681  0.3388  0.7310
  348MOL0     C46858   2.727   1.092  10.540  0.1462  0.2199 -0.0438
  348MOL0     C46859   2.652   0.984  10.607 -1.1187 -0.3394  0.5102
  348MOL0     C46860   2.512   1.028  10.647  0.3658 -0.3674  0.1581
  348MOL0     C46861   2.493   1.133  10.752 -0.0128  0.7043 -0.0630
  348MOL0     N46862   2.554   1.100  10.883 -0.7197 -0.2542 -0.0061
  348MOL0     C46863   2.522   1.000  10.963  0.3097  0.6434 -0.6928
  348MOL0     C46864   2.587   1.015  11.076 -0.1740 -0.4606  0.1778
  348MOL0     C46865   2.606   0.927  11.195  0.7403 -0.1975  0.7946
  348MOL0     C46866   2.508   0.811  11.196 -1.1193  0.7466  0.0797
  348MOL0     C46867   2.568   0.696  11.283 -0.2757  0.0614  0.0689
  348MOL0     C46868   2.620   0.733  11.422 -0.0340  0.3168 -0.0582
  348MOL0     O46869   2.646   0.618  11.496 -0.0604  0.3400 -0.3006
  348MOL0     C46870   2.599   0.606  11.623 -0.3528  0.8330 -0.6952
  348MOL0     C46871   2.483   0.549  11.648  0.3015  0.5909  0.3869
  348MOL0     C46872   2.438   0.526  11.776 -0.7592 -0.0721 -0.1399
  348MOL0     C46873   2.306   0.471  11.790 -0.4623  0.6412 -0.1678
  348MOL0     C46874   2.533   0.541  11.893  0.2493 -0.1044 -0.1315
  348MOL0     C46875   2.501   0.511  12.035  0.1003 -0.3705 -0.2535
  348MOL0     O46876   2.577   0.583  12.126 -0.2800 -0.3571  0.2183
  348MOL0     C46877   2.571   0.537  12.255  0.0617 -0.4679  0.3178
  348MOL0     C46878   2.524   0.630  12.349 -0.2914 -0.8294 -2.1790
  348MOL0     C46879   2.519   0.590  12.490 -0.3098 -0.2532 -0.3288
  348MOL0     C46880   2.562   0.453  12.529 -1.2038 -1.2334  0.5738
  348MOL0     O46881   2.526   0.410  12.651 -0.0419 -0.2105 -0.2603
  348MOL0     C46882   2.629   0.342  12.730  0.3703  0.4743 -0.9615
  348MOL0     C46883   2.559   0.274  12.851 -0.0742  0.1445 -0.6043
  348MOL0     C46884   2.507   0.378  12.954 -0.1504 -1.0849 -0.0496
  348MOL0     C46885   2.434   0.322  13.079 -0.7663  1.1041  0.2726
  348MOL0     C46886   2.282   0.321  13.059  0.5434  0.7052  0.2667
  348MOL0     C46887   2.210   0.211  13.146 -0.1880  0.7599 -0.0863
  348MOL0     C46888   2.090   0.143  13.080  0.0222 -0.3584 -0.4842
  348MOL0     C46889   2.024   0.030  13.155  0.8401  0.6625  0.1503
  348MOL0    Cl46890   1.845   0.050  13.159 -0.9254 -0.3230  0.3446
  348MOL0     C46891   2.604   0.366  12.429  0.4780  0.2187  0.2238
  348MOL0     C46892   2.618   0.410  12.298  0.8224 -1.2942  0.7171
  348MOL0     O46893   2.425   0.422  12.064  0.1440 -0.8283 -0.3404
  348MOL0     C46894   2.659   0.599  11.868  0.0053  0.1032 -0.4191
  348MOL0     C46895   2.691   0.622  11.739  0.0675 -0.7445  0.1688
  348MOL0     N46896   2.658   1.127  11.068 -0.6198 -0.2089  0.4965
  348MOL0     N46897   2.646   1.179  10.956  0.7652  0.2066  0.7709
  348MOL0     C46898   3.283   1.552  10.388 -0.0025  0.2631 -0.3309
  348MOL0     C46899   3.341   1.686  10.403  0.1373  0.6781 -0.6887
  348MOL0     C46900   3.565   2.027  10.685  0.2517  1.2495  0.6013
  348MOL0     C46901   3.660   2.035  10.786  1.4109 -0.0154  0.2030
  348MOL0     C46902   3.700   2.161  10.815 -0.5178 -1.4128 -0.0718
  348MOL0     C46903   3.652   2.280  10.764  1.3412  0.3970 -0.1358
  348MOL0     O46904   3.698   2.406  10.806 -0.5824  1.1349  0.1371
  348MOL0     C46905   3.714   2.508  10.707 -0.4066  0.0490 -0.2943
  348MOL0     C46906   3.681   2.640  10.768  0.4792 -0.1658  0.3268
  348MOL0     C46907   3.774   2.665  10.894  0.1935 -0.2039  0.1903
  348MOL0     C46908   3.745   2.800  10.963 -0.0881  1.5043 -0.7555
  348MOL0     C46909   3.810   2.813  11.098  0.6613  0.3927  0.2408
  348MOL0     C46910   3.874   2.823  11.201  0.3597  0.1007 -0.7071
  348MOL0     C46911   3.547   2.259  10.669 -0.7121 -0.3674 -0.2131
  348MOL0     C46912   3.508   2.136  10.618 -0.0715  0.2920 -0.0752
  348MOL0     H46913   3.380   1.698  10.736  1.7560  1.1927  0.4208
  348MOL0     H46914   3.234   1.490  10.724 -1.7865 -1.6637 -1.0585
  348MOL0     H46915   3.108   1.333  10.313  0.9215 -0.5720 -0.5233
  348MOL0     H46916   3.258   1.275  10.378 -0.8312 -0.0737 -2.0374
  348MOL0     H46917   3.081   1.084  10.375 -0.6435  0.7511 -1.5609
  348MOL0     H46918   3.147   1.140  10.536 -0.8358 -0.3650 -0.3193
  348MOL0     H46919   2.947   1.275  10.585  0.8352 -2.0454  1.6004
  348MOL0     H46920   2.885   1.240  10.420 -0.0371 -1.2967 -0.7802
  348MOL0     H46921   2.911   0.981  10.483  1.1943 -0.5444  2.1047
  348MOL0     H46922   2.897   1.055  10.649 -4.8732  0.4778  2.1660
  348MOL0     H46923   2.715   1.183  10.599  0.1839 -1.8353  3.4523
  348MOL0     H46924   2.683   1.091  10.440  3.9409 -1.1042 -1.8668
  348MOL0     H46925   2.655   0.892  10.548 -1.4340  0.6286 -1.1040
  348MOL0     H46926   2.709   0.969  10.698 -0.0413  1.7318  0.2500
  348MOL0     H46927   2.454   1.062  10.560 -2.1579 -1.7985  1.1799
  348MOL0     H46928   2.470   0.934  10.684 -0.0507  0.6946  2.5934
  348MOL0     H46929   2.387   1.154  10.768  0.0770  2.8033 -1.7111
  348MOL0     H46930   2.534   1.227  10.713 -1.5830  1.1583 -0.6766
  348MOL0     H46931   2.459   0.912  10.950  1.3629  0.1480 -2.9714
  348MOL0     H46932   2.708   0.887  11.197  0.3870 -1.1367  0.4581
  348MOL0     H46933   2.589   0.984  11.287 -1.7863 -0.4725  0.5786
  348MOL0     H46934   2.494   0.766  11.097  0.3770  2.2739 -0.8713
  348MOL0     H46935   2.412   0.852  11.229 -2.2216 -0.6860 -1.2011
  348MOL0     H46936   2.662   0.670  11.235  1.3019  0.7247  2.6104
  348MOL0     H46937   2.504   0.607  11.288  0.0891 -0.3565 -1.8510
  348MOL0     H46938   2.532   0.776  11.472 -0.6853 -0.4895 -0.4923
  348MOL0     H46939   2.707   0.798  11.410  2.4547 -2.8303 -0.4438
  348MOL0     H46940   2.413   0.544  11.565  1.4376  1.2678 -0.6605
  348MOL0     H46941   2.317   0.385  11.857  2.3410  0.2662 -0.9980
  348MOL0     H46942   2.229   0.538  11.829 -0.6186  0.4897 -0.2132
  348MOL0     H46943   2.270   0.436  11.693  2.4205 -0.0011 -1.0918
  348MOL0     H46944   2.493   0.731  12.324 -0.8856 -0.4655 -0.1762
  348MOL0     H46945   2.474   0.656  12.564  0.6842 -1.1885  1.1922
  348MOL0     H46946   2.665   0.259  12.668  0.9945  1.6595 -2.2176
  348MOL0     H46947   2.703   0.414  12.763 -1.9017  1.3942  2.8221
  348MOL0     H46948   2.473   0.211  12.827  0.3386 -0.9130  0.5565
  348MOL0     H46949   2.633   0.211  12.901 -1.7228 -0.4403  1.2227
  348MOL0     H46950   2.443   0.450  12.902  1.2155  0.8758  0.8553
  348MOL0     H46951   2.588   0.442  12.990  0.7053 -0.6508 -2.5475
  348MOL0     H46952   2.485   0.231  13.112  1.5167  1.3607 -2.1594
  348MOL0     H46953   2.458   0.385  13.165  2.3774  0.5531 -0.0697
  348MOL0     H46954   2.269   0.312  12.951  0.5130  0.3781  0.2961
  348MOL0     H46955   2.246   0.414  13.105  0.4705  0.2766  1.1034
  348MOL0     H46956   2.279   0.135  13.184 -2.2590  0.3557  3.3051
  348MOL0     H46957   2.179   0.267  13.235 -3.2281 -2.7008  1.2919
  348MOL0     H46958   2.115   0.102  12.982 -1.5627  0.8287 -1.4396
  348MOL0     H46959   2.029   0.231  13.061  1.3565  1.1942  1.9084
  348MOL0     H46960   2.067   0.031  13.256 -1.6656  2.9349  1.3151
  348MOL0     H46961   2.037  -0.070  13.112  2.2189 -0.0113  1.9883
  348MOL0     H46962   2.648   0.270  12.456  3.4741  1.4659  0.2048
  348MOL0     H46963   2.660   0.350  12.218 -0.0611 -2.8777  1.3866
  348MOL0     H46964   2.735   0.623  11.941  0.4155  0.5616 -0.9923
  348MOL0     H46965   2.788   0.656  11.705  0.2280  0.4118  1.6807
  348MOL0     H46966   3.257   1.513  10.290 -1.5582 -0.7807  0.4618
  348MOL0     H46967   3.352   1.741  10.310 -0.0014  0.4068 -0.8664
  348MOL0     H46968   3.719   1.953  10.826  1.6088  0.5889  1.1798
  348MOL0     H46969   3.770   2.159  10.898  2.1308  1.3879 -1.9763
  348MOL0     H46970   3.819   2.513  10.678  0.0747  1.8247  1.4604
  348MOL0     H46971   3.663   2.482  10.613  0.0189  3.2558 -1.5490
  348MOL0     H46972   3.576   2.656  10.797  0.6103  2.6572 -0.4371
  348MOL0     H46973   3.700   2.709  10.686  1.0965  0.2684  0.8215
  348MOL0     H46974   3.877   2.679  10.860 -0.5424  4.0908 -0.7300
  348MOL0     H46975   3.796   2.593  10.973  2.1021  2.3760  2.1675
  348MOL0     H46976   3.637   2.811  10.977 -0.4070  1.4809 -2.9207
  348MOL0     H46977   3.765   2.882  10.894 -0.0416  2.9117  0.8605
  348MOL0     H46978   3.918   2.804  11.297  6.2957  3.4722 -2.2317
  348MOL0     H46979   3.498   2.345  10.625  0.6982  1.0609  0.9202
  348MOL0     H46980   3.438   2.125  10.536  2.6769  2.4918 -2.9521
  349MOL0     O46981   1.544  10.730   2.223  0.8144  0.6040 -0.0619
  349MOL0     C46982   1.601  10.627   2.174  0.6482 -0.8390 -0.7872
  349MOL0     O46983   1.549  10.554   2.073  0.2418  0.1910 -0.3603
  349MOL0     C46984   1.488  10.627   1.973  0.6851  0.1216 -0.7264
  349MOL0     C46985   1.362  10.576   1.914  0.0325  0.0094 -0.5293
  349MOL0     C46986   1.287  10.666   1.828 -0.0607 -1.5041  1.1564
  349MOL0     C46987   1.320  10.805   1.825 -0.5478  0.2665 -0.5499
  349MOL0     O46988   1.254  10.908   1.766  0.3887  0.0179  0.4458
  349MOL0     C46989   1.121  10.896   1.722  0.0841  0.2343  0.1547
  349MOL0     C46990   1.076  11.043   1.744 -0.1406  0.2275 -0.3339
  349MOL0     C46991   0.938  11.055   1.695  0.0663  0.4730 -0.3139
  349MOL0     C46992   0.893  11.198   1.680  0.8752 -0.7499 -0.5829
  349MOL0     C46993   0.911  11.290   1.801  0.7420  0.6036 -0.4645
  349MOL0     C46994   0.838  11.425   1.776 -0.4936  0.3563 -0.3416
  349MOL0     C46995   0.847  11.518   1.891  0.0487  0.0238  0.3306
  349MOL0     C46996   0.995  11.566   1.925 -0.3468  0.3086  0.4810
  349MOL0     N46997   1.049  11.657   1.821 -0.4163 -0.6065 -0.0502
  349MOL0     C46998   1.064  11.794   1.840 -0.2425 -0.6566 -0.3894
  349MOL0     C46999   1.150  11.831   1.734  0.1766  0.5856  1.0573
  349MOL0     C47000   1.205  11.968   1.727  0.0231 -0.8651  0.3200
  349MOL0     C47001   1.326  11.974   1.633  0.3050  0.0822 -0.6851
  349MOL0     C47002   1.323  12.105   1.547  0.0314 -0.2990 -0.0281
  349MOL0     C47003   1.466  12.113   1.488 -0.2675 -0.3202 -0.2745
  349MOL0     O47004   1.519  12.247   1.486 -0.5616  0.0228  0.1656
  349MOL0     C47005   1.483  12.333   1.383  0.0994  0.4658  0.7244
  349MOL0     C47006   1.459  12.469   1.404 -0.1837  0.9630  0.8320
  349MOL0     C47007   1.424  12.555   1.299 -0.4056  0.0105 -0.8701
  349MOL0     C47008   1.421  12.698   1.335  0.0084  0.2901 -0.8723
  349MOL0     C47009   1.400  12.510   1.169 -0.4928 -0.4546 -0.2335
  349MOL0     C47010   1.350  12.594   1.053 -1.4018  0.1235 -0.0507
  349MOL0     O47011   1.314  12.535   0.941  0.3410 -0.3428 -0.4631
  349MOL0     C47012   1.279  12.611   0.839 -0.5123 -2.1382 -0.5532
  349MOL0     C47013   1.365  12.624   0.730  0.9460  0.1036  0.7445
  349MOL0     C47014   1.326  12.705   0.624 -0.0156 -0.2350 -0.5416
  349MOL0     C47015   1.197  12.763   0.622  0.5847 -0.1720  0.0022
  349MOL0     O47016   1.144  12.847   0.523 -0.3499  0.6254  0.3565
  349MOL0     C47017   1.209  12.911   0.413 -0.5267  0.3339 -0.1821
  349MOL0     C47018   1.162  13.051   0.406 -0.8255  0.0954  0.3224
  349MOL0     C47019   1.227  13.147   0.509 -1.2211 -0.0856  0.2080
  349MOL0     C47020   1.183  13.291   0.482  0.0406 -0.0154  1.6895
  349MOL0     C47021   1.287  13.404   0.516  0.3994  0.7100 -0.0179
  349MOL0     C47022   1.331  13.403   0.661 -1.3225  0.6550 -0.4442
  349MOL0     C47023   1.406  13.531   0.699  1.4052 -0.7890 -0.5221
  349MOL0     C47024   1.491  13.603   0.590 -0.6933  0.8777  0.6491
  349MOL0    Cl47025   1.532  13.775   0.634  0.0464  0.3215 -0.4375
  349MOL0     C47026   1.114  12.739   0.731  0.2293 -0.4258 -0.5396
  349MOL0     C47027   1.150  12.668   0.849 -0.0193 -1.7612 -0.5150
  349MOL0     O47028   1.370  12.715   1.070 -0.5538 -0.0096  0.3567
  349MOL0     C47029   1.412  12.370   1.155  0.5654  0.3581 -0.3003
  349MOL0     C47030   1.448  12.288   1.254 -0.4963 -0.1404 -0.5269
  349MOL0     N47031   1.185  11.711   1.665  0.0980 -0.0275 -0.1938
  349MOL0     N47032   1.114  11.619   1.716 -0.0359 -0.0701  0.1236
  349MOL0     C47033   1.448  10.839   1.875  0.9248 -0.4103  0.1577
  349MOL0     C47034   1.533  10.762   1.949 -0.0224  0.2427 -0.4310
  349MOL0     C47035   1.708  10.573   2.257  0.3589  0.3576 -0.1540
  349MOL0     C47036   1.756  10.445   2.230 -0.1104 -0.0802  1.1052
  349MOL0     C47037   1.854  10.392   2.313  0.2208 -0.1393  0.1954
  349MOL0     C47038   1.897  10.455   2.435  0.7126  0.7985  0.6839
  349MOL0     O47039   1.993  10.402   2.516  0.2354 -0.1612 -0.0198
  349MOL0     C47040   2.104  10.323   2.469  0.3942 -0.0115  0.9807
  349MOL0     C47041   2.200  10.292   2.580  0.7428 -0.7141 -0.1155
  349MOL0     C47042   2.335  10.224   2.538  0.0277  0.1193  0.2276
  349MOL0     C47043   2.424  10.217   2.656  0.8580  0.3515  0.5702
  349MOL0     C47044   2.519  10.329   2.665  0.1359  0.1744  0.2861
  349MOL0     C47045   2.585  10.437   2.673  0.2583  0.8159  0.0308
  349MOL0     C47046   1.843  10.580   2.468 -0.4886 -0.0778  0.6125
  349MOL0     C47047   1.749  10.640   2.381 -0.2875 -0.2618  0.3831
  349MOL0     H47048   1.322  10.476   1.929 -0.1224  0.2539  0.8713
  349MOL0     H47049   1.195  10.642   1.776  0.7985  0.0607 -1.2285
  349MOL0     H47050   1.118  10.878   1.614 -3.2222  0.3172  0.1135
  349MOL0     H47051   1.067  10.821   1.781  1.6006 -0.4436  0.7048
  349MOL0     H47052   1.081  11.065   1.852 -0.0001 -0.7414 -0.1367
  349MOL0     H47053   1.139  11.119   1.697  1.5469 -1.9865 -1.8188
  349MOL0     H47054   0.927  10.996   1.603 -0.4521 -0.2294  0.1811
  349MOL0     H47055   0.881  10.991   1.764 -1.3748  0.7713 -1.1890
  349MOL0     H47056   0.940  11.248   1.595  4.4496 -0.9157  1.0818
  349MOL0     H47057   0.785  11.195   1.666  0.0887  0.1111  3.7719
  349MOL0     H47058   0.867  11.239   1.887 -3.3909 -2.0097 -3.7346
  349MOL0     H47059   1.015  11.319   1.823  0.3600  0.0960  2.3809
  349MOL0     H47060   0.888  11.483   1.698 -1.5295  4.3533  1.7277
  349MOL0     H47061   0.734  11.398   1.751 -1.0640 -1.1896  3.0898
  349MOL0     H47062   0.786  11.606   1.865 -0.9684 -1.5953 -3.5067
  349MOL0     H47063   0.796  11.480   1.979  0.7634  0.7308  1.0705
  349MOL0     H47064   1.059  11.478   1.936 -4.3203 -3.6027 -3.3921
  349MOL0     H47065   1.001  11.613   2.024  2.4828 -4.1586  2.7408
  349MOL0     H47066   1.039  11.856   1.926  0.5857  1.9497 -1.8988
  349MOL0     H47067   1.131  12.044   1.700  2.2581  1.4815  0.3555
  349MOL0     H47068   1.239  11.985   1.829  0.2922  0.7470 -0.0186
  349MOL0     H47069   1.351  11.885   1.574  1.5607  0.1149 -0.2422
  349MOL0     H47070   1.411  11.984   1.702 -0.2165  2.7065 -0.3162
  349MOL0     H47071   1.310  12.188   1.617  2.6720 -1.1676  1.6512
  349MOL0     H47072   1.257  12.100   1.460 -1.1957  3.5008  0.4965
  349MOL0     H47073   1.480  12.063   1.392 -0.2440 -1.3043  0.2373
  349MOL0     H47074   1.535  12.057   1.551 -0.8375 -1.0998 -0.3324
  349MOL0     H47075   1.473  12.509   1.504  2.4780  0.4609  0.7461
  349MOL0     H47076   1.416  12.721   1.442  2.7663  2.2587 -1.0636
  349MOL0     H47077   1.498  12.761   1.290  1.0430 -1.3972 -1.5374
  349MOL0     H47078   1.319  12.727   1.309 -0.6933 -1.7699 -0.5771
  349MOL0     H47079   1.459  12.571   0.719  0.3423 -0.5360 -1.9099
  349MOL0     H47080   1.390  12.719   0.538 -1.3226 -0.1117 -1.5242
  349MOL0     H47081   1.317  12.923   0.430 -1.1661  4.0097  2.4830
  349MOL0     H47082   1.186  12.868   0.315 -2.7060  0.3035  0.2925
  349MOL0     H47083   1.173  13.091   0.304 -2.1777 -0.3703 -0.0238
  349MOL0     H47084   1.054  13.034   0.417 -0.9424 -0.2374 -1.1142
  349MOL0     H47085   1.336  13.146   0.515 -1.2919 -1.0846  4.2919
  349MOL0     H47086   1.188  13.124   0.609 -1.6776  2.5451  0.6994
  349MOL0     H47087   1.172  13.297   0.373 -0.1082  0.2626  1.7210
  349MOL0     H47088   1.084  13.309   0.526 -1.4421  0.7533 -1.6572
  349MOL0     H47089   1.229  13.493   0.490  1.3911  0.8275 -1.9900
  349MOL0     H47090   1.372  13.407   0.447  1.2291 -1.4592  0.8369
  349MOL0     H47091   1.242  13.401   0.723  0.4998 -0.8355  2.3377
  349MOL0     H47092   1.399  13.319   0.674 -1.1386  0.8321 -0.2378
  349MOL0     H47093   1.484  13.506   0.771  1.4817 -3.4154 -1.3966
  349MOL0     H47094   1.338  13.598   0.752  1.5162 -0.6140 -0.6010
  349MOL0     H47095   1.431  13.621   0.500  1.9659  0.8585 -1.2495
  349MOL0     H47096   1.581  13.548   0.563 -1.4192 -0.7262  1.3153
  349MOL0     H47097   1.023  12.797   0.735  1.7649  2.0255  1.4752
  349MOL0     H47098   1.074  12.660   0.927 -1.6171 -4.5959 -2.1859
  349MOL0     H47099   1.385  12.326   1.060  0.4282 -2.0210  0.7854
  349MOL0     H47100   1.458  12.182   1.234 -0.1700  0.3120 -2.9777
  349MOL0     H47101   1.474  10.942   1.855  2.3855 -0.8890 -0.6069
  349MOL0     H47102   1.622  10.810   1.988  0.3991 -1.9271  1.4480
  349MOL0     H47103   1.724  10.387   2.145 -0.5437 -1.7181  2.3245
  349MOL0     H47104   1.897  10.296   2.285  1.1399  0.3792 -0.2017
  349MOL0     H47105   2.068  10.231   2.421  1.0374  0.5954 -0.7584
  349MOL0     H47106   2.157  10.381   2.393 -1.0106 -0.4577 -0.4149
  349MOL0     H47107   2.140  10.224   2.640 -1.6285  0.8479 -0.5775
  349MOL0     H47108   2.206  10.388   2.634 -2.9689 -0.0056 -0.7039
  349MOL0     H47109   2.382  10.282   2.458 -0.9226 -1.7009 -1.7656
  349MOL0     H47110   2.321  10.118   2.512  0.4355 -0.2148  1.3192
  349MOL0     H47111   2.475  10.121   2.659  0.0593 -0.0756  0.7033
  349MOL0     H47112   2.361  10.215   2.746  1.6613  2.6461  1.2704
  349MOL0     H47113   2.643  10.521   2.704  0.8912 -0.3985  2.3180
  349MOL0     H47114   1.882  10.628   2.557  2.2645  1.2003 -1.1425
  349MOL0     H47115   1.697  10.734   2.399  1.0197  0.1646  2.1461
  350MOL0     O47116  10.812   8.348   9.689  0.1609  0.2185 -0.4802
  350MOL0     C47117  10.803   8.255   9.766 -0.0622 -0.0739 -0.4001
  350MOL0     O47118  10.703   8.223   9.851 -0.0847  0.0556  0.2478
  350MOL0     C47119  10.612   8.313   9.889  0.3695  0.2399 -0.1601
  350MOL0     C47120  10.610   8.354  10.021 -0.1376  0.9431 -0.3072
  350MOL0     C47121  10.503   8.430  10.075 -0.6474 -0.1588  0.0053
  350MOL0     C47122  10.417   8.502   9.983  0.0130 -1.0666  0.2801
  350MOL0     O47123  10.314   8.577  10.024  0.3720 -0.6689  0.2898
  350MOL0     C47124  10.311   8.628  10.157 -0.3911  0.6143  0.4102
  350MOL0     C47125  10.229   8.750  10.157 -0.5161  0.5894 -0.2484
  350MOL0     C47126  10.075   8.724  10.157 -0.0524 -0.8515 -0.1968
  350MOL0     C47127   9.998   8.855  10.156  0.8796 -0.2423  0.2984
  350MOL0     C47128   9.841   8.826  10.135  0.1465 -0.1170  0.2249
  350MOL0     C47129   9.762   8.770  10.259  0.0243  0.0401  0.1208
  350MOL0     C47130   9.766   8.871  10.378 -0.8349 -0.9911  0.6562
  350MOL0     C47131   9.728   8.798  10.503  0.4586  0.2950 -0.6396
  350MOL0     N47132   9.587   8.737  10.501 -0.2783 -0.5997  0.1974
  350MOL0     C47133   9.475   8.784  10.440  0.1516 -0.6721  0.9106
  350MOL0     C47134   9.379   8.712  10.500 -0.1702  0.5584  0.9945
  350MOL0     C47135   9.230   8.723  10.482 -0.5715  0.0052 -0.3372
  350MOL0     C47136   9.189   8.627  10.369  0.1509  0.1068  0.4771
  350MOL0     C47137   9.198   8.478  10.405 -0.0628  0.4249  0.3852
  350MOL0     C47138   9.146   8.383  10.291  0.0728 -0.4771 -0.2878
  350MOL0     O47139   9.013   8.411  10.251  0.1783  0.1721 -0.0484
  350MOL0     C47140   8.973   8.384  10.121 -0.3103  0.5986  0.1213
  350MOL0     C47141   8.850   8.415  10.077 -0.1143  0.5189  0.9408
  350MOL0     C47142   8.793   8.375   9.950 -0.0652 -0.5524  0.2729
  350MOL0     C47143   8.648   8.404   9.917  0.2428 -0.1147 -0.1344
  350MOL0     C47144   8.873   8.291   9.864  0.2566 -0.4758  1.2871
  350MOL0     C47145   8.839   8.246   9.729  0.6136 -0.3811  0.0994
  350MOL0     O47146   8.940   8.226   9.636 -0.2258 -0.3880 -0.1002
  350MOL0     C47147   8.904   8.190   9.513 -0.8524 -0.1407  0.6013
  350MOL0     C47148   8.892   8.057   9.472  0.4397 -1.0502 -0.0453
  350MOL0     C47149   8.870   8.033   9.337 -0.7517 -0.9296 -1.3467
  350MOL0     C47150   8.848   8.132   9.239  0.0739 -0.0649 -0.6609
  350MOL0     O47151   8.824   8.097   9.109  0.2173  0.5213  0.0560
  350MOL0     C47152   8.843   7.962   9.057 -0.3773 -0.7985 -0.8122
  350MOL0     C47153   8.859   7.966   8.905 -0.5334  0.4529  0.3740
  350MOL0     C47154   8.839   7.828   8.846  0.3825  0.6774 -0.1279
  350MOL0     C47155   8.900   7.807   8.707 -0.1522  0.4125  0.5133
  350MOL0     C47156   8.840   7.681   8.642  0.6871  0.2415  0.7160
  350MOL0     C47157   8.889   7.659   8.490  0.4062 -0.5065  0.6632
  350MOL0     C47158   9.038   7.633   8.465  0.5168  0.1042 -0.2461
  350MOL0     C47159   9.097   7.510   8.536  0.5635  0.0690  1.1403
  350MOL0    Cl47160   9.082   7.360   8.439 -0.2606 -0.3583  0.2163
  350MOL0     C47161   8.838   8.259   9.281  0.1190 -0.6140 -0.0091
  350MOL0     C47162   8.886   8.295   9.415 -0.4830  0.3811  1.2455
  350MOL0     O47163   8.713   8.228   9.704 -0.2853 -0.1731 -0.3195
  350MOL0     C47164   8.998   8.257   9.912 -0.4649 -0.0596  0.2114
  350MOL0     C47165   9.049   8.313  10.029 -0.3922  0.1090 -0.0851
  350MOL0     N47166   9.428   8.618  10.584 -0.1051 -0.2217 -0.5177
  350MOL0     N47167   9.552   8.650  10.597  0.2546 -0.8114  0.0462
  350MOL0     C47168  10.425   8.469   9.846 -0.0121  0.8202 -0.2609
  350MOL0     C47169  10.513   8.362   9.804 -0.0216 -1.1537  0.9359
  350MOL0     C47170  10.908   8.155   9.754 -0.3593  0.9606 -0.4730
  350MOL0     C47171  11.016   8.181   9.670  0.0227  0.4183 -0.5904
  350MOL0     C47172  11.119   8.091   9.650  0.2699 -0.0853  0.4322
  350MOL0     C47173  11.114   7.969   9.718  0.2876  0.6771 -0.4840
  350MOL0     O47174  11.200   7.859   9.707  0.5669  0.4278 -0.4129
  350MOL0     C47175  11.329   7.864   9.645  0.0842  0.3132  0.3132
  350MOL0     C47176  11.430   7.934   9.726 -0.5711 -0.0728 -0.6949
  350MOL0     C47177  11.444   7.883   9.870 -0.4028  0.2214 -0.6833
  350MOL0     C47178  11.540   7.965   9.957  0.2458 -0.5867 -0.4826
  350MOL0     C47179  11.681   7.968   9.931 -1.5216 -0.4895 -0.1501
  350MOL0     C47180  11.803   7.965   9.912  0.2378 -0.6914 -0.0557
  350MOL0     C47181  11.003   7.933   9.789  1.2740  0.3090 -0.1068
  350MOL0     C47182  10.900   8.027   9.819 -0.2430  0.2899 -0.3909
  350MOL0     H47183  10.688   8.308  10.082 -1.3371  3.5686  3.6070
  350MOL0     H47184  10.499   8.449  10.181 -3.2267 -0.7510  0.0870
  350MOL0     H47185  10.271   8.550  10.222 -3.2205  0.4931 -1.3499
  350MOL0     H47186  10.405   8.656  10.207  1.7388 -2.3457 -1.5803
  350MOL0     H47187  10.239   8.800  10.254  1.2093 -2.3217  1.2304
  350MOL0     H47188  10.269   8.810  10.075  2.0766 -1.4490 -0.5854
  350MOL0     H47189  10.052   8.678  10.060  3.9264  1.6969 -2.6842
  350MOL0     H47190  10.040   8.666  10.242  0.3842 -0.2369  0.4195
  350MOL0     H47191  10.012   8.903  10.253  0.9307  0.9496 -0.2761
  350MOL0     H47192  10.047   8.916  10.079  0.7967 -0.9120 -0.2959
  350MOL0     H47193   9.800   8.924  10.110  1.3945  1.6766  4.2759
  350MOL0     H47194   9.819   8.746  10.064 -0.7761  0.7168 -0.4568
  350MOL0     H47195   9.665   8.766  10.210  0.5050  2.9375 -1.2835
  350MOL0     H47196   9.793   8.668  10.286  0.4722  0.7867  2.7223
  350MOL0     H47197   9.864   8.918  10.390 -1.7427  1.7806 -1.4715
  350MOL0     H47198   9.698   8.954  10.357  0.8172  0.4228  0.7055
  350MOL0     H47199   9.738   8.862  10.592 -2.2705  0.2410 -0.1970
  350MOL0     H47200   9.798   8.715  10.510  0.6465  0.1736 -3.1002
  350MOL0     H47201   9.472   8.855  10.357 -0.2013 -2.5724 -0.7737
  350MOL0     H47202   9.181   8.695  10.575  1.1165  2.1279  1.3053
  350MOL0     H47203   9.203   8.824  10.452 -2.2187 -0.1638  0.5012
  350MOL0     H47204   9.263   8.633  10.289  0.6334 -1.1185  0.8087
  350MOL0     H47205   9.090   8.659  10.337 -0.2588 -0.1660  1.4463
  350MOL0     H47206   9.131   8.466  10.491 -0.5697  1.6435  0.1822
  350MOL0     H47207   9.301   8.447  10.427 -0.3882 -1.2900 -0.3665
  350MOL0     H47208   9.157   8.278  10.320 -2.5324 -0.1233  2.5740
  350MOL0     H47209   9.211   8.406  10.206  1.2861 -1.5574  0.3179
  350MOL0     H47210   8.783   8.479  10.133 -0.0263 -0.0209  1.6767
  350MOL0     H47211   8.605   8.474   9.988  2.0980 -0.9344  1.9444
  350MOL0     H47212   8.639   8.450   9.818 -3.6677 -1.2221 -0.4330
  350MOL0     H47213   8.580   8.319   9.911 -0.3679  0.2170  1.6229
  350MOL0     H47214   8.910   7.976   9.542  0.5392 -1.1571 -0.1960
  350MOL0     H47215   8.879   7.929   9.308 -0.1587 -1.8297  1.7966
  350MOL0     H47216   8.933   7.928   9.110 -2.8918  0.1540  4.7988
  350MOL0     H47217   8.761   7.903   9.098 -0.5255 -0.8110 -1.1235
  350MOL0     H47218   8.772   8.026   8.875  0.6970  2.5909  0.8357
  350MOL0     H47219   8.954   8.000   8.863 -1.0017  1.4063  0.0445
  350MOL0     H47220   8.735   7.798   8.836  1.9041 -5.0501 -3.1440
  350MOL0     H47221   8.882   7.752   8.912  2.0746  1.7337  0.0601
  350MOL0     H47222   8.857   7.892   8.653 -2.0943 -0.3372  0.7899
  350MOL0     H47223   9.009   7.799   8.711 -0.1755  0.6250  3.1343
  350MOL0     H47224   8.732   7.692   8.649  0.4628 -1.3976  0.3047
  350MOL0     H47225   8.872   7.604   8.712  1.3534  1.3107  1.6258
  350MOL0     H47226   8.833   7.579   8.441  0.2482  0.0281 -0.0469
  350MOL0     H47227   8.862   7.754   8.442 -0.3002 -1.9589 -2.0066
  350MOL0     H47228   9.087   7.723   8.504  1.4508 -0.6909  0.4369
  350MOL0     H47229   9.048   7.619   8.357 -2.9090  1.1003 -0.8171
  350MOL0     H47230   9.049   7.495   8.634 -1.2992 -1.3439  0.0669
  350MOL0     H47231   9.207   7.510   8.541  1.1528  0.0260 -4.8274
  350MOL0     H47232   8.811   8.334   9.207 -1.0893 -0.0633  0.9556
  350MOL0     H47233   8.899   8.397   9.448  0.7392  1.3104 -1.7885
  350MOL0     H47234   9.062   8.198   9.847  0.4772 -0.5408  1.5218
  350MOL0     H47235   9.150   8.281  10.053 -0.9646 -0.6789  1.4384
  350MOL0     H47236  10.359   8.519   9.777 -0.8919 -2.3322 -1.8876
  350MOL0     H47237  10.514   8.335   9.698 -0.3170 -1.6727  1.0639
  350MOL0     H47238  11.025   8.280   9.626 -4.4665  2.2050  1.9182
  350MOL0     H47239  11.197   8.113   9.577  0.6681 -1.2717  0.4709
  350MOL0     H47240  11.365   7.761   9.637  1.4004  0.4167  3.6707
  350MOL0     H47241  11.322   7.906   9.544 -0.7212  0.6251  0.4958
  350MOL0     H47242  11.403   8.040   9.732 -0.2978 -0.0818  1.8036
  350MOL0     H47243  11.533   7.931   9.688  0.9781 -2.4410  3.0605
  350MOL0     H47244  11.468   7.776   9.872 -1.2650 -0.1312 -3.9440
  350MOL0     H47245  11.350   7.896   9.924  0.3127  4.1527 -0.0805
  350MOL0     H47246  11.521   7.933  10.060  1.0206  1.6139  0.4086
  350MOL0     H47247  11.520   8.072   9.946 -0.4442 -0.8850 -2.4184
  350MOL0     H47248  11.907   7.946   9.895 -0.0497 -0.9489 -1.6683
  350MOL0     H47249  10.998   7.832   9.828 -0.8478  1.4137  2.7791
  350MOL0     H47250  10.807   8.002   9.869 -0.5762  1.4093 -0.4397
  351MOL0     O47251   3.133   3.318  10.721  0.0308  0.2403 -0.1434
  351MOL0     C47252   3.212   3.354  10.801  0.3248  0.6345 -0.1545
  351MOL0     O47253   3.226   3.308  10.924  0.4631 -0.2804  0.4760
  351MOL0     C47254   3.138   3.222  10.969  0.3247  0.6300 -0.5390
  351MOL0     C47255   3.003   3.257  10.988 -0.0961 -1.0728 -0.0184
  351MOL0     C47256   2.908   3.163  11.049  0.3677  0.5174 -0.0979
  351MOL0     C47257   2.946   3.036  11.097 -0.3133 -0.1424 -0.0116
  351MOL0     O47258   2.856   2.940  11.156  0.6833 -0.5120  0.4715
  351MOL0     C47259   2.868   2.817  11.084  0.0184  0.0448 -0.9605
  351MOL0     C47260   2.740   2.730  11.108 -0.3321  0.6280  0.2099
  351MOL0     C47261   2.620   2.774  11.045  0.4640 -0.1996  0.5053
  351MOL0     C47262   2.498   2.686  11.089 -0.4086 -0.2155  0.4544
  351MOL0     C47263   2.362   2.724  11.017 -0.0633 -0.3069  0.2974
  351MOL0     C47264   2.236   2.673  11.083 -0.2670  0.7383  0.0962
  351MOL0     C47265   2.103   2.736  11.019  0.4937  0.2059  0.6996
  351MOL0     C47266   2.079   2.665  10.882  0.6174 -0.8946  0.0576
  351MOL0     N47267   2.044   2.518  10.897 -0.4774  0.5209  0.8345
  351MOL0     C47268   1.995   2.458  11.010  0.2997 -0.5574 -0.6758
  351MOL0     C47269   2.017   2.323  10.983  0.7070 -0.2492  0.1723
  351MOL0     C47270   2.012   2.202  11.082 -0.3333 -0.0345  0.3351
  351MOL0     C47271   2.110   2.225  11.196  0.0942 -0.7011  0.1914
  351MOL0     C47272   2.265   2.202  11.162  0.7562 -0.3352  0.1870
  351MOL0     C47273   2.361   2.287  11.250 -0.0878  0.5507 -0.0702
  351MOL0     O47274   2.315   2.292  11.385 -0.1640 -0.2168 -0.1991
  351MOL0     C47275   2.304   2.188  11.469  0.6874 -0.5950 -1.0029
  351MOL0     C47276   2.390   2.081  11.477  0.3631 -0.1247  0.0449
  351MOL0     C47277   2.363   1.970  11.565  0.8113  0.1498  0.3680
  351MOL0     C47278   2.446   1.847  11.538  0.3756 -0.5318 -0.0264
  351MOL0     C47279   2.254   1.967  11.650  0.3779 -0.2943  0.1443
  351MOL0     C47280   2.215   1.850  11.738 -0.2149  0.1180  0.4989
  351MOL0     O47281   2.268   1.724  11.711  0.0314  0.2681 -0.5399
  351MOL0     C47282   2.253   1.618  11.787 -0.2861  0.2352  0.5976
  351MOL0     C47283   2.358   1.577  11.870  1.0557  0.3938  0.3245
  351MOL0     C47284   2.336   1.460  11.952 -0.2246 -1.0837 -0.1435
  351MOL0     C47285   2.208   1.386  11.947 -0.3677  1.2766 -0.6648
  351MOL0     O47286   2.190   1.284  12.040  0.3587 -0.4726 -0.3436
  351MOL0     C47287   2.052   1.261  12.081  1.0098  0.3649 -0.6814
  351MOL0     C47288   2.044   1.167  12.203 -1.0075 -0.0168  0.1280
  351MOL0     C47289   2.123   1.038  12.183 -0.3576 -0.2487  0.8441
  351MOL0     C47290   2.063   0.935  12.073 -1.0084  0.9079 -0.9293
  351MOL0     C47291   2.046   0.790  12.135 -0.5487  0.8020  0.5221
  351MOL0     C47292   2.012   0.678  12.034 -0.2305 -0.6600 -0.1778
  351MOL0     C47293   1.884   0.708  11.961  0.4167 -1.0438 -0.4205
  351MOL0     C47294   1.838   0.597  11.862 -1.1524 -0.0405 -0.2066
  351MOL0    Cl47295   1.970   0.517  11.769 -0.1493 -0.0722  0.3874
  351MOL0     C47296   2.114   1.426  11.844 -0.6953 -0.1494 -0.3476
  351MOL0     C47297   2.141   1.541  11.770 -0.0056  0.1283  0.2803
  351MOL0     O47298   2.149   1.884  11.835  0.2168  0.1144  0.9905
  351MOL0     C47299   2.169   2.088  11.649  0.1386 -0.9454 -0.8408
  351MOL0     C47300   2.199   2.189  11.559  0.3266 -0.2863  0.0602
  351MOL0     N47301   2.066   2.318  10.855  0.4184  0.1961  0.0759
  351MOL0     N47302   2.076   2.432  10.799 -0.4744 -1.4367 -0.6711
  351MOL0     C47303   3.085   3.003  11.078 -0.5177 -0.2527 -0.5486
  351MOL0     C47304   3.171   3.092  11.002 -0.1046  0.1882  0.0263
  351MOL0     C47305   3.287   3.475  10.779  0.3863 -0.0968  0.2029
  351MOL0     C47306   3.335   3.567  10.876 -0.6706 -0.1795 -0.1331
  351MOL0     C47307   3.404   3.682  10.839 -0.5819  0.0975  0.7244
  351MOL0     C47308   3.411   3.710  10.698  0.0074 -0.4270 -0.5303
  351MOL0     O47309   3.474   3.826  10.651 -0.0909 -0.5633  0.2925
  351MOL0     C47310   3.427   3.944  10.724 -0.2448  0.0453 -0.3926
  351MOL0     C47311   3.450   4.076  10.650  1.0614 -0.2431 -0.3231
  351MOL0     C47312   3.364   4.189  10.710 -0.5946  0.3686 -0.0006
  351MOL0     C47313   3.364   4.312  10.617  0.4222  0.1163 -0.3798
  351MOL0     C47314   3.327   4.429  10.692  0.9103 -1.1462  0.8090
  351MOL0     C47315   3.281   4.528  10.737 -0.1139  0.6257 -0.4249
  351MOL0     C47316   3.367   3.617  10.613  0.3283  0.1584  0.2847
  351MOL0     C47317   3.305   3.506  10.649  0.0476  0.7959  0.0162
  351MOL0     H47318   2.974   3.359  10.966 -0.7209 -0.9637  1.2252
  351MOL0     H47319   2.801   3.182  11.052  0.3914  0.5761  0.7058
  351MOL0     H47320   2.877   2.838  10.977  1.0017  5.6567 -0.1017
  351MOL0     H47321   2.952   2.759  11.123  0.0843 -0.3144 -1.6260
  351MOL0     H47322   2.749   2.631  11.063  4.7950  1.6548 -1.7336
  351MOL0     H47323   2.730   2.721  11.216 -2.4122  3.1050  0.3165
  351MOL0     H47324   2.595   2.876  11.076 -2.7318 -1.2867  1.8776
  351MOL0     H47325   2.615   2.761  10.936  4.2819  2.0145 -0.1469
  351MOL0     H47326   2.524   2.581  11.078 -1.9641 -1.0365  3.4289
  351MOL0     H47327   2.476   2.700  11.196 -2.8599  0.6509 -0.1141
  351MOL0     H47328   2.370   2.833  11.009  2.3611 -0.4377 -0.0605
  351MOL0     H47329   2.360   2.678  10.918  2.7038 -0.1727  0.0914
  351MOL0     H47330   2.233   2.565  11.094  1.4705  0.4197 -2.0082
  351MOL0     H47331   2.233   2.707  11.187 -2.7166 -0.2300  0.4008
  351MOL0     H47332   2.016   2.714  11.082  1.5525 -2.6427  1.3270
  351MOL0     H47333   2.119   2.844  11.008 -0.7385  0.3192 -0.0870
  351MOL0     H47334   2.148   2.695  10.802  1.5414 -1.2701  0.6968
  351MOL0     H47335   1.983   2.705  10.850  0.7611 -0.7343 -0.1730
  351MOL0     H47336   1.967   2.499  11.106  0.3928  1.2442 -1.3615
  351MOL0     H47337   1.910   2.190  11.120 -1.1563 -0.4210 -1.8309
  351MOL0     H47338   2.050   2.124  11.016  0.9575  0.6371  0.2501
  351MOL0     H47339   2.081   2.166  11.284 -2.0342  0.3423  0.2538
  351MOL0     H47340   2.089   2.325  11.234  3.4370 -0.7180  2.5287
  351MOL0     H47341   2.269   2.226  11.055  0.4180 -2.3364 -0.3174
  351MOL0     H47342   2.284   2.095  11.174  0.0118 -0.2346  2.8967
  351MOL0     H47343   2.366   2.384  11.199 -3.4067  1.5827  1.3195
  351MOL0     H47344   2.458   2.235  11.250 -0.6336 -0.4918  0.5238
  351MOL0     H47345   2.477   2.075  11.412  0.0647 -2.6057 -0.2294
  351MOL0     H47346   2.398   1.753  11.509  1.3987 -0.7946 -0.9039
  351MOL0     H47347   2.518   1.870  11.459  0.0231  0.5060 -0.0557
  351MOL0     H47348   2.489   1.815  11.634 -1.5345 -3.0559  0.1067
  351MOL0     H47349   2.454   1.626  11.870  1.7551 -0.7909  2.8363
  351MOL0     H47350   2.414   1.435  12.023  0.8043  1.0618 -0.4239
  351MOL0     H47351   2.016   1.359  12.116  0.1545 -0.2299  0.1679
  351MOL0     H47352   1.981   1.226  12.006 -1.0856 -2.4897  2.3652
  351MOL0     H47353   2.092   1.222  12.285  0.5246 -1.4727  0.2615
  351MOL0     H47354   1.939   1.144  12.221 -0.6860 -2.1714 -0.4810
  351MOL0     H47355   2.149   0.992  12.279 -1.6303  0.0411  1.3487
  351MOL0     H47356   2.222   1.067  12.147  0.5239 -2.9079  0.8983
  351MOL0     H47357   1.976   0.987  12.032 -0.4958  1.7850 -0.9295
  351MOL0     H47358   2.137   0.928  11.992 -1.2823 -0.9391 -1.0601
  351MOL0     H47359   1.961   0.800  12.203 -0.8452  2.8259 -0.0635
  351MOL0     H47360   2.131   0.752  12.193 -0.3788  1.3792  0.6599
  351MOL0     H47361   2.097   0.661  11.968 -0.0538  0.1343 -0.1696
  351MOL0     H47362   2.005   0.586  12.093  3.8000  0.1487  1.9207
  351MOL0     H47363   1.912   0.800  11.908 -2.3462  1.1637  1.6300
  351MOL0     H47364   1.811   0.726  12.039  2.1542 -0.2526  1.1011
  351MOL0     H47365   1.779   0.654  11.790  0.1816 -0.4277 -1.6717
  351MOL0     H47366   1.789   0.521  11.923  2.1405  0.2435  3.1959
  351MOL0     H47367   2.020   1.374  11.834 -2.5127  2.5579  1.2655
  351MOL0     H47368   2.066   1.577  11.701  0.6962  4.0192  1.3119
  351MOL0     H47369   2.083   2.086  11.715  2.2460 -0.4398  2.1539
  351MOL0     H47370   2.127   2.270  11.552  1.2491  0.4548 -1.4415
  351MOL0     H47371   3.128   2.908  11.109 -2.8051 -0.5592  2.0909
  351MOL0     H47372   3.264   3.048  10.966  1.1709 -0.4043  3.6445
  351MOL0     H47373   3.324   3.547  10.982 -0.6481  2.5749  0.4794
  351MOL0     H47374   3.449   3.753  10.907  0.3559  2.4312 -2.1274
  351MOL0     H47375   3.320   3.943  10.747 -0.5671  2.8916 -1.3345
  351MOL0     H47376   3.483   3.946  10.819 -0.7925 -0.3978 -0.0564
  351MOL0     H47377   3.422   4.068  10.545  0.8338  1.7286 -0.4519
  351MOL0     H47378   3.559   4.086  10.655  1.2954 -2.7584  1.8418
  351MOL0     H47379   3.412   4.208  10.807  0.4697 -1.9116 -0.0364
  351MOL0     H47380   3.259   4.171  10.733 -0.8114 -0.9737 -1.7995
  351MOL0     H47381   3.285   4.290  10.545 -1.0944  0.1028  1.2354
  351MOL0     H47382   3.464   4.322  10.574  0.2251 -0.9943 -1.1515
  351MOL0     H47383   3.221   4.598  10.790 -2.4208 -1.4060 -0.1745
  351MOL0     H47384   3.389   3.625  10.507 -1.2804 -0.7213 -0.1557
  351MOL0     H47385   3.276   3.420  10.589 -2.1901 -2.4088  5.0072
  352MOL0     O47386   2.530   4.450   8.436 -0.4763 -0.0686  0.4239
  352MOL0     C47387   2.455   4.498   8.528 -0.2644 -0.5120 -0.6728
  352MOL0     O47388   2.456   4.443   8.659 -0.1756  0.2043  0.6918
  352MOL0     C47389   2.522   4.327   8.678 -0.2712  0.1795 -0.0426
  352MOL0     C47390   2.483   4.203   8.619 -0.6557 -0.3225  0.4329
  352MOL0     C47391   2.543   4.080   8.659  1.1693  0.7679  0.4662
  352MOL0     C47392   2.632   4.093   8.763  0.4284  0.2460 -0.1954
  352MOL0     O47393   2.690   3.975   8.812  0.3707 -0.0659 -0.5516
  352MOL0     C47394   2.606   3.911   8.904 -0.4245  0.1321  0.0985
  352MOL0     C47395   2.701   3.877   9.021  0.1224 -0.5203 -0.5767
  352MOL0     C47396   2.647   3.831   9.157  0.3636  0.1775  0.7624
  352MOL0     C47397   2.536   3.722   9.147  0.1576 -0.1303  0.7938
  352MOL0     C47398   2.474   3.678   9.279  0.2841  0.6876 -0.6177
  352MOL0     C47399   2.392   3.774   9.366 -0.3094  0.2506 -0.9597
  352MOL0     C47400   2.283   3.840   9.289  0.9614 -0.5326  0.3753
  352MOL0     C47401   2.169   3.873   9.384 -0.3667 -0.1895  0.3661
  352MOL0     N47402   2.104   3.763   9.442  0.0210  0.1843  0.3868
  352MOL0     C47403   2.021   3.673   9.384 -0.0036  1.0435  0.2513
  352MOL0     C47404   1.963   3.612   9.493  0.3925  0.4247 -0.0115
  352MOL0     C47405   1.840   3.524   9.479 -0.1327 -0.2985  0.5892
  352MOL0     C47406   1.728   3.526   9.590  0.2598  0.2867  0.1535
  352MOL0     C47407   1.600   3.454   9.545  0.9771 -0.3813  1.5030
  352MOL0     C47408   1.508   3.449   9.661  0.8628  0.5899 -0.1974
  352MOL0     O47409   1.558   3.349   9.751  0.3271 -0.7296 -0.4060
  352MOL0     C47410   1.474   3.258   9.813 -0.3617  0.0391  0.3827
  352MOL0     C47411   1.536   3.148   9.862 -0.7438 -0.1847  0.1554
  352MOL0     C47412   1.465   3.046   9.920 -0.3639  0.9509 -0.0012
  352MOL0     C47413   1.540   2.914   9.947 -0.8285  0.6277  0.4214
  352MOL0     C47414   1.328   3.065   9.957  0.0167 -0.0970  0.1643
  352MOL0     C47415   1.243   2.970  10.038  0.7822 -0.2882  0.2001
  352MOL0     O47416   1.110   2.981  10.012 -0.1959 -0.9794  0.9284
  352MOL0     C47417   1.028   2.884  10.049  0.5054  0.4527 -0.0233
  352MOL0     C47418   0.970   2.886  10.178  0.4963  0.1617  0.6070
  352MOL0     C47419   0.879   2.786  10.201  0.0444 -0.4906  0.1429
  352MOL0     C47420   0.855   2.675  10.123  0.3089 -1.7063 -0.1528
  352MOL0     O47421   0.777   2.584  10.178  0.1396  0.4447 -0.8508
  352MOL0     C47422   0.723   2.473  10.106 -0.1365  0.4368  0.0606
  352MOL0     C47423   0.626   2.393  10.200  0.6155 -0.3050 -1.0097
  352MOL0     C47424   0.582   2.259  10.150 -0.9243  0.2986 -0.4241
  352MOL0     C47425   0.685   2.144  10.185  0.1214 -0.2967 -0.2730
  352MOL0     C47426   0.649   2.015  10.107 -0.3199 -0.2813 -0.4446
  352MOL0     C47427   0.764   1.913  10.084 -0.9996 -0.2226 -0.4393
  352MOL0     C47428   0.877   1.958   9.990 -0.6116  0.0216  0.4399
  352MOL0     C47429   0.970   1.828   9.996 -0.3092 -0.7829  0.1747
  352MOL0    Cl47430   1.121   1.870   9.908 -0.9463 -0.0913  0.1764
  352MOL0     C47431   0.908   2.667   9.998 -1.1153  0.6082  0.4450
  352MOL0     C47432   0.997   2.769   9.958  0.3104  0.3205  0.7516
  352MOL0     O47433   1.294   2.879  10.108  0.1702  0.1640  0.3106
  352MOL0     C47434   1.260   3.184   9.917  0.0603  1.3201  0.0070
  352MOL0     C47435   1.334   3.276   9.842 -0.6304 -0.4542  0.0890
  352MOL0     N47436   2.004   3.669   9.607 -0.2010 -0.4715 -0.4268
  352MOL0     N47437   2.108   3.738   9.575 -1.0109  0.8915 -0.3757
  352MOL0     C47438   2.678   4.219   8.813 -0.1790 -0.5565  0.4478
  352MOL0     C47439   2.623   4.339   8.766 -0.3495 -0.2068  0.1031
  352MOL0     C47440   2.368   4.613   8.509 -0.4608  0.2859  0.2351
  352MOL0     C47441   2.349   4.663   8.379 -0.2461  0.3666  0.2194
  352MOL0     C47442   2.271   4.776   8.352 -0.0235 -0.2784 -0.1761
  352MOL0     C47443   2.223   4.851   8.460 -0.2883  0.9250  0.1130
  352MOL0     O47444   2.153   4.964   8.426 -0.1878 -0.8976 -0.0584
  352MOL0     C47445   2.114   5.065   8.530 -0.0983 -0.3583 -0.8365
  352MOL0     C47446   2.232   5.133   8.592  0.1927  0.2621 -0.0034
  352MOL0     C47447   2.199   5.244   8.698 -0.7745  0.1031 -0.6295
  352MOL0     C47448   2.148   5.178   8.830 -1.0604 -0.4834  0.6024
  352MOL0     C47449   2.253   5.097   8.886  0.8123 -1.7335 -0.0915
  352MOL0     C47450   2.341   5.029   8.931 -0.4743  0.1184  0.6679
  352MOL0     C47451   2.219   4.793   8.591 -0.9934 -0.1702 -0.9654
  352MOL0     C47452   2.295   4.670   8.614  0.9175  0.8190  1.5643
  352MOL0     H47453   2.406   4.204   8.544 -0.4009  0.1105  0.1796
  352MOL0     H47454   2.524   3.986   8.608 -0.9677  1.8245 -0.8600
  352MOL0     H47455   2.530   3.972   8.955  1.4771  1.2280  1.7810
  352MOL0     H47456   2.559   3.822   8.861 -1.3815  0.0670  1.2352
  352MOL0     H47457   2.772   3.800   8.988 -0.7792 -1.3529 -0.6429
  352MOL0     H47458   2.757   3.969   9.040  2.8633 -1.9227 -1.3148
  352MOL0     H47459   2.730   3.792   9.217  0.7393 -3.0118 -1.5618
  352MOL0     H47460   2.605   3.912   9.216  0.2163  1.3533 -0.8968
  352MOL0     H47461   2.451   3.759   9.089 -0.0038  0.3605  1.3278
  352MOL0     H47462   2.580   3.633   9.102 -1.5410 -1.3359  1.4125
  352MOL0     H47463   2.401   3.602   9.251 -0.6691  1.4415 -0.2249
  352MOL0     H47464   2.545   3.638   9.352 -1.1064  1.6174  1.3404
  352MOL0     H47465   2.348   3.701   9.435 -1.4879  0.8860 -1.0253
  352MOL0     H47466   2.442   3.842   9.435 -1.8364 -0.4945  0.9719
  352MOL0     H47467   2.333   3.934   9.266  2.6696 -1.4965 -0.0391
  352MOL0     H47468   2.246   3.788   9.201 -0.5301  2.7282 -1.1032
  352MOL0     H47469   2.094   3.923   9.322 -1.4634  0.7521  2.3335
  352MOL0     H47470   2.200   3.943   9.462  0.2923 -0.5746  0.4534
  352MOL0     H47471   1.997   3.676   9.278  2.9764 -2.4341 -0.7523
  352MOL0     H47472   1.800   3.540   9.378 -0.2285  0.2266  0.7090
  352MOL0     H47473   1.886   3.425   9.476 -0.9917 -0.6829 -0.4442
  352MOL0     H47474   1.701   3.632   9.597 -1.1147  0.2020 -2.5188
  352MOL0     H47475   1.770   3.491   9.685  0.0991  0.6121  0.3469
  352MOL0     H47476   1.616   3.357   9.499 -1.1525 -0.2767  0.4042
  352MOL0     H47477   1.553   3.513   9.465  0.3981 -2.2882  0.3932
  352MOL0     H47478   1.405   3.436   9.625  1.2973  2.3448 -2.2023
  352MOL0     H47479   1.512   3.542   9.717 -0.1256  0.8159 -0.4848
  352MOL0     H47480   1.643   3.133   9.848 -0.7836 -1.3661  0.9491
  352MOL0     H47481   1.479   2.823   9.935 -3.5477  2.3301  0.3701
  352MOL0     H47482   1.620   2.905   9.874  0.4104 -1.2597  1.9134
  352MOL0     H47483   1.581   2.922  10.048 -0.9699 -2.2068  0.7951
  352MOL0     H47484   0.977   2.965  10.253 -1.9228  1.1749 -0.1424
  352MOL0     H47485   0.851   2.805  10.304  1.8920  0.7090  0.4892
  352MOL0     H47486   0.671   2.515  10.019 -0.5761  1.2671  0.6957
  352MOL0     H47487   0.798   2.406  10.064  0.3354 -0.4150  2.1172
  352MOL0     H47488   0.663   2.399  10.303  2.6502  3.9846 -1.7581
  352MOL0     H47489   0.534   2.452  10.216  1.9359  1.8905 -1.0924
  352MOL0     H47490   0.584   2.266  10.041 -1.0750  1.7351 -0.3469
  352MOL0     H47491   0.487   2.223  10.190 -0.4608 -1.3202 -0.6763
  352MOL0     H47492   0.779   2.184  10.146  0.5461 -2.7116 -2.0274
  352MOL0     H47493   0.696   2.124  10.292 -0.2074  1.4090  0.1034
  352MOL0     H47494   0.609   2.053  10.013 -0.9167  0.7684  0.2094
  352MOL0     H47495   0.579   1.960  10.170  0.9666 -0.4100  0.9249
  352MOL0     H47496   0.808   1.891  10.182 -3.4559 -0.6497  0.6497
  352MOL0     H47497   0.728   1.814  10.055 -1.4925 -0.3827  0.6679
  352MOL0     H47498   0.916   2.057  10.015  0.0005 -0.5108  1.7017
  352MOL0     H47499   0.837   1.954   9.889 -1.3019 -1.4179  0.7380
  352MOL0     H47500   0.926   1.732   9.966 -1.8953 -0.4822  1.4102
  352MOL0     H47501   0.998   1.809  10.101  0.2099 -1.3774 -0.0600
  352MOL0     H47502   0.884   2.581   9.936  0.5961 -0.0022  0.5903
  352MOL0     H47503   1.041   2.777   9.860 -0.3522  1.8187  0.5338
  352MOL0     H47504   1.158   3.207   9.943 -0.4438  1.7240 -2.1235
  352MOL0     H47505   1.303   3.375   9.810 -1.1218 -0.4951  0.4240
  352MOL0     H47506   2.751   4.208   8.893  1.0961 -1.3011 -0.7692
  352MOL0     H47507   2.658   4.431   8.812 -0.2869 -0.7783  1.2551
  352MOL0     H47508   2.404   4.622   8.295  0.7891  2.1544 -0.0519
  352MOL0     H47509   2.269   4.813   8.250  0.6077 -2.1377 -0.8959
  352MOL0     H47510   2.048   5.138   8.482  0.9245  1.1581 -0.0482
  352MOL0     H47511   2.047   5.016   8.601  0.2794  0.0619 -0.1797
  352MOL0     H47512   2.287   5.183   8.512 -3.6798  2.7296 -1.4216
  352MOL0     H47513   2.305   5.062   8.633  2.2432  3.0603  1.4983
  352MOL0     H47514   2.121   5.311   8.660 -0.5147 -1.1729 -3.7164
  352MOL0     H47515   2.294   5.299   8.704  0.2756 -1.3763 -2.5293
  352MOL0     H47516   2.053   5.129   8.808 -1.5655  1.5185 -2.3517
  352MOL0     H47517   2.133   5.257   8.905  0.8074  1.3993 -0.8724
  352MOL0     H47518   2.410   4.959   8.975 -0.2101  0.5908  1.0136
  352MOL0     H47519   2.188   4.843   8.683 -1.4051 -0.8321 -0.7394
  352MOL0     H47520   2.305   4.619   8.709 -0.6114 -0.9680  0.8345
  353MOL0     O47521   1.476   2.389   1.867 -0.3987 -0.2245  0.0456
  353MOL0     C47522   1.561   2.320   1.924  0.0361 -0.2909  0.0536
  353MOL0     O47523   1.602   2.199   1.886 -0.1924 -0.5872  0.1235
  353MOL0     C47524   1.563   2.160   1.758  0.5292 -0.1458 -1.4852
  353MOL0     C47525   1.432   2.115   1.734  0.3650 -0.8502  0.6179
  353MOL0     C47526   1.397   2.070   1.609  0.3713 -0.3545 -0.1174
  353MOL0     C47527   1.492   2.046   1.515  0.7409  1.0143 -0.2353
  353MOL0     O47528   1.469   1.977   1.393  0.2645  0.6391  0.0598
  353MOL0     C47529   1.422   1.841   1.393  0.5360  0.1459 -0.9303
  353MOL0     C47530   1.426   1.788   1.248  0.0107  0.5449 -0.2941
  353MOL0     C47531   1.560   1.773   1.195  0.2237 -0.5365 -0.1905
  353MOL0     C47532   1.568   1.670   1.085  0.0364 -0.0306  0.4026
  353MOL0     C47533   1.615   1.542   1.150 -0.5484  0.5000 -0.2338
  353MOL0     C47534   1.570   1.417   1.077  0.3669  0.0823  0.4660
  353MOL0     C47535   1.634   1.419   0.934  0.0233 -0.4801 -0.3212
  353MOL0     C47536   1.558   1.325   0.836 -0.3698  0.0658 -0.1278
  353MOL0     N47537   1.592   1.353   0.698 -0.8489 -0.5041  0.5438
  353MOL0     C47538   1.584   1.474   0.629 -0.0037  0.2216  0.3960
  353MOL0     C47539   1.628   1.445   0.498  0.5168 -0.5344  0.8152
  353MOL0     C47540   1.652   1.550   0.390  0.9650  0.8045  0.2847
  353MOL0     C47541   1.716   1.674   0.438 -0.0247  0.2697 -1.2505
  353MOL0     C47542   1.868   1.658   0.450 -1.0419  0.3261 -0.2859
  353MOL0     C47543   1.905   1.608   0.589 -0.4578  0.4285 -1.5662
  353MOL0     O47544   1.856   1.698   0.691  0.0631 -0.4973 -0.5990
  353MOL0     C47545   1.909   1.691   0.817 -0.3237 -0.1529  0.0931
  353MOL0     C47546   1.899   1.798   0.896 -1.0395 -0.8122 -0.1556
  353MOL0     C47547   1.941   1.798   1.035  0.6290  1.1722 -0.2002
  353MOL0     C47548   1.933   1.925   1.114  0.1931 -0.8288 -0.0422
  353MOL0     C47549   1.967   1.677   1.098  0.0625  0.1737  0.2733
  353MOL0     C47550   1.981   1.672   1.254 -0.4044  0.6362  0.3323
  353MOL0     O47551   2.066   1.755   1.314  1.6804 -0.7553 -0.7288
  353MOL0     C47552   2.076   1.752   1.454 -0.1298  0.5461 -0.1863
  353MOL0     C47553   1.994   1.825   1.542  0.1336 -0.2278  0.7809
  353MOL0     C47554   2.025   1.832   1.675  0.1898 -0.2816 -0.5182
  353MOL0     C47555   2.127   1.755   1.740 -0.0576  0.2103  0.8858
  353MOL0     O47556   2.150   1.775   1.871 -0.3077 -0.2027 -0.7885
  353MOL0     C47557   2.245   1.699   1.937 -0.8506  0.5603  0.3079
  353MOL0     C47558   2.220   1.713   2.091 -0.0329  0.5230  0.9777
  353MOL0     C47559   2.325   1.637   2.175 -0.2334  0.1283  0.6358
  353MOL0     C47560   2.466   1.689   2.180 -0.5796  0.1084  0.3650
  353MOL0     C47561   2.569   1.592   2.236 -0.2217  0.1081  0.6346
  353MOL0     C47562   2.582   1.484   2.128 -0.9323 -0.2746 -0.2282
  353MOL0     C47563   2.710   1.404   2.169 -0.0566  0.7758 -0.2238
  353MOL0     C47564   2.744   1.298   2.065 -0.2120  0.6162 -0.0503
  353MOL0    Cl47565   2.763   1.366   1.907  0.4522 -0.1633  0.5323
  353MOL0     C47566   2.201   1.674   1.650  0.4427 -0.3232 -0.3165
  353MOL0     C47567   2.183   1.677   1.509 -0.1179  0.3915 -0.4173
  353MOL0     O47568   1.931   1.575   1.307  1.0032 -0.6941  0.0370
  353MOL0     C47569   1.975   1.565   1.003 -0.2035  0.7350  0.4224
  353MOL0     C47570   1.953   1.567   0.864  0.6606  0.4112 -0.6667
  353MOL0     N47571   1.679   1.316   0.503 -0.6038 -0.4468  0.0048
  353MOL0     N47572   1.659   1.262   0.619 -0.2560 -0.6565 -0.0420
  353MOL0     C47573   1.624   2.082   1.544  0.3965 -0.2372  1.3401
  353MOL0     C47574   1.664   2.137   1.666  0.4789 -0.5288  0.4089
  353MOL0     C47575   1.625   2.377   2.041  0.4069 -0.3671  0.3712
  353MOL0     C47576   1.753   2.342   2.089 -0.3002 -0.3300 -0.9951
  353MOL0     C47577   1.802   2.394   2.206 -0.7467  0.1392  0.8413
  353MOL0     C47578   1.739   2.503   2.261 -0.1131 -0.7190  0.7911
  353MOL0     O47579   1.798   2.580   2.357  1.3854  0.1681 -0.4117
  353MOL0     C47580   1.736   2.701   2.403  0.1503 -0.5156  0.0485
  353MOL0     C47581   1.795   2.738   2.549 -0.2555  0.3734  0.6746
  353MOL0     C47582   1.949   2.733   2.538  0.0032  0.0824 -0.0313
  353MOL0     C47583   2.016   2.740   2.683 -0.0140 -0.6384  0.1217
  353MOL0     C47584   2.150   2.777   2.667 -0.2665  0.8110  0.2949
  353MOL0     C47585   2.270   2.800   2.643 -0.3036 -0.8839 -0.2479
  353MOL0     C47586   1.608   2.540   2.212 -1.1509  0.7946  0.8887
  353MOL0     C47587   1.549   2.468   2.111  0.0103 -1.0916 -0.2261
  353MOL0     H47588   1.359   2.119   1.815  0.8002 -0.6440  1.0035
  353MOL0     H47589   1.292   2.064   1.582  0.2669  2.5348 -0.7880
  353MOL0     H47590   1.481   1.777   1.458 -0.8523 -1.3410 -1.0660
  353MOL0     H47591   1.319   1.851   1.427  1.6335  2.3119  2.1187
  353MOL0     H47592   1.374   1.691   1.248  1.7413 -0.5293  2.8784
  353MOL0     H47593   1.360   1.851   1.188 -1.8589  0.8390  1.9396
  353MOL0     H47594   1.588   1.872   1.159 -3.2920  1.7726  2.7779
  353MOL0     H47595   1.637   1.756   1.271  4.0841  2.9443 -2.9221
  353MOL0     H47596   1.465   1.663   1.050  0.2318 -1.0539  0.0200
  353MOL0     H47597   1.641   1.692   1.006 -0.0151 -1.5387 -0.0973
  353MOL0     H47598   1.723   1.526   1.158 -0.9721 -5.5148 -1.6853
  353MOL0     H47599   1.585   1.526   1.254  1.4122 -2.5130 -0.0328
  353MOL0     H47600   1.599   1.318   1.114 -0.1141  0.3642  1.6304
  353MOL0     H47601   1.461   1.420   1.074  0.0253 -3.7501  2.8291
  353MOL0     H47602   1.637   1.518   0.888 -0.3075  0.1975  1.0430
  353MOL0     H47603   1.737   1.385   0.946 -0.2037 -2.1480 -2.5171
  353MOL0     H47604   1.454   1.348   0.863  0.0975 -0.9010  2.9412
  353MOL0     H47605   1.569   1.219   0.859  0.1025  0.1817  0.1870
  353MOL0     H47606   1.563   1.576   0.660 -0.9388  0.1182  0.1521
  353MOL0     H47607   1.694   1.514   0.295 -1.4083 -2.1212  0.2126
  353MOL0     H47608   1.549   1.570   0.359  0.9722  1.7455  0.8330
  353MOL0     H47609   1.675   1.700   0.536  3.2655 -1.4043  0.7569
  353MOL0     H47610   1.689   1.753   0.367 -1.7063  1.3649  0.5133
  353MOL0     H47611   1.917   1.755   0.438  0.0782 -0.1621  0.2096
  353MOL0     H47612   1.904   1.598   0.366  0.7420  2.3538 -1.0630
  353MOL0     H47613   2.013   1.603   0.604 -0.5231 -3.8051 -1.1426
  353MOL0     H47614   1.864   1.507   0.600  0.8284 -0.1142 -1.6348
  353MOL0     H47615   1.881   1.893   0.845 -1.8847 -1.0217 -0.2736
  353MOL0     H47616   1.846   1.927   1.180  0.8745 -0.2937  0.8560
  353MOL0     H47617   2.026   1.943   1.167  0.8787 -1.4029 -1.0137
  353MOL0     H47618   1.909   2.015   1.057 -2.9743 -1.1028  0.6649
  353MOL0     H47619   1.901   1.866   1.503 -0.5476 -3.2248 -1.1278
  353MOL0     H47620   1.984   1.894   1.754  2.1785  0.8433 -0.3159
  353MOL0     H47621   2.240   1.593   1.912 -0.7037  1.2061 -2.8691
  353MOL0     H47622   2.341   1.745   1.914 -1.6594  4.6644  3.8804
  353MOL0     H47623   2.222   1.819   2.116  0.7492  1.3109 -2.0400
  353MOL0     H47624   2.122   1.671   2.117  0.7119 -1.0352  1.4279
  353MOL0     H47625   2.320   1.538   2.128  0.5917  0.2941  0.1891
  353MOL0     H47626   2.285   1.633   2.277 -1.5533  0.0023  0.1441
  353MOL0     H47627   2.504   1.714   2.081  1.1956  2.4693  1.5515
  353MOL0     H47628   2.465   1.784   2.233  1.5988 -0.8131  2.2521
  353MOL0     H47629   2.537   1.552   2.333 -0.8682  0.9222  0.7734
  353MOL0     H47630   2.662   1.649   2.246 -1.1559  1.2258  4.4561
  353MOL0     H47631   2.497   1.415   2.126  0.5750 -2.3841  2.2699
  353MOL0     H47632   2.592   1.539   2.034  0.0769  3.2205  1.7537
  353MOL0     H47633   2.692   1.351   2.263  2.2727 -0.0811 -0.1791
  353MOL0     H47634   2.802   1.462   2.183  0.7021 -0.3108 -0.5853
  353MOL0     H47635   2.664   1.224   2.056  1.2403 -0.7295 -3.3256
  353MOL0     H47636   2.839   1.252   2.094 -0.0004  1.1154  0.0634
  353MOL0     H47637   2.280   1.615   1.693  0.1661  0.3545  1.1862
  353MOL0     H47638   2.240   1.613   1.443  0.5543 -0.5599  1.0353
  353MOL0     H47639   2.018   1.478   1.052 -0.3112  1.4592  1.8476
  353MOL0     H47640   1.955   1.471   0.814 -2.0700  0.3113 -0.7439
  353MOL0     H47641   1.702   2.055   1.473 -0.8513 -0.8420  0.1466
  353MOL0     H47642   1.767   2.166   1.685  0.5869 -1.1880  0.8870
  353MOL0     H47643   1.798   2.259   2.035  1.6942  0.7063 -0.9788
  353MOL0     H47644   1.903   2.369   2.236 -0.1350 -1.0774 -1.9510
  353MOL0     H47645   1.742   2.790   2.340 -1.0728 -0.2929  0.2229
  353MOL0     H47646   1.628   2.692   2.419  0.3544  0.1495  2.2651
  353MOL0     H47647   1.749   2.668   2.620  0.8994  1.8430  2.9869
  353MOL0     H47648   1.778   2.844   2.569  1.9158  1.2615 -1.6641
  353MOL0     H47649   1.981   2.812   2.469  0.1868  2.1099  2.2693
  353MOL0     H47650   1.982   2.638   2.495  0.2205  0.3652 -0.5043
  353MOL0     H47651   2.010   2.637   2.722  1.1336 -0.4276  0.8867
  353MOL0     H47652   1.958   2.809   2.745  0.1596  0.6195 -1.0692
  353MOL0     H47653   2.370   2.832   2.626 -0.2545 -0.7811  0.2311
  353MOL0     H47654   1.543   2.603   2.271 -1.5494  2.0723 -0.8409
  353MOL0     H47655   1.446   2.494   2.086 -0.7161 -1.6096  2.0127
  354MOL0     O47656   6.965   8.591   3.000  0.3230 -0.1739  0.1901
  354MOL0     C47657   7.023   8.656   3.085  0.0078 -0.1198 -0.0618
  354MOL0     O47658   7.100   8.602   3.195  0.3267 -0.5337  0.0096
  354MOL0     C47659   7.076   8.465   3.210 -0.7325  0.0072  0.3457
  354MOL0     C47660   6.978   8.409   3.297  1.6003 -0.1145 -0.6063
  354MOL0     C47661   6.968   8.270   3.302 -0.5414  0.9582 -0.5815
  354MOL0     C47662   7.052   8.185   3.223 -0.8643 -0.7211 -0.4340
  354MOL0     O47663   7.039   8.045   3.222  0.6161 -0.7834  0.1325
  354MOL0     C47664   7.109   7.970   3.119 -0.2002 -0.5491 -0.4008
  354MOL0     C47665   7.037   7.838   3.121  0.0007  0.2291 -1.0426
  354MOL0     C47666   7.123   7.711   3.092  0.0386  0.3474 -0.0804
  354MOL0     C47667   7.207   7.651   3.208  0.3449 -0.5482 -0.2707
  354MOL0     C47668   7.272   7.516   3.178 -0.4201  0.5998  0.4810
  354MOL0     C47669   7.341   7.454   3.306  0.6409 -0.2642 -0.3990
  354MOL0     C47670   7.306   7.508   3.438 -0.9072 -0.0583 -1.5481
  354MOL0     C47671   7.376   7.446   3.554  0.1376  0.7703 -0.6449
  354MOL0     N47672   7.310   7.476   3.683  0.8650 -1.0021  0.5555
  354MOL0     C47673   7.294   7.606   3.736 -0.0784 -0.6876  0.7307
  354MOL0     C47674   7.256   7.590   3.861  0.3117  0.0511 -0.5844
  354MOL0     C47675   7.275   7.685   3.974  0.2813  0.2310  0.6826
  354MOL0     C47676   7.349   7.812   3.947  0.2755 -1.1277 -0.2596
  354MOL0     C47677   7.426   7.875   4.063 -0.2112  0.0577 -0.4632
  354MOL0     C47678   7.529   7.978   4.010 -0.6434  1.0080 -0.5174
  354MOL0     O47679   7.656   7.966   4.059  0.8192  0.1040 -0.8507
  354MOL0     C47680   7.744   8.059   4.005 -0.2849  0.4529  0.0688
  354MOL0     C47681   7.863   8.024   3.947 -0.0491  0.5389  0.2261
  354MOL0     C47682   7.948   8.119   3.881 -0.5197 -0.1079  0.1997
  354MOL0     C47683   8.057   8.061   3.801 -0.3053 -0.1864 -0.4191
  354MOL0     C47684   7.914   8.255   3.885 -0.2223 -0.3897  0.5926
  354MOL0     C47685   7.993   8.367   3.819 -1.0881 -0.8151 -0.7358
  354MOL0     O47686   7.924   8.491   3.799  0.6192 -0.1695  0.3234
  354MOL0     C47687   7.979   8.603   3.747 -0.1060  0.0283 -1.1918
  354MOL0     C47688   7.915   8.647   3.635  0.4404 -0.4331  0.4256
  354MOL0     C47689   7.962   8.756   3.559 -0.3936 -0.6695  0.1604
  354MOL0     C47690   8.085   8.823   3.600 -0.1653  0.4949 -0.8647
  354MOL0     O47691   8.138   8.937   3.550  1.1458  0.2320 -0.1448
  354MOL0     C47692   8.044   9.018   3.487 -0.3335 -0.8368 -0.4619
  354MOL0     C47693   8.112   9.151   3.489 -0.1131  0.1977 -0.1821
  354MOL0     C47694   8.124   9.199   3.636  0.1850 -0.8237 -0.0420
  354MOL0     C47695   8.138   9.355   3.628 -0.6758 -0.0709  0.9568
  354MOL0     C47696   8.121   9.413   3.771  0.0710  0.2040  1.1491
  354MOL0     C47697   8.222   9.369   3.876  0.3940  0.4712  0.1614
  354MOL0     C47698   8.252   9.477   3.982  0.1646 -0.2345 -0.7252
  354MOL0     C47699   8.324   9.431   4.113  0.1287 -0.3852  0.2959
  354MOL0    Cl47700   8.231   9.304   4.197 -0.4681 -0.1784 -0.1764
  354MOL0     C47701   8.162   8.764   3.706 -0.1093 -1.0501 -0.3514
  354MOL0     C47702   8.110   8.660   3.786  0.5440  0.0630 -0.1394
  354MOL0     O47703   8.116   8.361   3.819 -0.3083  0.3859 -0.9032
  354MOL0     C47704   7.791   8.292   3.945 -0.1957  0.2805  0.0244
  354MOL0     C47705   7.721   8.198   4.016  0.3960  0.4880  0.9891
  354MOL0     N47706   7.220   7.457   3.878  0.8976  0.9995  0.6957
  354MOL0     N47707   7.256   7.392   3.773 -0.1033  0.4838  0.4400
  354MOL0     C47708   7.155   8.243   3.142  0.7820  0.1521 -1.4746
  354MOL0     C47709   7.169   8.383   3.140 -0.1582 -0.2108  0.1810
  354MOL0     C47710   7.030   8.805   3.061 -0.2067  0.3664  0.4911
  354MOL0     C47711   7.002   8.862   2.944  0.2440  0.2710  0.8486
  354MOL0     C47712   7.023   9.006   2.922 -0.3058  0.9623 -0.2057
  354MOL0     C47713   7.080   9.089   3.019 -0.7684 -0.3724  0.9107
  354MOL0     O47714   7.129   9.212   3.003 -0.2935  0.5782  0.3045
  354MOL0     C47715   7.125   9.283   2.878 -0.3434  0.7427 -0.5634
  354MOL0     C47716   7.244   9.241   2.789  1.2782  0.3474  0.2698
  354MOL0     C47717   7.371   9.325   2.809 -0.0705 -0.5317  0.2137
  354MOL0     C47718   7.468   9.310   2.690 -0.3030  0.2853  0.8378
  354MOL0     C47719   7.575   9.410   2.680 -0.2614  0.0435  0.0203
  354MOL0     C47720   7.667   9.486   2.645 -0.0606  0.4273 -0.1532
  354MOL0     C47721   7.108   9.025   3.141  0.1753  0.6018 -0.2526
  354MOL0     C47722   7.069   8.891   3.162 -0.2692 -0.3434 -0.1811
  354MOL0     H47723   6.917   8.468   3.365  2.1204  0.0665 -0.2921
  354MOL0     H47724   6.907   8.215   3.373  0.8425  1.0230  0.7224
  354MOL0     H47725   7.098   8.007   3.017 -2.6937  1.7272  0.5417
  354MOL0     H47726   7.213   7.958   3.151 -0.3824  0.3431  0.5910
  354MOL0     H47727   6.981   7.831   3.215  2.4159  1.8761  0.6493
  354MOL0     H47728   6.968   7.840   3.037 -1.9465 -0.0802  0.4861
  354MOL0     H47729   7.041   7.643   3.066 -1.5246  1.4649  1.6206
  354MOL0     H47730   7.192   7.723   3.009  0.2076 -0.6890 -0.0986
  354MOL0     H47731   7.274   7.729   3.246 -0.0659 -1.4581  2.6199
  354MOL0     H47732   7.133   7.638   3.287 -1.0386 -0.9608 -1.5961
  354MOL0     H47733   7.189   7.448   3.156 -2.0502  1.0154  4.3772
  354MOL0     H47734   7.351   7.509   3.103  1.1661 -2.2944  2.2234
  354MOL0     H47735   7.327   7.346   3.308 -1.1869 -0.0552 -0.5025
  354MOL0     H47736   7.446   7.482   3.293 -0.8240  5.0315 -4.3955
  354MOL0     H47737   7.327   7.614   3.452 -3.4167  0.5213 -1.7420
  354MOL0     H47738   7.197   7.502   3.444 -0.8708  0.6279  1.8896
  354MOL0     H47739   7.480   7.475   3.572  1.0429 -3.7066  3.4797
  354MOL0     H47740   7.368   7.337   3.549 -0.7665  0.8332 -0.7361
  354MOL0     H47741   7.324   7.704   3.700 -2.4077  1.8414  4.8976
  354MOL0     H47742   7.177   7.701   4.020 -0.9198 -1.4241 -1.1546
  354MOL0     H47743   7.337   7.636   4.050 -0.0393 -0.2055  0.6620
  354MOL0     H47744   7.272   7.883   3.915  1.4450 -0.3644 -1.4630
  354MOL0     H47745   7.413   7.790   3.861  0.8616 -0.2905 -0.0495
  354MOL0     H47746   7.486   7.790   4.098  0.0371  0.8818  1.2183
  354MOL0     H47747   7.374   7.910   4.152  2.9377  3.6927  0.2163
  354MOL0     H47748   7.479   8.065   4.053 -0.2195  1.6154 -1.2105
  354MOL0     H47749   7.528   7.977   3.900 -0.7780  0.4578 -0.5108
  354MOL0     H47750   7.878   7.917   3.932  0.1210  0.3084  1.8733
  354MOL0     H47751   8.066   7.955   3.828  1.8887  0.1027  0.1195
  354MOL0     H47752   8.052   8.079   3.693 -1.5295 -0.6138 -0.4482
  354MOL0     H47753   8.140   8.118   3.844  0.2888 -3.1758  2.8315
  354MOL0     H47754   7.822   8.598   3.607  0.2869  0.1229 -0.0597
  354MOL0     H47755   7.902   8.786   3.473  1.8900 -0.0379 -1.3005
  354MOL0     H47756   8.014   8.979   3.390 -1.4570 -0.0769 -0.4406
  354MOL0     H47757   7.951   9.023   3.545  0.7211 -3.2850  1.6524
  354MOL0     H47758   8.208   9.144   3.436  0.4358  2.9715  0.2913
  354MOL0     H47759   8.060   9.223   3.424  2.2837  1.6330 -0.6368
  354MOL0     H47760   8.209   9.166   3.696  2.5430  4.3995  0.0127
  354MOL0     H47761   8.036   9.180   3.698 -0.3526 -0.2476 -0.6078
  354MOL0     H47762   8.224   9.397   3.575  1.3146 -2.4523  2.0770
  354MOL0     H47763   8.056   9.387   3.563 -0.9020 -2.3725  0.0387
  354MOL0     H47764   8.023   9.373   3.798  0.5550 -0.7162  1.6091
  354MOL0     H47765   8.103   9.521   3.765  0.7834  0.2963  0.5053
  354MOL0     H47766   8.178   9.284   3.930  0.1135  1.2541  1.2140
  354MOL0     H47767   8.314   9.325   3.839 -0.1947  0.1023 -0.8852
  354MOL0     H47768   8.156   9.517   4.017  0.7207  0.1353  0.4250
  354MOL0     H47769   8.308   9.558   3.934  1.2506 -1.5625 -1.7802
  354MOL0     H47770   8.333   9.514   4.184  1.9574 -1.6413  1.6347
  354MOL0     H47771   8.422   9.402   4.076 -0.7319  0.3472 -2.8282
  354MOL0     H47772   8.247   8.821   3.741 -1.4900  0.4968  0.6380
  354MOL0     H47773   8.150   8.635   3.884 -0.8581 -0.9932  0.1957
  354MOL0     H47774   7.753   8.393   3.952  0.1059  0.3072  1.4238
  354MOL0     H47775   7.624   8.221   4.060 -0.0698 -1.0734  0.8455
  354MOL0     H47776   7.234   8.193   3.087  2.3879  1.4861 -0.5231
  354MOL0     H47777   7.242   8.431   3.075 -0.5673  0.9325  0.5300
  354MOL0     H47778   6.985   8.801   2.856  0.4718  0.2284  0.8335
  354MOL0     H47779   6.999   9.040   2.822 -3.1320 -1.9710 -0.6979
  354MOL0     H47780   7.037   9.254   2.821  2.1951 -3.0472 -3.0202
  354MOL0     H47781   7.132   9.392   2.890  1.3259  0.5389  0.7397
  354MOL0     H47782   7.204   9.263   2.690  0.8227  0.5265  0.4888
  354MOL0     H47783   7.267   9.134   2.800  3.2292  0.5416 -1.2966
  354MOL0     H47784   7.425   9.298   2.900  3.3997 -1.2962 -1.9027
  354MOL0     H47785   7.344   9.430   2.822 -0.4761 -0.7021  0.8139
  354MOL0     H47786   7.411   9.312   2.596 -3.4357  2.0495  2.6086
  354MOL0     H47787   7.514   9.211   2.697 -1.0417  0.0606  3.8450
  354MOL0     H47788   7.744   9.558   2.628 -1.6156  1.6375 -2.9039
  354MOL0     H47789   7.155   9.086   3.216 -1.0267  1.9724 -0.5719
  354MOL0     H47790   7.080   8.849   3.261  0.9088 -0.0312 -0.1690
  355MOL0     O47791   5.072   5.959   7.495 -1.1591 -0.1818 -0.2033
  355MOL0     C47792   5.160   5.870   7.486 -0.7850  0.3093 -0.2621
  355MOL0     O47793   5.296   5.893   7.502 -0.1479  0.7899  0.8971
  355MOL0     C47794   5.341   6.021   7.480  0.7315  0.3754  0.9160
  355MOL0     C47795   5.321   6.121   7.574  0.3205  0.6232  0.1883
  355MOL0     C47796   5.357   6.252   7.556 -0.6455  0.0402  0.8010
  355MOL0     C47797   5.424   6.294   7.438  0.3771 -0.9159 -0.2588
  355MOL0     O47798   5.456   6.432   7.430 -0.6454 -0.4390 -0.3005
  355MOL0     C47799   5.529   6.487   7.313  0.0770  0.2594 -0.0426
  355MOL0     C47800   5.590   6.620   7.350 -0.8263 -0.6855  0.7410
  355MOL0     C47801   5.491   6.726   7.372 -0.6046 -0.1445 -0.3912
  355MOL0     C47802   5.553   6.860   7.393 -0.8461  0.3084 -0.5702
  355MOL0     C47803   5.437   6.959   7.420 -0.3806  0.0859  0.3387
  355MOL0     C47804   5.404   6.972   7.572  0.5877 -0.4490  0.1931
  355MOL0     C47805   5.303   7.082   7.608  1.0056 -0.2336  0.2063
  355MOL0     C47806   5.237   7.078   7.741  0.8299 -0.2817 -0.7000
  355MOL0     N47807   5.328   7.054   7.861 -0.4306 -0.2645  0.4116
  355MOL0     C47808   5.370   6.930   7.904 -0.4430 -0.2738 -1.2972
  355MOL0     C47809   5.417   6.947   8.028 -0.3174 -0.8648 -0.8337
  355MOL0     C47810   5.478   6.838   8.123  0.1649 -0.1922 -0.1923
  355MOL0     C47811   5.412   6.818   8.264  0.7322  0.7576  0.2525
  355MOL0     C47812   5.442   6.684   8.330 -0.2169 -0.3043 -0.2052
  355MOL0     C47813   5.366   6.693   8.461 -0.3558 -0.2800  0.3666
  355MOL0     O47814   5.336   6.566   8.520 -0.8402  0.3601 -0.9177
  355MOL0     C47815   5.299   6.552   8.659  0.4778 -1.1287  0.8801
  355MOL0     C47816   5.352   6.636   8.768  0.5320 -0.3550 -1.2541
  355MOL0     C47817   5.318   6.598   8.903  0.1132  0.2628 -0.9696
  355MOL0     C47818   5.382   6.691   9.004  0.7389  0.8373  0.4562
  355MOL0     C47819   5.220   6.491   8.928 -0.5648  0.2884  0.9999
  355MOL0     C47820   5.179   6.447   9.062 -0.4621 -0.9232 -0.2981
  355MOL0     O47821   5.138   6.322   9.084  0.0783  0.5425 -0.0718
  355MOL0     C47822   5.091   6.294   9.209 -0.8922  0.1092  0.1793
  355MOL0     C47823   5.179   6.239   9.308  0.1402 -0.4870  0.3887
  355MOL0     C47824   5.119   6.188   9.423 -0.7123 -0.7648  0.3952
  355MOL0     C47825   4.978   6.204   9.455 -0.1219  0.0710  0.2563
  355MOL0     O47826   4.916   6.187   9.579  0.3257 -0.3968 -0.5318
  355MOL0     C47827   4.986   6.110   9.680  0.6062  0.0044  0.4046
  355MOL0     C47828   4.899   6.080   9.801  0.6491 -0.1605  0.8219
  355MOL0     C47829   4.856   6.216   9.856 -1.0466 -0.1514  0.1828
  355MOL0     C47830   4.747   6.203   9.963  0.8374 -1.0154 -0.3865
  355MOL0     C47831   4.694   6.340  10.020 -0.5793 -0.3924 -0.1968
  355MOL0     C47832   4.640   6.425   9.901  0.4607 -0.3542  0.1468
  355MOL0     C47833   4.567   6.560   9.943  0.0202 -0.0315 -0.2012
  355MOL0     C47834   4.441   6.530  10.039  0.6018 -0.5366 -0.0785
  355MOL0    Cl47835   4.358   6.694  10.082 -0.6234  0.2491 -0.1992
  355MOL0     C47836   4.898   6.255   9.355 -0.0570 -0.0246  0.1348
  355MOL0     C47837   4.953   6.305   9.234  0.2491  0.2114  0.4355
  355MOL0     O47838   5.187   6.530   9.152  0.7221 -0.5068 -0.3744
  355MOL0     C47839   5.171   6.424   8.813  0.2342  0.4370 -0.3514
  355MOL0     C47840   5.214   6.449   8.686 -0.5451  0.0753  0.0431
  355MOL0     N47841   5.407   7.077   8.064 -0.5393 -0.1500 -0.2853
  355MOL0     N47842   5.371   7.144   7.964 -0.7151  0.7386  0.9110
  355MOL0     C47843   5.447   6.199   7.338  0.6583  0.7979 -1.1116
  355MOL0     C47844   5.404   6.061   7.360  0.3352  0.2998 -0.3277
  355MOL0     C47845   5.126   5.733   7.461  0.1596 -0.4116 -0.9878
  355MOL0     C47846   5.029   5.699   7.362  1.0923  0.7528 -0.9331
  355MOL0     C47847   5.004   5.560   7.349 -0.3747  0.4634  0.5458
  355MOL0     C47848   5.059   5.458   7.424  0.5071 -1.1925  0.6917
  355MOL0     O47849   5.019   5.330   7.424 -0.0831 -0.1121  0.6661
  355MOL0     C47850   4.925   5.281   7.330 -1.1594 -0.5436 -1.0178
  355MOL0     C47851   4.930   5.130   7.337  0.1793  0.2161 -0.1972
  355MOL0     C47852   4.916   5.083   7.480 -0.9408  0.9300  0.2822
  355MOL0     C47853   4.895   4.926   7.490 -1.1320 -0.0479  0.2934
  355MOL0     C47854   5.015   4.851   7.472 -0.8229  0.2458 -0.0169
  355MOL0     C47855   5.113   4.776   7.469  1.1366 -0.3181  0.0742
  355MOL0     C47856   5.163   5.497   7.511 -0.7032  0.1597 -0.1454
  355MOL0     C47857   5.197   5.636   7.532  0.7839  1.1559  0.3758
  355MOL0     H47858   5.270   6.083   7.662 -0.6593  0.4380 -0.4409
  355MOL0     H47859   5.349   6.332   7.629  3.0526  3.8811 -2.4106
  355MOL0     H47860   5.610   6.414   7.299 -0.5379 -0.4635  0.0960
  355MOL0     H47861   5.460   6.495   7.228 -3.4537 -1.2523  2.4550
  355MOL0     H47862   5.640   6.611   7.447  0.3522  2.3498  0.5040
  355MOL0     H47863   5.668   6.653   7.282 -1.6083  3.2583  1.5199
  355MOL0     H47864   5.420   6.725   7.288 -0.6193 -0.1979 -0.3788
  355MOL0     H47865   5.429   6.712   7.461  0.2757 -0.3442  0.1995
  355MOL0     H47866   5.640   6.855   7.459 -1.8298  0.7389  0.8101
  355MOL0     H47867   5.594   6.887   7.295 -1.0063  2.6945 -0.0364
  355MOL0     H47868   5.471   7.055   7.380 -1.1117  0.2498  0.1086
  355MOL0     H47869   5.344   6.939   7.367  0.2587  0.7689 -1.1170
  355MOL0     H47870   5.372   6.878   7.618  1.3443 -1.2852 -0.9302
  355MOL0     H47871   5.506   6.978   7.610  0.0233 -2.9840  2.4217
  355MOL0     H47872   5.357   7.178   7.609  0.9134 -0.1448 -0.9941
  355MOL0     H47873   5.225   7.079   7.531 -1.7331 -1.8848  2.8616
  355MOL0     H47874   5.163   6.998   7.734 -2.1064  1.9980  1.5658
  355MOL0     H47875   5.177   7.169   7.748 -3.9290 -3.2177  1.1070
  355MOL0     H47876   5.369   6.826   7.874 -1.6422 -0.9257  0.7712
  355MOL0     H47877   5.472   6.748   8.062 -1.2773  0.8410 -1.6814
  355MOL0     H47878   5.581   6.867   8.145 -0.1922  0.7113  0.3753
  355MOL0     H47879   5.306   6.824   8.237  1.0874 -0.5057 -1.5683
  355MOL0     H47880   5.440   6.908   8.320 -0.9295  2.3821 -1.3937
  355MOL0     H47881   5.549   6.677   8.350 -0.2135 -2.0983 -0.6552
  355MOL0     H47882   5.412   6.597   8.271  1.9277 -1.7536  0.7093
  355MOL0     H47883   5.274   6.747   8.434  0.6877  0.7688 -1.3126
  355MOL0     H47884   5.422   6.751   8.535  2.4793 -0.7952 -1.2326
  355MOL0     H47885   5.428   6.710   8.747  1.6933 -0.1381  2.8828
  355MOL0     H47886   5.470   6.728   8.950  1.5140 -1.1471  0.2408
  355MOL0     H47887   5.317   6.767   9.047  0.7304  0.6198  0.8309
  355MOL0     H47888   5.419   6.631   9.088 -1.7314 -0.9761  0.3494
  355MOL0     H47889   5.285   6.245   9.287 -0.6337  0.5582 -4.3604
  355MOL0     H47890   5.181   6.136   9.495 -0.5980 -2.9316 -1.1919
  355MOL0     H47891   5.013   6.009   9.647  0.2622  0.3876 -1.1179
  355MOL0     H47892   5.066   6.175   9.717  0.2480  2.5185 -2.7543
  355MOL0     H47893   4.806   6.032   9.768 -0.1628  1.3813  0.7640
  355MOL0     H47894   4.945   6.015   9.876 -1.0304 -2.0842  0.2844
  355MOL0     H47895   4.816   6.276   9.775  3.2797  1.4339 -1.0244
  355MOL0     H47896   4.947   6.270   9.884 -0.2210 -0.2879 -2.0455
  355MOL0     H47897   4.663   6.149   9.918 -1.2987  0.8325  1.1126
  355MOL0     H47898   4.793   6.140  10.039 -2.3341 -2.4754  0.4793
  355MOL0     H47899   4.777   6.395  10.065  1.5474 -1.0271 -3.0452
  355MOL0     H47900   4.611   6.309  10.085 -2.6253 -0.5853 -2.7738
  355MOL0     H47901   4.719   6.462   9.835 -3.2117  3.1183 -2.8236
  355MOL0     H47902   4.568   6.373   9.837 -0.3366 -1.4674  1.8852
  355MOL0     H47903   4.527   6.610   9.855 -1.4778  0.7777  0.8808
  355MOL0     H47904   4.646   6.620   9.990 -0.8934  0.8336  0.2718
  355MOL0     H47905   4.470   6.483  10.133  0.7801 -0.6871 -0.2077
  355MOL0     H47906   4.367   6.459  10.001  0.9067 -3.2250  3.7271
  355MOL0     H47907   4.789   6.253   9.362  0.0310 -0.7979  1.4731
  355MOL0     H47908   4.885   6.322   9.151 -1.0195  1.4890  1.6838
  355MOL0     H47909   5.106   6.340   8.836 -0.4498 -0.1787 -3.9754
  355MOL0     H47910   5.178   6.382   8.608  0.3993 -3.9602  2.7399
  355MOL0     H47911   5.506   6.225   7.250  0.4905  0.3425 -1.3666
  355MOL0     H47912   5.427   5.984   7.288  0.3941  0.3935 -0.4100
  355MOL0     H47913   4.984   5.781   7.307  0.9352  0.6692 -0.9292
  355MOL0     H47914   4.936   5.535   7.269 -1.6915  0.9697  1.4588
  355MOL0     H47915   4.829   5.324   7.362 -1.7644 -3.7150  2.0479
  355MOL0     H47916   4.947   5.315   7.229 -2.8862  3.0862 -0.3451
  355MOL0     H47917   5.027   5.096   7.300  0.0060 -2.2249  1.4315
  355MOL0     H47918   4.850   5.086   7.276  0.9377  0.3194 -1.3029
  355MOL0     H47919   4.830   5.145   7.506  0.7802  4.2294 -1.2626
  355MOL0     H47920   5.001   5.109   7.543 -0.4878 -0.7705  0.4299
  355MOL0     H47921   4.824   4.883   7.419 -3.6677  1.1733  1.9280
  355MOL0     H47922   4.866   4.892   7.590 -1.2043 -1.3418 -0.1506
  355MOL0     H47923   5.198   4.710   7.464  2.0682  0.8395  0.1814
  355MOL0     H47924   5.221   5.424   7.567 -0.3606 -0.2974 -1.0723
  355MOL0     H47925   5.259   5.659   7.617  0.6392 -3.0293  1.8667
  356MOL0     O47926   3.373  10.645   3.264  0.5285 -0.2442 -0.2713
  356MOL0     C47927   3.371  10.595   3.371  1.1149 -0.3026 -1.1554
  356MOL0     O47928   3.284  10.496   3.409 -0.5019  0.0190  0.1619
  356MOL0     C47929   3.228  10.416   3.308  0.4371 -0.5582  0.4483
  356MOL0     C47930   3.098  10.385   3.328  0.5819  0.1269 -0.1379
  356MOL0     C47931   3.034  10.303   3.239  0.3381 -0.0045 -0.5231
  356MOL0     C47932   3.100  10.243   3.127 -0.0470 -0.1120  0.1852
  356MOL0     O47933   3.050  10.146   3.048 -0.3142 -0.3552  0.1971
  356MOL0     C47934   2.909  10.152   3.031  0.1342  0.2022  0.9677
  356MOL0     C47935   2.875  10.095   2.889 -0.3946  0.5988  0.1099
  356MOL0     C47936   2.931  10.188   2.774  0.0787  0.7970 -0.6769
  356MOL0     C47937   2.892  10.120   2.635  1.1529 -0.7577 -0.1623
  356MOL0     C47938   2.959  10.205   2.520 -0.6286  0.6271 -0.5297
  356MOL0     C47939   2.896  10.340   2.496  0.5359 -0.1401 -0.0972
  356MOL0     C47940   2.970  10.402   2.373 -0.1401 -0.3327  0.0465
  356MOL0     C47941   2.901  10.532   2.318  0.1825  0.5368 -0.2945
  356MOL0     N47942   2.753  10.517   2.314 -1.0093 -0.3684 -1.2548
  356MOL0     C47943   2.656  10.605   2.365  0.3518  0.4934 -1.2681
  356MOL0     C47944   2.539  10.543   2.341  0.3546  0.4321  0.3511
  356MOL0     C47945   2.400  10.580   2.368  0.2443 -0.7051  0.5711
  356MOL0     C47946   2.342  10.657   2.255  0.1051  0.1989 -0.6289
  356MOL0     C47947   2.217  10.727   2.300  0.4516 -0.5006 -0.5191
  356MOL0     C47948   2.144  10.779   2.178  0.1197  0.7346 -0.1458
  356MOL0     O47949   2.078  10.667   2.140  0.4316  0.2068 -0.1662
  356MOL0     C47950   1.997  10.671   2.027  0.3129 -1.7882  1.0173
  356MOL0     C47951   1.938  10.558   1.985 -0.5424 -0.3865  0.6800
  356MOL0     C47952   1.860  10.533   1.864  0.8659 -0.4166  0.6004
  356MOL0     C47953   1.807  10.401   1.844  0.0563 -0.4960 -0.1883
  356MOL0     C47954   1.836  10.641   1.780 -0.5351 -0.0695  0.0714
  356MOL0     C47955   1.753  10.639   1.657 -0.3750  0.7527 -0.6317
  356MOL0     O47956   1.785  10.724   1.560  0.2363  0.6556 -0.7029
  356MOL0     C47957   1.685  10.774   1.477  0.6816  0.1346  0.1394
  356MOL0     C47958   1.536  10.789   1.506 -0.0088  0.0027  0.7037
  356MOL0     C47959   1.454  10.833   1.405  0.9147  0.1734 -0.0756
  356MOL0     C47960   1.499  10.869   1.275  0.3582  0.3751  0.9574
  356MOL0     O47961   1.398  10.919   1.200 -0.7987 -0.6850 -0.3280
  356MOL0     C47962   1.431  10.979   1.070  0.2144  0.0854  0.3328
  356MOL0     C47963   1.302  11.043   1.000  0.2529 -0.0919 -0.4252
  356MOL0     C47964   1.344  11.113   0.867  0.8648 -0.2686 -0.4846
  356MOL0     C47965   1.396  11.021   0.763 -0.0230  0.4801  0.3857
  356MOL0     C47966   1.355  11.058   0.618  0.0942 -0.2133  0.6010
  356MOL0     C47967   1.432  10.989   0.499  0.2546  0.4311 -0.0061
  356MOL0     C47968   1.432  10.835   0.510 -0.6065 -0.1590 -0.7722
  356MOL0     C47969   1.560  10.776   0.554 -0.0835  0.7870  0.4120
  356MOL0    Cl47970   1.662  10.792   0.407  0.3186  0.1962 -0.3278
  356MOL0     C47971   1.636  10.871   1.247  0.4162 -0.5766  0.0724
  356MOL0     C47972   1.725  10.829   1.349 -0.4506  0.5875 -0.5194
  356MOL0     O47973   1.649  10.574   1.670  0.6767 -0.0258  0.5201
  356MOL0     C47974   1.868  10.766   1.841  1.0422 -0.4610  0.3997
  356MOL0     C47975   1.948  10.780   1.962 -0.2694 -0.8189  0.6046
  356MOL0     N47976   2.563  10.416   2.264 -0.8668 -0.4129 -0.3865
  356MOL0     N47977   2.690  10.420   2.250 -0.3604  0.4123 -0.7893
  356MOL0     C47978   3.230  10.284   3.097  0.2864  0.2421 -0.7768
  356MOL0     C47979   3.293  10.372   3.187  0.5200 -0.7080 -0.0551
  356MOL0     C47980   3.452  10.647   3.481 -0.2931 -0.1383 -0.1385
  356MOL0     C47981   3.542  10.751   3.470 -0.5242 -0.7554 -0.2832
  356MOL0     C47982   3.603  10.806   3.586 -0.8565 -0.9679  0.1029
  356MOL0     C47983   3.567  10.757   3.711 -0.5259 -0.1524 -0.4524
  356MOL0     O47984   3.626  10.787   3.830  0.3357  0.6858 -0.0495
  356MOL0     C47985   3.693  10.913   3.844 -1.0338 -0.8568  0.7620
  356MOL0     C47986   3.833  10.913   3.803 -0.2667  0.5027  1.2471
  356MOL0     C47987   3.918  10.808   3.883 -0.5412  0.7501 -0.3754
  356MOL0     C47988   3.980  10.859   4.014  0.2873  0.2698 -0.1020
  356MOL0     C47989   3.880  10.911   4.116 -0.4569 -0.5442  0.3254
  356MOL0     C47990   3.796  10.943   4.197 -0.6364 -0.8725 -0.1708
  356MOL0     C47991   3.472  10.657   3.720 -0.6570  0.3726  0.4637
  356MOL0     C47992   3.417  10.597   3.606 -0.0918 -0.2347  1.0536
  356MOL0     H47993   3.053  10.416   3.421 -0.2047 -0.2617 -0.3851
  356MOL0     H47994   2.929  10.298   3.265 -0.3571  3.3356 -2.1749
  356MOL0     H47995   2.868  10.092   3.113  1.7175  0.7564  2.2292
  356MOL0     H47996   2.867  10.251   3.047  0.3928  0.3187  0.9406
  356MOL0     H47997   2.924   9.998   2.876  0.9152  0.8991  2.3333
  356MOL0     H47998   2.766  10.088   2.882 -0.5586  2.5102  0.2324
  356MOL0     H47999   2.888  10.288   2.778 -1.3264  0.3641 -2.9888
  356MOL0     H48000   3.039  10.195   2.794 -0.2543 -1.6307  2.8822
  356MOL0     H48001   2.936  10.020   2.632  1.9939 -0.4942  1.6831
  356MOL0     H48002   2.784  10.120   2.619  1.0856 -3.1479 -0.0545
  356MOL0     H48003   3.067  10.211   2.535 -0.6116 -1.4990  0.6401
  356MOL0     H48004   2.948  10.140   2.433  3.2460 -0.2142 -0.5566
  356MOL0     H48005   2.792  10.322   2.467  0.7791  0.6689 -1.5173
  356MOL0     H48006   2.902  10.414   2.576  1.0212 -2.1004  1.7889
  356MOL0     H48007   3.075  10.421   2.398  0.1554 -1.0217 -0.6246
  356MOL0     H48008   2.962  10.326   2.294 -1.4606  1.0310 -1.2010
  356MOL0     H48009   2.935  10.562   2.219 -2.7087 -0.0408 -1.5573
  356MOL0     H48010   2.924  10.615   2.386  1.4166 -2.4385  3.2920
  356MOL0     H48011   2.656  10.702   2.412  0.7086 -0.0184 -0.1887
  356MOL0     H48012   2.348  10.485   2.378  1.2152 -1.5159 -1.4942
  356MOL0     H48013   2.393  10.641   2.459 -0.3203  1.8852 -1.1070
  356MOL0     H48014   2.330  10.585   2.174 -0.2019 -0.9173  0.3707
  356MOL0     H48015   2.408  10.735   2.216  0.1620 -0.0412 -1.0165
  356MOL0     H48016   2.245  10.813   2.361  0.3450  1.4510 -3.0373
  356MOL0     H48017   2.158  10.650   2.352  1.8275  0.1089  2.1125
  356MOL0     H48018   2.205  10.811   2.093  0.6631 -1.1783 -0.5110
  356MOL0     H48019   2.066  10.851   2.208  0.9171  0.3671  3.2126
  356MOL0     H48020   1.952  10.475   2.053 -2.4668 -1.4141 -0.0880
  356MOL0     H48021   1.719  10.385   1.907  0.0147 -4.0568 -0.9407
  356MOL0     H48022   1.776  10.380   1.741  1.2642 -0.1229 -0.6429
  356MOL0     H48023   1.879  10.323   1.870  0.3186 -0.7507 -1.6116
  356MOL0     H48024   1.471  10.772   1.591 -0.7451  1.2944  0.4191
  356MOL0     H48025   1.350  10.848   1.434  1.2151  1.7669  0.2729
  356MOL0     H48026   1.504  11.058   1.091 -0.9820  2.3018 -2.9218
  356MOL0     H48027   1.485  10.904   1.013  1.0476  0.7905  0.1676
  356MOL0     H48028   1.224  10.967   0.983  2.0762 -2.2918  0.4866
  356MOL0     H48029   1.255  11.117   1.065 -0.2293 -0.7653  0.0191
  356MOL0     H48030   1.420  11.189   0.889 -1.2745  2.0686 -0.6653
  356MOL0     H48031   1.253  11.167   0.840  1.4183  0.1579 -1.5525
  356MOL0     H48032   1.504  11.019   0.777 -0.0527 -1.0169  0.5450
  356MOL0     H48033   1.367  10.916   0.773  0.4949  0.2610 -0.2903
  356MOL0     H48034   1.377  11.164   0.603 -0.1702  0.1360  2.4372
  356MOL0     H48035   1.247  11.043   0.613  0.1120 -0.3650  0.6591
  356MOL0     H48036   1.390  11.018   0.402  1.2906 -0.4884 -0.7476
  356MOL0     H48037   1.532  11.032   0.497  0.5715 -0.2429  0.6867
  356MOL0     H48038   1.409  10.783   0.416  1.4310 -2.7221  0.0374
  356MOL0     H48039   1.349  10.814   0.578 -1.0598  3.2259 -0.1263
  356MOL0     H48040   1.560  10.669   0.580 -3.5933  0.7425  0.7679
  356MOL0     H48041   1.597  10.835   0.638 -0.3658  1.4752  0.0575
  356MOL0     H48042   1.686  10.915   1.162  2.0035 -2.3914 -0.0144
  356MOL0     H48043   1.830  10.830   1.322 -0.5481 -1.8019 -1.2043
  356MOL0     H48044   1.839  10.852   1.780  0.6926 -2.2538 -2.1191
  356MOL0     H48045   1.976  10.880   1.995 -1.9533  0.2521 -1.0637
  356MOL0     H48046   3.277  10.241   3.009 -0.2140 -0.2127 -0.8297
  356MOL0     H48047   3.388  10.413   3.154 -0.2238  0.5468 -0.7095
  356MOL0     H48048   3.570  10.784   3.370 -2.4857 -0.8356 -0.8918
  356MOL0     H48049   3.674  10.886   3.566 -1.6689 -0.3883 -0.5759
  356MOL0     H48050   3.628  10.993   3.807 -0.9304 -0.9086  0.4614
  356MOL0     H48051   3.705  10.933   3.951  1.8883  3.7943 -0.1136
  356MOL0     H48052   3.888  11.007   3.815  0.9351  0.3667 -2.0522
  356MOL0     H48053   3.836  10.887   3.696  1.9230  1.1677  1.0944
  356MOL0     H48054   4.008  10.781   3.826  1.5764  3.7840  1.2457
  356MOL0     H48055   3.858  10.720   3.906 -0.1378 -0.0165 -2.0612
  356MOL0     H48056   4.035  10.947   3.981  0.9013 -0.3586 -0.7788
  356MOL0     H48057   4.038  10.784   4.069 -0.6259 -0.8463 -0.6059
  356MOL0     H48058   3.716  10.962   4.266  0.0681  1.1051  0.1539
  356MOL0     H48059   3.444  10.613   3.816 -5.2224 -0.8886 -1.1763
  356MOL0     H48060   3.353  10.515   3.638 -0.1055 -1.2133 -1.3157
  357MOL0     O48061   2.065   3.502   1.708  0.9770  0.6096 -0.4707
  357MOL0     C48062   2.038   3.476   1.592  0.1826  0.5890 -0.0012
  357MOL0     O48063   2.070   3.363   1.519  0.9868 -0.2811 -0.1684
  357MOL0     C48064   2.108   3.251   1.585 -0.1861  0.2120  1.2803
  357MOL0     C48065   2.030   3.139   1.602  0.0095  0.4337  0.2481
  357MOL0     C48066   2.080   3.029   1.668  0.4724 -0.7654  0.0448
  357MOL0     C48067   2.208   3.025   1.723 -0.0442  0.6744  1.2521
  357MOL0     O48068   2.251   2.915   1.788  0.2427 -0.3314 -0.1910
  357MOL0     C48069   2.288   2.945   1.923 -1.2156  0.1168 -1.5016
  357MOL0     C48070   2.346   2.832   2.004 -0.0593 -0.5380  0.0770
  357MOL0     C48071   2.301   2.685   1.973  0.0140 -0.6857 -0.1928
  357MOL0     C48072   2.152   2.673   1.994  0.3923  0.8527  0.6701
  357MOL0     C48073   2.098   2.537   1.942 -0.0298 -0.3332 -0.1621
  357MOL0     C48074   2.161   2.413   2.005  0.3403  0.0339  0.9613
  357MOL0     C48075   2.118   2.270   1.953  0.2401 -0.3879  0.3245
  357MOL0     C48076   2.156   2.149   2.041 -1.4423 -0.5451 -0.4220
  357MOL0     N48077   2.307   2.135   2.060 -0.3037  0.6983  0.3892
  357MOL0     C48078   2.405   2.057   2.004  1.1638 -0.9235  0.3611
  357MOL0     C48079   2.520   2.079   2.074 -0.0073  0.6884  0.2988
  357MOL0     C48080   2.650   1.998   2.072 -0.1809  0.3472  0.4115
  357MOL0     C48081   2.705   1.940   1.935  1.1509 -0.8910  0.4513
  357MOL0     C48082   2.745   2.066   1.853 -0.3359  0.7988 -0.3736
  357MOL0     C48083   2.846   2.028   1.749 -0.5916  0.4131 -1.1884
  357MOL0     O48084   2.780   1.947   1.645 -0.1373 -0.2131 -0.7775
  357MOL0     C48085   2.705   2.012   1.551 -0.0423 -0.2026  0.4076
  357MOL0     C48086   2.763   2.086   1.449  0.3226  0.6970 -0.1569
  357MOL0     C48087   2.687   2.139   1.347 -0.2008  0.1970 -0.2832
  357MOL0     C48088   2.757   2.221   1.247 -0.0713  0.4283  0.3286
  357MOL0     C48089   2.553   2.115   1.348  0.3932  0.7522  0.5907
  357MOL0     C48090   2.452   2.144   1.233 -1.4304  0.2000  1.0238
  357MOL0     O48091   2.507   2.223   1.134  0.5578 -0.1460  0.7376
  357MOL0     C48092   2.425   2.283   1.034  0.4033  0.3722 -0.0615
  357MOL0     C48093   2.284   2.270   1.013 -0.4883  0.3425 -1.0556
  357MOL0     C48094   2.223   2.344   0.912  0.0941  0.2066 -0.1085
  357MOL0     C48095   2.293   2.440   0.840 -0.3740  0.1147  0.0429
  357MOL0     O48096   2.217   2.520   0.755 -0.1073  0.6694 -0.3011
  357MOL0     C48097   2.270   2.645   0.727  0.1612 -0.3815  0.9623
  357MOL0     C48098   2.156   2.742   0.690  0.2427  0.7685  0.4988
  357MOL0     C48099   2.102   2.700   0.551  0.4905 -0.4138  0.0286
  357MOL0     C48100   1.956   2.659   0.573  0.5180  0.4387  0.4434
  357MOL0     C48101   1.877   2.622   0.453  0.3665  0.5424  0.3603
  357MOL0     C48102   1.721   2.649   0.463 -0.3448 -0.2847 -0.2915
  357MOL0     C48103   1.647   2.583   0.588 -0.0909  0.6401  0.1378
  357MOL0     C48104   1.495   2.577   0.568 -0.1483 -0.2060 -0.6524
  357MOL0    Cl48105   1.444   2.736   0.639  0.0763  0.0215 -0.2671
  357MOL0     C48106   2.426   2.456   0.867 -0.6495  0.0735  0.1264
  357MOL0     C48107   2.489   2.368   0.957 -0.7460 -0.3027  1.0383
  357MOL0     O48108   2.340   2.094   1.229  0.1638 -1.1348  0.4865
  357MOL0     C48109   2.490   2.050   1.457  0.2516 -0.1452  0.9570
  357MOL0     C48110   2.568   1.984   1.549  0.0237 -0.2665 -0.4325
  357MOL0     N48111   2.486   2.170   2.177 -0.9616  0.0532 -0.6684
  357MOL0     N48112   2.366   2.202   2.160 -0.4919 -0.2562  0.3718
  357MOL0     C48113   2.292   3.134   1.695 -0.0129  0.7783 -1.6432
  357MOL0     C48114   2.241   3.247   1.640  1.0337 -0.9128 -0.4963
  357MOL0     C48115   1.979   3.586   1.517 -0.2779 -0.0017 -0.5681
  357MOL0     C48116   1.973   3.560   1.375 -0.3935  0.3159 -0.1887
  357MOL0     C48117   1.917   3.657   1.289  0.1095  0.4578 -0.5502
  357MOL0     C48118   1.868   3.777   1.343  0.6921  0.0959 -0.0893
  357MOL0     O48119   1.822   3.870   1.260 -0.3323 -0.2598  0.3807
  357MOL0     C48120   1.809   4.004   1.301 -0.0030  0.2774  0.4806
  357MOL0     C48121   1.752   4.068   1.180  0.9157  1.2650 -0.4716
  357MOL0     C48122   1.842   4.079   1.054  0.1411  0.0064  0.0618
  357MOL0     C48123   1.877   3.951   0.970 -0.0631  0.9525  0.1764
  357MOL0     C48124   1.977   3.989   0.866 -0.1155  0.3239 -0.6037
  357MOL0     C48125   2.042   4.033   0.776 -1.0283 -0.4004  1.0326
  357MOL0     C48126   1.867   3.802   1.487  0.5881  1.3535  1.1660
  357MOL0     C48127   1.922   3.704   1.567  0.2242 -0.4152 -0.8436
  357MOL0     H48128   1.929   3.146   1.564 -0.1207  0.3769  0.5731
  357MOL0     H48129   2.027   2.934   1.674 -0.2862 -0.2393  3.3231
  357MOL0     H48130   2.369   3.018   1.922 -0.7962 -0.2814  0.2980
  357MOL0     H48131   2.206   2.980   1.987 -0.0539 -2.2638  1.5102
  357MOL0     H48132   2.454   2.829   1.987  0.1801 -1.2890  1.5087
  357MOL0     H48133   2.321   2.847   2.110 -1.7010  1.9162 -0.5730
  357MOL0     H48134   2.325   2.661   1.869 -0.2889 -0.1156 -0.4013
  357MOL0     H48135   2.358   2.611   2.029  2.3149 -0.5074 -2.1031
  357MOL0     H48136   2.126   2.681   2.100 -3.1720 -1.3097  0.1045
  357MOL0     H48137   2.102   2.753   1.939 -2.1257  1.2389  3.3061
  357MOL0     H48138   1.988   2.537   1.945 -0.4192  2.4520 -4.5846
  357MOL0     H48139   2.105   2.539   1.832 -3.4112 -0.0628 -0.4887
  357MOL0     H48140   2.270   2.423   1.999  0.0517  3.6414 -1.3777
  357MOL0     H48141   2.143   2.407   2.113  1.3187 -0.4433  1.1131
  357MOL0     H48142   2.009   2.276   1.956  0.3392  1.5811  2.4711
  357MOL0     H48143   2.153   2.266   1.849 -1.9736  0.6002 -0.5147
  357MOL0     H48144   2.101   2.061   2.008 -0.5246 -0.9553 -0.9086
  357MOL0     H48145   2.117   2.173   2.140 -1.1023 -1.9143  0.0550
  357MOL0     H48146   2.395   1.988   1.920 -0.6603  0.2704 -0.4590
  357MOL0     H48147   2.736   2.046   2.119  1.7652 -1.9136 -0.6110
  357MOL0     H48148   2.630   1.907   2.130  0.0863 -2.2882 -3.2654
  357MOL0     H48149   2.630   1.876   1.887  0.1647  2.2503 -2.5980
  357MOL0     H48150   2.783   1.868   1.961  1.1024 -1.1196 -0.0222
  357MOL0     H48151   2.786   2.142   1.920  3.1761  0.2975 -1.7193
  357MOL0     H48152   2.670   2.099   1.780 -0.2714 -4.4539 -3.3349
  357MOL0     H48153   2.931   1.974   1.791 -1.2922 -0.0430 -0.3151
  357MOL0     H48154   2.889   2.118   1.705  0.8427  0.2319 -0.2296
  357MOL0     H48155   2.869   2.106   1.458  0.1390  2.6434 -1.5717
  357MOL0     H48156   2.865   2.205   1.254  0.5986 -0.6818 -6.4781
  357MOL0     H48157   2.729   2.194   1.145 -0.0478  3.7920 -0.7062
  357MOL0     H48158   2.718   2.322   1.266 -1.3142 -0.2568  1.6342
  357MOL0     H48159   2.220   2.215   1.081 -2.3527  4.0734  0.4999
  357MOL0     H48160   2.116   2.352   0.892 -0.1412 -1.2539  0.4715
  357MOL0     H48161   2.326   2.690   0.810  1.7878  0.2487 -0.4088
  357MOL0     H48162   2.341   2.647   0.644 -2.1356 -0.3355 -1.1067
  357MOL0     H48163   2.078   2.748   0.766  0.4886 -0.2762  0.8532
  357MOL0     H48164   2.217   2.832   0.696  3.6728 -1.3494  0.2151
  357MOL0     H48165   2.165   2.641   0.485 -0.7926 -2.1467  0.2849
  357MOL0     H48166   2.087   2.798   0.505  2.0370 -1.1418 -2.1390
  357MOL0     H48167   1.958   2.578   0.647  0.1351 -1.4251 -1.4647
  357MOL0     H48168   1.903   2.738   0.627 -1.5352 -0.4564 -0.1371
  357MOL0     H48169   1.881   2.512   0.448  0.5748  0.5719 -0.3166
  357MOL0     H48170   1.910   2.655   0.354  0.1671 -0.1216  0.0602
  357MOL0     H48171   1.706   2.757   0.473 -2.6662 -0.6801  1.3947
  357MOL0     H48172   1.663   2.628   0.372  0.3623 -0.7232 -0.6532
  357MOL0     H48173   1.680   2.625   0.683  2.0452 -1.1501  0.2763
  357MOL0     H48174   1.680   2.479   0.592 -2.3889 -0.2543 -1.6498
  357MOL0     H48175   1.459   2.489   0.623  0.3649 -2.2270 -3.3425
  357MOL0     H48176   1.456   2.562   0.467 -1.0745 -0.6232 -0.2457
  357MOL0     H48177   2.493   2.524   0.816 -0.4936  1.6502  2.2679
  357MOL0     H48178   2.595   2.377   0.976 -0.2482 -1.3139 -1.0214
  357MOL0     H48179   2.382   2.048   1.465 -0.0923 -0.7800 -2.4185
  357MOL0     H48180   2.520   1.931   1.631  1.6001 -0.1077  0.6437
  357MOL0     H48181   2.396   3.131   1.726 -0.5145 -0.6329  0.1255
  357MOL0     H48182   2.302   3.336   1.629  1.2765 -1.3000 -2.8285
  357MOL0     H48183   1.993   3.466   1.325  2.6082 -0.8684  2.8520
  357MOL0     H48184   1.911   3.638   1.183 -0.9272 -1.7254 -0.1610
  357MOL0     H48185   1.751   4.002   1.394  1.1070  2.5345  1.2947
  357MOL0     H48186   1.909   4.047   1.314  0.6885 -1.3387  0.7824
  357MOL0     H48187   1.706   4.160   1.216 -2.3676 -0.4798  0.1904
  357MOL0     H48188   1.660   4.016   1.152 -0.6450  2.2996  2.2600
  357MOL0     H48189   1.935   4.128   1.084 -0.2162  0.0833  1.0825
  357MOL0     H48190   1.785   4.145   0.989  0.2114  1.3713  1.3406
  357MOL0     H48191   1.787   3.911   0.923  0.9829 -0.4333 -0.7025
  357MOL0     H48192   1.921   3.873   1.033 -4.2271 -1.6307  0.2842
  357MOL0     H48193   2.082   4.066   0.682 -3.0502  0.8022  0.5275
  357MOL0     H48194   1.817   3.893   1.519 -3.8698  1.5176 -4.6025
  357MOL0     H48195   1.936   3.709   1.675  0.2987  0.5966 -0.8907
  358MOL0     O48196   4.780   2.595   2.803  0.3215 -0.1778  0.1241
  358MOL0     C48197   4.754   2.518   2.711 -0.4832  0.4571  0.2693
  358MOL0     O48198   4.634   2.524   2.645 -0.8890  0.4099 -0.2465
  358MOL0     C48199   4.542   2.622   2.664 -0.3419  0.5255 -0.1191
  358MOL0     C48200   4.407   2.579   2.670 -0.8655  0.0645  0.0982
  358MOL0     C48201   4.309   2.681   2.674  0.3719 -0.2635 -0.7739
  358MOL0     C48202   4.329   2.822   2.675 -0.0760 -0.1804 -0.1336
  358MOL0     O48203   4.233   2.922   2.690 -0.1881  0.0869 -0.5910
  358MOL0     C48204   4.179   2.971   2.573  0.0958 -0.7913  0.4253
  358MOL0     C48205   4.031   2.995   2.574  0.8449  0.8515  1.0021
  358MOL0     C48206   3.983   3.093   2.466 -0.2995 -0.6838  1.0593
  358MOL0     C48207   4.052   3.223   2.456 -1.2151  0.1148  0.3098
  358MOL0     C48208   3.970   3.340   2.379  0.1815 -0.0652 -0.9794
  358MOL0     C48209   3.896   3.294   2.253 -0.0924  0.5330  1.0386
  358MOL0     C48210   3.796   3.395   2.221  0.5077 -0.0699  0.4258
  358MOL0     C48211   3.765   3.416   2.072 -0.0592 -0.9214  0.0419
  358MOL0     N48212   3.888   3.454   2.006 -0.0505 -0.3546 -0.4662
  358MOL0     C48213   3.951   3.384   1.913  0.3197  0.7051  0.3873
  358MOL0     C48214   4.045   3.465   1.860  0.0879 -1.0163  0.4208
  358MOL0     C48215   4.162   3.429   1.770 -0.0414 -0.3511  0.1110
  358MOL0     C48216   4.169   3.287   1.731 -0.4185 -0.7848  0.3630
  358MOL0     C48217   4.308   3.253   1.671  1.0139  0.3052 -0.7002
  358MOL0     C48218   4.306   3.110   1.623 -0.1568  0.2618 -0.0741
  358MOL0     O48219   4.322   3.020   1.732 -0.2669  0.1269 -0.5396
  358MOL0     C48220   4.428   2.936   1.736 -0.6754  0.2801 -0.2582
  358MOL0     C48221   4.457   2.859   1.631  0.4417 -0.1270  1.3858
  358MOL0     C48222   4.573   2.784   1.633 -1.2718 -0.0480  1.1412
  358MOL0     C48223   4.607   2.712   1.498  0.1469  0.2932 -0.2646
  358MOL0     C48224   4.660   2.783   1.747  0.1938  0.6879 -0.1887
  358MOL0     C48225   4.796   2.709   1.750  0.1266 -0.1037  0.6121
  358MOL0     O48226   4.860   2.708   1.632 -0.1887  0.0155 -0.8302
  358MOL0     C48227   4.985   2.656   1.623  0.1682 -0.4722 -1.0856
  358MOL0     C48228   5.096   2.712   1.682  0.4344  0.8624  0.4774
  358MOL0     C48229   5.212   2.634   1.664 -0.3860 -0.0120  0.5497
  358MOL0     C48230   5.221   2.509   1.599 -0.5795  0.0262  0.7701
  358MOL0     O48231   5.337   2.439   1.598  0.3728  0.2389 -0.3199
  358MOL0     C48232   5.329   2.297   1.595  1.2533  0.0200  0.5404
  358MOL0     C48233   5.260   2.226   1.716 -1.4157  1.4712  0.6597
  358MOL0     C48234   5.325   2.242   1.855 -0.4185  0.6007 -0.2968
  358MOL0     C48235   5.396   2.112   1.908  0.6757 -1.6410  0.4843
  358MOL0     C48236   5.529   2.079   1.838  0.0810 -0.0723 -0.7024
  358MOL0     C48237   5.622   1.998   1.915 -0.1614  0.2295  0.0881
  358MOL0     C48238   5.744   1.955   1.834  1.3239 -0.3191 -0.2666
  358MOL0     C48239   5.829   1.867   1.922 -0.3826 -0.2845 -0.5413
  358MOL0    Cl48240   5.916   1.976   2.036 -0.3733  0.3423  0.0784
  358MOL0     C48241   5.101   2.459   1.537 -0.5423 -0.2330 -0.5383
  358MOL0     C48242   4.990   2.535   1.550  1.8100 -0.8896  0.9118
  358MOL0     O48243   4.839   2.676   1.864 -0.7083 -0.3376  0.5283
  358MOL0     C48244   4.622   2.862   1.856 -0.4586 -0.0266  1.3616
  358MOL0     C48245   4.505   2.936   1.849  0.7485  0.6817 -1.0168
  358MOL0     N48246   4.051   3.587   1.928 -0.6075 -0.5589  0.0950
  358MOL0     N48247   3.944   3.581   2.007 -0.0633  0.1667 -0.1685
  358MOL0     C48248   4.454   2.857   2.674 -0.6695 -0.4934  0.2609
  358MOL0     C48249   4.567   2.767   2.662  0.1612  0.4739  0.2674
  358MOL0     C48250   4.853   2.402   2.685 -0.6316 -0.4762  0.3953
  358MOL0     C48251   4.966   2.381   2.759 -0.6301 -0.3744  0.1057
  358MOL0     C48252   5.055   2.272   2.734 -0.0921 -0.7062 -0.7793
  358MOL0     C48253   5.028   2.181   2.630  0.6573  0.5764 -0.4236
  358MOL0     O48254   5.119   2.087   2.619  0.2544 -0.1404  0.0174
  358MOL0     C48255   5.130   2.023   2.494  0.0748  0.8027  0.0427
  358MOL0     C48256   5.282   1.977   2.467  0.3373  0.4397  0.5169
  358MOL0     C48257   5.277   1.867   2.360  0.1695 -0.9138 -0.2650
  358MOL0     C48258   5.414   1.792   2.360 -0.8068 -0.5198  0.0347
  358MOL0     C48259   5.528   1.872   2.308  0.5342 -0.0411  0.6128
  358MOL0     C48260   5.635   1.916   2.272 -0.1963  0.1621 -0.1494
  358MOL0     C48261   4.925   2.211   2.552 -0.2645 -0.2427  0.0864
  358MOL0     C48262   4.837   2.318   2.573 -0.3631  0.2174 -0.2553
  358MOL0     H48263   4.380   2.475   2.657 -3.0084  0.3202  1.8232
  358MOL0     H48264   4.204   2.657   2.683 -0.7243  3.4148 -1.7492
  358MOL0     H48265   4.231   3.066   2.563 -0.5372 -0.3868  0.9405
  358MOL0     H48266   4.193   2.906   2.485 -0.2533  1.2451 -1.2005
  358MOL0     H48267   3.973   2.902   2.571  0.0873  1.2591  2.3001
  358MOL0     H48268   4.001   3.048   2.664  1.8177  0.5439  1.5134
  358MOL0     H48269   4.008   3.039   2.374  0.8104  0.7956  0.4648
  358MOL0     H48270   3.875   3.093   2.447  0.0427 -1.7691 -1.2160
  358MOL0     H48271   4.098   3.254   2.550  0.2260  1.6338 -0.8466
  358MOL0     H48272   4.144   3.206   2.400 -0.8675  0.4088  0.7953
  358MOL0     H48273   3.903   3.380   2.455  1.4989 -0.1169  0.2625
  358MOL0     H48274   4.049   3.407   2.343 -0.8338  2.2260  0.7554
  358MOL0     H48275   3.970   3.304   2.173 -0.8853  1.4403  0.3947
  358MOL0     H48276   3.856   3.192   2.253  0.1198  0.4194 -0.7053
  358MOL0     H48277   3.704   3.361   2.268  1.8685 -2.8648  1.2499
  358MOL0     H48278   3.831   3.488   2.267  1.1730  0.9196 -1.8763
  358MOL0     H48279   3.677   3.479   2.058 -1.6187 -2.2122  3.2084
  358MOL0     H48280   3.727   3.326   2.024 -0.0543 -1.3090  0.7579
  358MOL0     H48281   3.935   3.279   1.889  3.2375  0.1461  0.5877
  358MOL0     H48282   4.151   3.491   1.681 -0.7876  1.8294  1.6364
  358MOL0     H48283   4.262   3.453   1.809  2.2441 -3.4187 -3.1601
  358MOL0     H48284   4.092   3.267   1.657 -1.1703  1.7556  0.3669
  358MOL0     H48285   4.140   3.227   1.818  0.9935 -3.7789 -1.0833
  358MOL0     H48286   4.381   3.251   1.752 -0.1699  0.0531  0.4075
  358MOL0     H48287   4.340   3.323   1.593  2.7265  0.6189  0.2430
  358MOL0     H48288   4.396   3.084   1.566 -0.5593 -0.9017 -0.1888
  358MOL0     H48289   4.212   3.090   1.572 -2.2646  2.3044  2.6836
  358MOL0     H48290   4.399   2.842   1.541 -2.2412 -2.0011  3.3085
  358MOL0     H48291   4.664   2.771   1.426  0.3194  1.3069  0.6774
  358MOL0     H48292   4.663   2.619   1.513  0.3090  0.4558  0.1298
  358MOL0     H48293   4.520   2.678   1.441  2.5637 -2.9923 -2.3835
  358MOL0     H48294   5.106   2.803   1.739  0.1736  2.7761 -2.3438
  358MOL0     H48295   5.296   2.679   1.717  0.3747 -0.4586 -0.2441
  358MOL0     H48296   5.292   2.259   1.499  1.3923  0.0492  0.4742
  358MOL0     H48297   5.430   2.256   1.588  0.5954 -1.9890  1.9761
  358MOL0     H48298   5.157   2.263   1.725 -2.2011 -0.6416  0.9367
  358MOL0     H48299   5.240   2.122   1.691  2.2099  1.0429 -1.0551
  358MOL0     H48300   5.245   2.264   1.926 -1.6256  2.9485 -2.2197
  358MOL0     H48301   5.397   2.322   1.840  0.8914 -1.0380 -3.8499
  358MOL0     H48302   5.405   2.133   2.015 -1.3791 -2.1719  0.8156
  358MOL0     H48303   5.324   2.029   1.906 -1.0351 -0.2164 -0.9967
  358MOL0     H48304   5.587   2.169   1.815  1.7427 -0.5931  1.1283
  358MOL0     H48305   5.514   2.028   1.743  1.4365 -3.7647  0.8653
  358MOL0     H48306   5.646   2.068   1.995 -0.7810 -1.4161  1.7696
  358MOL0     H48307   5.564   1.911   1.949 -1.2529  1.0264  0.3467
  358MOL0     H48308   5.800   2.045   1.807  0.0254  0.2432 -1.1921
  358MOL0     H48309   5.708   1.898   1.747  1.9669  1.3607 -1.7052
  358MOL0     H48310   5.903   1.801   1.875 -1.2407 -0.5822 -1.5043
  358MOL0     H48311   5.781   1.799   1.993  1.0930  0.7961  1.6258
  358MOL0     H48312   5.109   2.381   1.462  0.0227  1.3720 -2.2369
  358MOL0     H48313   4.894   2.517   1.503  1.6566  0.2474  0.7635
  358MOL0     H48314   4.677   2.863   1.949  1.9236  3.7999  0.1710
  358MOL0     H48315   4.484   2.997   1.937  0.8517 -2.1645  1.0987
  358MOL0     H48316   4.468   2.964   2.681 -0.8819 -0.5441  2.1204
  358MOL0     H48317   4.670   2.800   2.652 -0.6558  3.8066  1.5798
  358MOL0     H48318   4.997   2.451   2.837  2.6573 -0.2004 -1.1771
  358MOL0     H48319   5.146   2.270   2.794 -1.2992 -0.4871  1.1449
  358MOL0     H48320   5.053   1.946   2.486  1.9670 -1.0949 -1.0195
  358MOL0     H48321   5.115   2.094   2.413  0.9815  0.1720 -0.6956
  358MOL0     H48322   5.317   1.925   2.557  1.7256 -0.5895 -0.5621
  358MOL0     H48323   5.342   2.068   2.459  1.4951 -0.4483 -2.0817
  358MOL0     H48324   5.242   1.904   2.263 -0.8895  1.2776  0.8826
  358MOL0     H48325   5.207   1.788   2.389  0.4146 -2.7509 -4.0689
  358MOL0     H48326   5.408   1.696   2.308 -0.7097 -0.7637  0.4605
  358MOL0     H48327   5.431   1.750   2.460 -0.1447 -1.0946 -0.3150
  358MOL0     H48328   5.730   1.964   2.258  0.2179 -0.8208 -0.8726
  358MOL0     H48329   4.905   2.158   2.459 -0.5763 -1.7165  0.9614
  358MOL0     H48330   4.749   2.337   2.513 -0.6313 -1.7422 -0.5591
  359MOL0     O48331   4.790   7.948   5.365  0.1517 -0.0525  0.2852
  359MOL0     C48332   4.815   8.027   5.453 -0.7718  0.7225 -1.0875
  359MOL0     O48333   4.745   8.044   5.572 -0.7821  0.3972  0.1498
  359MOL0     C48334   4.650   7.943   5.598  0.1934  0.9843  0.3941
  359MOL0     C48335   4.682   7.804   5.583 -0.8342  0.2100 -0.0642
  359MOL0     C48336   4.585   7.710   5.601  0.5266  0.0669  0.5975
  359MOL0     C48337   4.447   7.748   5.610 -0.8119  0.0870 -0.1619
  359MOL0     O48338   4.345   7.655   5.626 -0.4443 -0.3639  0.5523
  359MOL0     C48339   4.380   7.533   5.699  0.4348 -0.0279 -0.1371
  359MOL0     C48340   4.251   7.481   5.765 -0.9645  0.6670 -0.0487
  359MOL0     C48341   4.133   7.446   5.667 -0.3053 -0.5345 -0.0841
  359MOL0     C48342   4.026   7.373   5.751 -0.4310  0.3760  0.4083
  359MOL0     C48343   3.934   7.279   5.665  0.8445 -0.4673  0.7675
  359MOL0     C48344   3.845   7.371   5.581  0.1121 -0.4244 -0.4195
  359MOL0     C48345   3.731   7.278   5.523 -0.1075 -0.2224  0.3526
  359MOL0     C48346   3.611   7.362   5.474  0.4250 -0.0716 -0.0710
  359MOL0     N48347   3.516   7.293   5.387  0.4604 -0.1676 -0.0913
  359MOL0     C48348   3.469   7.173   5.424  0.4215  0.6504 -0.3963
  359MOL0     C48349   3.364   7.149   5.340  0.0743  0.1260 -0.9081
  359MOL0     C48350   3.271   7.035   5.332  0.0074 -0.3778  0.0331
  359MOL0     C48351   3.125   7.087   5.370  0.1114 -0.6875  0.2678
  359MOL0     C48352   3.014   6.977   5.375 -0.2252  0.2276  0.2927
  359MOL0     C48353   2.892   7.049   5.434 -0.7390 -0.7325 -0.6631
  359MOL0     O48354   2.771   6.988   5.376 -0.1912  0.2817 -0.1891
  359MOL0     C48355   2.659   7.074   5.369 -0.2699 -0.0112  1.1396
  359MOL0     C48356   2.641   7.202   5.423 -0.1729 -0.1969 -0.4236
  359MOL0     C48357   2.520   7.273   5.414 -0.4900 -0.6509  0.3018
  359MOL0     C48358   2.513   7.402   5.482  0.9996 -0.7306 -0.3687
  359MOL0     C48359   2.408   7.207   5.362 -0.4954 -0.3991  0.2748
  359MOL0     C48360   2.265   7.263   5.356  0.2445  0.0184 -0.0581
  359MOL0     O48361   2.176   7.197   5.270 -0.0127  0.1019  0.2353
  359MOL0     C48362   2.067   7.253   5.204  0.1416 -0.5492 -0.2413
  359MOL0     C48363   2.042   7.386   5.178  0.5010  0.9304  0.3872
  359MOL0     C48364   1.920   7.425   5.123 -0.5808  1.0599  0.2908
  359MOL0     C48365   1.825   7.325   5.084  0.3692 -0.1023  0.4395
  359MOL0     O48366   1.703   7.337   5.027  0.2043 -0.6777  1.0118
  359MOL0     C48367   1.624   7.455   5.051 -0.5066  0.5575 -0.6141
  359MOL0     C48368   1.502   7.449   4.954 -0.2639  0.5362  0.1177
  359MOL0     C48369   1.551   7.515   4.821  0.8624  0.8209 -0.5048
  359MOL0     C48370   1.456   7.471   4.707  0.6730 -0.2260 -1.0946
  359MOL0     C48371   1.470   7.322   4.668 -0.0269 -0.0911  0.4360
  359MOL0     C48372   1.469   7.301   4.525  0.2770 -0.0718 -0.6854
  359MOL0     C48373   1.411   7.167   4.486 -0.3147 -0.2677  0.3296
  359MOL0     C48374   1.422   7.159   4.329  0.5751  0.0918 -0.1961
  359MOL0    Cl48375   1.363   6.999   4.289  0.3668  0.5153  0.6757
  359MOL0     C48376   1.853   7.190   5.099  0.1684 -0.4627 -0.4857
  359MOL0     C48377   1.976   7.149   5.162 -0.2165 -0.5140 -0.0163
  359MOL0     O48378   2.242   7.366   5.420 -0.8199  0.5270  0.1161
  359MOL0     C48379   2.429   7.085   5.294  0.8846 -0.6721  0.0844
  359MOL0     C48380   2.550   7.021   5.292  0.2522  0.7366  0.2520
  359MOL0     N48381   3.350   7.254   5.258 -0.1753 -0.0095  0.5066
  359MOL0     N48382   3.436   7.347   5.293  0.1282  0.8104 -0.6273
  359MOL0     C48383   4.415   7.883   5.610 -0.3471 -0.1507 -0.8278
  359MOL0     C48384   4.513   7.982   5.616 -0.1080 -0.6727  0.3332
  359MOL0     C48385   4.922   8.124   5.427  0.6469 -0.2996 -0.5511
  359MOL0     C48386   4.978   8.191   5.536  0.3232 -0.0244 -0.3675
  359MOL0     C48387   5.095   8.269   5.518 -0.5627 -0.5839 -0.6917
  359MOL0     C48388   5.154   8.296   5.389  0.6156  0.2478 -0.3256
  359MOL0     O48389   5.280   8.351   5.375  0.2597 -1.0154 -0.1214
  359MOL0     C48390   5.348   8.397   5.491 -0.4787  0.0492  0.0933
  359MOL0     C48391   5.480   8.450   5.442  0.9732 -0.4443 -0.7931
  359MOL0     C48392   5.458   8.558   5.345 -0.5388  0.5419  0.6536
  359MOL0     C48393   5.591   8.627   5.313  0.1342  0.1322  1.0097
  359MOL0     C48394   5.574   8.712   5.191 -0.3398 -0.2814  0.1392
  359MOL0     C48395   5.564   8.768   5.085 -0.1857  0.9781 -0.0805
  359MOL0     C48396   5.084   8.240   5.280  0.7797 -0.0711  0.4372
  359MOL0     C48397   4.975   8.154   5.296 -0.7167  0.5806 -0.0959
  359MOL0     H48398   4.786   7.775   5.567 -0.8762  0.9407 -1.9625
  359MOL0     H48399   4.626   7.610   5.596  2.2834  0.7512  0.5798
  359MOL0     H48400   4.424   7.458   5.632  0.4685 -0.4524  0.3605
  359MOL0     H48401   4.457   7.561   5.771 -1.5205  2.2864  1.2186
  359MOL0     H48402   4.268   7.396   5.832 -1.7210  2.5242  2.6907
  359MOL0     H48403   4.204   7.556   5.829 -1.0223  0.6893 -0.1166
  359MOL0     H48404   4.097   7.535   5.615  1.2458  1.0662  1.4462
  359MOL0     H48405   4.175   7.376   5.594 -0.6528 -2.8436  1.8115
  359MOL0     H48406   4.060   7.314   5.837  4.4071 -0.9917 -2.0657
  359MOL0     H48407   3.971   7.448   5.807  1.3480  1.7778  0.3660
  359MOL0     H48408   3.978   7.202   5.602 -2.0454  1.5365 -4.3354
  359MOL0     H48409   3.876   7.223   5.740 -1.5611  1.1278  0.2344
  359MOL0     H48410   3.789   7.452   5.629 -1.5919  1.0646 -4.5236
  359MOL0     H48411   3.908   7.411   5.502  0.6220  0.9759  0.6488
  359MOL0     H48412   3.781   7.231   5.438  3.3492  1.5706  1.2242
  359MOL0     H48413   3.697   7.200   5.592 -1.1612 -0.4582 -0.4101
  359MOL0     H48414   3.644   7.447   5.413 -0.7564  0.4793  0.0348
  359MOL0     H48415   3.568   7.394   5.569  2.4594 -0.1401  0.9279
  359MOL0     H48416   3.492   7.103   5.504 -5.3910  1.2992  2.3342
  359MOL0     H48417   3.278   6.987   5.234 -2.4991 -0.4986 -0.1455
  359MOL0     H48418   3.292   6.963   5.412 -1.3465  0.0913  0.8462
  359MOL0     H48419   3.104   7.165   5.296 -1.9908  2.2761  3.6338
  359MOL0     H48420   3.126   7.144   5.464  1.1111 -0.5341  0.1753
  359MOL0     H48421   3.041   6.892   5.437  0.3189 -0.0384 -0.2932
  359MOL0     H48422   2.995   6.944   5.272  0.8255  0.3930  0.0259
  359MOL0     H48423   2.905   7.155   5.408  0.7669 -0.7324 -0.0137
  359MOL0     H48424   2.897   7.029   5.541 -1.0005  0.8447 -0.3346
  359MOL0     H48425   2.718   7.246   5.486 -0.8924  0.2544  0.1635
  359MOL0     H48426   2.613   7.433   5.514  1.4977 -1.0217 -1.5983
  359MOL0     H48427   2.465   7.474   5.415 -0.5786 -0.0662  1.3685
  359MOL0     H48428   2.449   7.403   5.571 -2.7980 -0.2460 -2.8758
  359MOL0     H48429   2.121   7.458   5.198  0.6917  0.3021  1.9797
  359MOL0     H48430   1.905   7.531   5.103 -0.4343  1.3759  1.7887
  359MOL0     H48431   1.582   7.453   5.152 -0.4103  0.8130 -0.5682
  359MOL0     H48432   1.679   7.548   5.033  1.1764 -0.6645 -2.2015
  359MOL0     H48433   1.466   7.348   4.936  3.0587 -0.7512 -0.0272
  359MOL0     H48434   1.421   7.504   5.003  1.0437  1.7810  0.9766
  359MOL0     H48435   1.646   7.468   4.795 -0.2744 -1.7331 -0.3381
  359MOL0     H48436   1.572   7.622   4.815  2.8478  0.6650  1.9161
  359MOL0     H48437   1.353   7.499   4.729  0.5721 -1.0065 -0.5275
  359MOL0     H48438   1.486   7.535   4.623 -0.5597 -0.6100 -1.8339
  359MOL0     H48439   1.393   7.262   4.718  0.1262  0.3751  1.2670
  359MOL0     H48440   1.562   7.273   4.699  0.3098  0.5123  0.3933
  359MOL0     H48441   1.413   7.386   4.485  0.3777  0.3157 -0.0104
  359MOL0     H48442   1.572   7.321   4.492  1.1202 -0.6574  1.4155
  359MOL0     H48443   1.305   7.160   4.511 -0.0560 -3.4770  0.9603
  359MOL0     H48444   1.470   7.087   4.532 -1.3675 -0.3880  1.5321
  359MOL0     H48445   1.522   7.176   4.290 -0.1242  1.1936 -1.6057
  359MOL0     H48446   1.347   7.231   4.295  1.3597  2.5612  2.8685
  359MOL0     H48447   1.780   7.116   5.067 -0.8494  0.4917 -0.3820
  359MOL0     H48448   2.002   7.044   5.172  1.5868 -0.6743 -4.3147
  359MOL0     H48449   2.355   7.025   5.241 -0.8533  1.8368 -0.5339
  359MOL0     H48450   2.561   6.929   5.236  2.8478  0.6365  0.8015
  359MOL0     H48451   4.309   7.909   5.613  0.0180  1.3193  1.7980
  359MOL0     H48452   4.497   8.089   5.614 -1.1398 -0.7006  2.7279
  359MOL0     H48453   4.924   8.205   5.628 -2.6094  0.7805 -2.0883
  359MOL0     H48454   5.148   8.311   5.603 -0.0058 -0.0009 -1.3039
  359MOL0     H48455   5.291   8.474   5.545  1.1505  0.2795  1.5514
  359MOL0     H48456   5.355   8.307   5.553  0.8324  1.0578  1.4766
  359MOL0     H48457   5.532   8.367   5.393  0.1914 -2.7006  1.9711
  359MOL0     H48458   5.539   8.486   5.527  0.7116 -2.4142  0.2786
  359MOL0     H48459   5.387   8.633   5.383 -0.3947  0.1038  1.8265
  359MOL0     H48460   5.429   8.518   5.247 -0.3153 -1.7473  1.4592
  359MOL0     H48461   5.671   8.554   5.292  1.6177  1.3389  2.2315
  359MOL0     H48462   5.630   8.684   5.397  1.3345  2.7457 -1.1623
  359MOL0     H48463   5.557   8.820   4.992 -3.6812 -1.7657 -1.5355
  359MOL0     H48464   5.129   8.236   5.181 -2.2526 -2.0775 -1.0154
  359MOL0     H48465   4.928   8.100   5.215  1.5814 -2.2305  0.3008
  360MOL0     O48466   3.494   1.308   0.757 -0.1158 -0.5662  0.7535
  360MOL0     C48467   3.487   1.190   0.723  0.0237 -0.5012  0.1238
  360MOL0     O48468   3.396   1.128   0.648 -0.2575  0.1968 -0.7128
  360MOL0     C48469   3.301   1.194   0.576  0.1757 -0.6625 -0.6871
  360MOL0     C48470   3.277   1.173   0.437 -0.1600  0.1849  0.4576
  360MOL0     C48471   3.184   1.247   0.367 -0.2056 -0.2474 -0.2503
  360MOL0     C48472   3.096   1.329   0.444 -0.2400  0.0180 -0.1901
  360MOL0     O48473   3.001   1.399   0.387 -0.0538  0.0026  1.0612
  360MOL0     C48474   2.951   1.363   0.253  0.6932  0.1158  0.6512
  360MOL0     C48475   2.806   1.404   0.246  0.1562 -0.2597 -0.1388
  360MOL0     C48476   2.763   1.452   0.104  0.2074 -0.1092 -0.7964
  360MOL0     C48477   2.767   1.346  -0.006 -0.0143 -0.0332  0.6113
  360MOL0     C48478   2.713   1.402  -0.139  0.2045  0.0615  0.0380
  360MOL0     C48479   2.810   1.510  -0.201  0.6203  0.3726 -0.1038
  360MOL0     C48480   2.761   1.531  -0.341 -0.0469  0.9227 -0.0467
  360MOL0     C48481   2.836   1.638  -0.421  0.3457  0.0953 -0.0688
  360MOL0     N48482   2.827   1.759  -0.349  0.0845  0.5569  0.4821
  360MOL0     C48483   2.932   1.827  -0.295  0.9048 -0.6614  0.0071
  360MOL0     C48484   2.872   1.945  -0.244  0.4814  0.2264 -0.1279
  360MOL0     C48485   2.937   2.062  -0.188  0.1131  0.2695  0.6288
  360MOL0     C48486   3.008   2.147  -0.295 -0.9315 -0.2729  1.0477
  360MOL0     C48487   2.913   2.188  -0.399 -0.8371  0.3206 -0.4813
  360MOL0     C48488   2.817   2.298  -0.360  0.5365 -0.8419 -0.0908
  360MOL0     O48489   2.756   2.354  -0.484  0.3718 -0.7524 -0.5700
  360MOL0     C48490   2.654   2.294  -0.550 -0.1425  1.2280  0.2065
  360MOL0     C48491   2.602   2.171  -0.523  0.2723  0.4715 -0.6749
  360MOL0     C48492   2.513   2.098  -0.595  0.2229 -0.2542  0.5352
  360MOL0     C48493   2.467   1.962  -0.544 -1.0272  0.4927  0.5426
  360MOL0     C48494   2.465   2.153  -0.715  0.2934  0.4362 -0.6065
  360MOL0     C48495   2.372   2.091  -0.812 -0.2230 -0.4024  0.1544
  360MOL0     O48496   2.340   2.157  -0.925 -0.2541 -0.0610 -0.0346
  360MOL0     C48497   2.260   2.100  -1.024 -0.2125  0.4303 -0.1827
  360MOL0     C48498   2.126   2.140  -1.030  0.7110 -0.2279 -0.0357
  360MOL0     C48499   2.049   2.084  -1.136 -0.5750  0.9648  0.7270
  360MOL0     C48500   2.098   1.999  -1.231 -0.0631  0.6775 -0.1042
  360MOL0     O48501   2.022   1.966  -1.342  0.3219 -0.0701 -0.0717
  360MOL0     C48502   1.881   1.932  -1.330 -0.4396  0.4502  0.2320
  360MOL0     C48503   1.821   1.878  -1.459  1.0597 -0.4830  0.3828
  360MOL0     C48504   1.666   1.865  -1.441  0.7676  0.2348  0.0057
  360MOL0     C48505   1.594   1.765  -1.540 -0.0737  0.8210  0.0461
  360MOL0     C48506   1.448   1.739  -1.497 -0.3329  0.4350 -0.1844
  360MOL0     C48507   1.381   1.621  -1.562 -0.4989 -0.8154  0.5148
  360MOL0     C48508   1.392   1.594  -1.712 -0.2730 -0.7675 -0.3136
  360MOL0     C48509   1.313   1.466  -1.743 -0.0395  0.6680 -1.3868
  360MOL0    Cl48510   1.294   1.449  -1.911  0.0642  0.0601 -0.0580
  360MOL0     C48511   2.234   1.971  -1.228  0.2367 -0.4321  0.0476
  360MOL0     C48512   2.318   2.017  -1.128  0.4322 -0.0932 -0.0054
  360MOL0     O48513   2.317   1.983  -0.778 -0.8274 -0.4785  0.0066
  360MOL0     C48514   2.515   2.282  -0.748 -0.3434  0.0880  0.2392
  360MOL0     C48515   2.600   2.349  -0.661 -0.5291 -0.8002  0.5197
  360MOL0     N48516   2.730   1.941  -0.265  0.1069  0.7986 -1.1075
  360MOL0     N48517   2.710   1.835  -0.333 -0.7441  0.1509 -0.1784
  360MOL0     C48518   3.114   1.342   0.575  0.4084 -0.0038 -0.8955
  360MOL0     C48519   3.216   1.286   0.652 -0.9962 -0.1433 -0.0183
  360MOL0     C48520   3.599   1.099   0.776 -0.4627  0.3008  0.5275
  360MOL0     C48521   3.590   0.959   0.766 -1.1821  0.0141 -0.8234
  360MOL0     C48522   3.693   0.886   0.831  0.0696  0.7471 -0.9091
  360MOL0     C48523   3.801   0.940   0.894  0.1305  0.4038 -0.0884
  360MOL0     O48524   3.897   0.840   0.936 -0.2138 -0.0002  0.7567
  360MOL0     C48525   4.009   0.869   1.030  0.5279  0.3180  0.0927
  360MOL0     C48526   3.956   0.867   1.172 -0.8186 -0.1660  0.9692
  360MOL0     C48527   3.949   0.721   1.221  0.5299  0.0363 -1.0371
  360MOL0     C48528   3.882   0.707   1.365  0.2798 -1.4847 -0.0437
  360MOL0     C48529   3.913   0.813   1.467 -0.3484 -0.0149 -0.3605
  360MOL0     C48530   3.932   0.890   1.556  0.4279 -0.2180 -0.0068
  360MOL0     C48531   3.813   1.081   0.904  0.2293  0.0464  0.5405
  360MOL0     C48532   3.716   1.154   0.839  0.5071  0.9529  1.3659
  360MOL0     H48533   3.345   1.108   0.383  0.0985  1.2881 -0.5878
  360MOL0     H48534   3.169   1.225   0.261 -4.1528  2.1610 -0.3544
  360MOL0     H48535   3.012   1.425   0.187  3.0441 -0.7924  1.8505
  360MOL0     H48536   2.973   1.261   0.222  0.5369  0.0649  0.7054
  360MOL0     H48537   2.746   1.317   0.275  2.3595 -1.5279  0.8097
  360MOL0     H48538   2.785   1.481   0.321  1.4090  0.2756 -0.3122
  360MOL0     H48539   2.658   1.484   0.113 -0.4066 -2.4944  1.9383
  360MOL0     H48540   2.813   1.546   0.079  0.9745 -0.5062 -0.7678
  360MOL0     H48541   2.874   1.329  -0.017  0.8003  3.6820  1.5777
  360MOL0     H48542   2.710   1.263   0.039  1.9860 -0.5877  2.2812
  360MOL0     H48543   2.692   1.322  -0.211 -0.6839 -0.3538  0.7378
  360MOL0     H48544   2.621   1.459  -0.120  0.8126  0.7899  0.8794
  360MOL0     H48545   2.804   1.611  -0.158  2.1452 -0.5055  2.3286
  360MOL0     H48546   2.912   1.472  -0.206  0.0328 -1.0927 -2.8257
  360MOL0     H48547   2.775   1.439  -0.400  2.7934  0.3037  1.4036
  360MOL0     H48548   2.657   1.564  -0.336 -0.5409 -0.6109  0.4683
  360MOL0     H48549   2.785   1.653  -0.517  0.2361 -1.2660 -0.2512
  360MOL0     H48550   2.938   1.603  -0.439  0.8821  1.5307  0.0706
  360MOL0     H48551   3.034   1.792  -0.283  1.0294  0.3105  2.1468
  360MOL0     H48552   2.852   2.119  -0.149  0.2061 -0.8528  2.6119
  360MOL0     H48553   2.998   2.040  -0.100  1.4360  1.4201  0.0334
  360MOL0     H48554   3.076   2.075  -0.341 -2.4007 -1.4565  0.6359
  360MOL0     H48555   3.060   2.235  -0.258  1.0112 -1.8965  2.4120
  360MOL0     H48556   2.864   2.094  -0.428 -0.0690 -1.6295  3.7905
  360MOL0     H48557   2.984   2.221  -0.475 -2.0167  0.4838 -1.5614
  360MOL0     H48558   2.864   2.374  -0.296  1.7751 -1.4147 -0.2943
  360MOL0     H48559   2.741   2.254  -0.295  3.0695 -2.6612  1.8318
  360MOL0     H48560   2.636   2.124  -0.431  2.0194  4.1395  0.7586
  360MOL0     H48561   2.523   1.924  -0.458  0.3093 -0.5901 -0.7583
  360MOL0     H48562   2.362   1.969  -0.515 -1.2105 -0.0664  0.0318
  360MOL0     H48563   2.489   1.888  -0.621 -0.3513 -0.2381  1.4162
  360MOL0     H48564   2.093   2.206  -0.950  0.7595  0.0319 -0.2280
  360MOL0     H48565   1.949   2.125  -1.144  0.2191  2.9057  0.1465
  360MOL0     H48566   1.871   1.855  -1.254 -1.3222  0.7545  0.4429
  360MOL0     H48567   1.824   2.018  -1.292 -1.5797  0.6873 -1.8583
  360MOL0     H48568   1.835   1.947  -1.543  0.3778 -0.9777 -0.1496
  360MOL0     H48569   1.858   1.778  -1.482 -1.5822 -0.9570 -2.5598
  360MOL0     H48570   1.633   1.967  -1.461  2.9175  0.8554 -0.6412
  360MOL0     H48571   1.644   1.844  -1.335  2.1666 -1.0061  0.0798
  360MOL0     H48572   1.595   1.805  -1.641  3.9771 -2.1268 -1.3294
  360MOL0     H48573   1.647   1.669  -1.539  0.4539  1.0272  3.1950
  360MOL0     H48574   1.387   1.829  -1.511 -3.0171 -1.4660 -1.5427
  360MOL0     H48575   1.453   1.711  -1.392  2.2381 -0.7779 -0.5676
  360MOL0     H48576   1.416   1.527  -1.517 -0.2052 -1.0377 -0.1699
  360MOL0     H48577   1.273   1.627  -1.545 -1.2096 -1.8572 -2.9576
  360MOL0     H48578   1.498   1.583  -1.738 -0.1349  1.1777 -0.7313
  360MOL0     H48579   1.363   1.686  -1.764  1.6397  1.2560  1.9117
  360MOL0     H48580   1.215   1.472  -1.695  0.4609 -0.2993 -0.2002
  360MOL0     H48581   1.369   1.389  -1.689  0.4817  1.8553 -0.1684
  360MOL0     H48582   2.281   1.910  -1.305 -0.1243 -1.2760  0.4843
  360MOL0     H48583   2.425   2.000  -1.120  0.6463 -0.1383 -2.1849
  360MOL0     H48584   2.475   2.323  -0.840 -0.4929 -0.8125 -0.1050
  360MOL0     H48585   2.620   2.453  -0.685 -0.2950 -0.9665 -0.0143
  360MOL0     H48586   3.038   1.396   0.629  3.5743  0.7908  3.2781
  360MOL0     H48587   3.222   1.301   0.760  1.4424 -2.5416  0.2801
  360MOL0     H48588   3.505   0.905   0.725 -1.8012 -1.2508  1.9166
  360MOL0     H48589   3.681   0.780   0.854 -1.5677  1.3290  1.2379
  360MOL0     H48590   4.094   0.801   1.023 -0.0193 -0.3760  0.1345
  360MOL0     H48591   4.038   0.974   1.015 -2.6277  1.3662  0.5229
  360MOL0     H48592   3.861   0.919   1.189 -1.3330 -1.2541  1.4891
  360MOL0     H48593   4.031   0.919   1.233 -0.1526  0.1325 -0.0667
  360MOL0     H48594   4.057   0.711   1.229  0.7013  1.7272 -1.0793
  360MOL0     H48595   3.914   0.650   1.145 -0.7867  0.7051 -1.0857
  360MOL0     H48596   3.922   0.614   1.405 -0.1723 -1.3973  0.6277
  360MOL0     H48597   3.773   0.706   1.364  0.1465  0.7517  2.0312
  360MOL0     H48598   3.960   0.958   1.634  0.0062 -0.2715  0.1891
  360MOL0     H48599   3.902   1.121   0.952  1.6137 -0.0977 -1.7403
  360MOL0     H48600   3.721   1.262   0.842  1.8493  1.0175 -1.0319
  361MOL0     O48601   6.403   1.531  10.088 -1.0554  0.2044  0.2138
  361MOL0     C48602   6.488   1.562  10.178  0.5523  0.6685 -0.4254
  361MOL0     O48603   6.485   1.674  10.247 -0.0040  0.0168 -0.9593
  361MOL0     C48604   6.419   1.773  10.183  0.1822 -0.3242 -0.8459
  361MOL0     C48605   6.480   1.852  10.089  0.0330 -0.1611 -0.3077
  361MOL0     C48606   6.404   1.947  10.019 -0.5400 -0.7676  0.8744
  361MOL0     C48607   6.269   1.960  10.045  0.5452  0.2841 -1.0391
  361MOL0     O48608   6.212   2.062   9.969 -0.1241  0.3243  0.9458
  361MOL0     C48609   6.137   2.151  10.044  1.0888  0.6293 -0.8668
  361MOL0     C48610   6.019   2.212   9.976 -0.3292  0.0571 -0.4421
  361MOL0     C48611   6.035   2.288   9.847 -0.1226 -0.9923 -0.2104
  361MOL0     C48612   5.894   2.327   9.786 -0.2833  0.3604  0.0612
  361MOL0     C48613   5.916   2.448   9.692  0.5601 -0.0015 -0.7961
  361MOL0     C48614   5.792   2.529   9.656 -0.3794 -0.0719 -1.0720
  361MOL0     C48615   5.684   2.456   9.589  0.5154  0.8414 -0.8987
  361MOL0     C48616   5.730   2.395   9.449  0.5641  0.7510  0.8021
  361MOL0     N48617   5.612   2.376   9.358 -0.2202 -0.4554 -0.2083
  361MOL0     C48618   5.597   2.409   9.231  1.4842 -0.0218  0.4406
  361MOL0     C48619   5.481   2.346   9.194  0.2350  0.4910 -0.1320
  361MOL0     C48620   5.438   2.337   9.054  0.2771 -1.0066 -0.3011
  361MOL0     C48621   5.551   2.264   8.972 -0.3766 -0.8998 -0.6252
  361MOL0     C48622   5.502   2.121   8.941 -0.3023 -0.1143 -0.2579
  361MOL0     C48623   5.519   2.027   9.060 -0.0506 -0.0911  0.3247
  361MOL0     O48624   5.490   1.910   8.989  0.5413 -0.3436  0.1676
  361MOL0     C48625   5.390   1.826   9.032 -0.5069 -0.3361  0.0931
  361MOL0     C48626   5.325   1.851   9.151 -0.1089  0.5524 -0.3811
  361MOL0     C48627   5.234   1.759   9.200 -0.4779  0.1533 -0.1083
  361MOL0     C48628   5.174   1.784   9.340 -0.6945 -0.0096  0.2616
  361MOL0     C48629   5.206   1.634   9.127 -0.1331 -0.7703 -0.3411
  361MOL0     C48630   5.101   1.541   9.161  0.9133  0.4752 -0.4735
  361MOL0     O48631   5.131   1.410   9.127  0.0555  1.0335 -0.0905
  361MOL0     C48632   5.030   1.312   9.129 -1.0015 -0.4844 -0.7342
  361MOL0     C48633   5.058   1.187   9.170 -0.7004 -0.5035 -0.4988
  361MOL0     C48634   4.968   1.083   9.176 -0.1233 -0.1746  0.2640
  361MOL0     C48635   4.837   1.096   9.118 -0.2081  0.1691 -0.0912
  361MOL0     O48636   4.760   0.986   9.113 -0.0678  0.1853 -0.0714
  361MOL0     C48637   4.620   1.005   9.153 -0.0623 -0.3423  0.1585
  361MOL0     C48638   4.559   0.877   9.189  0.5671 -0.6207  0.2299
  361MOL0     C48639   4.416   0.900   9.233 -0.6751  0.2719 -0.5827
  361MOL0     C48640   4.349   0.763   9.235  0.2111  0.0838 -0.5311
  361MOL0     C48641   4.199   0.770   9.292  0.0561  0.1153 -0.1033
  361MOL0     C48642   4.093   0.851   9.213 -0.3161  0.1558 -0.0939
  361MOL0     C48643   3.944   0.821   9.251 -0.2407 -0.1227 -0.1088
  361MOL0     C48644   3.862   0.945   9.211 -0.2466  0.0711 -0.0682
  361MOL0    Cl48645   3.895   1.009   9.039 -0.6255  0.0970  0.0763
  361MOL0     C48646   4.805   1.221   9.071 -0.7270  0.4073  0.3680
  361MOL0     C48647   4.896   1.329   9.075 -0.3247  0.3123 -0.0807
  361MOL0     O48648   4.997   1.574   9.221 -0.6585 -0.0110  0.9216
  361MOL0     C48649   5.267   1.613   9.009 -0.6961 -0.1017 -0.0653
  361MOL0     C48650   5.355   1.707   8.961  0.4896 -0.3323 -0.5006
  361MOL0     N48651   5.423   2.292   9.312  0.4632 -0.2271 -0.0809
  361MOL0     N48652   5.503   2.319   9.415  0.9517  0.2619 -0.6121
  361MOL0     C48653   6.207   1.878  10.135  0.5887  0.1541 -0.5616
  361MOL0     C48654   6.288   1.787  10.216  0.1596  0.3719 -0.4681
  361MOL0     C48655   6.592   1.462  10.217  0.4618  0.1423 -0.3021
  361MOL0     C48656   6.590   1.332  10.169  0.1871 -0.1902 -0.6048
  361MOL0     C48657   6.676   1.243  10.219 -0.3792  0.5751  0.4301
  361MOL0     C48658   6.758   1.257  10.323 -0.3265  0.1320 -0.2677
  361MOL0     O48659   6.838   1.151  10.365  0.7460 -0.2078 -0.1740
  361MOL0     C48660   6.949   1.156  10.457  0.0699  0.9915  0.8977
  361MOL0     C48661   7.069   1.090  10.391  0.2574  0.3625  0.3009
  361MOL0     C48662   7.169   1.034  10.489  0.1737  0.3585  0.4911
  361MOL0     C48663   7.297   0.978  10.438 -0.6380  0.2935  0.4850
  361MOL0     C48664   7.277   0.881  10.332 -0.4609 -0.5376  0.2882
  361MOL0     C48665   7.266   0.802  10.238 -0.2585  0.5239 -0.5643
  361MOL0     C48666   6.766   1.387  10.377 -0.3365 -0.7839 -0.2890
  361MOL0     C48667   6.685   1.485  10.316  0.0199 -0.4773  0.0717
  361MOL0     H48668   6.587   1.837  10.079 -0.2354 -1.1942 -1.9724
  361MOL0     H48669   6.448   2.019   9.951 -1.3898  1.6844  2.7536
  361MOL0     H48670   6.100   2.105  10.136  2.8187 -1.8103 -1.3058
  361MOL0     H48671   6.192   2.241  10.075 -0.5926  0.4023  3.4943
  361MOL0     H48672   5.954   2.127   9.953 -0.7670  0.0766  0.6551
  361MOL0     H48673   5.947   2.260  10.042 -0.7749  0.7288 -1.3910
  361MOL0     H48674   6.103   2.373   9.856 -0.0040 -0.7311 -2.6745
  361MOL0     H48675   6.073   2.216   9.773  2.4820  1.9042 -1.9528
  361MOL0     H48676   5.850   2.244   9.729  1.4970 -0.9933  0.5558
  361MOL0     H48677   5.837   2.342   9.878 -0.5301  2.9336 -0.4403
  361MOL0     H48678   5.988   2.514   9.739  0.0326 -0.1246  0.2078
  361MOL0     H48679   5.965   2.407   9.603  0.6905 -0.9623 -0.2944
  361MOL0     H48680   5.749   2.578   9.744 -1.5932 -1.5618 -0.7966
  361MOL0     H48681   5.815   2.624   9.606 -3.9708  1.8177  0.4928
  361MOL0     H48682   5.630   2.388   9.654 -0.9654  1.2575 -1.6508
  361MOL0     H48683   5.605   2.528   9.567 -0.4287  0.8221  1.9840
  361MOL0     H48684   5.768   2.292   9.451  0.6877  0.7958  0.7651
  361MOL0     H48685   5.803   2.461   9.402 -0.6826 -0.5914 -3.4898
  361MOL0     H48686   5.661   2.455   9.156  0.4303 -1.9709 -1.8195
  361MOL0     H48687   5.347   2.276   9.063 -0.8675  0.8306  0.9971
  361MOL0     H48688   5.405   2.437   9.027  3.2588  1.0263  2.8331
  361MOL0     H48689   5.647   2.279   9.023  0.0754  1.0701 -1.9245
  361MOL0     H48690   5.569   2.326   8.883 -0.9853  4.6455  2.6165
  361MOL0     H48691   5.564   2.086   8.858  0.2614 -1.2648  0.6216
  361MOL0     H48692   5.397   2.127   8.911 -1.0104 -1.7018  1.6483
  361MOL0     H48693   5.451   2.069   9.134 -1.9480 -2.6107  0.1424
  361MOL0     H48694   5.621   2.020   9.099 -0.8338 -3.5970  2.1468
  361MOL0     H48695   5.330   1.941   9.211  0.9449 -0.7238  1.5516
  361MOL0     H48696   5.065   1.777   9.336 -0.7947  1.1872  0.5563
  361MOL0     H48697   5.201   1.704   9.410  1.2894 -0.0466 -0.4771
  361MOL0     H48698   5.208   1.873   9.393 -1.2928  0.3965 -0.0224
  361MOL0     H48699   5.155   1.186   9.218 -1.5739  0.7912  1.4383
  361MOL0     H48700   4.989   0.992   9.232  1.4867 -0.3527 -0.5867
  361MOL0     H48701   4.622   1.081   9.232  1.0565  1.8693 -1.8613
  361MOL0     H48702   4.575   1.046   9.062  0.3901 -0.3518 -0.0691
  361MOL0     H48703   4.573   0.804   9.109 -1.1998 -0.2187 -0.4924
  361MOL0     H48704   4.616   0.845   9.277  0.4157  3.9657  2.2639
  361MOL0     H48705   4.361   0.976   9.176  0.6747  1.1739 -0.7334
  361MOL0     H48706   4.409   0.936   9.336 -1.7946 -0.3282 -0.4290
  361MOL0     H48707   4.368   0.722   9.136  1.9946  1.8509 -0.9772
  361MOL0     H48708   4.385   0.696   9.314 -2.2652  1.7585  2.2380
  361MOL0     H48709   4.197   0.809   9.394 -1.7585 -3.1166  1.2838
  361MOL0     H48710   4.158   0.669   9.278 -0.4226  0.2203  0.4822
  361MOL0     H48711   4.114   0.958   9.219 -1.6363  0.5665 -1.8914
  361MOL0     H48712   4.117   0.812   9.114 -0.7148 -0.2261 -0.0433
  361MOL0     H48713   3.932   0.814   9.359  1.9070  0.9254  0.2508
  361MOL0     H48714   3.904   0.730   9.205 -2.0360 -0.8112  2.5882
  361MOL0     H48715   3.901   1.023   9.277 -0.6648  0.3439 -0.1368
  361MOL0     H48716   3.755   0.937   9.235  0.6210 -2.2100  4.0314
  361MOL0     H48717   4.709   1.245   9.026 -0.2424 -3.9594 -3.8958
  361MOL0     H48718   4.866   1.432   9.056 -1.5697 -0.0006  0.1077
  361MOL0     H48719   5.248   1.523   8.952  1.5269 -0.9746  0.4877
  361MOL0     H48720   5.408   1.682   8.869  1.5621 -0.1220  0.0460
  361MOL0     H48721   6.099   1.887  10.144  0.4032 -0.1771 -2.0772
  361MOL0     H48722   6.238   1.720  10.286 -1.0830 -1.4006 -2.9020
  361MOL0     H48723   6.519   1.295  10.095  0.0113 -2.4520  0.6364
  361MOL0     H48724   6.680   1.148  10.166  0.5331  0.7828  0.1213
  361MOL0     H48725   6.976   1.255  10.493 -1.2368  1.2821  1.1227
  361MOL0     H48726   6.917   1.092  10.540  1.3706 -1.7573 -0.5840
  361MOL0     H48727   7.112   1.162  10.322 -4.1227  0.3248 -2.9126
  361MOL0     H48728   7.037   1.006  10.328  2.1100  0.0104 -0.2173
  361MOL0     H48729   7.124   0.965  10.561 -0.6484  0.6646  0.2879
  361MOL0     H48730   7.200   1.125  10.541  2.8007 -0.4950  0.5624
  361MOL0     H48731   7.359   0.938  10.518  1.0675 -0.1232 -0.9865
  361MOL0     H48732   7.362   1.055  10.394  0.0052 -0.2364  0.4977
  361MOL0     H48733   7.248   0.732  10.159 -1.0719 -2.0314  1.7155
  361MOL0     H48734   6.837   1.421  10.451  0.1428 -1.1405 -0.5786
  361MOL0     H48735   6.704   1.590  10.336 -1.3574 -0.1998  0.0900
  362MOL0     O48736   2.976  11.150   5.427 -0.1627  0.2531 -0.2166
  362MOL0     C48737   2.905  11.250   5.412  0.3641  0.3224  0.2070
  362MOL0     O48738   2.837  11.321   5.517  0.3800 -0.9735  0.2102
  362MOL0     C48739   2.841  11.265   5.641  0.0648 -0.4753  1.1939
  362MOL0     C48740   2.793  11.133   5.654  0.1183 -0.4086 -0.9783
  362MOL0     C48741   2.760  11.089   5.782  0.0262  0.8821  0.0494
  362MOL0     C48742   2.798  11.158   5.896  0.1823  0.6493 -0.7263
  362MOL0     O48743   2.785  11.089   6.016  0.0936  0.5780 -0.0807
  362MOL0     C48744   2.864  11.121   6.132  0.0162  1.0938  0.3357
  362MOL0     C48745   3.013  11.069   6.116  0.0981  1.0235  0.0140
  362MOL0     C48746   3.114  11.091   6.240 -0.3336  0.1296  0.1446
  362MOL0     C48747   3.149  11.240   6.251  0.0292 -0.5638  0.1919
  362MOL0     C48748   3.211  11.276   6.384 -0.1891  0.0630 -1.0995
  362MOL0     C48749   3.361  11.239   6.381 -0.3099  0.0514  0.0154
  362MOL0     C48750   3.435  11.281   6.515  0.3287  0.2821 -0.1052
  362MOL0     C48751   3.577  11.233   6.513 -0.1839  1.1523  0.4235
  362MOL0     N48752   3.660  11.315   6.612 -0.0222 -0.0483  0.1074
  362MOL0     C48753   3.723  11.437   6.599  0.1282 -1.0976 -0.1514
  362MOL0     C48754   3.754  11.477   6.720 -0.5547  0.0432  0.5489
  362MOL0     C48755   3.862  11.581   6.761 -0.5481 -0.6472 -0.9584
  362MOL0     C48756   4.001  11.502   6.781 -0.0523  0.1749 -0.0479
  362MOL0     C48757   4.087  11.588   6.872  0.2130 -0.2516 -0.0808
  362MOL0     C48758   4.224  11.525   6.863 -0.2709  0.3775 -0.0945
  362MOL0     O48759   4.303  11.568   6.965  0.0162  0.2572 -0.1411
  362MOL0     C48760   4.334  11.701   6.977  0.9237  0.2258  0.1699
  362MOL0     C48761   4.352  11.752   7.108 -0.3648  0.4357  0.4775
  362MOL0     C48762   4.380  11.885   7.146 -0.3730 -0.2236 -0.0071
  362MOL0     C48763   4.394  11.907   7.298  0.2553 -0.1992  0.6720
  362MOL0     C48764   4.387  11.978   7.047  0.9700  0.1817  0.2199
  362MOL0     C48765   4.393  12.121   7.075  0.1646 -0.3784  0.7550
  362MOL0     O48766   4.327  12.200   6.988 -0.4440 -0.1424  0.5896
  362MOL0     C48767   4.372  12.331   6.949 -0.5896  0.1061 -0.0531
  362MOL0     C48768   4.502  12.386   6.993  1.7884 -0.0348 -0.0239
  362MOL0     C48769   4.539  12.503   6.946 -0.4897 -0.0364 -1.0786
  362MOL0     C48770   4.469  12.566   6.843  0.0342 -0.1839 -0.0608
  362MOL0     O48771   4.527  12.684   6.805 -0.1393  0.2388  0.2940
  362MOL0     C48772   4.474  12.751   6.685 -1.3358 -0.2975 -0.2773
  362MOL0     C48773   4.554  12.875   6.660  0.1756  0.1333 -0.3923
  362MOL0     C48774   4.544  12.969   6.774 -0.3186 -0.1527  0.4695
  362MOL0     C48775   4.521  13.115   6.715  0.3368  0.5024  0.3875
  362MOL0     C48776   4.513  13.215   6.828 -1.1299 -1.2045 -0.1025
  362MOL0     C48777   4.659  13.243   6.885  0.8226 -0.4389  0.2475
  362MOL0     C48778   4.667  13.348   6.995  0.1936 -0.5645 -1.0159
  362MOL0     C48779   4.802  13.348   7.063 -0.9189 -0.2227 -0.4217
  362MOL0    Cl48780   4.926  13.394   6.945 -0.4106 -0.0842 -0.0755
  362MOL0     C48781   4.353  12.514   6.788 -0.1791  0.0110 -0.2784
  362MOL0     C48782   4.296  12.402   6.856 -0.0503  0.1976  0.2784
  362MOL0     O48783   4.460  12.153   7.167 -0.9428  0.6639 -0.1531
  362MOL0     C48784   4.377  11.939   6.908  0.7419 -0.4005  0.7491
  362MOL0     C48785   4.344  11.803   6.872 -0.0467  0.1296  0.0226
  362MOL0     N48786   3.723  11.380   6.803 -0.0318 -0.3369 -0.6362
  362MOL0     N48787   3.683  11.276   6.742 -0.7579 -0.0586  0.0574
  362MOL0     C48788   2.869  11.275   5.883 -0.3338 -0.7645 -0.4960
  362MOL0     C48789   2.887  11.335   5.750 -0.1094  1.0246  0.1947
  362MOL0     C48790   2.908  11.309   5.273 -0.0808  0.5833  0.1081
  362MOL0     C48791   2.961  11.244   5.161  0.2778  0.3731  1.2933
  362MOL0     C48792   2.946  11.309   5.032  1.1900  0.3874 -1.3752
  362MOL0     C48793   2.870  11.425   5.022 -0.0022 -0.4071 -1.0506
  362MOL0     O48794   2.839  11.472   4.899 -0.4823  0.2784  0.9234
  362MOL0     C48795   2.752  11.392   4.818 -0.0117 -0.2366 -0.0618
  362MOL0     C48796   2.609  11.405   4.872  0.0675 -0.0609  0.0779
  362MOL0     C48797   2.535  11.541   4.883  0.8774  0.4150  0.8655
  362MOL0     C48798   2.466  11.552   4.744 -0.9531 -0.0637  0.1351
  362MOL0     C48799   2.371  11.662   4.747  0.7565 -0.3861  0.1542
  362MOL0     C48800   2.286  11.753   4.741 -0.1583 -0.4806  0.5256
  362MOL0     C48801   2.833  11.496   5.134  0.6143  0.1980  0.1582
  362MOL0     C48802   2.838  11.435   5.257 -0.9976  0.3143  0.4183
  362MOL0     H48803   2.745  11.082   5.570 -4.6649 -1.1206  1.7983
  362MOL0     H48804   2.714  10.993   5.804 -0.1575  0.7906 -0.6921
  362MOL0     H48805   2.870  11.228   6.153  0.1313  1.7332 -2.6040
  362MOL0     H48806   2.815  11.073   6.217 -0.4445 -0.8676 -0.9712
  362MOL0     H48807   3.000  10.960   6.112  2.6973  0.6277  0.7543
  362MOL0     H48808   3.051  11.104   6.019  1.3596 -0.6756 -0.1530
  362MOL0     H48809   3.072  11.043   6.329 -1.0113  1.9010  0.8279
  362MOL0     H48810   3.213  11.049   6.226  0.5337  1.8843  0.7363
  362MOL0     H48811   3.211  11.272   6.167 -1.2624 -1.2598 -1.0627
  362MOL0     H48812   3.057  11.297   6.235  0.5130  0.0721 -0.4304
  362MOL0     H48813   3.187  11.380   6.409 -1.3334 -1.2183  4.5028
  362MOL0     H48814   3.155  11.219   6.459 -1.8836  2.7052 -0.1974
  362MOL0     H48815   3.373  11.138   6.343  1.9884  1.0630 -2.2994
  362MOL0     H48816   3.417  11.303   6.312 -1.3398  1.5085  0.4778
  362MOL0     H48817   3.423  11.389   6.526 -2.8742 -0.1795  2.1401
  362MOL0     H48818   3.398  11.234   6.607  1.4244  0.3829  0.3930
  362MOL0     H48819   3.627  11.246   6.416  0.7089  0.2594  0.7402
  362MOL0     H48820   3.587  11.128   6.544  3.1236  0.7656 -1.4398
  362MOL0     H48821   3.745  11.479   6.502 -3.9508 -0.2623 -0.9255
  362MOL0     H48822   3.869  11.660   6.686 -0.1807  0.6805  0.4148
  362MOL0     H48823   3.839  11.634   6.855  2.4449 -0.9725  0.0671
  362MOL0     H48824   4.046  11.494   6.682  1.3996 -1.8265  0.7084
  362MOL0     H48825   3.991  11.402   6.824  0.6823 -0.4260 -1.2130
  362MOL0     H48826   4.051  11.590   6.975 -0.2220 -2.4307 -0.1543
  362MOL0     H48827   4.082  11.694   6.847  1.2857 -0.0980  0.2738
  362MOL0     H48828   4.274  11.554   6.770 -1.7328  1.3100 -0.6288
  362MOL0     H48829   4.216  11.416   6.869 -2.8867  0.4264 -1.2485
  362MOL0     H48830   4.355  11.676   7.186  2.5075  2.6196  2.7094
  362MOL0     H48831   4.295  11.941   7.329  0.0065  1.1020 -1.3853
  362MOL0     H48832   4.396  11.812   7.352 -1.4414  0.0362  1.1991
  362MOL0     H48833   4.482  11.966   7.325  1.7099 -1.5579 -0.8974
  362MOL0     H48834   4.563  12.332   7.065  0.4553 -1.3586  0.1608
  362MOL0     H48835   4.631  12.548   6.981 -2.2403  2.7676  0.3248
  362MOL0     H48836   4.483  12.693   6.593 -0.3720  1.2637 -1.2144
  362MOL0     H48837   4.368  12.768   6.706 -1.9637 -1.2576 -2.4017
  362MOL0     H48838   4.659  12.847   6.646  0.4266 -1.2159  3.2713
  362MOL0     H48839   4.515  12.923   6.569 -0.5810 -2.1050 -1.3216
  362MOL0     H48840   4.635  12.953   6.833 -0.7771 -2.8889  0.5280
  362MOL0     H48841   4.469  12.940   6.848  4.1761 -4.2896  4.0465
  362MOL0     H48842   4.596  13.151   6.644  1.8736 -0.7506  1.3144
  362MOL0     H48843   4.425  13.108   6.665  1.8689  1.3728 -2.9399
  362MOL0     H48844   4.462  13.161   6.909  0.4104 -0.0458  1.7498
  362MOL0     H48845   4.463  13.308   6.796  0.8235 -0.1679 -0.2742
  362MOL0     H48846   4.685  13.142   6.918 -0.6608 -1.1999 -0.7618
  362MOL0     H48847   4.728  13.268   6.804  0.2887  2.0358  0.4976
  362MOL0     H48848   4.592  13.329   7.073 -1.5091  3.4824 -1.4510
  362MOL0     H48849   4.648  13.447   6.954  2.7845 -0.1401 -1.3980
  362MOL0     H48850   4.824  13.253   7.112 -0.8337  0.6680  1.3730
  362MOL0     H48851   4.810  13.432   7.133  0.1864 -1.0287  0.4557
  362MOL0     H48852   4.310  12.568   6.704  2.6835 -2.1597 -3.4416
  362MOL0     H48853   4.208  12.362   6.806  0.9214 -2.4280  0.4730
  362MOL0     H48854   4.411  12.005   6.828  0.4263 -0.4822  0.5441
  362MOL0     H48855   4.323  11.771   6.770  0.4502 -0.4429  0.0932
  362MOL0     H48856   2.921  11.316   5.968  3.4414 -2.9905 -1.5221
  362MOL0     H48857   2.939  11.429   5.736 -0.4201  1.0795 -0.6343
  362MOL0     H48858   3.011  11.147   5.162 -1.1654 -0.4164  0.5091
  362MOL0     H48859   2.982  11.254   4.946 -1.4609 -0.9493 -1.7475
  362MOL0     H48860   2.760  11.418   4.712  0.6458 -0.3957 -0.0579
  362MOL0     H48861   2.781  11.288   4.834 -1.4703 -0.6478  0.0751
  362MOL0     H48862   2.621  11.356   4.969 -0.8446 -2.3149 -0.8690
  362MOL0     H48863   2.529  11.345   4.825 -3.0177  2.6187  1.5055
  362MOL0     H48864   2.605  11.621   4.910  3.3057 -1.9918  2.2570
  362MOL0     H48865   2.454  11.538   4.956 -1.7319  1.8945 -1.7794
  362MOL0     H48866   2.417  11.458   4.716  4.3582 -2.7399 -1.5978
  362MOL0     H48867   2.546  11.577   4.675  1.8365 -1.4594  2.6142
  362MOL0     H48868   2.211  11.828   4.728  1.3813  1.2350  1.0093
  362MOL0     H48869   2.780  11.591   5.132 -0.0301 -0.1474  0.5588
  362MOL0     H48870   2.793  11.482   5.343  0.3758 -0.1316  1.4001
  363MOL0     O48871  10.283   4.466   5.470  0.2453  0.2371  0.0084
  363MOL0     C48872  10.310   4.472   5.589 -0.0202 -0.0026 -0.3469
  363MOL0     O48873  10.240   4.404   5.692 -0.2184  0.3599 -0.3428
  363MOL0     C48874  10.153   4.306   5.664  0.1532  0.3874  0.5044
  363MOL0     C48875  10.082   4.259   5.778 -0.7526  0.2669  0.5043
  363MOL0     C48876   9.998   4.149   5.771  0.2731 -0.2717  1.4664
  363MOL0     C48877   9.983   4.086   5.644  0.1168 -0.8850 -0.3478
  363MOL0     O48878   9.907   3.974   5.628  0.2486 -0.0095  0.5235
  363MOL0     C48879   9.769   3.971   5.681  0.1195  0.3211  0.3210
  363MOL0     C48880   9.663   3.925   5.578  0.2094  0.0548 -1.0863
  363MOL0     C48881   9.662   4.020   5.466  0.1324  0.5497  1.3609
  363MOL0     C48882   9.543   4.002   5.361  0.2349  0.0207 -0.3121
  363MOL0     C48883   9.556   4.070   5.229  1.0594  0.4920  0.4471
  363MOL0     C48884   9.621   3.975   5.137  0.5152  0.1377  0.8221
  363MOL0     C48885   9.621   4.022   4.994  0.0764  0.4182 -1.2227
  363MOL0     C48886   9.676   3.933   4.879  0.2540 -0.4925 -1.3986
  363MOL0     N48887   9.590   3.835   4.824  0.8672  0.2342 -1.0758
  363MOL0     C48888   9.460   3.871   4.794 -0.2521  0.1548  0.2962
  363MOL0     C48889   9.391   3.762   4.769 -1.1456 -0.3945  0.4623
  363MOL0     C48890   9.242   3.752   4.729 -0.8745 -0.0289 -0.2276
  363MOL0     C48891   9.242   3.725   4.571  0.8543  0.4528 -0.5012
  363MOL0     C48892   9.095   3.716   4.520 -0.4943  0.4673  0.6885
  363MOL0     C48893   9.097   3.675   4.370 -0.3915  0.1922  0.8563
  363MOL0     O48894   8.972   3.691   4.299  0.3294  0.2593 -0.5943
  363MOL0     C48895   8.873   3.595   4.298  1.2558 -0.1022 -1.3814
  363MOL0     C48896   8.764   3.622   4.212  0.4374  0.1627  0.1457
  363MOL0     C48897   8.650   3.542   4.207 -0.7107 -0.8241  0.1729
  363MOL0     C48898   8.551   3.578   4.098  0.0076 -0.4682  0.4020
  363MOL0     C48899   8.642   3.428   4.288  0.0658 -0.5697  1.0757
  363MOL0     C48900   8.531   3.335   4.294  0.1725  0.7609  0.8139
  363MOL0     O48901   8.540   3.225   4.376  0.2365 -0.7675 -0.4957
  363MOL0     C48902   8.426   3.184   4.443 -0.4038 -1.2256  0.6305
  363MOL0     C48903   8.303   3.263   4.466 -0.8159  0.0378 -0.5107
  363MOL0     C48904   8.208   3.228   4.548 -0.1908  0.7753 -0.3360
  363MOL0     C48905   8.218   3.107   4.621  0.4026  0.7768  0.8455
  363MOL0     O48906   8.112   3.099   4.711 -0.0812 -0.3756 -0.3769
  363MOL0     C48907   8.097   2.986   4.799  0.0880  0.9906  0.1591
  363MOL0     C48908   8.025   2.857   4.740 -0.1529 -0.2047 -0.4268
  363MOL0     C48909   7.980   2.740   4.833  0.1838  0.6697 -0.1990
  363MOL0     C48910   8.114   2.675   4.898  0.1208  0.4460  0.0048
  363MOL0     C48911   8.180   2.579   4.796  0.3587 -0.3027  0.9603
  363MOL0     C48912   8.264   2.462   4.847 -1.3523  0.7025 -0.5556
  363MOL0     C48913   8.396   2.492   4.905  0.3421  0.4813 -0.1518
  363MOL0     C48914   8.488   2.573   4.808 -0.6726 -0.1912  0.4226
  363MOL0    Cl48915   8.479   2.755   4.821 -0.1042 -0.1403 -0.0264
  363MOL0     C48916   8.343   3.029   4.602  0.8173 -0.7241 -0.1818
  363MOL0     C48917   8.448   3.078   4.518  0.6005  0.6017 -1.0145
  363MOL0     O48918   8.443   3.355   4.215  0.2727 -0.3099 -0.8261
  363MOL0     C48919   8.761   3.399   4.364 -0.1052  0.2797 -0.4657
  363MOL0     C48920   8.866   3.476   4.378 -0.3287 -0.8949 -0.3498
  363MOL0     N48921   9.473   3.659   4.809 -0.9573 -0.3454  0.7144
  363MOL0     N48922   9.596   3.704   4.830 -0.0304  0.3534  0.3554
  363MOL0     C48923  10.058   4.128   5.536  0.5447 -1.1587  0.6459
  363MOL0     C48924  10.146   4.229   5.547  0.3438 -0.5844 -0.7841
  363MOL0     C48925  10.408   4.580   5.625 -0.7428 -0.5007  0.3918
  363MOL0     C48926  10.480   4.658   5.536  0.0619  0.0210  0.5038
  363MOL0     C48927  10.593   4.739   5.574  0.5465  0.9063 -0.4904
  363MOL0     C48928  10.642   4.744   5.710  0.6207 -0.2148  0.0945
  363MOL0     O48929  10.755   4.802   5.765 -0.3352 -0.0676  0.5202
  363MOL0     C48930  10.842   4.841   5.657  0.0910  0.5186  0.7684
  363MOL0     C48931  10.922   4.724   5.598 -0.7652  0.2744 -0.6382
  363MOL0     C48932  11.005   4.658   5.697  0.2989  0.2559 -0.3398
  363MOL0     C48933  11.143   4.607   5.642 -1.3775  0.1101  1.1895
  363MOL0     C48934  11.224   4.727   5.624 -0.7991 -0.1893  0.0928
  363MOL0     C48935  11.299   4.823   5.617 -0.0206 -0.6121  0.8221
  363MOL0     C48936  10.561   4.676   5.803  0.3219 -0.3450  0.1577
  363MOL0     C48937  10.459   4.590   5.759  0.1415 -0.4254  0.3381
  363MOL0     H48938  10.100   4.310   5.872  0.5579  0.3738  0.2048
  363MOL0     H48939   9.941   4.113   5.857 -2.4973 -2.3272 -1.0307
  363MOL0     H48940   9.759   3.903   5.766 -4.8211  1.8274  1.2900
  363MOL0     H48941   9.739   4.068   5.719 -0.5130  1.3085 -2.4397
  363MOL0     H48942   9.688   3.826   5.539 -1.8988  0.1445 -2.8515
  363MOL0     H48943   9.566   3.935   5.627  1.6393  1.3531  1.7344
  363MOL0     H48944   9.673   4.124   5.499  0.6162  1.2394 -0.7749
  363MOL0     H48945   9.754   4.003   5.409 -0.8578  2.2325 -0.9285
  363MOL0     H48946   9.523   3.895   5.346  1.9050 -0.1783 -1.5654
  363MOL0     H48947   9.452   4.041   5.407 -1.4408 -2.7140 -1.0552
  363MOL0     H48948   9.454   4.097   5.200  1.0591  1.7179  1.4986
  363MOL0     H48949   9.603   4.169   5.236  0.9038  0.6539 -0.6180
  363MOL0     H48950   9.727   3.978   5.160  0.8024  1.8385 -0.5245
  363MOL0     H48951   9.581   3.873   5.150 -0.8837  0.6268  0.5431
  363MOL0     H48952   9.520   4.053   4.963 -1.1459 -2.6957 -0.7200
  363MOL0     H48953   9.687   4.109   4.984  0.5168 -0.0573 -2.6146
  363MOL0     H48954   9.751   3.871   4.928 -1.8706 -1.2438  1.1128
  363MOL0     H48955   9.719   3.982   4.791 -0.0139  0.5966 -0.9466
  363MOL0     H48956   9.406   3.964   4.780  0.0866  0.3580  0.3287
  363MOL0     H48957   9.207   3.666   4.787  3.5591 -1.1558  1.1755
  363MOL0     H48958   9.181   3.834   4.767 -3.9601 -1.6171 -1.4058
  363MOL0     H48959   9.295   3.632   4.547  2.2494  0.7559  1.2056
  363MOL0     H48960   9.285   3.814   4.524 -0.1018 -0.1320 -2.6083
  363MOL0     H48961   9.051   3.816   4.532 -1.0099  0.0255  2.9444
  363MOL0     H48962   9.040   3.645   4.583  1.8748 -0.5156  1.7478
  363MOL0     H48963   9.138   3.575   4.357  4.2595  1.9560 -0.0355
  363MOL0     H48964   9.169   3.727   4.306 -3.3979  1.9779 -1.3463
  363MOL0     H48965   8.761   3.721   4.167 -3.1122 -0.9647 -2.5805
  363MOL0     H48966   8.586   3.666   4.043  0.7505 -0.0521  1.5110
  363MOL0     H48967   8.527   3.493   4.033 -1.3565  1.1419 -1.3322
  363MOL0     H48968   8.451   3.598   4.138 -0.5109  0.5028 -1.2633
  363MOL0     H48969   8.285   3.354   4.410 -1.9526  0.5984  0.7306
  363MOL0     H48970   8.123   3.293   4.569 -2.6614 -2.2944  0.0240
  363MOL0     H48971   8.191   2.953   4.845  2.2365 -0.0007 -4.3900
  363MOL0     H48972   8.025   3.016   4.876  1.8645  0.3578  2.1671
  363MOL0     H48973   7.941   2.911   4.695  1.3483  2.8634  0.2073
  363MOL0     H48974   8.088   2.827   4.655  0.9686  0.0398  0.3010
  363MOL0     H48975   7.930   2.667   4.769 -0.7268  1.9384 -0.9459
  363MOL0     H48976   7.910   2.761   4.914  0.6523  4.2656 -0.5837
  363MOL0     H48977   8.171   2.756   4.944  0.2755  0.3041  0.0645
  363MOL0     H48978   8.069   2.614   4.977  0.4471 -4.0366 -2.8936
  363MOL0     H48979   8.239   2.640   4.727 -1.0640 -0.0666 -0.0990
  363MOL0     H48980   8.100   2.526   4.744  1.2977 -1.8666  1.0669
  363MOL0     H48981   8.219   2.424   4.939 -0.9942  4.4463  1.3460
  363MOL0     H48982   8.268   2.378   4.777  1.1353 -0.1315  0.4792
  363MOL0     H48983   8.445   2.399   4.935  1.1710  1.0584  0.3636
  363MOL0     H48984   8.380   2.556   4.993  0.5195  2.1129 -1.2465
  363MOL0     H48985   8.462   2.545   4.705 -2.8794 -0.0304  0.8845
  363MOL0     H48986   8.591   2.544   4.829 -1.5945 -3.9016  0.5154
  363MOL0     H48987   8.372   2.944   4.663  2.6245  0.2346  0.3629
  363MOL0     H48988   8.535   3.013   4.520 -2.2716 -3.6434 -0.9856
  363MOL0     H48989   8.761   3.297   4.404  0.5465 -0.0564 -1.2925
  363MOL0     H48990   8.938   3.450   4.456 -1.3658 -1.5569  0.4195
  363MOL0     H48991  10.042   4.083   5.439  0.9221 -0.6404  0.3347
  363MOL0     H48992  10.198   4.249   5.453 -1.2055  1.7078 -1.2498
  363MOL0     H48993  10.457   4.645   5.430 -1.9137 -2.4451  1.1455
  363MOL0     H48994  10.649   4.781   5.491 -0.9237  2.2057 -0.8577
  363MOL0     H48995  10.788   4.895   5.578  1.6228  0.9158 -0.0481
  363MOL0     H48996  10.910   4.917   5.696 -0.4466  0.9273  0.9239
  363MOL0     H48997  10.988   4.779   5.530  1.3156 -0.1728  0.9366
  363MOL0     H48998  10.859   4.651   5.545  0.7911 -0.7497 -1.1434
  363MOL0     H48999  10.947   4.573   5.734 -0.6606  1.7881  1.9363
  363MOL0     H49000  11.026   4.727   5.779 -2.2320  1.5986 -0.7142
  363MOL0     H49001  11.133   4.562   5.543  0.7955  1.3252  0.3582
  363MOL0     H49002  11.188   4.543   5.718 -1.8355  0.8001  2.0651
  363MOL0     H49003  11.367   4.906   5.618  0.6939 -1.1859  0.3884
  363MOL0     H49004  10.573   4.676   5.911 -0.7969  0.0595  0.2893
  363MOL0     H49005  10.427   4.522   5.837  0.3187 -2.0887 -0.9886
  364MOL0     O49006   0.214   9.958   6.078  0.0065 -0.7122  0.2724
  364MOL0     C49007   0.146   9.874   6.015 -0.4715 -0.0203 -0.1775
  364MOL0     O49008   0.060   9.781   6.073 -0.0366 -0.5112 -0.2506
  364MOL0     C49009   0.059   9.782   6.209  0.1288  0.1155 -0.6061
  364MOL0     C49010   0.157   9.717   6.292 -0.0836  0.6030  0.3641
  364MOL0     C49011   0.134   9.684   6.424  1.0763 -0.0908 -0.7086
  364MOL0     C49012   0.014   9.737   6.489  0.2639 -0.0570  0.1819
  364MOL0     O49013  -0.013   9.722   6.625 -0.3491 -0.0283  0.1452
  364MOL0     C49014   0.075   9.654   6.714  0.1614 -0.3820 -0.8467
  364MOL0     C49015   0.009   9.646   6.857  0.0984  0.6203 -0.3223
  364MOL0     C49016   0.081   9.543   6.954  0.5790 -0.5537  0.4717
  364MOL0     C49017   0.043   9.565   7.104  0.5884  0.1710 -0.1571
  364MOL0     C49018   0.069   9.428   7.176  0.8032  0.4215  0.4624
  364MOL0     C49019   0.205   9.358   7.163 -0.7917 -0.5649  0.2739
  364MOL0     C49020   0.224   9.218   7.218 -0.5925  0.4311 -0.4442
  364MOL0     C49021   0.351   9.147   7.159 -0.1396 -1.3462  0.1232
  364MOL0     N49022   0.392   9.038   7.241  0.7611  0.4543 -0.4234
  364MOL0     C49023   0.326   8.909   7.240  0.8047 -1.6152 -0.2173
  364MOL0     C49024   0.399   8.828   7.313 -0.1983  0.2831  0.0287
  364MOL0     C49025   0.382   8.677   7.316  0.2081 -0.7486  0.3466
  364MOL0     C49026   0.518   8.611   7.342 -0.1748 -0.0156 -1.0326
  364MOL0     C49027   0.546   8.588   7.493 -0.9843  0.6924 -0.0261
  364MOL0     C49028   0.457   8.477   7.556  0.6404  0.2660  0.2194
  364MOL0     O49029   0.476   8.352   7.493  0.6528  0.0280  0.3792
  364MOL0     C49030   0.361   8.267   7.490  0.1264  0.3114 -0.0246
  364MOL0     C49031   0.340   8.197   7.378 -0.6968  1.0177 -0.0563
  364MOL0     C49032   0.246   8.095   7.374 -0.5476 -0.9839  0.3475
  364MOL0     C49033   0.225   8.041   7.233  0.0116  1.1730  0.1612
  364MOL0     C49034   0.158   8.068   7.486  0.1046  0.5059 -0.6971
  364MOL0     C49035   0.051   7.969   7.483  0.9506 -0.8675 -0.3310
  364MOL0     O49036  -0.001   7.908   7.366  0.0430  0.3240 -0.5521
  364MOL0     C49037  -0.132   7.867   7.396  0.5001 -0.0727 -0.0581
  364MOL0     C49038  -0.147   7.730   7.408  0.6864 -0.5638 -0.1883
  364MOL0     C49039  -0.276   7.687   7.443  0.1836 -0.4360  1.1034
  364MOL0     C49040  -0.392   7.768   7.420  0.3733 -0.2455 -0.2772
  364MOL0     O49041  -0.502   7.693   7.444  0.2499  0.1598  0.8884
  364MOL0     C49042  -0.605   7.729   7.357  1.0894 -0.0638  0.5642
  364MOL0     C49043  -0.712   7.630   7.381  0.1583  0.2372  0.7783
  364MOL0     C49044  -0.849   7.690   7.357  0.8237  0.7299  1.3784
  364MOL0     C49045  -0.967   7.592   7.387 -0.2256 -0.5128  0.0094
  364MOL0     C49046  -1.114   7.656   7.388 -0.1744 -0.2287  0.3565
  364MOL0     C49047  -1.146   7.701   7.241 -0.2201  0.5024  0.8226
  364MOL0     C49048  -1.284   7.773   7.231  0.8640  1.3511 -0.0204
  364MOL0     C49049  -1.331   7.758   7.089  0.1609 -0.4552 -0.2046
  364MOL0    Cl49050  -1.377   7.594   7.055  0.2223  0.2858 -0.0262
  364MOL0     C49051  -0.375   7.902   7.388 -0.0216 -0.2502 -0.1878
  364MOL0     C49052  -0.243   7.960   7.389 -0.0700 -0.0784  0.4235
  364MOL0     O49053   0.009   7.950   7.593  0.2337 -0.4310 -0.5663
  364MOL0     C49054   0.175   8.144   7.595  1.0181 -0.2568  0.4584
  364MOL0     C49055   0.278   8.231   7.606 -0.8452 -0.2639 -0.2660
  364MOL0     N49056   0.502   8.905   7.366 -0.0559  0.0243 -0.0454
  364MOL0     N49057   0.500   9.027   7.324 -0.6267  0.4139 -0.1224
  364MOL0     C49058  -0.074   9.815   6.409 -0.0012  0.0019  0.5108
  364MOL0     C49059  -0.055   9.838   6.273  0.5184 -0.3769  1.4804
  364MOL0     C49060   0.152   9.878   5.869  0.9131 -0.2866 -0.1806
  364MOL0     C49061   0.111   9.765   5.790 -0.1021  1.2303 -0.6994
  364MOL0     C49062   0.119   9.772   5.648  1.0298  0.3630 -0.5247
  364MOL0     C49063   0.150   9.894   5.586  0.4038 -0.7337 -0.6356
  364MOL0     O49064   0.131   9.902   5.448  0.0986  0.0767 -0.2572
  364MOL0     C49065   0.045  10.006   5.406  0.4827 -1.8474  0.4062
  364MOL0     C49066   0.122  10.136   5.348  0.3871  0.1906  0.2285
  364MOL0     C49067   0.172  10.110   5.204  0.2315  0.3902 -0.3065
  364MOL0     C49068   0.067  10.066   5.103  0.3793 -0.3386 -0.3176
  364MOL0     C49069   0.134  10.037   4.981 -0.0010 -0.7557  0.2314
  364MOL0     C49070   0.203  10.009   4.890 -0.0227  0.2658  0.8126
  364MOL0     C49071   0.179  10.006   5.666  1.1118 -1.1627  0.6595
  364MOL0     C49072   0.189  10.000   5.805  0.4608  0.5614  0.4937
  364MOL0     H49073   0.242   9.677   6.237 -2.0026 -0.5502 -1.9642
  364MOL0     H49074   0.214   9.624   6.467  0.3688 -0.6319 -0.1249
  364MOL0     H49075   0.109   9.561   6.668 -1.0930 -2.5814  2.4008
  364MOL0     H49076   0.168   9.712   6.716 -0.4354  0.6792 -1.8667
  364MOL0     H49077   0.001   9.748   6.896  0.0591  1.1705 -1.7034
  364MOL0     H49078  -0.093   9.608   6.863  1.0947 -2.0933  3.6686
  364MOL0     H49079   0.050   9.441   6.932 -0.7434 -0.1944  0.5710
  364MOL0     H49080   0.188   9.559   6.937  0.5127  0.8550  1.2216
  364MOL0     H49081   0.093   9.652   7.149 -0.6138  2.4637 -2.8997
  364MOL0     H49082  -0.061   9.596   7.111  0.9333  1.1272  1.1224
  364MOL0     H49083   0.050   9.446   7.282  0.6018  3.2338  0.0174
  364MOL0     H49084  -0.017   9.364   7.152 -0.1791 -0.2393  4.8871
  364MOL0     H49085   0.232   9.353   7.057  0.6687  0.0473  0.5955
  364MOL0     H49086   0.283   9.420   7.208 -2.5554  0.7389  1.6945
  364MOL0     H49087   0.226   9.201   7.326  0.3863 -0.3965 -0.5776
  364MOL0     H49088   0.139   9.161   7.180  0.1971 -0.3824 -1.0382
  364MOL0     H49089   0.436   9.215   7.155 -1.8279  0.8639 -2.7780
  364MOL0     H49090   0.337   9.127   7.052 -1.6332 -2.0798  0.4184
  364MOL0     H49091   0.247   8.876   7.174 -1.3494  1.3214  0.6931
  364MOL0     H49092   0.301   8.658   7.387  0.9552 -0.8025  1.2051
  364MOL0     H49093   0.347   8.645   7.217 -0.5425  0.3594  0.2286
  364MOL0     H49094   0.597   8.671   7.297  0.1420 -0.0150 -0.4790
  364MOL0     H49095   0.507   8.516   7.288 -0.4032  0.1917 -1.3547
  364MOL0     H49096   0.538   8.679   7.553 -3.0247 -1.7944  3.8864
  364MOL0     H49097   0.651   8.563   7.510 -0.5136  2.9537  0.7332
  364MOL0     H49098   0.354   8.510   7.541 -0.1671 -2.6850 -1.4362
  364MOL0     H49099   0.463   8.479   7.665  2.5850  3.5592  0.1729
  364MOL0     H49100   0.391   8.237   7.291  0.0335  2.1866  0.8718
  364MOL0     H49101   0.227   7.932   7.240 -4.4599  0.7022 -2.1103
  364MOL0     H49102   0.130   8.080   7.194  0.1699 -0.5386 -2.1495
  364MOL0     H49103   0.306   8.068   7.165 -1.1030 -0.9057 -2.1491
  364MOL0     H49104  -0.060   7.668   7.424 -0.6764 -2.4825  0.1965
  364MOL0     H49105  -0.284   7.582   7.470 -0.4369 -0.0880  2.3478
  364MOL0     H49106  -0.642   7.832   7.366  0.9744 -0.1359  0.9241
  364MOL0     H49107  -0.571   7.726   7.253  5.4254  1.6409  1.7490
  364MOL0     H49108  -0.683   7.547   7.316  0.1744 -0.2389  1.3876
  364MOL0     H49109  -0.708   7.597   7.485  2.0465 -0.7472  0.4538
  364MOL0     H49110  -0.860   7.726   7.254 -0.3166  0.6532  1.4516
  364MOL0     H49111  -0.863   7.783   7.412 -3.3844 -1.1491  4.0818
  364MOL0     H49112  -0.959   7.510   7.316 -2.1934  2.4668 -4.0610
  364MOL0     H49113  -0.955   7.558   7.490 -0.8200  1.3510  0.7347
  364MOL0     H49114  -1.126   7.743   7.453 -0.0615  0.4126 -0.4727
  364MOL0     H49115  -1.189   7.582   7.416 -0.6308 -0.1021 -0.5218
  364MOL0     H49116  -1.080   7.778   7.201  0.6653 -1.6038 -2.1175
  364MOL0     H49117  -1.138   7.611   7.180  0.1087  1.2614 -0.2703
  364MOL0     H49118  -1.291   7.880   7.249  2.0625  1.5375 -0.5658
  364MOL0     H49119  -1.363   7.736   7.298 -0.1722  2.5186 -0.5698
  364MOL0     H49120  -1.238   7.788   7.039  0.6527  1.1253  1.5397
  364MOL0     H49121  -1.415   7.825   7.067  0.5839 -0.5039 -2.1205
  364MOL0     H49122  -0.460   7.969   7.396  0.8337  0.9201 -0.6354
  364MOL0     H49123  -0.227   8.067   7.388  0.4929 -0.0947  2.5978
  364MOL0     H49124   0.102   8.130   7.673  1.1794  0.9030  0.8317
  364MOL0     H49125   0.304   8.285   7.697 -0.8088 -2.5452  1.1622
  364MOL0     H49126  -0.161   9.859   6.456 -2.9615 -2.1121 -2.5067
  364MOL0     H49127  -0.121   9.891   6.204  2.7299 -3.8945 -3.9783
  364MOL0     H49128   0.097   9.666   5.834  1.9145 -0.4135 -3.4084
  364MOL0     H49129   0.097   9.684   5.588  0.8305 -2.0200  2.8055
  364MOL0     H49130  -0.036   9.976   5.339 -2.3731  0.2592  2.6491
  364MOL0     H49131  -0.007  10.046   5.493  2.4543 -0.9633  1.2378
  364MOL0     H49132   0.216  10.140   5.405  1.3975 -0.8968 -1.2763
  364MOL0     H49133   0.066  10.227   5.367  1.5379  0.6292  1.6776
  364MOL0     H49134   0.246  10.032   5.222 -0.9310 -0.6057  0.3020
  364MOL0     H49135   0.215  10.208   5.179  1.3245 -0.2549 -1.0333
  364MOL0     H49136   0.001  10.151   5.087 -0.4757 -0.5755  1.7004
  364MOL0     H49137   0.015   9.978   5.142  1.6707 -0.9136  0.1891
  364MOL0     H49138   0.264  10.013   4.802 -0.0710  0.7152  0.7981
  364MOL0     H49139   0.201  10.100   5.617 -4.5707  0.2048  0.1043
  364MOL0     H49140   0.223  10.085   5.862 -1.0401  0.5824  1.4201
  365MOL0     O49141  11.229   0.211   3.081 -0.4063  0.7661 -0.0582
  365MOL0     C49142  11.147   0.265   3.156 -1.0185 -0.3662 -1.4012
  365MOL0     O49143  11.165   0.384   3.232  0.4644  0.2301 -0.4222
  365MOL0     C49144  11.291   0.422   3.254  0.1342  0.3528  0.0920
  365MOL0     C49145  11.361   0.365   3.358  0.7562 -0.3828  0.6506
  365MOL0     C49146  11.503   0.375   3.362  0.3099  0.1476  0.1086
  365MOL0     C49147  11.567   0.476   3.279  0.3349  1.5111 -0.7450
  365MOL0     O49148  11.703   0.488   3.293 -0.2606 -0.2535  0.2022
  365MOL0     C49149  11.795   0.394   3.350  0.3065 -0.7250  0.4409
  365MOL0     C49150  11.787   0.271   3.260  0.1064  0.5888 -0.2473
  365MOL0     C49151  11.910   0.182   3.269 -1.1706 -0.5366 -0.7977
  365MOL0     C49152  11.855   0.044   3.308  0.8672  0.3653 -0.2404
  365MOL0     C49153  11.830   0.023   3.460 -0.9090  0.1898 -0.5154
  365MOL0     C49154  11.884  -0.121   3.500  0.2493  0.0169  0.7593
  365MOL0     C49155  11.845  -0.168   3.647  1.3324  0.9799 -1.0104
  365MOL0     C49156  11.909  -0.299   3.691 -0.0940 -0.5599  0.4892
  365MOL0     N49157  11.850  -0.315   3.826  0.8955  0.0043 -0.3151
  365MOL0     C49158  11.718  -0.320   3.866  0.4786 -0.5355 -0.3716
  365MOL0     C49159  11.727  -0.365   3.992  0.9751 -0.0091  0.0885
  365MOL0     C49160  11.601  -0.414   4.066  0.0494 -0.4069 -0.1061
  365MOL0     C49161  11.613  -0.523   4.166 -0.7757 -0.0005 -0.5594
  365MOL0     C49162  11.522  -0.499   4.289  0.1636 -0.4486 -0.1410
  365MOL0     C49163  11.508  -0.620   4.381  0.3632 -0.0340 -0.0928
  365MOL0     O49164  11.394  -0.605   4.462 -0.3040  0.4786  0.3851
  365MOL0     C49165  11.388  -0.671   4.583  0.3117  0.4960  0.8963
  365MOL0     C49166  11.410  -0.808   4.586 -0.4277  0.1132  0.5985
  365MOL0     C49167  11.408  -0.878   4.707  0.3783  0.1340  0.2068
  365MOL0     C49168  11.431  -1.030   4.683 -1.1328 -0.4918 -0.6814
  365MOL0     C49169  11.372  -0.810   4.819 -0.4620  0.4818 -1.0724
  365MOL0     C49170  11.359  -0.867   4.952 -0.5498 -1.4640 -0.1054
  365MOL0     O49171  11.453  -0.956   4.998  0.4969 -0.0793 -0.6240
  365MOL0     C49172  11.411  -1.026   5.109 -0.2645  0.1885 -0.5608
  365MOL0     C49173  11.302  -1.111   5.098  0.6945  0.4952  0.0657
  365MOL0     C49174  11.258  -1.177   5.212 -0.9177  0.0829 -0.6032
  365MOL0     C49175  11.332  -1.181   5.334  0.1642 -0.0067  0.7626
  365MOL0     O49176  11.303  -1.253   5.453  0.5135 -0.3656  1.0754
  365MOL0     C49177  11.162  -1.285   5.477 -0.0149  0.0422  0.5781
  365MOL0     C49178  11.133  -1.318   5.626 -0.0516  0.8518  0.1319
  365MOL0     C49179  11.129  -1.196   5.726 -0.2118  0.3098  0.8395
  365MOL0     C49180  11.085  -1.248   5.867  0.4073  1.4641  0.4752
  365MOL0     C49181  11.079  -1.142   5.973 -0.5384  0.2590  1.2993
  365MOL0     C49182  11.013  -1.185   6.107  0.0809  0.0852  0.6777
  365MOL0     C49183  10.981  -1.067   6.198  0.1806 -0.0935 -0.3103
  365MOL0     C49184  10.895  -1.096   6.320 -1.1326  0.2305  0.5327
  365MOL0    Cl49185  10.737  -1.146   6.255 -0.1624 -0.2700  0.2027
  365MOL0     C49186  11.448  -1.102   5.336  0.8694 -0.1024 -0.0735
  365MOL0     C49187  11.484  -1.015   5.228 -0.9204 -0.0433 -0.0325
  365MOL0     O49188  11.252  -0.837   5.005  0.5829  0.3361 -0.0466
  365MOL0     C49189  11.344  -0.675   4.817  0.1638 -0.5383  0.7873
  365MOL0     C49190  11.348  -0.602   4.695  0.2038  1.2107  0.2751
  365MOL0     N49191  11.853  -0.371   4.037 -0.7025  0.0328 -0.5745
  365MOL0     N49192  11.915  -0.335   3.934 -0.4250 -0.1939 -0.7133
  365MOL0     C49193  11.488   0.555   3.205 -0.4910 -0.2286 -0.4881
  365MOL0     C49194  11.353   0.522   3.177 -0.0953  1.5084  0.3611
  365MOL0     C49195  11.011   0.199   3.169 -0.1118  0.5647 -0.2223
  365MOL0     C49196  10.924   0.231   3.265  0.4039  0.8694  0.0998
  365MOL0     C49197  10.813   0.148   3.288 -1.0045  0.0987 -0.8899
  365MOL0     C49198  10.780   0.038   3.218  0.0164  1.2215  0.0448
  365MOL0     O49199  10.674  -0.043   3.244 -0.2117 -0.6425 -0.6819
  365MOL0     C49200  10.642  -0.149   3.153 -0.1792  0.7487  0.0143
  365MOL0     C49201  10.489  -0.153   3.147  0.3291  0.5413 -0.3828
  365MOL0     C49202  10.428  -0.026   3.066 -0.6251  0.0713 -0.1261
  365MOL0     C49203  10.351  -0.064   2.938  0.6905 -1.2653 -0.0215
  365MOL0     C49204  10.232  -0.144   2.983  1.3883 -0.3868 -0.1031
  365MOL0     C49205  10.141  -0.225   3.023 -0.7639  0.2062 -0.5590
  365MOL0     C49206  10.880  -0.003   3.128  0.5088  0.2363 -0.1336
  365MOL0     C49207  10.990   0.078   3.107 -0.1723  0.0020  0.5424
  365MOL0     H49208  11.301   0.305   3.426 -0.8255 -0.5963 -0.8532
  365MOL0     H49209  11.550   0.303   3.428  0.1412 -1.5660 -1.5567
  365MOL0     H49210  11.894   0.440   3.344  0.8683 -1.9153  0.3258
  365MOL0     H49211  11.775   0.377   3.456 -0.3497 -0.4608  0.3623
  365MOL0     H49212  11.694   0.218   3.284 -0.0880  1.2804  0.5551
  365MOL0     H49213  11.769   0.307   3.158 -4.1793  0.1163  0.1924
  365MOL0     H49214  11.962   0.176   3.173  1.7667  0.4152  0.6078
  365MOL0     H49215  11.988   0.211   3.340  0.9509 -2.1632 -2.3165
  365MOL0     H49216  11.773   0.021   3.239  0.1616  2.4326 -0.1777
  365MOL0     H49217  11.935  -0.026   3.282 -0.4246 -1.6876  1.0537
  365MOL0     H49218  11.880   0.094   3.527 -1.3168 -0.2080  0.2243
  365MOL0     H49219  11.722   0.029   3.477 -1.3274 -1.0771 -2.3602
  365MOL0     H49220  11.869  -0.186   3.414 -1.9112  1.8975 -0.3981
  365MOL0     H49221  11.993  -0.108   3.500  0.3711 -0.6955 -1.1355
  365MOL0     H49222  11.862  -0.087   3.719 -2.2193  0.7689  0.2729
  365MOL0     H49223  11.736  -0.177   3.642  1.3595 -0.8742  0.5264
  365MOL0     H49224  12.016  -0.280   3.701 -0.0466  0.1800 -1.0692
  365MOL0     H49225  11.902  -0.375   3.613 -3.0754  0.7633 -0.6752
  365MOL0     H49226  11.634  -0.299   3.801  1.8950  0.9885 -1.8376
  365MOL0     H49227  11.552  -0.332   4.120 -0.9286 -0.9295 -0.1697
  365MOL0     H49228  11.535  -0.461   3.993  2.4505 -2.1948 -1.2759
  365MOL0     H49229  11.719  -0.541   4.186 -0.9531 -1.2156 -0.5995
  365MOL0     H49230  11.592  -0.623   4.125  1.7172 -1.7870  2.1087
  365MOL0     H49231  11.418  -0.477   4.263 -0.0279 -0.9471  0.1996
  365MOL0     H49232  11.562  -0.416   4.348  0.8521 -0.5165 -0.5018
  365MOL0     H49233  11.604  -0.626   4.431  0.7894 -0.2982 -0.9248
  365MOL0     H49234  11.494  -0.708   4.317 -0.5338  0.8869 -1.2088
  365MOL0     H49235  11.421  -0.861   4.492  0.3304 -1.0199  1.3029
  365MOL0     H49236  11.339  -1.073   4.722  0.3271 -2.0465  1.2704
  365MOL0     H49237  11.432  -1.048   4.575  0.1089  1.7335 -1.1022
  365MOL0     H49238  11.515  -1.076   4.737  0.8617  1.7523 -1.6987
  365MOL0     H49239  11.237  -1.121   5.012 -0.7293  4.1189  0.5195
  365MOL0     H49240  11.165  -1.232   5.215 -1.7310  1.4206 -0.1591
  365MOL0     H49241  11.109  -1.191   5.459  0.5068  0.2083 -0.1533
  365MOL0     H49242  11.128  -1.358   5.404  1.0150  0.7747 -0.6801
  365MOL0     H49243  11.030  -1.355   5.625 -0.6977  2.5520 -1.4868
  365MOL0     H49244  11.202  -1.395   5.662  0.1348  1.5893  1.3934
  365MOL0     H49245  11.074  -1.111   5.685 -2.5182 -1.3319  0.3491
  365MOL0     H49246  11.234  -1.165   5.735  0.5320 -2.0331  1.0056
  365MOL0     H49247  10.987  -1.294   5.852  1.4910 -1.4603  1.6291
  365MOL0     H49248  11.154  -1.323   5.908 -2.1847 -1.5250 -0.2696
  365MOL0     H49249  11.011  -1.067   5.932 -0.1332  0.1178  0.3342
  365MOL0     H49250  11.179  -1.105   5.995 -0.0790 -0.1139 -0.0531
  365MOL0     H49251  10.927  -1.251   6.095  1.8449 -2.4691  1.1717
  365MOL0     H49252  11.079  -1.258   6.156 -1.1142 -0.3593  1.6817
  365MOL0     H49253  10.936  -0.980   6.150 -0.0372 -0.8613 -1.5350
  365MOL0     H49254  11.077  -1.027   6.233  0.0784 -2.6819  3.5688
  365MOL0     H49255  10.874  -1.010   6.383 -0.9874 -0.5591  1.6930
  365MOL0     H49256  10.955  -1.169   6.375  0.3462  1.4827  0.6440
  365MOL0     H49257  11.491  -1.083   5.434 -0.6231 -1.7823  0.9639
  365MOL0     H49258  11.577  -0.960   5.231 -0.1140 -1.1179 -2.6955
  365MOL0     H49259  11.314  -0.618   4.904 -0.3991  1.0637 -0.4075
  365MOL0     H49260  11.323  -0.497   4.708 -2.2217  0.3107  5.1246
  365MOL0     H49261  11.526   0.641   3.150  0.1764 -0.2575 -0.0792
  365MOL0     H49262  11.286   0.568   3.105 -2.3784 -1.1658  0.6240
  365MOL0     H49263  10.931   0.317   3.332 -3.5304  0.1256  1.6859
  365MOL0     H49264  10.754   0.180   3.373  1.0300  1.5657  0.0745
  365MOL0     H49265  10.657  -0.136   3.045 -1.9231 -3.7765 -0.9993
  365MOL0     H49266  10.686  -0.239   3.197 -2.8298  1.5028  4.8671
  365MOL0     H49267  10.461  -0.159   3.253  3.6402  3.5224  0.8445
  365MOL0     H49268  10.468  -0.241   3.085  0.8208 -0.3161  0.6279
  365MOL0     H49269  10.509   0.040   3.034  1.2671 -0.3934  3.3266
  365MOL0     H49270  10.377   0.043   3.134  1.0482 -0.2049  1.4788
  365MOL0     H49271  10.403  -0.127   2.866 -0.4008 -2.8467  0.5153
  365MOL0     H49272  10.318   0.024   2.882  0.7410 -0.9541  0.4290
  365MOL0     H49273  10.082  -0.314   3.028 -0.8081  0.2467 -0.3463
  365MOL0     H49274  10.866  -0.095   3.072  0.0877  0.6417 -0.7187
  365MOL0     H49275  11.053   0.034   3.030  0.1435 -0.3379  0.9838
  366MOL0     O49276   4.422   3.451   8.460 -0.5403  0.2544  0.1311
  366MOL0     C49277   4.420   3.411   8.580  0.0234 -0.3576 -0.5568
  366MOL0     O49278   4.365   3.297   8.630  0.8659  0.6433 -0.6758
  366MOL0     C49279   4.308   3.208   8.538  1.3090 -0.3922  0.6352
  366MOL0     C49280   4.390   3.158   8.429 -0.6853 -1.9746 -0.3508
  366MOL0     C49281   4.342   3.078   8.327  0.2289  0.0538  0.4423
  366MOL0     C49282   4.213   3.028   8.328 -0.1607 -0.5377 -0.5176
  366MOL0     O49283   4.165   2.951   8.233 -0.2497 -0.3569 -0.1227
  366MOL0     C49284   4.151   3.012   8.095 -0.5684  0.3658 -0.9855
  366MOL0     C49285   4.028   2.973   8.017 -0.1669  0.6652 -0.1281
  366MOL0     C49286   4.043   2.988   7.863 -1.1741  0.2372 -0.2557
  366MOL0     C49287   3.923   2.918   7.795 -0.8226 -0.0402  0.1267
  366MOL0     C49288   3.910   2.940   7.647 -0.2885 -0.2507 -0.0373
  366MOL0     C49289   4.034   2.929   7.557  0.6328  0.4584  0.0087
  366MOL0     C49290   4.121   2.799   7.585 -0.0494  0.1784 -0.5795
  366MOL0     C49291   4.231   2.792   7.485 -0.5514 -0.2855 -0.4026
  366MOL0     N49292   4.198   2.777   7.334 -0.6597 -0.0308  0.3809
  366MOL0     C49293   4.142   2.662   7.278 -0.2252  0.6183 -0.4945
  366MOL0     C49294   4.191   2.658   7.152  0.6033  0.2119 -0.2353
  366MOL0     C49295   4.191   2.559   7.037 -0.2239  0.5226  0.3903
  366MOL0     C49296   4.199   2.412   7.071 -0.0707 -0.4743  0.2016
  366MOL0     C49297   4.071   2.358   7.133 -0.8319 -0.6503 -0.4656
  366MOL0     C49298   4.063   2.219   7.172  0.7073  0.2514  0.3842
  366MOL0     O49299   4.189   2.183   7.232 -0.0864  0.4253  0.2753
  366MOL0     C49300   4.238   2.057   7.232 -0.4743  0.0447  0.7618
  366MOL0     C49301   4.354   2.040   7.308 -0.5687  1.1044  0.2146
  366MOL0     C49302   4.416   1.911   7.323 -1.0515  0.7775 -0.5014
  366MOL0     C49303   4.545   1.902   7.404 -0.0675 -0.3326  0.0234
  366MOL0     C49304   4.369   1.803   7.251 -0.8254 -0.5203 -0.2595
  366MOL0     C49305   4.421   1.662   7.248  0.3438 -1.0209 -0.5441
  366MOL0     O49306   4.535   1.634   7.313  0.2969  0.1950 -0.8494
  366MOL0     C49307   4.551   1.497   7.347  0.2758 -0.2320  0.5242
  366MOL0     C49308   4.499   1.452   7.472  0.6019 -0.9379 -0.2564
  366MOL0     C49309   4.511   1.315   7.507 -0.2299 -0.2711 -0.5738
  366MOL0     C49310   4.570   1.225   7.404  0.5600  0.4297  0.1993
  366MOL0     O49311   4.578   1.090   7.438 -0.1789 -0.3997  0.0384
  366MOL0     C49312   4.624   0.987   7.345  0.1225 -0.4277 -0.6993
  366MOL0     C49313   4.581   0.852   7.397 -0.3239  0.6537  0.2098
  366MOL0     C49314   4.708   0.757   7.381  0.5526  0.0728 -0.3928
  366MOL0     C49315   4.681   0.630   7.448  0.7272 -0.4467  0.4748
  366MOL0     C49316   4.777   0.515   7.433  0.2935 -0.2807 -0.6167
  366MOL0     C49317   4.909   0.552   7.510 -0.6039  0.8307  0.5735
  366MOL0     C49318   5.006   0.446   7.478 -0.5820 -0.9128  0.4113
  366MOL0     C49319   4.983   0.330   7.579  0.1845 -0.1412 -0.4966
  366MOL0    Cl49320   5.019   0.375   7.744  0.0794  0.0201 -0.1668
  366MOL0     C49321   4.620   1.270   7.283  0.6944  0.2098  0.6927
  366MOL0     C49322   4.614   1.405   7.258 -0.4268 -0.1607  0.5330
  366MOL0     O49323   4.355   1.580   7.185 -0.2107 -0.1347 -0.4492
  366MOL0     C49324   4.258   1.830   7.162  0.0294  0.2140 -0.8899
  366MOL0     C49325   4.189   1.957   7.153 -0.6224  0.0741  0.0164
  366MOL0     N49326   4.252   2.778   7.128  0.9354 -0.3573 -0.1289
  366MOL0     N49327   4.262   2.846   7.240 -1.2880  0.2523 -0.5647
  366MOL0     C49328   4.127   3.079   8.433 -0.2075 -0.3156  0.2317
  366MOL0     C49329   4.177   3.158   8.541  0.8484  0.2678  0.2074
  366MOL0     C49330   4.491   3.498   8.668 -0.4130 -0.3251  0.1155
  366MOL0     C49331   4.549   3.630   8.628  0.0827  0.2244 -0.4825
  366MOL0     C49332   4.605   3.711   8.730  0.1356  0.2165 -0.1422
  366MOL0     C49333   4.600   3.678   8.862  0.0953  0.4665  0.5424
  366MOL0     O49334   4.642   3.766   8.957 -0.0004  0.3617 -0.7297
  366MOL0     C49335   4.781   3.756   8.978 -0.3066 -0.1084 -0.7526
  366MOL0     C49336   4.819   3.640   9.064 -0.3590  0.0163 -0.8634
  366MOL0     C49337   4.973   3.621   9.101  0.4146 -0.4719 -0.5625
  366MOL0     C49338   5.068   3.636   8.983 -0.4196  0.0540  0.0273
  366MOL0     C49339   5.196   3.566   9.022  0.5670  0.0051 -0.1737
  366MOL0     C49340   5.304   3.518   9.052 -0.0357  0.0351 -0.7664
  366MOL0     C49341   4.535   3.565   8.892  0.6135  0.5539  0.5090
  366MOL0     C49342   4.487   3.473   8.802  0.6943  0.6957  0.7344
  366MOL0     H49343   4.496   3.179   8.429 -0.7391 -1.3703 -2.8853
  366MOL0     H49344   4.414   3.049   8.251  1.3033 -1.7154  2.0521
  366MOL0     H49345   4.164   3.119   8.109 -1.1880  0.3412 -0.1167
  366MOL0     H49346   4.239   2.975   8.041 -1.3939 -1.9073 -0.8985
  366MOL0     H49347   4.015   2.865   8.035  1.5205  0.2395 -1.2040
  366MOL0     H49348   3.942   3.024   8.060  3.0446  1.7960  6.2318
  366MOL0     H49349   4.050   3.096   7.848 -0.3015  0.1739 -0.3512
  366MOL0     H49350   4.146   2.959   7.841  0.0168  2.9107  1.2873
  366MOL0     H49351   3.951   2.812   7.797 -0.1260  0.1476  1.1019
  366MOL0     H49352   3.835   2.931   7.859  0.2541  0.3700  1.5824
  366MOL0     H49353   3.843   2.879   7.586  1.9037 -0.9984 -1.8780
  366MOL0     H49354   3.881   3.045   7.638  2.4884  0.5636 -0.5968
  366MOL0     H49355   4.011   2.923   7.450  0.4576  0.6746  0.0337
  366MOL0     H49356   4.080   3.028   7.568 -0.7656  1.0921  0.3272
  366MOL0     H49357   4.166   2.801   7.684  0.4146 -3.9106 -0.5463
  366MOL0     H49358   4.061   2.708   7.579 -2.3224  1.6080 -1.0677
  366MOL0     H49359   4.283   2.699   7.512 -1.1401 -0.4760  0.1086
  366MOL0     H49360   4.300   2.874   7.507 -0.4083 -0.3487 -0.6129
  366MOL0     H49361   4.090   2.585   7.335 -1.7862  1.0801 -1.2442
  366MOL0     H49362   4.106   2.598   6.980  0.0769  1.7757  0.7748
  366MOL0     H49363   4.281   2.583   6.980  1.2370 -1.7472  1.5938
  366MOL0     H49364   4.279   2.395   7.144 -1.0185 -2.0979  0.9262
  366MOL0     H49365   4.214   2.339   6.990 -2.4415 -0.2550 -0.4890
  366MOL0     H49366   3.987   2.394   7.073  0.4686 -0.1831 -2.0706
  366MOL0     H49367   4.043   2.414   7.223  0.2631 -4.9977  2.9275
  366MOL0     H49368   4.038   2.167   7.079 -1.3809  1.4689  0.2063
  366MOL0     H49369   3.984   2.186   7.241  1.0335  0.6622  0.9628
  366MOL0     H49370   4.379   2.119   7.378 -1.3292  0.9144  0.7205
  366MOL0     H49371   4.562   1.989   7.469  1.5218 -0.2742 -0.4194
  366MOL0     H49372   4.533   1.813   7.466 -4.9129  0.0578 -0.0000
  366MOL0     H49373   4.640   1.901   7.349  1.9003  0.7272  3.1183
  366MOL0     H49374   4.440   1.526   7.525 -1.2010 -1.3627 -1.5493
  366MOL0     H49375   4.466   1.287   7.602 -2.5276  1.2828 -1.1281
  366MOL0     H49376   4.573   1.010   7.251 -0.8840 -0.2470 -0.1231
  366MOL0     H49377   4.733   0.992   7.337 -0.0483  1.1576 -3.3427
  366MOL0     H49378   4.544   0.855   7.500 -1.6471 -2.3137 -0.0824
  366MOL0     H49379   4.504   0.811   7.331  0.9658  2.5749 -2.7212
  366MOL0     H49380   4.800   0.801   7.420  0.7714  2.4724 -3.3260
  366MOL0     H49381   4.731   0.731   7.277 -0.7590 -3.8989  0.1290
  366MOL0     H49382   4.662   0.644   7.555  4.2575  2.2767  0.9453
  366MOL0     H49383   4.588   0.583   7.415 -0.4955  2.5446 -0.6180
  366MOL0     H49384   4.804   0.476   7.335  0.8604 -3.0103  0.5392
  366MOL0     H49385   4.743   0.432   7.495  0.9195 -0.2136 -0.1788
  366MOL0     H49386   4.943   0.640   7.456  2.1207 -0.2663  0.3487
  366MOL0     H49387   4.885   0.567   7.616 -2.6970 -2.6366  0.7388
  366MOL0     H49388   5.106   0.488   7.491 -1.0314  0.3035  0.0338
  366MOL0     H49389   4.999   0.411   7.375  2.2220  0.7142 -0.4545
  366MOL0     H49390   5.058   0.256   7.551  1.4369  1.2857 -1.0510
  366MOL0     H49391   4.882   0.287   7.579  0.1448 -0.0659 -1.3725
  366MOL0     H49392   4.670   1.204   7.213  3.5610  0.6373  2.1912
  366MOL0     H49393   4.658   1.427   7.161 -0.5500 -3.3397 -0.3642
  366MOL0     H49394   4.214   1.752   7.100  0.6036 -0.3810 -0.5659
  366MOL0     H49395   4.113   1.963   7.076  1.8933 -1.7405 -2.8281
  366MOL0     H49396   4.027   3.041   8.444 -0.4002  0.8938  5.8670
  366MOL0     H49397   4.115   3.168   8.630 -1.6122  0.3204 -1.4271
  366MOL0     H49398   4.556   3.668   8.527 -0.6884 -1.9667 -1.4132
  366MOL0     H49399   4.649   3.808   8.712  2.5570 -0.1317  3.0554
  366MOL0     H49400   4.840   3.751   8.887 -1.0854 -0.0228 -1.2693
  366MOL0     H49401   4.803   3.851   9.028 -3.2983  1.9335 -3.0009
  366MOL0     H49402   4.784   3.546   9.020 -2.8512  0.7893 -0.6891
  366MOL0     H49403   4.777   3.647   9.165  2.4540 -1.1318  0.5001
  366MOL0     H49404   4.986   3.521   9.142  4.4553  0.0774 -0.0479
  366MOL0     H49405   5.001   3.702   9.168  0.9047 -0.2945 -0.9704
  366MOL0     H49406   5.078   3.745   8.971 -2.4128  0.2291 -0.3084
  366MOL0     H49407   5.026   3.597   8.890 -3.6753 -1.9033  2.1343
  366MOL0     H49408   5.402   3.475   9.062 -1.0894 -2.2616  0.3560
  366MOL0     H49409   4.536   3.536   8.996 -0.5735 -0.5061  0.2499
  366MOL0     H49410   4.446   3.379   8.836 -0.2575  1.9483  3.3235
  367MOL0     O49411   3.019  11.021   9.364  0.6113 -0.0182 -0.9667
  367MOL0     C49412   3.085  10.949   9.286  0.5643 -0.5823  0.2572
  367MOL0     O49413   3.176  10.863   9.335  0.4213  0.1242  0.6330
  367MOL0     C49414   3.188  10.826   9.466 -0.2117 -0.9478  0.3228
  367MOL0     C49415   3.315  10.781   9.499 -0.2400 -0.6349  0.2804
  367MOL0     C49416   3.346  10.747   9.629  0.7211 -0.3112  0.9976
  367MOL0     C49417   3.236  10.743   9.725 -0.7320 -1.0025 -0.3342
  367MOL0     O49418   3.260  10.704   9.854 -0.8333 -0.4997  0.4980
  367MOL0     C49419   3.365  10.765   9.931  0.0059 -0.8091  0.4574
  367MOL0     C49420   3.343  10.753  10.093  1.1763  0.3847  0.1205
  367MOL0     C49421   3.294  10.612  10.134 -0.7147 -0.1517  0.0249
  367MOL0     C49422   3.402  10.500  10.129  0.3696  0.4527 -0.2757
  367MOL0     C49423   3.344  10.376  10.198 -0.2721 -0.4291  0.1490
  367MOL0     C49424   3.285  10.283  10.085 -0.5186 -0.4573  0.9011
  367MOL0     C49425   3.262  10.138  10.145 -0.2066  0.8456  0.3041
  367MOL0     C49426   3.251  10.026  10.035 -0.4601  0.8400 -0.1172
  367MOL0     N49427   3.262   9.890  10.095 -0.0570 -1.2310  1.2670
  367MOL0     C49428   3.255   9.845  10.224 -0.1712  0.6192  0.3507
  367MOL0     C49429   3.278   9.709  10.211  0.8205 -0.6458 -0.2770
  367MOL0     C49430   3.285   9.627  10.340  1.1300 -0.9382  0.0299
  367MOL0     C49431   3.429   9.608  10.389 -0.1447 -0.3525 -0.0834
  367MOL0     C49432   3.432   9.535  10.524  0.8923  0.1372 -0.4380
  367MOL0     C49433   3.572   9.490  10.544  0.2139  0.7771  0.4508
  367MOL0     O49434   3.663   9.598  10.539 -0.2608  0.0204  0.4915
  367MOL0     C49435   3.775   9.591  10.618  0.3388  1.0010  1.2050
  367MOL0     C49436   3.777   9.651  10.740  0.5881  0.0569 -0.5646
  367MOL0     C49437   3.892   9.672  10.809 -0.5889  0.6261 -0.5768
  367MOL0     C49438   3.871   9.745  10.936 -0.1335  1.0377 -0.9248
  367MOL0     C49439   4.015   9.612  10.764 -0.2630 -0.7054  0.4113
  367MOL0     C49440   4.147   9.607  10.844  1.2010 -0.7551  0.4670
  367MOL0     O49441   4.251   9.544  10.774 -0.0643 -0.6159  0.4366
  367MOL0     C49442   4.365   9.510  10.844  0.0006 -0.9196  0.0066
  367MOL0     C49443   4.370   9.471  10.982 -0.3648  0.3537 -0.2124
  367MOL0     C49444   4.493   9.421  11.029  0.2134  0.2458 -0.2600
  367MOL0     C49445   4.614   9.425  10.952  0.7199  0.9084 -0.3792
  367MOL0     O49446   4.737   9.392  10.994 -0.0146 -0.2148  0.2907
  367MOL0     C49447   4.780   9.456  11.116 -0.7013  0.0079 -0.3173
  367MOL0     C49448   4.820   9.594  11.090  0.5644 -0.1838  0.5260
  367MOL0     C49449   4.936   9.602  10.993 -0.1563  0.0430  0.3726
  367MOL0     C49450   5.062   9.530  11.040  0.0638  0.1107  0.4136
  367MOL0     C49451   5.192   9.539  10.966 -0.9141  0.0320  0.7454
  367MOL0     C49452   5.218   9.462  10.831 -0.0490 -0.4011 -0.7532
  367MOL0     C49453   5.366   9.480  10.788  0.1976 -0.3223 -0.7276
  367MOL0     C49454   5.376   9.492  10.633 -0.6250 -1.0097  0.4976
  367MOL0    Cl49455   5.544   9.543  10.588 -0.0277  0.8247  0.0158
  367MOL0     C49456   4.609   9.463  10.825  0.3755  0.0424  0.1754
  367MOL0     C49457   4.488   9.513  10.773  1.2449  0.7753  0.0367
  367MOL0     O49458   4.162   9.678  10.937  0.0923 -0.0667 -0.0717
  367MOL0     C49459   4.014   9.551  10.639 -0.4414 -0.4965 -0.2226
  367MOL0     C49460   3.897   9.548  10.559  0.3705  0.9951  0.4555
  367MOL0     N49461   3.300   9.673  10.082 -0.5193 -0.5706 -0.3152
  367MOL0     N49462   3.286   9.780  10.011 -1.7096 -0.0265  0.0003
  367MOL0     C49463   3.109  10.794   9.697 -0.0771  0.0047  0.2158
  367MOL0     C49464   3.088  10.833   9.569 -0.8153 -0.0933  0.7949
  367MOL0     C49465   3.067  10.967   9.133 -0.1640 -0.0232 -0.0534
  367MOL0     C49466   2.972  11.051   9.077  0.3409  0.4647  0.7920
  367MOL0     C49467   2.954  11.068   8.942 -0.6627 -0.3589 -0.2324
  367MOL0     C49468   3.027  10.983   8.857  0.0127  0.7052 -0.2038
  367MOL0     O49469   3.010  10.965   8.719 -0.3803  0.0714 -0.3232
  367MOL0     C49470   3.069  11.054   8.626 -0.3288 -0.7602 -1.1333
  367MOL0     C49471   3.124  11.193   8.672 -0.1861 -0.3413  0.1095
  367MOL0     C49472   3.189  11.263   8.556  0.1908  0.9617  0.1913
  367MOL0     C49473   3.278  11.370   8.618 -0.0721 -0.3721 -0.2022
  367MOL0     C49474   3.347  11.448   8.523 -0.9783 -0.0853 -0.0398
  367MOL0     C49475   3.404  11.536   8.458  0.3720  0.1153 -0.8106
  367MOL0     C49476   3.115  10.895   8.912  0.5591 -0.7889 -0.1441
  367MOL0     C49477   3.141  10.892   9.049 -0.0233  0.5552 -0.2769
  367MOL0     H49478   3.390  10.772   9.422 -1.3192 -3.3298 -0.5651
  367MOL0     H49479   3.445  10.726   9.669  0.1965  0.7876  3.0001
  367MOL0     H49480   3.468  10.740   9.903 -0.3783 -0.5762 -1.2850
  367MOL0     H49481   3.357  10.870   9.900  0.4684 -1.1267 -0.7790
  367MOL0     H49482   3.438  10.776  10.141  1.9594 -1.5985 -0.4009
  367MOL0     H49483   3.262  10.825  10.110  1.0904  0.4025 -0.3545
  367MOL0     H49484   3.270  10.621  10.240  0.2750  2.8572  0.0892
  367MOL0     H49485   3.202  10.584  10.081 -1.5294  1.5472  0.4726
  367MOL0     H49486   3.436  10.470  10.030 -3.0126 -1.0724 -1.0929
  367MOL0     H49487   3.490  10.523  10.191 -0.5996  1.5015  0.7472
  367MOL0     H49488   3.415  10.316  10.257 -1.7973 -1.4281  1.0420
  367MOL0     H49489   3.265  10.391  10.272 -1.3185  0.7617 -1.1690
  367MOL0     H49490   3.196  10.328  10.041  0.2196 -0.1974 -0.3744
  367MOL0     H49491   3.353  10.266  10.001 -1.7645  0.1301 -0.2629
  367MOL0     H49492   3.352  10.108  10.199 -0.6115  0.0919  0.5690
  367MOL0     H49493   3.174  10.148  10.210  0.7845  2.9985  1.4360
  367MOL0     H49494   3.324  10.044   9.955  0.1308 -1.3273 -0.1253
  367MOL0     H49495   3.155  10.025   9.981 -0.8224 -0.6232  0.5173
  367MOL0     H49496   3.239   9.898  10.317  0.2595 -0.4780  1.0655
  367MOL0     H49497   3.221   9.679  10.412 -0.1992 -3.0506  0.4581
  367MOL0     H49498   3.238   9.530  10.319  0.0248 -0.7141  1.3194
  367MOL0     H49499   3.478   9.705  10.406  0.9926 -1.3608  3.0993
  367MOL0     H49500   3.490   9.553  10.317  1.1959 -1.3150  1.7015
  367MOL0     H49501   3.374   9.442  10.529  1.6466 -0.3006  0.2362
  367MOL0     H49502   3.390   9.599  10.602 -0.2655 -0.8596 -0.2107
  367MOL0     H49503   3.605   9.424  10.463 -1.7779 -1.0747  1.0590
  367MOL0     H49504   3.569   9.439  10.640 -1.5023 -1.7891 -0.8587
  367MOL0     H49505   3.682   9.684  10.782  1.1035  1.1256 -0.1884
  367MOL0     H49506   3.948   9.822  10.939  1.0560 -0.0214 -2.7841
  367MOL0     H49507   3.771   9.790  10.934 -2.2411 -3.0905  0.2436
  367MOL0     H49508   3.878   9.680  11.023 -1.0937 -1.6172 -2.6937
  367MOL0     H49509   4.285   9.469  11.050 -0.3741 -0.5545 -0.2398
  367MOL0     H49510   4.494   9.398  11.135  3.4384 -0.1903 -0.2947
  367MOL0     H49511   4.700   9.463  11.190 -1.4139  2.5617 -1.2335
  367MOL0     H49512   4.872   9.404  11.144  0.7302  0.9250 -2.9394
  367MOL0     H49513   4.742   9.662  11.056  1.1152  0.0626 -0.2744
  367MOL0     H49514   4.845   9.639  11.187  0.5938  2.4725 -0.6268
  367MOL0     H49515   4.959   9.707  10.974  1.0643 -0.3025 -0.1642
  367MOL0     H49516   4.907   9.553  10.900  2.9494  1.9242 -1.7852
  367MOL0     H49517   5.069   9.572  11.141 -0.7339 -0.9158  0.9221
  367MOL0     H49518   5.037   9.424  11.047 -2.7520  0.5874 -1.0820
  367MOL0     H49519   5.270   9.501  11.032 -0.0082  0.0290 -0.2910
  367MOL0     H49520   5.209   9.644  10.940  0.6699 -0.5493 -0.7969
  367MOL0     H49521   5.201   9.355  10.845  0.9781 -0.8980 -2.9279
  367MOL0     H49522   5.135   9.487  10.764 -1.4991 -2.1758  0.2737
  367MOL0     H49523   5.412   9.390  10.830 -2.5032  0.3101  4.3049
  367MOL0     H49524   5.410   9.565  10.842  0.4983  0.0916 -1.5978
  367MOL0     H49525   5.310   9.570  10.595  0.3381  0.4047  1.5934
  367MOL0     H49526   5.360   9.398  10.581 -0.7853 -0.3820 -0.6228
  367MOL0     H49527   4.700   9.469  10.766  0.0952  1.7104 -0.1402
  367MOL0     H49528   4.490   9.535  10.667  3.1013 -0.7206 -0.2804
  367MOL0     H49529   4.111   9.518  10.602  0.0856 -1.2243  1.6751
  367MOL0     H49530   3.888   9.516  10.456 -0.4387  0.3218  0.7248
  367MOL0     H49531   3.032  10.782   9.772 -0.9841 -0.8999 -0.8165
  367MOL0     H49532   2.990  10.870   9.542  0.6755  1.8192 -2.6021
  367MOL0     H49533   2.904  11.108   9.139 -3.8610 -2.9932 -0.0800
  367MOL0     H49534   2.870  11.124   8.903 -1.3339 -0.2628  1.2912
  367MOL0     H49535   3.160  11.001   8.596  2.1282  2.3611  0.2037
  367MOL0     H49536   2.993  11.054   8.547 -2.0667  0.5310  0.4573
  367MOL0     H49537   3.191  11.173   8.755  1.2852 -3.2545 -1.6327
  367MOL0     H49538   3.034  11.250   8.699  0.4502  0.8625 -0.2310
  367MOL0     H49539   3.123  11.309   8.481 -1.9804 -1.1062  0.7112
  367MOL0     H49540   3.258  11.192   8.511  2.3697  2.0045  1.7180
  367MOL0     H49541   3.348  11.335   8.694  0.0198  4.0907  2.1177
  367MOL0     H49542   3.213  11.442   8.668 -0.2782  1.6850 -3.1611
  367MOL0     H49543   3.416  11.616   8.387  0.1650 -0.7703 -1.8727
  367MOL0     H49544   3.164  10.826   8.844 -0.1752 -1.3135 -0.1514
  367MOL0     H49545   3.227  10.833   9.082 -0.7309 -1.3071 -1.5838
  368MOL0     O49546   4.346   7.847   7.991  0.8575 -0.1780 -0.6686
  368MOL0     C49547   4.350   7.740   7.932 -0.1478  0.2967 -0.1911
  368MOL0     O49548   4.246   7.644   7.918 -0.1281  0.6502  0.5048
  368MOL0     C49549   4.112   7.678   7.942 -0.4462 -0.9634 -0.5918
  368MOL0     C49550   4.020   7.572   7.974  0.4468 -0.3717 -0.3062
  368MOL0     C49551   3.883   7.599   7.989  0.1894  1.2073  0.6711
  368MOL0     C49552   3.829   7.725   7.974 -0.3354  0.1596 -0.8105
  368MOL0     O49553   3.702   7.773   7.998 -0.5071 -0.2322  0.5748
  368MOL0     C49554   3.593   7.697   8.074 -0.0600 -0.1225  0.7206
  368MOL0     C49555   3.464   7.779   8.055  0.2540 -0.8773 -0.7388
  368MOL0     C49556   3.476   7.921   8.113  0.1223  0.0277 -0.0186
  368MOL0     C49557   3.381   8.010   8.047  0.2654 -0.1758  0.3068
  368MOL0     C49558   3.234   7.985   8.092  0.2017  0.5586  0.2547
  368MOL0     C49559   3.138   8.058   8.003  0.6063  0.4053 -0.1172
  368MOL0     C49560   2.985   8.057   8.058  0.2172 -0.3890 -0.1749
  368MOL0     C49561   2.876   8.108   7.969  1.0875 -0.2199  0.4325
  368MOL0     N49562   2.919   8.230   7.900 -0.3797 -0.5741  0.6431
  368MOL0     C49563   2.916   8.351   7.971 -0.4472 -0.1578 -0.0125
  368MOL0     C49564   3.006   8.425   7.899 -0.9899 -0.6745  0.0312
  368MOL0     C49565   3.057   8.567   7.905 -0.0836  0.6100 -0.2425
  368MOL0     C49566   3.159   8.582   8.020 -0.4540 -0.9306  0.5881
  368MOL0     C49567   3.288   8.493   8.015 -0.6258  0.1522 -1.0624
  368MOL0     C49568   3.385   8.521   8.139 -0.5829  0.1044  0.3497
  368MOL0     O49569   3.486   8.421   8.150  0.3649 -0.1679 -0.1058
  368MOL0     C49570   3.604   8.412   8.086  0.1153  0.5082 -0.8701
  368MOL0     C49571   3.681   8.303   8.134 -0.1866 -0.2679  0.6142
  368MOL0     C49572   3.806   8.273   8.076  0.4343  0.3967 -0.0556
  368MOL0     C49573   3.890   8.160   8.130  0.5268 -0.3811 -0.3382
  368MOL0     C49574   3.853   8.355   7.973 -0.1191  0.0980  0.1851
  368MOL0     C49575   3.990   8.339   7.919 -0.1787  0.0837 -0.4285
  368MOL0     O49576   4.077   8.433   7.876 -0.2270  0.1771  0.4145
  368MOL0     C49577   4.059   8.567   7.912 -0.2010 -0.7944 -0.0522
  368MOL0     C49578   4.089   8.664   7.815 -0.5318  0.8209  0.5458
  368MOL0     C49579   4.089   8.800   7.842 -0.3611  0.0648  1.1558
  368MOL0     C49580   4.065   8.851   7.968  0.6517  0.3338  1.1823
  368MOL0     O49581   4.076   8.983   7.996 -0.5957  0.2764  0.9425
  368MOL0     C49582   4.160   9.016   8.111  0.8276 -1.0157  0.5244
  368MOL0     C49583   4.153   9.165   8.110 -1.3551 -0.0302  0.4562
  368MOL0     C49584   4.212   9.217   8.246  0.4131 -0.1130 -0.4467
  368MOL0     C49585   4.250   9.363   8.237 -0.4824  0.4640 -0.0684
  368MOL0     C49586   4.263   9.423   8.379 -0.0296  0.2853  0.4616
  368MOL0     C49587   4.412   9.407   8.432 -0.0592 -0.1732 -0.1220
  368MOL0     C49588   4.521   9.496   8.374  0.1138  0.6978  0.2941
  368MOL0     C49589   4.659   9.461   8.429 -0.1385 -0.3842 -0.3073
  368MOL0    Cl49590   4.773   9.597   8.426  0.2526 -0.1373 -0.2377
  368MOL0     C49591   4.055   8.753   8.070  0.4550 -0.2414 -0.1328
  368MOL0     C49592   4.041   8.618   8.040 -0.5440  0.7530  0.7463
  368MOL0     O49593   4.003   8.216   7.894  0.1015  0.1402  0.9981
  368MOL0     C49594   3.768   8.461   7.924 -0.8256  0.8685  0.1831
  368MOL0     C49595   3.644   8.484   7.973 -0.6919 -0.5329  0.6403
  368MOL0     N49596   3.054   8.343   7.794 -0.2673  0.3274  0.6271
  368MOL0     N49597   3.005   8.223   7.798  0.0255 -0.6460  0.3033
  368MOL0     C49598   3.913   7.825   7.948  0.6732  0.2088  1.4265
  368MOL0     C49599   4.050   7.805   7.927 -0.0694  0.5891  0.4029
  368MOL0     C49600   4.479   7.692   7.869  0.5306 -1.1684  0.8816
  368MOL0     C49601   4.558   7.793   7.825 -0.8459 -1.0276  0.5789
  368MOL0     C49602   4.683   7.769   7.770  0.5797 -0.8098  1.1073
  368MOL0     C49603   4.728   7.643   7.751  0.2236 -0.7694  0.1665
  368MOL0     O49604   4.837   7.619   7.676 -0.3004  0.3230 -0.1885
  368MOL0     C49605   4.944   7.541   7.739  0.2837 -0.3800 -0.2792
  368MOL0     C49606   5.075   7.605   7.725 -0.1645 -0.3772 -0.3762
  368MOL0     C49607   5.194   7.518   7.736 -0.9057 -0.5768 -0.0972
  368MOL0     C49608   5.336   7.572   7.694  0.2370 -0.5921  0.0805
  368MOL0     C49609   5.447   7.478   7.723  0.4151 -0.3571  0.0528
  368MOL0     C49610   5.532   7.393   7.747  0.0655  0.4350 -0.8338
  368MOL0     C49611   4.648   7.541   7.797 -0.1460  0.3725 -0.7742
  368MOL0     C49612   4.525   7.563   7.852  0.3240 -0.1052  1.0626
  368MOL0     H49613   4.049   7.467   7.971  0.6100 -0.3788  1.0644
  368MOL0     H49614   3.827   7.509   8.014  2.8622 -0.5958  0.6393
  368MOL0     H49615   3.571   7.599   8.031 -2.8095 -0.1300  1.9806
  368MOL0     H49616   3.619   7.674   8.177 -0.8185 -5.3679  0.0122
  368MOL0     H49617   3.448   7.787   7.947  2.7859 -1.0763 -1.1865
  368MOL0     H49618   3.388   7.727   8.114 -1.8348  3.3382  0.7537
  368MOL0     H49619   3.462   7.928   8.222  0.1106 -0.1377 -0.0088
  368MOL0     H49620   3.579   7.948   8.090  1.2790 -2.5640  1.5804
  368MOL0     H49621   3.408   8.115   8.061 -0.2713 -0.2270  1.9983
  368MOL0     H49622   3.378   7.989   7.940 -1.7710 -2.2916  0.7007
  368MOL0     H49623   3.212   7.877   8.096 -0.4252  0.4912 -2.6601
  368MOL0     H49624   3.220   8.023   8.193 -1.3481 -1.7757  1.0209
  368MOL0     H49625   3.188   8.155   8.010  0.6080  0.2707  3.2533
  368MOL0     H49626   3.146   8.025   7.899  0.5247 -1.9122  0.5523
  368MOL0     H49627   2.964   7.951   8.074  2.8612 -1.0449 -0.5198
  368MOL0     H49628   2.977   8.109   8.153 -1.0565  0.9493 -0.9669
  368MOL0     H49629   2.784   8.119   8.027  1.0033 -2.3034  0.7725
  368MOL0     H49630   2.862   8.027   7.896 -0.9017  1.3803 -1.0718
  368MOL0     H49631   2.858   8.387   8.055 -2.0390  0.3803 -1.3032
  368MOL0     H49632   3.108   8.581   7.809 -0.4644 -2.6365 -1.0153
  368MOL0     H49633   2.982   8.645   7.918  1.2662  1.5543  2.9907
  368MOL0     H49634   3.099   8.549   8.106 -0.1472  1.4936  1.8266
  368MOL0     H49635   3.184   8.689   8.013  1.3976 -1.1378  2.8817
  368MOL0     H49636   3.336   8.516   7.919  0.5609  2.9390  0.0783
  368MOL0     H49637   3.255   8.389   8.019 -1.9974  0.6007  0.1374
  368MOL0     H49638   3.324   8.515   8.229 -3.8962  0.6509 -1.7011
  368MOL0     H49639   3.429   8.620   8.133  0.8594 -0.4551  1.2277
  368MOL0     H49640   3.659   8.231   8.212 -0.1909  1.5942  2.3831
  368MOL0     H49641   3.885   8.070   8.069 -1.1920 -1.5730  1.4416
  368MOL0     H49642   3.993   8.193   8.148 -0.1622  2.2867 -0.7425
  368MOL0     H49643   3.854   8.119   8.225 -1.0737  0.0850 -0.7097
  368MOL0     H49644   4.114   8.628   7.715  0.7005 -3.0490  2.0391
  368MOL0     H49645   4.124   8.865   7.763  1.2052 -0.5251  1.3306
  368MOL0     H49646   4.108   8.986   8.202 -0.8264  2.1016  0.7285
  368MOL0     H49647   4.265   8.986   8.098  0.8402 -1.0132  0.6243
  368MOL0     H49648   4.195   9.198   8.014  1.0083 -3.8284 -0.0129
  368MOL0     H49649   4.046   9.187   8.104 -1.5088 -0.6384  0.9236
  368MOL0     H49650   4.301   9.159   8.268  3.4589  3.4342 -2.3315
  368MOL0     H49651   4.138   9.208   8.327  0.7552  1.6925  0.1119
  368MOL0     H49652   4.343   9.371   8.179 -1.5449 -1.4234 -2.2207
  368MOL0     H49653   4.162   9.407   8.189 -3.0246 -0.2585  3.5307
  368MOL0     H49654   4.199   9.377   8.455  0.0548  0.5124  0.6730
  368MOL0     H49655   4.233   9.529   8.377  0.4790  0.4437  0.9066
  368MOL0     H49656   4.406   9.437   8.537 -0.8800  2.4523 -0.8434
  368MOL0     H49657   4.448   9.305   8.416  0.4460  0.1644 -1.2068
  368MOL0     H49658   4.505   9.602   8.392 -2.3127  1.0710 -2.9228
  368MOL0     H49659   4.526   9.479   8.266 -1.1151  3.1044 -0.2119
  368MOL0     H49660   4.697   9.374   8.373 -0.7507 -2.1466  1.8701
  368MOL0     H49661   4.652   9.430   8.533  0.3488  2.6049  0.7065
  368MOL0     H49662   4.061   8.768   8.178  1.1041 -2.5896  0.2060
  368MOL0     H49663   4.031   8.534   8.109  1.3177 -0.9333 -0.9261
  368MOL0     H49664   3.803   8.514   7.836  0.2489  0.8433  0.5885
  368MOL0     H49665   3.577   8.559   7.932 -2.3669 -1.1101  2.2167
  368MOL0     H49666   3.883   7.929   7.954 -1.5842 -0.4536  3.3938
  368MOL0     H49667   4.112   7.894   7.919  1.5910 -0.5061  0.6880
  368MOL0     H49668   4.524   7.894   7.841 -0.8026 -0.9509  0.2103
  368MOL0     H49669   4.738   7.857   7.737  1.1391 -1.6047 -0.1792
  368MOL0     H49670   4.919   7.525   7.844 -2.7795  3.3296 -0.2362
  368MOL0     H49671   4.955   7.439   7.700 -0.6223 -0.2026 -1.0389
  368MOL0     H49672   5.100   7.681   7.800  1.4917  0.6868 -1.9084
  368MOL0     H49673   5.077   7.655   7.628 -2.3960  3.4892  1.3037
  368MOL0     H49674   5.178   7.422   7.687 -1.3370 -0.7698  0.4122
  368MOL0     H49675   5.208   7.482   7.839 -0.3278 -2.0920 -0.6825
  368MOL0     H49676   5.343   7.669   7.743 -2.1050 -0.7977  0.9791
  368MOL0     H49677   5.342   7.596   7.588 -0.5829  3.1605  0.7662
  368MOL0     H49678   5.595   7.309   7.768 -2.6432 -2.3246 -2.7443
  368MOL0     H49679   4.672   7.436   7.782 -2.1564 -0.0777 -1.0748
  368MOL0     H49680   4.456   7.487   7.885 -0.1074  0.5456  1.7171
  369MOL0     O49681   3.448   9.019   0.865  0.0537  0.1046  0.8724
  369MOL0     C49682   3.403   8.906   0.904  0.5249 -0.2216 -0.4644
  369MOL0     O49683   3.462   8.797   0.909 -0.1888 -0.7633 -0.2656
  369MOL0     C49684   3.592   8.796   0.862  0.3604 -1.1881 -0.0287
  369MOL0     C49685   3.632   8.683   0.775 -0.4176  0.0231  0.3297
  369MOL0     C49686   3.764   8.652   0.753  0.2404  0.3755 -0.5100
  369MOL0     C49687   3.863   8.731   0.811 -0.7800 -0.1566  0.3743
  369MOL0     O49688   4.001   8.721   0.800  1.0273  0.1241 -0.6690
  369MOL0     C49689   4.054   8.636   0.694 -0.3138  0.4149 -0.6044
  369MOL0     C49690   4.082   8.721   0.575  0.7541  0.5800 -0.8716
  369MOL0     C49691   3.951   8.767   0.496  0.4879 -0.0607 -0.0893
  369MOL0     C49692   3.898   8.906   0.529  0.2798  0.2184 -0.4148
  369MOL0     C49693   3.759   8.937   0.465 -0.4254  0.4869 -0.2013
  369MOL0     C49694   3.699   9.073   0.516 -0.3818  0.5009 -0.5563
  369MOL0     C49695   3.563   9.095   0.447 -0.3362 -0.3244 -0.3605
  369MOL0     C49696   3.488   9.210   0.527 -0.6900  0.2757  0.5517
  369MOL0     N49697   3.356   9.205   0.475 -0.5353 -0.6076  0.2025
  369MOL0     C49698   3.313   9.284   0.374  0.4556  0.6857 -0.8434
  369MOL0     C49699   3.178   9.278   0.373 -0.4416 -0.1461 -0.2228
  369MOL0     C49700   3.083   9.348   0.287  0.1850  0.2361  0.3216
  369MOL0     C49701   3.143   9.411   0.167  0.0401  0.1743  0.0498
  369MOL0     C49702   3.212   9.332   0.054  0.3085  0.4354 -0.1369
  369MOL0     C49703   3.150   9.372  -0.081 -0.0536 -0.2625  0.0462
  369MOL0     O49704   3.196   9.278  -0.190 -0.2039 -0.1177 -0.1989
  369MOL0     C49705   3.262   9.346  -0.291 -0.5656  0.3234 -0.4087
  369MOL0     C49706   3.402   9.329  -0.287 -0.1078 -0.8104  0.6191
  369MOL0     C49707   3.494   9.386  -0.382  0.9117  1.1076  0.2228
  369MOL0     C49708   3.640   9.354  -0.369 -0.4465  0.4922  0.4171
  369MOL0     C49709   3.433   9.464  -0.486 -0.2164  1.1023  0.3817
  369MOL0     C49710   3.501   9.527  -0.599 -0.5330 -0.5565  0.1187
  369MOL0     O49711   3.466   9.644  -0.631 -0.3834 -0.2760  0.4219
  369MOL0     C49712   3.434   9.747  -0.543  0.0527  0.0402 -0.3584
  369MOL0     C49713   3.355   9.853  -0.584 -0.8567  1.2458 -0.8340
  369MOL0     C49714   3.339   9.964  -0.497  0.1137 -1.2271  0.2088
  369MOL0     C49715   3.407   9.978  -0.372  0.0000 -0.4839 -0.0958
  369MOL0     O49716   3.384  10.076  -0.284 -0.7938 -0.0098 -0.1800
  369MOL0     C49717   3.336  10.201  -0.334  0.5171 -0.3404  0.4942
  369MOL0     C49718   3.372  10.311  -0.240 -0.4764 -1.0347 -0.6667
  369MOL0     C49719   3.290  10.438  -0.266  0.6050  0.4491  0.0037
  369MOL0     C49720   3.317  10.548  -0.161 -0.2503 -0.8810 -0.1987
  369MOL0     C49721   3.226  10.526  -0.038 -0.1789 -1.4110  0.0545
  369MOL0     C49722   3.285  10.600   0.089 -0.3412  0.4540 -0.0148
  369MOL0     C49723   3.209  10.562   0.210  0.2013  0.6087 -0.7118
  369MOL0     C49724   3.245  10.657   0.327  0.1317  0.3030  0.5985
  369MOL0    Cl49725   3.416  10.634   0.395  0.4193 -0.5027 -0.2218
  369MOL0     C49726   3.496   9.878  -0.335  0.2986  0.6487  0.3653
  369MOL0     C49727   3.500   9.763  -0.414 -0.9323 -0.2234 -0.2699
  369MOL0     O49728   3.584   9.466  -0.654  0.9710  0.3875  0.8486
  369MOL0     C49729   3.290   9.476  -0.488 -0.8946  0.7683  0.5407
  369MOL0     C49730   3.209   9.407  -0.393  0.5464 -0.1440  1.0860
  369MOL0     N49731   3.148   9.182   0.461  1.1092 -0.1820  0.7502
  369MOL0     N49732   3.246   9.143   0.531  0.5538 -0.5742 -0.2213
  369MOL0     C49733   3.824   8.842   0.883 -0.3838  0.1314  0.1766
  369MOL0     C49734   3.698   8.873   0.920 -0.2083 -0.1090  0.3119
  369MOL0     C49735   3.264   8.913   0.960 -0.5699 -0.1544 -1.1147
  369MOL0     C49736   3.220   8.822   1.062 -0.1848  0.3591 -0.0982
  369MOL0     C49737   3.096   8.844   1.120  0.2375  0.6120 -0.2629
  369MOL0     C49738   3.004   8.941   1.069  0.2961 -0.6271  0.2664
  369MOL0     O49739   2.878   8.945   1.129 -0.6927  0.4722 -0.2900
  369MOL0     C49740   2.804   8.827   1.161 -0.4357 -0.4102  0.4634
  369MOL0     C49741   2.654   8.842   1.175 -0.1747  0.0931  0.8415
  369MOL0     C49742   2.635   8.939   1.285  1.0048  0.0037 -0.4135
  369MOL0     C49743   2.497   8.944   1.346  1.0065 -0.6977 -0.0245
  369MOL0     C49744   2.450   8.827   1.416  0.7568  0.5652  1.0813
  369MOL0     C49745   2.419   8.732   1.482  0.2969 -0.2733  1.5287
  369MOL0     C49746   3.043   9.025   0.965 -0.6133 -0.6609 -0.2063
  369MOL0     C49747   3.173   9.016   0.920  0.3363 -0.3634 -0.1266
  369MOL0     H49748   3.559   8.620   0.726 -1.6201  0.4615  1.4980
  369MOL0     H49749   3.786   8.573   0.682  1.1300  0.5924 -0.4795
  369MOL0     H49750   4.149   8.593   0.726  2.9122  4.5803 -3.4838
  369MOL0     H49751   3.986   8.553   0.675 -0.0038 -0.3546  1.4674
  369MOL0     H49752   4.142   8.806   0.609  2.1458 -0.6839 -0.0721
  369MOL0     H49753   4.146   8.669   0.503  1.9460 -1.2909  1.4255
  369MOL0     H49754   3.957   8.767   0.386 -0.5338  0.2281 -0.1523
  369MOL0     H49755   3.877   8.693   0.527 -0.1936 -0.1456 -1.8236
  369MOL0     H49756   3.889   8.913   0.638 -2.1528 -5.1595  0.0126
  369MOL0     H49757   3.963   8.987   0.493  1.5255  0.1351  1.4978
  369MOL0     H49758   3.768   8.939   0.356  2.4946  0.3700 -0.0265
  369MOL0     H49759   3.689   8.859   0.494  1.2338  0.0904  3.1513
  369MOL0     H49760   3.682   9.074   0.624 -0.0987 -0.5386 -0.4877
  369MOL0     H49761   3.768   9.146   0.475  1.2500  0.1777  1.4626
  369MOL0     H49762   3.566   9.129   0.343  2.2429 -0.3827 -0.3579
  369MOL0     H49763   3.503   9.004   0.460  4.1248 -3.5339  0.1092
  369MOL0     H49764   3.534   9.307   0.504 -1.9538  0.2504 -2.4970
  369MOL0     H49765   3.487   9.203   0.636  0.4957  5.0231  1.1137
  369MOL0     H49766   3.366   9.344   0.301 -0.6321  0.7365 -1.6170
  369MOL0     H49767   3.020   9.267   0.250  1.2743 -1.5735  2.2101
  369MOL0     H49768   3.024   9.417   0.348  0.2768  2.5200 -1.9700
  369MOL0     H49769   3.215   9.484   0.205  0.8431 -1.9264  2.8965
  369MOL0     H49770   3.063   9.470   0.122  0.2774  1.2924  1.0285
  369MOL0     H49771   3.185   9.227   0.064 -0.9786  0.6144 -1.3398
  369MOL0     H49772   3.321   9.333   0.061  0.2547  0.9696  0.8259
  369MOL0     H49773   3.183   9.476  -0.091 -2.5346  0.5530 -0.3765
  369MOL0     H49774   3.041   9.369  -0.077 -0.2431  2.1389 -1.3129
  369MOL0     H49775   3.450   9.270  -0.210  1.4753  0.5196  0.7138
  369MOL0     H49776   3.689   9.451  -0.358 -0.3022  0.7948 -2.2584
  369MOL0     H49777   3.645   9.301  -0.273 -3.1567  3.0134  2.1288
  369MOL0     H49778   3.683   9.298  -0.453 -0.3125  0.0783  0.7584
  369MOL0     H49779   3.312   9.848  -0.683  0.9421 -1.4656 -1.5893
  369MOL0     H49780   3.266  10.035  -0.534 -0.8457 -2.8732 -1.1955
  369MOL0     H49781   3.379  10.211  -0.434  0.5992 -0.5222  0.5089
  369MOL0     H49782   3.228  10.199  -0.355  0.7428  1.6110 -1.1249
  369MOL0     H49783   3.361  10.280  -0.136  0.3802 -0.5149 -0.4097
  369MOL0     H49784   3.478  10.329  -0.258 -0.7071  0.6211 -0.5583
  369MOL0     H49785   3.185  10.407  -0.270  0.6755  0.2547 -3.4317
  369MOL0     H49786   3.315  10.479  -0.365 -2.1964  1.5531 -0.3388
  369MOL0     H49787   3.423  10.550  -0.135 -0.4075  0.4316  0.4398
  369MOL0     H49788   3.287  10.646  -0.201 -2.4381 -1.6433 -0.5686
  369MOL0     H49789   3.227  10.420  -0.009  5.1938 -1.8212 -0.7549
  369MOL0     H49790   3.125  10.563  -0.057 -0.4993 -1.1676  1.9840
  369MOL0     H49791   3.391  10.577   0.106 -0.6331 -0.3965  0.7419
  369MOL0     H49792   3.274  10.708   0.082 -2.1690  0.8631  4.9363
  369MOL0     H49793   3.252  10.466   0.241 -2.1367  0.2040  1.6554
  369MOL0     H49794   3.105  10.541   0.185  1.1771 -1.7804 -3.3095
  369MOL0     H49795   3.166  10.637   0.400 -0.2257  0.7377  0.3350
  369MOL0     H49796   3.233  10.760   0.295  1.8450 -0.6420 -3.7501
  369MOL0     H49797   3.560   9.883  -0.248  0.4222  0.6363  0.2744
  369MOL0     H49798   3.570   9.682  -0.396 -1.9054 -0.8617  0.7941
  369MOL0     H49799   3.235   9.529  -0.565 -0.0802  1.3540  0.3542
  369MOL0     H49800   3.101   9.417  -0.401  0.6375 -0.0773 -0.3533
  369MOL0     H49801   3.902   8.892   0.939  0.2477  0.3294 -0.8421
  369MOL0     H49802   3.683   8.962   0.980 -2.7798 -1.4105  1.7618
  369MOL0     H49803   3.281   8.740   1.099 -1.3023  0.2642  1.6087
  369MOL0     H49804   3.065   8.782   1.203  1.7219 -1.6549 -1.2970
  369MOL0     H49805   2.818   8.767   1.070 -1.5016 -0.6532  0.4474
  369MOL0     H49806   2.851   8.786   1.251 -0.3709 -6.0723 -1.7253
  369MOL0     H49807   2.611   8.743   1.192  1.5848 -1.2179 -1.7068
  369MOL0     H49808   2.634   8.891   1.079  2.2776  0.6216  0.5282
  369MOL0     H49809   2.659   9.041   1.253  1.2282  0.5325  1.3142
  369MOL0     H49810   2.706   8.913   1.365  0.8890  0.0217 -0.3043
  369MOL0     H49811   2.418   8.966   1.272 -1.2428 -0.7969  2.2073
  369MOL0     H49812   2.485   9.020   1.424 -3.1109 -2.1929  1.0628
  369MOL0     H49813   2.380   8.658   1.550  0.0557 -2.0913 -0.4930
  369MOL0     H49814   2.985   9.108   0.926  3.4445  1.4516 -2.3870
  369MOL0     H49815   3.208   9.091   0.849  1.9960 -0.3928  0.6090
  370MOL0     O49816   4.211   2.738   9.813 -0.1544  0.6313 -0.0927
  370MOL0     C49817   4.236   2.849   9.856  0.8100 -0.0220  0.5912
  370MOL0     O49818   4.368   2.887   9.877  0.7993 -1.0948  0.0684
  370MOL0     C49819   4.472   2.859   9.787 -0.6453  0.0538 -0.7562
  370MOL0     C49820   4.463   2.790   9.664 -0.2889 -0.1897  0.7482
  370MOL0     C49821   4.579   2.759   9.588 -0.1661  1.0279 -0.1899
  370MOL0     C49822   4.704   2.791   9.635 -0.5532 -0.7191 -0.3789
  370MOL0     O49823   4.828   2.768   9.567  1.0812 -0.5938  0.0020
  370MOL0     C49824   4.824   2.678   9.446  0.9241 -0.0821 -1.2031
  370MOL0     C49825   4.805   2.536   9.483 -0.4278 -0.4793 -0.3726
  370MOL0     C49826   4.943   2.472   9.538  0.1471 -0.1080 -0.3853
  370MOL0     C49827   4.938   2.413   9.684 -0.3855 -0.7242  0.4465
  370MOL0     C49828   5.076   2.369   9.744 -0.6782 -0.3937  0.5607
  370MOL0     C49829   5.156   2.266   9.669  0.4614 -0.1995 -0.3069
  370MOL0     C49830   5.089   2.130   9.635  0.1816 -0.8536 -0.3084
  370MOL0     C49831   5.092   2.035   9.749 -0.0224 -0.0884 -0.2613
  370MOL0     N49832   5.043   1.899   9.719  0.4554 -0.0819 -0.4687
  370MOL0     C49833   4.908   1.866   9.708 -0.4240  0.4853  0.2465
  370MOL0     C49834   4.898   1.737   9.715 -0.7538 -1.0992  0.1848
  370MOL0     C49835   4.776   1.659   9.692 -0.8338  0.1068 -0.1029
  370MOL0     C49836   4.714   1.607   9.830  0.9911  1.0985 -0.8973
  370MOL0     C49837   4.613   1.502   9.785  0.2575 -0.4850  0.0230
  370MOL0     C49838   4.478   1.556   9.729  0.3788  0.1993  0.2636
  370MOL0     O49839   4.501   1.597   9.592 -0.1882 -0.2265 -0.1425
  370MOL0     C49840   4.475   1.510   9.495 -0.1938 -1.3899  0.1879
  370MOL0     C49841   4.365   1.424   9.500  0.1007  0.3813 -0.8222
  370MOL0     C49842   4.319   1.359   9.390  0.8555  0.3513  0.8177
  370MOL0     C49843   4.184   1.299   9.420 -0.0803  0.4718  0.5085
  370MOL0     C49844   4.391   1.356   9.264 -0.6871 -0.0527 -0.0543
  370MOL0     C49845   4.341   1.289   9.149 -0.3676  0.0166 -0.7687
  370MOL0     O49846   4.418   1.300   9.036 -0.7956  0.2881 -0.0119
  370MOL0     C49847   4.393   1.232   8.917  0.0917  0.2353  0.4514
  370MOL0     C49848   4.295   1.138   8.889  0.1947 -0.6003  0.6934
  370MOL0     C49849   4.284   1.077   8.765  0.1731 -0.5044 -0.7279
  370MOL0     C49850   4.368   1.117   8.664  0.1742 -0.6149 -0.4495
  370MOL0     O49851   4.356   1.081   8.528 -0.2948  0.2355 -0.4504
  370MOL0     C49852   4.248   1.002   8.475 -0.2575 -0.3971  0.1994
  370MOL0     C49853   4.261   1.010   8.330 -0.2995 -0.6047  0.4534
  370MOL0     C49854   4.375   0.924   8.275 -0.7711 -0.1261 -0.5548
  370MOL0     C49855   4.511   0.996   8.283 -0.6706  1.2986 -0.2636
  370MOL0     C49856   4.629   0.897   8.248 -0.5899  0.9196  0.2145
  370MOL0     C49857   4.613   0.832   8.109  0.3519 -0.6963  0.4851
  370MOL0     C49858   4.746   0.771   8.058  0.1047  0.1208 -0.3658
  370MOL0     C49859   4.808   0.661   8.143  1.5224 -0.8533  0.2460
  370MOL0    Cl49860   4.706   0.522   8.156  0.7514  0.1723  0.4516
  370MOL0     C49861   4.476   1.209   8.683  0.4944 -0.7439  0.3836
  370MOL0     C49862   4.479   1.269   8.810  0.2775  0.3486  0.4307
  370MOL0     O49863   4.240   1.223   9.160  0.2359  0.5870 -0.3760
  370MOL0     C49864   4.501   1.441   9.260 -0.1159 -0.7501  0.7561
  370MOL0     C49865   4.541   1.514   9.371 -0.4391  0.1405  0.0817
  370MOL0     N49866   5.032   1.688   9.724  0.8490 -0.4213  0.3937
  370MOL0     N49867   5.107   1.785   9.731  0.1307  0.3216 -0.4547
  370MOL0     C49868   4.709   2.855   9.754 -0.4458  0.5537 -0.4583
  370MOL0     C49869   4.601   2.891   9.827  0.1938  0.1394 -0.2468
  370MOL0     C49870   4.121   2.934   9.897  0.8131  0.0677 -0.2846
  370MOL0     C49871   3.991   2.881   9.898 -0.9226  0.7449  0.4771
  370MOL0     C49872   3.883   2.961   9.947  0.3213  0.2769 -0.2689
  370MOL0     C49873   3.898   3.088   9.986 -0.4814  0.8324 -0.5480
  370MOL0     O49874   3.801   3.172  10.013  0.2026 -0.1763  0.6658
  370MOL0     C49875   3.692   3.126  10.092  1.0592  0.3210  0.0969
  370MOL0     C49876   3.737   3.081  10.229  0.3155  0.9145  0.2067
  370MOL0     C49877   3.630   3.082  10.343  0.1166  0.5369  0.3273
  370MOL0     C49878   3.557   2.949  10.354  0.5159  0.0239 -0.4586
  370MOL0     C49879   3.643   2.847  10.415 -0.7042  0.3605 -0.5955
  370MOL0     C49880   3.721   2.758  10.434  0.2225  0.1355 -0.4475
  370MOL0     C49881   4.029   3.142   9.989 -0.3736 -0.1573 -0.1336
  370MOL0     C49882   4.143   3.062   9.947  0.1993 -0.9318 -0.4931
  370MOL0     H49883   4.367   2.748   9.636  0.2389 -2.7226  2.4146
  370MOL0     H49884   4.564   2.706   9.495 -0.9122  0.1768  0.3999
  370MOL0     H49885   4.739   2.703   9.382 -0.6816 -0.7292  0.5992
  370MOL0     H49886   4.911   2.696   9.382  0.2743 -1.0803 -2.4065
  370MOL0     H49887   4.729   2.510   9.557  0.8633  0.9796  1.5296
  370MOL0     H49888   4.775   2.481   9.393  0.7378 -0.8942 -0.5324
  370MOL0     H49889   4.976   2.386   9.480 -0.6004 -1.1960  0.7526
  370MOL0     H49890   5.020   2.550   9.533 -0.7878  0.8853  0.3467
  370MOL0     H49891   4.892   2.481   9.756  0.1139  1.6292 -1.3607
  370MOL0     H49892   4.863   2.334   9.676 -0.8341 -0.0806 -3.6818
  370MOL0     H49893   5.139   2.454   9.770 -1.2872  0.2739 -0.0936
  370MOL0     H49894   5.050   2.329   9.842  0.7036 -1.1044  0.6688
  370MOL0     H49895   5.172   2.317   9.573  1.2991 -0.7361 -0.4642
  370MOL0     H49896   5.248   2.258   9.728  0.6316  2.6397 -0.0434
  370MOL0     H49897   4.983   2.150   9.612 -0.1460 -0.6278  1.2947
  370MOL0     H49898   5.146   2.086   9.553  4.3222  0.9155  1.3803
  370MOL0     H49899   5.024   2.062   9.830 -0.8689  0.4838 -1.1475
  370MOL0     H49900   5.196   2.021   9.781 -0.0735 -2.3169 -0.9374
  370MOL0     H49901   4.822   1.932   9.701  0.0141  1.1306  0.8240
  370MOL0     H49902   4.700   1.728   9.654  1.2069  1.8344 -1.2026
  370MOL0     H49903   4.792   1.579   9.620 -0.9727  3.1204 -3.8071
  370MOL0     H49904   4.658   1.679   9.890  1.7789  2.0928 -1.3443
  370MOL0     H49905   4.801   1.566   9.883 -0.5829 -0.3489  0.7056
  370MOL0     H49906   4.576   1.445   9.871 -0.7353  1.1910  0.7490
  370MOL0     H49907   4.647   1.426   9.714 -3.8853 -2.6799  0.1288
  370MOL0     H49908   4.452   1.639   9.795  3.9230  2.9387 -1.4024
  370MOL0     H49909   4.405   1.476   9.740 -0.4854  1.0262  0.7238
  370MOL0     H49910   4.298   1.427   9.585 -1.0186  3.6405 -1.6748
  370MOL0     H49911   4.191   1.193   9.393  1.0783  0.7430 -0.3180
  370MOL0     H49912   4.150   1.293   9.524  0.5550 -1.3741  0.6386
  370MOL0     H49913   4.102   1.339   9.359 -1.9475 -2.3234  0.9838
  370MOL0     H49914   4.234   1.093   8.966 -1.8983 -0.2341 -0.6894
  370MOL0     H49915   4.192   1.020   8.757 -1.3646  1.2622  2.4023
  370MOL0     H49916   4.261   0.898   8.508  0.5520 -0.3175  0.1412
  370MOL0     H49917   4.148   1.034   8.507 -0.7159 -0.9716 -0.6033
  370MOL0     H49918   4.168   0.983   8.279  0.2781 -2.9420  0.5496
  370MOL0     H49919   4.276   1.115   8.303  0.6024 -1.2568 -1.8243
  370MOL0     H49920   4.356   0.892   8.172 -3.9598  0.9304 -0.4050
  370MOL0     H49921   4.382   0.831   8.332  1.0362  0.1043 -0.3404
  370MOL0     H49922   4.506   1.072   8.205  1.7002  1.2148 -0.5589
  370MOL0     H49923   4.538   1.047   8.376 -0.3928  1.9875 -0.7185
  370MOL0     H49924   4.648   0.823   8.325  3.1715 -0.8627 -2.1181
  370MOL0     H49925   4.722   0.955   8.247 -0.6335  0.9912 -0.6535
  370MOL0     H49926   4.528   0.764   8.115 -1.3666  1.4609  1.7760
  370MOL0     H49927   4.578   0.908   8.038 -2.2785 -3.0780 -0.9539
  370MOL0     H49928   4.812   0.858   8.045 -3.5982  3.0328 -1.4581
  370MOL0     H49929   4.728   0.726   7.960  1.0952  1.3011 -1.1147
  370MOL0     H49930   4.835   0.689   8.246  4.5703 -0.5492 -0.5295
  370MOL0     H49931   4.904   0.632   8.098  2.4103 -0.9306  2.0969
  370MOL0     H49932   4.538   1.244   8.602  1.0438  1.6476  1.7501
  370MOL0     H49933   4.537   1.361   8.808  1.2237 -0.0594  3.6239
  370MOL0     H49934   4.560   1.428   9.169 -1.2738 -1.6700  0.1060
  370MOL0     H49935   4.627   1.580   9.364  0.9088 -1.6659 -1.1275
  370MOL0     H49936   4.811   2.852   9.790 -1.1689 -2.9539  1.8934
  370MOL0     H49937   4.626   2.930   9.926  3.3024 -0.9932 -0.4782
  370MOL0     H49938   3.970   2.779   9.868 -0.7614  1.0318 -0.6483
  370MOL0     H49939   3.783   2.920   9.958  0.9399 -0.9235  1.2108
  370MOL0     H49940   3.631   3.217  10.097  1.4285  0.5477  0.6540
  370MOL0     H49941   3.622   3.053  10.050 -0.2478  0.5660  1.6992
  370MOL0     H49942   3.805   3.157  10.268 -0.5862  1.2820  1.0939
  370MOL0     H49943   3.790   2.986  10.218  0.4520  1.2338 -2.6656
  370MOL0     H49944   3.550   3.152  10.315  0.4768  0.5159 -0.7848
  370MOL0     H49945   3.671   3.115  10.439  1.2301 -2.5701  1.0094
  370MOL0     H49946   3.530   2.919  10.252 -0.1776  1.7628 -0.8103
  370MOL0     H49947   3.471   2.958  10.420  2.6007 -0.1127  2.4567
  370MOL0     H49948   3.777   2.667  10.441  1.1506  0.3447 -3.5129
  370MOL0     H49949   4.048   3.246  10.015  1.5043 -0.8288  1.4165
  370MOL0     H49950   4.243   3.098   9.966 -0.2903  0.8453 -1.0774
  371MOL0     O49951   2.771   5.953  11.433 -0.5648  0.8309 -0.0658
  371MOL0     C49952   2.843   6.032  11.380  0.7555 -0.0029  1.0796
  371MOL0     O49953   2.806   6.145  11.316 -0.0604  0.2914  0.1601
  371MOL0     C49954   2.673   6.170  11.304 -0.1276 -0.4234 -0.2047
  371MOL0     C49955   2.592   6.207  11.414  0.1656 -0.0177 -0.9686
  371MOL0     C49956   2.456   6.233  11.405 -0.6647 -0.9940  0.6435
  371MOL0     C49957   2.394   6.214  11.282  0.1134  0.1582  0.3583
  371MOL0     O49958   2.265   6.251  11.265 -0.6523 -0.2040  0.3533
  371MOL0     C49959   2.218   6.360  11.329  0.4800  0.0899 -1.6289
  371MOL0     C49960   2.091   6.341  11.412  0.4538  0.6561 -0.9444
  371MOL0     C49961   2.108   6.291  11.555 -0.4093 -0.0523  0.2122
  371MOL0     C49962   2.119   6.415  11.640 -0.2905 -0.2309  0.7885
  371MOL0     C49963   2.134   6.387  11.793  0.6392  0.5760 -0.2081
  371MOL0     C49964   2.289   6.378  11.823 -0.0339  0.2889  0.9378
  371MOL0     C49965   2.329   6.439  11.954 -0.0731  0.2978  0.2093
  371MOL0     C49966   2.277   6.361  12.075 -0.0228 -0.4107  0.3302
  371MOL0     N49967   2.338   6.429  12.189  0.6154 -0.5581 -0.6137
  371MOL0     C49968   2.312   6.561  12.239  0.0385  0.3174 -0.0011
  371MOL0     C49969   2.396   6.575  12.342  0.7552 -0.2623  0.0112
  371MOL0     C49970   2.430   6.707  12.409 -1.0523 -0.5018  0.1066
  371MOL0     C49971   2.582   6.724  12.420 -0.1137  0.2952 -0.0855
  371MOL0     C49972   2.615   6.839  12.511  0.2026 -0.3640  0.7651
  371MOL0     C49973   2.768   6.838  12.550  0.1272 -0.0364  0.6969
  371MOL0     O49974   2.807   6.757  12.647 -0.6102 -0.4819 -0.6734
  371MOL0     C49975   2.920   6.681  12.660 -0.0304 -0.4990  0.1714
  371MOL0     C49976   2.932   6.587  12.765 -0.8725 -0.4715  0.7773
  371MOL0     C49977   3.041   6.508  12.787  0.6527 -0.5347 -0.1136
  371MOL0     C49978   3.036   6.406  12.902  0.5022 -0.6033  0.1577
  371MOL0     C49979   3.144   6.513  12.690 -0.6720 -0.6628  0.9612
  371MOL0     C49980   3.275   6.434  12.703 -0.2389  0.0271  0.5636
  371MOL0     O49981   3.309   6.357  12.811  0.8162 -0.2796 -0.4676
  371MOL0     C49982   3.423   6.279  12.822 -0.0070  0.0958  1.4675
  371MOL0     C49983   3.486   6.217  12.715  0.1765  0.5648 -0.0034
  371MOL0     C49984   3.608   6.145  12.727  0.2041  1.0456 -1.0757
  371MOL0     C49985   3.659   6.129  12.857  0.9403 -0.6293 -0.8495
  371MOL0     O49986   3.786   6.088  12.880  0.0833 -0.2031  0.7769
  371MOL0     C49987   3.870   6.072  12.762 -0.3972 -0.1974 -0.1850
  371MOL0     C49988   3.871   5.927  12.712 -0.3500  1.1102 -0.3211
  371MOL0     C49989   3.936   5.818  12.801  0.1650 -0.2770 -0.3914
  371MOL0     C49990   3.939   5.681  12.730 -0.0002  0.4080 -0.1606
  371MOL0     C49991   3.998   5.573  12.824 -1.1345  0.3782 -0.7510
  371MOL0     C49992   3.914   5.538  12.950 -0.0374  0.6629 -0.5697
  371MOL0     C49993   4.013   5.462  13.049  0.1809  0.2843  0.3997
  371MOL0     C49994   3.947   5.387  13.157 -0.0585  0.1980  0.6470
  371MOL0    Cl49995   4.068   5.378  13.269 -0.1313  0.1045 -0.3165
  371MOL0     C49996   3.602   6.201  12.968 -0.5455  0.6496  0.5281
  371MOL0     C49997   3.476   6.262  12.953  0.4871  0.4372 -0.1887
  371MOL0     O49998   3.352   6.458  12.609 -0.3529  0.0096  0.5798
  371MOL0     C49999   3.131   6.599  12.582  0.2516 -0.2838 -0.8273
  371MOL0     C50000   3.022   6.682  12.568  0.2492 -0.4709 -0.1838
  371MOL0     N50001   2.450   6.449  12.371 -0.2050 -0.0097  0.0158
  371MOL0     N50002   2.414   6.364  12.287  0.5291  0.1559 -0.5489
  371MOL0     C50003   2.472   6.163  11.178  0.2523 -1.0564 -0.0134
  371MOL0     C50004   2.608   6.143  11.184 -0.3694  0.1049 -0.4482
  371MOL0     C50005   2.989   5.995  11.383  0.0064  0.1579 -0.6452
  371MOL0     C50006   3.092   6.082  11.348  0.1774 -0.2150 -0.4768
  371MOL0     C50007   3.221   6.047  11.341 -0.2327  0.0820 -0.3054
  371MOL0     C50008   3.253   5.910  11.372 -0.8032 -0.6116  0.3246
  371MOL0     O50009   3.387   5.857  11.374  0.3282 -0.0004 -0.6028
  371MOL0     C50010   3.510   5.938  11.383 -0.7103 -0.4160  0.0483
  371MOL0     C50011   3.631   5.847  11.423  0.3372  0.1692  0.8855
  371MOL0     C50012   3.602   5.746  11.527  0.3069 -0.0698  0.0560
  371MOL0     C50013   3.730   5.677  11.570  0.6554  0.3834  0.2013
  371MOL0     C50014   3.767   5.570  11.470 -0.3550  0.3751 -0.3348
  371MOL0     C50015   3.789   5.467  11.407  0.4452 -0.3348 -0.7710
  371MOL0     C50016   3.159   5.819  11.408 -0.2136  0.4185  0.4437
  371MOL0     C50017   3.026   5.862  11.407 -0.4008 -0.0062 -0.4936
  371MOL0     H50018   2.636   6.242  11.506  1.3286  2.9216 -2.4979
  371MOL0     H50019   2.406   6.269  11.494 -3.9071  1.7331 -1.9698
  371MOL0     H50020   2.295   6.411  11.388  0.5469 -0.1441 -1.5125
  371MOL0     H50021   2.196   6.432  11.249  1.8024  1.2775 -0.9821
  371MOL0     H50022   2.047   6.441  11.415  2.7029  1.6845 -0.2458
  371MOL0     H50023   2.018   6.273  11.367 -0.6375 -1.5503  3.4921
  371MOL0     H50024   2.028   6.228  11.595 -1.3420  2.9641  3.5619
  371MOL0     H50025   2.206   6.242  11.551 -1.0069 -1.2963  0.3901
  371MOL0     H50026   2.199   6.479  11.601  1.5533 -2.5715  0.4950
  371MOL0     H50027   2.020   6.461  11.633 -0.9828 -1.8973 -2.7527
  371MOL0     H50028   2.089   6.470  11.848 -1.3445 -0.1301 -0.6460
  371MOL0     H50029   2.070   6.304  11.823 -2.3099  3.4696  2.2702
  371MOL0     H50030   2.329   6.277  11.809  0.5891  0.6932 -0.2856
  371MOL0     H50031   2.332   6.434  11.740 -0.5962 -0.9042 -0.1919
  371MOL0     H50032   2.438   6.434  11.950 -0.1059  0.2478 -2.2060
  371MOL0     H50033   2.291   6.542  11.954 -2.1362 -0.4104  0.4634
  371MOL0     H50034   2.310   6.258  12.062  2.0259  0.0512  1.4169
  371MOL0     H50035   2.168   6.355  12.079  0.0725 -2.3431  0.7097
  371MOL0     H50036   2.256   6.642  12.194  3.8248  4.0015  1.2774
  371MOL0     H50037   2.408   6.793  12.346  0.2477  2.7336  3.6318
  371MOL0     H50038   2.379   6.724  12.505 -2.6046 -0.4682 -0.6930
  371MOL0     H50039   2.603   6.744  12.314 -0.0145 -1.1712 -0.3671
  371MOL0     H50040   2.625   6.634  12.464  2.5598 -0.0378 -2.9974
  371MOL0     H50041   2.554   6.853  12.601 -0.3256  4.6156 -0.0881
  371MOL0     H50042   2.588   6.928  12.454  1.0424  0.8385  2.1862
  371MOL0     H50043   2.796   6.939  12.581 -4.2386  2.1360 -1.3259
  371MOL0     H50044   2.817   6.821  12.453 -1.3198 -1.6229  0.1905
  371MOL0     H50045   2.848   6.570  12.832 -1.6211 -0.6537 -0.1757
  371MOL0     H50046   3.054   6.306  12.860 -1.3011  0.2581 -3.0232
  371MOL0     H50047   3.110   6.429  12.979  1.4782 -0.3383 -0.8334
  371MOL0     H50048   2.939   6.411  12.953  1.5016  1.0791  2.0038
  371MOL0     H50049   3.442   6.236  12.617  0.6026 -2.4668 -0.8899
  371MOL0     H50050   3.635   6.094  12.635  2.1173  2.8525 -1.5722
  371MOL0     H50051   3.856   6.146  12.682  2.1266  0.3659 -0.1766
  371MOL0     H50052   3.973   6.099  12.786  0.7261 -0.7014 -3.8843
  371MOL0     H50053   3.766   5.899  12.694 -0.6029  2.2422 -0.7353
  371MOL0     H50054   3.929   5.928  12.619  0.1739 -1.8242 -0.1287
  371MOL0     H50055   3.899   5.812  12.903  0.6451 -1.8562 -0.2788
  371MOL0     H50056   4.039   5.851  12.813 -0.0416  0.0117  0.6456
  371MOL0     H50057   3.838   5.652  12.699  0.2048  0.0959 -0.5519
  371MOL0     H50058   4.005   5.689  12.644  5.5075  2.3091  3.7216
  371MOL0     H50059   4.096   5.599  12.865 -2.0183 -1.9150  3.3321
  371MOL0     H50060   4.010   5.478  12.772  0.3183  0.8474 -1.3281
  371MOL0     H50061   3.888   5.630  13.003  3.6915  2.6969 -1.8255
  371MOL0     H50062   3.826   5.484  12.916 -0.4313  0.4350  0.7641
  371MOL0     H50063   4.070   5.541  13.097  1.3890 -0.8899  0.9713
  371MOL0     H50064   4.073   5.396  12.984 -0.8440 -2.1445  1.8104
  371MOL0     H50065   3.919   5.282  13.141 -3.3304  1.0281  0.2115
  371MOL0     H50066   3.850   5.431  13.184 -1.0957 -2.4169  1.5013
  371MOL0     H50067   3.663   6.170  13.051  0.3916 -3.9543 -1.5852
  371MOL0     H50068   3.428   6.310  13.037  1.2644 -0.2253  0.6578
  371MOL0     H50069   3.204   6.612  12.503  1.7635 -1.1158  0.3834
  371MOL0     H50070   3.020   6.751  12.485 -2.6191 -0.0588  0.1317
  371MOL0     H50071   2.415   6.138  11.088 -2.4423 -1.7769  1.7481
  371MOL0     H50072   2.645   6.088  11.098 -1.2984  0.1907 -0.9163
  371MOL0     H50073   3.066   6.185  11.325 -1.3426 -0.6008 -0.5307
  371MOL0     H50074   3.289   6.126  11.310  0.1243 -0.0704  0.0720
  371MOL0     H50075   3.542   5.970  11.283  2.4009  0.1131  1.1269
  371MOL0     H50076   3.506   6.023  11.452  0.3281  0.4752 -0.9532
  371MOL0     H50077   3.703   5.916  11.467  1.4702 -1.1085  1.1085
  371MOL0     H50078   3.686   5.807  11.336 -0.2927 -0.4033  0.7476
  371MOL0     H50079   3.528   5.676  11.486 -0.2578  0.3907  0.2731
  371MOL0     H50080   3.544   5.787  11.610 -2.8013 -0.8597 -1.5773
  371MOL0     H50081   3.718   5.631  11.668  0.2380  0.8106  0.3534
  371MOL0     H50082   3.818   5.743  11.577 -0.2193  1.6500 -0.3189
  371MOL0     H50083   3.833   5.385  11.353  2.5922 -0.2573  0.7711
  371MOL0     H50084   3.176   5.714  11.431 -0.9604 -0.5637 -2.9596
  371MOL0     H50085   2.952   5.794  11.446 -1.6922  2.1717  1.0916
  372MOL0     O50086   5.140  10.965   2.677 -0.0108 -0.0197 -0.1913
  372MOL0     C50087   5.215  10.975   2.578  0.0407  0.6824  0.7096
  372MOL0     O50088   5.350  11.004   2.580  0.2542 -0.1910  1.3343
  372MOL0     C50089   5.402  11.027   2.712  0.0090  0.2663  0.2861
  372MOL0     C50090   5.502  10.938   2.770  0.3377 -0.3818 -0.3271
  372MOL0     C50091   5.544  10.967   2.898 -0.1993 -0.4012 -0.1040
  372MOL0     C50092   5.499  11.074   2.974  0.3599  0.1437  0.2518
  372MOL0     O50093   5.550  11.083   3.104 -0.1655 -0.6197 -0.2117
  372MOL0     C50094   5.569  11.209   3.178  0.5507 -0.1115  0.9654
  372MOL0     C50095   5.651  11.193   3.304 -0.7290 -0.0749  0.2476
  372MOL0     C50096   5.801  11.164   3.278  0.6054 -0.3666 -0.3252
  372MOL0     C50097   5.871  11.166   3.419  0.6400 -0.7195 -0.4640
  372MOL0     C50098   5.818  11.072   3.531 -0.5567 -0.7357  0.5364
  372MOL0     C50099   5.854  10.931   3.494 -0.1150 -0.2349 -1.1380
  372MOL0     C50100   5.877  10.828   3.610 -1.1580 -1.0994  0.9078
  372MOL0     C50101   5.757  10.792   3.687 -0.0795  0.4776 -0.1070
  372MOL0     N50102   5.654  10.725   3.604 -0.0118  0.2769 -0.1387
  372MOL0     C50103   5.676  10.620   3.513 -0.3207 -0.7529 -0.6002
  372MOL0     C50104   5.552  10.583   3.466 -0.0550 -0.7045  0.5390
  372MOL0     C50105   5.523  10.480   3.369 -1.3239  0.3506  0.7962
  372MOL0     C50106   5.499  10.549   3.225 -0.6423 -0.3446  0.2394
  372MOL0     C50107   5.412  10.463   3.139 -0.1990  0.2821  0.0487
  372MOL0     C50108   5.278  10.531   3.113  0.1826 -0.5925 -0.3619
  372MOL0     O50109   5.197  10.448   3.023 -0.3217 -0.4271  0.7446
  372MOL0     C50110   5.237  10.451   2.891 -0.2149  0.1570 -0.4873
  372MOL0     C50111   5.292  10.333   2.839 -0.0775 -0.0463 -0.7868
  372MOL0     C50112   5.329  10.321   2.705 -0.4852  0.5440 -0.3733
  372MOL0     C50113   5.362  10.181   2.647 -0.3319  0.4156  0.4285
  372MOL0     C50114   5.318  10.433   2.620 -0.4312  0.2525  0.4247
  372MOL0     C50115   5.332  10.424   2.460 -0.0765 -0.9455 -0.0607
  372MOL0     O50116   5.271  10.531   2.402 -0.4956  0.4684 -0.4257
  372MOL0     C50117   5.287  10.547   2.266  0.1219 -0.9033  0.2402
  372MOL0     C50118   5.411  10.589   2.218 -0.4062  0.3315  1.0219
  372MOL0     C50119   5.437  10.610   2.082  0.2382  1.0647 -0.5898
  372MOL0     C50120   5.334  10.583   1.994  0.2663 -0.0929 -0.2395
  372MOL0     O50121   5.348  10.601   1.860  0.1222 -0.3656 -0.5298
  372MOL0     C50122   5.482  10.574   1.805 -0.2409  0.2939 -0.4697
  372MOL0     C50123   5.476  10.523   1.661  0.3933  0.3504  0.8533
  372MOL0     C50124   5.428  10.382   1.648  0.6620  0.4420  0.1219
  372MOL0     C50125   5.446  10.320   1.502  0.7840 -0.5311 -0.6854
  372MOL0     C50126   5.380  10.177   1.485 -0.0566  1.3449 -0.9006
  372MOL0     C50127   5.227  10.164   1.466 -0.4498 -0.6110 -0.1045
  372MOL0     C50128   5.171  10.250   1.350  0.0226  0.6593 -0.1723
  372MOL0     C50129   5.027  10.214   1.317 -0.3987  0.4360  0.0102
  372MOL0    Cl50130   4.990  10.280   1.152 -0.2444  0.2254  0.1186
  372MOL0     C50131   5.203  10.561   2.046  0.2339  0.1303  1.0266
  372MOL0     C50132   5.178  10.562   2.179  0.5722 -0.3920 -0.2809
  372MOL0     O50133   5.384  10.334   2.400  0.0150 -0.4241  0.2776
  372MOL0     C50134   5.260  10.551   2.676 -0.0369 -0.5767  0.0473
  372MOL0     C50135   5.224  10.561   2.810  0.0348  0.5203 -0.0858
  372MOL0     N50136   5.461  10.676   3.535 -0.3220  0.2137  0.2691
  372MOL0     N50137   5.519  10.760   3.608  0.2927  0.5381  0.6228
  372MOL0     C50138   5.404  11.160   2.917 -0.9307 -1.4424 -0.8255
  372MOL0     C50139   5.355  11.137   2.786  0.5403  0.1717  0.1306
  372MOL0     C50140   5.148  10.954   2.445  0.6764  0.4545  0.2842
  372MOL0     C50141   5.014  10.927   2.434  0.1417 -1.2929  0.0344
  372MOL0     C50142   4.955  10.888   2.309 -0.4258  0.0303  0.0202
  372MOL0     C50143   5.040  10.855   2.200  1.0864 -0.1670 -0.1439
  372MOL0     O50144   4.980  10.825   2.080  0.3569 -0.4681  0.0189
  372MOL0     C50145   4.863  10.750   2.075  0.3120 -0.2980 -0.0108
  372MOL0     C50146   4.741  10.841   2.033 -0.7914 -0.5304  0.0764
  372MOL0     C50147   4.612  10.766   2.012 -0.8296  0.5141  0.4840
  372MOL0     C50148   4.508  10.866   1.966 -0.6989  0.5714  0.2683
  372MOL0     C50149   4.383  10.810   1.911 -0.0736 -0.1278 -0.6565
  372MOL0     C50150   4.288  10.736   1.891  0.1327 -0.3596 -0.8872
  372MOL0     C50151   5.174  10.890   2.209 -0.0510  0.2510 -0.3458
  372MOL0     C50152   5.225  10.952   2.332  0.7860  0.3831 -0.5950
  372MOL0     H50153   5.542  10.857   2.710  0.1066 -0.2422 -0.6726
  372MOL0     H50154   5.618  10.901   2.942  1.7038  1.1500 -0.7942
  372MOL0     H50155   5.608  11.288   3.113 -0.6947  1.0557  1.5641
  372MOL0     H50156   5.470  11.252   3.198 -0.2698 -1.7192  0.5058
  372MOL0     H50157   5.627  11.276   3.372 -2.9261 -1.6826  1.5848
  372MOL0     H50158   5.603  11.116   3.364  0.8153  0.1617  1.8924
  372MOL0     H50159   5.827  11.070   3.228  0.8303 -1.8638  2.4127
  372MOL0     H50160   5.836  11.249   3.219  2.5618 -1.0523 -0.2129
  372MOL0     H50161   5.978  11.145   3.415  0.8967  0.2670  0.5773
  372MOL0     H50162   5.865  11.266   3.462 -0.5219  0.0856 -2.3733
  372MOL0     H50163   5.881  11.101   3.616 -0.0331  1.3992 -0.4977
  372MOL0     H50164   5.713  11.084   3.559  0.5125 -0.0387  5.0388
  372MOL0     H50165   5.771  10.890   3.436 -1.7041 -1.6358  1.8697
  372MOL0     H50166   5.942  10.928   3.430  1.2131 -0.4769  0.6324
  372MOL0     H50167   5.933  10.748   3.562 -1.5220  0.8247 -3.2007
  372MOL0     H50168   5.954  10.871   3.676 -1.1887 -1.9164  1.4850
  372MOL0     H50169   5.710  10.877   3.737  1.1816  0.1297  1.7701
  372MOL0     H50170   5.794  10.716   3.757 -1.1797 -1.0631 -1.1192
  372MOL0     H50171   5.773  10.575   3.492  0.5497 -0.7254  2.7591
  372MOL0     H50172   5.604  10.407   3.374  2.1148  3.6580 -1.4735
  372MOL0     H50173   5.429  10.440   3.408  0.0546 -3.1090  0.9153
  372MOL0     H50174   5.594  10.563   3.173 -0.9397 -2.1661 -0.8820
  372MOL0     H50175   5.457  10.647   3.251  1.4708  0.4650  0.7580
  372MOL0     H50176   5.401  10.361   3.178 -1.9369 -0.2589 -1.6917
  372MOL0     H50177   5.446  10.451   3.035 -2.5133  2.2468 -1.0252
  372MOL0     H50178   5.286  10.631   3.070 -1.7531 -0.8117 -1.3352
  372MOL0     H50179   5.219  10.525   3.205 -2.9204  3.5215 -1.7591
  372MOL0     H50180   5.299  10.252   2.910  0.3765 -0.0700 -0.8523
  372MOL0     H50181   5.465  10.165   2.614 -1.3788 -0.0736 -3.0425
  372MOL0     H50182   5.342  10.095   2.711  2.5061 -3.5357 -3.3603
  372MOL0     H50183   5.303  10.157   2.558  0.2137 -1.5436  0.5621
  372MOL0     H50184   5.486  10.616   2.292 -1.5356 -1.0858  2.7711
  372MOL0     H50185   5.543  10.630   2.066  1.1006 -3.6124 -2.4869
  372MOL0     H50186   5.529  10.673   1.806 -2.0275  1.1885  1.5135
  372MOL0     H50187   5.541  10.500   1.860  0.5905  0.2191 -1.4375
  372MOL0     H50188   5.412  10.597   1.611 -2.0275  0.2627  3.5256
  372MOL0     H50189   5.580  10.517   1.630 -0.3417 -1.4752 -1.5360
  372MOL0     H50190   5.323  10.413   1.644  1.5672  4.5550  2.4177
  372MOL0     H50191   5.468  10.315   1.725  1.2540  0.6775  0.0251
  372MOL0     H50192   5.401  10.386   1.427 -0.9013 -0.2102  0.5456
  372MOL0     H50193   5.553  10.308   1.484  0.5789 -0.0781 -2.3102
  372MOL0     H50194   5.401  10.112   1.571 -0.3897  2.2714 -0.1024
  372MOL0     H50195   5.428  10.137   1.395 -0.2106  0.9035 -0.7897
  372MOL0     H50196   5.206  10.057   1.457 -1.5210 -0.4491  0.3085
  372MOL0     H50197   5.186  10.199   1.561 -2.8929  3.1883 -2.3016
  372MOL0     H50198   5.224  10.235   1.256 -0.6547 -0.5975 -0.3762
  372MOL0     H50199   5.173  10.358   1.368 -1.0343  1.0961 -2.3492
  372MOL0     H50200   4.963  10.255   1.396  1.8095  2.4067  0.9114
  372MOL0     H50201   5.008  10.106   1.319  3.1604 -0.3035  0.3315
  372MOL0     H50202   5.115  10.559   1.983 -0.7265  1.4765  2.2751
  372MOL0     H50203   5.079  10.588   2.214  0.7762 -1.0357  0.8188
  372MOL0     H50204   5.241  10.642   2.619 -2.1903  2.2575  4.6791
  372MOL0     H50205   5.167  10.640   2.858  0.5542  0.8357  0.0146
  372MOL0     H50206   5.381  11.242   2.984  4.2540  0.5223 -1.0046
  372MOL0     H50207   5.266  11.183   2.744  0.3797  1.5611  1.8497
  372MOL0     H50208   4.955  10.937   2.524  2.4549 -2.2558  1.7600
  372MOL0     H50209   4.847  10.878   2.305 -0.4428  0.3414 -0.3180
  372MOL0     H50210   4.884  10.671   2.003  2.7168  0.3940 -0.1457
  372MOL0     H50211   4.856  10.713   2.178 -2.7016  0.6503  0.2132
  372MOL0     H50212   4.767  10.875   1.932  0.8182 -1.1605  0.2375
  372MOL0     H50213   4.729  10.919   2.108  3.0812  0.7327 -0.3750
  372MOL0     H50214   4.589  10.718   2.107  0.9325  1.6797  1.5546
  372MOL0     H50215   4.623  10.687   1.937 -4.0009  0.8051 -0.4240
  372MOL0     H50216   4.550  10.927   1.885  2.3853 -0.0570  1.2487
  372MOL0     H50217   4.480  10.933   2.049 -1.9139 -2.6089  2.6210
  372MOL0     H50218   4.209  10.667   1.869 -0.6778 -0.1677  1.1972
  372MOL0     H50219   5.240  10.868   2.126 -0.6285  0.1114 -0.7665
  372MOL0     H50220   5.327  10.989   2.337  0.7655  0.3800 -0.0626
  373MOL0     O50221   9.919   1.921   6.046 -0.3640 -0.6087 -0.5017
  373MOL0     C50222   9.813   1.866   6.085 -1.0300 -0.3014 -0.2784
  373MOL0     O50223   9.688   1.928   6.085  0.2302  0.3470 -0.1019
  373MOL0     C50224   9.682   2.034   5.996  0.4491 -0.5072 -1.7868
  373MOL0     C50225   9.664   2.018   5.864 -0.1386 -0.4925  0.2665
  373MOL0     C50226   9.638   2.129   5.782 -0.0207 -0.5925  0.3858
  373MOL0     C50227   9.627   2.256   5.837  0.5917  0.8193  0.7379
  373MOL0     O50228   9.617   2.367   5.756 -0.3931  0.1648 -0.3156
  373MOL0     C50229   9.499   2.452   5.784 -0.7154  0.5844 -0.2137
  373MOL0     C50230   9.505   2.564   5.683  0.1424  0.1742 -0.2330
  373MOL0     C50231   9.442   2.527   5.546 -0.7098  0.4158 -0.0995
  373MOL0     C50232   9.476   2.634   5.439  0.1502 -0.2496 -0.1860
  373MOL0     C50233   9.396   2.602   5.309  0.0063 -0.6171 -0.6633
  373MOL0     C50234   9.443   2.703   5.210 -0.3869 -0.4831  1.2048
  373MOL0     C50235   9.550   2.647   5.118 -0.7641  0.1274  0.1217
  373MOL0     C50236   9.620   2.751   5.025 -0.1932  0.9103  0.7029
  373MOL0     N50237   9.717   2.830   5.097 -0.0934 -0.4423 -0.5141
  373MOL0     C50238   9.841   2.791   5.119 -0.6356  0.3373  0.6460
  373MOL0     C50239   9.915   2.894   5.175  0.9057 -0.1568 -1.3368
  373MOL0     C50240  10.057   2.899   5.211  0.7431  0.3738  0.0159
  373MOL0     C50241  10.094   2.761   5.252  0.5449 -0.7824 -0.9804
  373MOL0     C50242  10.246   2.760   5.280 -0.6146 -0.0839 -0.6899
  373MOL0     C50243  10.294   2.622   5.312 -0.0918 -0.6062  0.2809
  373MOL0     O50244  10.435   2.636   5.322 -0.0009 -0.0723  0.4397
  373MOL0     C50245  10.515   2.517   5.318  0.9102 -0.8144 -0.6625
  373MOL0     C50246  10.460   2.393   5.312 -0.4120  0.2696 -0.4283
  373MOL0     C50247  10.535   2.271   5.319 -0.0964  0.3657  0.0333
  373MOL0     C50248  10.464   2.138   5.334 -0.7502 -0.0671 -0.7370
  373MOL0     C50249  10.680   2.281   5.297  0.3834 -0.4923  0.6116
  373MOL0     C50250  10.782   2.173   5.268 -0.2653 -0.0568 -1.2719
  373MOL0     O50251  10.907   2.190   5.301 -0.3164 -0.0615  0.2738
  373MOL0     C50252  10.997   2.088   5.312  1.1827  0.7595 -0.2033
  373MOL0     C50253  11.040   2.017   5.193  0.6894  0.7698 -0.4272
  373MOL0     C50254  11.138   1.917   5.199  0.0171  1.0154  0.1673
  373MOL0     C50255  11.196   1.881   5.324 -0.8093 -0.3802  0.6566
  373MOL0     O50256  11.286   1.777   5.316  0.1340  0.1816 -1.2546
  373MOL0     C50257  11.247   1.656   5.383  0.1639  0.6873 -0.4055
  373MOL0     C50258  11.309   1.524   5.344  0.7842 -0.5216 -1.5992
  373MOL0     C50259  11.458   1.537   5.390  0.2040  1.3350 -0.5572
  373MOL0     C50260  11.509   1.404   5.428  0.6037 -0.7232 -0.2737
  373MOL0     C50261  11.642   1.414   5.507 -0.6295  1.1142  0.3712
  373MOL0     C50262  11.713   1.273   5.516  0.5970 -0.1962 -0.7620
  373MOL0     C50263  11.628   1.162   5.587  0.5346  0.6497 -0.0058
  373MOL0     C50264  11.588   1.217   5.719  0.0259  0.4491  1.2579
  373MOL0    Cl50265  11.720   1.272   5.823  0.9014  0.3900  0.0781
  373MOL0     C50266  11.155   1.946   5.438  0.0883  1.3342  0.4586
  373MOL0     C50267  11.047   2.041   5.432  0.5580  0.3600 -0.1674
  373MOL0     O50268  10.738   2.067   5.230  0.1825  0.4716 -0.4400
  373MOL0     C50269  10.733   2.411   5.309 -0.1787 -0.8003 -0.5992
  373MOL0     C50270  10.649   2.524   5.328  0.4770  0.0668  1.4067
  373MOL0     N50271   9.818   2.984   5.204  0.0138 -0.3310 -0.5069
  373MOL0     N50272   9.704   2.949   5.158 -0.4979 -0.1822 -0.1026
  373MOL0     C50273   9.653   2.279   5.978  0.7513  0.2830  0.5061
  373MOL0     C50274   9.678   2.161   6.053 -0.8445 -0.3947 -0.8980
  373MOL0     C50275   9.821   1.725   6.126  1.1250  0.4478  0.1077
  373MOL0     C50276   9.909   1.679   6.223  1.1063 -0.3486  0.8054
  373MOL0     C50277   9.905   1.547   6.271  1.2523  0.4276  0.7355
  373MOL0     C50278   9.810   1.453   6.221  0.9206 -0.4410 -0.2376
  373MOL0     O50279   9.796   1.326   6.261 -0.0280  0.0628  0.5976
  373MOL0     C50280   9.903   1.265   6.333  0.2066 -0.0684 -0.1490
  373MOL0     C50281   9.868   1.113   6.320 -0.8709  0.8142  0.4193
  373MOL0     C50282   9.754   1.070   6.407  0.2464 -0.1239 -0.6482
  373MOL0     C50283   9.791   1.054   6.565  0.3413 -0.1335  0.5456
  373MOL0     C50284   9.889   0.952   6.581  0.0989  0.2441 -0.2107
  373MOL0     C50285   9.983   0.874   6.581  0.1148 -0.3435 -0.5457
  373MOL0     C50286   9.714   1.499   6.127 -0.5640 -0.3648 -0.8724
  373MOL0     C50287   9.715   1.633   6.080 -0.2676  0.1064 -1.0110
  373MOL0     H50288   9.657   1.918   5.823  1.4507  0.3285 -2.2043
  373MOL0     H50289   9.634   2.110   5.675  0.1122  0.5698  0.1592
  373MOL0     H50290   9.404   2.400   5.775  0.6813 -1.9033 -1.8265
  373MOL0     H50291   9.511   2.488   5.887 -0.6309 -2.1091  0.7979
  373MOL0     H50292   9.450   2.644   5.732 -1.8974 -1.0888 -0.3205
  373MOL0     H50293   9.609   2.594   5.673  0.5487  0.6396  3.6902
  373MOL0     H50294   9.492   2.436   5.511 -1.8659 -0.4423  0.4233
  373MOL0     H50295   9.334   2.511   5.542 -0.7019  0.5820 -1.7505
  373MOL0     H50296   9.439   2.733   5.466 -1.5649 -0.6631 -0.8629
  373MOL0     H50297   9.581   2.653   5.418  0.0439  2.8313  1.5672
  373MOL0     H50298   9.415   2.499   5.278  0.2070 -1.2252  1.2918
  373MOL0     H50299   9.289   2.606   5.332  0.1495 -2.5952  0.5460
  373MOL0     H50300   9.361   2.732   5.143  1.5027 -0.9099 -1.4837
  373MOL0     H50301   9.478   2.794   5.259  2.0082 -1.3241  1.1994
  373MOL0     H50302   9.625   2.587   5.171 -1.6052  0.8639  2.2472
  373MOL0     H50303   9.497   2.580   5.049  0.3369  0.4296 -1.0697
  373MOL0     H50304   9.552   2.829   4.990  2.4386  2.2075 -1.8927
  373MOL0     H50305   9.673   2.708   4.940  4.2561  0.0242  3.5628
  373MOL0     H50306   9.891   2.706   5.073 -2.0193 -1.5086  2.3830
  373MOL0     H50307  10.111   2.950   5.131 -3.5672  1.6488 -2.4153
  373MOL0     H50308  10.080   2.965   5.295  1.2306  0.6985 -0.3647
  373MOL0     H50309  10.082   2.695   5.165  2.0807 -0.2951 -1.5927
  373MOL0     H50310  10.040   2.712   5.333  0.2544  0.1952 -0.5721
  373MOL0     H50311  10.271   2.822   5.366 -1.0863  2.0341 -1.9939
  373MOL0     H50312  10.291   2.809   5.193 -1.6198 -0.6887 -1.5811
  373MOL0     H50313  10.271   2.553   5.230 -1.3460 -1.3415  1.2063
  373MOL0     H50314  10.242   2.584   5.400  2.4854 -3.0614  0.9000
  373MOL0     H50315  10.353   2.376   5.318  0.1143 -3.0859  2.0145
  373MOL0     H50316  10.379   2.167   5.395 -1.7994  1.2334 -2.7101
  373MOL0     H50317  10.436   2.098   5.236 -1.4898 -2.8037  0.4936
  373MOL0     H50318  10.523   2.067   5.393  0.3647  1.3699 -0.0643
  373MOL0     H50319  10.991   2.035   5.097  1.0780  0.3108 -0.7190
  373MOL0     H50320  11.160   1.858   5.110  2.4702 -0.4467  1.6079
  373MOL0     H50321  11.263   1.670   5.490 -1.7780 -1.6290  0.2650
  373MOL0     H50322  11.141   1.632   5.376 -1.1689  5.7660 -2.0086
  373MOL0     H50323  11.261   1.440   5.396  0.9184 -0.6609 -1.6990
  373MOL0     H50324  11.300   1.518   5.236 -0.1157 -2.6014 -1.4657
  373MOL0     H50325  11.468   1.593   5.483  4.2653 -0.0372  0.0631
  373MOL0     H50326  11.518   1.579   5.309  0.2834 -1.6028 -2.1669
  373MOL0     H50327  11.438   1.345   5.487  2.4026 -3.6581 -0.8249
  373MOL0     H50328  11.523   1.353   5.332 -1.2914  1.3642 -1.7758
  373MOL0     H50329  11.614   1.452   5.606 -2.8458 -1.2585  0.7641
  373MOL0     H50330  11.703   1.485   5.451 -1.6348  2.1641  0.5625
  373MOL0     H50331  11.714   1.245   5.410 -0.5488  0.2129 -0.8970
  373MOL0     H50332  11.809   1.278   5.569  0.4331  1.4409 -0.5512
  373MOL0     H50333  11.677   1.065   5.579  0.6560  0.8218 -1.6093
  373MOL0     H50334  11.529   1.147   5.543 -0.4269  0.9866  1.9215
  373MOL0     H50335  11.520   1.140   5.757  1.0045 -1.0973  0.0058
  373MOL0     H50336  11.520   1.302   5.705 -0.4015 -0.2158 -1.1031
  373MOL0     H50337  11.201   1.912   5.530 -1.3088  0.3131  0.8029
  373MOL0     H50338  11.024   2.098   5.521  2.3603  0.7692  0.0753
  373MOL0     H50339  10.839   2.427   5.326 -0.3043  0.2394 -0.7452
  373MOL0     H50340  10.697   2.620   5.349  0.3158 -0.3235  3.9394
  373MOL0     H50341   9.654   2.378   6.023  1.2272 -0.2026  1.6077
  373MOL0     H50342   9.681   2.174   6.161  1.1302 -0.4537 -0.9113
  373MOL0     H50343   9.980   1.752   6.259 -0.0102  0.9372  0.4975
  373MOL0     H50344   9.981   1.518   6.342 -3.8138 -0.9531  6.3763
  373MOL0     H50345   9.995   1.293   6.281 -0.7032 -0.2827 -1.9228
  373MOL0     H50346   9.911   1.286   6.440  2.0094  2.3028 -0.6716
  373MOL0     H50347   9.950   1.041   6.320 -0.8098  0.8474 -1.1334
  373MOL0     H50348   9.833   1.090   6.219  2.1711  0.6159 -0.6756
  373MOL0     H50349   9.718   0.973   6.371 -0.2311 -0.3126  0.2955
  373MOL0     H50350   9.660   1.126   6.400  0.6421  0.9419  1.5427
  373MOL0     H50351   9.700   1.029   6.619  1.3648 -2.5181  1.3051
  373MOL0     H50352   9.823   1.151   6.604 -0.5067 -0.0352  1.0180
  373MOL0     H50353  10.073   0.819   6.562  1.6064  2.0755 -0.9299
  373MOL0     H50354   9.641   1.428   6.092  0.8149 -1.0600 -2.4966
  373MOL0     H50355   9.645   1.666   6.004 -0.1034  3.0833  0.0058
  374MOL0     O50356   1.923   3.933   2.373  0.2168  0.0479  0.6748
  374MOL0     C50357   1.804   3.943   2.411 -0.9055  0.4703 -0.2817
  374MOL0     O50358   1.741   4.068   2.425 -0.1845 -0.2773  0.3085
  374MOL0     C50359   1.813   4.183   2.377 -0.0203 -0.3685  0.2846
  374MOL0     C50360   1.795   4.235   2.249  0.6447  0.0346 -0.3167
  374MOL0     C50361   1.874   4.346   2.206 -0.5955  0.2924 -1.5612
  374MOL0     C50362   1.965   4.401   2.296  0.9079 -1.0738  1.4955
  374MOL0     O50363   2.036   4.510   2.241  0.6249  0.2322  0.8533
  374MOL0     C50364   2.154   4.557   2.309  0.2082  0.1812 -0.3026
  374MOL0     C50365   2.226   4.675   2.248 -0.0476 -0.4694 -0.0028
  374MOL0     C50366   2.306   4.634   2.121 -0.0592  0.1259  0.0510
  374MOL0     C50367   2.377   4.757   2.073 -0.8348  0.3601  0.2770
  374MOL0     C50368   2.484   4.723   1.966 -0.1179 -0.4017 -0.7631
  374MOL0     C50369   2.430   4.664   1.836  1.1346  0.1926  0.1685
  374MOL0     C50370   2.550   4.636   1.741  0.1336 -0.0555 -0.3814
  374MOL0     C50371   2.619   4.505   1.793  0.3385 -0.3781  0.4206
  374MOL0     N50372   2.728   4.455   1.706  0.2974  0.6659 -0.4875
  374MOL0     C50373   2.829   4.529   1.641 -0.6246  0.0395  0.4321
  374MOL0     C50374   2.899   4.430   1.582 -0.0187 -0.4398  0.4197
  374MOL0     C50375   3.027   4.449   1.506  0.3814  0.3250 -0.6684
  374MOL0     C50376   2.995   4.546   1.389  0.6722 -0.4327  0.4870
  374MOL0     C50377   3.134   4.605   1.330 -0.0960 -0.0037  0.9090
  374MOL0     C50378   3.127   4.680   1.196  0.4401  1.0088 -0.4202
  374MOL0     O50379   3.047   4.612   1.104  0.0586  0.0372 -0.1676
  374MOL0     C50380   3.098   4.510   1.022  0.2391 -0.0989  1.0531
  374MOL0     C50381   3.014   4.442   0.939 -0.0974 -0.4121 -0.0705
  374MOL0     C50382   3.059   4.346   0.847 -0.2515  0.1039  0.2444
  374MOL0     C50383   2.950   4.286   0.754  0.4312  0.7093 -0.6492
  374MOL0     C50384   3.193   4.307   0.843 -0.2079 -0.3501 -0.1194
  374MOL0     C50385   3.259   4.199   0.765  0.0927  0.6776  0.3003
  374MOL0     O50386   3.398   4.195   0.749 -0.3529 -0.4840  0.5671
  374MOL0     C50387   3.451   4.107   0.658 -0.5175 -0.3883  0.2117
  374MOL0     C50388   3.531   3.998   0.698 -0.0060 -0.4372  0.1231
  374MOL0     C50389   3.580   3.902   0.610 -0.2537  0.5093 -0.4258
  374MOL0     C50390   3.551   3.923   0.473 -0.5655  0.9577  0.5624
  374MOL0     O50391   3.592   3.839   0.373 -0.9301  0.0132  0.2507
  374MOL0     C50392   3.561   3.704   0.382 -0.5210 -0.0590  0.4358
  374MOL0     C50393   3.526   3.656   0.239  1.1433  0.8017 -0.8989
  374MOL0     C50394   3.401   3.568   0.239 -0.6804  0.2328  1.3535
  374MOL0     C50395   3.442   3.420   0.248 -0.4110  0.3464  1.2027
  374MOL0     C50396   3.333   3.318   0.198 -0.2994 -0.0225 -0.0846
  374MOL0     C50397   3.371   3.171   0.232 -0.3480  0.6288 -0.2746
  374MOL0     C50398   3.369   3.131   0.377 -1.0703  0.2059  0.2068
  374MOL0     C50399   3.412   2.984   0.404 -0.1789 -0.9150 -0.5422
  374MOL0    Cl50400   3.543   2.942   0.293  0.3144 -0.4599  0.5035
  374MOL0     C50401   3.478   4.034   0.434 -0.4948 -0.4812  0.4172
  374MOL0     C50402   3.425   4.132   0.525  0.2026  0.8278 -0.6195
  374MOL0     O50403   3.188   4.114   0.719  0.0742  0.2362 -0.3969
  374MOL0     C50404   3.277   4.380   0.928  0.4359  0.0539  0.5766
  374MOL0     C50405   3.230   4.479   1.007  0.0899  0.1861  0.2142
  374MOL0     N50406   2.834   4.311   1.609 -0.1070  0.8004 -0.1876
  374MOL0     N50407   2.736   4.326   1.679  0.3249  0.5519  0.4532
  374MOL0     C50408   1.969   4.359   2.431  0.1813 -0.1650 -0.5639
  374MOL0     C50409   1.896   4.250   2.472  0.3524  0.4008  0.6580
  374MOL0     C50410   1.717   3.832   2.458 -0.8246  0.8943  0.0123
  374MOL0     C50411   1.619   3.843   2.557 -1.4048 -0.3131  0.3122
  374MOL0     C50412   1.565   3.732   2.619  1.4292 -0.7629  0.4486
  374MOL0     C50413   1.588   3.603   2.581 -0.5803 -0.2463 -0.5894
  374MOL0     O50414   1.573   3.490   2.658 -0.3402 -0.2987  0.2258
  374MOL0     C50415   1.502   3.487   2.779  0.4612 -0.0178  0.2292
  374MOL0     C50416   1.500   3.346   2.830  0.8975 -0.0527  0.4845
  374MOL0     C50417   1.423   3.234   2.754  1.2547  0.1095  0.1862
  374MOL0     C50418   1.261   3.259   2.763 -0.0726  0.9431 -0.2078
  374MOL0     C50419   1.182   3.160   2.680  0.3517  0.8774  0.6347
  374MOL0     C50420   1.111   3.087   2.605  0.3386 -0.7422 -0.9298
  374MOL0     C50421   1.677   3.587   2.472  0.3955  0.3523 -0.8430
  374MOL0     C50422   1.726   3.704   2.403  0.3485  0.0676 -0.1441
  374MOL0     H50423   1.708   4.210   2.189  2.4377 -2.7661 -1.9919
  374MOL0     H50424   1.865   4.387   2.106 -1.1672 -0.3264 -1.7699
  374MOL0     H50425   2.110   4.617   2.390 -3.5120 -2.8909  0.2890
  374MOL0     H50426   2.216   4.478   2.353  0.1384  0.1674 -0.2269
  374MOL0     H50427   2.144   4.738   2.213 -2.7386 -4.1537 -1.0533
  374MOL0     H50428   2.295   4.715   2.323  1.6324  3.1639 -3.1675
  374MOL0     H50429   2.371   4.550   2.145 -0.5821 -0.5228 -0.7270
  374MOL0     H50430   2.229   4.610   2.047  1.1829  0.0221 -1.2624
  374MOL0     H50431   2.312   4.837   2.034 -1.1294  1.6389  3.1323
  374MOL0     H50432   2.433   4.807   2.153 -2.2240  1.6187  0.5355
  374MOL0     H50433   2.533   4.813   1.929  0.7372 -0.8246 -0.6704
  374MOL0     H50434   2.552   4.649   2.009  0.7240  0.4355 -0.6462
  374MOL0     H50435   2.381   4.568   1.858  1.3520 -0.5738 -2.3478
  374MOL0     H50436   2.356   4.729   1.788 -0.1636  0.5212  2.4392
  374MOL0     H50437   2.513   4.631   1.638  0.4533  2.8651 -0.7176
  374MOL0     H50438   2.615   4.724   1.739 -0.3029  0.3412  1.2540
  374MOL0     H50439   2.550   4.421   1.807  0.8762 -1.0056 -0.5975
  374MOL0     H50440   2.663   4.534   1.889 -0.7404  1.1027  0.4980
  374MOL0     H50441   2.841   4.636   1.627 -1.8672  0.0096 -1.2093
  374MOL0     H50442   3.103   4.487   1.574  0.2220 -0.2817 -0.1448
  374MOL0     H50443   3.066   4.361   1.455 -0.8141 -0.8542  0.3919
  374MOL0     H50444   2.942   4.638   1.414  4.6791  2.2672  0.0663
  374MOL0     H50445   2.935   4.501   1.309 -2.1339  2.0106  1.0233
  374MOL0     H50446   3.208   4.524   1.326  1.2027  1.1975 -0.8495
  374MOL0     H50447   3.174   4.681   1.397 -2.0810  2.4084 -0.4669
  374MOL0     H50448   3.224   4.713   1.159  0.9035 -0.6178 -0.7278
  374MOL0     H50449   3.072   4.772   1.217 -2.3831 -0.6475 -0.0177
  374MOL0     H50450   2.907   4.458   0.946 -0.1035 -0.9878  1.3707
  374MOL0     H50451   2.958   4.180   0.778 -3.6049  0.6412  1.3351
  374MOL0     H50452   2.848   4.323   0.772 -1.5646 -3.5552 -1.9209
  374MOL0     H50453   2.978   4.297   0.649  1.1706 -0.2178 -0.5631
  374MOL0     H50454   3.537   3.992   0.806 -4.8732  0.3148  0.6587
  374MOL0     H50455   3.636   3.815   0.642 -1.4710 -0.5495 -1.0701
  374MOL0     H50456   3.645   3.644   0.420 -0.8210 -1.2491 -0.7165
  374MOL0     H50457   3.473   3.679   0.442  1.2751 -4.5734  1.6830
  374MOL0     H50458   3.484   3.741   0.185 -0.1924  0.4234 -0.4894
  374MOL0     H50459   3.607   3.595   0.197  0.9126 -1.4519  1.6507
  374MOL0     H50460   3.354   3.602   0.146  0.3395  2.5854  1.6303
  374MOL0     H50461   3.337   3.607   0.318  0.9127  3.6599  1.1263
  374MOL0     H50462   3.533   3.396   0.193 -0.7509  0.8404  0.4045
  374MOL0     H50463   3.470   3.397   0.351 -1.3942 -1.1274  1.1845
  374MOL0     H50464   3.322   3.324   0.090 -0.3977 -0.4164 -0.0995
  374MOL0     H50465   3.234   3.330   0.242 -0.6224  1.7847 -1.2094
  374MOL0     H50466   3.293   3.114   0.181  1.3659 -2.3216  0.1755
  374MOL0     H50467   3.468   3.154   0.185 -1.4166 -3.3789 -1.4981
  374MOL0     H50468   3.268   3.154   0.413  0.0026  0.6441  3.3120
  374MOL0     H50469   3.443   3.191   0.431 -1.6336  1.1202 -0.0043
  374MOL0     H50470   3.325   2.921   0.385 -2.0368  1.0666  0.8677
  374MOL0     H50471   3.449   2.969   0.506  3.4102  0.4951 -1.4946
  374MOL0     H50472   3.472   4.071   0.332 -1.8235  2.2985  1.4036
  374MOL0     H50473   3.373   4.221   0.492 -1.8881 -0.9000 -2.3438
  374MOL0     H50474   3.384   4.364   0.942  0.2984  0.9925  3.2951
  374MOL0     H50475   3.298   4.542   1.065 -2.8850  2.7206  1.2216
  374MOL0     H50476   2.047   4.406   2.490  1.9762 -0.9921 -2.1421
  374MOL0     H50477   1.909   4.197   2.566  5.9091 -1.9893 -1.0122
  374MOL0     H50478   1.614   3.938   2.611  1.7447 -0.8155  1.7012
  374MOL0     H50479   1.486   3.738   2.694 -0.8484  0.6039 -1.8608
  374MOL0     H50480   1.531   3.549   2.865  1.3116  2.4987 -1.7553
  374MOL0     H50481   1.396   3.511   2.764  0.3558  1.1156  2.3364
  374MOL0     H50482   1.462   3.351   2.933 -1.4639  2.3010 -0.3608
  374MOL0     H50483   1.603   3.313   2.845  1.2668  0.7025 -0.2713
  374MOL0     H50484   1.442   3.133   2.791  0.8849  0.5420  1.5805
  374MOL0     H50485   1.458   3.234   2.650  1.7533 -2.4103  0.2933
  374MOL0     H50486   1.240   3.360   2.727 -1.0827  0.5426 -0.7679
  374MOL0     H50487   1.222   3.250   2.865  0.1475  0.1459 -0.1864
  374MOL0     H50488   1.038   3.030   2.551 -0.2767 -2.3035  1.3984
  374MOL0     H50489   1.723   3.493   2.442  0.1318 -1.1465  2.9133
  374MOL0     H50490   1.791   3.665   2.325 -2.9623  0.8027 -3.5686
  375MOL0     O50491   4.866  10.642   7.222  0.4142 -0.0054  0.0214
  375MOL0     C50492   4.944  10.554   7.184  0.5857 -0.0028 -0.4222
  375MOL0     O50493   4.963  10.427   7.226  0.3055 -0.3762 -0.0989
  375MOL0     C50494   4.911  10.394   7.344  0.0372  0.6559 -0.2768
  375MOL0     C50495   4.999  10.359   7.443 -0.2123  0.4863  0.6921
  375MOL0     C50496   4.949  10.347   7.573  0.2567 -0.1393  0.4379
  375MOL0     C50497   4.810  10.346   7.599  0.6161  0.0233  0.5371
  375MOL0     O50498   4.773  10.311   7.730  0.3257  0.3678 -0.4055
  375MOL0     C50499   4.652  10.245   7.743 -0.3561  0.0903  0.0579
  375MOL0     C50500   4.618  10.203   7.887 -0.4435  0.5154 -1.1681
  375MOL0     C50501   4.718  10.101   7.949 -0.1652 -0.6906 -0.1545
  375MOL0     C50502   4.721   9.956   7.892 -0.7347 -0.3605 -0.2353
  375MOL0     C50503   4.841   9.876   7.957  0.2177  0.2055  0.1574
  375MOL0     C50504   4.803   9.828   8.094 -0.2402  0.0452 -0.8363
  375MOL0     C50505   4.935   9.765   8.155  0.3008 -0.6978  0.2762
  375MOL0     C50506   5.007   9.861   8.245 -0.3296 -0.0245  0.6822
  375MOL0     N50507   5.125   9.804   8.308 -0.6162 -1.0212 -0.3977
  375MOL0     C50508   5.129   9.712   8.414 -0.3611  0.8862  0.3626
  375MOL0     C50509   5.253   9.661   8.412 -0.6030 -0.3991  0.8059
  375MOL0     C50510   5.310   9.544   8.489  0.2169  0.2152  0.8301
  375MOL0     C50511   5.231   9.479   8.598 -0.1063 -0.1446  0.2043
  375MOL0     C50512   5.231   9.325   8.592 -0.4369  0.6241 -0.5097
  375MOL0     C50513   5.116   9.283   8.694 -0.7501 -0.5155  0.5496
  375MOL0     O50514   5.121   9.140   8.709 -0.0312  0.2588  0.5448
  375MOL0     C50515   5.081   9.089   8.833 -0.3721  0.6914 -1.3133
  375MOL0     C50516   4.990   9.158   8.923 -0.6264  0.7221  0.4311
  375MOL0     C50517   4.952   9.087   9.041  0.4094  0.6786 -0.3352
  375MOL0     C50518   4.883   9.171   9.137  0.8458 -1.1940 -0.3340
  375MOL0     C50519   4.987   8.953   9.059  0.9288 -0.3495 -0.4579
  375MOL0     C50520   4.935   8.858   9.168 -0.2169 -0.2016  0.4460
  375MOL0     O50521   4.942   8.726   9.143 -0.2587  0.1154  0.1969
  375MOL0     C50522   4.892   8.630   9.226  0.2945  0.5143  0.1614
  375MOL0     C50523   4.989   8.531   9.272  0.0583  0.1196 -0.0685
  375MOL0     C50524   4.939   8.416   9.336  0.9846 -0.5719 -1.1704
  375MOL0     C50525   4.798   8.403   9.363 -0.6189  0.5494  0.3074
  375MOL0     O50526   4.744   8.286   9.424  0.5546  0.3234 -0.3484
  375MOL0     C50527   4.743   8.296   9.570 -0.5107 -1.3696 -0.9701
  375MOL0     C50528   4.621   8.377   9.609  0.8887  0.2707  0.6332
  375MOL0     C50529   4.599   8.378   9.761 -0.4434 -0.4757  0.0141
  375MOL0     C50530   4.525   8.250   9.812 -0.3470  0.8398 -0.0273
  375MOL0     C50531   4.516   8.248   9.957  0.0796  0.8647 -0.6373
  375MOL0     C50532   4.404   8.155  10.003 -0.0874  0.5621 -1.2707
  375MOL0     C50533   4.401   8.126  10.160 -0.8702  0.4244 -0.5817
  375MOL0     C50534   4.305   8.023  10.185  0.3545  0.2420 -0.0289
  375MOL0    Cl50535   4.377   7.860  10.144  0.2341 -0.0021 -0.6186
  375MOL0     C50536   4.708   8.506   9.324 -0.4903  1.1499 -0.1882
  375MOL0     C50537   4.754   8.615   9.253  0.2016  0.1812  0.2876
  375MOL0     O50538   4.888   8.907   9.272 -0.8276  0.2763  0.3009
  375MOL0     C50539   5.058   8.893   8.958  0.2568  0.9979  0.7629
  375MOL0     C50540   5.111   8.960   8.857  0.5235  0.3560 -0.4073
  375MOL0     N50541   5.319   9.724   8.309 -0.6769 -0.4425  0.2796
  375MOL0     N50542   5.245   9.799   8.241  0.4133 -0.0302  0.6359
  375MOL0     C50543   4.728  10.362   7.493 -0.3021 -0.8638  1.2948
  375MOL0     C50544   4.770  10.391   7.364 -0.2843  0.6261 -0.2822
  375MOL0     C50545   5.027  10.589   7.072 -0.5640 -0.8206  0.5518
  375MOL0     C50546   5.023  10.714   7.000  0.7349 -0.0531 -0.5454
  375MOL0     C50547   5.122  10.758   6.915  0.0778  0.8019  0.4139
  375MOL0     C50548   5.227  10.674   6.882  0.8342 -0.4527  0.0938
  375MOL0     O50549   5.312  10.713   6.788  0.4383  0.0424  0.2233
  375MOL0     C50550   5.371  10.629   6.686  0.2111 -0.3710  0.3276
  375MOL0     C50551   5.449  10.706   6.567 -0.4868  1.1779  0.0730
  375MOL0     C50552   5.576  10.757   6.633  0.2306 -0.4130  0.1863
  375MOL0     C50553   5.621  10.854   6.532 -0.0232 -1.6367  0.7757
  375MOL0     C50554   5.675  10.786   6.415 -0.1247 -0.3962 -0.0950
  375MOL0     C50555   5.733  10.724   6.324 -0.6410  0.1940  0.0459
  375MOL0     C50556   5.222  10.549   6.934  0.0284  0.7167  1.4065
  375MOL0     C50557   5.129  10.512   7.019  1.0407  0.1074 -0.5822
  375MOL0     H50558   5.105  10.374   7.428 -0.3253  1.8769  1.1755
  375MOL0     H50559   5.010  10.323   7.659 -1.9885 -1.6427  1.7179
  375MOL0     H50560   4.572  10.314   7.714  0.2923  0.5427 -0.7178
  375MOL0     H50561   4.650  10.158   7.677  5.4829 -0.6794  0.3742
  375MOL0     H50562   4.589  10.283   7.956 -0.6698 -1.8089  1.6373
  375MOL0     H50563   4.527  10.143   7.881  0.5626 -1.1579 -0.4148
  375MOL0     H50564   4.821  10.134   7.932 -0.8592  1.1629 -1.0046
  375MOL0     H50565   4.701  10.101   8.057  1.4934 -2.7320  0.1778
  375MOL0     H50566   4.622   9.913   7.911 -0.4088 -0.5511  1.1211
  375MOL0     H50567   4.727   9.974   7.784 -1.3272  0.6731 -0.1185
  375MOL0     H50568   4.879   9.786   7.907  0.7758 -0.2186  1.3041
  375MOL0     H50569   4.924   9.947   7.965 -0.8353  1.6060 -0.8805
  375MOL0     H50570   4.763   9.914   8.148  0.0805 -0.2840 -0.0534
  375MOL0     H50571   4.728   9.750   8.086 -0.0603 -0.0224 -2.0092
  375MOL0     H50572   4.912   9.674   8.210  0.4521 -2.3202 -2.1754
  375MOL0     H50573   4.994   9.717   8.077 -3.7309 -2.2050 -2.1906
  375MOL0     H50574   4.933   9.883   8.322  0.2644  0.3921  1.1470
  375MOL0     H50575   5.022   9.955   8.191 -4.5226 -0.0709 -0.8796
  375MOL0     H50576   5.044   9.685   8.475  0.4729 -3.1761  0.0064
  375MOL0     H50577   5.334   9.464   8.419 -1.9693 -1.7388  2.1657
  375MOL0     H50578   5.403   9.570   8.542  1.7839  0.0754 -1.6674
  375MOL0     H50579   5.128   9.512   8.584 -0.4262 -0.7478  1.0046
  375MOL0     H50580   5.292   9.494   8.688  0.9364 -2.8199  0.0569
  375MOL0     H50581   5.322   9.275   8.626 -0.8343 -1.5414 -2.3650
  375MOL0     H50582   5.200   9.284   8.496 -1.3893 -0.6379  0.2983
  375MOL0     H50583   5.020   9.311   8.650 -0.4348 -0.8217 -0.3443
  375MOL0     H50584   5.127   9.346   8.783  1.4591  1.6281 -1.0875
  375MOL0     H50585   4.955   9.257   8.895  0.4029  2.0676  3.4623
  375MOL0     H50586   4.781   9.132   9.144  1.1876 -2.4181 -1.7366
  375MOL0     H50587   4.931   9.171   9.236  0.3359 -0.0581 -0.0724
  375MOL0     H50588   4.882   9.278   9.113  0.2145 -1.0000  0.5071
  375MOL0     H50589   5.092   8.534   9.237 -0.7372 -2.5916 -3.0900
  375MOL0     H50590   5.007   8.335   9.362  3.0935  0.9087 -1.8302
  375MOL0     H50591   4.744   8.190   9.597  0.7537 -0.9020  0.9943
  375MOL0     H50592   4.828   8.354   9.608 -2.5099 -0.1985  2.1117
  375MOL0     H50593   4.640   8.481   9.582 -2.9875  1.1613  0.7598
  375MOL0     H50594   4.537   8.338   9.552  2.4420 -1.1487 -0.7964
  375MOL0     H50595   4.549   8.473   9.785  0.9291  0.9489 -2.3113
  375MOL0     H50596   4.698   8.395   9.803  0.8934  0.9653 -3.3565
  375MOL0     H50597   4.429   8.236   9.762  0.1431  0.9718 -1.0272
  375MOL0     H50598   4.582   8.161   9.785  0.3451  1.3679 -0.3571
  375MOL0     H50599   4.523   8.349  10.000  1.6824  0.3354  0.4102
  375MOL0     H50600   4.602   8.188   9.985 -2.1039 -1.5125  1.6080
  375MOL0     H50601   4.313   8.212   9.981 -1.5634 -1.2649 -0.2164
  375MOL0     H50602   4.406   8.063   9.945  3.3285 -0.8007  0.6978
  375MOL0     H50603   4.369   8.214  10.216 -4.4357 -2.0277  1.6538
  375MOL0     H50604   4.496   8.091  10.200 -0.7484  1.8868  0.4719
  375MOL0     H50605   4.220   8.045  10.119  0.7920  0.4769 -0.5207
  375MOL0     H50606   4.279   8.029  10.291  2.3068 -0.8669  0.5699
  375MOL0     H50607   4.604   8.494   9.354  0.5389 -0.4991  3.1656
  375MOL0     H50608   4.693   8.699   9.221 -2.7438 -1.1339  2.0419
  375MOL0     H50609   5.069   8.785   8.961 -0.3204  0.8222 -1.4274
  375MOL0     H50610   5.164   8.908   8.778 -0.6362  2.4168 -2.6746
  375MOL0     H50611   4.622  10.364   7.514 -1.0702 -0.1999 -2.1242
  375MOL0     H50612   4.707  10.412   7.278  2.9420  2.9569 -2.3234
  375MOL0     H50613   4.934  10.774   7.019 -0.3820 -1.3733 -1.4259
  375MOL0     H50614   5.125  10.860   6.877  1.3626 -0.1618 -2.2955
  375MOL0     H50615   5.441  10.560   6.732  1.3120  1.8252  2.1390
  375MOL0     H50616   5.291  10.570   6.639 -0.4239  0.8428 -0.1783
  375MOL0     H50617   5.390  10.783   6.516 -2.9827 -2.4085 -3.0579
  375MOL0     H50618   5.476  10.628   6.494 -0.9067  1.3853 -0.3108
  375MOL0     H50619   5.648  10.676   6.646 -0.1670 -0.7944  0.0168
  375MOL0     H50620   5.558  10.811   6.726 -1.0357  0.2032 -0.4001
  375MOL0     H50621   5.696  10.923   6.570 -1.0339 -1.3358  2.3069
  375MOL0     H50622   5.538  10.924   6.515 -0.4952 -1.7868  2.3454
  375MOL0     H50623   5.771  10.678   6.235 -2.2299  0.8931 -1.0368
  375MOL0     H50624   5.296  10.474   6.909 -2.4422 -2.9650  4.0995
  375MOL0     H50625   5.138  10.410   7.055 -1.3113 -0.6890 -1.9991
  376MOL0     O50626   5.885   5.667  10.658 -0.5177  0.9361 -0.4105
  376MOL0     C50627   5.823   5.631  10.751  0.6450 -0.0595  0.2896
  376MOL0     O50628   5.702   5.568  10.745  0.1403 -0.1910 -0.1098
  376MOL0     C50629   5.646   5.535  10.624  1.4838 -0.6216  0.4493
  376MOL0     C50630   5.507   5.515  10.612  1.1252 -0.7539 -0.0343
  376MOL0     C50631   5.439   5.489  10.494  0.8022 -0.4612 -0.9184
  376MOL0     C50632   5.509   5.460  10.379  0.3852  0.2936  0.2685
  376MOL0     O50633   5.439   5.422  10.263 -0.2758 -0.7672 -0.3358
  376MOL0     C50634   5.516   5.386  10.149  0.0579 -0.1111  0.0714
  376MOL0     C50635   5.425   5.329  10.042 -0.1336  0.3791  0.4755
  376MOL0     C50636   5.505   5.331   9.920 -0.3316 -0.3339  0.3509
  376MOL0     C50637   5.424   5.308   9.795  0.4172  0.4513 -0.6511
  376MOL0     C50638   5.500   5.280   9.666 -0.2475  0.1833  1.7243
  376MOL0     C50639   5.565   5.147   9.634  1.0015 -0.2614 -0.1486
  376MOL0     C50640   5.609   5.144   9.488 -0.9532  0.4361 -1.3795
  376MOL0     C50641   5.738   5.230   9.458  0.0773 -0.0866  0.1110
  376MOL0     N50642   5.865   5.189   9.533 -0.0710  0.0739  0.3149
  376MOL0     C50643   5.993   5.243   9.524  0.0074 -1.0531  0.3131
  376MOL0     C50644   6.069   5.170   9.613 -0.9384 -0.2059 -0.5240
  376MOL0     C50645   6.219   5.199   9.637  0.2630  0.8992  0.1901
  376MOL0     C50646   6.249   5.204   9.789  0.0214  0.7377 -0.1240
  376MOL0     C50647   6.224   5.347   9.841 -0.2574  0.1857 -0.2728
  376MOL0     C50648   6.296   5.374   9.968  0.0444  0.5748  0.1187
  376MOL0     O50649   6.439   5.360   9.952  0.6233  0.8754 -0.1112
  376MOL0     C50650   6.523   5.403  10.051  0.5066  0.3558 -1.3086
  376MOL0     C50651   6.658   5.425  10.022  1.1907  0.2088  0.1756
  376MOL0     C50652   6.746   5.484  10.110 -0.1451  0.9614 -0.1183
  376MOL0     C50653   6.882   5.497  10.054 -0.9129  0.0670 -0.4209
  376MOL0     C50654   6.700   5.514  10.239  0.2252  0.6497 -0.5724
  376MOL0     C50655   6.779   5.587  10.346 -0.7053 -0.5614  0.5348
  376MOL0     O50656   6.888   5.659  10.305 -0.2444  0.3523  0.5130
  376MOL0     C50657   6.952   5.716  10.415  0.7365 -0.1590  0.9945
  376MOL0     C50658   7.043   5.646  10.496 -0.2908  0.4279  1.6142
  376MOL0     C50659   7.104   5.709  10.605 -0.5714  0.1009  1.4857
  376MOL0     C50660   7.067   5.835  10.634 -0.5407 -0.3431  0.2063
  376MOL0     O50661   7.109   5.897  10.751 -0.7715 -0.2385 -0.6867
  376MOL0     C50662   7.046   5.854  10.873  0.5849 -0.2198 -0.1892
  376MOL0     C50663   7.145   5.825  10.984  0.5017  0.2782  0.1929
  376MOL0     C50664   7.250   5.721  10.947  0.4594  0.8639 -0.5860
  376MOL0     C50665   7.346   5.697  11.069 -0.0159  0.5187 -0.0882
  376MOL0     C50666   7.432   5.574  11.041  0.9426 -0.4641  0.9260
  376MOL0     C50667   7.559   5.564  11.134 -0.0177  0.0780  0.0449
  376MOL0     C50668   7.515   5.536  11.281  0.3440 -0.1422  0.2048
  376MOL0     C50669   7.630   5.514  11.373 -0.5336 -0.8866 -0.0250
  376MOL0    Cl50670   7.733   5.654  11.382  0.0997 -0.0303  0.8623
  376MOL0     C50671   6.967   5.897  10.555  0.1248  0.0015  0.0146
  376MOL0     C50672   6.920   5.842  10.446  0.4275  0.0163  0.0684
  376MOL0     O50673   6.743   5.578  10.463  0.9406 -0.4168 -1.0859
  376MOL0     C50674   6.563   5.477  10.277 -1.8547 -0.6033 -0.3464
  376MOL0     C50675   6.476   5.428  10.181  1.0340  0.1331  0.5528
  376MOL0     N50676   6.001   5.067   9.666 -0.6623  0.0759  0.0145
  376MOL0     N50677   5.885   5.079   9.622  0.4800  0.7204  0.4264
  376MOL0     C50678   5.647   5.481  10.382  0.3432  0.2752  1.1417
  376MOL0     C50679   5.713   5.520  10.499 -0.4706  0.5107  0.2588
  376MOL0     C50680   5.879   5.666  10.887 -0.0251 -0.0069 -0.1787
  376MOL0     C50681   6.006   5.735  10.906  0.1969  0.3167  0.0945
  376MOL0     C50682   6.079   5.733  11.033  0.3535  0.0955  0.6904
  376MOL0     C50683   6.017   5.673  11.138  0.1040  0.4658  0.2033
  376MOL0     O50684   6.068   5.659  11.262 -0.5515  0.2382  0.2560
  376MOL0     C50685   6.198   5.725  11.290  0.0553  0.1920  0.4393
  376MOL0     C50686   6.247   5.717  11.434  0.7014  0.2112 -0.0756
  376MOL0     C50687   6.157   5.801  11.527  0.6569 -0.2079  0.2450
  376MOL0     C50688   6.180   5.786  11.682 -0.8032 -0.8818 -0.2971
  376MOL0     C50689   6.311   5.844  11.712 -0.6790  0.5045  0.1362
  376MOL0     C50690   6.418   5.899  11.725  0.8199  0.6161 -0.2312
  376MOL0     C50691   5.890   5.614  11.121  0.1294 -1.1604  0.9382
  376MOL0     C50692   5.832   5.603  11.002  0.3647 -0.8436  0.5980
  376MOL0     H50693   5.445   5.534  10.700  0.0013 -0.1099 -0.9355
  376MOL0     H50694   5.331   5.493  10.497  0.8349 -0.0095  0.0656
  376MOL0     H50695   5.556   5.483  10.117  0.8060 -0.1579  0.8377
  376MOL0     H50696   5.603   5.322  10.167  0.5324 -0.5285 -3.0784
  376MOL0     H50697   5.382   5.237  10.082 -2.6616  1.8475  1.3479
  376MOL0     H50698   5.342   5.400  10.033 -1.1120 -0.6656  1.0151
  376MOL0     H50699   5.566   5.422   9.919  0.7874 -1.0747 -0.4244
  376MOL0     H50700   5.580   5.252   9.919 -1.1020 -1.1006 -0.9928
  376MOL0     H50701   5.351   5.229   9.813 -1.3903  1.9681 -1.0384
  376MOL0     H50702   5.367   5.399   9.779 -0.6359  0.1011  0.8960
  376MOL0     H50703   5.430   5.312   9.589  0.5695  0.5883  1.1369
  376MOL0     H50704   5.578   5.357   9.671  1.3992 -1.2624 -0.1858
  376MOL0     H50705   5.653   5.142   9.699  2.6186  1.0890 -2.0815
  376MOL0     H50706   5.494   5.065   9.649 -0.4862  0.7997 -1.1456
  376MOL0     H50707   5.628   5.038   9.474 -1.6793 -0.3019  2.3271
  376MOL0     H50708   5.535   5.183   9.417 -0.1165 -0.4163 -2.7544
  376MOL0     H50709   5.710   5.330   9.491 -1.7944 -0.7364  0.6343
  376MOL0     H50710   5.782   5.219   9.359  2.4902  1.7787  0.8846
  376MOL0     H50711   6.019   5.327   9.461  2.9619 -0.8885  1.6020
  376MOL0     H50712   6.276   5.118   9.590  1.1570  0.7022  1.5586
  376MOL0     H50713   6.249   5.290   9.586 -1.1896 -0.0974 -2.6173
  376MOL0     H50714   6.352   5.172   9.806  0.3410  1.0184 -1.3765
  376MOL0     H50715   6.186   5.135   9.845  1.6407 -2.0959 -1.6036
  376MOL0     H50716   6.116   5.341   9.858  0.2347 -2.9177  3.1131
  376MOL0     H50717   6.226   5.425   9.765 -1.0615 -1.1881 -1.7786
  376MOL0     H50718   6.250   5.313  10.046 -3.0399  2.1573 -0.2848
  376MOL0     H50719   6.267   5.476   9.998  0.0760  0.8385 -0.7117
  376MOL0     H50720   6.695   5.411   9.921 -0.5257  2.7886 -0.9243
  376MOL0     H50721   6.899   5.447   9.958  3.1409 -0.5418  0.3933
  376MOL0     H50722   6.908   5.601  10.032 -2.9909  0.4080 -1.4686
  376MOL0     H50723   6.962   5.456  10.117  2.5440  2.6235 -2.7278
  376MOL0     H50724   7.055   5.541  10.473 -1.6656  0.6882 -0.6103
  376MOL0     H50725   7.180   5.658  10.665 -0.9332 -1.9005  0.3455
  376MOL0     H50726   6.979   5.931  10.914  0.2898 -1.4441  1.7763
  376MOL0     H50727   6.997   5.759  10.855 -0.4362  0.0191  1.1216
  376MOL0     H50728   7.199   5.919  11.004  1.4526 -0.0844 -0.5874
  376MOL0     H50729   7.091   5.786  11.070 -1.6952 -4.1675 -2.8553
  376MOL0     H50730   7.310   5.759  10.865 -0.4562  0.2737 -1.5529
  376MOL0     H50731   7.202   5.627  10.917 -0.6935  1.0759  0.5117
  376MOL0     H50732   7.411   5.781  11.092  0.5606  0.1249 -0.2614
  376MOL0     H50733   7.283   5.692  11.158  1.2110  0.5974  0.7948
  376MOL0     H50734   7.457   5.582  10.935  0.0432 -1.3818  0.6324
  376MOL0     H50735   7.369   5.485  11.052  0.3440  0.0111  1.4968
  376MOL0     H50736   7.624   5.480  11.109 -1.3372 -0.9134 -0.1696
  376MOL0     H50737   7.625   5.650  11.127  0.8364 -0.5430  0.2582
  376MOL0     H50738   7.442   5.455  11.282  0.5602 -0.3778 -1.1892
  376MOL0     H50739   7.473   5.633  11.311  1.9901 -0.0107  2.3379
  376MOL0     H50740   7.693   5.428  11.346  3.5403  1.9922 -0.7352
  376MOL0     H50741   7.596   5.505  11.476  3.4952  0.5192  1.6530
  376MOL0     H50742   6.928   5.994  10.586 -1.4743  0.1740 -2.2696
  376MOL0     H50743   6.841   5.896  10.393 -0.6509 -0.1301  1.4713
  376MOL0     H50744   6.538   5.480  10.382  1.0491  2.3628  0.4235
  376MOL0     H50745   6.379   5.403  10.223  2.0764  0.0897  3.1141
  376MOL0     H50746   5.715   5.470  10.299 -0.1492 -1.5822  0.9467
  376MOL0     H50747   5.821   5.533  10.493 -0.4409 -0.1065 -0.7749
  376MOL0     H50748   6.031   5.792  10.817 -1.3006  1.8161  0.5748
  376MOL0     H50749   6.171   5.789  11.045 -0.6474  1.7950  0.7532
  376MOL0     H50750   6.279   5.674  11.238  0.4864 -0.5100  1.7541
  376MOL0     H50751   6.198   5.832  11.269  0.3466 -0.2297 -1.9625
  376MOL0     H50752   6.353   5.746  11.439  1.7425 -2.6125 -2.5526
  376MOL0     H50753   6.245   5.615  11.474 -1.9019  0.5076  0.7103
  376MOL0     H50754   6.057   5.767  11.501  1.0715 -1.0895 -0.2546
  376MOL0     H50755   6.170   5.907  11.504 -2.9727  0.9210  2.6440
  376MOL0     H50756   6.169   5.679  11.704 -4.9315 -1.0055 -2.0138
  376MOL0     H50757   6.105   5.849  11.731 -1.3873  0.1917 -2.4231
  376MOL0     H50758   6.511   5.951  11.736  1.4445 -0.4528 -0.3755
  376MOL0     H50759   5.846   5.567  11.208 -0.4683 -0.5565  0.9721
  376MOL0     H50760   5.753   5.529  11.004  1.0343 -1.7280 -1.8472
  377MOL0     O50761   4.107   4.413  11.271  0.9553 -0.7060  0.0452
  377MOL0     C50762   4.032   4.501  11.318  0.6327 -0.8708 -1.0237
  377MOL0     O50763   3.927   4.561  11.237 -0.0982 -0.7314 -0.3078
  377MOL0     C50764   3.927   4.568  11.101  0.6439 -0.0211 -0.6532
  377MOL0     C50765   3.825   4.644  11.038 -0.0904  0.0225 -1.3521
  377MOL0     C50766   3.812   4.642  10.899 -1.0873 -0.5349 -0.5372
  377MOL0     C50767   3.907   4.579  10.818 -1.2641  1.5030 -0.3019
  377MOL0     O50768   3.896   4.578  10.680  0.8307 -0.0128 -0.9426
  377MOL0     C50769   3.959   4.470  10.612 -0.8769  0.8466 -1.2770
  377MOL0     C50770   3.902   4.454  10.473 -0.2193  0.4455 -0.7210
  377MOL0     C50771   3.997   4.369  10.392  0.1526  0.1805  0.5160
  377MOL0     C50772   3.928   4.313  10.266 -0.2000  0.1074 -0.0350
  377MOL0     C50773   3.890   4.433  10.164 -1.6677 -0.4673 -0.1127
  377MOL0     C50774   3.856   4.385  10.018 -0.1273 -0.3546  0.2174
  377MOL0     C50775   3.745   4.272  10.016 -0.2941 -0.6388 -0.3653
  377MOL0     C50776   3.610   4.306  10.078 -0.4866  0.4797 -0.8064
  377MOL0     N50777   3.550   4.423  10.027  1.2654  0.2988 -0.2579
  377MOL0     C50778   3.504   4.440   9.893  0.1644 -0.9005  0.4207
  377MOL0     C50779   3.446   4.557   9.886 -0.6568 -0.6581  0.3286
  377MOL0     C50780   3.395   4.632   9.765  0.8806 -0.7997 -0.8445
  377MOL0     C50781   3.266   4.723   9.812  0.0487  0.6488 -0.0420
  377MOL0     C50782   3.302   4.869   9.844 -0.3216  0.6694  0.4330
  377MOL0     C50783   3.284   4.963   9.726 -0.1256  0.2468  0.3890
  377MOL0     O50784   3.380   4.940   9.634  0.4258  0.1915  0.0733
  377MOL0     C50785   3.388   5.010   9.517  0.4118  0.2296 -0.2064
  377MOL0     C50786   3.480   4.963   9.423 -0.2194  0.5165 -0.4501
  377MOL0     C50787   3.494   5.029   9.303  0.1170 -0.4071  0.4638
  377MOL0     C50788   3.590   4.964   9.197  0.1279 -0.3026 -0.7376
  377MOL0     C50789   3.429   5.152   9.281  1.0377  0.8964  0.2914
  377MOL0     C50790   3.451   5.225   9.156 -0.5026  0.0236 -0.4351
  377MOL0     O50791   3.475   5.365   9.176 -0.1414  0.6073  0.2138
  377MOL0     C50792   3.521   5.438   9.069  0.5984 -0.3500  0.0121
  377MOL0     C50793   3.623   5.399   8.978  0.0846 -0.5569  0.3379
  377MOL0     C50794   3.659   5.490   8.876 -0.4019  0.5746 -0.5252
  377MOL0     C50795   3.587   5.614   8.853  0.1001  0.3332  0.0283
  377MOL0     O50796   3.618   5.705   8.751  0.1709  0.4724 -0.3385
  377MOL0     C50797   3.754   5.722   8.738  1.0339  0.2857 -0.5927
  377MOL0     C50798   3.764   5.861   8.684 -0.2063  1.0416 -0.5654
  377MOL0     C50799   3.682   5.904   8.561  0.0556  0.2745  0.0225
  377MOL0     C50800   3.697   5.806   8.452  0.2828 -0.4519 -0.5118
  377MOL0     C50801   3.661   5.865   8.312  0.0716 -0.0547 -0.7051
  377MOL0     C50802   3.719   5.773   8.203 -1.0701  0.3889  0.4573
  377MOL0     C50803   3.718   5.845   8.065  0.3151  0.8515 -0.9960
  377MOL0     C50804   3.586   5.846   8.007 -0.2179  0.8029  1.5012
  377MOL0    Cl50805   3.537   5.682   7.936  0.3315 -0.0179  0.4834
  377MOL0     C50806   3.486   5.655   8.944 -0.0611  1.0289  0.7264
  377MOL0     C50807   3.466   5.570   9.054  0.3399 -0.5112  0.6426
  377MOL0     O50808   3.441   5.166   9.052  0.2790  0.5792 -0.5315
  377MOL0     C50809   3.334   5.198   9.376  0.1996 -0.0963  0.1739
  377MOL0     C50810   3.312   5.125   9.490 -0.0735 -0.0852  0.4396
  377MOL0     N50811   3.475   4.619  10.003 -0.3091 -0.7818 -0.9400
  377MOL0     N50812   3.528   4.536  10.093  0.7695 -0.3946  0.0518
  377MOL0     C50813   4.010   4.515  10.886 -0.4277 -0.1660  0.6442
  377MOL0     C50814   4.018   4.502  11.020  0.3123  0.3962  0.3599
  377MOL0     C50815   4.054   4.530  11.466 -0.9923  0.3262  0.0447
  377MOL0     C50816   4.014   4.660  11.519 -0.8028  0.0148 -0.2560
  377MOL0     C50817   4.057   4.698  11.650  0.1481  0.7247 -0.4407
  377MOL0     C50818   4.117   4.604  11.733 -0.5414  0.7290 -0.6992
  377MOL0     O50819   4.145   4.642  11.865 -0.7601  0.4331 -0.8622
  377MOL0     C50820   4.079   4.752  11.922 -0.8020 -0.3047  0.1192
  377MOL0     C50821   3.928   4.758  11.931  0.9510 -0.2988 -0.4731
  377MOL0     C50822   3.884   4.847  12.049  0.2032 -0.2499 -0.3913
  377MOL0     C50823   3.725   4.851  12.046  0.5906 -0.9158  0.1187
  377MOL0     C50824   3.671   4.972  12.118 -0.5045 -0.1901  0.3454
  377MOL0     C50825   3.614   5.064  12.173 -0.0752  0.7985  0.4009
  377MOL0     C50826   4.148   4.475  11.684  0.7324 -1.0687  0.1844
  377MOL0     C50827   4.132   4.442  11.550 -0.1980 -0.3397 -0.1182
  377MOL0     H50828   3.752   4.694  11.101 -0.9110 -2.8260  0.0931
  377MOL0     H50829   3.719   4.682  10.859 -0.9091  0.0744 -0.3560
  377MOL0     H50830   4.065   4.489  10.593  0.5812 -3.2282  1.4947
  377MOL0     H50831   3.951   4.370  10.656  0.3765 -0.9714 -4.8369
  377MOL0     H50832   3.806   4.401  10.482  1.5063 -2.5565  1.9619
  377MOL0     H50833   3.895   4.552  10.424 -1.5237 -0.8621 -3.3744
  377MOL0     H50834   4.082   4.432  10.364 -0.1983  1.5061  2.2572
  377MOL0     H50835   4.042   4.285  10.445  0.6203 -0.8930 -1.4828
  377MOL0     H50836   3.995   4.238  10.223 -0.4765 -0.6074  0.7450
  377MOL0     H50837   3.841   4.257  10.302  0.5377 -0.5889  0.7081
  377MOL0     H50838   3.798   4.477  10.204 -1.5852 -0.5129  0.1285
  377MOL0     H50839   3.962   4.515  10.168 -2.2272  0.0738 -0.8037
  377MOL0     H50840   3.804   4.470   9.972 -1.7949 -0.4650  1.7826
  377MOL0     H50841   3.950   4.358   9.968 -0.3996 -0.1213 -0.4296
  377MOL0     H50842   3.730   4.241   9.912  1.5401 -1.1674 -0.5148
  377MOL0     H50843   3.789   4.187  10.067  0.4378 -0.7526 -1.1526
  377MOL0     H50844   3.613   4.316  10.187  0.3065  1.3704 -0.8962
  377MOL0     H50845   3.541   4.223  10.059  0.8617 -0.7734 -0.4165
  377MOL0     H50846   3.511   4.365   9.815 -1.3983 -0.6937  0.0536
  377MOL0     H50847   3.482   4.685   9.724  1.0023 -0.1433  0.2157
  377MOL0     H50848   3.360   4.561   9.689 -1.4181 -0.5517 -0.1052
  377MOL0     H50849   3.216   4.685   9.902 -1.1621  1.7667 -0.2223
  377MOL0     H50850   3.187   4.716   9.737 -0.3005  3.1606  0.0138
  377MOL0     H50851   3.405   4.874   9.881  0.9189 -3.1979 -1.9679
  377MOL0     H50852   3.225   4.915   9.907  0.4770  2.9458 -0.1415
  377MOL0     H50853   3.308   5.059   9.773  4.6832 -1.4241  1.9234
  377MOL0     H50854   3.182   4.947   9.691  0.1816 -0.3571 -0.2495
  377MOL0     H50855   3.543   4.876   9.441 -0.8066 -0.2375 -1.8465
  377MOL0     H50856   3.543   4.935   9.103 -2.3464  0.1379  0.2716
  377MOL0     H50857   3.671   5.032   9.171  1.3072 -1.4106 -0.0634
  377MOL0     H50858   3.638   4.883   9.252  1.7770  1.6779  0.9475
  377MOL0     H50859   3.683   5.312   9.001  0.7765 -1.2310 -3.4130
  377MOL0     H50860   3.733   5.463   8.802  3.1023  2.2229  2.1399
  377MOL0     H50861   3.804   5.716   8.835 -2.2424 -2.2911  1.1363
  377MOL0     H50862   3.791   5.646   8.667 -2.8274 -2.7386  0.3205
  377MOL0     H50863   3.752   5.932   8.767 -0.5877 -1.5556  1.7164
  377MOL0     H50864   3.869   5.870   8.654 -0.3249  3.5688 -0.4940
  377MOL0     H50865   3.737   5.994   8.532  2.2261 -1.1957 -0.6959
  377MOL0     H50866   3.577   5.923   8.583 -1.0910 -2.5053 -2.4198
  377MOL0     H50867   3.798   5.767   8.440 -0.0835 -1.0416 -1.9254
  377MOL0     H50868   3.625   5.726   8.473 -0.1551 -0.7209 -2.7906
  377MOL0     H50869   3.693   5.969   8.309 -3.2131  1.3799  3.5971
  377MOL0     H50870   3.553   5.881   8.303 -0.9015 -3.8296  1.6420
  377MOL0     H50871   3.825   5.766   8.229 -1.1226  0.0737  0.5844
  377MOL0     H50872   3.670   5.675   8.201 -1.6963  0.3697  4.9649
  377MOL0     H50873   3.795   5.806   7.998  0.2788  0.0386 -0.5697
  377MOL0     H50874   3.755   5.948   8.066  0.2822  1.0869 -4.9946
  377MOL0     H50875   3.581   5.933   7.941  0.5120 -0.7817 -0.7662
  377MOL0     H50876   3.506   5.875   8.076  0.6453 -0.1048  2.9391
  377MOL0     H50877   3.454   5.759   8.944  1.5242  1.5476  0.2866
  377MOL0     H50878   3.394   5.603   9.127  1.2517  3.4843  0.0188
  377MOL0     H50879   3.280   5.292   9.365  0.5310 -0.0659 -1.4804
  377MOL0     H50880   3.235   5.166   9.554 -1.1426  1.1760 -1.5328
  377MOL0     H50881   4.085   4.453  10.836 -0.4380  0.1872  0.1834
  377MOL0     H50882   4.099   4.443  11.062 -1.6652 -2.6327  0.2100
  377MOL0     H50883   3.982   4.740  11.453 -0.1825  2.8301  2.5911
  377MOL0     H50884   4.044   4.798  11.692 -1.7798 -0.0988  1.1140
  377MOL0     H50885   4.109   4.749  12.027  0.9230 -1.6208 -0.3498
  377MOL0     H50886   4.122   4.844  11.881  1.7666 -2.5383 -2.7507
  377MOL0     H50887   3.891   4.657  11.953 -1.3440  1.1351  3.1781
  377MOL0     H50888   3.874   4.785  11.839  0.8164 -0.4254 -0.4327
  377MOL0     H50889   3.929   4.946  12.048 -0.9312  0.3077  0.9448
  377MOL0     H50890   3.917   4.796  12.140  0.4923 -1.5457 -1.1917
  377MOL0     H50891   3.668   4.768  12.090 -2.8504  0.3103 -1.6757
  377MOL0     H50892   3.692   4.857  11.942 -1.3212 -1.7182  0.6232
  377MOL0     H50893   3.561   5.146  12.219 -1.8160  1.3348 -2.2947
  377MOL0     H50894   4.209   4.410  11.746  2.2845 -0.2888 -0.4478
  377MOL0     H50895   4.177   4.350  11.514  0.3994  0.1123 -0.5300
  378MOL0     O50896  10.581   3.766   8.962 -0.3245 -0.2203 -0.4814
  378MOL0     C50897  10.511   3.824   9.047  0.0952  0.2006  0.3679
  378MOL0     O50898  10.555   3.872   9.167 -0.2252 -0.4429  0.0646
  378MOL0     C50899  10.690   3.870   9.196  0.3287 -0.1015 -0.5631
  378MOL0     C50900  10.772   3.963   9.129  0.1726  0.3961 -0.4359
  378MOL0     C50901  10.906   3.967   9.169  0.5682 -1.0694  0.2963
  378MOL0     C50902  10.958   3.882   9.268 -0.1805  0.1674  0.1297
  378MOL0     O50903  11.080   3.893   9.333 -0.3184  0.4428  0.5748
  378MOL0     C50904  11.183   3.957   9.267 -0.3811 -0.6469  0.6886
  378MOL0     C50905  11.321   3.940   9.323 -0.9703  0.2027  1.3139
  378MOL0     C50906  11.365   3.998   9.458 -0.2558  0.4236  0.0370
  378MOL0     C50907  11.513   3.973   9.499 -0.2226 -0.5736 -0.7426
  378MOL0     C50908  11.521   4.031   9.636  0.8569  0.8141 -0.8530
  378MOL0     C50909  11.674   4.034   9.676  0.4596 -0.3289  0.9104
  378MOL0     C50910  11.681   4.047   9.828  0.5780 -0.2868  0.4775
  378MOL0     C50911  11.825   4.046   9.866 -0.9464 -0.2493 -0.2800
  378MOL0     N50912  11.854   4.110  10.003  0.1729  0.4641 -0.1432
  378MOL0     C50913  11.772   4.114  10.114  0.2622  0.0292 -0.7274
  378MOL0     C50914  11.839   4.203  10.194 -0.1925 -0.8641 -0.0502
  378MOL0     C50915  11.779   4.244  10.329 -0.1672 -0.5022 -0.5762
  378MOL0     C50916  11.818   4.138  10.429  0.3139  0.1230 -0.2073
  378MOL0     C50917  11.745   4.159  10.562 -0.4655  0.5127 -0.1675
  378MOL0     C50918  11.792   4.278  10.636  0.5836  0.1702  0.5709
  378MOL0     O50919  11.728   4.396  10.585  0.0938 -0.0453 -0.2398
  378MOL0     C50920  11.783   4.516  10.633 -0.0457  0.3168 -0.3919
  378MOL0     C50921  11.903   4.541  10.696  0.4569 -0.1681  0.0099
  378MOL0     C50922  11.945   4.677  10.732  0.7630  1.1069 -0.1765
  378MOL0     C50923  12.087   4.665  10.802 -0.3156 -0.6011  0.1396
  378MOL0     C50924  11.860   4.786  10.696  0.1239 -0.0701 -0.8362
  378MOL0     C50925  11.897   4.922  10.732 -0.3951 -1.0137 -0.6132
  378MOL0     O50926  12.025   4.960  10.767  0.7035 -0.3909  0.2369
  378MOL0     C50927  12.064   5.093  10.757  0.2597  0.0261  0.4092
  378MOL0     C50928  12.049   5.178  10.855  0.0206 -0.1003 -0.8773
  378MOL0     C50929  12.107   5.306  10.864 -1.1185  0.0534 -0.6771
  378MOL0     C50930  12.196   5.344  10.759 -0.7613 -0.1008 -0.2504
  378MOL0     O50931  12.268   5.467  10.756 -0.0065  0.7767 -0.0812
  378MOL0     C50932  12.282   5.549  10.865 -0.0075  0.3763  0.2443
  378MOL0     C50933  12.386   5.660  10.841  0.4630  0.3589 -0.0089
  378MOL0     C50934  12.353   5.768  10.732 -0.1848  0.0245  0.4364
  378MOL0     C50935  12.281   5.882  10.797 -0.2232 -0.5280  1.0222
  378MOL0     C50936  12.262   5.996  10.691 -0.3035  0.8783 -0.0617
  378MOL0     C50937  12.167   6.107  10.748 -0.5492 -0.2219  0.3791
  378MOL0     C50938  12.139   6.217  10.651  0.7820 -0.1089 -0.0166
  378MOL0     C50939  12.013   6.294  10.683 -1.0749 -0.2019 -0.2755
  378MOL0    Cl50940  12.002   6.416  10.547 -0.0301  0.2739 -0.4313
  378MOL0     C50941  12.197   5.272  10.651  0.0743 -0.0251 -0.2205
  378MOL0     C50942  12.138   5.143  10.646 -0.1118 -0.9973  0.1114
  378MOL0     O50943  11.806   5.005  10.731  0.1437 -0.3118  0.6811
  378MOL0     C50944  11.732   4.751  10.652 -0.4042  0.1301  0.9302
  378MOL0     C50945  11.700   4.623  10.612  0.3279  0.0906  0.3787
  378MOL0     N50946  11.954   4.248  10.140  0.5878 -0.8123 -0.0031
  378MOL0     N50947  11.957   4.200  10.022  0.4079  0.4915  0.4457
  378MOL0     C50948  10.862   3.795   9.329 -0.0892 -0.0861  0.6896
  378MOL0     C50949  10.729   3.783   9.294  0.5070 -0.9274  0.6723
  378MOL0     C50950  10.365   3.837   9.025 -0.0994  0.8705 -0.3454
  378MOL0     C50951  10.305   3.767   8.918 -0.4489  0.0913  0.6060
  378MOL0     C50952  10.168   3.775   8.912  0.4247 -0.6512  0.9766
  378MOL0     C50953  10.092   3.861   8.991  0.0588 -1.2685 -0.1796
  378MOL0     O50954   9.958   3.876   8.964  0.1511 -0.0078 -0.6492
  378MOL0     C50955   9.880   3.957   9.049  0.2514  0.0234  0.0720
  378MOL0     C50956   9.913   4.098   9.015  0.4019 -0.1788  0.1073
  378MOL0     C50957   9.811   4.187   9.095  0.1765 -0.3606 -0.5146
  378MOL0     C50958   9.845   4.333   9.100  0.1096  0.2204 -1.4936
  378MOL0     C50959   9.839   4.400   8.968 -0.1308 -0.7103 -0.8748
  378MOL0     C50960   9.834   4.470   8.875  0.1966  0.1032 -0.2901
  378MOL0     C50961  10.153   3.921   9.104  0.5732  0.2995  0.5081
  378MOL0     C50962  10.285   3.909   9.117 -0.2680 -0.2040 -0.6840
  378MOL0     H50963  10.746   4.032   9.049 -1.2179  0.1564 -0.2314
  378MOL0     H50964  10.968   4.047   9.130 -0.3076 -0.5388 -0.0318
  378MOL0     H50965  11.174   3.926   9.163 -1.5538 -0.3707  0.7000
  378MOL0     H50966  11.175   4.066   9.264  2.0071 -0.2862  3.1286
  378MOL0     H50967  11.329   3.833   9.343  0.2864  0.1963  0.8557
  378MOL0     H50968  11.398   3.976   9.254 -1.4538  1.5356  1.4389
  378MOL0     H50969  11.341   4.102   9.485  0.8470  0.4918  0.8234
  378MOL0     H50970  11.313   3.936   9.532 -0.0423  1.3468  0.9872
  378MOL0     H50971  11.556   3.873   9.506  1.0068  0.0115  0.3113
  378MOL0     H50972  11.584   4.026   9.434  0.0168 -0.2420 -0.2135
  378MOL0     H50973  11.471   4.125   9.660 -3.1977 -1.7329  2.1517
  378MOL0     H50974  11.468   3.961   9.702  0.7510 -0.5851 -2.3532
  378MOL0     H50975  11.729   3.943   9.650  1.9109  0.8094 -0.2439
  378MOL0     H50976  11.729   4.109   9.617  1.1762 -4.8765 -5.2267
  378MOL0     H50977  11.629   4.140   9.854  2.6990  0.8891  0.7881
  378MOL0     H50978  11.625   3.967   9.878 -0.0277 -2.2140 -2.9349
  378MOL0     H50979  11.888   4.084   9.785  1.0758 -1.3144  0.7249
  378MOL0     H50980  11.845   3.942   9.894 -0.2792  0.9899  4.7776
  378MOL0     H50981  11.689   4.045  10.130  0.3972  0.6523  4.4633
  378MOL0     H50982  11.829   4.337  10.355 -0.3909 -0.7027  0.6438
  378MOL0     H50983  11.670   4.251  10.334 -0.0100  1.5338  1.4323
  378MOL0     H50984  11.926   4.130  10.443  0.1719  0.3738  1.2705
  378MOL0     H50985  11.787   4.041  10.391  0.0876  1.5005 -3.9107
  378MOL0     H50986  11.768   4.068  10.620  0.4667  1.0345  0.2968
  378MOL0     H50987  11.637   4.163  10.544 -0.5581 -0.3452  0.1274
  378MOL0     H50988  11.902   4.285  10.631  0.6382 -0.6548  0.4502
  378MOL0     H50989  11.762   4.271  10.740 -1.0602 -0.5269  0.0736
  378MOL0     H50990  11.976   4.464  10.717  0.6202 -0.3488 -1.1403
  378MOL0     H50991  12.073   4.637  10.907 -1.4646  0.1496  0.2034
  378MOL0     H50992  12.154   4.589  10.762  0.0687 -0.2986  0.2025
  378MOL0     H50993  12.146   4.756  10.812 -0.2461 -0.8135  1.8707
  378MOL0     H50994  11.981   5.138  10.931 -0.4971  1.0792 -0.7003
  378MOL0     H50995  12.103   5.338  10.967  1.5006 -4.3496  1.0671
  378MOL0     H50996  12.188   5.598  10.895  1.3146  3.6846 -0.5414
  378MOL0     H50997  12.313   5.487  10.950 -1.7366 -2.1200 -0.8286
  378MOL0     H50998  12.393   5.710  10.938 -1.9371 -3.3528  2.3116
  378MOL0     H50999  12.474   5.602  10.814  0.8116  0.8240  0.1188
  378MOL0     H51000  12.302   5.728  10.644  0.1414 -0.5936  0.5181
  378MOL0     H51001  12.447   5.807  10.692 -0.5044 -0.1435 -0.5059
  378MOL0     H51002  12.189   5.843  10.842  0.8233 -3.8018  0.6109
  378MOL0     H51003  12.350   5.925  10.870 -0.2598  1.0582  0.1664
  378MOL0     H51004  12.215   5.932  10.615  1.7482 -2.6481  1.4155
  378MOL0     H51005  12.354   6.039  10.651  0.0297 -0.2039 -0.4874
  378MOL0     H51006  12.072   6.055  10.764 -0.6257 -1.5799 -3.5319
  378MOL0     H51007  12.207   6.138  10.845 -1.2196 -0.4632  0.7392
  378MOL0     H51008  12.133   6.165  10.554  1.0789  0.4259 -0.3282
  378MOL0     H51009  12.231   6.276  10.650 -0.1729  1.5067 -2.4353
  378MOL0     H51010  12.018   6.340  10.782 -1.9898 -0.6345 -0.0208
  378MOL0     H51011  11.920   6.236  10.688 -0.0824 -1.8207 -0.1335
  378MOL0     H51012  12.238   5.301  10.555  1.5036  1.1747  0.7174
  378MOL0     H51013  12.156   5.083  10.557  2.1350  0.2073 -0.2950
  378MOL0     H51014  11.647   4.819  10.650 -0.3927  0.1243 -0.0637
  378MOL0     H51015  11.610   4.620  10.553  1.5015  0.2981 -1.5073
  378MOL0     H51016  10.886   3.722   9.406  0.7424 -1.6389 -0.9762
  378MOL0     H51017  10.664   3.712   9.344 -1.8798 -0.5456 -1.6608
  378MOL0     H51018  10.367   3.713   8.846 -1.3144 -0.0351 -0.0614
  378MOL0     H51019  10.119   3.708   8.842 -1.0322 -0.5042  1.8148
  378MOL0     H51020   9.778   3.942   9.012  0.8682 -0.8744 -1.3762
  378MOL0     H51021   9.885   3.922   9.152 -0.6996 -0.2450  0.0357
  378MOL0     H51022   9.893   4.122   8.910  0.2478  0.4405  0.2788
  378MOL0     H51023  10.019   4.119   9.035  1.1340  0.3367 -3.5125
  378MOL0     H51024   9.815   4.159   9.200 -0.6951  3.7100  0.7886
  378MOL0     H51025   9.709   4.163   9.061  1.1840 -4.1175 -1.3955
  378MOL0     H51026   9.948   4.343   9.137  0.5683  0.0559 -2.6773
  378MOL0     H51027   9.780   4.389   9.166 -1.8562 -0.4266 -2.7915
  378MOL0     H51028   9.816   4.516   8.780 -2.4330  0.5061  0.3439
  378MOL0     H51029  10.097   3.986   9.171 -0.5983  0.7703 -0.8933
  378MOL0     H51030  10.339   3.953   9.201  2.4819  0.3293 -2.5585
  379MOL0     O51031   2.683   8.382   9.070 -0.8203 -0.9484  0.7578
  379MOL0     C51032   2.722   8.502   9.069  0.0620 -0.7913  1.1041
  379MOL0     O51033   2.822   8.565   9.145 -0.1574 -0.4731 -0.3653
  379MOL0     C51034   2.907   8.473   9.212  0.0894 -0.2304  0.8657
  379MOL0     C51035   2.991   8.382   9.135  0.6823  0.3034  0.4255
  379MOL0     C51036   3.080   8.309   9.211  0.1184  0.5135 -0.4041
  379MOL0     C51037   3.101   8.322   9.347 -0.3250  0.3058 -0.4696
  379MOL0     O51038   3.199   8.242   9.403 -0.9968  0.6447 -0.0949
  379MOL0     C51039   3.198   8.207   9.545 -0.6453  0.1456 -0.6888
  379MOL0     C51040   3.245   8.060   9.546  0.0351 -0.6718 -0.1912
  379MOL0     C51041   3.127   7.976   9.489 -0.9090  0.4786 -0.4072
  379MOL0     C51042   3.190   7.840   9.465  0.6239  0.7243  1.1184
  379MOL0     C51043   3.087   7.728   9.477  0.0535  0.4066 -0.5363
  379MOL0     C51044   3.159   7.584   9.462 -0.0451  0.0607  0.0639
  379MOL0     C51045   3.058   7.464   9.489 -0.4222  0.4355 -0.3475
  379MOL0     C51046   3.007   7.456   9.649 -0.5668  0.3614  0.5495
  379MOL0     N51047   3.117   7.435   9.740 -1.1414 -0.3685  0.3128
  379MOL0     C51048   3.173   7.543   9.809 -0.0267 -0.7701  0.2245
  379MOL0     C51049   3.264   7.484   9.886 -0.7388 -1.1204  0.2817
  379MOL0     C51050   3.358   7.558   9.984  0.5913 -0.1354 -0.0939
  379MOL0     C51051   3.488   7.604   9.917 -0.9222 -0.1154  0.0074
  379MOL0     C51052   3.580   7.497   9.850 -0.4031  0.2277 -0.6843
  379MOL0     C51053   3.664   7.405   9.940  1.9445 -0.2609  0.4408
  379MOL0     O51054   3.754   7.501  10.015 -0.5858 -0.7196  0.2711
  379MOL0     C51055   3.888   7.508   9.972  0.3891 -0.2673  0.4692
  379MOL0     C51056   3.974   7.551  10.071  0.1105  0.0646  0.5406
  379MOL0     C51057   4.111   7.542  10.054  0.1431  0.9100 -1.1919
  379MOL0     C51058   4.175   7.580  10.192  0.9197 -0.0924  0.4439
  379MOL0     C51059   4.168   7.480   9.935 -0.5476  0.8180 -0.4355
  379MOL0     C51060   4.317   7.482   9.904 -0.0014  0.9380 -1.1620
  379MOL0     O51061   4.369   7.448   9.783 -0.0193 -0.9637  0.8812
  379MOL0     C51062   4.502   7.426   9.753  1.3184 -0.2399 -1.0517
  379MOL0     C51063   4.609   7.416   9.840 -0.0763 -0.1902  0.1635
  379MOL0     C51064   4.743   7.396   9.801 -0.4064 -0.3706 -0.5790
  379MOL0     C51065   4.775   7.379   9.665  0.3979  0.4776 -0.5842
  379MOL0     O51066   4.893   7.347   9.608  0.3215  0.1875 -0.3023
  379MOL0     C51067   5.010   7.318   9.685 -0.1235  0.2647 -0.3906
  379MOL0     C51068   5.131   7.316   9.597 -0.1464  0.4693 -0.1506
  379MOL0     C51069   5.132   7.191   9.494 -0.0702  0.8803  0.4844
  379MOL0     C51070   5.123   7.051   9.560 -0.0036  0.4967  0.4915
  379MOL0     C51071   5.191   6.943   9.465 -0.3966 -0.1780 -0.6952
  379MOL0     C51072   5.198   6.801   9.517  0.6203 -0.5787 -0.1955
  379MOL0     C51073   5.301   6.709   9.460  0.0174 -0.0772 -0.2079
  379MOL0     C51074   5.251   6.567   9.495  0.4953 -0.2954 -0.3040
  379MOL0    Cl51075   5.208   6.538   9.678  0.4664  0.2732  0.2171
  379MOL0     C51076   4.672   7.383   9.574 -0.0172 -0.4601  0.1990
  379MOL0     C51077   4.533   7.407   9.612  0.8828 -0.6536 -0.9646
  379MOL0     O51078   4.392   7.517   9.999  0.2750 -0.2943  0.7185
  379MOL0     C51079   4.076   7.457   9.830 -0.2245  0.6522 -0.3893
  379MOL0     C51080   3.937   7.461   9.847  0.9117 -0.5799  0.7939
  379MOL0     N51081   3.256   7.348   9.868 -0.1737  0.2151 -0.6666
  379MOL0     N51082   3.171   7.317   9.780  0.1106 -0.7660 -0.2098
  379MOL0     C51083   3.026   8.420   9.420 -0.0472  0.0496  0.4974
  379MOL0     C51084   2.928   8.487   9.347  0.5579  0.6732  0.5407
  379MOL0     C51085   2.661   8.592   8.974 -0.0746 -0.1685  0.4161
  379MOL0     C51086   2.544   8.558   8.903  0.3370 -0.2879  0.1318
  379MOL0     C51087   2.476   8.653   8.822 -0.1058 -0.1527  0.6655
  379MOL0     C51088   2.522   8.793   8.809 -0.1320 -0.0743  0.7309
  379MOL0     O51089   2.439   8.882   8.732  0.5446 -1.2933 -0.6694
  379MOL0     C51090   2.478   9.019   8.730  0.0824 -0.4325 -0.0323
  379MOL0     C51091   2.374   9.098   8.653  0.0767 -0.0020 -0.9563
  379MOL0     C51092   2.408   9.239   8.629  0.4238 -0.0543  0.1114
  379MOL0     C51093   2.357   9.280   8.486 -0.4833 -1.0658 -0.7351
  379MOL0     C51094   2.464   9.268   8.383  1.3715  0.4965  0.0991
  379MOL0     C51095   2.538   9.270   8.288 -0.0302  0.3293 -0.6949
  379MOL0     C51096   2.641   8.823   8.877  0.4557  1.4627 -0.1876
  379MOL0     C51097   2.696   8.729   8.971 -0.0248 -0.2600  0.2974
  379MOL0     H51098   2.974   8.362   9.030  1.2415 -3.8000  0.9652
  379MOL0     H51099   3.150   8.245   9.157  1.7795  2.1605 -0.3173
  379MOL0     H51100   3.268   8.264   9.607 -1.2387 -0.5575  0.6605
  379MOL0     H51101   3.097   8.218   9.586  0.5940  3.0682  2.0274
  379MOL0     H51102   3.335   8.047   9.486 -1.8069 -3.4024 -2.6833
  379MOL0     H51103   3.263   8.031   9.650  3.6236 -0.6784 -0.6784
  379MOL0     H51104   3.063   7.974   9.577 -0.5504 -1.8171 -0.1543
  379MOL0     H51105   3.069   8.013   9.404 -0.6076  1.0097 -0.3876
  379MOL0     H51106   3.227   7.838   9.362 -2.7058  1.5310 -0.2320
  379MOL0     H51107   3.271   7.816   9.534 -0.0605 -3.0708  0.8383
  379MOL0     H51108   3.033   7.721   9.572  0.6953 -2.5050 -0.2767
  379MOL0     H51109   3.010   7.748   9.402 -0.4721  0.0283 -0.1099
  379MOL0     H51110   3.194   7.574   9.358  1.0984  2.1018  0.1948
  379MOL0     H51111   3.249   7.578   9.523 -0.6681  1.7711  1.2343
  379MOL0     H51112   2.981   7.465   9.411 -0.4967 -0.6614 -0.2954
  379MOL0     H51113   3.120   7.375   9.478 -1.3620 -0.6103  2.0194
  379MOL0     H51114   2.949   7.364   9.661  2.5109 -1.8859 -0.4557
  379MOL0     H51115   2.954   7.549   9.669  0.7596  1.2564  0.1031
  379MOL0     H51116   3.166   7.650   9.821  2.6574 -0.6049  0.9757
  379MOL0     H51117   3.314   7.655  10.005 -2.3428 -1.0537 -1.3753
  379MOL0     H51118   3.368   7.492  10.071  3.5742 -0.1843 -0.3682
  379MOL0     H51119   3.541   7.663   9.991 -2.2209 -0.5682  1.3602
  379MOL0     H51120   3.467   7.677   9.838 -0.7737  2.9999  2.6627
  379MOL0     H51121   3.644   7.550   9.779 -0.9497  1.6496 -0.1486
  379MOL0     H51122   3.516   7.430   9.790  0.5776 -0.1793 -1.2994
  379MOL0     H51123   3.719   7.331   9.881  2.4546  2.1224 -2.2950
  379MOL0     H51124   3.592   7.359  10.009  0.7016  1.2732  0.2205
  379MOL0     H51125   3.935   7.599  10.161 -1.3105  1.3639 -0.7286
  379MOL0     H51126   4.132   7.526  10.277  0.6126  0.6131  0.7465
  379MOL0     H51127   4.284   7.573  10.189  0.9432  0.1081 -3.0656
  379MOL0     H51128   4.145   7.683  10.216 -0.6069 -0.7464  1.5332
  379MOL0     H51129   4.608   7.412   9.949 -0.6626  0.4320  0.1856
  379MOL0     H51130   4.825   7.394   9.872 -2.8015 -5.1275  2.5501
  379MOL0     H51131   5.017   7.397   9.760 -0.3104 -1.1093  1.1467
  379MOL0     H51132   5.017   7.226   9.744 -0.6223 -1.2337 -2.5629
  379MOL0     H51133   5.141   7.408   9.537  1.3305 -0.5173 -1.4926
  379MOL0     H51134   5.224   7.317   9.653 -1.2406 -2.7866  1.9856
  379MOL0     H51135   5.218   7.198   9.427  0.6540  2.7840  1.5038
  379MOL0     H51136   5.044   7.208   9.432  0.2899 -1.5710 -0.8036
  379MOL0     H51137   5.170   7.056   9.658  0.6570 -1.1691  0.2977
  379MOL0     H51138   5.018   7.023   9.575 -0.2723  0.8791 -0.6071
  379MOL0     H51139   5.293   6.971   9.439  0.0476  1.3393  2.2919
  379MOL0     H51140   5.131   6.944   9.373 -1.7426  3.5050  0.0437
  379MOL0     H51141   5.230   6.808   9.621  1.4788  0.0466 -0.4890
  379MOL0     H51142   5.100   6.752   9.511  1.1151 -1.9042  1.7132
  379MOL0     H51143   5.396   6.743   9.501  0.0401  5.1067 -3.6654
  379MOL0     H51144   5.307   6.732   9.353  0.5926  1.0145  0.0449
  379MOL0     H51145   5.339   6.509   9.465  2.6711  1.3996  2.2448
  379MOL0     H51146   5.168   6.547   9.427 -0.5449  3.2357 -0.2985
  379MOL0     H51147   4.701   7.382   9.469  1.6393  4.3042  0.4004
  379MOL0     H51148   4.451   7.412   9.540  1.4362 -1.8225 -1.7160
  379MOL0     H51149   4.114   7.441   9.730 -3.0554 -0.9080 -1.3388
  379MOL0     H51150   3.875   7.422   9.767  2.7104  0.5761 -1.2910
  379MOL0     H51151   3.037   8.449   9.524  0.1683  3.9327 -0.4571
  379MOL0     H51152   2.854   8.544   9.401 -1.3275 -1.6828  0.5903
  379MOL0     H51153   2.500   8.459   8.912  1.1271 -0.6213  0.3934
  379MOL0     H51154   2.386   8.622   8.770  1.2445 -2.5533 -0.3936
  379MOL0     H51155   2.477   9.060   8.832  0.1474 -1.6013  0.4527
  379MOL0     H51156   2.579   9.030   8.691 -0.3663 -2.6687 -2.0193
  379MOL0     H51157   2.279   9.090   8.707  0.0238 -0.3260 -1.0899
  379MOL0     H51158   2.351   9.045   8.560  2.0894  0.6482 -1.8897
  379MOL0     H51159   2.515   9.260   8.635  0.6209 -1.4979  2.9368
  379MOL0     H51160   2.351   9.299   8.701 -1.7241  2.3356 -3.2436
  379MOL0     H51161   2.334   9.387   8.492  6.5034  0.8826  1.5294
  379MOL0     H51162   2.270   9.224   8.452 -1.2753 -0.5080  0.3201
  379MOL0     H51163   2.615   9.260   8.214 -1.9254  2.8738 -3.2290
  379MOL0     H51164   2.704   8.909   8.856  0.3776  0.6315 -4.8200
  379MOL0     H51165   2.760   8.773   9.046  3.6440 -3.5467 -0.6117
  380MOL0     O51166   9.879   3.016   0.064 -0.0668  0.3455  0.5599
  380MOL0     C51167   9.796   2.931   0.039  0.2816  0.8966  0.0521
  380MOL0     O51168   9.756   2.833   0.128  0.2070  0.2047  0.5148
  380MOL0     C51169   9.792   2.844   0.255  0.4497 -0.2753 -0.1713
  380MOL0     C51170   9.872   2.752   0.320  0.1953 -0.4194  0.0101
  380MOL0     C51171   9.927   2.781   0.447 -0.3113  0.8793  0.6524
  380MOL0     C51172   9.887   2.900   0.514 -0.4044  0.4220  0.8304
  380MOL0     O51173   9.944   2.930   0.633 -0.1540  0.7119  0.2123
  380MOL0     C51174   9.912   3.050   0.705  0.3051  0.1253 -0.3139
  380MOL0     C51175   9.965   3.018   0.842 -0.2085 -0.2710 -0.2209
  380MOL0     C51176  10.121   3.010   0.849  0.2841 -0.3113 -0.1557
  380MOL0     C51177  10.177   2.981   0.984  1.2412  0.1101  0.2359
  380MOL0     C51178  10.323   2.991   0.996 -0.5561 -0.2438  0.0047
  380MOL0     C51179  10.368   2.952   1.133 -0.3915  1.1662  1.2110
  380MOL0     C51180  10.315   3.044   1.241 -0.8533 -0.5946 -0.5165
  380MOL0     C51181  10.408   3.074   1.355 -0.7306 -0.0735 -0.5557
  380MOL0     N51182  10.436   2.961   1.445 -0.7658  0.5346  0.1997
  380MOL0     C51183  10.356   2.916   1.542  0.2060 -0.2822  0.1292
  380MOL0     C51184  10.432   2.819   1.598 -0.1499 -0.2228 -0.4379
  380MOL0     C51185  10.369   2.739   1.708 -0.5117  0.1116  1.4596
  380MOL0     C51186  10.397   2.786   1.853 -0.4532 -0.9613 -0.4035
  380MOL0     C51187  10.320   2.919   1.884 -0.1673 -0.4199  0.4322
  380MOL0     C51188  10.302   2.937   2.036  0.1324 -0.0991 -0.0978
  380MOL0     O51189  10.432   2.906   2.095 -0.2079  0.8885  0.6312
  380MOL0     C51190  10.438   2.901   2.233 -0.2778 -0.0032  0.2039
  380MOL0     C51191  10.526   2.995   2.288  0.4713  0.7128 -0.8372
  380MOL0     C51192  10.555   2.995   2.427 -0.4370  0.0884  0.0186
  380MOL0     C51193  10.663   3.098   2.457  0.0197  0.0532  0.0056
  380MOL0     C51194  10.482   2.907   2.516  0.7746  0.6265  0.4979
  380MOL0     C51195  10.480   2.919   2.666 -0.9760  0.0624 -1.1461
  380MOL0     O51196  10.374   2.867   2.742  0.0623 -0.1479  0.3110
  380MOL0     C51197  10.416   2.793   2.847 -0.0206  1.0725  0.3304
  380MOL0     C51198  10.315   2.735   2.925 -0.5430  0.3460 -0.3255
  380MOL0     C51199  10.343   2.662   3.044 -0.8058 -0.1261 -0.9167
  380MOL0     C51200  10.476   2.638   3.081 -0.4427  0.3023 -0.0512
  380MOL0     O51201  10.518   2.551   3.181 -0.3084  0.4785 -0.3528
  380MOL0     C51202  10.430   2.515   3.288  0.3670 -0.1192  0.4774
  380MOL0     C51203  10.523   2.463   3.403 -0.0208 -0.7613 -0.3401
  380MOL0     C51204  10.434   2.437   3.536  0.0187 -0.2717  0.2344
  380MOL0     C51205  10.477   2.306   3.606 -0.1189 -0.1738  0.1020
  380MOL0     C51206  10.383   2.268   3.734  0.2064 -0.4123  0.6567
  380MOL0     C51207  10.408   2.360   3.855 -0.4637 -0.3429  0.0587
  380MOL0     C51208  10.297   2.455   3.882  0.4942  0.0315  0.0821
  380MOL0     C51209  10.331   2.589   3.960 -0.9939  0.2041 -0.5144
  380MOL0    Cl51210  10.401   2.710   3.841  0.3818 -0.0691 -0.5747
  380MOL0     C51211  10.577   2.697   3.004  0.2174 -0.8804 -0.6999
  380MOL0     C51212  10.549   2.769   2.885  0.0295  0.5449  0.4052
  380MOL0     O51213  10.562   2.997   2.711 -0.3581 -0.8463  0.4705
  380MOL0     C51214  10.386   2.814   2.455 -0.5463  0.1427  0.1787
  380MOL0     C51215  10.363   2.812   2.314  0.6659  0.5551  0.0554
  380MOL0     N51216  10.557   2.812   1.544  0.4355  0.2442  0.5522
  380MOL0     N51217  10.559   2.905   1.452  0.8456  1.0315 -0.0323
  380MOL0     C51218   9.797   2.989   0.452 -0.4195 -0.0087  0.5227
  380MOL0     C51219   9.749   2.957   0.322  0.3620 -0.7057 -0.2840
  380MOL0     C51220   9.759   2.907  -0.102 -0.4278 -0.7552  0.6157
  380MOL0     C51221   9.789   3.007  -0.202  0.3559  0.2392  0.6997
  380MOL0     C51222   9.762   2.984  -0.335 -0.3615  0.4530  0.0424
  380MOL0     C51223   9.705   2.867  -0.375  0.0010  0.1494 -0.2801
  380MOL0     O51224   9.679   2.867  -0.507  0.4623  0.3933  0.1569
  380MOL0     C51225   9.602   2.761  -0.568  0.0560  0.1913 -0.3578
  380MOL0     C51226   9.594   2.787  -0.724  0.3200 -0.9188 -0.4628
  380MOL0     C51227   9.726   2.754  -0.799 -0.2424 -0.4733  0.2879
  380MOL0     C51228   9.745   2.784  -0.944 -0.5269 -0.3300  0.2941
  380MOL0     C51229   9.636   2.722  -1.028 -0.4953  0.1303  0.3361
  380MOL0     C51230   9.531   2.684  -1.078 -0.4067 -0.1991 -1.1042
  380MOL0     C51231   9.671   2.758  -0.277  0.4722 -0.3812  0.0873
  380MOL0     C51232   9.689   2.793  -0.139  0.4763  0.3989  0.2392
  380MOL0     H51233   9.916   2.671   0.262 -0.9238 -1.1552  0.1648
  380MOL0     H51234  10.013   2.725   0.480  0.4929  1.7141  0.0194
  380MOL0     H51235   9.966   3.128   0.651  4.2349 -1.8281  0.3810
  380MOL0     H51236   9.806   3.076   0.713  1.1978  4.6843 -0.5051
  380MOL0     H51237   9.931   3.088   0.919  1.0669 -0.0810  0.1941
  380MOL0     H51238   9.918   2.927   0.881 -1.5822  0.4914 -0.0545
  380MOL0     H51239  10.170   2.943   0.778 -2.1303 -2.2804 -0.1337
  380MOL0     H51240  10.142   3.113   0.823 -0.6755 -0.2268 -0.6448
  380MOL0     H51241  10.125   3.028   1.067 -1.1929 -1.2266 -0.4256
  380MOL0     H51242  10.147   2.876   0.989 -0.4104  0.4453 -1.5384
  380MOL0     H51243  10.365   2.922   0.922 -2.5384 -1.0871 -0.3724
  380MOL0     H51244  10.362   3.090   0.970  3.0685 -0.7536  2.6396
  380MOL0     H51245  10.316   2.857   1.151  0.2639  0.9953  2.3037
  380MOL0     H51246  10.476   2.935   1.130 -0.4120  0.6113 -3.2992
  380MOL0     H51247  10.301   3.143   1.196  2.2660  0.3144  0.2755
  380MOL0     H51248  10.219   3.012   1.284  1.6128 -1.7775  4.8724
  380MOL0     H51249  10.369   3.160   1.411  1.2215  1.5392 -1.5467
  380MOL0     H51250  10.495   3.116   1.303  0.1081 -0.9492  0.1094
  380MOL0     H51251  10.255   2.950   1.562 -0.1130 -0.7436 -0.6675
  380MOL0     H51252  10.264   2.731   1.681 -0.1693  1.0413 -0.3899
  380MOL0     H51253  10.408   2.637   1.700 -1.8756 -0.3232 -4.3924
  380MOL0     H51254  10.503   2.812   1.859 -0.7064 -0.0455  0.2554
  380MOL0     H51255  10.361   2.712   1.925 -1.0140  1.8496  2.3876
  380MOL0     H51256  10.220   2.913   1.843 -0.7565  1.8640  1.3655
  380MOL0     H51257  10.374   3.011   1.859  0.2754 -0.3664  1.4891
  380MOL0     H51258  10.232   2.855   2.055  1.2385 -0.9804  0.3231
  380MOL0     H51259  10.263   3.032   2.074  1.3106  0.3139  0.1209
  380MOL0     H51260  10.573   3.062   2.216  2.6472  0.6940  0.4751
  380MOL0     H51261  10.695   3.158   2.371 -1.6654  0.2681 -0.5119
  380MOL0     H51262  10.615   3.175   2.517  0.6837 -1.0212  2.0274
  380MOL0     H51263  10.742   3.056   2.520  0.2751 -0.9191 -0.9281
  380MOL0     H51264  10.212   2.758   2.901 -0.7361 -0.7734 -0.6017
  380MOL0     H51265  10.263   2.600   3.084  1.1401 -0.9144  2.0531
  380MOL0     H51266  10.379   2.604   3.327 -0.2912  0.2325 -1.1237
  380MOL0     H51267  10.360   2.439   3.254 -0.7865  0.3271  1.7898
  380MOL0     H51268  10.580   2.372   3.380  0.4703 -1.0613  1.7816
  380MOL0     H51269  10.599   2.532   3.439 -0.8824 -0.5532  1.1740
  380MOL0     H51270  10.329   2.448   3.509  0.8054  2.5369 -2.2581
  380MOL0     H51271  10.449   2.513   3.612  0.5241  1.4220 -1.4860
  380MOL0     H51272  10.483   2.223   3.535 -0.7767  0.0803 -0.2571
  380MOL0     H51273  10.579   2.330   3.637  0.0124 -1.2670  0.5602
  380MOL0     H51274  10.408   2.167   3.769 -0.7534 -0.7795  0.3127
  380MOL0     H51275  10.278   2.280   3.707  0.6133  0.3003 -0.7038
  380MOL0     H51276  10.430   2.301   3.945  0.1615  0.0480  0.1724
  380MOL0     H51277  10.503   2.414   3.847 -0.6363  0.4101  2.2776
  380MOL0     H51278  10.218   2.406   3.939 -2.5518  2.0811 -2.0624
  380MOL0     H51279  10.250   2.488   3.789 -0.0966  0.0338  0.3776
  380MOL0     H51280  10.412   2.563   4.029 -3.8615  0.9649  3.5183
  380MOL0     H51281  10.243   2.632   4.009 -0.8002 -0.1336  0.1406
  380MOL0     H51282  10.683   2.688   3.022  0.5210  0.4835 -1.7335
  380MOL0     H51283  10.641   2.814   2.850 -0.2729  0.8569 -0.0075
  380MOL0     H51284  10.325   2.748   2.516 -2.5322 -0.3061 -2.1409
  380MOL0     H51285  10.298   2.739   2.267  1.4901  0.5129 -1.0712
  380MOL0     H51286   9.756   3.079   0.497 -0.4378  0.9410 -1.2896
  380MOL0     H51287   9.674   3.028   0.288 -0.2788 -0.7468  0.9831
  380MOL0     H51288   9.833   3.101  -0.170  1.2285  1.2237 -2.9337
  380MOL0     H51289   9.797   3.059  -0.405  0.6922 -1.0967 -1.1528
  380MOL0     H51290   9.631   2.657  -0.553 -0.2215 -0.3157 -2.8553
  380MOL0     H51291   9.499   2.770  -0.531  0.2201 -0.2459  0.2150
  380MOL0     H51292   9.575   2.893  -0.741  0.5367 -0.8195 -0.1027
  380MOL0     H51293   9.515   2.739  -0.782 -0.1600  1.2882 -1.7398
  380MOL0     H51294   9.740   2.648  -0.776  0.1299  0.0891  3.0011
  380MOL0     H51295   9.798   2.824  -0.756 -2.0625  1.4762  0.3420
  380MOL0     H51296   9.842   2.737  -0.965  0.9972  3.4416 -2.1661
  380MOL0     H51297   9.760   2.890  -0.965  2.3083 -0.7817 -0.4971
  380MOL0     H51298   9.441   2.658  -1.130 -0.2664 -1.1148 -0.9068
  380MOL0     H51299   9.624   2.664  -0.303  0.0554 -0.8715  2.3747
  380MOL0     H51300   9.659   2.724  -0.061  1.9813  0.2066  0.6655
  381MOL0     O51301  10.986   7.227   9.181  0.4239  0.5972 -0.5382
  381MOL0     C51302  11.000   7.343   9.177  0.4662 -0.0662  1.0264
  381MOL0     O51303  10.925   7.431   9.097 -0.4641  0.2717 -0.3869
  381MOL0     C51304  10.819   7.383   9.032  0.6036 -0.5464  0.2689
  381MOL0     C51305  10.815   7.263   8.955 -0.6096 -0.3391  0.3815
  381MOL0     C51306  10.702   7.219   8.878 -0.4862 -0.5533 -0.1718
  381MOL0     C51307  10.586   7.300   8.890 -0.1877 -0.2067  0.0784
  381MOL0     O51308  10.478   7.249   8.828 -0.0144  0.6770  0.8756
  381MOL0     C51309  10.381   7.348   8.786 -0.0625 -0.6988 -0.4567
  381MOL0     C51310  10.284   7.297   8.680  0.5486 -0.6175  0.3001
  381MOL0     C51311  10.176   7.200   8.735 -0.2442 -0.5303 -0.7391
  381MOL0     C51312  10.066   7.271   8.807 -0.4118  0.7284 -0.2340
  381MOL0     C51313   9.964   7.169   8.862 -0.0285 -0.0516 -1.2956
  381MOL0     C51314   9.821   7.220   8.915  0.9226  0.3420  0.5841
  381MOL0     C51315   9.750   7.321   8.816 -0.1273  0.1154 -0.0567
  381MOL0     C51316   9.721   7.251   8.674 -1.3025  0.4074 -0.8695
  381MOL0     N51317   9.620   7.337   8.600  0.0573  0.1540  1.1037
  381MOL0     C51318   9.654   7.406   8.483 -0.7060 -0.3081 -1.3653
  381MOL0     C51319   9.537   7.421   8.417 -0.1476 -0.3598 -0.7012
  381MOL0     C51320   9.523   7.482   8.272  0.8317 -0.5887 -0.8873
  381MOL0     C51321   9.457   7.622   8.271  0.8617 -0.7417 -0.2095
  381MOL0     C51322   9.520   7.736   8.357  0.8600  0.6305 -0.4247
  381MOL0     C51323   9.670   7.744   8.358 -0.7940 -0.7178 -0.0947
  381MOL0     O51324   9.713   7.865   8.424  0.7239  0.1455  0.6314
  381MOL0     C51325   9.836   7.868   8.479  0.0326 -0.6111 -0.3541
  381MOL0     C51326   9.938   7.774   8.451 -0.0880 -0.4424  0.7766
  381MOL0     C51327  10.060   7.792   8.513 -1.2590  0.7577  0.3251
  381MOL0     C51328  10.173   7.692   8.486  0.4889 -0.1361  0.1316
  381MOL0     C51329  10.091   7.896   8.601  0.5961 -0.0056 -1.2106
  381MOL0     C51330  10.214   7.906   8.678 -1.2085 -0.6175 -1.1796
  381MOL0     O51331  10.280   7.789   8.722 -0.3899  0.2386  0.2246
  381MOL0     C51332  10.393   7.803   8.805 -0.6170  0.2621  0.6038
  381MOL0     C51333  10.512   7.753   8.769  0.3263  0.6453 -0.7002
  381MOL0     C51334  10.626   7.758   8.844 -0.4721  0.4278  0.4468
  381MOL0     C51335  10.614   7.837   8.962 -0.0213  0.2746 -0.5308
  381MOL0     O51336  10.712   7.835   9.053  0.5019  0.3731  0.4185
  381MOL0     C51337  10.837   7.913   9.014 -0.0100  0.0738 -0.3665
  381MOL0     C51338  10.933   7.885   9.132 -0.2792 -0.7793  0.1760
  381MOL0     C51339  11.067   7.964   9.120 -0.2849  0.1539  0.1324
  381MOL0     C51340  11.062   8.108   9.176 -0.5323  0.3686 -0.1483
  381MOL0     C51341  11.187   8.183   9.136 -1.3063  0.9368 -0.9575
  381MOL0     C51342  11.214   8.326   9.183 -0.9118 -0.6538 -0.1798
  381MOL0     C51343  11.195   8.350   9.331 -1.0054 -0.9656 -0.3060
  381MOL0     C51344  11.326   8.355   9.413  0.4837  0.0677  0.0408
  381MOL0    Cl51345  11.403   8.202   9.448  0.0179  0.1294 -0.2025
  381MOL0     C51346  10.494   7.893   8.999 -0.1966 -0.0905 -0.0937
  381MOL0     C51347  10.380   7.883   8.921  0.8532  0.2961 -0.6968
  381MOL0     O51348  10.260   8.020   8.682  0.8091  0.5296  0.8122
  381MOL0     C51349   9.991   7.992   8.619 -0.0933  0.9282 -0.2386
  381MOL0     C51350   9.862   7.976   8.563 -0.6804  0.3556  0.1588
  381MOL0     N51351   9.434   7.362   8.491  0.5139 -0.5298 -0.5912
  381MOL0     N51352   9.489   7.303   8.593  0.5570 -0.2697 -0.4677
  381MOL0     C51353  10.584   7.416   8.964  0.1158 -0.4422 -1.3979
  381MOL0     C51354  10.691   7.455   9.042 -0.8208  0.7807 -0.2621
  381MOL0     C51355  11.117   7.390   9.256  0.1585 -0.5409  0.9429
  381MOL0     C51356  11.230   7.304   9.270 -0.1659  0.1473  0.6721
  381MOL0     C51357  11.339   7.342   9.344  0.4800  0.7818 -0.4265
  381MOL0     C51358  11.344   7.466   9.405  0.3569 -0.2708  0.0571
  381MOL0     O51359  11.444   7.522   9.490 -1.7005  0.0352 -0.4461
  381MOL0     C51360  11.586   7.483   9.469 -0.1493  0.1489  0.2285
  381MOL0     C51361  11.652   7.466   9.613 -0.4640 -0.5524  0.2941
  381MOL0     C51362  11.648   7.600   9.683  0.5312  0.2487  0.1547
  381MOL0     C51363  11.711   7.609   9.812 -0.6725  0.7224 -0.2016
  381MOL0     C51364  11.847   7.564   9.819  0.1528  0.7550 -0.6549
  381MOL0     C51365  11.946   7.498   9.834 -0.3597 -0.8079  0.1122
  381MOL0     C51366  11.241   7.557   9.374 -0.5294 -0.8757 -0.0582
  381MOL0     C51367  11.129   7.522   9.306  0.0121 -0.8015  0.2598
  381MOL0     H51368  10.905   7.203   8.964 -0.2232 -0.1484 -1.7660
  381MOL0     H51369  10.718   7.122   8.831  2.2855  0.3589 -1.3313
  381MOL0     H51370  10.310   7.379   8.863 -0.3576 -3.6675  0.5755
  381MOL0     H51371  10.444   7.422   8.736  3.1796 -2.2658  1.0566
  381MOL0     H51372  10.233   7.390   8.651  1.7803  0.8004  2.4465
  381MOL0     H51373  10.348   7.265   8.597  0.9419 -0.9018  0.7066
  381MOL0     H51374  10.133   7.139   8.655 -1.0606 -0.7021 -0.1788
  381MOL0     H51375  10.223   7.126   8.800  0.4418  1.8503  1.6198
  381MOL0     H51376  10.109   7.326   8.891  3.4399  0.4880 -1.8068
  381MOL0     H51377  10.018   7.342   8.740 -0.7360  0.8423  0.1187
  381MOL0     H51378   9.936   7.103   8.780 -1.8182  1.1808 -1.7362
  381MOL0     H51379  10.014   7.105   8.936 -0.3986 -0.6581 -1.5652
  381MOL0     H51380   9.754   7.133   8.917  1.4631 -0.0990 -0.2654
  381MOL0     H51381   9.824   7.258   9.018 -2.7511  0.8591  0.6458
  381MOL0     H51382   9.655   7.356   8.857 -0.1049  0.3039 -0.1629
  381MOL0     H51383   9.819   7.406   8.813 -0.6065  0.5586  1.0837
  381MOL0     H51384   9.666   7.158   8.691  2.4035 -2.1204 -1.5704
  381MOL0     H51385   9.810   7.225   8.615 -1.2128 -1.4014  0.0132
  381MOL0     H51386   9.753   7.436   8.451 -0.5139  0.4063 -0.1470
  381MOL0     H51387   9.618   7.484   8.218  2.4551  0.5116  1.7789
  381MOL0     H51388   9.456   7.414   8.219  0.5475 -3.0362  2.2844
  381MOL0     H51389   9.359   7.609   8.319  2.1562  1.8062  3.5490
  381MOL0     H51390   9.442   7.640   8.164  2.2221  1.7085 -0.0572
  381MOL0     H51391   9.484   7.721   8.460  3.1926 -0.9648  0.2420
  381MOL0     H51392   9.480   7.833   8.326 -0.3009  0.4942  0.5477
  381MOL0     H51393   9.709   7.745   8.256  1.3264  2.1017  0.6097
  381MOL0     H51394   9.701   7.659   8.420 -1.9378  1.0848  3.2114
  381MOL0     H51395   9.918   7.690   8.385 -0.1178  3.3029 -4.6980
  381MOL0     H51396  10.158   7.654   8.385 -6.2344  3.3393 -0.7443
  381MOL0     H51397  10.268   7.745   8.473  0.2052  0.1767 -0.7447
  381MOL0     H51398  10.173   7.611   8.560  3.6713 -1.7180 -1.4041
  381MOL0     H51399  10.516   7.695   8.677  2.6586  2.1695 -1.6646
  381MOL0     H51400  10.718   7.702   8.828  0.3030  0.9160  2.7981
  381MOL0     H51401  10.871   7.878   8.916  0.8640  2.3154 -0.9308
  381MOL0     H51402  10.807   8.018   9.006 -0.0355  0.0371 -0.8127
  381MOL0     H51403  10.887   7.920   9.225 -1.2393  0.8871 -0.8717
  381MOL0     H51404  10.954   7.778   9.141  2.1575 -0.3091  0.7534
  381MOL0     H51405  11.093   7.966   9.013 -0.7007 -0.7511 -0.0014
  381MOL0     H51406  11.146   7.916   9.177 -0.1582  1.2271  0.8714
  381MOL0     H51407  10.978   8.163   9.131 -2.8476  0.2336  3.6348
  381MOL0     H51408  11.047   8.097   9.283  0.4680 -4.2250 -0.2939
  381MOL0     H51409  11.193   8.187   9.027  0.3315 -1.9704 -1.0702
  381MOL0     H51410  11.268   8.115   9.164 -0.3877  2.4608  0.2856
  381MOL0     H51411  11.313   8.346   9.139 -1.9031 -1.7362 -3.1475
  381MOL0     H51412  11.152   8.388   9.118 -0.7573 -4.0210 -3.9300
  381MOL0     H51413  11.124   8.283   9.380 -1.5993  0.8623  1.5195
  381MOL0     H51414  11.149   8.450   9.326  1.3689  0.2051 -0.1138
  381MOL0     H51415  11.312   8.403   9.510 -2.9797 -2.8333  1.1952
  381MOL0     H51416  11.402   8.416   9.364  1.0063  0.1073  0.8713
  381MOL0     H51417  10.491   7.946   9.094 -3.9550  0.5829 -0.4288
  381MOL0     H51418  10.282   7.923   8.944  0.5106 -0.1034 -1.4077
  381MOL0     H51419  10.015   8.075   8.685  0.6615  2.8551 -2.7951
  381MOL0     H51420   9.792   8.058   8.578  0.8232  1.5637  0.7768
  381MOL0     H51421  10.499   7.480   8.986 -0.1106 -1.3163  0.4390
  381MOL0     H51422  10.686   7.543   9.105 -0.1925  1.2505 -0.8653
  381MOL0     H51423  11.229   7.212   9.213  1.1362  2.9795 -4.6146
  381MOL0     H51424  11.417   7.266   9.341  1.6355  1.9658 -1.1351
  381MOL0     H51425  11.590   7.395   9.404  0.1634  1.4113 -1.5463
  381MOL0     H51426  11.645   7.566   9.428  1.1892 -1.2073 -0.7104
  381MOL0     H51427  11.753   7.426   9.600 -0.0110  0.3343  0.9526
  381MOL0     H51428  11.597   7.402   9.682  1.3739  0.9232  3.3264
  381MOL0     H51429  11.543   7.629   9.694  0.0099 -1.0017 -1.1694
  381MOL0     H51430  11.685   7.675   9.612 -2.1159  1.2824 -0.2392
  381MOL0     H51431  11.651   7.545   9.878  3.7838 -1.3180  2.2825
  381MOL0     H51432  11.695   7.712   9.845  0.4861  1.3255 -1.4507
  381MOL0     H51433  12.041   7.455   9.862  0.8652  0.7069 -1.5251
  381MOL0     H51434  11.250   7.658   9.413  0.1903 -1.2841  0.8875
  381MOL0     H51435  11.054   7.595   9.276 -0.6709 -0.9329  1.5735
  382MOL0     O51436  11.488   5.485   3.002 -0.0257  0.0739  0.2226
  382MOL0     C51437  11.534   5.481   2.887  0.2738 -0.2626  1.4252
  382MOL0     O51438  11.505   5.573   2.785  0.1632  0.1161  0.4312
  382MOL0     C51439  11.463   5.702   2.810  1.5555  1.2391 -0.6711
  382MOL0     C51440  11.421   5.757   2.694  1.7125  0.3676  0.0796
  382MOL0     C51441  11.364   5.886   2.693 -0.3016 -1.0477 -0.0918
  382MOL0     C51442  11.370   5.964   2.811 -0.2914  0.7829 -0.2016
  382MOL0     O51443  11.342   6.097   2.801  0.2193 -0.0475  0.0046
  382MOL0     C51444  11.345   6.174   2.920  0.6698  0.4228 -1.0191
  382MOL0     C51445  11.398   6.318   2.912 -1.1024  0.4187  0.2791
  382MOL0     C51446  11.288   6.413   2.855  0.6029 -0.8427 -0.3596
  382MOL0     C51447  11.180   6.462   2.953  0.3314  0.4034  0.1939
  382MOL0     C51448  11.037   6.488   2.891 -0.3006  0.7448  0.3644
  382MOL0     C51449  10.938   6.548   2.984  0.0138 -0.3104  0.4841
  382MOL0     C51450  10.800   6.554   2.904  0.6601  0.5937 -0.5978
  382MOL0     C51451  10.799   6.655   2.793  0.9687 -0.1173  0.1501
  382MOL0     N51452  10.870   6.610   2.675  0.1154  0.4337 -0.3799
  382MOL0     C51453  10.857   6.496   2.603  0.2775  0.5641  0.3416
  382MOL0     C51454  10.968   6.487   2.522  1.2492  0.4637  0.5503
  382MOL0     C51455  10.998   6.400   2.404  0.3786  0.6311 -0.0264
  382MOL0     C51456  11.139   6.379   2.361 -0.2198  0.3323 -0.7594
  382MOL0     C51457  11.208   6.296   2.475  0.7326  0.7333  0.2207
  382MOL0     C51458  11.362   6.275   2.442 -0.9603 -0.4725 -0.2605
  382MOL0     O51459  11.398   6.170   2.351 -0.2196 -0.1581  0.1426
  382MOL0     C51460  11.386   6.169   2.215 -0.1037 -0.5383 -0.2060
  382MOL0     C51461  11.397   6.044   2.163  0.3798  0.5114  0.9794
  382MOL0     C51462  11.412   6.034   2.024 -0.1590 -0.7745 -0.8752
  382MOL0     C51463  11.451   5.898   1.968  0.3296  0.8433  0.2385
  382MOL0     C51464  11.396   6.143   1.940  1.0357  0.0152 -0.1973
  382MOL0     C51465  11.394   6.134   1.800 -0.1507  0.5459  0.3113
  382MOL0     O51466  11.505   6.194   1.741  0.4145 -0.0444 -0.4999
  382MOL0     C51467  11.495   6.234   1.615  1.4212  0.6841  0.7179
  382MOL0     C51468  11.377   6.287   1.552  1.3356 -0.2494  0.2785
  382MOL0     C51469  11.367   6.306   1.414 -0.8076 -0.1446 -0.0990
  382MOL0     C51470  11.492   6.287   1.341 -0.7475 -0.2258 -0.3817
  382MOL0     O51471  11.484   6.305   1.201 -0.3416  0.7348 -0.0404
  382MOL0     C51472  11.404   6.211   1.127 -0.4089  0.7700  0.2066
  382MOL0     C51473  11.448   6.187   0.982  0.7943 -0.1334 -0.2022
  382MOL0     C51474  11.462   6.309   0.904 -0.6516 -0.8468  0.5040
  382MOL0     C51475  11.610   6.341   0.886  0.9214  0.1045  0.0598
  382MOL0     C51476  11.643   6.428   0.762  0.2449 -0.0418  0.7539
  382MOL0     C51477  11.583   6.570   0.783 -0.7662 -0.0354 -0.3138
  382MOL0     C51478  11.596   6.653   0.658  0.4242  0.1370 -0.2248
  382MOL0     C51479  11.464   6.659   0.590 -0.0066  0.0643 -0.4589
  382MOL0    Cl51480  11.509   6.767   0.452 -0.0930  0.1896  0.2497
  382MOL0     C51481  11.611   6.244   1.401 -0.1668  0.3941 -1.3520
  382MOL0     C51482  11.611   6.231   1.539  0.0031  0.9147  0.6816
  382MOL0     O51483  11.295   6.086   1.740  0.1296  0.2143 -0.0595
  382MOL0     C51484  11.375   6.270   1.997  0.0384 -0.0219 -0.2825
  382MOL0     C51485  11.368   6.286   2.139 -1.2345 -0.1263 -0.0798
  382MOL0     N51486  11.040   6.601   2.541  0.4829 -0.0389 -0.7422
  382MOL0     N51487  10.972   6.676   2.620 -0.5797 -0.7153  0.5692
  382MOL0     C51488  11.415   5.900   2.922 -0.6581 -0.1728  0.3325
  382MOL0     C51489  11.466   5.771   2.928  0.3402  0.1862  0.5214
  382MOL0     C51490  11.605   5.356   2.852 -0.0459 -0.4975  0.0364
  382MOL0     C51491  11.604   5.249   2.941  0.3047  0.8800 -0.6516
  382MOL0     C51492  11.661   5.132   2.907  0.4654  0.2553  0.0194
  382MOL0     C51493  11.715   5.109   2.780 -0.4517 -0.5856  0.6648
  382MOL0     O51494  11.773   4.990   2.734 -0.4327  0.5509  0.0689
  382MOL0     C51495  11.818   4.897   2.837 -0.2916  0.5156 -0.0235
  382MOL0     C51496  11.850   4.755   2.784  0.7189 -0.2312 -0.1263
  382MOL0     C51497  11.714   4.681   2.764 -0.2397 -0.6397 -0.5481
  382MOL0     C51498  11.719   4.535   2.711  0.1918 -0.4461  0.1930
  382MOL0     C51499  11.761   4.459   2.822  0.8248 -0.2328  0.1179
  382MOL0     C51500  11.788   4.391   2.917 -0.4011 -1.3390 -0.0296
  382MOL0     C51501  11.710   5.211   2.684 -0.2196 -0.4435  0.0974
  382MOL0     C51502  11.669   5.338   2.725 -0.2947 -0.4093  0.2676
  382MOL0     H51503  11.424   5.700   2.601  0.2115 -0.8927  0.7487
  382MOL0     H51504  11.321   5.932   2.605 -0.8891 -0.9451  0.2483
  382MOL0     H51505  11.241   6.179   2.955  0.6457  2.9447 -1.3285
  382MOL0     H51506  11.418   6.131   2.990  1.6799  0.1730 -2.1920
  382MOL0     H51507  11.431   6.351   3.011 -6.2437  2.3626  1.6689
  382MOL0     H51508  11.482   6.318   2.842 -0.0570 -3.0573  1.3534
  382MOL0     H51509  11.350   6.497   2.820 -2.2992  1.5530 -0.1534
  382MOL0     H51510  11.249   6.364   2.765 -0.9824  1.3660 -0.9638
  382MOL0     H51511  11.166   6.403   3.045 -0.2336  4.2511  2.8076
  382MOL0     H51512  11.221   6.557   2.989  0.3212 -0.0735  1.5079
  382MOL0     H51513  11.062   6.551   2.805 -0.9929  0.5193 -0.0136
  382MOL0     H51514  11.012   6.384   2.868 -0.2515  0.0512  3.0351
  382MOL0     H51515  10.933   6.475   3.065 -0.4109 -0.6890  0.1236
  382MOL0     H51516  10.972   6.645   3.021 -1.0418  0.0060  0.6700
  382MOL0     H51517  10.778   6.456   2.863  0.1528 -0.1504  1.3397
  382MOL0     H51518  10.720   6.580   2.974  2.0327 -0.1278  1.3353
  382MOL0     H51519  10.838   6.753   2.823 -0.6015  0.2978  0.9100
  382MOL0     H51520  10.699   6.684   2.757  0.8189  1.4638  1.7232
  382MOL0     H51521  10.779   6.421   2.590  1.1775 -0.2018 -0.9843
  382MOL0     H51522  10.944   6.305   2.414 -0.1924  0.7408 -1.7445
  382MOL0     H51523  10.957   6.452   2.317  2.0840 -1.5225 -2.2592
  382MOL0     H51524  11.197   6.471   2.344 -0.5465  1.0190  1.5046
  382MOL0     H51525  11.141   6.320   2.269 -0.4356  0.0850 -0.6045
  382MOL0     H51526  11.157   6.200   2.488  2.5387 -0.8773 -3.1554
  382MOL0     H51527  11.203   6.362   2.561 -0.4014  1.3431 -0.3013
  382MOL0     H51528  11.393   6.244   2.542  2.3962 -2.3379 -1.7369
  382MOL0     H51529  11.401   6.373   2.414 -0.8864 -0.1709  0.8477
  382MOL0     H51530  11.408   5.964   2.236  0.0181  2.7225  3.6192
  382MOL0     H51531  11.506   5.909   1.874  0.2574  1.8868  0.3114
  382MOL0     H51532  11.513   5.844   2.041  0.1944 -2.2685 -1.7563
  382MOL0     H51533  11.365   5.839   1.937  0.7523  0.0627  0.5128
  382MOL0     H51534  11.291   6.307   1.616  0.7034 -1.2599 -0.2305
  382MOL0     H51535  11.276   6.348   1.374 -1.4671 -0.9013  0.5619
  382MOL0     H51536  11.409   6.116   1.181 -0.7159 -0.6161 -2.0763
  382MOL0     H51537  11.304   6.255   1.138  0.2107  2.5838 -0.8603
  382MOL0     H51538  11.547   6.142   0.983  0.3671 -1.3901 -3.3274
  382MOL0     H51539  11.376   6.125   0.928 -1.5949  2.6490 -0.5055
  382MOL0     H51540  11.393   6.388   0.935 -1.2961 -0.4529 -1.7324
  382MOL0     H51541  11.424   6.290   0.803  2.9287 -0.8070 -1.0052
  382MOL0     H51542  11.648   6.388   0.977  0.3098 -1.5037  1.1843
  382MOL0     H51543  11.669   6.249   0.880 -0.5318 -0.7617 -1.8181
  382MOL0     H51544  11.591   6.393   0.673 -0.0198  0.1414  0.8337
  382MOL0     H51545  11.748   6.431   0.731 -0.0576 -0.0564 -0.3096
  382MOL0     H51546  11.480   6.573   0.820  0.0665  1.0504  2.1732
  382MOL0     H51547  11.641   6.617   0.864  0.1520 -2.0316  0.2598
  382MOL0     H51548  11.671   6.607   0.594  1.9306 -1.5200  2.5516
  382MOL0     H51549  11.643   6.751   0.673  0.7044  0.0267 -0.3780
  382MOL0     H51550  11.387   6.703   0.654 -0.5387  0.6244 -1.4617
  382MOL0     H51551  11.433   6.558   0.559  0.6889 -0.1251 -0.5497
  382MOL0     H51552  11.701   6.230   1.343 -0.2048 -0.7181 -1.1457
  382MOL0     H51553  11.701   6.201   1.592 -0.7301 -0.5327  1.1724
  382MOL0     H51554  11.366   6.356   1.932 -0.3299 -1.2851 -1.9862
  382MOL0     H51555  11.368   6.388   2.176 -1.5549 -0.1721  0.0487
  382MOL0     H51556  11.424   5.932   3.026  4.9740  2.1145 -0.4920
  382MOL0     H51557  11.501   5.724   3.019 -0.4783 -0.8945  0.3023
  382MOL0     H51558  11.544   5.262   3.031 -3.0949 -0.6656 -2.5139
  382MOL0     H51559  11.649   5.055   2.984 -0.6047  0.0372 -0.3489
  382MOL0     H51560  11.909   4.939   2.880  0.0742  2.5361 -2.5510
  382MOL0     H51561  11.742   4.885   2.915 -1.4899 -0.1383 -1.2352
  382MOL0     H51562  11.911   4.698   2.855  2.0901  1.4865  0.1231
  382MOL0     H51563  11.902   4.755   2.687  2.2036 -0.7217  0.6446
  382MOL0     H51564  11.653   4.736   2.692  1.4859  1.7897 -0.2806
  382MOL0     H51565  11.657   4.676   2.857 -0.3779 -2.6658 -0.7037
  382MOL0     H51566  11.783   4.531   2.623  0.0942  2.2547 -0.1027
  382MOL0     H51567  11.620   4.504   2.675 -0.0503  0.5516 -0.0494
  382MOL0     H51568  11.806   4.334   3.006  1.9231  2.3266  2.1558
  382MOL0     H51569  11.760   5.198   2.589 -0.4320  1.3079 -0.2950
  382MOL0     H51570  11.686   5.416   2.652  0.6872 -2.2931 -1.6217
  383MOL0     O51571   6.671   9.695   1.965  0.3730 -0.0300  0.4666
  383MOL0     C51572   6.773   9.656   2.018  0.1218  0.3722 -0.1175
  383MOL0     O51573   6.838   9.714   2.125  0.2990 -0.2272 -0.1253
  383MOL0     C51574   6.770   9.829   2.178  0.5946 -0.0384 -0.4972
  383MOL0     C51575   6.803   9.951   2.131  0.4165 -0.2231  0.5433
  383MOL0     C51576   6.771  10.067   2.203 -0.6231 -0.3408  0.7769
  383MOL0     C51577   6.699  10.046   2.324 -0.2422  0.0180  0.6978
  383MOL0     O51578   6.659  10.153   2.402 -0.2212 -0.2930 -0.0944
  383MOL0     C51579   6.571  10.241   2.326 -0.4962  0.2911  0.1023
  383MOL0     C51580   6.548  10.368   2.406 -0.1048 -0.1489  0.6932
  383MOL0     C51581   6.453  10.474   2.355  0.9364 -0.1453 -1.3189
  383MOL0     C51582   6.315  10.445   2.292 -0.9078  0.7442 -0.0135
  383MOL0     C51583   6.190  10.495   2.364 -1.0951 -0.2050  0.5976
  383MOL0     C51584   6.183  10.449   2.516 -0.0650  0.1730 -0.4563
  383MOL0     C51585   6.036  10.438   2.568 -0.1224 -0.4919 -0.2364
  383MOL0     C51586   5.970  10.308   2.524 -0.0153 -0.8396 -1.0543
  383MOL0     N51587   6.044  10.196   2.586  0.0745 -0.9240 -0.5787
  383MOL0     C51588   6.136  10.103   2.526  0.2508  0.3012 -0.0868
  383MOL0     C51589   6.163  10.007   2.618  0.0535 -1.2710  0.2657
  383MOL0     C51590   6.227   9.874   2.598  0.2429  0.7437  0.2668
  383MOL0     C51591   6.278   9.844   2.461  0.1548  0.7753  0.5465
  383MOL0     C51592   6.374   9.728   2.466  0.4421  0.6283 -0.1373
  383MOL0     C51593   6.309   9.600   2.398  0.8916 -0.3344  0.2377
  383MOL0     O51594   6.274   9.623   2.259  0.2382  0.3114  0.6236
  383MOL0     C51595   6.286   9.516   2.173 -0.3576 -0.5317 -0.3728
  383MOL0     C51596   6.400   9.497   2.104 -0.7994 -0.0425 -0.1261
  383MOL0     C51597   6.412   9.379   2.022 -0.1525 -0.0165  0.4294
  383MOL0     C51598   6.552   9.350   1.977  0.8567 -0.4052  0.0321
  383MOL0     C51599   6.298   9.287   2.002  0.9647  0.0143 -0.4766
  383MOL0     C51600   6.297   9.168   1.907 -0.0996  0.4022 -0.2646
  383MOL0     O51601   6.207   9.063   1.926 -0.0035 -0.5739  0.5904
  383MOL0     C51602   6.211   8.959   1.835  0.4385  1.0387  0.7221
  383MOL0     C51603   6.202   8.968   1.690 -0.4265  0.7751 -0.5289
  383MOL0     C51604   6.240   8.854   1.606  1.1306  0.2477 -0.1563
  383MOL0     C51605   6.260   8.727   1.663 -0.3216 -0.9455 -0.7467
  383MOL0     O51606   6.306   8.614   1.616 -0.2951  0.4193  0.6681
  383MOL0     C51607   6.367   8.622   1.487  0.2909  0.3072  0.0911
  383MOL0     C51608   6.432   8.491   1.438 -0.2089  0.6574 -0.3450
  383MOL0     C51609   6.568   8.467   1.496 -1.5651  0.1529 -0.3283
  383MOL0     C51610   6.605   8.319   1.471 -0.7940 -0.0425 -0.0856
  383MOL0     C51611   6.734   8.315   1.389  0.2887  0.1399  0.2317
  383MOL0     C51612   6.797   8.180   1.340 -0.3290 -0.2602  0.5009
  383MOL0     C51613   6.724   8.102   1.231  0.0224  0.0869  0.8063
  383MOL0     C51614   6.807   7.984   1.163  0.2441 -1.1017 -0.6940
  383MOL0    Cl51615   6.709   7.855   1.083 -0.3883  0.0042 -0.0730
  383MOL0     C51616   6.255   8.718   1.803  0.2852  0.5111  0.9824
  383MOL0     C51617   6.238   8.831   1.885  0.2807  0.1577 -0.0204
  383MOL0     O51618   6.376   9.177   1.821 -0.2174  0.7810  1.4697
  383MOL0     C51619   6.176   9.317   2.070  0.2635  0.1981  0.8198
  383MOL0     C51620   6.175   9.430   2.149  0.5888  0.2042  0.6110
  383MOL0     N51621   6.098  10.052   2.729 -0.3220  0.6772  0.2910
  383MOL0     N51622   6.016  10.151   2.711 -0.0200  0.7464 -0.0895
  383MOL0     C51623   6.672   9.920   2.373 -0.5926  0.1100 -0.4659
  383MOL0     C51624   6.703   9.811   2.294 -0.3207 -0.1494 -0.2886
  383MOL0     C51625   6.846   9.540   1.950  0.1828 -0.4801  0.7679
  383MOL0     C51626   6.831   9.526   1.811 -0.2918 -0.1818 -0.6589
  383MOL0     C51627   6.884   9.411   1.753 -0.1170  0.6833 -0.2206
  383MOL0     C51628   6.942   9.310   1.829 -0.4787 -0.1748  0.5153
  383MOL0     O51629   7.014   9.194   1.782  0.1601  0.3051  1.4546
  383MOL0     C51630   7.044   9.179   1.640 -0.6156  1.0079 -0.4800
  383MOL0     C51631   7.087   9.035   1.602  0.8594 -0.8686 -0.5042
  383MOL0     C51632   7.145   9.031   1.459 -0.1713 -0.7667  0.2000
  383MOL0     C51633   7.033   9.023   1.356  0.2281  0.3098 -0.3078
  383MOL0     C51634   7.100   9.022   1.221 -0.3976 -0.3097 -0.2390
  383MOL0     C51635   7.161   9.021   1.117 -0.0345 -0.1316 -0.3598
  383MOL0     C51636   6.954   9.327   1.965 -0.5888 -0.3847 -0.4780
  383MOL0     C51637   6.909   9.445   2.027  0.0464  0.5651 -0.1866
  383MOL0     H51638   6.866   9.971   2.045  1.6066 -0.7102  1.2788
  383MOL0     H51639   6.797  10.169   2.178 -1.7653  0.2610  1.9075
  383MOL0     H51640   6.614  10.270   2.230  0.2349  3.2547  1.2191
  383MOL0     H51641   6.471  10.200   2.309 -0.1149 -0.2575 -0.9399
  383MOL0     H51642   6.512  10.352   2.508  1.5461  2.4889  1.7870
  383MOL0     H51643   6.644  10.418   2.420 -0.5089 -0.0471  3.7076
  383MOL0     H51644   6.430  10.542   2.438  2.1848 -1.7712  0.4651
  383MOL0     H51645   6.509  10.531   2.281 -0.2437 -0.6949 -2.6595
  383MOL0     H51646   6.315  10.487   2.190  0.9793 -0.3598 -0.5074
  383MOL0     H51647   6.305  10.337   2.283 -3.6216  0.9902 -0.8380
  383MOL0     H51648   6.189  10.604   2.355  3.8761 -0.0046 -0.3047
  383MOL0     H51649   6.105  10.459   2.305 -1.0990  1.0376 -0.1997
  383MOL0     H51650   6.239  10.361   2.552 -1.7709  1.1363  5.6565
  383MOL0     H51651   6.232  10.532   2.567  1.7656  0.2575 -2.2127
  383MOL0     H51652   6.026  10.441   2.677 -2.7201  0.0201 -0.4248
  383MOL0     H51653   5.986  10.530   2.533  0.3621  0.0197  0.3930
  383MOL0     H51654   5.970  10.296   2.415 -0.1003 -2.2678 -0.9204
  383MOL0     H51655   5.863  10.318   2.544  0.3041 -0.2318  0.4607
  383MOL0     H51656   6.146  10.087   2.419 -2.2389 -1.9949 -0.0715
  383MOL0     H51657   6.296   9.879   2.682 -0.7586  2.1444  1.0580
  383MOL0     H51658   6.150   9.809   2.640 -1.0361  2.3182  0.4903
  383MOL0     H51659   6.334   9.929   2.419  1.0604 -0.6535 -1.2870
  383MOL0     H51660   6.185   9.819   2.410 -0.3320  1.5773  1.0026
  383MOL0     H51661   6.397   9.714   2.572 -1.1480  2.3448  0.4906
  383MOL0     H51662   6.460   9.758   2.405  0.0455  1.8559 -0.1091
  383MOL0     H51663   6.215   9.567   2.443 -0.9117  1.3035 -2.1110
  383MOL0     H51664   6.382   9.518   2.406  0.3601 -1.3442 -3.5120
  383MOL0     H51665   6.484   9.565   2.107  1.5771 -2.8260  0.4195
  383MOL0     H51666   6.621   9.404   2.043 -1.8131  0.9856  1.9200
  383MOL0     H51667   6.559   9.241   1.983 -0.7450 -0.5394 -0.1801
  383MOL0     H51668   6.564   9.382   1.873 -1.0855  1.0904  0.2017
  383MOL0     H51669   6.173   9.062   1.645 -1.8328  0.4981 -0.2438
  383MOL0     H51670   6.255   8.852   1.499  4.4522 -2.8157  0.1312
  383MOL0     H51671   6.295   8.643   1.407  3.7468 -0.6726 -3.6677
  383MOL0     H51672   6.444   8.699   1.476  0.8009 -0.3799 -1.4733
  383MOL0     H51673   6.370   8.412   1.483 -2.4836  2.4901 -0.1079
  383MOL0     H51674   6.441   8.485   1.329  0.5251 -3.5720 -0.2505
  383MOL0     H51675   6.579   8.500   1.599 -3.2470  0.3109 -0.1724
  383MOL0     H51676   6.641   8.527   1.441 -1.6839  0.1959 -0.4401
  383MOL0     H51677   6.612   8.264   1.565 -2.1542  3.6735  2.3924
  383MOL0     H51678   6.528   8.265   1.415 -1.1668 -0.4424  0.7947
  383MOL0     H51679   6.808   8.370   1.448 -1.7179  0.4313  2.6680
  383MOL0     H51680   6.718   8.374   1.297 -2.0316  1.7550  1.5489
  383MOL0     H51681   6.898   8.212   1.314 -0.5234  1.0010  1.2478
  383MOL0     H51682   6.810   8.112   1.424  0.1713 -0.4693  0.2564
  383MOL0     H51683   6.687   8.173   1.156 -1.5673 -1.1812  0.3479
  383MOL0     H51684   6.642   8.049   1.280  1.1159 -3.1927 -0.6605
  383MOL0     H51685   6.860   7.934   1.245  0.4193  1.9044  1.1819
  383MOL0     H51686   6.885   8.034   1.104 -1.6735  1.3988 -1.2773
  383MOL0     H51687   6.297   8.630   1.851  2.9850  0.5446 -1.1057
  383MOL0     H51688   6.248   8.840   1.993  1.5156  2.4112 -0.2576
  383MOL0     H51689   6.096   9.246   2.057  2.7577 -3.0723  1.9760
  383MOL0     H51690   6.090   9.463   2.208  0.2694  0.6099 -0.0619
  383MOL0     H51691   6.617   9.910   2.465 -0.1206 -0.3865 -0.2350
  383MOL0     H51692   6.686   9.706   2.315  0.1840  0.2334  2.2849
  383MOL0     H51693   6.760   9.587   1.756 -0.8789 -0.6442 -0.4258
  383MOL0     H51694   6.864   9.389   1.649 -0.3544 -0.5124  0.0719
  383MOL0     H51695   6.948   9.202   1.592 -1.4569 -0.0926  0.6219
  383MOL0     H51696   7.114   9.259   1.613 -2.5635  2.1048 -2.6416
  383MOL0     H51697   7.000   8.969   1.598  0.0906 -0.1936  2.4919
  383MOL0     H51698   7.162   8.999   1.673 -0.1085 -1.7890  0.0876
  383MOL0     H51699   7.204   8.940   1.445 -1.8078 -1.4527 -3.0526
  383MOL0     H51700   7.212   9.113   1.433  0.2821 -0.4034  2.3316
  383MOL0     H51701   6.973   9.114   1.365 -1.8476 -0.6866 -2.9344
  383MOL0     H51702   6.971   8.934   1.360  1.6132 -0.6758  0.1569
  383MOL0     H51703   7.228   9.023   1.033  0.6883 -0.0229  0.2090
  383MOL0     H51704   6.999   9.247   2.024 -0.1494 -1.0002 -1.6247
  383MOL0     H51705   6.914   9.455   2.135  0.0656  2.3046 -0.3082
  384MOL0     O51706   7.115   5.625   2.047  0.2785  0.2467  0.9214
  384MOL0     C51707   7.230   5.591   2.084  0.9019  0.5672 -0.8170
  384MOL0     O51708   7.343   5.653   2.053  0.2408 -0.3567  0.5266
  384MOL0     C51709   7.338   5.771   1.981 -0.1074  0.6069  1.2136
  384MOL0     C51710   7.292   5.892   2.034  0.9635  0.5683  0.3495
  384MOL0     C51711   7.296   6.007   1.955 -0.2430  0.2045 -0.3306
  384MOL0     C51712   7.348   6.001   1.826 -0.0532 -0.3151  0.2336
  384MOL0     O51713   7.370   6.108   1.741  0.1613  0.0138  0.5433
  384MOL0     C51714   7.309   6.235   1.760 -0.4370 -0.1176  0.1222
  384MOL0     C51715   7.351   6.323   1.646  0.2518 -1.3872  0.1876
  384MOL0     C51716   7.301   6.261   1.514  0.1757 -0.7138 -0.1414
  384MOL0     C51717   7.365   6.342   1.404 -0.1834 -0.0818  0.2876
  384MOL0     C51718   7.299   6.292   1.272 -0.0488 -0.4991  0.5469
  384MOL0     C51719   7.344   6.378   1.148  0.5859  0.0776 -1.0316
  384MOL0     C51720   7.318   6.306   1.025 -0.5646 -1.1136  0.4643
  384MOL0     C51721   7.354   6.394   0.908  0.2548 -0.1889 -0.8157
  384MOL0     N51722   7.417   6.316   0.806 -0.2655 -0.1942 -0.4915
  384MOL0     C51723   7.553   6.314   0.770 -0.0970  0.0595 -0.7407
  384MOL0     C51724   7.551   6.237   0.660  0.5634 -0.1882 -0.3017
  384MOL0     C51725   7.678   6.186   0.596 -0.1592  0.7873  0.0246
  384MOL0     C51726   7.664   6.047   0.534  0.1411 -0.4406  0.5160
  384MOL0     C51727   7.811   6.012   0.485  0.4243 -0.0153 -0.7287
  384MOL0     C51728   7.817   5.861   0.445  0.7131 -1.1177  0.0448
  384MOL0     O51729   7.949   5.813   0.435 -0.5334  0.7746  0.6159
  384MOL0     C51730   8.019   5.878   0.337  0.5710  0.5226 -0.2327
  384MOL0     C51731   7.995   5.833   0.207  0.0823  0.4954  0.0127
  384MOL0     C51732   8.070   5.881   0.091 -0.5091  0.1197  0.9489
  384MOL0     C51733   8.043   5.819  -0.049 -0.2747  0.3046  0.5676
  384MOL0     C51734   8.159   5.988   0.122 -0.3816  0.1393 -0.1950
  384MOL0     C51735   8.227   6.062   0.010 -0.3074  0.0850 -0.3265
  384MOL0     O51736   8.230   6.017  -0.120 -0.2440  0.1079 -0.1804
  384MOL0     C51737   8.306   6.090  -0.209  0.3799 -0.2875 -0.1046
  384MOL0     C51738   8.251   6.198  -0.277 -0.3552 -0.0919  0.4078
  384MOL0     C51739   8.313   6.259  -0.379  0.4880 -0.3712  0.3297
  384MOL0     C51740   8.446   6.226  -0.416  0.5707 -0.5891 -0.4911
  384MOL0     O51741   8.513   6.292  -0.512 -0.3182 -0.2829  0.0183
  384MOL0     C51742   8.576   6.414  -0.465  0.0206  0.5392 -0.0447
  384MOL0     C51743   8.647   6.477  -0.578 -0.6854 -0.1672  0.6482
  384MOL0     C51744   8.707   6.619  -0.535  0.1850 -0.7435 -0.7843
  384MOL0     C51745   8.588   6.722  -0.521  0.4253  0.7801  0.3611
  384MOL0     C51746   8.630   6.847  -0.434 -0.1038  1.3277  0.2454
  384MOL0     C51747   8.527   6.958  -0.448  0.0324 -0.5863 -0.7455
  384MOL0     C51748   8.551   7.064  -0.339 -0.0775  0.3834 -1.1353
  384MOL0     C51749   8.517   7.028  -0.193 -0.1742 -0.1901  0.6644
  384MOL0    Cl51750   8.531   7.184  -0.092 -0.0924 -0.0423  0.1619
  384MOL0     C51751   8.500   6.125  -0.344 -0.1607 -0.8014 -0.4908
  384MOL0     C51752   8.436   6.063  -0.240 -1.6181 -0.2988 -0.7263
  384MOL0     O51753   8.286   6.162   0.047 -0.4344  0.6352  0.5832
  384MOL0     C51754   8.171   6.035   0.259 -0.0239 -0.4768  0.9348
  384MOL0     C51755   8.102   5.982   0.365  0.1322  0.4101 -0.4636
  384MOL0     N51756   7.427   6.179   0.640 -0.4520  0.5396  0.3435
  384MOL0     N51757   7.342   6.232   0.723 -0.0538  0.2955  0.8577
  384MOL0     C51758   7.389   5.881   1.775 -0.0640 -0.8506  0.4796
  384MOL0     C51759   7.395   5.764   1.852  0.8685 -0.4858  0.2782
  384MOL0     C51760   7.241   5.475   2.177 -0.9130  0.1776  0.3138
  384MOL0     C51761   7.372   5.444   2.237 -0.0994  0.1141  0.1668
  384MOL0     C51762   7.376   5.332   2.323  0.0413 -0.7679 -0.3495
  384MOL0     C51763   7.261   5.258   2.354  1.6085 -0.3687  0.7146
  384MOL0     O51764   7.262   5.156   2.444 -0.0329  0.4847 -0.4829
  384MOL0     C51765   7.321   5.181   2.574 -0.2424 -0.8518  0.1778
  384MOL0     C51766   7.463   5.106   2.570  0.8779  0.0739  0.9239
  384MOL0     C51767   7.442   4.954   2.608  0.5011  0.8349  0.0058
  384MOL0     C51768   7.457   4.913   2.759  0.6405 -0.0796  0.5392
  384MOL0     C51769   7.599   4.930   2.782 -0.1097 -0.0566  0.0504
  384MOL0     C51770   7.719   4.956   2.774 -1.1143 -0.3095 -0.4525
  384MOL0     C51771   7.144   5.282   2.291  0.7551  0.5395 -0.0832
  384MOL0     C51772   7.130   5.385   2.203  0.4792 -0.3940  0.2381
  384MOL0     H51773   7.256   5.898   2.136 -0.2831 -1.2110  0.0535
  384MOL0     H51774   7.267   6.103   1.998 -0.7856 -0.1861  0.1886
  384MOL0     H51775   7.201   6.221   1.757 -0.4923  0.3178 -0.0373
  384MOL0     H51776   7.333   6.284   1.855  0.0203  0.7440 -0.4190
  384MOL0     H51777   7.316   6.427   1.653  1.0447 -0.9414 -1.7976
  384MOL0     H51778   7.459   6.330   1.634  0.3807  0.2069  1.8133
  384MOL0     H51779   7.317   6.154   1.497 -0.1786 -0.9141  0.7062
  384MOL0     H51780   7.194   6.273   1.527 -0.0858 -3.9994  2.1085
  384MOL0     H51781   7.358   6.450   1.416  0.1227 -0.0176 -0.0752
  384MOL0     H51782   7.473   6.321   1.410 -0.3517 -0.6502  1.5755
  384MOL0     H51783   7.314   6.184   1.259  0.0402 -0.2748 -1.5277
  384MOL0     H51784   7.193   6.313   1.288 -0.1873 -0.9099  0.1777
  384MOL0     H51785   7.289   6.472   1.154  1.0275  0.2375  1.9297
  384MOL0     H51786   7.447   6.407   1.168  0.3977 -0.7264  1.4572
  384MOL0     H51787   7.383   6.218   1.022 -1.1724 -1.5754  0.6701
  384MOL0     H51788   7.216   6.268   1.011  0.2410 -3.1656 -0.1876
  384MOL0     H51789   7.424   6.466   0.952 -0.7608  0.7721 -0.7206
  384MOL0     H51790   7.261   6.447   0.881  0.3768  0.5585  0.1780
  384MOL0     H51791   7.628   6.371   0.824 -2.4359  2.4298  0.1925
  384MOL0     H51792   7.693   6.264   0.520  1.3198 -2.0381 -2.7946
  384MOL0     H51793   7.766   6.197   0.660  0.8019 -1.2983 -0.8512
  384MOL0     H51794   7.600   6.051   0.445  2.7792  2.2940 -1.4778
  384MOL0     H51795   7.640   5.978   0.615  1.3370 -0.3188  0.9941
  384MOL0     H51796   7.880   6.021   0.569 -3.1795  0.5250  2.4900
  384MOL0     H51797   7.838   6.069   0.396  0.9418  2.9065  1.1391
  384MOL0     H51798   7.744   5.854   0.364 -1.4184 -3.4374  1.9772
  384MOL0     H51799   7.782   5.801   0.530  1.1352 -1.3226  0.0795
  384MOL0     H51800   7.919   5.756   0.201  1.5625 -1.8575  5.4480
  384MOL0     H51801   8.126   5.758  -0.085 -1.2616 -1.3228  0.9332
  384MOL0     H51802   7.958   5.749  -0.047  0.4337 -0.5800  0.2213
  384MOL0     H51803   8.031   5.899  -0.122  2.3298 -0.1386 -0.4408
  384MOL0     H51804   8.142   6.206  -0.275 -0.6641 -2.8575 -0.2163
  384MOL0     H51805   8.245   6.319  -0.438 -1.5369 -2.1355  0.7622
  384MOL0     H51806   8.497   6.470  -0.414 -1.5464 -3.8763  3.0415
  384MOL0     H51807   8.648   6.390  -0.385 -2.3345 -2.8868  1.2932
  384MOL0     H51808   8.730   6.410  -0.601 -0.6705 -0.2237  0.8680
  384MOL0     H51809   8.587   6.476  -0.670 -0.4240 -0.7252  0.4794
  384MOL0     H51810   8.782   6.662  -0.602  0.5541 -0.8737 -0.4596
  384MOL0     H51811   8.763   6.607  -0.442 -0.4299  0.5311 -0.2267
  384MOL0     H51812   8.553   6.750  -0.622 -0.0661 -0.4830  0.1628
  384MOL0     H51813   8.494   6.679  -0.485  0.9653 -0.6594  0.1292
  384MOL0     H51814   8.734   6.869  -0.459  0.7816 -2.1181  0.4683
  384MOL0     H51815   8.620   6.819  -0.328 -0.6483 -3.1116 -0.8174
  384MOL0     H51816   8.518   7.002  -0.547 -0.5809  0.6200 -0.1701
  384MOL0     H51817   8.428   6.916  -0.428 -0.4508  1.8015  2.9603
  384MOL0     H51818   8.485   7.146  -0.368  1.7190  2.5674  0.5394
  384MOL0     H51819   8.656   7.094  -0.341 -0.0856  0.6127  0.5841
  384MOL0     H51820   8.591   6.951  -0.171  1.0449  0.4435 -0.9695
  384MOL0     H51821   8.415   6.990  -0.180 -0.4165  1.3818  5.0594
  384MOL0     H51822   8.603   6.098  -0.369  0.6550 -0.0389  1.8037
  384MOL0     H51823   8.487   5.995  -0.173  0.4048 -0.3664 -2.2375
  384MOL0     H51824   8.241   6.107   0.301  0.5364 -1.9693  2.7446
  384MOL0     H51825   8.126   6.019   0.464  2.2448 -0.1001 -0.7445
  384MOL0     H51826   7.449   5.886   1.684  1.7355  0.0883  1.6563
  384MOL0     H51827   7.447   5.671   1.830  0.7335 -0.7214  0.9226
  384MOL0     H51828   7.463   5.504   2.240 -1.2985  2.0310  3.2529
  384MOL0     H51829   7.468   5.313   2.378  1.2061  1.0223 -1.5688
  384MOL0     H51830   7.338   5.285   2.603  1.6521 -1.3606  1.0025
  384MOL0     H51831   7.257   5.133   2.648 -1.5239 -0.5489 -0.6969
  384MOL0     H51832   7.533   5.153   2.640  0.6755  1.3563  0.2873
  384MOL0     H51833   7.499   5.114   2.467  0.6130  0.2419  0.8439
  384MOL0     H51834   7.502   4.899   2.535 -1.6459 -0.1445 -1.1097
  384MOL0     H51835   7.344   4.914   2.581  0.1195  0.5890  1.6210
  384MOL0     H51836   7.429   4.807   2.768  0.5331 -0.1986 -0.8617
  384MOL0     H51837   7.389   4.969   2.824  1.8383  1.6729  0.3401
  384MOL0     H51838   7.812   5.007   2.760 -1.3599 -0.3518 -2.5665
  384MOL0     H51839   7.057   5.217   2.301 -0.2164  2.0842  2.3211
  384MOL0     H51840   7.033   5.403   2.158  0.1736  0.3178  1.1694
  385MOL0     O51841   4.073  10.273   9.619 -0.1291 -0.1304  0.5038
  385MOL0     C51842   4.098  10.163   9.674 -0.0627  0.0164 -0.2235
  385MOL0     O51843   4.091  10.045   9.606  0.2735  0.4013  0.1336
  385MOL0     C51844   4.088  10.034   9.466  0.2914  0.9715  0.2479
  385MOL0     C51845   4.190  10.075   9.370 -0.5649  0.4924 -0.3489
  385MOL0     C51846   4.170  10.081   9.238  0.4064  0.1760 -0.1111
  385MOL0     C51847   4.051  10.038   9.176  0.7702 -0.6005 -0.3740
  385MOL0     O51848   4.032  10.015   9.042 -0.3440 -0.1120  0.8401
  385MOL0     C51849   4.118  10.072   8.940  0.4014 -0.3611 -0.9828
  385MOL0     C51850   4.049  10.111   8.809  0.2498 -0.9247 -0.2261
  385MOL0     C51851   3.956  10.239   8.803  0.4661 -0.6771 -0.2986
  385MOL0     C51852   4.028  10.361   8.868 -0.0573  0.1483 -0.1716
  385MOL0     C51853   3.962  10.494   8.832 -0.1129  0.1238 -0.3881
  385MOL0     C51854   3.808  10.494   8.851 -0.4467  0.2007  0.3054
  385MOL0     C51855   3.754  10.638   8.848  0.8370 -0.5587  0.0046
  385MOL0     C51856   3.600  10.656   8.846  0.3380  0.6165  0.6437
  385MOL0     N51857   3.539  10.637   8.977  0.0044  0.2723 -0.2660
  385MOL0     C51858   3.521  10.523   9.043  0.7913 -0.0889 -0.4951
  385MOL0     C51859   3.423  10.559   9.136 -0.1239 -0.0795 -0.8973
  385MOL0     C51860   3.351  10.466   9.229 -0.2384 -0.4053 -0.0685
  385MOL0     C51861   3.196  10.462   9.212  0.4236  0.0976 -0.0082
  385MOL0     C51862   3.135  10.354   9.311 -0.3539 -0.3389  0.9773
  385MOL0     C51863   2.982  10.345   9.299  0.6777  0.2933  0.2503
  385MOL0     O51864   2.936  10.295   9.424  0.3711 -0.8350 -0.1284
  385MOL0     C51865   2.800  10.295   9.432  0.1770  1.2522  0.3393
  385MOL0     C51866   2.752  10.325   9.552  0.5645  0.2357 -0.0781
  385MOL0     C51867   2.617  10.349   9.581 -0.5578  0.8072 -0.4278
  385MOL0     C51868   2.588  10.387   9.719 -0.1606  0.0775 -0.6936
  385MOL0     C51869   2.519  10.336   9.476 -0.5363 -0.1262  0.5795
  385MOL0     C51870   2.376  10.354   9.486  0.2580  0.1231  1.0381
  385MOL0     O51871   2.313  10.409   9.377  0.0531  0.1556 -0.2592
  385MOL0     C51872   2.185  10.462   9.399  0.5208  1.1437 -0.8577
  385MOL0     C51873   2.075  10.381   9.452 -1.1159 -0.1272  0.8481
  385MOL0     C51874   1.952  10.437   9.468  0.0238 -0.7478 -0.0799
  385MOL0     C51875   1.920  10.568   9.417  1.2710 -0.0450 -0.6100
  385MOL0     O51876   1.794  10.626   9.424 -0.3496 -0.3721 -0.6530
  385MOL0     C51877   1.684  10.544   9.427  0.0975  0.7120 -0.4443
  385MOL0     C51878   1.570  10.652   9.427 -0.2170  0.0863 -0.9587
  385MOL0     C51879   1.442  10.582   9.464  1.0589  0.0790 -0.6235
  385MOL0     C51880   1.312  10.666   9.425 -0.2017 -0.1996  0.3652
  385MOL0     C51881   1.277  10.773   9.528 -0.7740 -0.0756 -1.7482
  385MOL0     C51882   1.164  10.717   9.625 -0.3516  0.3499  0.0358
  385MOL0     C51883   1.138  10.807   9.743  0.2386 -1.2057 -0.5938
  385MOL0     C51884   1.222  10.794   9.876  0.8752 -1.2764 -0.5602
  385MOL0    Cl51885   1.188  10.625   9.951 -0.3653 -0.4839 -0.0776
  385MOL0     C51886   2.028  10.647   9.375 -0.3989 -0.3007  0.1895
  385MOL0     C51887   2.162  10.598   9.366 -0.3984  0.1527  1.2295
  385MOL0     O51888   2.325  10.314   9.588 -0.0187 -0.2166 -0.0834
  385MOL0     C51889   2.569  10.295   9.349  0.5603 -0.4806 -0.1983
  385MOL0     C51890   2.708  10.267   9.327  0.5421 -0.1682 -0.2158
  385MOL0     N51891   3.412  10.701   9.141 -0.5421  0.0415 -0.8043
  385MOL0     N51892   3.477  10.743   9.039 -0.2011 -0.2007  0.1205
  385MOL0     C51893   3.946   9.991   9.263 -0.6370 -0.0781  0.4134
  385MOL0     C51894   3.965   9.992   9.406 -1.0034 -0.1365 -0.5052
  385MOL0     C51895   4.102  10.169   9.819  0.0110  0.0282 -0.2858
  385MOL0     C51896   4.143  10.285   9.899 -0.7918 -0.4285  1.4610
  385MOL0     C51897   4.121  10.291  10.033 -0.4510 -0.1431 -0.1956
  385MOL0     C51898   4.061  10.179  10.097 -0.0037 -1.1375  0.0792
  385MOL0     O51899   4.061  10.194  10.233 -0.3732 -0.2968 -0.8711
  385MOL0     C51900   4.031  10.082  10.314  1.3509 -0.0708  0.7279
  385MOL0     C51901   4.067  10.116  10.458 -0.6361  0.5197 -0.2124
  385MOL0     C51902   4.021  10.016  10.573 -0.6112 -0.5250 -0.8058
  385MOL0     C51903   4.083  10.062  10.709 -1.0542  0.7156  0.7221
  385MOL0     C51904   4.224  10.028  10.723  0.3661  0.3433 -0.9402
  385MOL0     C51905   4.341   9.990  10.737  0.3093 -0.5200  0.4384
  385MOL0     C51906   4.018  10.072  10.028 -0.6250 -0.3115  0.2336
  385MOL0     C51907   4.043  10.075   9.892  0.5946 -0.2712  0.4358
  385MOL0     H51908   4.268  10.134   9.416  0.5187 -0.8723 -0.3757
  385MOL0     H51909   4.255  10.106   9.175  0.1823 -0.0176 -0.4956
  385MOL0     H51910   4.153  10.163   8.989  2.9899  0.3812 -3.9195
  385MOL0     H51911   4.208  10.014   8.923  2.1111  1.4954  1.1527
  385MOL0     H51912   4.124  10.129   8.731 -0.8214  1.9868 -0.6952
  385MOL0     H51913   3.986  10.023   8.792  0.0629 -1.3038  2.1379
  385MOL0     H51914   3.920  10.263   8.703 -4.4178  0.1593  1.4311
  385MOL0     H51915   3.864  10.221   8.858  1.4765 -2.5668  0.8837
  385MOL0     H51916   4.021  10.355   8.977 -4.2931  0.5053 -0.2869
  385MOL0     H51917   4.134  10.366   8.839 -0.4123  1.6020 -1.3495
  385MOL0     H51918   3.999  10.562   8.910  0.5507 -1.1355  0.4540
  385MOL0     H51919   3.998  10.527   8.734 -1.7251  0.8591 -0.7599
  385MOL0     H51920   3.762  10.428   8.776  0.2400 -1.7532  1.5421
  385MOL0     H51921   3.775  10.452   8.946  1.5539  0.2449  1.0557
  385MOL0     H51922   3.792  10.696   8.933 -1.7202  1.0556  0.1531
  385MOL0     H51923   3.796  10.684   8.758  0.6385 -1.3035 -0.4747
  385MOL0     H51924   3.543  10.597   8.774  0.6924  1.0762 -0.0223
  385MOL0     H51925   3.579  10.757   8.810 -0.2667 -0.4268 -2.2417
  385MOL0     H51926   3.550  10.421   9.023  2.5973  0.5394 -1.2182
  385MOL0     H51927   3.386  10.363   9.225  0.8156 -0.0499 -0.1208
  385MOL0     H51928   3.372  10.509   9.327  0.8213  0.2236 -0.5571
  385MOL0     H51929   3.172  10.435   9.109  0.0548 -2.7889  0.7369
  385MOL0     H51930   3.157  10.557   9.250  2.0617 -0.5600  3.7910
  385MOL0     H51931   3.158  10.367   9.418 -1.3957  0.3837  1.1250
  385MOL0     H51932   3.171  10.261   9.267  0.0565  0.1370  0.2911
  385MOL0     H51933   2.972  10.260   9.230 -1.6084 -0.7867  1.7820
  385MOL0     H51934   2.915  10.424   9.264  1.0704  0.1894 -0.7684
  385MOL0     H51935   2.831  10.324   9.626  0.6885 -3.8395 -0.0109
  385MOL0     H51936   2.560  10.492   9.712 -1.5793 -0.3684 -4.7300
  385MOL0     H51937   2.523  10.314   9.769  1.7854 -0.4369  1.2447
  385MOL0     H51938   2.682  10.400   9.773  0.0589  1.4064 -1.3714
  385MOL0     H51939   2.084  10.277   9.484  1.0758 -0.0900  0.5183
  385MOL0     H51940   1.877  10.388   9.531 -0.6383 -0.1529 -0.3879
  385MOL0     H51941   1.663  10.479   9.341 -0.4517  1.1376 -0.6364
  385MOL0     H51942   1.681  10.490   9.522 -1.5894  3.9933  1.5696
  385MOL0     H51943   1.596  10.741   9.486  1.7013  0.7119 -2.6333
  385MOL0     H51944   1.572  10.695   9.326  3.0819 -0.5955 -1.2760
  385MOL0     H51945   1.433  10.545   9.566  0.7111 -2.8750 -1.6124
  385MOL0     H51946   1.440  10.486   9.410 -2.5955 -2.8477  3.9055
  385MOL0     H51947   1.324  10.713   9.327 -1.8483 -2.2883 -0.9233
  385MOL0     H51948   1.220  10.607   9.424 -0.1780 -0.3337  2.2943
  385MOL0     H51949   1.225  10.863   9.496  0.8158  1.2592 -0.7681
  385MOL0     H51950   1.369  10.794   9.584 -0.0828 -2.0142 -2.0714
  385MOL0     H51951   1.069  10.703   9.571  0.5715 -0.8610 -1.3518
  385MOL0     H51952   1.194  10.621   9.668  2.1757  1.1736  0.2946
  385MOL0     H51953   1.034  10.801   9.776  0.1137  1.6785 -0.1708
  385MOL0     H51954   1.146  10.907   9.701 -1.0094 -1.5454 -1.6817
  385MOL0     H51955   1.200  10.870   9.951  3.6555  1.0522 -1.9018
  385MOL0     H51956   1.330  10.812   9.867  0.6889  0.3333  0.1265
  385MOL0     H51957   2.017  10.748   9.336  1.1105 -0.8217 -1.7796
  385MOL0     H51958   2.237  10.663   9.323 -1.2792  1.0814  1.0462
  385MOL0     H51959   2.494  10.295   9.271 -2.2318 -3.6661  2.2337
  385MOL0     H51960   2.739  10.219   9.235 -2.6808 -2.6088 -0.2079
  385MOL0     H51961   3.862   9.945   9.211  1.0822 -4.0134  0.7503
  385MOL0     H51962   3.886   9.960   9.474 -1.3724  2.4066  0.3529
  385MOL0     H51963   4.193  10.363   9.843 -2.1347  0.5684  1.6081
  385MOL0     H51964   4.146  10.385  10.081 -0.8211 -0.7555  1.2621
  385MOL0     H51965   3.923  10.075  10.299  1.6024 -0.6608 -0.9771
  385MOL0     H51966   4.072   9.987  10.278  1.1803 -0.4213  1.4377
  385MOL0     H51967   4.030  10.215  10.487 -4.1025 -1.3661  2.6875
  385MOL0     H51968   4.176  10.121  10.461 -0.5401 -0.3353  4.0295
  385MOL0     H51969   4.040   9.909  10.559 -2.5410 -0.7742 -1.8158
  385MOL0     H51970   3.914  10.032  10.589  0.2341  3.1306  2.7072
  385MOL0     H51971   4.028  10.025  10.796  2.7404 -1.5545  2.4183
  385MOL0     H51972   4.072  10.171  10.714 -0.2816  0.9606 -1.7137
  385MOL0     H51973   4.435   9.966  10.781  0.3796 -2.9112 -0.8693
  385MOL0     H51974   3.966   9.989  10.075 -0.2509 -0.2306  0.7915
  385MOL0     H51975   3.991   9.995   9.840 -1.1004 -1.3370  3.5356
  386MOL0     O51976   2.430   9.897   4.971  0.7418 -0.3132  0.0202
  386MOL0     C51977   2.517   9.982   4.991 -0.8983  0.3821 -0.1275
  386MOL0     O51978   2.605  10.035   4.892 -0.3720  1.4706  0.1380
  386MOL0     C51979   2.570  10.004   4.766 -0.5322  1.0499  1.3263
  386MOL0     C51980   2.529  10.099   4.681 -0.2912 -0.5318  0.5802
  386MOL0     C51981   2.496  10.064   4.546 -0.2787 -0.1789  0.3035
  386MOL0     C51982   2.508   9.930   4.494 -0.5113 -0.1118 -0.6656
  386MOL0     O51983   2.492   9.887   4.368 -0.1536 -0.0437  0.5579
  386MOL0     C51984   2.391   9.937   4.286  0.4534 -0.2751 -0.4154
  386MOL0     C51985   2.264   9.847   4.288  0.9342  0.6069 -0.3686
  386MOL0     C51986   2.198   9.828   4.421  0.4992  0.1303 -0.4932
  386MOL0     C51987   2.233   9.706   4.509 -0.3994 -0.6809 -0.7692
  386MOL0     C51988   2.202   9.722   4.657 -0.4873 -0.2216  0.1249
  386MOL0     C51989   2.054   9.743   4.700  0.0973 -0.0767  0.6781
  386MOL0     C51990   2.030   9.757   4.848  0.1174 -0.6478 -0.0191
  386MOL0     C51991   2.125   9.854   4.918  1.0635  0.0610 -0.8561
  386MOL0     N51992   2.082   9.893   5.052 -0.1450  0.0492  0.4083
  386MOL0     C51993   2.137   9.846   5.172  0.1429  0.1589  0.4669
  386MOL0     C51994   2.063   9.922   5.259 -0.6766 -1.0131 -0.3421
  386MOL0     C51995   2.077   9.912   5.410  0.2536  0.9105 -0.8799
  386MOL0     C51996   2.169   9.799   5.467  0.3869  0.4133 -0.7947
  386MOL0     C51997   2.085   9.716   5.566 -0.6664 -0.1893  0.7361
  386MOL0     C51998   1.977   9.640   5.496 -0.1886  0.7684  0.5826
  386MOL0     O51999   1.910   9.552   5.587 -0.6094 -1.2779 -0.0961
  386MOL0     C52000   1.816   9.457   5.551 -0.8205  0.4425 -0.5295
  386MOL0     C52001   1.773   9.364   5.648  0.1012  0.2807  0.8339
  386MOL0     C52002   1.685   9.261   5.623 -0.7835  0.0528  0.1642
  386MOL0     C52003   1.645   9.178   5.741  0.1379  0.0313  0.1967
  386MOL0     C52004   1.652   9.236   5.487  0.4589  0.4126 -0.7291
  386MOL0     C52005   1.572   9.119   5.444  0.4000  0.4919 -1.4481
  386MOL0     O52006   1.628   9.030   5.360 -0.3648 -0.7476 -0.1657
  386MOL0     C52007   1.613   8.898   5.396 -0.7595  1.6065  0.8977
  386MOL0     C52008   1.576   8.844   5.522 -0.2685  0.4825 -0.4794
  386MOL0     C52009   1.565   8.711   5.546 -0.6613  0.8206  0.8462
  386MOL0     C52010   1.576   8.623   5.439  0.5562 -0.0446 -1.4957
  386MOL0     O52011   1.574   8.489   5.465  0.3413 -0.0703  0.5751
  386MOL0     C52012   1.534   8.426   5.591 -0.1864  0.4767 -0.7488
  386MOL0     C52013   1.571   8.285   5.565 -0.4772 -0.1004 -0.3221
  386MOL0     C52014   1.685   8.236   5.647 -0.5802 -0.2333  1.0127
  386MOL0     C52015   1.814   8.304   5.609 -0.0593  0.0109 -0.2665
  386MOL0     C52016   1.925   8.271   5.699 -0.6116 -0.6145 -0.5039
  386MOL0     C52017   1.986   8.140   5.665 -0.6565  0.6718  0.2061
  386MOL0     C52018   2.141   8.126   5.696  0.1249 -0.3873  0.4214
  386MOL0     C52019   2.213   8.214   5.805  0.2093 -0.0881 -0.0799
  386MOL0    Cl52020   2.388   8.195   5.764  0.3097  0.2168 -0.6390
  386MOL0     C52021   1.615   8.666   5.315 -0.7823 -0.0659 -0.3208
  386MOL0     C52022   1.635   8.798   5.294 -0.2043 -0.8940 -0.1755
  386MOL0     O52023   1.451   9.119   5.474  0.3773  0.1318  0.0127
  386MOL0     C52024   1.693   9.327   5.392 -0.0731  0.8024 -0.4379
  386MOL0     C52025   1.779   9.431   5.426 -0.3330  1.0366  0.4276
  386MOL0     N52026   1.958   9.998   5.204 -0.1404 -0.0299  0.1333
  386MOL0     N52027   1.974   9.974   5.074 -0.4557  0.7230 -0.6959
  386MOL0     C52028   2.555   9.837   4.587 -0.9103  0.4894  0.0801
  386MOL0     C52029   2.575   9.871   4.722  0.6157 -0.0199  1.1280
  386MOL0     C52030   2.570  10.014   5.130 -0.9974 -0.4559  0.3840
  386MOL0     C52031   2.518   9.949   5.239  0.0044 -0.0375  0.0471
  386MOL0     C52032   2.559   9.974   5.374 -0.6606 -0.8490 -0.7285
  386MOL0     C52033   2.660  10.069   5.402 -0.4331  0.2947  0.6186
  386MOL0     O52034   2.712  10.104   5.527  1.0189  0.8288  0.2456
  386MOL0     C52035   2.657  10.024   5.634 -0.7162 -0.2827  0.5050
  386MOL0     C52036   2.725  10.072   5.765 -0.2424  0.8389 -1.3721
  386MOL0     C52037   2.673   9.978   5.877  0.0648 -0.8422  1.0133
  386MOL0     C52038   2.720  10.017   6.017 -0.0736  0.1193 -0.3761
  386MOL0     C52039   2.868   9.993   6.039  0.8746 -0.4324  0.4965
  386MOL0     C52040   2.980   9.982   6.058 -0.4207 -1.4258 -0.3740
  386MOL0     C52041   2.710  10.141   5.293 -0.2786  0.6708 -0.4248
  386MOL0     C52042   2.672  10.108   5.159 -0.3620  0.6164 -0.0586
  386MOL0     H52043   2.530  10.202   4.717  2.0239  0.1826 -1.2644
  386MOL0     H52044   2.466  10.149   4.486  0.5722  0.6845  1.0719
  386MOL0     H52045   2.388  10.043   4.313 -0.2198 -0.6150  0.9349
  386MOL0     H52046   2.410   9.934   4.178 -0.6568 -0.1289 -0.6362
  386MOL0     H52047   2.208   9.877   4.199  0.0592  0.9832  0.2917
  386MOL0     H52048   2.282   9.745   4.253 -0.6224  0.3167 -0.4295
  386MOL0     H52049   2.231   9.915   4.479 -0.2032  1.0624 -1.4454
  386MOL0     H52050   2.089   9.831   4.410  0.3590 -2.3630 -0.1491
  386MOL0     H52051   2.205   9.612   4.462  0.6348 -0.6152 -1.5491
  386MOL0     H52052   2.342   9.703   4.505 -0.3476  0.9999 -2.3611
  386MOL0     H52053   2.249   9.650   4.725  2.0986 -0.1272 -1.4174
  386MOL0     H52054   2.254   9.815   4.679  1.9883 -1.6926  0.9241
  386MOL0     H52055   2.014   9.834   4.653  0.3244 -0.1859  0.2653
  386MOL0     H52056   1.988   9.660   4.677  0.3361 -0.7919  2.4348
  386MOL0     H52057   1.926   9.793   4.844  0.8351  1.6291  0.4115
  386MOL0     H52058   2.034   9.655   4.889 -0.9320 -0.5492  0.3838
  386MOL0     H52059   2.145   9.951   4.872  3.0966  1.3495  2.4297
  386MOL0     H52060   2.221   9.802   4.923  0.8632 -0.2234  0.3769
  386MOL0     H52061   2.213   9.768   5.180 -2.0562 -1.9939  1.7036
  386MOL0     H52062   2.125  10.005   5.441  2.8086 -1.0640  1.6686
  386MOL0     H52063   1.977   9.914   5.455 -0.2022  0.7785 -1.8544
  386MOL0     H52064   2.253   9.848   5.516 -0.4960  1.4552 -0.2791
  386MOL0     H52065   2.211   9.743   5.382 -1.4557  1.8202 -2.7545
  386MOL0     H52066   2.050   9.781   5.646  1.3408 -1.2352  2.5858
  386MOL0     H52067   2.145   9.643   5.622  0.9831  0.9195  0.5028
  386MOL0     H52068   2.016   9.581   5.412  1.6161 -0.3296  2.1025
  386MOL0     H52069   1.898   9.710   5.470 -0.2835  1.0734  1.6286
  386MOL0     H52070   1.805   9.385   5.749  1.1945  1.8620  0.1930
  386MOL0     H52071   1.605   9.241   5.821 -1.9844  0.0160 -0.7771
  386MOL0     H52072   1.575   9.101   5.706  2.4284 -1.4261 -1.5417
  386MOL0     H52073   1.733   9.120   5.771 -0.0556  0.3736  1.4561
  386MOL0     H52074   1.564   8.905   5.610 -2.2532  2.7283 -2.1520
  386MOL0     H52075   1.564   8.662   5.642  0.6171  3.3985  2.2790
  386MOL0     H52076   1.603   8.462   5.668  1.9067 -0.2388 -2.2045
  386MOL0     H52077   1.429   8.427   5.621 -0.0212  2.5160 -0.0853
  386MOL0     H52078   1.494   8.214   5.595 -1.0879  1.4514  2.0978
  386MOL0     H52079   1.609   8.271   5.464 -0.2844 -1.3064 -0.1025
  386MOL0     H52080   1.698   8.131   5.619 -1.4072  0.4901 -2.5673
  386MOL0     H52081   1.672   8.244   5.756  1.2891 -1.0519  1.3284
  386MOL0     H52082   1.847   8.286   5.507  0.5826 -1.2851  0.1420
  386MOL0     H52083   1.810   8.413   5.621  1.3901  0.1510 -0.7936
  386MOL0     H52084   1.891   8.284   5.803 -0.2868 -2.7983 -0.0893
  386MOL0     H52085   1.988   8.358   5.679 -2.7409  1.0240 -0.4902
  386MOL0     H52086   1.932   8.066   5.723 -1.4842  0.0476 -1.2998
  386MOL0     H52087   1.982   8.114   5.559 -0.7039  1.7871 -0.0827
  386MOL0     H52088   2.193   8.118   5.600  1.7047 -2.4309  1.3834
  386MOL0     H52089   2.159   8.028   5.740 -1.8677 -2.5124 -3.0773
  386MOL0     H52090   2.182   8.186   5.906 -2.9935  0.0715 -0.9058
  386MOL0     H52091   2.192   8.321   5.793 -0.4380 -0.0612  1.1353
  386MOL0     H52092   1.628   8.604   5.226  2.8202 -1.0066  0.6892
  386MOL0     H52093   1.660   8.837   5.196  1.1699 -0.2568  0.4002
  386MOL0     H52094   1.656   9.314   5.291 -2.4906  0.9613  0.3717
  386MOL0     H52095   1.810   9.505   5.353 -6.7376  1.6895 -2.3034
  386MOL0     H52096   2.582   9.735   4.560 -0.2544  0.5474  0.5146
  386MOL0     H52097   2.610   9.794   4.790  2.1563 -1.6286 -1.2907
  386MOL0     H52098   2.432   9.884   5.229 -0.6054  0.6272  0.8454
  386MOL0     H52099   2.515   9.907   5.447  0.9886  0.7990  1.9631
  386MOL0     H52100   2.554  10.062   5.636  0.3646  3.2257 -1.4284
  386MOL0     H52101   2.653   9.915   5.632  0.0981 -0.4671  3.6632
  386MOL0     H52102   2.691  10.173   5.790  1.6495  1.2292 -0.1094
  386MOL0     H52103   2.833  10.059   5.752 -0.5775  0.1206 -3.9236
  386MOL0     H52104   2.703   9.876   5.851  2.9521  0.6863 -2.4657
  386MOL0     H52105   2.564   9.983   5.881  0.0505 -0.1733  0.0264
  386MOL0     H52106   2.671   9.951   6.090 -2.0833 -0.0144 -1.7476
  386MOL0     H52107   2.689  10.118   6.044  2.6290  0.2606  2.9633
  386MOL0     H52108   3.086   9.973   6.068 -0.0654 -4.6699 -4.3036
  386MOL0     H52109   2.799  10.194   5.323  1.0688 -1.8324  0.2790
  386MOL0     H52110   2.710  10.156   5.070 -0.0044 -0.1908 -0.3480
  387MOL0     O52111   2.108   1.463   6.393  0.7251  0.7564  0.0820
  387MOL0     C52112   2.005   1.498   6.448 -0.1552  0.6057 -0.8800
  387MOL0     O52113   1.955   1.624   6.455 -0.2474  0.1955  0.6125
  387MOL0     C52114   2.036   1.717   6.397 -0.3038 -0.3363  0.2095
  387MOL0     C52115   2.129   1.785   6.476  0.5364  0.1588 -0.8126
  387MOL0     C52116   2.223   1.875   6.424  0.3438 -0.3345 -0.9648
  387MOL0     C52117   2.216   1.893   6.286 -0.6255 -0.1314 -0.1475
  387MOL0     O52118   2.297   1.975   6.219 -0.2792 -0.9030 -0.5517
  387MOL0     C52119   2.302   2.103   6.282 -0.1846  0.1748 -0.4888
  387MOL0     C52120   2.296   2.211   6.169 -0.3096 -0.0456  0.4859
  387MOL0     C52121   2.152   2.261   6.139  0.3672 -1.0275 -0.2922
  387MOL0     C52122   2.133   2.329   6.004 -0.4810 -0.3896  0.3157
  387MOL0     C52123   2.039   2.443   6.002  0.2006  1.4223 -0.5012
  387MOL0     C52124   2.079   2.534   5.884  0.5312  0.3410 -0.4161
  387MOL0     C52125   2.076   2.452   5.759  1.2594  0.5283 -0.1205
  387MOL0     C52126   2.075   2.556   5.635 -1.0098 -0.0588  0.7372
  387MOL0     N52127   2.104   2.480   5.514 -0.7521 -0.8725 -1.5221
  387MOL0     C52128   2.223   2.483   5.441  0.1766 -0.0462 -0.3720
  387MOL0     C52129   2.230   2.365   5.377 -0.5625 -0.0352  0.4668
  387MOL0     C52130   2.345   2.308   5.311 -0.2796 -0.3258 -0.0869
  387MOL0     C52131   2.411   2.205   5.412 -0.5755  0.0902 -0.8106
  387MOL0     C52132   2.439   2.288   5.549 -0.6839  0.3226  0.7195
  387MOL0     C52133   2.517   2.195   5.639  1.1081  1.4047  0.3716
  387MOL0     O52134   2.441   2.085   5.705 -0.3288 -0.7517 -0.0835
  387MOL0     C52135   2.495   2.024   5.812 -0.3273  0.4786 -0.2816
  387MOL0     C52136   2.598   2.071   5.890  0.0429  0.2080 -0.7121
  387MOL0     C52137   2.628   2.000   6.012 -0.4999 -0.0956 -0.5607
  387MOL0     C52138   2.738   2.067   6.098 -0.1007 -0.0098 -0.7942
  387MOL0     C52139   2.570   1.877   6.038 -1.1474 -0.1022 -0.5022
  387MOL0     C52140   2.617   1.780   6.143  0.6396  0.2144 -1.0751
  387MOL0     O52141   2.590   1.644   6.125  0.5041  0.0693  0.0590
  387MOL0     C52142   2.573   1.578   6.245 -0.9289  0.6916  0.1391
  387MOL0     C52143   2.674   1.501   6.312  0.7792  0.5150 -0.1579
  387MOL0     C52144   2.653   1.448   6.437 -0.5150 -0.1190  0.5100
  387MOL0     C52145   2.537   1.464   6.513 -0.9513 -1.5786 -1.0917
  387MOL0     O52146   2.507   1.405   6.634  0.3078 -1.1696 -0.5167
  387MOL0     C52147   2.413   1.463   6.722 -0.3680 -0.3784  0.5399
  387MOL0     C52148   2.442   1.404   6.863 -0.6580 -0.3227  0.7058
  387MOL0     C52149   2.341   1.487   6.952 -0.6907 -0.2418  0.4778
  387MOL0     C52150   2.211   1.421   6.995  0.9169  0.1756  0.8254
  387MOL0     C52151   2.233   1.312   7.106 -0.7284  0.0461  0.1134
  387MOL0     C52152   2.246   1.367   7.249  0.2960  0.1456 -0.5392
  387MOL0     C52153   2.268   1.241   7.340  0.2592 -0.2151  0.6740
  387MOL0     C52154   2.322   1.273   7.480 -0.4669 -0.7815  0.8027
  387MOL0    Cl52155   2.483   1.351   7.500  0.2435  0.1820 -0.1157
  387MOL0     C52156   2.445   1.543   6.449 -0.2408 -1.0736 -0.9742
  387MOL0     C52157   2.457   1.605   6.324  0.0974  0.6285 -0.5392
  387MOL0     O52158   2.675   1.828   6.240 -0.0294  0.4027  0.3089
  387MOL0     C52159   2.461   1.848   5.965  0.4034 -0.3767  0.1592
  387MOL0     C52160   2.426   1.916   5.857 -0.0243 -0.0057  0.4230
  387MOL0     N52161   2.111   2.297   5.402 -0.2970 -0.1383  0.1447
  387MOL0     N52162   2.039   2.367   5.478  0.2530 -0.8013  0.3580
  387MOL0     C52163   2.123   1.830   6.206  0.3820 -0.0858 -0.8086
  387MOL0     C52164   2.028   1.744   6.259  0.9610  0.4657  1.3843
  387MOL0     C52165   1.965   1.425   6.564 -0.3460  0.2263 -0.8921
  387MOL0     C52166   1.923   1.490   6.679 -0.0006  0.3925  0.0136
  387MOL0     C52167   1.897   1.423   6.803 -0.5669  0.6729 -0.3789
  387MOL0     C52168   1.890   1.283   6.808  0.2300  0.8403 -0.1522
  387MOL0     O52169   1.864   1.208   6.917  0.2731  0.5199  0.2387
  387MOL0     C52170   1.796   1.257   7.038  0.0864 -0.3317 -0.5242
  387MOL0     C52171   1.658   1.319   7.009 -0.6309 -0.1338 -0.1553
  387MOL0     C52172   1.547   1.209   6.964  0.0249  0.4378 -0.8562
  387MOL0     C52173   1.415   1.279   6.932  0.3122 -1.0013  0.3173
  387MOL0     C52174   1.413   1.362   6.811  0.0479 -0.0565  0.3385
  387MOL0     C52175   1.392   1.438   6.716 -0.5777  0.0128 -0.2007
  387MOL0     C52176   1.923   1.219   6.691  0.5420 -0.1200 -0.0004
  387MOL0     C52177   1.957   1.284   6.568 -0.1861 -0.7314 -0.7900
  387MOL0     H52178   2.132   1.775   6.584  1.0686  1.8637 -0.6351
  387MOL0     H52179   2.296   1.917   6.492 -0.6736 -0.2668  0.1355
  387MOL0     H52180   2.214   2.115   6.346  1.5549  0.3943  2.0185
  387MOL0     H52181   2.386   2.128   6.347 -1.8067  2.7282  0.7916
  387MOL0     H52182   2.366   2.288   6.202  0.0957 -0.7249  1.2655
  387MOL0     H52183   2.335   2.166   6.077 -1.3244  0.7261 -0.3525
  387MOL0     H52184   2.078   2.181   6.131 -1.1986  0.3204 -0.1193
  387MOL0     H52185   2.105   2.327   6.214  0.7925 -2.1406  0.9860
  387MOL0     H52186   2.231   2.369   5.977  0.3716 -2.3633  0.3089
  387MOL0     H52187   2.109   2.250   5.932  0.6774 -0.0605 -0.4732
  387MOL0     H52188   1.938   2.402   5.991  0.4085  0.3326  1.3372
  387MOL0     H52189   2.036   2.493   6.099  1.4362  0.9750 -0.2188
  387MOL0     H52190   1.999   2.608   5.881 -0.3892 -0.6587 -1.0594
  387MOL0     H52191   2.167   2.593   5.913  1.5400 -2.2972  2.4443
  387MOL0     H52192   2.160   2.382   5.753  1.6714  1.1505 -3.5925
  387MOL0     H52193   1.985   2.391   5.763  1.8087 -0.2509  1.5350
  387MOL0     H52194   2.145   2.638   5.646  0.2781 -1.2077  1.3838
  387MOL0     H52195   1.974   2.595   5.616 -0.5513  0.2435 -1.2218
  387MOL0     H52196   2.297   2.563   5.442  1.2641 -1.0433  0.7943
  387MOL0     H52197   2.296   2.262   5.225  0.0709  3.0988 -2.3173
  387MOL0     H52198   2.420   2.383   5.283  0.0805 -1.0080 -1.0042
  387MOL0     H52199   2.499   2.170   5.358 -1.2071  0.6012 -2.2234
  387MOL0     H52200   2.341   2.124   5.435  1.2954 -1.5686 -0.7356
  387MOL0     H52201   2.348   2.313   5.604 -2.4312 -1.5043 -1.1755
  387MOL0     H52202   2.495   2.378   5.521 -2.1559  1.1336  0.2854
  387MOL0     H52203   2.555   2.270   5.709  0.8103  1.9425 -0.0399
  387MOL0     H52204   2.596   2.147   5.581  0.3083 -0.9210  1.0865
  387MOL0     H52205   2.652   2.164   5.878  2.7561 -0.5867  3.4002
  387MOL0     H52206   2.816   1.995   6.124 -1.1101 -1.1414 -0.8228
  387MOL0     H52207   2.772   2.165   6.062 -1.3880  1.8955  2.6736
  387MOL0     H52208   2.686   2.101   6.189  0.9264  1.1802 -0.6151
  387MOL0     H52209   2.771   1.492   6.265  2.6794  3.9017  2.6426
  387MOL0     H52210   2.743   1.398   6.471  0.7930  0.9028 -1.2645
  387MOL0     H52211   2.418   1.572   6.711 -0.8042 -0.4603 -0.5358
  387MOL0     H52212   2.315   1.428   6.691 -0.3986  2.1634 -2.8963
  387MOL0     H52213   2.417   1.299   6.852 -3.8819  0.3015  1.0747
  387MOL0     H52214   2.544   1.415   6.902 -0.8395  3.6597  0.5508
  387MOL0     H52215   2.304   1.570   6.892  0.6914  1.6592  2.1120
  387MOL0     H52216   2.386   1.509   7.049 -1.3467 -1.9046  1.2003
  387MOL0     H52217   2.141   1.498   7.029  3.0326  1.2052  3.1073
  387MOL0     H52218   2.171   1.373   6.905  1.1843  0.7588  0.3809
  387MOL0     H52219   2.324   1.260   7.075 -0.1929  1.7837 -1.4655
  387MOL0     H52220   2.146   1.247   7.109 -0.7342 -0.0272 -1.0956
  387MOL0     H52221   2.324   1.443   7.261  1.3251 -1.0939  1.0893
  387MOL0     H52222   2.160   1.418   7.294  1.1222  0.9844  0.1355
  387MOL0     H52223   2.345   1.183   7.288 -1.4587 -0.9818 -1.1151
  387MOL0     H52224   2.174   1.187   7.351  0.0449  0.5546  3.0369
  387MOL0     H52225   2.335   1.174   7.526  1.8023 -1.4349 -1.0882
  387MOL0     H52226   2.249   1.339   7.529 -0.3774  0.1308 -0.2614
  387MOL0     H52227   2.351   1.571   6.495  1.3130  3.8667 -0.1987
  387MOL0     H52228   2.368   1.659   6.294 -2.6556 -2.8556  0.6694
  387MOL0     H52229   2.427   1.745   5.967 -0.0109 -0.2239  1.9853
  387MOL0     H52230   2.345   1.869   5.801  1.2323 -2.2848  0.3810
  387MOL0     H52231   2.127   1.835   6.097 -0.2029 -3.4323 -1.0926
  387MOL0     H52232   1.961   1.695   6.190 -0.7343 -0.4183  3.5233
  387MOL0     H52233   1.919   1.598   6.686 -1.5229  0.2956  1.0520
  387MOL0     H52234   1.873   1.492   6.883  1.3351  1.8351 -0.7317
  387MOL0     H52235   1.774   1.176   7.109 -0.6928  0.7069  0.4621
  387MOL0     H52236   1.865   1.332   7.079  1.3336 -1.5994 -0.2142
  387MOL0     H52237   1.676   1.392   6.930  2.9590 -0.6405  0.0196
  387MOL0     H52238   1.626   1.380   7.094  1.7510 -0.0295  0.7681
  387MOL0     H52239   1.550   1.138   7.047  0.9810 -0.0499 -1.2980
  387MOL0     H52240   1.589   1.164   6.874  0.6026  0.7962 -0.7718
  387MOL0     H52241   1.382   1.344   7.013 -1.0438 -0.1927 -0.8398
  387MOL0     H52242   1.335   1.207   6.916  0.3937 -0.8475 -0.9097
  387MOL0     H52243   1.379   1.508   6.636  0.4273  0.6212  0.1567
  387MOL0     H52244   1.921   1.110   6.693  0.8342 -0.1403 -0.5797
  387MOL0     H52245   1.997   1.226   6.485 -0.5928  0.2453 -1.6897
  388MOL0     O52246  10.500  10.771   5.219 -0.4922 -0.2892 -0.2734
  388MOL0     C52247  10.473  10.845   5.120 -0.9786 -0.4259 -1.0754
  388MOL0     O52248  10.495  10.979   5.118 -0.3521 -1.0261 -0.4511
  388MOL0     C52249  10.560  11.036   5.237 -0.5821  0.2430  0.8675
  388MOL0     C52250  10.680  11.096   5.204 -0.2161  0.6532 -0.2275
  388MOL0     C52251  10.759  11.153   5.308  0.1457 -0.8335  0.4986
  388MOL0     C52252  10.723  11.148   5.445 -0.2379 -0.3308  0.9037
  388MOL0     O52253  10.817  11.194   5.540 -0.6188  0.1297 -0.4604
  388MOL0     C52254  10.799  11.142   5.675  0.0784 -0.7204 -1.0567
  388MOL0     C52255  10.864  11.007   5.682 -0.0292  1.0993 -0.7431
  388MOL0     C52256  11.012  11.023   5.721  0.2961  1.2066  0.4557
  388MOL0     C52257  11.083  10.894   5.731 -0.4118 -0.2295 -1.0381
  388MOL0     C52258  11.236  10.907   5.725 -0.1220  0.1977  0.1771
  388MOL0     C52259  11.292  10.764   5.754 -0.2221 -1.2855 -1.0692
  388MOL0     C52260  11.447  10.761   5.761 -0.2576  0.0156  0.5024
  388MOL0     C52261  11.504  10.837   5.886  0.3396  0.6948  0.1342
  388MOL0     N52262  11.643  10.894   5.885 -0.5548  1.3207  0.2365
  388MOL0     C52263  11.753  10.847   5.958 -0.6397 -0.4429  0.2021
  388MOL0     C52264  11.856  10.930   5.915  0.8938  0.4316  0.3892
  388MOL0     C52265  11.981  10.919   5.983  0.3299 -0.7229 -1.1100
  388MOL0     C52266  12.089  10.846   5.911  0.1391  0.8159 -0.1546
  388MOL0     C52267  12.092  10.883   5.759  0.9039  1.3648 -1.6411
  388MOL0     C52268  12.201  10.806   5.682 -0.2347  0.2018  0.2405
  388MOL0     O52269  12.197  10.862   5.541  0.1949  0.3354 -0.3944
  388MOL0     C52270  12.253  10.785   5.436  0.2310  0.3322  0.7335
  388MOL0     C52271  12.329  10.666   5.446  0.5430  0.6768 -0.4388
  388MOL0     C52272  12.374  10.598   5.337  0.0140  0.3942 -0.2599
  388MOL0     C52273  12.453  10.466   5.354 -0.9383 -0.0593  0.3587
  388MOL0     C52274  12.360  10.658   5.207  0.1530 -0.8244 -0.4511
  388MOL0     C52275  12.408  10.600   5.078  0.1215  0.0487 -0.0405
  388MOL0     O52276  12.351  10.658   4.966 -0.6387  0.0829  0.5081
  388MOL0     C52277  12.424  10.656   4.849 -0.3226  0.3060  0.4184
  388MOL0     C52278  12.547  10.728   4.851  0.5595 -0.0394  0.0139
  388MOL0     C52279  12.632  10.704   4.753 -0.6413 -0.4319  0.3909
  388MOL0     C52280  12.601  10.625   4.637  0.5027 -0.2879  0.2450
  388MOL0     O52281  12.683  10.600   4.536 -0.1823 -0.1734  0.3681
  388MOL0     C52282  12.822  10.611   4.570 -0.5283  0.4963 -0.1113
  388MOL0     C52283  12.925  10.563   4.460  0.4293 -0.8888  0.1636
  388MOL0     C52284  13.067  10.599   4.506  0.1996  0.3486  0.3395
  388MOL0     C52285  13.151  10.475   4.556  1.3659  0.3556  0.2749
  388MOL0     C52286  13.278  10.518   4.620 -0.1739 -0.2289  0.2545
  388MOL0     C52287  13.338  10.405   4.708 -0.6433 -0.4740 -0.4517
  388MOL0     C52288  13.468  10.460   4.761 -0.0468  0.1581 -0.3109
  388MOL0     C52289  13.516  10.358   4.869 -0.3636 -0.5182  0.3838
  388MOL0    Cl52290  13.574  10.208   4.794 -0.2461 -0.1645 -0.3131
  388MOL0     C52291  12.475  10.560   4.641  0.8255 -0.4800  0.5531
  388MOL0     C52292  12.388  10.576   4.746 -0.0192  0.1598 -0.1322
  388MOL0     O52293  12.485  10.502   5.069 -0.2903  0.4937 -0.8250
  388MOL0     C52294  12.286  10.780   5.197 -0.3719  0.1372 -0.7989
  388MOL0     C52295  12.234  10.840   5.311 -0.3640 -0.5523 -0.4880
  388MOL0     N52296  11.794  11.034   5.843  0.5750 -0.2920  0.6505
  388MOL0     N52297  11.675  11.000   5.811  0.4941  0.9519 -0.0529
  388MOL0     C52298  10.585  11.100   5.472 -0.2528  0.3163  0.3887
  388MOL0     C52299  10.508  11.049   5.364 -0.3972  0.3125  0.1636
  388MOL0     C52300  10.414  10.787   4.998 -0.8888  0.2354  0.1058
  388MOL0     C52301  10.432  10.854   4.875  0.8897  0.3739 -0.2440
  388MOL0     C52302  10.412  10.795   4.754 -0.0610 -0.2001 -1.4339
  388MOL0     C52303  10.349  10.671   4.743 -0.8676  0.3084  0.2134
  388MOL0     O52304  10.315  10.626   4.613 -0.9372  0.6483 -0.3305
  388MOL0     C52305  10.265  10.498   4.573  0.7908  1.1248 -1.0057
  388MOL0     C52306  10.335  10.440   4.457  0.8786  0.3379  0.3103
  388MOL0     C52307  10.480  10.422   4.489  0.8991 -0.0931  0.9980
  388MOL0     C52308  10.569  10.400   4.362 -0.1790 -0.4504  0.0397
  388MOL0     C52309  10.553  10.262   4.326  0.0443 -0.7081 -0.3332
  388MOL0     C52310  10.540  10.146   4.301  0.5499 -0.7102 -0.1836
  388MOL0     C52311  10.323  10.596   4.866 -0.2778 -0.2589  0.7152
  388MOL0     C52312  10.355  10.656   4.989 -0.5648 -0.7131 -0.3509
  388MOL0     H52313  10.709  11.117   5.102  0.5525 -2.8202 -0.8654
  388MOL0     H52314  10.855  11.201   5.292 -1.0576  1.7681  0.6484
  388MOL0     H52315  10.842  11.210   5.748  3.6294 -2.3413 -1.4078
  388MOL0     H52316  10.695  11.134   5.710  0.4852 -3.5057 -0.2393
  388MOL0     H52317  10.816  10.952   5.763 -0.6390  2.6247 -0.0361
  388MOL0     H52318  10.844  10.956   5.587 -1.1439  0.7968 -0.3589
  388MOL0     H52319  11.067  11.073   5.640  1.5584  1.0419  1.1870
  388MOL0     H52320  11.024  11.079   5.814  2.1759 -1.5150  1.9911
  388MOL0     H52321  11.058  10.855   5.830 -0.9791  3.6723  0.5316
  388MOL0     H52322  11.043  10.829   5.653  3.4348 -1.2102 -2.4383
  388MOL0     H52323  11.271  10.939   5.626  0.6822 -2.7643 -0.5993
  388MOL0     H52324  11.276  10.976   5.800  2.4773  0.8887 -1.7079
  388MOL0     H52325  11.251  10.726   5.848 -0.0498  0.1184 -0.3992
  388MOL0     H52326  11.269  10.695   5.672 -1.2344 -0.2765 -1.6603
  388MOL0     H52327  11.469  10.655   5.778  0.4427  0.1252  0.2972
  388MOL0     H52328  11.494  10.794   5.668 -0.4243 -0.3525  0.2840
  388MOL0     H52329  11.495  10.755   5.958  0.7059  1.3973  0.9972
  388MOL0     H52330  11.438  10.919   5.916 -0.2316  0.2285  0.1630
  388MOL0     H52331  11.776  10.756   6.013  2.0037  1.7951  3.1092
  388MOL0     H52332  12.025  11.018   5.969 -0.5769 -0.2649 -0.7810
  388MOL0     H52333  11.980  10.901   6.091  1.3750  0.3442 -0.8992
  388MOL0     H52334  12.078  10.738   5.907  2.0863  0.6146 -1.6488
  388MOL0     H52335  12.186  10.871   5.956 -0.5210  1.0157  1.2161
  388MOL0     H52336  12.098  10.991   5.743  2.9572  1.2699 -1.7820
  388MOL0     H52337  12.006  10.840   5.707  0.2843 -2.7858  2.1820
  388MOL0     H52338  12.190  10.697   5.681  1.6709 -0.0222 -1.0907
  388MOL0     H52339  12.300  10.823   5.726  0.1466 -0.1399 -0.4564
  388MOL0     H52340  12.330  10.618   5.543 -2.7261 -2.6254 -1.8076
  388MOL0     H52341  12.545  10.478   5.295 -1.9820 -1.0062 -1.5482
  388MOL0     H52342  12.468  10.446   5.461 -2.0518 -3.0476  0.0552
  388MOL0     H52343  12.399  10.379   5.316 -0.7354  0.2197 -0.5789
  388MOL0     H52344  12.571  10.800   4.928  0.6719  2.1167 -1.9222
  388MOL0     H52345  12.733  10.743   4.758 -0.5251 -0.3564 -1.6895
  388MOL0     H52346  12.854  10.715   4.576 -1.2874  0.6515  2.1602
  388MOL0     H52347  12.831  10.558   4.666 -2.9766 -0.5926 -0.3838
  388MOL0     H52348  12.907  10.455   4.452  0.6153 -0.9455  0.5040
  388MOL0     H52349  12.916  10.626   4.371 -2.1401  0.0931  1.0178
  388MOL0     H52350  13.059  10.684   4.575  1.0758  1.4545 -0.8609
  388MOL0     H52351  13.127  10.633   4.421  1.4725 -0.9001  0.6910
  388MOL0     H52352  13.086  10.436   4.635  1.2300  0.5313  0.2518
  388MOL0     H52353  13.173  10.407   4.473 -0.5285  0.7409 -0.5768
  388MOL0     H52354  13.258  10.603   4.686  1.2409 -0.3425  0.8668
  388MOL0     H52355  13.354  10.558   4.554 -1.4660  0.0549 -1.1111
  388MOL0     H52356  13.282  10.381   4.798  4.1027 -1.0455  2.7322
  388MOL0     H52357  13.349  10.312   4.652  3.8365 -0.1203 -0.5539
  388MOL0     H52358  13.455  10.560   4.805  3.1264  1.3291 -1.7045
  388MOL0     H52359  13.542  10.461   4.680  1.2224 -1.3646  0.7764
  388MOL0     H52360  13.449  10.344   4.954 -2.4257 -1.8342 -1.3300
  388MOL0     H52361  13.606  10.400   4.914 -1.1204 -0.4791  1.9356
  388MOL0     H52362  12.455  10.502   4.552  1.8899 -1.9056  1.2055
  388MOL0     H52363  12.301  10.513   4.755  1.2539 -2.0355 -2.1340
  388MOL0     H52364  12.252  10.818   5.101  0.0495  1.8607 -0.3048
  388MOL0     H52365  12.194  10.941   5.308  5.3449  2.1111 -0.0378
  388MOL0     H52366  10.543  11.077   5.570 -1.3457 -2.2218 -0.5878
  388MOL0     H52367  10.409  11.011   5.388  0.8188 -3.6231 -0.2637
  388MOL0     H52368  10.486  10.947   4.865  1.6921 -0.1176 -0.6625
  388MOL0     H52369  10.432  10.853   4.664 -0.4351  1.2833 -0.6014
  388MOL0     H52370  10.279  10.430   4.658 -0.7552  0.7648 -1.0059
  388MOL0     H52371  10.157  10.505   4.555  0.9072  0.1628 -2.2756
  388MOL0     H52372  10.318  10.499   4.367 -1.0492  0.0901  0.4586
  388MOL0     H52373  10.290  10.346   4.422 -1.0110  2.8352 -4.9976
  388MOL0     H52374  10.493  10.340   4.560  0.6419 -0.4759  0.6050
  388MOL0     H52375  10.515  10.508   4.547 -0.2971 -0.1711  1.8538
  388MOL0     H52376  10.675  10.409   4.389 -0.0963 -3.2396  1.0183
  388MOL0     H52377  10.539  10.466   4.280 -3.1158  0.4439  1.6991
  388MOL0     H52378  10.516  10.042   4.297 -1.4705 -0.3703  1.5429
  388MOL0     H52379  10.286  10.494   4.863  0.8071 -0.6475 -1.8391
  388MOL0     H52380  10.350  10.606   5.085  0.3127 -0.9189 -0.4061
  389MOL0     O52381  11.277   1.794   9.343 -0.5293 -0.4590  0.7568
  389MOL0     C52382  11.246   1.784   9.464 -0.4080  0.4046 -0.0389
  389MOL0     O52383  11.311   1.693   9.558 -0.5594 -1.1654 -0.2902
  389MOL0     C52384  11.433   1.635   9.540  0.4557 -0.2421 -0.9210
  389MOL0     C52385  11.496   1.593   9.648  0.3444 -0.3521  0.6662
  389MOL0     C52386  11.626   1.550   9.649 -0.5887 -0.0607 -0.7917
  389MOL0     C52387  11.696   1.542   9.536 -0.3058 -0.1090 -1.0269
  389MOL0     O52388  11.826   1.496   9.536  0.2219 -0.1747  0.8190
  389MOL0     C52389  11.845   1.365   9.472  0.5404  0.0093 -0.2138
  389MOL0     C52390  11.973   1.349   9.401 -0.0781 -0.1660 -0.7269
  389MOL0     C52391  12.002   1.202   9.365  0.1983  1.3679  0.3642
  389MOL0     C52392  11.933   1.158   9.228  0.3908 -0.1617 -0.0778
  389MOL0     C52393  11.857   1.025   9.230  0.8938 -0.9390 -0.7224
  389MOL0     C52394  11.712   1.036   9.272  0.3191 -0.6877  0.2987
  389MOL0     C52395  11.621   0.956   9.176 -0.3169 -0.1103  0.3649
  389MOL0     C52396  11.548   1.046   9.080  0.7020 -0.2971  0.1452
  389MOL0     N52397  11.502   0.957   8.982 -0.9265 -0.6118 -0.4986
  389MOL0     C52398  11.515   0.980   8.850  0.4472  0.4000 -0.2877
  389MOL0     C52399  11.439   0.887   8.779 -0.2450  0.0703 -0.7322
  389MOL0     C52400  11.455   0.863   8.632  0.1390  0.0775  1.2006
  389MOL0     C52401  11.334   0.871   8.547  0.5103  0.0316 -0.1981
  389MOL0     C52402  11.260   0.741   8.558 -0.3138 -0.9620 -0.3543
  389MOL0     C52403  11.142   0.750   8.460  0.0819  0.4370  0.2466
  389MOL0     O52404  11.077   0.622   8.466  0.0025  0.7439  0.2833
  389MOL0     C52405  11.020   0.560   8.356  1.0062  0.6171  0.1168
  389MOL0     C52406  10.978   0.611   8.229  0.1472 -0.5159 -0.4217
  389MOL0     C52407  10.924   0.530   8.128  0.7393  0.2101  0.0926
  389MOL0     C52408  10.910   0.604   7.995 -0.9873  0.2389  0.4079
  389MOL0     C52409  10.897   0.389   8.155  0.0493 -0.2941 -0.3938
  389MOL0     C52410  10.843   0.297   8.040  0.1705 -0.0678 -0.2593
  389MOL0     O52411  10.853   0.165   8.063 -0.0922  0.8711  0.9243
  389MOL0     C52412  10.749   0.079   8.026  0.6434 -0.5352  0.4871
  389MOL0     C52413  10.786  -0.055   7.987  0.2825  0.7005 -0.9341
  389MOL0     C52414  10.687  -0.147   7.952 -0.4167  0.1061 -0.1356
  389MOL0     C52415  10.552  -0.108   7.945  0.6222  0.3002  0.5994
  389MOL0     O52416  10.464  -0.210   7.909 -0.4565 -0.3893  0.7352
  389MOL0     C52417  10.490  -0.260   7.771 -0.1847  0.6048  0.0020
  389MOL0     C52418  10.341  -0.282   7.719  0.2709 -0.4525 -0.9658
  389MOL0     C52419  10.248  -0.379   7.794 -0.9111 -0.4603  0.0983
  389MOL0     C52420  10.112  -0.389   7.730  0.5397  0.1243 -0.1102
  389MOL0     C52421  10.030  -0.486   7.814 -1.2007  0.1846 -0.7204
  389MOL0     C52422   9.882  -0.478   7.798 -0.2373 -0.6003 -0.6126
  389MOL0     C52423   9.836  -0.502   7.657 -0.8942  0.9779 -0.1067
  389MOL0     C52424   9.687  -0.501   7.644 -0.8678 -0.5636 -0.2026
  389MOL0    Cl52425   9.618  -0.568   7.487 -0.0106  0.0983 -0.1582
  389MOL0     C52426  10.510   0.025   7.978 -0.0133  0.1224  0.3937
  389MOL0     C52427  10.611   0.118   8.020  0.2157  0.5636  0.5201
  389MOL0     O52428  10.790   0.345   7.939 -0.2688 -0.5754 -0.4037
  389MOL0     C52429  10.917   0.345   8.286 -0.3080 -0.1794 -1.0935
  389MOL0     C52430  10.988   0.425   8.383 -0.3207  0.4288  0.0462
  389MOL0     N52431  11.367   0.819   8.880  0.5818  0.6837 -0.1410
  389MOL0     N52432  11.392   0.874   8.989 -1.0589  0.2078 -0.3018
  389MOL0     C52433  11.630   1.560   9.416  0.2456 -0.6654 -0.1802
  389MOL0     C52434  11.505   1.622   9.422  0.3666  0.4913  0.3873
  389MOL0     C52435  11.138   1.872   9.518  0.3278 -0.2567 -0.3691
  389MOL0     C52436  11.087   1.860   9.651 -0.9649  0.4688  0.4202
  389MOL0     C52437  10.986   1.940   9.691  0.6015 -1.3686 -0.1329
  389MOL0     C52438  10.934   2.057   9.619  0.0329  0.5910 -0.9190
  389MOL0     O52439  10.839   2.143   9.654  0.3694 -0.4795 -0.9849
  389MOL0     C52440  10.727   2.098   9.736 -0.4831 -0.1654  1.1552
  389MOL0     C52441  10.730   2.170   9.880 -0.5137 -1.3985 -0.7633
  389MOL0     C52442  10.678   2.313   9.861 -0.3500  0.6373 -0.0269
  389MOL0     C52443  10.665   2.391   9.989 -0.4587  0.6309 -1.5599
  389MOL0     C52444  10.785   2.402  10.082  0.4152 -0.3257  0.0356
  389MOL0     C52445  10.879   2.428  10.154 -0.0033  0.4334  0.6305
  389MOL0     C52446  10.975   2.073   9.488  0.1226 -0.2086  1.1917
  389MOL0     C52447  11.074   1.976   9.436  0.0049  1.3016  0.3102
  389MOL0     H52448  11.443   1.595   9.742 -3.0620 -0.0570 -1.0895
  389MOL0     H52449  11.676   1.505   9.735  0.5007  1.6688 -0.4808
  389MOL0     H52450  11.823   1.297   9.555 -4.9162  0.2938 -1.0534
  389MOL0     H52451  11.768   1.349   9.395  0.6213  1.6466 -0.6591
  389MOL0     H52452  11.964   1.421   9.320 -4.5094  0.0400 -0.2558
  389MOL0     H52453  12.051   1.374   9.473 -0.6313  0.3078 -0.2911
  389MOL0     H52454  12.108   1.180   9.352 -0.4549 -1.0202 -1.7301
  389MOL0     H52455  11.957   1.154   9.452  1.7913  2.1464  1.6553
  389MOL0     H52456  11.879   1.236   9.173 -0.7533 -1.6079 -1.0840
  389MOL0     H52457  12.015   1.133   9.160 -2.1054 -0.2928 -3.3112
  389MOL0     H52458  11.867   0.968   9.137 -0.5911 -0.1245 -1.4112
  389MOL0     H52459  11.908   0.961   9.303 -1.6690 -1.5104  0.7155
  389MOL0     H52460  11.697   1.008   9.376  1.6322  0.0535  0.7048
  389MOL0     H52461  11.669   1.136   9.267 -0.6648 -0.9655  2.3453
  389MOL0     H52462  11.673   0.879   9.118 -0.9129 -0.8913  0.8464
  389MOL0     H52463  11.547   0.894   9.228 -0.9333  2.1244  2.3163
  389MOL0     H52464  11.612   1.119   9.031 -2.4228  1.9622 -0.8828
  389MOL0     H52465  11.455   1.098   9.107 -0.9431 -1.4374 -2.7561
  389MOL0     H52466  11.587   1.045   8.801  2.9705 -2.0535 -0.0636
  389MOL0     H52467  11.511   0.946   8.587  0.9817 -2.3238 -2.7320
  389MOL0     H52468  11.515   0.776   8.604  0.8553  1.3019 -1.4380
  389MOL0     H52469  11.364   0.871   8.442 -0.4898  0.6598 -0.4955
  389MOL0     H52470  11.266   0.955   8.556  0.1046  0.4572 -4.7112
  389MOL0     H52471  11.232   0.724   8.662 -0.2531  1.3687  0.0971
  389MOL0     H52472  11.328   0.662   8.524  2.8543  0.0275  3.0533
  389MOL0     H52473  11.165   0.769   8.354  0.1744  1.0823  0.3780
  389MOL0     H52474  11.072   0.832   8.480  2.0188  2.4960 -0.9769
  389MOL0     H52475  11.003   0.713   8.201  0.9201 -0.9411 -1.3600
  389MOL0     H52476  10.970   0.548   7.923 -0.3089  1.2799  0.1418
  389MOL0     H52477  10.808   0.604   7.955 -1.0656 -1.8733  0.4856
  389MOL0     H52478  10.937   0.710   7.997  1.9512 -0.4309  1.9372
  389MOL0     H52479  10.893  -0.072   7.978  0.4668  1.2591  0.0038
  389MOL0     H52480  10.730  -0.241   7.921 -0.4715 -0.1570  0.5615
  389MOL0     H52481  10.537  -0.189   7.702 -0.7996 -1.4984 -2.7499
  389MOL0     H52482  10.552  -0.351   7.769  0.1188  0.8133 -0.1395
  389MOL0     H52483  10.293  -0.184   7.719  1.7947  0.5764  3.7150
  389MOL0     H52484  10.367  -0.308   7.616  3.5715  0.7000 -0.5442
  389MOL0     H52485  10.234  -0.351   7.899 -1.1953 -1.3789  0.3146
  389MOL0     H52486  10.299  -0.475   7.792 -0.2668 -0.1751  1.5319
  389MOL0     H52487  10.054  -0.297   7.720  0.4684 -0.1716 -3.2335
  389MOL0     H52488  10.123  -0.438   7.633  2.4675 -3.3051  1.6141
  389MOL0     H52489  10.048  -0.457   7.918 -1.6986 -1.1872 -0.2328
  389MOL0     H52490  10.085  -0.580   7.800  2.2441  1.5102  2.1813
  389MOL0     H52491   9.835  -0.546   7.869 -0.7893 -3.2649 -3.3180
  389MOL0     H52492   9.865  -0.377   7.836 -1.3020 -2.3518  4.2228
  389MOL0     H52493   9.861  -0.602   7.620  0.4079  1.7663 -1.4963
  389MOL0     H52494   9.884  -0.436   7.584  2.6745 -0.1537  0.9728
  389MOL0     H52495   9.658  -0.398   7.664  2.2732  0.3987 -0.1837
  389MOL0     H52496   9.643  -0.563   7.723  1.6855 -2.6348 -0.2677
  389MOL0     H52497  10.405   0.044   7.962 -0.0797  2.3751  2.7669
  389MOL0     H52498  10.593   0.218   8.058  0.7467  0.5038  0.9401
  389MOL0     H52499  10.888   0.246   8.320 -0.0892 -0.2551 -1.1250
  389MOL0     H52500  11.016   0.376   8.475 -3.5073  1.8041  1.9265
  389MOL0     H52501  11.679   1.552   9.320 -0.0028  1.9311 -0.5932
  389MOL0     H52502  11.448   1.641   9.332  0.0261  0.9477  0.6938
  389MOL0     H52503  11.134   1.787   9.716 -1.7295 -1.0943 -0.6955
  389MOL0     H52504  10.959   1.932   9.796 -2.2749 -0.6022 -0.7292
  389MOL0     H52505  10.632   2.122   9.689  0.1550  0.7641  0.2977
  389MOL0     H52506  10.724   1.991   9.759 -1.3648 -0.9417 -2.0826
  389MOL0     H52507  10.831   2.191   9.917 -0.0501  1.5617 -3.3552
  389MOL0     H52508  10.683   2.104   9.954  0.8410 -2.3780 -0.7402
  389MOL0     H52509  10.578   2.324   9.819  0.5912  1.1002 -2.3195
  389MOL0     H52510  10.740   2.366   9.787  0.1263  1.4006  0.8959
  389MOL0     H52511  10.591   2.341  10.052  0.8865 -1.7049 -1.7193
  389MOL0     H52512  10.626   2.491   9.965  1.4879  2.3128  1.5997
  389MOL0     H52513  10.963   2.456  10.214  2.5479 -0.6740 -2.1812
  389MOL0     H52514  10.929   2.150   9.427  2.4790 -0.4387 -1.0189
  389MOL0     H52515  11.105   1.998   9.334 -0.3552  0.6342  0.0466
  390MOL0     O52516   5.343   1.772   1.561 -0.3172  0.0274 -0.2185
  390MOL0     C52517   5.316   1.652   1.592  1.3365 -0.3497 -0.5594
  390MOL0     O52518   5.292   1.548   1.498  0.0742  0.7014  0.2640
  390MOL0     C52519   5.280   1.578   1.367  0.2620 -0.2282 -0.0326
  390MOL0     C52520   5.178   1.535   1.283 -0.8185  1.8724 -0.5738
  390MOL0     C52521   5.183   1.562   1.152 -0.2694  1.2446  0.5857
  390MOL0     C52522   5.279   1.622   1.084  1.2910 -0.1930 -0.3927
  390MOL0     O52523   5.284   1.599   0.950  0.0581 -0.3793 -0.2050
  390MOL0     C52524   5.414   1.622   0.899 -0.3292  0.4870 -0.2563
  390MOL0     C52525   5.406   1.562   0.761 -0.1760 -0.2586  1.1304
  390MOL0     C52526   5.445   1.415   0.742 -0.0673  0.2436  0.8677
  390MOL0     C52527   5.426   1.371   0.596  1.0845  0.4672  0.4090
  390MOL0     C52528   5.503   1.238   0.566 -0.3901  0.5343  0.7417
  390MOL0     C52529   5.459   1.198   0.426 -0.0489  0.0216  0.0354
  390MOL0     C52530   5.493   1.046   0.383 -0.2246 -0.3231  0.0865
  390MOL0     C52531   5.473   1.030   0.230  0.4772 -0.1135  0.0584
  390MOL0     N52532   5.557   1.117   0.145  0.4658  0.3709 -0.4422
  390MOL0     C52533   5.696   1.109   0.132 -0.2714  0.3034  0.3646
  390MOL0     C52534   5.720   1.188   0.038  0.2150  0.1519  0.2135
  390MOL0     C52535   5.850   1.185  -0.050  0.0754 -0.5012 -0.4827
  390MOL0     C52536   5.978   1.194   0.043 -0.6338  0.1781 -0.5098
  390MOL0     C52537   6.032   1.335   0.033 -0.6792 -0.9421  0.5117
  390MOL0     C52538   5.964   1.444   0.125  0.0505 -0.2639 -0.1151
  390MOL0     O52539   6.032   1.423   0.247 -0.0816 -0.5007  0.5083
  390MOL0     C52540   5.991   1.469   0.372 -0.0091  0.2108  0.2997
  390MOL0     C52541   6.084   1.458   0.475 -0.4982 -0.9400  0.0575
  390MOL0     C52542   6.067   1.521   0.602  0.2913 -0.5858 -0.5530
  390MOL0     C52543   6.167   1.487   0.711  0.3747  0.9322  0.1009
  390MOL0     C52544   5.950   1.606   0.624 -0.1839 -0.0619  0.9436
  390MOL0     C52545   5.909   1.685   0.748 -0.8175  0.8677 -0.1308
  390MOL0     O52546   5.828   1.798   0.719  0.3195 -0.4014  0.6148
  390MOL0     C52547   5.797   1.873   0.829  0.2248  0.7256 -0.0331
  390MOL0     C52548   5.829   2.009   0.849 -1.2935 -0.0304 -0.2652
  390MOL0     C52549   5.781   2.087   0.955  0.6667 -0.2573  1.0149
  390MOL0     C52550   5.687   2.028   1.044  0.2811  0.1738  0.5823
  390MOL0     O52551   5.623   2.091   1.158  0.1461  0.9394  0.3430
  390MOL0     C52552   5.579   2.223   1.135  0.5325 -0.5415  0.1699
  390MOL0     C52553   5.470   2.262   1.242  0.1006 -0.6163 -0.3573
  390MOL0     C52554   5.416   2.409   1.224  0.5898  0.1836  1.1203
  390MOL0     C52555   5.513   2.518   1.286  0.2901  1.2614  0.0239
  390MOL0     C52556   5.429   2.645   1.274  0.3764  0.3748 -0.3901
  390MOL0     C52557   5.508   2.780   1.292  0.0948 -0.3255  0.2078
  390MOL0     C52558   5.536   2.808   1.434 -0.4335 -0.2648  0.5472
  390MOL0     C52559   5.608   2.947   1.450 -0.6902  0.4125 -0.0017
  390MOL0    Cl52560   5.631   2.961   1.626 -0.2014 -0.4870 -0.2548
  390MOL0     C52561   5.664   1.896   1.030 -0.0310 -0.0479 -0.0256
  390MOL0     C52562   5.717   1.818   0.926  0.2620 -0.3443  0.0312
  390MOL0     O52563   5.952   1.654   0.860  0.3505 -0.5613  0.0352
  390MOL0     C52564   5.861   1.619   0.511  0.0672 -0.6647 -0.1371
  390MOL0     C52565   5.875   1.547   0.389  0.0869 -0.2063 -0.4925
  390MOL0     N52566   5.603   1.250  -0.000  0.9084 -0.4767  0.3097
  390MOL0     N52567   5.503   1.220   0.074  1.0413  0.6051 -0.9606
  390MOL0     C52568   5.377   1.676   1.163  0.3623 -0.0920 -1.2848
  390MOL0     C52569   5.382   1.649   1.300 -0.9741  0.1683 -0.4736
  390MOL0     C52570   5.303   1.629   1.737 -0.1966  0.0197 -0.0093
  390MOL0     C52571   5.221   1.519   1.773  0.4383 -0.6176 -0.6875
  390MOL0     C52572   5.196   1.482   1.914 -0.1345  0.6021 -0.2853
  390MOL0     C52573   5.254   1.563   2.015 -1.1654 -0.3283  0.3743
  390MOL0     O52574   5.230   1.537   2.147  0.1454  0.3262 -0.4877
  390MOL0     C52575   5.127   1.445   2.185  0.1050  0.1003  0.0838
  390MOL0     C52576   5.104   1.462   2.334  0.6739 -0.0411 -0.0140
  390MOL0     C52577   5.213   1.389   2.415  0.2886 -0.1302  0.8660
  390MOL0     C52578   5.234   1.449   2.549 -0.2018  0.1116  0.7164
  390MOL0     C52579   5.121   1.426   2.634  0.2913 -0.3406 -0.4345
  390MOL0     C52580   5.053   1.412   2.734 -0.0253  0.3965 -0.5341
  390MOL0     C52581   5.323   1.683   1.973 -1.2369 -0.0245 -0.3479
  390MOL0     C52582   5.348   1.716   1.833 -0.1664 -1.0581 -1.1278
  390MOL0     H52583   5.097   1.473   1.321 -0.4841  1.0888 -1.1257
  390MOL0     H52584   5.104   1.521   1.090 -1.1549  3.3288  0.2445
  390MOL0     H52585   5.431   1.730   0.889 -2.2505  0.7271 -1.7342
  390MOL0     H52586   5.498   1.567   0.941  0.0491  0.6370 -0.8133
  390MOL0     H52587   5.307   1.562   0.715  1.9491 -0.8398 -4.0606
  390MOL0     H52588   5.468   1.623   0.695 -1.7703  0.2308  0.0189
  390MOL0     H52589   5.546   1.391   0.776  1.7480  6.0137  0.5908
  390MOL0     H52590   5.376   1.350   0.796 -1.7088 -0.1823 -1.5783
  390MOL0     H52591   5.320   1.358   0.571  1.9093 -1.7895 -2.5497
  390MOL0     H52592   5.457   1.436   0.513  0.6789 -3.7741 -3.4878
  390MOL0     H52593   5.611   1.254   0.562 -0.4975  1.0719 -0.5771
  390MOL0     H52594   5.477   1.157   0.635 -0.2019 -2.1286 -2.0744
  390MOL0     H52595   5.353   1.217   0.403  0.8450  1.4208 -3.5781
  390MOL0     H52596   5.521   1.258   0.359  1.6525 -1.4944  0.2012
  390MOL0     H52597   5.595   1.022   0.411 -0.8828 -0.8809  2.1648
  390MOL0     H52598   5.431   0.968   0.427 -0.3238 -1.2688 -1.6458
  390MOL0     H52599   5.365   1.041   0.216 -0.1943 -1.5114  3.2648
  390MOL0     H52600   5.495   0.929   0.196 -1.5988 -0.7698  0.5261
  390MOL0     H52601   5.765   1.038   0.176  2.5424  1.9525 -1.0877
  390MOL0     H52602   5.857   1.088  -0.101 -1.7408  0.1295 -2.0400
  390MOL0     H52603   5.842   1.269  -0.119 -1.8692  0.5279  0.9172
  390MOL0     H52604   6.054   1.118   0.020 -0.7189 -0.1055  0.1301
  390MOL0     H52605   5.955   1.192   0.150 -3.2432 -0.2059 -1.0137
  390MOL0     H52606   6.044   1.386  -0.063  0.6084 -3.6663 -0.9038
  390MOL0     H52607   6.136   1.325   0.064  0.3413  1.1418 -1.9377
  390MOL0     H52608   5.856   1.434   0.123 -0.3405  2.9500 -1.2896
  390MOL0     H52609   5.982   1.542   0.080  3.4893 -0.6229  0.1593
  390MOL0     H52610   6.162   1.386   0.453 -1.6611 -1.5696 -2.4597
  390MOL0     H52611   6.111   1.431   0.786 -0.7305 -1.5711 -2.4309
  390MOL0     H52612   6.243   1.422   0.667 -0.3149  0.9942 -1.2217
  390MOL0     H52613   6.214   1.574   0.760 -1.1868  2.7355 -1.4319
  390MOL0     H52614   5.869   2.065   0.765  1.3216  2.9388  2.6606
  390MOL0     H52615   5.813   2.191   0.956 -4.7514  1.7817 -0.8578
  390MOL0     H52616   5.660   2.297   1.128 -0.6825  0.7125 -1.9787
  390MOL0     H52617   5.524   2.233   1.041 -1.1993  0.7330  1.2667
  390MOL0     H52618   5.383   2.195   1.244 -2.4449  2.4496  0.8089
  390MOL0     H52619   5.509   2.258   1.344  0.0076 -2.6852 -0.3656
  390MOL0     H52620   5.324   2.403   1.282 -1.1536 -0.2845 -1.5173
  390MOL0     H52621   5.399   2.428   1.117  2.1955  2.5824  1.2165
  390MOL0     H52622   5.530   2.504   1.394  1.8610 -2.3224 -0.5632
  390MOL0     H52623   5.607   2.518   1.231  0.5973  0.2341  0.5250
  390MOL0     H52624   5.355   2.655   1.353  1.6113 -1.5676  1.1284
  390MOL0     H52625   5.377   2.639   1.178  0.3517 -2.2989 -0.3040
  390MOL0     H52626   5.602   2.781   1.236  0.2856 -2.3449  0.4093
  390MOL0     H52627   5.438   2.857   1.259  0.3584  1.4933  3.4775
  390MOL0     H52628   5.604   2.736   1.480  0.9559  0.2145 -0.6869
  390MOL0     H52629   5.446   2.798   1.496 -0.1250 -0.3161  0.9904
  390MOL0     H52630   5.552   3.034   1.415  0.6787  1.6886  0.8658
  390MOL0     H52631   5.704   2.939   1.397 -0.6001 -0.2968  0.2521
  390MOL0     H52632   5.610   1.845   1.109 -3.0733 -0.0463 -1.9428
  390MOL0     H52633   5.691   1.713   0.927  3.0155 -1.1391 -1.3776
  390MOL0     H52634   5.777   1.687   0.514  1.6268  1.3762 -0.7746
  390MOL0     H52635   5.799   1.552   0.312 -2.8738 -1.3357  2.1506
  390MOL0     H52636   5.452   1.738   1.114 -1.3299  3.0995 -0.0981
  390MOL0     H52637   5.461   1.691   1.361 -0.8227 -0.7097 -0.0569
  390MOL0     H52638   5.179   1.441   1.711  1.7411 -1.5444 -0.4458
  390MOL0     H52639   5.155   1.383   1.930 -0.4188  0.5122 -1.4658
  390MOL0     H52640   5.036   1.461   2.127 -0.5691  0.0488  1.1212
  390MOL0     H52641   5.164   1.346   2.155 -1.8878  0.3966 -4.1252
  390MOL0     H52642   5.016   1.409   2.370  1.0307 -0.0726  0.8380
  390MOL0     H52643   5.086   1.569   2.350 -2.5293  0.3657 -4.4025
  390MOL0     H52644   5.306   1.378   2.358  0.1095 -1.9895  0.8673
  390MOL0     H52645   5.186   1.285   2.438 -2.5124  0.2962 -0.1202
  390MOL0     H52646   5.246   1.557   2.544 -0.9696  0.4415  3.7002
  390MOL0     H52647   5.323   1.398   2.588 -0.9596 -1.5870  0.3184
  390MOL0     H52648   4.985   1.384   2.812  2.8897 -2.6567  1.1945
  390MOL0     H52649   5.375   1.737   2.051  0.9248 -2.5817  0.1150
  390MOL0     H52650   5.409   1.803   1.813 -0.2889 -0.6516  0.1561
  391MOL0     O52651   0.931   9.839  11.122  0.2223 -0.4262  0.4679
  391MOL0     C52652   1.045   9.795  11.090  0.3011  0.1998  0.3003
  391MOL0     O52653   1.125   9.860  11.002 -0.2959 -1.0135 -0.0550
  391MOL0     C52654   1.064   9.966  10.923 -0.3360 -0.3849  0.5752
  391MOL0     C52655   1.070  10.099  10.970  0.0027 -0.4903  0.1587
  391MOL0     C52656   0.987  10.195  10.911  0.1010  1.0589  0.6965
  391MOL0     C52657   0.916  10.165  10.801 -0.6260  0.8000  0.2360
  391MOL0     O52658   0.830  10.261  10.748  1.0005 -0.2202  0.2472
  391MOL0     C52659   0.776  10.236  10.621 -0.1422 -0.7955  0.1906
  391MOL0     C52660   0.731  10.357  10.543  0.5357  0.3762 -0.8985
  391MOL0     C52661   0.843  10.466  10.531 -0.1013 -0.8529  0.8290
  391MOL0     C52662   0.875  10.487  10.391  0.5726  1.0833  0.3876
  391MOL0     C52663   0.987  10.583  10.353  0.8635 -0.1021 -0.0936
  391MOL0     C52664   0.929  10.715  10.301  0.4584 -0.0411 -0.3955
  391MOL0     C52665   1.028  10.824  10.257 -1.2248 -0.6882  0.3843
  391MOL0     C52666   1.072  10.919  10.380  0.3877 -0.0781  0.7920
  391MOL0     N52667   1.183  11.021  10.339  0.1428  0.0075  0.3482
  391MOL0     C52668   1.170  11.155  10.328  0.1236  0.1991 -0.3453
  391MOL0     C52669   1.299  11.199  10.315  0.4902 -0.6911  0.7099
  391MOL0     C52670   1.332  11.352  10.304 -0.0116  0.4190  0.7040
  391MOL0     C52671   1.452  11.398  10.386 -0.4795  0.6552  0.8551
  391MOL0     C52672   1.402  11.446  10.521  0.5890 -0.4823  0.6355
  391MOL0     C52673   1.512  11.445  10.622  0.2623  0.3241  0.4679
  391MOL0     O52674   1.619  11.538  10.594  0.2083  0.4742  0.4734
  391MOL0     C52675   1.741  11.476  10.571 -0.0226 -1.3028 -0.1346
  391MOL0     C52676   1.822  11.562  10.493  0.0242 -0.5191  0.6038
  391MOL0     C52677   1.952  11.527  10.463  0.0050  0.4057  0.4325
  391MOL0     C52678   2.026  11.628  10.365  0.1075 -0.4523  0.7052
  391MOL0     C52679   2.012  11.416  10.527 -1.3367 -0.0530 -0.1486
  391MOL0     C52680   2.157  11.393  10.531  0.8658 -0.4017  0.5982
  391MOL0     O52681   2.235  11.509  10.525 -0.7109  0.0694  0.4087
  391MOL0     C52682   2.370  11.479  10.485 -0.3435  0.6167 -1.2658
  391MOL0     C52683   2.457  11.400  10.570  0.1931 -0.0743 -0.6943
  391MOL0     C52684   2.592  11.385  10.536  0.8479 -0.5809 -0.2203
  391MOL0     C52685   2.644  11.436  10.417 -0.7946  0.8512 -0.1586
  391MOL0     O52686   2.782  11.441  10.390  0.5821 -0.7544 -0.3098
  391MOL0     C52687   2.844  11.305  10.373  0.5178 -0.9527  0.5067
  391MOL0     C52688   2.994  11.325  10.313  0.5393  0.5949  0.7149
  391MOL0     C52689   3.097  11.209  10.334  0.5969  0.5704 -0.9492
  391MOL0     C52690   3.241  11.252  10.303  0.9061  0.1452  0.0587
  391MOL0     C52691   3.340  11.146  10.356 -1.3603  0.2193  0.3449
  391MOL0     C52692   3.484  11.148  10.305 -0.3205  0.1154  1.2959
  391MOL0     C52693   3.607  11.169  10.404 -0.7400  0.3497  0.3147
  391MOL0     C52694   3.711  11.262  10.332 -0.1102 -0.0287 -0.0837
  391MOL0    Cl52695   3.860  11.305  10.421 -0.2850 -0.1138 -0.4066
  391MOL0     C52696   2.559  11.503  10.330  0.4299  0.3320  0.0248
  391MOL0     C52697   2.421  11.520  10.364  0.2272  0.1958 -1.2828
  391MOL0     O52698   2.190  11.278  10.544 -0.1268 -0.3038  0.6344
  391MOL0     C52699   1.930  11.330  10.611 -0.2868  0.2736  0.4178
  391MOL0     C52700   1.797  11.366  10.623  0.1105  0.7634  0.0777
  391MOL0     N52701   1.381  11.092  10.299 -0.5246  0.5759 -0.0150
  391MOL0     N52702   1.313  10.985  10.307 -0.0502 -0.7563  0.7737
  391MOL0     C52703   0.934  10.031  10.746  0.1652 -0.3597 -0.3174
  391MOL0     C52704   1.002   9.932  10.800  0.5788  0.3978 -0.2633
  391MOL0     C52705   1.100   9.694  11.178 -0.6943  0.5816  0.1156
  391MOL0     C52706   1.231   9.653  11.158  0.0460  1.1058 -0.5054
  391MOL0     C52707   1.284   9.550  11.242  0.0153 -0.1202 -0.6135
  391MOL0     C52708   1.211   9.512  11.360  0.6466  0.6026 -0.4441
  391MOL0     O52709   1.263   9.442  11.464  0.3801  0.7676 -0.1316
  391MOL0     C52710   1.207   9.316  11.486 -0.2611  1.0930 -0.7277
  391MOL0     C52711   1.294   9.239  11.591  0.1616  0.2682  0.6220
  391MOL0     C52712   1.288   9.305  11.729 -0.0584 -0.4818  0.4352
  391MOL0     C52713   1.261   9.220  11.854  0.1737  0.3269  0.0821
  391MOL0     C52714   1.382   9.136  11.884 -1.0355 -0.8699 -0.0757
  391MOL0     C52715   1.476   9.064  11.892 -0.3953  0.3438 -0.2856
  391MOL0     C52716   1.082   9.560  11.382  0.6565 -0.7875  0.4204
  391MOL0     C52717   1.025   9.647  11.288  0.0311  0.3365  0.5006
  391MOL0     H52718   1.111  10.111  11.070 -2.0652 -4.5170  1.7328
  391MOL0     H52719   0.965  10.295  10.946 -0.5427  2.3694 -2.9795
  391MOL0     H52720   0.853  10.189  10.559 -0.4865 -3.7753  1.8412
  391MOL0     H52721   0.692  10.167  10.631 -1.5446  0.6484 -0.9934
  391MOL0     H52722   0.700  10.326  10.443 -1.1382  1.1276 -0.6566
  391MOL0     H52723   0.641  10.388  10.597  2.6278  1.7210  2.0876
  391MOL0     H52724   0.803  10.557  10.578 -1.7544 -0.8069 -0.5977
  391MOL0     H52725   0.933  10.433  10.584  0.8359  0.1956 -0.0710
  391MOL0     H52726   0.907  10.393  10.344  2.7906  3.1782 -2.6653
  391MOL0     H52727   0.775  10.516  10.358 -0.2042  0.7591  2.2885
  391MOL0     H52728   1.057  10.587  10.437 -1.8859 -0.7729  2.4072
  391MOL0     H52729   1.040  10.535  10.270 -1.5093  0.3499 -1.9740
  391MOL0     H52730   0.887  10.696  10.202  0.9050 -2.3753 -0.1983
  391MOL0     H52731   0.851  10.751  10.369 -1.2962 -3.0413 -0.5990
  391MOL0     H52732   1.112  10.785  10.198 -0.9947 -2.2490  1.6420
  391MOL0     H52733   0.987  10.894  10.184 -1.5941 -1.8900 -0.5997
  391MOL0     H52734   1.098  10.853  10.462  0.4314 -0.7503  0.2458
  391MOL0     H52735   0.986  10.980  10.408  0.0261  0.7207 -1.7987
  391MOL0     H52736   1.079  11.213  10.329 -1.7741 -2.5949  0.1014
  391MOL0     H52737   1.362  11.365  10.199 -3.2735  4.1550 -0.0292
  391MOL0     H52738   1.245  11.415  10.328 -1.8056 -0.6497 -2.3499
  391MOL0     H52739   1.487  11.483  10.327 -2.8889  0.0070 -1.7277
  391MOL0     H52740   1.525  11.318  10.393 -1.7567 -0.5289  1.1305
  391MOL0     H52741   1.330  11.380  10.570 -1.2354  3.1531  3.4114
  391MOL0     H52742   1.345  11.538  10.504 -0.7380 -1.1737  1.1401
  391MOL0     H52743   1.541  11.339  10.618  0.3948  0.3881 -1.3495
  391MOL0     H52744   1.486  11.464  10.726  0.5106 -1.3019  0.8510
  391MOL0     H52745   1.781  11.654  10.452 -0.1559 -0.0723  1.7622
  391MOL0     H52746   2.107  11.580  10.310  0.9206  3.1156 -1.5013
  391MOL0     H52747   1.951  11.656  10.290 -1.8136 -3.3892  1.3638
  391MOL0     H52748   2.068  11.718  10.411 -2.4222  0.8467  0.6549
  391MOL0     H52749   2.423  11.366  10.667  2.4577 -0.0915  0.1494
  391MOL0     H52750   2.660  11.345  10.611 -1.6981  1.0400  3.2068
  391MOL0     H52751   2.838  11.242  10.462  0.6722 -0.9286  0.5351
  391MOL0     H52752   2.786  11.259  10.292 -0.9720 -1.4028  1.7902
  391MOL0     H52753   2.989  11.341  10.205  1.1865  2.2512  0.8968
  391MOL0     H52754   3.033  11.419  10.353  0.1209  0.0486  2.4848
  391MOL0     H52755   3.079  11.124  10.267 -0.1604 -0.6217  0.6949
  391MOL0     H52756   3.092  11.174  10.438  0.6648 -0.1480 -1.1821
  391MOL0     H52757   3.258  11.266  10.196  4.7507 -2.4418  0.1419
  391MOL0     H52758   3.257  11.348  10.353 -3.0804 -0.7044  3.6360
  391MOL0     H52759   3.301  11.048  10.325 -2.7922  0.6920  0.5760
  391MOL0     H52760   3.341  11.150  10.465  1.4200  0.1701  0.3849
  391MOL0     H52761   3.508  11.059  10.245 -0.3403  1.7304 -1.3056
  391MOL0     H52762   3.496  11.223  10.226  0.1878  0.2301  1.4723
  391MOL0     H52763   3.661  11.075  10.420  1.0198  0.4913 -3.6515
  391MOL0     H52764   3.581  11.225  10.495 -1.0756 -1.3438  1.3014
  391MOL0     H52765   3.656  11.350  10.298 -0.2772  0.8960  2.4098
  391MOL0     H52766   3.747  11.212  10.242 -0.3936 -2.5696  1.1299
  391MOL0     H52767   2.599  11.523  10.231  0.0054 -1.8343 -0.6433
  391MOL0     H52768   2.340  11.564  10.306  1.0849  1.3753 -1.6383
  391MOL0     H52769   1.971  11.249  10.671  3.4437  1.9510  0.4435
  391MOL0     H52770   1.730  11.305  10.683 -1.0965 -4.2812 -5.3491
  391MOL0     H52771   0.893   9.999  10.651  1.4113 -0.9698 -0.6637
  391MOL0     H52772   1.013   9.831  10.763  1.1036  0.0369  0.8212
  391MOL0     H52773   1.277   9.690  11.067 -3.1645  2.7594 -1.6201
  391MOL0     H52774   1.378   9.510  11.205 -0.5703 -1.1420 -1.0468
  391MOL0     H52775   1.101   9.325  11.513 -0.9527 -3.8930 -0.8466
  391MOL0     H52776   1.207   9.263  11.390 -3.0756 -1.0570  0.3091
  391MOL0     H52777   1.397   9.244  11.557  0.1792 -0.2015  0.6062
  391MOL0     H52778   1.264   9.134  11.595  0.8183  0.0241 -0.7231
  391MOL0     H52779   1.218   9.389  11.723 -1.3309 -1.5322  0.1773
  391MOL0     H52780   1.382   9.355  11.753 -0.2456 -0.5609  1.3622
  391MOL0     H52781   1.170   9.162  11.832  0.3197  1.0061 -2.6217
  391MOL0     H52782   1.241   9.286  11.939  0.8780 -0.2351  0.6898
  391MOL0     H52783   1.549   8.991  11.921 -0.8719  0.8450  2.4297
  391MOL0     H52784   1.019   9.536  11.467 -1.3297  1.1492 -0.4111
  391MOL0     H52785   0.926   9.665  11.330  0.8344 -2.4634  4.0752
  392MOL0     O52786   3.647   6.017   0.561  0.3059  0.0034 -0.7405
  392MOL0     C52787   3.591   6.075   0.655  0.6186 -0.7234 -0.2029
  392MOL0     O52788   3.574   6.026   0.778  0.4997 -0.2470 -0.1359
  392MOL0     C52789   3.599   5.893   0.774  0.0667  0.0329  0.3223
  392MOL0     C52790   3.502   5.797   0.765  0.2919 -0.5797  0.5830
  392MOL0     C52791   3.537   5.666   0.761 -0.4136 -0.2020 -0.3836
  392MOL0     C52792   3.668   5.613   0.765  0.2766 -0.1845  0.2804
  392MOL0     O52793   3.695   5.480   0.752 -0.0209  0.7026 -0.6002
  392MOL0     C52794   3.787   5.420   0.844  0.0261  0.0074  0.3163
  392MOL0     C52795   3.737   5.413   0.990  0.2849 -0.4507  0.5233
  392MOL0     C52796   3.639   5.299   1.028 -0.3014  0.1916  0.1086
  392MOL0     C52797   3.492   5.327   0.997  0.2028 -0.0283  0.1893
  392MOL0     C52798   3.439   5.429   1.104  0.0466 -0.0041 -0.6371
  392MOL0     C52799   3.312   5.487   1.054  0.7414 -0.4327  0.8332
  392MOL0     C52800   3.227   5.549   1.157  0.7852  0.8290 -0.0607
  392MOL0     C52801   3.098   5.621   1.123 -0.3853  0.7561  0.0579
  392MOL0     N52802   3.113   5.728   1.019  0.0291  0.1208  0.6397
  392MOL0     C52803   3.168   5.855   1.037  0.1206 -0.9023 -0.2515
  392MOL0     C52804   3.158   5.914   0.914  1.2433  0.9032 -0.0625
  392MOL0     C52805   3.203   6.046   0.870 -0.0554  0.4534  0.5130
  392MOL0     C52806   3.077   6.117   0.833 -0.1138  0.7421 -0.8370
  392MOL0     C52807   3.108   6.264   0.827  0.0976 -0.2309 -0.3372
  392MOL0     C52808   2.976   6.341   0.793 -0.9166  0.6296 -0.1882
  392MOL0     O52809   2.928   6.286   0.668  0.5451 -0.6531 -0.3544
  392MOL0     C52810   2.901   6.387   0.576  0.1944  0.5766 -0.5800
  392MOL0     C52811   2.989   6.418   0.475 -0.1971 -0.6375 -0.0925
  392MOL0     C52812   2.957   6.531   0.388 -0.2985 -0.7363 -0.1984
  392MOL0     C52813   3.061   6.557   0.269 -0.4028 -0.0338 -0.7240
  392MOL0     C52814   2.839   6.600   0.394  0.3397 -0.3658 -0.6086
  392MOL0     C52815   2.788   6.704   0.301 -0.5007 -1.3420  0.2839
  392MOL0     O52816   2.878   6.797   0.247 -0.0702  0.3514 -0.0333
  392MOL0     C52817   2.857   6.903   0.165  0.3091  0.3447 -0.4467
  392MOL0     C52818   2.734   6.967   0.148 -0.0597 -0.3681  0.4819
  392MOL0     C52819   2.733   7.086   0.071 -0.2215 -0.0954  0.3899
  392MOL0     C52820   2.853   7.140   0.020  0.4671 -0.2994 -0.1487
  392MOL0     O52821   2.837   7.264  -0.034  0.2662  0.0098 -0.0664
  392MOL0     C52822   2.940   7.330  -0.100 -0.0022  0.4843 -0.6527
  392MOL0     C52823   2.914   7.477  -0.138 -0.2147 -0.9738 -0.2742
  392MOL0     C52824   2.816   7.556  -0.041 -0.8511  0.5564 -0.2613
  392MOL0     C52825   2.819   7.714  -0.058  0.5594  0.0942  0.0078
  392MOL0     C52826   2.699   7.788   0.023  0.9362  0.4061  0.3636
  392MOL0     C52827   2.685   7.946   0.019  0.3871  0.7415 -0.5415
  392MOL0     C52828   2.816   8.016   0.053  0.1790 -0.8405 -0.3439
  392MOL0     C52829   2.798   8.171   0.068  0.3434  0.5032 -0.7254
  392MOL0    Cl52830   2.723   8.248  -0.075  0.6844  0.0288  0.1317
  392MOL0     C52831   2.975   7.067   0.027  0.4213 -0.4149 -0.1643
  392MOL0     C52832   2.975   6.948   0.103 -0.3137  0.2915 -0.3544
  392MOL0     O52833   2.670   6.715   0.287  0.7265 -0.1969 -0.4896
  392MOL0     C52834   2.755   6.567   0.509  0.1987 -0.4868  0.3055
  392MOL0     C52835   2.774   6.454   0.587 -0.2364  0.2655 -0.3121
  392MOL0     N52836   3.072   5.836   0.834 -0.1094 -0.0169  0.2332
  392MOL0     N52837   3.070   5.720   0.894  0.5949  0.5418  0.2196
  392MOL0     C52838   3.765   5.708   0.787 -0.0626  0.0746  0.6918
  392MOL0     C52839   3.731   5.850   0.789 -0.1399 -1.3568  0.1966
  392MOL0     C52840   3.543   6.216   0.637 -0.1057 -0.0786  0.6295
  392MOL0     C52841   3.525   6.302   0.742  0.5795  1.0303 -0.3359
  392MOL0     C52842   3.456   6.417   0.742  0.6497 -0.3306 -1.0095
  392MOL0     C52843   3.406   6.465   0.626 -0.5974 -0.2520 -0.2628
  392MOL0     O52844   3.336   6.581   0.618 -1.1793 -0.9592  0.7106
  392MOL0     C52845   3.414   6.699   0.581 -0.4395  0.0404  0.3591
  392MOL0     C52846   3.382   6.741   0.438 -0.0605 -0.7624  0.0780
  392MOL0     C52847   3.315   6.876   0.437  0.1604 -0.1941 -0.5248
  392MOL0     C52848   3.177   6.861   0.503  0.9665 -0.4223  0.0409
  392MOL0     C52849   3.096   6.972   0.454  0.0435 -0.1140 -0.7885
  392MOL0     C52850   3.038   7.067   0.422 -0.6976 -0.0975 -0.0620
  392MOL0     C52851   3.428   6.397   0.507 -0.2266  0.6017 -0.2636
  392MOL0     C52852   3.500   6.269   0.514  0.2197 -0.2309  0.5077
  392MOL0     H52853   3.399   5.830   0.756  1.2413  2.1309 -2.1030
  392MOL0     H52854   3.461   5.591   0.739 -0.1484 -0.2411 -1.1915
  392MOL0     H52855   3.793   5.315   0.818 -1.5200 -0.5964  2.1233
  392MOL0     H52856   3.888   5.461   0.839  0.6834 -1.4794  0.9736
  392MOL0     H52857   3.819   5.400   1.061  0.1707  3.0853  1.4945
  392MOL0     H52858   3.689   5.504   1.028 -1.1287 -2.9288  5.4187
  392MOL0     H52859   3.671   5.217   0.963 -2.7132  0.0514 -1.0106
  392MOL0     H52860   3.655   5.256   1.128  1.3405  2.4763  0.9064
  392MOL0     H52861   3.496   5.362   0.894 -0.6251 -1.7025 -0.4530
  392MOL0     H52862   3.428   5.238   0.991 -1.8717  1.4821 -3.0243
  392MOL0     H52863   3.425   5.380   1.201  3.7097  1.5252  0.8356
  392MOL0     H52864   3.503   5.513   1.131  0.8168 -1.3074  1.9535
  392MOL0     H52865   3.333   5.565   0.980  1.3072  0.1922  1.6522
  392MOL0     H52866   3.259   5.407   1.000  0.2088  1.0180 -0.9278
  392MOL0     H52867   3.206   5.475   1.235  3.5484  0.4625  0.4391
  392MOL0     H52868   3.287   5.619   1.216 -0.0831 -0.3398  2.3507
  392MOL0     H52869   3.052   5.646   1.219  4.7232  0.7743  2.9020
  392MOL0     H52870   3.040   5.540   1.077  0.4245 -1.9693  3.4265
  392MOL0     H52871   3.222   5.892   1.123 -0.5808  1.2320 -0.6677
  392MOL0     H52872   3.255   6.096   0.951 -0.4699 -3.2253  3.3273
  392MOL0     H52873   3.268   6.048   0.782  0.1417  3.0287  0.6377
  392MOL0     H52874   3.004   6.099   0.912 -1.0368  0.7630 -1.6727
  392MOL0     H52875   3.030   6.082   0.741 -0.5693 -1.3087  0.0911
  392MOL0     H52876   3.180   6.277   0.746  0.2546  1.6662  0.0474
  392MOL0     H52877   3.144   6.317   0.916 -0.3419  1.8978 -1.3473
  392MOL0     H52878   3.007   6.446   0.790  2.0850 -0.1311  0.8020
  392MOL0     H52879   2.898   6.326   0.868 -0.8751  2.1694  0.1987
  392MOL0     H52880   3.077   6.354   0.469 -1.3668 -2.2432 -0.8702
  392MOL0     H52881   3.006   6.551   0.174  1.8278 -4.1748 -2.0000
  392MOL0     H52882   3.095   6.660   0.276  0.3177 -0.1800 -1.7987
  392MOL0     H52883   3.152   6.497   0.267  0.4633  1.2261 -0.0525
  392MOL0     H52884   2.640   6.937   0.192  0.1085 -2.4244 -0.4567
  392MOL0     H52885   2.642   7.137   0.042 -0.8969 -0.1472  2.2792
  392MOL0     H52886   3.032   7.328  -0.041  0.1561  1.6439 -0.8289
  392MOL0     H52887   2.959   7.261  -0.183  0.8211 -0.5350  0.3522
  392MOL0     H52888   3.012   7.525  -0.147  0.6959 -2.3797  1.4687
  392MOL0     H52889   2.872   7.495  -0.237 -4.0523  4.6027  1.8412
  392MOL0     H52890   2.828   7.517   0.061 -1.6582  0.4021 -0.2152
  392MOL0     H52891   2.718   7.515  -0.067 -1.1188  0.0165  1.4890
  392MOL0     H52892   2.914   7.758  -0.028  0.9248 -1.7157  1.7782
  392MOL0     H52893   2.797   7.739  -0.162 -2.5487 -0.2626  0.4965
  392MOL0     H52894   2.702   7.756   0.127 -3.2897 -0.3682  0.4541
  392MOL0     H52895   2.601   7.748  -0.005 -0.7321  0.2762  5.3696
  392MOL0     H52896   2.663   7.970  -0.085  3.0866 -0.4868 -1.4902
  392MOL0     H52897   2.611   7.980   0.092 -0.8179 -2.6062 -0.0666
  392MOL0     H52898   2.885   7.998  -0.029 -0.7262 -2.5556 -0.7712
  392MOL0     H52899   2.872   7.968   0.135 -0.2743 -2.3119 -0.8612
  392MOL0     H52900   2.887   8.218   0.110 -1.5713  2.5108  1.3940
  392MOL0     H52901   2.726   8.165   0.150 -0.3961 -0.7928 -1.4362
  392MOL0     H52902   3.070   7.100  -0.015  1.7511 -0.8182  2.3728
  392MOL0     H52903   3.071   6.901   0.119  0.8410  0.9427 -4.3471
  392MOL0     H52904   2.660   6.615   0.532  0.8301  2.0207 -1.7754
  392MOL0     H52905   2.696   6.442   0.662 -0.5359  0.4638 -0.5879
  392MOL0     H52906   3.868   5.678   0.802 -1.1284 -3.4485  1.8498
  392MOL0     H52907   3.810   5.920   0.815  2.5401 -2.8441 -3.2772
  392MOL0     H52908   3.562   6.268   0.838  0.6496  2.1236  0.0423
  392MOL0     H52909   3.430   6.476   0.830  0.7082 -2.1835  0.3249
  392MOL0     H52910   3.402   6.784   0.650  0.2266 -0.3505  0.9681
  392MOL0     H52911   3.523   6.689   0.582 -0.5296 -1.8130 -1.7505
  392MOL0     H52912   3.341   6.662   0.375 -0.1298 -1.6355  1.1775
  392MOL0     H52913   3.479   6.771   0.396  0.2085  0.2299  1.3462
  392MOL0     H52914   3.302   6.913   0.335 -0.0547  3.3983  0.6700
  392MOL0     H52915   3.361   6.949   0.504  0.9114 -2.0002  1.0260
  392MOL0     H52916   3.201   6.885   0.607 -1.3306  0.6168  0.3964
  392MOL0     H52917   3.124   6.766   0.488  3.4597 -1.7862 -0.5966
  392MOL0     H52918   3.005   7.161   0.382 -0.7072 -0.1148 -0.0950
  392MOL0     H52919   3.387   6.427   0.412  0.4238 -2.0605 -1.4785
  392MOL0     H52920   3.520   6.211   0.424  0.6903  0.0321  0.4442
  393MOL0     O52921   7.609  11.418   4.749  0.2541 -1.1834  0.5029
  393MOL0     C52922   7.689  11.423   4.842 -0.1853 -0.1664 -1.1049
  393MOL0     O52923   7.660  11.411   4.971  0.6498  0.0788 -0.0807
  393MOL0     C52924   7.534  11.407   5.013  0.0271  0.9270  1.1310
  393MOL0     C52925   7.464  11.529   5.019 -0.2753 -0.5960 -0.1509
  393MOL0     C52926   7.328  11.514   5.025 -0.3537  0.1989 -0.3553
  393MOL0     C52927   7.258  11.395   5.041  0.7034  0.5710  0.0536
  393MOL0     O52928   7.122  11.411   5.063 -0.0328 -0.1302  0.0162
  393MOL0     C52929   7.037  11.303   5.016  0.8852  0.6001 -0.3950
  393MOL0     C52930   6.899  11.360   5.022  0.4215 -0.9508  1.3589
  393MOL0     C52931   6.860  11.472   4.924  0.2268  0.0337 -0.3054
  393MOL0     C52932   6.861  11.604   4.999 -0.2780 -0.5328 -0.4071
  393MOL0     C52933   6.818  11.710   4.887 -0.9146  0.3623  0.4755
  393MOL0     C52934   6.822  11.850   4.947 -0.6540  0.2358  0.0775
  393MOL0     C52935   6.714  11.870   5.051  0.1417  0.7600  0.0925
  393MOL0     C52936   6.725  12.007   5.103 -0.0832 -0.0018  0.0394
  393MOL0     N52937   6.860  12.039   5.155 -0.8294 -0.4450  0.2230
  393MOL0     C52938   6.938  12.152   5.114 -0.4569 -0.1694 -0.5948
  393MOL0     C52939   7.050  12.148   5.196 -0.0094  0.1769 -0.0978
  393MOL0     C52940   7.173  12.239   5.185 -0.1064  0.0792  0.2387
  393MOL0     C52941   7.125  12.383   5.199  0.1480  0.1640 -1.0621
  393MOL0     C52942   7.226  12.478   5.239 -0.3248 -0.3322 -0.1244
  393MOL0     C52943   7.293  12.551   5.127 -0.2781 -0.2289  0.5432
  393MOL0     O52944   7.401  12.629   5.173  0.1431  0.1709 -0.0629
  393MOL0     C52945   7.373  12.742   5.241  0.8373  0.0938  0.6480
  393MOL0     C52946   7.296  12.849   5.171 -0.1806  0.5359  0.1299
  393MOL0     C52947   7.278  12.969   5.236  0.1658  0.4204  1.0267
  393MOL0     C52948   7.204  13.084   5.162 -0.6881  0.9484 -0.6324
  393MOL0     C52949   7.315  12.986   5.366 -0.3245 -0.3479 -0.2893
  393MOL0     C52950   7.284  13.101   5.449  0.4227  0.8985  0.4523
  393MOL0     O52951   7.375  13.132   5.553 -0.1484  0.7730  0.7512
  393MOL0     C52952   7.353  13.237   5.630  0.5182 -0.7990  0.2219
  393MOL0     C52953   7.454  13.323   5.679 -0.0114 -0.8138  0.6140
  393MOL0     C52954   7.431  13.435   5.748 -0.9700  0.1997 -1.1792
  393MOL0     C52955   7.305  13.468   5.800 -0.3877 -0.9969 -0.1159
  393MOL0     O52956   7.292  13.588   5.871  0.6871  0.2243 -0.9758
  393MOL0     C52957   7.187  13.575   5.968 -0.7346 -0.1327  0.1285
  393MOL0     C52958   7.206  13.684   6.084 -0.0022  0.3016 -0.1184
  393MOL0     C52959   7.169  13.827   6.053 -0.1610  0.7093 -0.1279
  393MOL0     C52960   7.020  13.840   6.020 -0.2210 -0.2797 -1.0059
  393MOL0     C52961   6.929  13.760   6.117  0.0310  1.4936  0.1062
  393MOL0     C52962   6.794  13.828   6.152 -0.5102 -0.6381  0.2685
  393MOL0     C52963   6.756  13.788   6.294  0.2270  1.1023  0.9548
  393MOL0     C52964   6.619  13.833   6.325 -0.1311 -0.0671 -0.4986
  393MOL0    Cl52965   6.613  13.839   6.503  0.8031  0.1903 -0.7156
  393MOL0     C52966   7.202  13.375   5.773  0.2273  0.0243 -0.0542
  393MOL0     C52967   7.220  13.265   5.688  0.0552 -0.3420 -0.2654
  393MOL0     O52968   7.189  13.173   5.423  0.7680 -0.1574  0.7494
  393MOL0     C52969   7.383  12.881   5.439 -0.2245  0.6603  0.4628
  393MOL0     C52970   7.406  12.760   5.372 -1.7053  0.1905 -0.1231
  393MOL0     N52971   7.044  12.033   5.265 -0.8204 -0.7498  0.3143
  393MOL0     N52972   6.931  11.961   5.241 -0.4734 -0.8140 -0.4196
  393MOL0     C52973   7.331  11.279   5.033 -0.0872 -0.4397 -0.0104
  393MOL0     C52974   7.469  11.284   5.024  0.2198  0.0515  0.2023
  393MOL0     C52975   7.834  11.428   4.813 -0.1977  0.3202 -0.8567
  393MOL0     C52976   7.930  11.443   4.915 -0.0243  0.2773 -0.5006
  393MOL0     C52977   8.067  11.417   4.878  0.7002 -0.2716  0.3669
  393MOL0     C52978   8.110  11.400   4.739  0.2793 -0.6015  0.5133
  393MOL0     O52979   8.236  11.391   4.707  0.4013  0.7244  0.0920
  393MOL0     C52980   8.300  11.263   4.726  0.3803 -0.2681 -0.6441
  393MOL0     C52981   8.226  11.142   4.684 -0.2344 -0.8198  0.3094
  393MOL0     C52982   8.137  11.095   4.797  0.7650  0.1936  1.0435
  393MOL0     C52983   8.103  10.948   4.748 -0.3886 -0.3081 -0.0665
  393MOL0     C52984   8.054  10.866   4.850  1.4045  0.2192 -0.5983
  393MOL0     C52985   8.014  10.786   4.937  0.4890 -0.1300  0.4300
  393MOL0     C52986   8.010  11.397   4.648  0.0812 -0.0982 -0.1151
  393MOL0     C52987   7.877  11.418   4.677  0.4132  0.1274  0.2142
  393MOL0     H52988   7.514  11.625   5.015 -0.5197 -0.1555  3.6713
  393MOL0     H52989   7.268  11.602   5.048  0.3289  0.1843  1.6958
  393MOL0     H52990   7.066  11.268   4.916  2.4512 -3.1937  1.1523
  393MOL0     H52991   7.047  11.211   5.075  0.7385  2.0220  1.9927
  393MOL0     H52992   6.836  11.277   4.988 -1.9094  2.0240 -2.4667
  393MOL0     H52993   6.890  11.392   5.126  2.3064  1.4998  0.8533
  393MOL0     H52994   6.925  11.467   4.837 -0.4333  1.4658 -0.9066
  393MOL0     H52995   6.757  11.449   4.894 -1.0053  2.4351  1.7086
  393MOL0     H52996   6.793  11.604   5.085 -2.4776  0.8937 -2.0287
  393MOL0     H52997   6.959  11.634   5.038 -1.4664  1.1492  1.5203
  393MOL0     H52998   6.879  11.707   4.797 -0.4546 -4.3912  0.6912
  393MOL0     H52999   6.716  11.683   4.856 -0.3515 -0.9211 -0.3346
  393MOL0     H53000   6.925  11.860   4.981 -0.1288 -0.1147 -1.3708
  393MOL0     H53001   6.804  11.921   4.866  1.3706  1.9119  1.0146
  393MOL0     H53002   6.612  11.859   5.011  0.2561  1.7138 -0.4804
  393MOL0     H53003   6.721  11.803   5.137  0.1553  1.8351  0.9513
  393MOL0     H53004   6.662  12.016   5.192  1.2772 -3.8959  1.6319
  393MOL0     H53005   6.697  12.081   5.027  3.2425  0.3626 -0.9748
  393MOL0     H53006   6.910  12.224   5.037  1.4946  0.5340 -0.7215
  393MOL0     H53007   7.235  12.208   5.270 -0.3135 -2.2452 -0.3807
  393MOL0     H53008   7.229  12.211   5.095  0.7085 -1.4130  1.1639
  393MOL0     H53009   7.063  12.378   5.288  4.1326 -1.6673  1.8980
  393MOL0     H53010   7.065  12.422   5.116 -1.7177 -1.0303 -0.3292
  393MOL0     H53011   7.308  12.431   5.295 -0.5383  0.3475  0.7933
  393MOL0     H53012   7.184  12.551   5.309  1.7361 -1.1694  2.1452
  393MOL0     H53013   7.219  12.617   5.079 -1.3989 -2.3730 -0.8557
  393MOL0     H53014   7.329  12.472   5.061  1.6213 -1.5413  2.9580
  393MOL0     H53015   7.282  12.836   5.065 -1.7114  0.6092  0.3111
  393MOL0     H53016   7.110  13.095   5.216  1.4015  0.8761  3.3439
  393MOL0     H53017   7.250  13.183   5.164 -1.5371  1.3551 -0.6564
  393MOL0     H53018   7.188  13.050   5.059 -1.0732  1.5586 -0.7824
  393MOL0     H53019   7.559  13.299   5.663 -0.6936 -2.1871 -2.7802
  393MOL0     H53020   7.518  13.496   5.769 -1.1792  0.3255 -0.6468
  393MOL0     H53021   7.093  13.590   5.913 -0.9226  1.1815  0.7616
  393MOL0     H53022   7.205  13.481   6.022 -1.1120  0.6102  1.6244
  393MOL0     H53023   7.152  13.648   6.172 -0.5361 -2.0888 -1.3340
  393MOL0     H53024   7.312  13.701   6.106 -0.5795  2.2372  1.4872
  393MOL0     H53025   7.232  13.859   5.969 -0.1385 -0.7551 -0.6967
  393MOL0     H53026   7.182  13.877   6.149 -1.8455 -0.3953  0.7166
  393MOL0     H53027   7.003  13.945   6.041 -0.9948 -0.9270  2.1002
  393MOL0     H53028   7.002  13.814   5.915 -1.0693 -1.0306 -0.6866
  393MOL0     H53029   6.974  13.743   6.216 -2.4461 -0.3787  1.0143
  393MOL0     H53030   6.926  13.661   6.072  1.3604  0.5307  2.0014
  393MOL0     H53031   6.809  13.936   6.156 -2.3973 -0.3678  1.4243
  393MOL0     H53032   6.711  13.813   6.083 -0.7167  2.9475 -0.4117
  393MOL0     H53033   6.838  13.817   6.361  0.9472 -0.1304  0.6351
  393MOL0     H53034   6.746  13.680   6.303 -0.0477  0.9468 -0.8654
  393MOL0     H53035   6.539  13.766   6.291 -0.8423  0.3266  0.3686
  393MOL0     H53036   6.609  13.938   6.296  2.9906  0.2911 -0.5721
  393MOL0     H53037   7.098  13.384   5.804  1.0980  3.0323  2.5558
  393MOL0     H53038   7.129  13.211   5.663 -1.2718  1.7403 -0.1974
  393MOL0     H53039   7.422  12.892   5.539  3.1228 -0.8527 -0.5584
  393MOL0     H53040   7.478  12.691   5.416 -1.9244  0.1277  0.1392
  393MOL0     H53041   7.286  11.181   5.045 -2.3390  0.8302  3.4518
  393MOL0     H53042   7.525  11.192   5.011  0.3832 -0.2740  2.6952
  393MOL0     H53043   7.893  11.459   5.015  0.5515 -0.4470 -0.1595
  393MOL0     H53044   8.153  11.423   4.944  0.7729  0.3316  0.2230
  393MOL0     H53045   8.390  11.266   4.664 -0.7214 -1.8257 -2.4420
  393MOL0     H53046   8.332  11.249   4.829 -0.5728  0.7442 -0.1984
  393MOL0     H53047   8.297  11.065   4.655  0.3384  1.0010 -3.8242
  393MOL0     H53048   8.177  11.163   4.589  2.2836 -2.2233 -1.4238
  393MOL0     H53049   8.046  11.152   4.816 -0.4556 -0.8233 -1.3400
  393MOL0     H53050   8.180  11.079   4.896 -0.9399  1.0055  1.9546
  393MOL0     H53051   8.196  10.895   4.724 -1.2215 -1.2021 -1.4282
  393MOL0     H53052   8.031  10.943   4.666  0.3497 -0.1527 -0.7481
  393MOL0     H53053   7.983  10.710   5.006  2.0840 -1.9391 -0.7341
  393MOL0     H53054   8.030  11.355   4.549 -3.1554 -0.6880 -0.6196
  393MOL0     H53055   7.811  11.437   4.593 -0.3426  0.2743  0.8264
  394MOL0     O53056   4.702   9.473  11.472  0.2325 -0.1231 -0.2248
  394MOL0     C53057   4.742   9.418  11.573  0.2258  0.5496  0.0402
  394MOL0     O53058   4.723   9.457  11.706  0.3395 -0.4686  0.8426
  394MOL0     C53059   4.608   9.526  11.745  0.1312 -0.3571  1.0976
  394MOL0     C53060   4.485   9.527  11.672  1.2512 -1.0460  0.5502
  394MOL0     C53061   4.381   9.619  11.710 -0.0356  0.5780  0.2724
  394MOL0     C53062   4.398   9.694  11.828  0.0003 -0.2050  0.4240
  394MOL0     O53063   4.305   9.788  11.862  0.9367  1.5061 -0.5034
  394MOL0     C53064   4.332   9.914  11.918 -0.5628  0.1593 -0.3422
  394MOL0     C53065   4.353  10.012  11.799 -0.5346 -0.6157  0.5450
  394MOL0     C53066   4.230  10.017  11.712 -0.7456 -0.7587  0.2834
  394MOL0     C53067   4.266  10.079  11.577 -0.4542 -0.0452 -0.4335
  394MOL0     C53068   4.149  10.087  11.476 -0.3105 -0.1066 -0.6434
  394MOL0     C53069   4.169  10.194  11.375 -0.2003  0.3551  0.8747
  394MOL0     C53070   4.079  10.190  11.257 -0.6686  0.2039 -0.0738
  394MOL0     C53071   3.934  10.226  11.288 -0.4452 -0.3516  0.6803
  394MOL0     N53072   3.837  10.217  11.178  1.8058  0.0992 -1.2983
  394MOL0     C53073   3.785  10.111  11.103 -0.3979  0.0563  0.5122
  394MOL0     C53074   3.723  10.168  11.004  0.3709 -0.8086  0.4432
  394MOL0     C53075   3.647  10.084  10.905 -0.5013 -0.8166  0.0722
  394MOL0     C53076   3.661  10.151  10.757  0.1743  0.4462 -0.0056
  394MOL0     C53077   3.536  10.097  10.676  0.6308 -0.3904  0.8807
  394MOL0     C53078   3.579  10.042  10.535 -0.4998 -0.4331  1.2759
  394MOL0     O53079   3.644  10.133  10.450  0.2904 -0.1938 -0.8444
  394MOL0     C53080   3.670  10.080  10.327  0.3124  0.0806  0.9522
  394MOL0     C53081   3.664  10.169  10.214 -0.0996 -0.4537  0.4588
  394MOL0     C53082   3.676  10.115  10.079  0.2213  0.1790 -0.3975
  394MOL0     C53083   3.680  10.218   9.974 -0.8498  0.2465  0.1301
  394MOL0     C53084   3.681   9.977  10.051  0.2337 -0.3591 -0.0985
  394MOL0     C53085   3.690   9.932   9.912 -0.2234 -0.0768 -0.7603
  394MOL0     O53086   3.777   9.823   9.898  0.2437 -0.3740 -0.0074
  394MOL0     C53087   3.781   9.742   9.788  0.1663  0.5415 -0.0593
  394MOL0     C53088   3.676   9.648   9.751 -0.0377 -0.0375  0.2014
  394MOL0     C53089   3.698   9.557   9.645  0.3587  0.9929 -0.1236
  394MOL0     C53090   3.810   9.568   9.563 -0.0502  0.1318 -0.4892
  394MOL0     O53091   3.840   9.478   9.465 -0.0592 -0.3281  0.5550
  394MOL0     C53092   3.732   9.442   9.382 -0.7850 -0.2250 -0.0979
  394MOL0     C53093   3.768   9.471   9.238 -0.2083  0.1707  0.6221
  394MOL0     C53094   3.647   9.502   9.151  0.5306  0.3245 -0.0019
  394MOL0     C53095   3.698   9.555   9.015 -0.5120 -0.7834 -0.4375
  394MOL0     C53096   3.595   9.578   8.909 -0.1654  0.2158  0.5474
  394MOL0     C53097   3.648   9.603   8.762  0.4744  0.2927  0.1092
  394MOL0     C53098   3.752   9.718   8.759  0.5966  0.6462  0.5419
  394MOL0     C53099   3.765   9.776   8.618 -0.8838 -0.0294  0.2661
  394MOL0    Cl53100   3.917   9.867   8.590 -0.1932  0.2354  0.2869
  394MOL0     C53101   3.899   9.669   9.580  0.1411  0.0906  0.4597
  394MOL0     C53102   3.901   9.753   9.697  0.9824 -0.7601  0.3621
  394MOL0     O53103   3.648   9.998   9.819 -0.7073 -0.1552 -0.2492
  394MOL0     C53104   3.700   9.894  10.159  0.4506  0.1063  0.3315
  394MOL0     C53105   3.701   9.948  10.290  0.0522  1.0906 -0.9731
  394MOL0     N53106   3.726  10.304  11.031  0.2542  0.9628  0.2540
  394MOL0     N53107   3.773  10.331  11.146  0.9738  0.3816 -0.1041
  394MOL0     C53108   4.513   9.674  11.905  0.3822 -0.3376  0.6232
  394MOL0     C53109   4.623   9.596  11.855 -0.3259 -0.2058 -0.3518
  394MOL0     C53110   4.810   9.286  11.559 -1.5143  0.0852  0.3863
  394MOL0     C53111   4.849   9.230  11.439  0.7108 -0.1913 -0.7702
  394MOL0     C53112   4.897   9.098  11.425  0.5381  0.4160  0.0559
  394MOL0     C53113   4.900   9.016  11.537  0.2028  0.5771  0.6865
  394MOL0     O53114   4.937   8.884  11.544  0.5849  0.1162  0.3192
  394MOL0     C53115   4.902   8.792  11.445 -0.6352 -0.0208 -0.1944
  394MOL0     C53116   5.028   8.708  11.422  0.0423  0.0422 -0.2143
  394MOL0     C53117   5.153   8.795  11.369  0.3196  0.5561  0.5028
  394MOL0     C53118   5.281   8.720  11.385 -0.6906  0.2891  0.2563
  394MOL0     C53119   5.302   8.609  11.295  0.8084 -0.5883 -0.3423
  394MOL0     C53120   5.301   8.508  11.224  0.3058 -1.4259 -0.1143
  394MOL0     C53121   4.859   9.061  11.660 -0.1253 -0.3049 -0.1805
  394MOL0     C53122   4.808   9.192  11.669 -0.7856 -1.4588  0.0961
  394MOL0     H53123   4.471   9.468  11.583 -2.0227 -3.2551  2.2989
  394MOL0     H53124   4.305   9.641  11.636  3.2431  2.8349 -2.7611
  394MOL0     H53125   4.250   9.949  11.981  1.7194  2.9919  1.3545
  394MOL0     H53126   4.422   9.912  11.980 -0.3080  0.5979 -0.6916
  394MOL0     H53127   4.368  10.115  11.833  0.6962 -0.8375  0.7411
  394MOL0     H53128   4.447   9.988  11.748 -1.7484 -2.3133 -1.0128
  394MOL0     H53129   4.205   9.912  11.691 -0.9940 -0.9182  1.3253
  394MOL0     H53130   4.143  10.070  11.750 -0.1210  0.6654 -0.2023
  394MOL0     H53131   4.300  10.181  11.592 -2.0024  0.5588 -0.8741
  394MOL0     H53132   4.347  10.023  11.528  0.8578 -2.7426  4.1873
  394MOL0     H53133   4.116   9.992  11.433 -0.4764 -1.9011  3.0755
  394MOL0     H53134   4.061  10.119  11.533 -0.4588 -2.2690  0.4210
  394MOL0     H53135   4.154  10.290  11.426  1.1551 -0.3713  2.7813
  394MOL0     H53136   4.272  10.188  11.337 -0.3710 -1.5932  0.6578
  394MOL0     H53137   4.116  10.253  11.175  2.5804 -0.8761  0.4324
  394MOL0     H53138   4.100  10.097  11.203  0.5300  0.7236 -0.5244
  394MOL0     H53139   3.936  10.320  11.343  2.2087 -0.2015  0.4170
  394MOL0     H53140   3.921  10.139  11.354  1.4381 -2.3609 -1.4030
  394MOL0     H53141   3.816  10.008  11.119  2.1212  0.7007  0.2502
  394MOL0     H53142   3.671   9.978  10.916  0.0020 -0.8539 -1.2542
  394MOL0     H53143   3.540  10.091  10.925 -0.6906 -0.0770 -1.0799
  394MOL0     H53144   3.759  10.127  10.715 -1.4050 -1.9210 -2.7252
  394MOL0     H53145   3.648  10.258  10.776  1.0765  0.2953  1.6346
  394MOL0     H53146   3.467  10.180  10.658  0.2072 -0.9264 -0.0158
  394MOL0     H53147   3.490  10.020  10.739  1.2823 -0.2763  1.5058
  394MOL0     H53148   3.487  10.005  10.489  0.6565 -1.0152 -0.6923
  394MOL0     H53149   3.649   9.959  10.549  1.1699  0.4309 -1.2687
  394MOL0     H53150   3.663  10.277  10.221 -0.9010 -0.3531 -0.8262
  394MOL0     H53151   3.581  10.253   9.942 -0.6977  0.5408 -0.0182
  394MOL0     H53152   3.733  10.303  10.017 -2.2813  0.4547  1.5492
  394MOL0     H53153   3.728  10.196   9.878 -0.3503  2.6051 -0.2214
  394MOL0     H53154   3.586   9.638   9.810 -1.1478 -0.1974 -1.4458
  394MOL0     H53155   3.640   9.465   9.642 -2.7352  2.7265  1.2905
  394MOL0     H53156   3.719   9.334   9.390  2.3251 -0.5250  3.3686
  394MOL0     H53157   3.642   9.500   9.408  0.1465  1.3136 -0.2061
  394MOL0     H53158   3.834   9.558   9.231 -0.0215 -0.0308 -0.3002
  394MOL0     H53159   3.822   9.382   9.206  0.0144  0.0703  1.2731
  394MOL0     H53160   3.584   9.578   9.200  1.0886  1.0393 -0.3845
  394MOL0     H53161   3.600   9.408   9.122  0.6908  0.6961 -1.5630
  394MOL0     H53162   3.741   9.652   9.040 -1.0133 -0.7881  0.4887
  394MOL0     H53163   3.778   9.495   8.972  1.2893  2.8922 -2.7062
  394MOL0     H53164   3.525   9.653   8.947 -1.9710 -2.2427  2.3151
  394MOL0     H53165   3.545   9.482   8.902  1.2783 -0.5549  0.4320
  394MOL0     H53166   3.690   9.510   8.724 -2.7999 -1.5061  0.5618
  394MOL0     H53167   3.558   9.615   8.701  1.9923 -0.0954 -2.3156
  394MOL0     H53168   3.848   9.669   8.782  1.8692  2.4016 -0.7832
  394MOL0     H53169   3.732   9.799   8.830 -5.4009 -1.3712  1.7819
  394MOL0     H53170   3.678   9.842   8.605 -0.6033  0.2374 -0.2520
  394MOL0     H53171   3.769   9.692   8.548  1.9091  0.4696 -0.2825
  394MOL0     H53172   3.987   9.677   9.517 -1.6041  0.5079 -2.0887
  394MOL0     H53173   3.982   9.825   9.705 -1.6883  2.9013 -2.4281
  394MOL0     H53174   3.703   9.789  10.129  0.8885  0.3631 -0.5561
  394MOL0     H53175   3.708   9.859  10.351 -2.5033  1.0262 -0.6638
  394MOL0     H53176   4.517   9.710  12.008  0.2018 -1.2043  0.9470
  394MOL0     H53177   4.715   9.584  11.911 -0.3492  1.0900 -0.0075
  394MOL0     H53178   4.846   9.303  11.358  2.7600  0.7828 -0.0494
  394MOL0     H53179   4.936   9.089  11.324  1.9152  3.0010  0.2549
  394MOL0     H53180   4.820   8.728  11.479  1.0292 -2.3717 -0.2902
  394MOL0     H53181   4.877   8.847  11.354  2.7279  1.1978 -0.5279
  394MOL0     H53182   4.997   8.630  11.351 -0.2697  0.1914 -0.2442
  394MOL0     H53183   5.054   8.663  11.518 -0.2911  1.0584  0.3593
  394MOL0     H53184   5.164   8.889  11.425  0.5457 -0.4570  2.2314
  394MOL0     H53185   5.140   8.819  11.263  4.3567  0.6910 -0.1213
  394MOL0     H53186   5.281   8.690  11.490 -3.9928  2.2047  0.9422
  394MOL0     H53187   5.364   8.788  11.365 -0.4917  0.2490  0.9327
  394MOL0     H53188   5.292   8.420  11.163  1.9109 -2.9820  1.7852
  394MOL0     H53189   4.870   9.010  11.755 -4.0838 -1.9595 -0.4465
  394MOL0     H53190   4.753   9.221  11.757 -1.4429  1.1380 -1.0621
  395MOL0     O53191   0.959   1.472   1.354  0.7586 -0.1488  0.5202
  395MOL0     C53192   1.079   1.496   1.357 -0.0333 -1.0918 -0.0163
  395MOL0     O53193   1.144   1.595   1.284  0.2320 -0.2622 -0.2224
  395MOL0     C53194   1.085   1.620   1.164 -0.3710  0.7860  0.7144
  395MOL0     C53195   1.136   1.544   1.050 -0.0631 -0.5035 -0.1769
  395MOL0     C53196   1.113   1.582   0.917  0.5511  0.0526 -0.1134
  395MOL0     C53197   1.027   1.689   0.890  0.4883 -0.0471 -1.2193
  395MOL0     O53198   0.999   1.710   0.758 -0.4796 -0.6835 -0.2287
  395MOL0     C53199   0.871   1.757   0.717  1.1892 -0.5893 -0.0910
  395MOL0     C53200   0.755   1.655   0.734  0.5543 -0.1488 -0.9208
  395MOL0     C53201   0.809   1.515   0.709 -0.7233  0.5514 -1.0075
  395MOL0     C53202   0.695   1.408   0.667 -1.0526 -0.0155  1.0694
  395MOL0     C53203   0.745   1.266   0.714 -0.7333  0.3551 -0.8471
  395MOL0     C53204   0.656   1.144   0.698  1.2549 -0.5553 -0.2792
  395MOL0     C53205   0.698   1.020   0.773 -0.8361  0.4355 -0.0752
  395MOL0     C53206   0.831   0.964   0.732  0.3465  0.0382  1.2983
  395MOL0     N53207   0.809   0.854   0.641 -0.0762 -0.2595  0.9573
  395MOL0     C53208   0.776   0.875   0.507  0.2478  0.5720  0.0629
  395MOL0     C53209   0.734   0.756   0.463 -0.2673  0.8797 -0.3025
  395MOL0     C53210   0.700   0.723   0.323 -0.3910  0.0837 -0.5405
  395MOL0     C53211   0.594   0.820   0.279  0.1568 -0.1316  0.7875
  395MOL0     C53212   0.615   0.884   0.147  1.3778 -0.2403  0.2726
  395MOL0     C53213   0.749   0.952   0.130  0.8894 -0.5275 -0.2405
  395MOL0     O53214   0.733   1.023   0.004 -1.1353 -0.3670 -0.2334
  395MOL0     C53215   0.721   0.943  -0.109  0.8819  0.1609 -0.7666
  395MOL0     C53216   0.598   0.938  -0.170  0.4189  0.1658  0.3905
  395MOL0     C53217   0.588   0.886  -0.301  0.2708 -0.8330  0.8423
  395MOL0     C53218   0.455   0.897  -0.370 -0.0098  0.3703 -0.0662
  395MOL0     C53219   0.697   0.819  -0.363  0.0405  0.9005  0.2719
  395MOL0     C53220   0.689   0.747  -0.498 -0.8287 -0.3720 -0.6386
  395MOL0     O53221   0.815   0.719  -0.552 -0.4354  0.4285  0.5883
  395MOL0     C53222   0.819   0.668  -0.680  0.0766 -0.0225  0.0751
  395MOL0     C53223   0.846   0.743  -0.796 -0.2432 -0.4100 -0.1097
  395MOL0     C53224   0.821   0.675  -0.922  0.3984 -0.0866 -0.0831
  395MOL0     C53225   0.788   0.535  -0.935 -0.4833 -0.8210  0.7189
  395MOL0     O53226   0.755   0.483  -1.053 -0.8243 -0.0364  0.3089
  395MOL0     C53227   0.702   0.570  -1.157  0.1810  0.2784 -0.4818
  395MOL0     C53228   0.617   0.472  -1.238 -0.2630 -1.1568  0.1516
  395MOL0     C53229   0.554   0.541  -1.358 -0.3632  0.5425  1.0228
  395MOL0     C53230   0.436   0.468  -1.417 -0.0207  0.5419  0.8086
  395MOL0     C53231   0.397   0.527  -1.558 -0.8681 -0.5605  0.4772
  395MOL0     C53232   0.253   0.496  -1.589  0.1861  0.4041  0.7653
  395MOL0     C53233   0.191   0.556  -1.721  0.3171  0.7355 -0.3841
  395MOL0     C53234   0.052   0.579  -1.719 -0.0740  0.1102  0.4983
  395MOL0    Cl53235   0.011   0.693  -1.579  0.1463  0.2678 -0.0343
  395MOL0     C53236   0.791   0.458  -0.819 -0.1400  0.6322 -0.9416
  395MOL0     C53237   0.802   0.526  -0.698 -0.9551  0.7012  0.2695
  395MOL0     O53238   0.589   0.703  -0.544  0.1983  0.4540  0.3925
  395MOL0     C53239   0.826   0.826  -0.301 -0.1640 -0.2580 -0.3150
  395MOL0     C53240   0.830   0.887  -0.171  0.4021  0.6783 -0.0399
  395MOL0     N53241   0.738   0.665   0.571 -0.6872  0.9336  0.3662
  395MOL0     N53242   0.767   0.723   0.680  0.8492 -0.1715  0.6598
  395MOL0     C53243   0.972   1.765   1.000  1.0037  1.6308 -0.4041
  395MOL0     C53244   1.006   1.733   1.134 -0.9090 -0.3764  0.1149
  395MOL0     C53245   1.165   1.427   1.465  0.3145 -0.2585 -0.9246
  395MOL0     C53246   1.290   1.474   1.495  0.3366  0.5462 -0.7215
  395MOL0     C53247   1.362   1.423   1.608  2.0231 -0.6535  0.1280
  395MOL0     C53248   1.301   1.322   1.684  0.5743 -0.5910 -0.8445
  395MOL0     O53249   1.364   1.258   1.790 -0.1617  0.7363 -0.7134
  395MOL0     C53250   1.490   1.192   1.762  1.1073  0.2053  0.6301
  395MOL0     C53251   1.474   1.057   1.826 -0.7054  0.2950 -0.3127
  395MOL0     C53252   1.587   0.953   1.793  1.6325 -0.4167 -0.5112
  395MOL0     C53253   1.576   0.835   1.899 -0.4003  0.6096 -0.4447
  395MOL0     C53254   1.639   0.874   2.022  0.1827  0.2285  0.4650
  395MOL0     C53255   1.701   0.919   2.111  0.1732  0.7092 -0.2285
  395MOL0     C53256   1.170   1.286   1.664  1.3227 -0.4325  0.6570
  395MOL0     C53257   1.095   1.337   1.557 -0.3066  0.7555 -0.0089
  395MOL0     H53258   1.215   1.470   1.060 -0.8948 -1.6197 -1.4832
  395MOL0     H53259   1.130   1.507   0.841 -2.4226 -1.3967  0.4703
  395MOL0     H53260   0.852   1.847   0.776  2.1285 -1.3430  1.4311
  395MOL0     H53261   0.874   1.783   0.611 -0.6125  0.0249 -0.0292
  395MOL0     H53262   0.712   1.667   0.834 -1.8970  2.1591 -2.1098
  395MOL0     H53263   0.658   1.681   0.690  1.3109  5.4400 -0.0172
  395MOL0     H53264   0.881   1.522   0.626 -1.3367  3.2962 -1.4122
  395MOL0     H53265   0.849   1.479   0.804 -1.4828  2.0080 -0.0903
  395MOL0     H53266   0.598   1.423   0.715 -1.9652  1.1288 -1.0100
  395MOL0     H53267   0.671   1.415   0.561  1.6367 -1.8101  0.2423
  395MOL0     H53268   0.840   1.246   0.663 -0.0586 -1.3414  0.9509
  395MOL0     H53269   0.771   1.268   0.820 -0.2617  0.4653 -0.9636
  395MOL0     H53270   0.554   1.160   0.736  0.2163 -2.2793 -2.1296
  395MOL0     H53271   0.629   1.135   0.592  1.9542  0.5581 -0.5707
  395MOL0     H53272   0.706   1.049   0.878  0.5893 -2.7125  0.7949
  395MOL0     H53273   0.619   0.945   0.766  0.4670 -1.2217  1.8045
  395MOL0     H53274   0.887   0.937   0.821  2.2742  2.6746  1.0212
  395MOL0     H53275   0.886   1.041   0.677 -0.6024 -0.5102 -0.5142
  395MOL0     H53276   0.779   0.973   0.462 -0.6901  1.4179  1.7349
  395MOL0     H53277   0.792   0.721   0.265  0.4167 -1.0283  0.7010
  395MOL0     H53278   0.669   0.619   0.306 -3.1549  0.9313 -1.0836
  395MOL0     H53279   0.571   0.890   0.360  0.7809 -0.4315  1.2352
  395MOL0     H53280   0.510   0.749   0.280  0.7127 -0.8036  1.5948
  395MOL0     H53281   0.538   0.962   0.138  0.0365 -1.5484 -0.1271
  395MOL0     H53282   0.592   0.800   0.080  0.1612 -0.7917  1.3327
  395MOL0     H53283   0.828   0.876   0.131  2.0251  0.6118 -0.7369
  395MOL0     H53284   0.774   1.027   0.206  3.5764  1.1843 -2.5999
  395MOL0     H53285   0.515   0.976  -0.112 -0.7300  2.5671 -2.5911
  395MOL0     H53286   0.457   0.925  -0.476 -2.0391  0.1799 -0.2082
  395MOL0     H53287   0.401   0.803  -0.356 -5.7126  3.5721  3.3826
  395MOL0     H53288   0.402   0.980  -0.322  2.1952  0.3559  2.6700
  395MOL0     H53289   0.878   0.847  -0.800  4.5634 -1.5858  0.8035
  395MOL0     H53290   0.826   0.741  -1.008 -1.3468  0.5671  0.2719
  395MOL0     H53291   0.633   0.646  -1.117  3.7241  3.0819  0.8248
  395MOL0     H53292   0.769   0.621  -1.227  2.5432 -1.4568  0.4014
  395MOL0     H53293   0.690   0.393  -1.258  3.7072  1.0268  4.0342
  395MOL0     H53294   0.529   0.450  -1.177 -0.9603  0.8264 -0.0715
  395MOL0     H53295   0.637   0.562  -1.426  0.9921 -0.4191  2.2965
  395MOL0     H53296   0.512   0.641  -1.346 -1.8502 -0.0876  1.2784
  395MOL0     H53297   0.456   0.362  -1.434  2.4062  1.0167  0.3092
  395MOL0     H53298   0.348   0.477  -1.354 -1.2894 -1.0187 -0.6439
  395MOL0     H53299   0.461   0.497  -1.641  0.0892 -1.8765  1.6393
  395MOL0     H53300   0.413   0.634  -1.543  1.1562 -0.9280  1.3681
  395MOL0     H53301   0.239   0.389  -1.604  2.4693 -0.0817  1.6167
  395MOL0     H53302   0.192   0.532  -1.505 -1.8895  0.0453 -0.5169
  395MOL0     H53303   0.216   0.482  -1.797  2.0548 -0.9782  1.7231
  395MOL0     H53304   0.238   0.653  -1.739  2.2944 -0.0850  0.1028
  395MOL0     H53305  -0.013   0.490  -1.722  0.8252 -0.6214  1.6712
  395MOL0     H53306   0.034   0.644  -1.805  1.0389  0.0744  0.2178
  395MOL0     H53307   0.777   0.350  -0.826 -1.0797  0.6091  0.8782
  395MOL0     H53308   0.781   0.465  -0.611  0.6647 -1.2969 -0.6458
  395MOL0     H53309   0.916   0.782  -0.342 -0.8097 -2.3865  0.3951
  395MOL0     H53310   0.926   0.900  -0.123  1.4861 -1.6773 -1.3759
  395MOL0     H53311   0.940   1.867   0.986  2.7427  2.2075 -0.4526
  395MOL0     H53312   0.970   1.806   1.206 -3.2105 -2.1561  0.9128
  395MOL0     H53313   1.322   1.551   1.426 -1.6243 -0.4952 -2.9495
  395MOL0     H53314   1.460   1.469   1.622  2.1278 -0.1304 -2.0635
  395MOL0     H53315   1.510   1.168   1.657 -3.1234 -1.0707 -0.0538
  395MOL0     H53316   1.572   1.249   1.807 -0.9256  1.5930  2.7711
  395MOL0     H53317   1.375   1.026   1.792 -0.6191 -0.5232  0.1479
  395MOL0     H53318   1.464   1.061   1.935 -2.5720 -1.3605 -0.3464
  395MOL0     H53319   1.682   1.008   1.793  1.0101  0.7227  0.9505
  395MOL0     H53320   1.575   0.916   1.691 -0.9810 -2.5398  0.4251
  395MOL0     H53321   1.624   0.742   1.865 -1.5730 -0.0853 -0.2914
  395MOL0     H53322   1.469   0.813   1.912 -0.6533  0.7035 -2.0405
  395MOL0     H53323   1.747   0.966   2.195 -2.8999 -0.6828  2.4322
  395MOL0     H53324   1.136   1.217   1.740 -0.5763  0.1849  0.4325
  395MOL0     H53325   0.996   1.299   1.535 -0.4618  1.1489  0.0075
  396MOL0     O53326   2.937  10.384   4.838 -0.3255  0.2328  0.6342
  396MOL0     C53327   2.820  10.420   4.851 -1.4083 -0.8510  0.3093
  396MOL0     O53328   2.732  10.428   4.749  0.1707  1.0650 -0.0705
  396MOL0     C53329   2.747  10.387   4.615  0.1001 -1.1865 -0.8374
  396MOL0     C53330   2.641  10.424   4.538  0.3914 -0.5468  0.2459
  396MOL0     C53331   2.631  10.371   4.409 -0.0516  0.5309  0.4787
  396MOL0     C53332   2.725  10.289   4.352 -1.0920 -0.8064  0.1940
  396MOL0     O53333   2.725  10.245   4.219 -0.6759  0.6570  0.2303
  396MOL0     C53334   2.838  10.157   4.183  0.0768  0.1213  0.2341
  396MOL0     C53335   2.824  10.122   4.036  1.2631  0.2415 -0.3547
  396MOL0     C53336   2.697  10.030   4.013 -0.3386 -0.1444  0.6055
  396MOL0     C53337   2.724   9.931   3.902  0.8724  0.1199 -0.8320
  396MOL0     C53338   2.596   9.850   3.882 -0.1245  0.9827 -0.4447
  396MOL0     C53339   2.582   9.733   3.973 -0.7364  0.1080 -0.4400
  396MOL0     C53340   2.461   9.642   3.920  0.0848  0.0619  0.0953
  396MOL0     C53341   2.418   9.540   4.014  1.1313  0.3298 -1.2459
  396MOL0     N53342   2.298   9.461   3.970  0.9793 -1.0037  0.0967
  396MOL0     C53343   2.170   9.508   3.951  0.6400 -0.4728 -0.1942
  396MOL0     C53344   2.099   9.407   3.895 -0.8363 -0.9229  0.1706
  396MOL0     C53345   1.961   9.403   3.852  0.0741 -0.5108  0.4111
  396MOL0     C53346   1.929   9.500   3.734  0.4479  0.3292  1.1622
  396MOL0     C53347   2.016   9.480   3.607  0.9137  0.3822 -0.0212
  396MOL0     C53348   2.141   9.560   3.579  0.0841  0.3599  0.1207
  396MOL0     O53349   2.125   9.701   3.589  0.1836 -0.1064  0.5576
  396MOL0     C53350   2.220   9.785   3.528 -0.0539  0.6243 -0.8438
  396MOL0     C53351   2.352   9.756   3.531  0.5749 -1.0396  0.4214
  396MOL0     C53352   2.444   9.859   3.512  0.6317 -0.5204  0.4634
  396MOL0     C53353   2.588   9.827   3.516 -0.1270  0.3479  0.2381
  396MOL0     C53354   2.398   9.991   3.477  0.1090 -0.2064 -0.8684
  396MOL0     C53355   2.480  10.119   3.448  0.4478  0.3255 -0.5185
  396MOL0     O53356   2.415  10.224   3.396  0.3118 -0.4081 -0.0185
  396MOL0     C53357   2.493  10.278   3.304  0.0259 -0.1025 -0.3225
  396MOL0     C53358   2.569  10.385   3.339 -0.6228 -0.5931 -1.3001
  396MOL0     C53359   2.649  10.449   3.244 -0.7676 -0.0317 -0.3680
  396MOL0     C53360   2.652  10.408   3.104 -0.2414  0.2652  0.1345
  396MOL0     O53361   2.719  10.467   2.994  0.0524  0.5583  0.0459
  396MOL0     C53362   2.787  10.591   3.035 -0.0679  0.5046  0.4784
  396MOL0     C53363   2.847  10.651   2.907  0.2522  0.3951  0.3491
  396MOL0     C53364   2.940  10.771   2.935  0.3880  0.5043 -0.1539
  396MOL0     C53365   3.080  10.737   2.983 -0.2320 -0.6952  0.1542
  396MOL0     C53366   3.178  10.856   3.016  0.3172  0.9950  0.1380
  396MOL0     C53367   3.229  10.929   2.890  0.8654  0.1453 -0.7863
  396MOL0     C53368   3.267  10.850   2.760  0.1804  0.0002 -0.3451
  396MOL0     C53369   3.323  10.936   2.663  0.0627 -0.3024 -1.1906
  396MOL0    Cl53370   3.375  10.837   2.518  0.4158  0.1113 -0.2420
  396MOL0     C53371   2.564  10.299   3.075 -0.2578  0.5948 -0.6486
  396MOL0     C53372   2.493  10.232   3.174  0.3200 -0.6956  0.3222
  396MOL0     O53373   2.601  10.099   3.448  0.5090  0.6793  0.1608
  396MOL0     C53374   2.262  10.006   3.455 -0.0251 -0.7674 -0.0190
  396MOL0     C53375   2.181   9.908   3.494 -0.3452  0.1688  0.4762
  396MOL0     N53376   2.188   9.296   3.875  0.0896 -0.2509  0.4684
  396MOL0     N53377   2.305   9.340   3.915  0.6165  0.5934 -0.8710
  396MOL0     C53378   2.828  10.253   4.449  0.0230 -0.2536  0.9741
  396MOL0     C53379   2.833  10.296   4.574 -0.0138  0.1506 -0.9450
  396MOL0     C53380   2.757  10.465   4.977  0.3027 -0.6858  1.3254
  396MOL0     C53381   2.836  10.478   5.082 -0.7195  0.0289  0.2843
  396MOL0     C53382   2.791  10.508   5.201 -0.1680 -0.7115 -0.2547
  396MOL0     C53383   2.657  10.549   5.228 -1.3598  0.0621  0.4578
  396MOL0     O53384   2.605  10.578   5.348  0.0370  0.7798  0.2196
  396MOL0     C53385   2.680  10.551   5.466 -0.1533 -0.1303 -0.6079
  396MOL0     C53386   2.599  10.580   5.586 -0.0697 -0.8402 -0.3242
  396MOL0     C53387   2.567  10.446   5.657 -0.1769  1.2130 -0.3645
  396MOL0     C53388   2.465  10.344   5.592  0.7068  0.0800  0.1307
  396MOL0     C53389   2.329  10.403   5.590  0.0057 -0.0695  0.6217
  396MOL0     C53390   2.229  10.461   5.610  0.0780 -0.3497  0.1106
  396MOL0     C53391   2.570  10.543   5.117  0.6136  0.1488  1.4802
  396MOL0     C53392   2.623  10.505   4.986 -0.1063 -0.4622  1.1797
  396MOL0     H53393   2.552  10.470   4.580  0.1122 -1.5844  0.8428
  396MOL0     H53394   2.546  10.407   4.352 -1.8314 -0.4797  2.3759
  396MOL0     H53395   2.934  10.210   4.189 -0.3308  1.1168 -1.6215
  396MOL0     H53396   2.842  10.069   4.249  2.0320  1.5876  2.2362
  396MOL0     H53397   2.789  10.216   3.993 -1.8572 -1.0488 -0.8767
  396MOL0     H53398   2.909  10.081   3.980  0.2728  0.0082 -1.7280
  396MOL0     H53399   2.683   9.979   4.108 -0.6427 -0.2661  0.4984
  396MOL0     H53400   2.617  10.101   3.990  1.6624  0.9480 -4.1720
  396MOL0     H53401   2.729   9.995   3.814 -1.0053 -1.7195 -2.4119
  396MOL0     H53402   2.817   9.874   3.912  1.3799  0.9549 -0.7773
  396MOL0     H53403   2.504   9.905   3.903  0.0192  0.1121  3.1504
  396MOL0     H53404   2.597   9.807   3.782  0.3056  0.6197 -0.2902
  396MOL0     H53405   2.674   9.673   3.982 -1.4948 -1.2927 -1.6618
  396MOL0     H53406   2.564   9.761   4.077 -1.4109 -1.1281 -0.2085
  396MOL0     H53407   2.382   9.707   3.880  1.3835  0.4406 -2.0172
  396MOL0     H53408   2.483   9.569   3.842 -2.3122 -2.4766  1.6302
  396MOL0     H53409   2.394   9.578   4.114  0.4451 -0.5457 -1.0620
  396MOL0     H53410   2.507   9.479   4.035  1.8026  1.0425 -1.9307
  396MOL0     H53411   2.126   9.603   3.980 -0.0319 -0.5275 -0.9869
  396MOL0     H53412   1.951   9.301   3.814  1.4420 -0.7654  0.6762
  396MOL0     H53413   1.886   9.420   3.930 -0.6894  0.4880 -0.5192
  396MOL0     H53414   1.939   9.606   3.760 -0.9956  1.4558 -2.3487
  396MOL0     H53415   1.822   9.490   3.715  0.0077  0.3837  3.2971
  396MOL0     H53416   1.941   9.508   3.532 -0.1743  0.5587  1.1066
  396MOL0     H53417   2.050   9.377   3.594  2.2761  0.6682  1.0137
  396MOL0     H53418   2.192   9.525   3.488 -0.1765 -1.7357  0.7268
  396MOL0     H53419   2.211   9.529   3.658  0.8695  2.9351  0.5337
  396MOL0     H53420   2.388   9.658   3.561  3.6151 -0.4628 -0.9128
  396MOL0     H53421   2.625   9.828   3.413  0.2132 -0.5801  0.3443
  396MOL0     H53422   2.649   9.883   3.587  0.7209 -3.3404  2.7368
  396MOL0     H53423   2.599   9.729   3.563  1.0748  1.4027  2.2774
  396MOL0     H53424   2.580  10.399   3.446  2.5197 -1.9630 -1.3636
  396MOL0     H53425   2.718  10.527   3.274 -1.3338  1.4778 -2.7253
  396MOL0     H53426   2.714  10.661   3.077 -0.4854 -0.1351  0.8282
  396MOL0     H53427   2.865  10.580   3.111 -1.4377 -1.8075  1.6417
  396MOL0     H53428   2.904  10.591   2.835 -1.6758  0.6040 -1.4744
  396MOL0     H53429   2.763  10.691   2.849  1.1059 -1.3802 -2.2916
  396MOL0     H53430   2.884  10.820   3.015  0.6543  1.0581 -0.2992
  396MOL0     H53431   2.956  10.830   2.844  0.8230 -0.6301 -0.8317
  396MOL0     H53432   3.082  10.664   3.065  0.2742 -1.2641 -0.3594
  396MOL0     H53433   3.121  10.673   2.904  1.2360  0.6077 -0.1847
  396MOL0     H53434   3.269  10.814   3.061 -1.2991 -0.0190  2.7278
  396MOL0     H53435   3.128  10.928   3.082 -1.8203 -0.7496  0.5199
  396MOL0     H53436   3.148  10.993   2.855 -0.0671 -0.1018  0.8094
  396MOL0     H53437   3.316  10.987   2.922  2.7203 -2.3178 -1.0127
  396MOL0     H53438   3.172  10.806   2.729 -1.2894  0.1469  3.4298
  396MOL0     H53439   3.329  10.761   2.776  0.3776  0.0061 -1.0444
  396MOL0     H53440   3.410  10.987   2.705 -0.7856 -0.1103  0.4037
  396MOL0     H53441   3.257  11.015   2.628  0.4200 -0.2220 -1.6858
  396MOL0     H53442   2.552  10.254   2.977  2.7530 -1.5011 -0.1911
  396MOL0     H53443   2.426  10.149   3.156 -1.6792 -0.8193  6.2160
  396MOL0     H53444   2.219  10.103   3.433 -2.2730 -2.4173 -3.9245
  396MOL0     H53445   2.076   9.927   3.509  0.2798  2.4285  2.5513
  396MOL0     H53446   2.902  10.180   4.417  0.3871  1.7680 -3.5940
  396MOL0     H53447   2.898  10.241   4.642 -2.4696 -0.1069  1.3869
  396MOL0     H53448   2.944  10.465   5.074 -0.5719  1.0026  0.5046
  396MOL0     H53449   2.863  10.517   5.282 -0.9928  4.5472  0.2283
  396MOL0     H53450   2.735  10.457   5.459  4.4006  2.3746 -2.3000
  396MOL0     H53451   2.771  10.610   5.454  1.4953 -2.6266 -1.1607
  396MOL0     H53452   2.504  10.624   5.554 -0.5484 -1.5630  0.0841
  396MOL0     H53453   2.646  10.652   5.654 -1.0107 -1.0163  0.5335
  396MOL0     H53454   2.535  10.457   5.761 -2.0901  2.2528 -1.0096
  396MOL0     H53455   2.656  10.382   5.663 -0.4920  0.6420 -1.4943
  396MOL0     H53456   2.465  10.260   5.662 -2.3532 -1.3144 -1.3037
  396MOL0     H53457   2.503  10.324   5.491  3.8262  0.5532  1.1221
  396MOL0     H53458   2.143  10.522   5.626  1.8036  2.2986  0.0144
  396MOL0     H53459   2.466  10.561   5.140  0.7452 -1.2490  3.3934
  396MOL0     H53460   2.550  10.504   4.906 -0.3478  1.4205  1.3334
  397MOL0     O53461   1.011   6.518   9.493  0.5635  0.0311  0.0804
  397MOL0     C53462   1.080   6.501   9.591  0.1866  0.0915  0.6067
  397MOL0     O53463   1.059   6.408   9.678  0.0148 -0.5019  0.2095
  397MOL0     C53464   0.934   6.349   9.696  0.5672 -0.2678  0.1221
  397MOL0     C53465   0.815   6.413   9.670  0.1155  0.5007  0.0056
  397MOL0     C53466   0.687   6.363   9.705  0.6884  0.5787  0.3045
  397MOL0     C53467   0.674   6.255   9.788  0.0000 -0.5582 -0.6134
  397MOL0     O53468   0.555   6.207   9.840 -0.7578  0.3269 -0.0910
  397MOL0     C53469   0.434   6.280   9.814  0.3893 -0.3050  0.2564
  397MOL0     C53470   0.326   6.210   9.894  0.6830  0.1226 -0.1020
  397MOL0     C53471   0.309   6.067   9.850 -0.0437  0.0084 -0.5165
  397MOL0     C53472   0.180   6.038   9.782  0.9305 -0.0511 -0.4705
  397MOL0     C53473   0.167   6.095   9.644  0.2242 -0.4542  0.3613
  397MOL0     C53474   0.279   6.044   9.550  0.1230 -0.2221  0.4570
  397MOL0     C53475   0.290   6.139   9.422  0.3465  0.4531  0.0783
  397MOL0     C53476   0.164   6.091   9.344 -0.1927 -0.2853  0.3799
  397MOL0     N53477   0.178   6.107   9.198 -0.6491 -0.0855  0.3425
  397MOL0     C53478   0.214   6.221   9.120 -0.2765 -0.5935  0.0388
  397MOL0     C53479   0.229   6.173   8.993  0.1409 -0.3553  0.6062
  397MOL0     C53480   0.285   6.249   8.876  0.0324  0.6225  0.0907
  397MOL0     C53481   0.440   6.250   8.875 -0.1054 -0.7418  0.4172
  397MOL0     C53482   0.496   6.111   8.859  0.7509  0.0481 -0.3439
  397MOL0     C53483   0.543   6.049   9.002  1.1050  0.3428 -0.7014
  397MOL0     O53484   0.555   5.902   9.006  0.0404 -0.1166  0.2389
  397MOL0     C53485   0.566   5.845   9.133  0.4194 -0.2652 -0.1116
  397MOL0     C53486   0.687   5.780   9.172  0.7498 -0.3094  0.0428
  397MOL0     C53487   0.701   5.718   9.290 -0.3798 -0.5825  0.6897
  397MOL0     C53488   0.841   5.656   9.321  0.4341  0.1766  0.6804
  397MOL0     C53489   0.587   5.711   9.380  1.2114  0.3106  0.0865
  397MOL0     C53490   0.587   5.623   9.493  0.5838 -0.4395  0.3907
  397MOL0     O53491   0.536   5.688   9.606 -0.0925  0.2885 -0.0856
  397MOL0     C53492   0.505   5.604   9.699  0.1282 -0.5235  0.0697
  397MOL0     C53493   0.368   5.569   9.710  0.2408  0.7866  0.2691
  397MOL0     C53494   0.333   5.477   9.815 -0.2751  0.5089  0.7344
  397MOL0     C53495   0.418   5.440   9.911 -0.0051 -0.2874  0.1935
  397MOL0     O53496   0.378   5.355  10.014 -0.0378 -0.2960  0.1618
  397MOL0     C53497   0.313   5.238   9.979  0.5448  0.1099 -0.3954
  397MOL0     C53498   0.392   5.134   9.907  0.1721 -0.2829 -1.1826
  397MOL0     C53499   0.344   4.990   9.924 -0.3371  0.2039 -0.1193
  397MOL0     C53500   0.453   4.888   9.883 -0.5290  0.4633 -0.4606
  397MOL0     C53501   0.475   4.891   9.733  0.1571  0.0618  0.9390
  397MOL0     C53502   0.584   4.806   9.683  0.3868  0.4489 -0.7405
  397MOL0     C53503   0.580   4.813   9.535  0.4639  0.1389  0.4792
  397MOL0     C53504   0.708   4.767   9.462 -0.0360 -0.7838 -1.0696
  397MOL0    Cl53505   0.723   4.593   9.465 -0.5945  0.2617  0.4419
  397MOL0     C53506   0.544   5.489   9.902  0.4987 -0.0640 -0.7890
  397MOL0     C53507   0.593   5.566   9.799  0.4639 -0.6194  0.0401
  397MOL0     O53508   0.647   5.522   9.483 -1.0239  0.8248  0.0061
  397MOL0     C53509   0.468   5.784   9.347  0.1052  0.1962  0.1402
  397MOL0     C53510   0.455   5.839   9.218  0.9459 -0.4037  0.5074
  397MOL0     N53511   0.191   6.043   8.988 -0.4036  0.3622  0.2822
  397MOL0     N53512   0.160   6.010   9.110  0.3029 -0.1032 -0.5818
  397MOL0     C53513   0.798   6.191   9.815  0.3226  0.6297 -0.1484
  397MOL0     C53514   0.926   6.235   9.771  1.3517  0.7565 -0.2365
  397MOL0     C53515   1.215   6.566   9.604  0.5912 -1.3299 -0.0409
  397MOL0     C53516   1.285   6.558   9.734  1.0986 -0.0209 -0.4173
  397MOL0     C53517   1.408   6.617   9.746 -0.5857 -0.1586 -0.5541
  397MOL0     C53518   1.458   6.691   9.647 -0.2424  0.2642  0.0079
  397MOL0     O53519   1.587   6.714   9.685 -0.0103  0.5309 -0.5788
  397MOL0     C53520   1.663   6.813   9.618  0.0840  0.0197 -1.0268
  397MOL0     C53521   1.813   6.791   9.652  0.0696  0.3419  0.5428
  397MOL0     C53522   1.897   6.921   9.648  0.6135 -0.6154  1.0429
  397MOL0     C53523   1.919   6.969   9.500 -0.2241 -0.0417 -0.6099
  397MOL0     C53524   2.014   7.080   9.492  0.0713  0.3852  0.3922
  397MOL0     C53525   2.085   7.170   9.497 -0.5793  0.4954 -0.1087
  397MOL0     C53526   1.399   6.696   9.522 -0.4076  0.1109 -0.2803
  397MOL0     C53527   1.275   6.639   9.491  0.5124 -0.2362  0.7259
  397MOL0     H53528   0.805   6.512   9.626 -1.2198  0.7427  0.7971
  397MOL0     H53529   0.603   6.430   9.687  0.2496  0.3502  1.4428
  397MOL0     H53530   0.445   6.385   9.843  2.6622 -0.7455  1.2304
  397MOL0     H53531   0.405   6.274   9.709  0.9100 -0.8047  0.1357
  397MOL0     H53532   0.357   6.218   9.998 -0.1453  0.9201  0.0944
  397MOL0     H53533   0.237   6.271   9.877 -0.1866 -1.0201  0.2457
  397MOL0     H53534   0.396   6.026   9.798  0.0794  2.5293 -2.4611
  397MOL0     H53535   0.305   6.017   9.948 -2.0571  0.4606 -0.3125
  397MOL0     H53536   0.162   5.932   9.760 -1.1607  0.9886 -5.0771
  397MOL0     H53537   0.092   6.073   9.836  2.6167 -0.1602  2.5340
  397MOL0     H53538   0.069   6.073   9.602 -0.0053 -0.6241  0.9903
  397MOL0     H53539   0.179   6.204   9.652 -0.7711 -0.4467  2.0161
  397MOL0     H53540   0.383   6.042   9.585  1.5501 -2.0568 -3.2720
  397MOL0     H53541   0.262   5.940   9.520  0.2737  0.0774 -0.7161
  397MOL0     H53542   0.300   6.241   9.461  0.5040 -0.6898  3.3478
  397MOL0     H53543   0.382   6.126   9.364  1.2281  0.2561  1.4667
  397MOL0     H53544   0.075   6.144   9.378 -0.2183 -1.1439  1.7201
  397MOL0     H53545   0.150   5.985   9.365  1.1187  0.0784  3.5625
  397MOL0     H53546   0.250   6.314   9.163 -0.6516  1.1885 -3.2305
  397MOL0     H53547   0.248   6.203   8.783  2.8692 -0.7323 -0.4672
  397MOL0     H53548   0.233   6.345   8.884 -0.3645  0.2453  2.8774
  397MOL0     H53549   0.474   6.294   8.969  0.3892 -2.4594  1.0887
  397MOL0     H53550   0.477   6.307   8.789  0.7737 -1.6097  0.2000
  397MOL0     H53551   0.579   6.098   8.788 -0.6204 -1.3384 -1.7811
  397MOL0     H53552   0.414   6.047   8.824  2.1406 -1.3603 -1.1281
  397MOL0     H53553   0.472   6.080   9.079 -0.9019 -1.2045 -1.8083
  397MOL0     H53554   0.633   6.104   9.029  0.7935  1.6293 -2.1047
  397MOL0     H53555   0.769   5.763   9.103 -0.5367  0.8363 -1.8487
  397MOL0     H53556   0.924   5.692   9.259 -0.1153 -2.0760 -1.5030
  397MOL0     H53557   0.874   5.695   9.418  1.0246  0.4321  0.3866
  397MOL0     H53558   0.834   5.547   9.322  2.3268  0.0028  2.0981
  397MOL0     H53559   0.295   5.607   9.640  0.0769 -0.4217 -0.2409
  397MOL0     H53560   0.235   5.437   9.839  0.4168  1.0130  5.1194
  397MOL0     H53561   0.281   5.188  10.071  0.6348 -0.9152 -0.9041
  397MOL0     H53562   0.218   5.249   9.925 -0.9495 -1.4308  1.7624
  397MOL0     H53563   0.381   5.141   9.799 -0.3565  0.1255 -1.1061
  397MOL0     H53564   0.486   5.158   9.957 -1.8692 -0.0850  3.0595
  397MOL0     H53565   0.253   4.959   9.873  1.3243 -0.2728 -3.0113
  397MOL0     H53566   0.320   4.972  10.029  1.5267 -1.0900  0.1509
  397MOL0     H53567   0.551   4.907   9.929  1.1299 -3.3944 -1.9048
  397MOL0     H53568   0.425   4.787   9.915  1.3014 -1.2584 -3.7636
  397MOL0     H53569   0.511   4.994   9.720  1.3067 -0.1638  2.1087
  397MOL0     H53570   0.380   4.877   9.681 -0.2497  0.9848  1.4008
  397MOL0     H53571   0.681   4.830   9.729  1.7048 -2.7080 -1.5802
  397MOL0     H53572   0.567   4.703   9.717 -0.2657  0.2564 -1.6379
  397MOL0     H53573   0.570   4.919   9.509  1.1962  0.5576  1.8196
  397MOL0     H53574   0.500   4.760   9.483  2.1903 -0.6728 -1.5054
  397MOL0     H53575   0.786   4.814   9.522 -2.5706  2.3082  0.0899
  397MOL0     H53576   0.705   4.795   9.357 -1.1235 -1.9284 -1.3774
  397MOL0     H53577   0.612   5.476   9.987  0.5304  1.2796 -0.5948
  397MOL0     H53578   0.687   5.621   9.798  1.0464 -1.3343  3.3092
  397MOL0     H53579   0.385   5.781   9.417 -0.8981 -1.0431 -1.0439
  397MOL0     H53580   0.360   5.878   9.183  0.5419  1.3667  3.2840
  397MOL0     H53581   0.800   6.106   9.883  0.5420  1.9463  1.5263
  397MOL0     H53582   1.011   6.175   9.803 -2.3294 -3.2353  3.2736
  397MOL0     H53583   1.233   6.505   9.813 -0.8250 -0.9708 -2.2346
  397MOL0     H53584   1.466   6.592   9.835 -1.3974  0.5321  0.1937
  397MOL0     H53585   1.648   6.820   9.510  2.1946  1.1429 -1.3063
  397MOL0     H53586   1.644   6.907   9.670 -0.3800 -1.4778  1.7427
  397MOL0     H53587   1.846   6.725   9.571  1.3919 -0.9354  2.0800
  397MOL0     H53588   1.830   6.742   9.748  0.8009 -0.4149  0.0433
  397MOL0     H53589   2.001   6.904   9.676  0.7428 -2.7536 -0.5538
  397MOL0     H53590   1.846   6.993   9.713  2.2617  4.0372 -2.2831
  397MOL0     H53591   1.825   7.005   9.456 -0.1244  0.1026 -0.7040
  397MOL0     H53592   1.969   6.888   9.445  2.0171  0.4758  0.5809
  397MOL0     H53593   2.138   7.263   9.503 -1.4820  1.3811 -3.7076
  397MOL0     H53594   1.443   6.758   9.445 -2.9980  4.1122  1.0761
  397MOL0     H53595   1.232   6.650   9.392 -0.8539  3.7731  1.5819
  398MOL0     O53596   0.272  10.281   0.795 -0.8097  0.9395  0.4062
  398MOL0     C53597   0.238  10.336   0.694 -0.8251 -0.1686  0.7560
  398MOL0     O53598   0.189  10.275   0.580 -0.4616 -0.2547 -1.4444
  398MOL0     C53599   0.153  10.148   0.590  0.3536  0.0258 -0.5733
  398MOL0     C53600   0.151  10.086   0.466  0.4838 -0.6842 -0.3180
  398MOL0     C53601   0.101   9.957   0.462  0.3702  0.6012 -0.3280
  398MOL0     C53602   0.054   9.883   0.571  0.6220 -0.1962  0.3966
  398MOL0     O53603  -0.002   9.760   0.545 -0.7117  0.0347  0.4055
  398MOL0     C53604  -0.113   9.744   0.459  0.2567 -0.3635 -0.0803
  398MOL0     C53605  -0.184   9.613   0.487  0.0959  0.0799  0.3953
  398MOL0     C53606  -0.319   9.608   0.413 -0.2066  0.3324  0.5909
  398MOL0     C53607  -0.432   9.666   0.495 -0.8415 -0.5388 -0.4771
  398MOL0     C53608  -0.572   9.667   0.425  1.8212 -0.5274 -0.9232
  398MOL0     C53609  -0.579   9.729   0.291 -0.1059 -0.4582 -0.2420
  398MOL0     C53610  -0.555   9.886   0.268  0.8318 -0.2286 -0.5549
  398MOL0     C53611  -0.675   9.945   0.198 -0.4544  0.0136  0.1258
  398MOL0     N53612  -0.663   9.938   0.053 -0.9470 -0.3313 -0.1172
  398MOL0     C53613  -0.640   9.825  -0.013 -0.5113  0.6200  0.3750
  398MOL0     C53614  -0.612   9.871  -0.145  1.0239  0.8044 -1.0209
  398MOL0     C53615  -0.593   9.789  -0.266 -0.5833  0.6394 -0.9175
  398MOL0     C53616  -0.436   9.770  -0.278  0.1101 -0.1469 -0.9611
  398MOL0     C53617  -0.420   9.675  -0.392  0.4073 -0.0677  0.0851
  398MOL0     C53618  -0.279   9.699  -0.447  0.5550 -0.0531 -0.1496
  398MOL0     O53619  -0.272   9.601  -0.557  0.9046  0.4761  0.5095
  398MOL0     C53620  -0.216   9.644  -0.674  0.2493  0.8332  0.0875
  398MOL0     C53621  -0.275   9.610  -0.793  0.0852  0.0151 -0.0590
  398MOL0     C53622  -0.226   9.635  -0.921  0.0490 -0.6547 -0.4163
  398MOL0     C53623  -0.319   9.632  -1.034  0.2395 -0.2371 -0.6763
  398MOL0     C53624  -0.100   9.688  -0.931 -0.1971  0.0744  0.1515
  398MOL0     C53625  -0.041   9.714  -1.064  0.1363  0.5790  0.1201
  398MOL0     O53626  -0.073   9.637  -1.171  0.2244  0.1259 -1.2280
  398MOL0     C53627  -0.017   9.660  -1.289  0.8304  0.3492  0.2030
  398MOL0     C53628  -0.111   9.724  -1.379 -0.5774 -0.2512  0.0506
  398MOL0     C53629  -0.078   9.731  -1.518 -0.0637  0.6282 -0.6347
  398MOL0     C53630   0.046   9.689  -1.567 -0.4947 -0.6542 -0.3646
  398MOL0     O53631   0.074   9.690  -1.702 -0.3784 -0.1360 -0.6586
  398MOL0     C53632   0.212   9.657  -1.759  0.3478  0.5758 -0.8844
  398MOL0     C53633   0.210   9.679  -1.910 -1.1673 -0.0004  0.4251
  398MOL0     C53634   0.120   9.584  -1.994 -0.0576 -0.1236  0.0565
  398MOL0     C53635   0.093   9.642  -2.128 -0.2730  0.2985  0.6825
  398MOL0     C53636   0.024   9.527  -2.218  0.2243 -0.8031  0.2967
  398MOL0     C53637  -0.071   9.587  -2.324 -0.3842 -0.7727  0.4045
  398MOL0     C53638  -0.135   9.483  -2.406 -0.2905 -0.4678  0.6811
  398MOL0     C53639  -0.240   9.549  -2.501 -0.1861 -0.0274 -0.4150
  398MOL0    Cl53640  -0.172   9.590  -2.657  0.1717  0.6846 -0.5026
  398MOL0     C53641   0.138   9.641  -1.475 -0.2125  0.2935 -0.3364
  398MOL0     C53642   0.107   9.625  -1.340  0.1549  0.5680 -0.5231
  398MOL0     O53643   0.037   9.810  -1.070 -0.0007  0.3953  0.0575
  398MOL0     C53644  -0.025   9.704  -0.812 -0.8500 -0.5233 -0.3521
  398MOL0     C53645  -0.079   9.678  -0.688 -0.4764 -1.1804 -0.7513
  398MOL0     N53646  -0.644  10.008  -0.149 -0.8326 -0.1182 -0.8566
  398MOL0     N53647  -0.671  10.048  -0.028  0.0026  0.1029  0.2985
  398MOL0     C53648   0.067   9.938   0.699  0.7931  0.3157 -0.1595
  398MOL0     C53649   0.119  10.071   0.711  0.2062  0.9970 -0.4419
  398MOL0     C53650   0.265  10.476   0.679 -0.1934  0.7918 -0.6249
  398MOL0     C53651   0.169  10.558   0.621 -0.3386  0.3623  0.7930
  398MOL0     C53652   0.166  10.698   0.633  1.2100  0.4058  0.3287
  398MOL0     C53653   0.260  10.763   0.710  0.2914  0.0889 -0.5918
  398MOL0     O53654   0.268  10.891   0.750  0.0531  0.2421  0.0186
  398MOL0     C53655   0.185  10.991   0.688  0.0288  0.0813  0.3146
  398MOL0     C53656   0.278  11.083   0.600 -0.6205 -0.8763  0.1707
  398MOL0     C53657   0.388  11.163   0.662 -0.5291 -0.0036  1.1045
  398MOL0     C53658   0.446  11.256   0.561  0.7909  0.3875  0.0171
  398MOL0     C53659   0.547  11.338   0.621  0.3056  0.1156 -0.4592
  398MOL0     C53660   0.630  11.405   0.680  0.0516  0.2402  0.0229
  398MOL0     C53661   0.362  10.687   0.766  1.1203 -0.3639 -0.7900
  398MOL0     C53662   0.358  10.547   0.755  0.8569 -0.3788 -0.4043
  398MOL0     H53663   0.189  10.132   0.375  1.5114 -2.4474 -0.8376
  398MOL0     H53664   0.093   9.901   0.369  0.5312  2.9816 -1.8788
  398MOL0     H53665  -0.190   9.821   0.470 -0.9225 -1.6941  1.6024
  398MOL0     H53666  -0.085   9.750   0.354  1.0522 -3.0097 -0.0860
  398MOL0     H53667  -0.123   9.532   0.445  0.2230 -1.0450  2.6387
  398MOL0     H53668  -0.203   9.592   0.592 -0.4667 -1.9435 -0.0629
  398MOL0     H53669  -0.309   9.652   0.313  0.3458  1.9951  1.3443
  398MOL0     H53670  -0.346   9.502   0.404 -2.4512  0.8109  1.0076
  398MOL0     H53671  -0.436   9.617   0.593 -1.8128  1.2368  0.4260
  398MOL0     H53672  -0.398   9.770   0.500  0.3539 -0.8597 -1.5132
  398MOL0     H53673  -0.597   9.561   0.408  2.8592 -0.5247 -2.7184
  398MOL0     H53674  -0.651   9.708   0.488  1.7439 -2.3914  0.2821
  398MOL0     H53675  -0.509   9.681   0.222  0.9761 -0.1948  0.6532
  398MOL0     H53676  -0.681   9.705   0.258  0.1366  0.8777 -2.1990
  398MOL0     H53677  -0.550   9.932   0.367 -3.0554 -3.5037  1.4623
  398MOL0     H53678  -0.469   9.891   0.200  0.5083 -0.5133 -0.9914
  398MOL0     H53679  -0.676  10.052   0.219  1.0315  0.6014 -2.4207
  398MOL0     H53680  -0.769   9.900   0.231 -0.9127  0.2371 -0.8350
  398MOL0     H53681  -0.643   9.721   0.018 -0.3980 -0.0948 -1.8522
  398MOL0     H53682  -0.643   9.694  -0.247  0.6388  0.8294  4.7527
  398MOL0     H53683  -0.634   9.847  -0.350  2.8895  0.5721 -2.8455
  398MOL0     H53684  -0.390   9.716  -0.195 -4.4614 -2.2637  0.5088
  398MOL0     H53685  -0.377   9.858  -0.304 -2.1387  1.3920 -1.1774
  398MOL0     H53686  -0.500   9.694  -0.463 -1.2507  2.4678  2.4263
  398MOL0     H53687  -0.439   9.569  -0.373  4.8153 -1.1382 -0.3642
  398MOL0     H53688  -0.199   9.687  -0.374  0.6480 -1.5586 -0.4737
  398MOL0     H53689  -0.276   9.800  -0.489  0.1224 -0.5383 -1.3864
  398MOL0     H53690  -0.374   9.564  -0.790 -0.1631  0.2874 -2.1559
  398MOL0     H53691  -0.420   9.633  -0.992 -0.2493  3.5650 -1.5550
  398MOL0     H53692  -0.305   9.711  -1.108  4.2161 -0.0048  0.1141
  398MOL0     H53693  -0.307   9.533  -1.079 -0.9965 -1.0524  0.7029
  398MOL0     H53694  -0.214   9.749  -1.355 -0.3720 -0.7211  1.4965
  398MOL0     H53695  -0.152   9.764  -1.591  1.1791 -0.3351 -2.3870
  398MOL0     H53696   0.295   9.713  -1.714 -0.2823 -0.3707  1.6001
  398MOL0     H53697   0.230   9.550  -1.743  0.6760  0.2056 -3.3086
  398MOL0     H53698   0.179   9.784  -1.923  1.5798  0.9255  0.8025
  398MOL0     H53699   0.313   9.682  -1.947 -1.4638 -1.2388 -0.5736
  398MOL0     H53700   0.025   9.566  -1.944 -0.4681 -3.3547 -1.6849
  398MOL0     H53701   0.171   9.488  -2.006  1.1849  0.5314 -0.1886
  398MOL0     H53702   0.023   9.726  -2.132 -2.6338 -1.4823  2.0335
  398MOL0     H53703   0.179   9.681  -2.184 -0.2461  0.0437  0.5453
  398MOL0     H53704  -0.045   9.462  -2.163 -3.8169  2.6735 -0.1797
  398MOL0     H53705   0.101   9.465  -2.266 -0.3882  0.0991 -1.9919
  398MOL0     H53706  -0.154   9.643  -2.281 -1.9975 -1.8558 -1.1724
  398MOL0     H53707  -0.005   9.644  -2.391 -2.3776 -1.7293 -2.5578
  398MOL0     H53708  -0.173   9.401  -2.344 -0.6807  0.5700  1.8661
  398MOL0     H53709  -0.052   9.438  -2.461  1.5607  3.4337 -0.0223
  398MOL0     H53710  -0.289   9.636  -2.456 -1.2785 -0.7537 -0.1598
  398MOL0     H53711  -0.315   9.479  -2.539 -2.2377  0.9297  1.6244
  398MOL0     H53712   0.236   9.615  -1.513 -0.5898  0.0979 -1.1917
  398MOL0     H53713   0.172   9.567  -1.275  1.7215  0.4575 -2.1372
  398MOL0     H53714   0.076   9.744  -0.813 -0.5651 -1.2410 -0.7087
  398MOL0     H53715  -0.009   9.690  -0.606  0.6739  1.4132 -1.9901
  398MOL0     H53716   0.036   9.874   0.781 -2.3780  0.7309 -0.8942
  398MOL0     H53717   0.118  10.107   0.813  0.3684  0.5685 -0.2842
  398MOL0     H53718   0.077  10.519   0.579 -2.2035  1.5494  3.5085
  398MOL0     H53719   0.091  10.760   0.585  0.2150 -0.3267  0.8900
  398MOL0     H53720   0.122  10.936   0.618  1.3500 -2.0923  0.7344
  398MOL0     H53721   0.120  11.041   0.760 -2.7339 -1.1278 -1.1873
  398MOL0     H53722   0.218  11.149   0.536 -1.2440 -3.6995 -2.3395
  398MOL0     H53723   0.332  11.018   0.531  5.6907  2.0529  1.5749
  398MOL0     H53724   0.461  11.098   0.711  2.3044 -1.7876 -4.6029
  398MOL0     H53725   0.355  11.226   0.746 -0.8470  1.3600 -0.0012
  398MOL0     H53726   0.368  11.327   0.530  0.9449  0.9995  0.9748
  398MOL0     H53727   0.491  11.204   0.476  0.4069 -2.6644  1.5613
  398MOL0     H53728   0.708  11.465   0.722  0.4764 -0.3376  0.0689
  398MOL0     H53729   0.428  10.743   0.832  0.6654 -0.8757  0.1093
  398MOL0     H53730   0.420  10.488   0.821  0.0213 -1.3654 -0.4643
  399MOL0     O53731   9.029   8.032   2.662 -0.4367 -0.0088  0.6998
  399MOL0     C53732   9.040   8.108   2.558 -0.5693 -0.5974 -0.0437
  399MOL0     O53733   9.106   8.234   2.552 -0.2610  1.1503  0.2147
  399MOL0     C53734   9.144   8.286   2.674  0.0543  0.0580  0.4131
  399MOL0     C53735   9.257   8.377   2.669  0.3090  0.6431 -0.0273
  399MOL0     C53736   9.303   8.429   2.792 -0.2623 -1.4911 -0.3754
  399MOL0     C53737   9.247   8.393   2.919 -0.4162  0.3410  0.0221
  399MOL0     O53738   9.312   8.440   3.031 -0.0692 -0.4679 -0.0139
  399MOL0     C53739   9.433   8.386   3.076  0.8392 -0.1535  0.5265
  399MOL0     C53740   9.553   8.466   3.015  0.2660  0.1734  0.2704
  399MOL0     C53741   9.530   8.612   3.017 -0.1135 -0.4824  0.8562
  399MOL0     C53742   9.643   8.691   2.942  0.0455  0.9048  0.5701
  399MOL0     C53743   9.617   8.695   2.788 -0.0464 -0.1466  0.5832
  399MOL0     C53744   9.733   8.764   2.713  0.0441  0.1841  0.1306
  399MOL0     C53745   9.752   8.915   2.745 -0.6222 -0.6324  0.0547
  399MOL0     C53746   9.821   8.976   2.630 -0.3833 -0.4413 -0.2594
  399MOL0     N53747   9.963   8.936   2.604  0.7493 -1.0633  0.8779
  399MOL0     C53748  10.057   8.898   2.697  0.4539  0.8762  0.3659
  399MOL0     C53749  10.177   8.886   2.648 -0.1090  0.4055  0.0222
  399MOL0     C53750  10.304   8.834   2.709  0.5223  0.6930 -0.0782
  399MOL0     C53751  10.356   8.719   2.634 -0.0010 -0.4204 -0.3938
  399MOL0     C53752  10.264   8.600   2.630  0.3820  0.2234 -1.0067
  399MOL0     C53753  10.176   8.586   2.498  0.0246 -0.2617  0.1018
  399MOL0     O53754  10.217   8.455   2.445 -1.0150 -0.0815 -0.3791
  399MOL0     C53755  10.130   8.405   2.355 -0.0955  0.1655  0.3175
  399MOL0     C53756  10.069   8.490   2.256 -0.2397 -0.2311 -0.6702
  399MOL0     C53757   9.970   8.422   2.180 -0.2530  0.2855  0.7448
  399MOL0     C53758   9.885   8.519   2.094 -0.4918 -0.1850  0.7296
  399MOL0     C53759   9.949   8.285   2.181  0.1325  0.4069 -0.4236
  399MOL0     C53760   9.833   8.217   2.102 -0.7140 -0.2748  0.5855
  399MOL0     O53761   9.790   8.100   2.155  0.7136 -0.5044 -0.6367
  399MOL0     C53762   9.746   7.991   2.076 -0.1449 -0.0657 -0.1501
  399MOL0     C53763   9.789   7.870   2.135 -0.4477  0.1695  0.3786
  399MOL0     C53764   9.752   7.746   2.076 -0.7977  0.7386  0.1216
  399MOL0     C53765   9.674   7.743   1.962  0.0985 -0.7349  0.5129
  399MOL0     O53766   9.652   7.616   1.918  0.3529  0.5639  0.3286
  399MOL0     C53767   9.619   7.597   1.772  0.5661  0.1674  0.0421
  399MOL0     C53768   9.654   7.459   1.714 -0.2056 -0.7711 -0.5695
  399MOL0     C53769   9.655   7.451   1.559  0.0111 -0.3096  0.0431
  399MOL0     C53770   9.703   7.316   1.499 -0.3109 -0.2343  0.2201
  399MOL0     C53771   9.832   7.347   1.424  0.6429  0.4122 -0.5165
  399MOL0     C53772   9.947   7.382   1.513  0.5575 -0.1430  0.3207
  399MOL0     C53773  10.084   7.405   1.452  0.4202  0.5092 -0.5400
  399MOL0     C53774  10.128   7.280   1.393  0.1118 -0.7172  0.5586
  399MOL0    Cl53775  10.299   7.289   1.350 -0.5975 -0.3821 -0.1706
  399MOL0     C53776   9.626   7.864   1.907  0.9039  0.3412  0.2425
  399MOL0     C53777   9.663   7.982   1.964  1.2103  0.0838 -0.2253
  399MOL0     O53778   9.801   8.267   1.997 -0.9574  0.0045 -0.4522
  399MOL0     C53779  10.033   8.207   2.265 -0.9309 -0.9736  0.3313
  399MOL0     C53780  10.132   8.270   2.346 -0.2903  0.0285 -0.5449
  399MOL0     N53781  10.167   8.926   2.519 -0.5869 -0.4549 -0.1041
  399MOL0     N53782  10.037   8.954   2.491 -1.0584  0.3987 -0.8974
  399MOL0     C53783   9.128   8.311   2.919 -0.9281  0.5267 -0.6128
  399MOL0     C53784   9.078   8.261   2.801 -0.2455  0.8003  0.7380
  399MOL0     C53785   8.976   8.065   2.430  0.2640  0.2055  0.2545
  399MOL0     C53786   8.915   7.940   2.427 -0.2352 -0.4503 -0.1856
  399MOL0     C53787   8.857   7.897   2.307  0.2891 -0.0558 -0.8988
  399MOL0     C53788   8.850   7.983   2.201 -0.1689 -0.1947  0.8620
  399MOL0     O53789   8.774   7.935   2.094  0.1136  0.5370 -0.0509
  399MOL0     C53790   8.781   8.001   1.962  0.5533 -0.7624 -0.0538
  399MOL0     C53791   8.680   8.113   1.973  0.5572 -0.7417 -0.0932
  399MOL0     C53792   8.533   8.061   2.019 -0.9128 -0.3585  0.2101
  399MOL0     C53793   8.474   7.989   1.897 -0.1401  1.1027 -0.3909
  399MOL0     C53794   8.354   7.915   1.939  0.3813 -0.3545 -0.1744
  399MOL0     C53795   8.261   7.847   1.981 -0.0889 -0.6695  1.3545
  399MOL0     C53796   8.908   8.109   2.201 -0.4690 -0.6740 -1.3747
  399MOL0     C53797   8.967   8.152   2.320 -0.1096 -0.4478  0.2554
  399MOL0     H53798   9.292   8.409   2.571  1.3117 -0.2493  0.0215
  399MOL0     H53799   9.385   8.500   2.787 -2.5981  1.3189 -3.8650
  399MOL0     H53800   9.427   8.417   3.181 -3.0157 -1.9422  0.9987
  399MOL0     H53801   9.437   8.277   3.066 -0.7948 -0.0899 -1.2890
  399MOL0     H53802   9.628   8.434   3.088 -0.5853 -2.3937  0.1426
  399MOL0     H53803   9.585   8.423   2.919  1.1151  1.3161  0.0164
  399MOL0     H53804   9.436   8.636   2.966 -0.5880 -1.2505  1.3459
  399MOL0     H53805   9.516   8.640   3.122 -2.3686  4.8497 -0.5566
  399MOL0     H53806   9.635   8.796   2.970 -0.7772  0.8788  0.4426
  399MOL0     H53807   9.747   8.659   2.955 -0.7157 -2.4012 -0.4277
  399MOL0     H53808   9.617   8.591   2.754 -0.1144  0.2451 -0.6323
  399MOL0     H53809   9.519   8.741   2.774  1.3825  2.9111 -0.0406
  399MOL0     H53810   9.828   8.713   2.735 -0.0512  0.1420  0.4478
  399MOL0     H53811   9.716   8.737   2.608  1.3865 -1.8993  0.3765
  399MOL0     H53812   9.658   8.970   2.755 -0.0383  0.0955  1.9534
  399MOL0     H53813   9.796   8.930   2.844 -2.3153 -1.4836  0.9664
  399MOL0     H53814   9.830   9.085   2.638  3.3147 -0.4438 -2.5482
  399MOL0     H53815   9.764   8.950   2.540 -1.8087 -2.1810  1.0600
  399MOL0     H53816  10.027   8.847   2.788 -2.9299 -1.4672 -1.8214
  399MOL0     H53817  10.380   8.912   2.712  1.8444 -0.4897 -1.5106
  399MOL0     H53818  10.298   8.809   2.815  0.9850  0.8283 -0.0182
  399MOL0     H53819  10.448   8.692   2.687 -0.1670 -2.1644 -0.9110
  399MOL0     H53820  10.382   8.745   2.531 -0.9910 -2.3338 -1.1828
  399MOL0     H53821  10.199   8.608   2.718 -0.2076  2.0327 -1.5608
  399MOL0     H53822  10.323   8.509   2.642  0.0113 -0.6449 -4.5998
  399MOL0     H53823  10.193   8.664   2.424 -0.7063 -1.3384 -1.2549
  399MOL0     H53824  10.070   8.604   2.521 -0.4217  0.0448 -1.9748
  399MOL0     H53825  10.098   8.594   2.259 -1.1032  0.0281  2.8615
  399MOL0     H53826   9.781   8.488   2.106 -0.3021 -2.5078 -2.5467
  399MOL0     H53827   9.907   8.621   2.129 -0.8162  0.5833 -1.2042
  399MOL0     H53828   9.913   8.503   1.990 -1.8747 -3.0756  0.7231
  399MOL0     H53829   9.839   7.874   2.231  3.1155  3.0369 -1.3351
  399MOL0     H53830   9.793   7.652   2.111 -1.9527 -0.0465 -0.5562
  399MOL0     H53831   9.515   7.620   1.751  0.6709 -0.5112 -1.2983
  399MOL0     H53832   9.680   7.667   1.714  1.1833  0.3437  0.8748
  399MOL0     H53833   9.750   7.425   1.753  3.1190  4.5628 -2.9004
  399MOL0     H53834   9.571   7.398   1.751  1.5225 -0.7120  4.0496
  399MOL0     H53835   9.709   7.542   1.530 -1.3063 -0.1060 -1.9672
  399MOL0     H53836   9.557   7.482   1.523 -0.2481  0.9423  1.7035
  399MOL0     H53837   9.722   7.248   1.582 -0.8411  0.0313  0.5658
  399MOL0     H53838   9.642   7.263   1.424  0.7875 -1.4884  0.1807
  399MOL0     H53839   9.807   7.428   1.354  2.1735  1.4192  0.0416
  399MOL0     H53840   9.858   7.255   1.372  4.5748  0.7140  0.5720
  399MOL0     H53841   9.909   7.475   1.557 -2.4863 -1.5060  0.8203
  399MOL0     H53842   9.952   7.309   1.595 -2.3328 -0.2863  0.4759
  399MOL0     H53843  10.147   7.437   1.536 -1.1862  2.1984  0.0863
  399MOL0     H53844  10.076   7.490   1.383  0.7514  0.1294 -1.0550
  399MOL0     H53845  10.063   7.251   1.310 -1.9089  0.5253  1.6498
  399MOL0     H53846  10.132   7.203   1.471 -1.3337 -2.2781 -0.8088
  399MOL0     H53847   9.559   7.868   1.822  1.0515  1.6827  0.1667
  399MOL0     H53848   9.621   8.074   1.924 -4.4552 -0.3773  3.4352
  399MOL0     H53849  10.009   8.101   2.271 -0.8777 -0.9904  0.2620
  399MOL0     H53850  10.190   8.203   2.408 -1.2454  1.2388  1.7605
  399MOL0     H53851   9.079   8.288   3.013  3.2269  0.3592  1.7556
  399MOL0     H53852   8.994   8.193   2.808  0.2462 -0.0527 -1.1983
  399MOL0     H53853   8.903   7.894   2.525  2.5676 -0.9844  0.0131
  399MOL0     H53854   8.807   7.801   2.303 -0.7664  0.3616  1.0264
  399MOL0     H53855   8.873   8.057   1.941 -1.0418  1.4469 -1.6106
  399MOL0     H53856   8.765   7.932   1.879 -1.5552 -1.4804  0.8864
  399MOL0     H53857   8.663   8.160   1.876 -0.8833  0.6010  0.7555
  399MOL0     H53858   8.709   8.197   2.037 -0.6767  1.2357 -1.9748
  399MOL0     H53859   8.473   8.146   2.053  0.4152  0.6259  0.1550
  399MOL0     H53860   8.541   7.995   2.106 -0.7495  0.4707  0.8353
  399MOL0     H53861   8.549   7.916   1.866  1.2059  1.5367  1.6535
  399MOL0     H53862   8.450   8.050   1.810  0.9608  1.7955 -0.2267
  399MOL0     H53863   8.178   7.792   2.019 -0.6137 -2.8258 -2.4083
  399MOL0     H53864   8.896   8.176   2.116 -3.0606  2.0803  0.8953
  399MOL0     H53865   8.994   8.257   2.323 -0.1856 -0.4428  0.7825
  400MOL0     O53866   6.730   5.121   0.974  0.0302  1.0218  0.3069
  400MOL0     C53867   6.664   5.222   0.997  0.4904 -0.6233  1.0581
  400MOL0     O53868   6.691   5.343   0.954  0.2982  0.0691 -0.0074
  400MOL0     C53869   6.811   5.380   0.905  0.2852  0.1929  0.6864
  400MOL0     C53870   6.937   5.313   0.925 -1.3162 -0.2785  0.7326
  400MOL0     C53871   7.047   5.361   0.849 -0.2422 -1.0356 -0.0184
  400MOL0     C53872   7.042   5.476   0.774  0.1798  0.1258 -0.6613
  400MOL0     O53873   7.160   5.528   0.718  0.2997 -0.1947  0.3201
  400MOL0     C53874   7.249   5.432   0.656  0.3089  0.7055  0.7842
  400MOL0     C53875   7.378   5.514   0.618 -0.1867 -0.2808 -0.5584
  400MOL0     C53876   7.446   5.587   0.735 -0.3638 -0.2611 -0.8165
  400MOL0     C53877   7.586   5.635   0.684  1.1074  0.0426 -0.8157
  400MOL0     C53878   7.668   5.716   0.785 -0.6292 -0.7412  0.4249
  400MOL0     C53879   7.723   5.632   0.899  0.7722  0.1506  0.5745
  400MOL0     C53880   7.838   5.699   0.970  0.2153 -0.6527 -0.5622
  400MOL0     C53881   7.955   5.680   0.882  0.1523  0.3770  0.2007
  400MOL0     N53882   8.077   5.696   0.967 -0.2249 -0.3818  0.4560
  400MOL0     C53883   8.115   5.812   1.029 -0.2238 -0.5820 -0.1962
  400MOL0     C53884   8.192   5.780   1.137 -0.4082  0.3501 -0.5601
  400MOL0     C53885   8.254   5.871   1.250  0.1807  0.2595 -0.4636
  400MOL0     C53886   8.321   5.987   1.183  0.1001 -0.4465 -0.3300
  400MOL0     C53887   8.399   6.074   1.284 -0.0029 -0.4276  0.9036
  400MOL0     C53888   8.444   6.211   1.242 -0.1440  0.3878 -0.5888
  400MOL0     O53889   8.505   6.278   1.353 -0.2206 -0.8369  0.5370
  400MOL0     C53890   8.430   6.362   1.438  0.2741  0.2173  0.0448
  400MOL0     C53891   8.297   6.408   1.399 -0.9702  0.8304  0.0303
  400MOL0     C53892   8.228   6.507   1.479  0.0320  0.0838  0.4280
  400MOL0     C53893   8.100   6.551   1.421  0.0698 -0.0842 -0.0300
  400MOL0     C53894   8.284   6.549   1.605 -0.1119 -0.0430 -1.0028
  400MOL0     C53895   8.209   6.633   1.692  0.4075 -0.7274 -0.0882
  400MOL0     O53896   8.182   6.759   1.652  1.1124 -0.8282 -0.0665
  400MOL0     C53897   8.086   6.842   1.707 -0.7025 -0.0899 -0.2099
  400MOL0     C53898   7.970   6.785   1.760 -0.7563  1.0546 -0.1750
  400MOL0     C53899   7.868   6.857   1.817  0.4209 -0.1932 -0.4854
  400MOL0     C53900   7.876   7.000   1.802 -0.2627 -0.9814  1.2913
  400MOL0     O53901   7.773   7.075   1.851 -1.1723  0.1822 -0.4956
  400MOL0     C53902   7.643   7.038   1.812 -0.4477 -0.0601  0.3640
  400MOL0     C53903   7.547   7.131   1.874 -0.7255  1.8829 -0.5741
  400MOL0     C53904   7.556   7.272   1.818  0.3286 -0.1789 -0.7112
  400MOL0     C53905   7.421   7.344   1.827 -1.2896 -0.1324 -0.0273
  400MOL0     C53906   7.347   7.345   1.964 -0.2541 -0.0823  0.1476
  400MOL0     C53907   7.312   7.489   1.984 -0.6896  0.2767  0.4286
  400MOL0     C53908   7.194   7.488   2.082  0.3054 -1.0209 -0.8493
  400MOL0     C53909   7.209   7.444   2.224  0.0142 -0.6007 -0.5346
  400MOL0    Cl53910   7.055   7.397   2.312 -0.3888  0.1395  0.0039
  400MOL0     C53911   7.979   7.056   1.736  0.5094 -0.2658 -0.0588
  400MOL0     C53912   8.086   6.982   1.685 -0.8693 -0.1328 -0.1443
  400MOL0     O53913   8.194   6.590   1.803 -0.1855  0.7410 -0.8285
  400MOL0     C53914   8.407   6.496   1.642  0.2980 -1.2014 -0.0102
  400MOL0     C53915   8.482   6.414   1.556  0.7298 -0.5827 -0.3351
  400MOL0     N53916   8.189   5.644   1.151  0.6584 -1.5867 -0.2198
  400MOL0     N53917   8.122   5.598   1.047 -0.2164  1.0701 -0.0069
  400MOL0     C53918   6.931   5.552   0.778  0.0250  0.5188  0.0106
  400MOL0     C53919   6.812   5.508   0.837  0.1592  0.3469 -0.2501
  400MOL0     C53920   6.524   5.205   1.061 -0.0097  0.1183  1.5478
  400MOL0     C53921   6.496   5.086   1.128 -0.3397 -0.2844  1.5891
  400MOL0     C53922   6.370   5.064   1.178  0.3541 -0.5731  0.2410
  400MOL0     C53923   6.263   5.160   1.156  0.5868 -0.4783  0.2157
  400MOL0     O53924   6.136   5.158   1.205  0.0837 -0.2557  0.1714
  400MOL0     C53925   6.112   5.090   1.321 -0.1151  0.3696 -0.6864
  400MOL0     C53926   6.177   5.150   1.453 -0.6130  0.7394  1.1893
  400MOL0     C53927   6.125   5.296   1.482 -0.0377  1.6234  0.3380
  400MOL0     C53928   6.154   5.331   1.626  0.3102 -0.7216 -1.2781
  400MOL0     C53929   6.084   5.243   1.720  1.0421  0.1539 -0.1764
  400MOL0     C53930   6.009   5.167   1.783  0.3402 -0.1656  0.0914
  400MOL0     C53931   6.285   5.267   1.070  0.6794 -0.2265 -0.5747
  400MOL0     C53932   6.417   5.291   1.022  0.2685 -0.0427 -0.3010
  400MOL0     H53933   6.946   5.224   0.987  0.4477  0.3302  1.4215
  400MOL0     H53934   7.137   5.301   0.863  0.3720  0.4675  3.5797
  400MOL0     H53935   7.280   5.359   0.731 -1.9072 -2.4992 -1.1733
  400MOL0     H53936   7.199   5.400   0.564  0.9586  1.7348  0.0454
  400MOL0     H53937   7.459   5.455   0.574 -0.1751  1.2114 -2.6550
  400MOL0     H53938   7.347   5.588   0.544 -1.3656 -1.2215 -1.0362
  400MOL0     H53939   7.378   5.669   0.761 -2.4053 -2.1618  0.1435
  400MOL0     H53940   7.442   5.524   0.823  3.0322  1.0611  0.4573
  400MOL0     H53941   7.635   5.539   0.664 -0.8320 -1.5845  1.6420
  400MOL0     H53942   7.566   5.682   0.587 -2.7613 -0.6338 -0.5146
  400MOL0     H53943   7.740   5.775   0.728 -0.5394 -1.5425 -0.3178
  400MOL0     H53944   7.608   5.797   0.829 -0.6210  1.2427 -2.9444
  400MOL0     H53945   7.641   5.614   0.970 -1.0181 -0.9673 -1.6518
  400MOL0     H53946   7.772   5.548   0.849  0.4695  0.9621 -1.1630
  400MOL0     H53947   7.814   5.803   0.995 -3.4258 -1.1774 -1.3676
  400MOL0     H53948   7.845   5.647   1.065 -1.1313  3.1442  1.8737
  400MOL0     H53949   7.953   5.748   0.797  1.5273  0.8703  0.5353
  400MOL0     H53950   7.968   5.579   0.842  3.3546 -0.6222  3.2414
  400MOL0     H53951   8.105   5.913   0.992 -0.0448 -0.4235  0.1768
  400MOL0     H53952   8.180   5.909   1.321 -1.2195 -1.0972 -1.1588
  400MOL0     H53953   8.329   5.807   1.297 -1.1396 -1.5388 -0.7022
  400MOL0     H53954   8.259   6.051   1.119 -0.0423 -0.6802 -0.4258
  400MOL0     H53955   8.394   5.942   1.116  1.7765  1.7296 -0.0951
  400MOL0     H53956   8.494   6.024   1.308  0.3885 -0.4953 -0.7189
  400MOL0     H53957   8.342   6.080   1.378 -1.0415  3.0593  0.1736
  400MOL0     H53958   8.370   6.272   1.190  0.8847  1.0769 -1.2817
  400MOL0     H53959   8.518   6.192   1.164  2.9897 -1.0427  2.4787
  400MOL0     H53960   8.252   6.373   1.307  2.5352  0.6477 -1.7656
  400MOL0     H53961   8.061   6.482   1.346 -1.2138 -3.4724  3.4698
  400MOL0     H53962   8.033   6.561   1.506 -0.9042  0.2776 -0.8229
  400MOL0     H53963   8.107   6.649   1.372  2.6320 -0.0840  0.1927
  400MOL0     H53964   7.945   6.680   1.771  2.4087  0.0409 -1.5841
  400MOL0     H53965   7.804   6.792   1.874  2.2548 -2.7971 -1.2045
  400MOL0     H53966   7.652   7.060   1.705  3.7912  0.0510  0.5589
  400MOL0     H53967   7.603   6.940   1.840 -4.2974  1.9549  2.8193
  400MOL0     H53968   7.442   7.103   1.858 -1.2363  2.2369  1.7973
  400MOL0     H53969   7.556   7.119   1.982 -1.0395 -0.7579 -0.7668
  400MOL0     H53970   7.579   7.261   1.711 -1.5362 -3.4131 -0.8996
  400MOL0     H53971   7.635   7.324   1.874  1.2348  1.1426 -3.0675
  400MOL0     H53972   7.448   7.448   1.806 -5.3033  0.6215 -2.4016
  400MOL0     H53973   7.367   7.310   1.738 -1.9736  0.0815  0.3016
  400MOL0     H53974   7.413   7.302   2.040 -0.3880 -2.2814 -0.8882
  400MOL0     H53975   7.255   7.286   1.957  0.0916 -0.7029  0.7042
  400MOL0     H53976   7.395   7.553   2.016  1.5391 -2.9672  1.6708
  400MOL0     H53977   7.273   7.528   1.890  0.1259 -3.0153 -1.4271
  400MOL0     H53978   7.123   7.417   2.040 -0.5938 -0.9885  0.5292
  400MOL0     H53979   7.147   7.587   2.085  1.2007 -0.6066  1.6007
  400MOL0     H53980   7.252   7.530   2.276 -3.3190 -0.4586  2.3256
  400MOL0     H53981   7.276   7.358   2.234 -2.0878 -2.2986 -0.4704
  400MOL0     H53982   7.972   7.164   1.727 -0.8374 -0.1975  1.3001
  400MOL0     H53983   8.168   7.009   1.619 -0.8258  1.3013  0.4585
  400MOL0     H53984   8.459   6.530   1.731 -2.1019  1.1529  0.6013
  400MOL0     H53985   8.584   6.378   1.569  1.3934  1.2302 -0.2245
  400MOL0     H53986   6.929   5.641   0.715 -2.7508 -0.0904 -0.9167
  400MOL0     H53987   6.722   5.564   0.814 -0.3069 -0.1959  0.2422
  400MOL0     H53988   6.572   5.010   1.142 -1.0758 -0.7804  3.1029
  400MOL0     H53989   6.355   4.972   1.234 -3.4428 -0.8310 -0.8600
  400MOL0     H53990   6.004   5.082   1.337  0.2746  0.8968  3.7267
  400MOL0     H53991   6.141   4.985   1.319  1.0308  0.4715  2.7804
  400MOL0     H53992   6.286   5.154   1.450 -0.6398  1.4693  0.9440
  400MOL0     H53993   6.133   5.088   1.531 -2.9820 -0.9949 -1.3083
  400MOL0     H53994   6.017   5.301   1.463 -0.2463  1.0740  1.3190
  400MOL0     H53995   6.165   5.369   1.412 -0.0697 -1.1333 -2.7890
  400MOL0     H53996   6.134   5.435   1.653 -0.8728 -1.4920  1.1170
  400MOL0     H53997   6.258   5.311   1.653  0.0604  0.3260  0.6377
  400MOL0     H53998   5.938   5.103   1.831 -3.3522  3.0900 -0.5213
  400MOL0     H53999   6.206   5.339   1.050  0.9749  0.0428 -0.7860
  400MOL0     H54000   6.444   5.372   0.956  0.3087 -2.5978 -3.6871
  401MOL0     O54001   4.306   1.505   1.592 -0.9236  0.3212  0.8670
  401MOL0     C54002   4.279   1.621   1.560 -0.0283 -0.0563  0.7752
  401MOL0     O54003   4.253   1.664   1.425  0.1182  0.2453 -0.7070
  401MOL0     C54004   4.285   1.569   1.328 -0.1063 -0.1989  0.8999
  401MOL0     C54005   4.183   1.496   1.262 -0.1958  0.6120 -0.6037
  401MOL0     C54006   4.217   1.377   1.184 -0.5289  0.6275 -0.5892
  401MOL0     C54007   4.349   1.340   1.164  0.0754  0.1735  0.1578
  401MOL0     O54008   4.371   1.234   1.086  0.2769 -0.1806  0.7779
  401MOL0     C54009   4.469   1.143   1.129 -0.1101 -0.4902  0.2060
  401MOL0     C54010   4.428   0.994   1.108  0.6486 -0.3582 -0.3896
  401MOL0     C54011   4.555   0.912   1.129  0.6554 -0.7443  0.9095
  401MOL0     C54012   4.526   0.759   1.113  0.2117 -1.8087 -0.3647
  401MOL0     C54013   4.649   0.671   1.156 -0.9647 -0.7573 -0.2694
  401MOL0     C54014   4.765   0.667   1.054  0.5388 -0.2522  0.9944
  401MOL0     C54015   4.736   0.567   0.939  0.1119 -0.2304  0.6232
  401MOL0     C54016   4.807   0.585   0.802  0.4897  0.1147  0.9180
  401MOL0     N54017   4.960   0.569   0.821  0.3798 -0.7596  0.9290
  401MOL0     C54018   5.027   0.453   0.846  0.1077 -0.1266  0.6866
  401MOL0     C54019   5.160   0.483   0.848  0.8253 -1.0106 -1.0905
  401MOL0     C54020   5.262   0.385   0.876 -0.4248  0.0081 -0.5309
  401MOL0     C54021   5.289   0.297   0.758  0.4106 -0.3177 -0.7456
  401MOL0     C54022   5.393   0.342   0.652 -0.6171 -0.4309  0.2458
  401MOL0     C54023   5.431   0.234   0.554  0.0489  0.1718  0.2827
  401MOL0     O54024   5.515   0.281   0.441 -0.4094  1.1740 -0.6695
  401MOL0     C54025   5.569   0.185   0.358 -0.0945 -1.0603  0.5265
  401MOL0     C54026   5.532   0.056   0.330 -0.5760 -0.7225  0.4901
  401MOL0     C54027   5.579  -0.025   0.222 -0.6065 -0.6023 -0.5263
  401MOL0     C54028   5.531  -0.161   0.211  0.3371  1.6014 -0.8689
  401MOL0     C54029   5.669   0.033   0.134 -1.1585  0.5057  0.2358
  401MOL0     C54030   5.727  -0.033   0.013 -0.6972  0.0161 -0.6260
  401MOL0     O54031   5.852   0.001  -0.015 -0.6698 -0.4115 -0.2497
  401MOL0     C54032   5.903  -0.033  -0.139  0.0971 -0.1173 -0.2478
  401MOL0     C54033   5.954  -0.166  -0.156 -0.0518 -0.1267 -0.0133
  401MOL0     C54034   6.008  -0.201  -0.275 -0.3302 -0.3709  0.3764
  401MOL0     C54035   6.025  -0.104  -0.382  0.0520  1.4267 -0.1394
  401MOL0     O54036   6.071  -0.119  -0.509 -0.2570 -0.2412  1.1095
  401MOL0     C54037   6.092  -0.248  -0.564 -0.0858  0.2784  0.1649
  401MOL0     C54038   6.083  -0.258  -0.715 -0.0153  0.2597 -0.3051
  401MOL0     C54039   6.127  -0.401  -0.763  0.3223  0.1286  0.6803
  401MOL0     C54040   6.103  -0.424  -0.907 -0.3526  0.1475 -0.5270
  401MOL0     C54041   6.174  -0.552  -0.969  0.2279 -0.4316 -0.8485
  401MOL0     C54042   6.323  -0.542  -0.967 -0.4986  0.5624 -0.6602
  401MOL0     C54043   6.384  -0.627  -1.076 -1.0064 -1.0169 -0.4838
  401MOL0     C54044   6.385  -0.773  -1.061 -0.6268  0.0441 -0.1736
  401MOL0    Cl54045   6.217  -0.827  -1.091 -0.2132  0.1777 -0.0245
  401MOL0     C54046   5.985   0.024  -0.358 -1.6734 -0.0607  0.0713
  401MOL0     C54047   5.928   0.062  -0.241  0.8181  0.3368  0.3241
  401MOL0     O54048   5.660  -0.113  -0.043  0.3096  0.6880  0.4630
  401MOL0     C54049   5.706   0.175   0.148 -1.0804  0.1912  0.7826
  401MOL0     C54050   5.662   0.243   0.266  0.1392 -0.2678 -0.8093
  401MOL0     N54051   5.171   0.617   0.813  0.4612  0.3059  0.0403
  401MOL0     N54052   5.052   0.665   0.787 -0.8328 -0.5407 -0.3785
  401MOL0     C54053   4.445   1.421   1.213  0.6944 -0.0902 -0.0332
  401MOL0     C54054   4.414   1.540   1.288  0.8222  0.0278 -0.3414
  401MOL0     C54055   4.279   1.725   1.666 -1.0359  0.6568  0.1160
  401MOL0     C54056   4.296   1.852   1.644 -1.6335 -0.6434 -0.5014
  401MOL0     C54057   4.316   1.946   1.749  0.2594 -0.2399  0.1253
  401MOL0     C54058   4.284   1.909   1.871  0.8212 -0.0198  0.1840
  401MOL0     O54059   4.272   2.018   1.960 -0.3074  0.1207 -0.3069
  401MOL0     C54060   4.312   1.987   2.097 -0.4989  0.5756  0.4348
  401MOL0     C54061   4.318   2.122   2.165 -0.7755 -0.9365  1.1622
  401MOL0     C54062   4.321   2.104   2.314 -1.1318  0.0138  0.0031
  401MOL0     C54063   4.359   2.236   2.380 -0.2563 -0.1411 -0.1374
  401MOL0     C54064   4.383   2.215   2.524 -0.1781 -0.4763  0.6176
  401MOL0     C54065   4.396   2.190   2.641 -0.0487 -0.5912  0.1154
  401MOL0     C54066   4.268   1.771   1.906  0.9019 -0.8534  0.0060
  401MOL0     C54067   4.275   1.677   1.796 -0.0190 -0.9214  0.2629
  401MOL0     H54068   4.080   1.508   1.295  1.0061  3.5791  2.7243
  401MOL0     H54069   4.124   1.331   1.153 -0.4272 -0.2724  0.3932
  401MOL0     H54070   4.554   1.167   1.064 -0.3231  1.3526  0.5593
  401MOL0     H54071   4.505   1.156   1.232  2.5366  0.1780 -0.7311
  401MOL0     H54072   4.352   0.969   1.183  1.5266  0.5645  0.8527
  401MOL0     H54073   4.387   0.976   1.008 -0.0479  2.2615 -0.6575
  401MOL0     H54074   4.634   0.933   1.056 -0.9911 -0.3639 -0.8325
  401MOL0     H54075   4.582   0.936   1.232  1.8078  1.2433  0.1948
  401MOL0     H54076   4.451   0.752   1.192  1.9560  1.7706  1.8495
  401MOL0     H54077   4.486   0.730   1.015 -3.8489  1.7452 -0.0981
  401MOL0     H54078   4.677   0.718   1.252  1.4029 -2.3666 -0.0783
  401MOL0     H54079   4.622   0.569   1.181 -1.2400 -0.3088  1.4207
  401MOL0     H54080   4.787   0.765   1.009  2.5114 -1.8493 -1.8696
  401MOL0     H54081   4.858   0.641   1.106  0.2507 -1.7509  0.8012
  401MOL0     H54082   4.745   0.472   0.991 -0.6822  1.5752  4.4602
  401MOL0     H54083   4.631   0.578   0.909 -0.1489 -2.0257  0.7988
  401MOL0     H54084   4.790   0.686   0.762 -2.5932 -0.5107  0.3602
  401MOL0     H54085   4.775   0.515   0.724 -2.1121  4.5559 -2.5083
  401MOL0     H54086   4.978   0.356   0.858  0.2579 -0.1580  1.0381
  401MOL0     H54087   5.361   0.430   0.888  0.2574 -0.0428 -4.6947
  401MOL0     H54088   5.230   0.335   0.968 -2.3782 -1.5343 -1.9459
  401MOL0     H54089   5.195   0.274   0.707  0.8877 -0.7689 -1.4460
  401MOL0     H54090   5.321   0.206   0.811  0.8088  0.1899 -0.1088
  401MOL0     H54091   5.481   0.381   0.704 -0.2032 -1.5207  0.3807
  401MOL0     H54092   5.340   0.421   0.597 -1.7316 -1.7736 -0.6708
  401MOL0     H54093   5.336   0.186   0.527 -0.0881 -2.3429  4.3923
  401MOL0     H54094   5.493   0.169   0.616 -0.7477 -0.5910  0.3060
  401MOL0     H54095   5.450   0.026   0.394 -1.6936 -0.0429 -0.5811
  401MOL0     H54096   5.486  -0.193   0.305  3.2932 -1.4642 -0.2876
  401MOL0     H54097   5.448  -0.155   0.140  0.4570  2.5218 -0.9444
  401MOL0     H54098   5.610  -0.232   0.184 -0.4807 -0.0498  0.8019
  401MOL0     H54099   5.933  -0.245  -0.085 -1.3279  0.5217  0.3443
  401MOL0     H54100   6.042  -0.301  -0.299  1.8451  0.1633  0.9746
  401MOL0     H54101   6.188  -0.293  -0.538  0.3286 -0.8175 -2.9144
  401MOL0     H54102   6.014  -0.314  -0.526  2.1882 -3.4512 -1.1895
  401MOL0     H54103   5.987  -0.224  -0.756 -0.0099 -0.2526 -0.7618
  401MOL0     H54104   6.154  -0.192  -0.764  2.1218 -2.5802 -1.3208
  401MOL0     H54105   6.067  -0.478  -0.713 -1.6278  1.6974  0.8476
  401MOL0     H54106   6.235  -0.406  -0.744  0.3653 -2.1718  0.1263
  401MOL0     H54107   5.996  -0.435  -0.928 -1.2049  1.3822  2.6159
  401MOL0     H54108   6.127  -0.327  -0.952 -2.2258  2.2098  2.5530
  401MOL0     H54109   6.128  -0.563  -1.067 -2.4501  2.2328 -0.0520
  401MOL0     H54110   6.138  -0.628  -0.898  1.8294  0.3531  0.9104
  401MOL0     H54111   6.353  -0.439  -0.991  0.7875  1.1012  2.6480
  401MOL0     H54112   6.370  -0.572  -0.873  1.6187 -1.3770 -2.2233
  401MOL0     H54113   6.489  -0.598  -1.085 -1.2554  2.3314  3.9920
  401MOL0     H54114   6.342  -0.596  -1.171 -3.6021  1.4219  1.3040
  401MOL0     H54115   6.418  -0.790  -0.958  1.7582  1.3696 -0.6423
  401MOL0     H54116   6.444  -0.825  -1.137  1.4191  2.0161 -0.0777
  401MOL0     H54117   5.993   0.102  -0.434 -0.3900  1.2923  1.5122
  401MOL0     H54118   5.883   0.156  -0.213  2.2651  1.6508 -1.5371
  401MOL0     H54119   5.784   0.218   0.086 -1.5055  1.5912  1.1898
  401MOL0     H54120   5.704   0.340   0.288  2.2988 -0.5891 -2.9903
  401MOL0     H54121   4.548   1.396   1.194  0.2252 -2.5333  0.2935
  401MOL0     H54122   4.498   1.602   1.318 -0.7799  1.0635  2.2255
  401MOL0     H54123   4.315   1.877   1.540 -2.7119  0.6056 -0.4213
  401MOL0     H54124   4.315   2.053   1.733 -0.6741 -0.0965  1.0902
  401MOL0     H54125   4.238   1.922   2.143 -2.5036  0.0214 -3.2062
  401MOL0     H54126   4.411   1.939   2.092 -1.0465 -0.4616 -1.4220
  401MOL0     H54127   4.227   2.180   2.146  1.6281  1.9840 -2.7825
  401MOL0     H54128   4.402   2.181   2.129 -1.1314 -1.1479 -0.0494
  401MOL0     H54129   4.397   2.028   2.333  0.8861  1.9619  0.0885
  401MOL0     H54130   4.225   2.073   2.357  0.3015 -0.8070  2.8210
  401MOL0     H54131   4.279   2.310   2.366  2.1042  2.0837 -3.8822
  401MOL0     H54132   4.448   2.271   2.327  0.2903  2.7722  2.4464
  401MOL0     H54133   4.414   2.169   2.745 -0.8555 -0.4097  0.2958
  401MOL0     H54134   4.257   1.735   2.008  1.7685  0.4392  0.5777
  401MOL0     H54135   4.268   1.577   1.838  1.9972 -0.8216  0.9364
  402MOL0     O54136   0.517   6.236   0.054  0.0899  0.4550  0.6216
  402MOL0     C54137   0.427   6.184  -0.019  0.3173 -1.3177  0.4268
  402MOL0     O54138   0.361   6.245  -0.126  0.4634 -0.6303 -0.4106
  402MOL0     C54139   0.382   6.378  -0.163 -0.4289 -0.8564 -0.2393
  402MOL0     C54140   0.438   6.477  -0.076 -1.1090 -0.2585  0.7620
  402MOL0     C54141   0.448   6.606  -0.111  0.7997 -0.7798 -0.5017
  402MOL0     C54142   0.414   6.644  -0.242  0.2093  0.0393 -0.1082
  402MOL0     O54143   0.412   6.777  -0.287  0.4128 -0.0342 -0.3919
  402MOL0     C54144   0.502   6.867  -0.221  0.0161  0.1647  0.5322
  402MOL0     C54145   0.502   7.005  -0.267 -0.4163 -0.3710  0.4355
  402MOL0     C54146   0.368   7.094  -0.272  0.4664 -0.5338  0.0912
  402MOL0     C54147   0.386   7.225  -0.355 -0.8695  0.4906  0.2673
  402MOL0     C54148   0.255   7.300  -0.365 -0.5005 -0.1331 -0.3629
  402MOL0     C54149   0.267   7.457  -0.370 -0.2492 -0.4196  0.1867
  402MOL0     C54150   0.153   7.521  -0.458 -0.0822  1.3900  0.6790
  402MOL0     C54151   0.022   7.530  -0.377 -0.5491 -0.0209 -0.8025
  402MOL0     N54152  -0.087   7.602  -0.451 -0.0584 -0.4318 -0.1830
  402MOL0     C54153  -0.156   7.723  -0.417  0.1018 -0.6385  0.7391
  402MOL0     C54154  -0.237   7.742  -0.524  1.0302 -1.1224 -1.2636
  402MOL0     C54155  -0.320   7.869  -0.545 -0.1152 -0.6083  0.4172
  402MOL0     C54156  -0.228   7.999  -0.557  0.4754  1.0342 -0.4639
  402MOL0     C54157  -0.195   8.032  -0.701 -0.1324 -0.1594 -0.4396
  402MOL0     C54158  -0.152   8.180  -0.721  0.0182 -0.6703 -0.1060
  402MOL0     O54159  -0.261   8.267  -0.699  0.5630 -0.0610 -0.0710
  402MOL0     C54160  -0.255   8.375  -0.786  0.5855 -0.4263 -0.1837
  402MOL0     C54161  -0.226   8.503  -0.743 -0.0290  1.2811  0.0167
  402MOL0     C54162  -0.195   8.606  -0.832 -0.1850  0.1864 -0.2459
  402MOL0     C54163  -0.127   8.717  -0.742 -0.2490  0.5766 -0.4344
  402MOL0     C54164  -0.216   8.601  -0.970 -0.0433  0.4309 -0.3865
  402MOL0     C54165  -0.196   8.722  -1.047 -0.4404  0.2379 -0.0302
  402MOL0     O54166  -0.126   8.708  -1.171 -0.6363  0.0155  0.1159
  402MOL0     C54167  -0.096   8.819  -1.245 -0.6185  0.4133 -0.5206
  402MOL0     C54168  -0.030   8.935  -1.182 -0.5190 -0.3432  1.5119
  402MOL0     C54169  -0.015   9.040  -1.270  0.3235 -1.1550 -0.0750
  402MOL0     C54170  -0.048   9.047  -1.404  0.1090  0.2551 -0.1730
  402MOL0     O54171  -0.019   9.166  -1.468  0.4185  0.1319  0.1986
  402MOL0     C54172  -0.117   9.209  -1.563 -0.6641 -0.0295  0.3150
  402MOL0     C54173  -0.082   9.355  -1.607  0.1217 -0.9627 -0.0597
  402MOL0     C54174  -0.200   9.416  -1.679  0.6940 -0.1179  0.1117
  402MOL0     C54175  -0.311   9.492  -1.596 -0.2665  0.5950 -0.3846
  402MOL0     C54176  -0.437   9.536  -1.661 -1.3513  0.1660  0.3690
  402MOL0     C54177  -0.536   9.629  -1.589 -0.1157  0.0824  0.0051
  402MOL0     C54178  -0.501   9.779  -1.594 -0.6826 -0.1777 -0.0421
  402MOL0     C54179  -0.606   9.863  -1.541  0.7696 -0.1204  0.1876
  402MOL0    Cl54180  -0.721   9.895  -1.672  0.0954 -0.0688  0.6147
  402MOL0     C54181  -0.115   8.934  -1.459  0.4162  0.3114  0.5687
  402MOL0     C54182  -0.131   8.819  -1.380  0.1443 -0.1716 -0.5821
  402MOL0     O54183  -0.255   8.823  -1.000 -0.1223  0.0816  0.5685
  402MOL0     C54184  -0.262   8.474  -1.017 -0.8413 -0.4931  0.1877
  402MOL0     C54185  -0.280   8.372  -0.927 -0.7988 -0.2774  0.4198
  402MOL0     N54186  -0.238   7.635  -0.612 -0.6527  0.8000 -0.6220
  402MOL0     N54187  -0.147   7.553  -0.562 -1.4878  0.1458  0.5186
  402MOL0     C54188   0.356   6.552  -0.324  0.4016 -0.4390  0.2691
  402MOL0     C54189   0.338   6.417  -0.294  0.2583 -0.3609 -0.2152
  402MOL0     C54190   0.370   6.055   0.030 -0.5752  0.2299  0.3257
  402MOL0     C54191   0.400   6.014   0.160  0.3624 -0.0431 -0.4238
  402MOL0     C54192   0.360   5.888   0.199 -0.4186 -0.4645 -0.5012
  402MOL0     C54193   0.280   5.806   0.121  0.7571  0.4297  0.8799
  402MOL0     O54194   0.214   5.698   0.167 -0.0883  0.0692  0.3972
  402MOL0     C54195   0.297   5.597   0.239 -0.1916 -0.3849 -0.5078
  402MOL0     C54196   0.283   5.464   0.176 -1.0018  0.5508 -0.1714
  402MOL0     C54197   0.357   5.360   0.260 -0.7588  0.4753  0.5595
  402MOL0     C54198   0.489   5.399   0.328  0.0278 -0.0965 -0.7141
  402MOL0     C54199   0.558   5.280   0.377 -0.3568 -0.8202  0.7615
  402MOL0     C54200   0.628   5.202   0.435 -0.9755  0.5448 -0.5367
  402MOL0     C54201   0.270   5.837  -0.010  0.2010 -0.2191 -0.7773
  402MOL0     C54202   0.316   5.964  -0.060 -1.0562  0.6771  0.0163
  402MOL0     H54203   0.469   6.458   0.026 -1.5683  2.2494  1.4351
  402MOL0     H54204   0.477   6.673  -0.031  0.6986  0.1232 -1.2037
  402MOL0     H54205   0.466   6.873  -0.117  1.8090 -1.3521  1.2877
  402MOL0     H54206   0.602   6.832  -0.196 -0.7398 -1.5489  1.2928
  402MOL0     H54207   0.578   7.059  -0.211 -1.2779  1.0300  0.3058
  402MOL0     H54208   0.537   7.010  -0.371  1.3133 -0.7102  0.9822
  402MOL0     H54209   0.297   7.023  -0.316  3.0075 -3.7123  0.6870
  402MOL0     H54210   0.338   7.114  -0.169 -0.2509 -0.3937 -0.1424
  402MOL0     H54211   0.480   7.271  -0.323  0.5960 -2.2834  0.2938
  402MOL0     H54212   0.408   7.195  -0.458 -0.2707 -1.6345  0.9588
  402MOL0     H54213   0.207   7.263  -0.456 -2.3400 -0.5414  0.7172
  402MOL0     H54214   0.199   7.271  -0.276 -0.8230 -2.4043 -1.2380
  402MOL0     H54215   0.268   7.503  -0.271 -0.0106 -0.2625  0.1118
  402MOL0     H54216   0.355   7.484  -0.429  0.7071 -2.1041  0.7571
  402MOL0     H54217   0.182   7.624  -0.480 -0.0990  0.9622 -1.6009
  402MOL0     H54218   0.146   7.459  -0.548  1.3859 -3.7923  3.7042
  402MOL0     H54219   0.045   7.587  -0.286 -1.3196 -3.3405  1.6499
  402MOL0     H54220  -0.018   7.436  -0.339  0.7118  0.5064  2.0537
  402MOL0     H54221  -0.141   7.791  -0.334  2.9891 -1.5486  1.0995
  402MOL0     H54222  -0.399   7.859  -0.620  1.9603  2.9555 -2.6018
  402MOL0     H54223  -0.384   7.875  -0.457  0.9575  2.1930  1.1296
  402MOL0     H54224  -0.142   7.976  -0.494  0.6733  2.3312 -0.2349
  402MOL0     H54225  -0.277   8.086  -0.512  1.1058 -0.7262  4.2351
  402MOL0     H54226  -0.278   8.021  -0.771 -1.5892  1.9899  0.8450
  402MOL0     H54227  -0.113   7.968  -0.735  2.6836  4.0232 -2.3293
  402MOL0     H54228  -0.114   8.193  -0.823  3.7950 -0.6742  1.1407
  402MOL0     H54229  -0.071   8.213  -0.655  1.0458 -0.7511 -1.2838
  402MOL0     H54230  -0.209   8.498  -0.636  0.2738 -1.0931 -0.1027
  402MOL0     H54231  -0.046   8.760  -0.801 -0.8930 -1.0276 -2.5928
  402MOL0     H54232  -0.192   8.800  -0.713 -1.8258 -1.4519  2.3231
  402MOL0     H54233  -0.081   8.686  -0.648  2.5335 -0.7716 -2.1270
  402MOL0     H54234  -0.003   8.949  -1.078 -1.1813  0.1200  1.6288
  402MOL0     H54235   0.023   9.136  -1.236  0.4677 -0.8149 -1.1571
  402MOL0     H54236  -0.115   9.145  -1.652  1.1712  1.3663 -0.7241
  402MOL0     H54237  -0.212   9.204  -1.510 -1.2108 -4.4536 -0.6784
  402MOL0     H54238  -0.048   9.403  -1.514  1.7607 -2.1177 -0.0366
  402MOL0     H54239   0.000   9.353  -1.678 -0.8778  1.5506 -1.4223
  402MOL0     H54240  -0.249   9.329  -1.724  0.1675 -0.8302  1.9547
  402MOL0     H54241  -0.176   9.483  -1.762  2.4244 -0.6375  0.1633
  402MOL0     H54242  -0.346   9.426  -1.516 -1.6302  1.3228 -0.3436
  402MOL0     H54243  -0.256   9.568  -1.540  0.0974  0.6646 -0.8321
  402MOL0     H54244  -0.492   9.451  -1.703 -1.0088  1.9004 -4.2364
  402MOL0     H54245  -0.407   9.590  -1.751 -0.7178 -1.5196 -0.4825
  402MOL0     H54246  -0.630   9.609  -1.641  1.4915 -3.0327 -1.9747
  402MOL0     H54247  -0.546   9.607  -1.482  1.1599 -1.2592 -0.1238
  402MOL0     H54248  -0.470   9.806  -1.696 -0.7274 -1.2053 -0.3436
  402MOL0     H54249  -0.416   9.802  -1.529 -0.2528 -1.5114 -0.1008
  402MOL0     H54250  -0.568   9.963  -1.520 -3.5529  2.2454 -1.8712
  402MOL0     H54251  -0.646   9.820  -1.448  1.3097 -0.2258  0.3728
  402MOL0     H54252  -0.132   8.930  -1.566  0.2632  1.5513  0.5315
  402MOL0     H54253  -0.173   8.730  -1.425  3.2165 -2.1192  0.1283
  402MOL0     H54254  -0.290   8.466  -1.122 -0.7289 -0.6563  0.1707
  402MOL0     H54255  -0.315   8.278  -0.969  0.7150 -1.3087  1.3740
  402MOL0     H54256   0.344   6.589  -0.425  2.9324 -2.1903 -0.7724
  402MOL0     H54257   0.288   6.352  -0.365  2.1169 -5.4565  2.6331
  402MOL0     H54258   0.459   6.078   0.225  0.8488  2.1235 -2.8828
  402MOL0     H54259   0.390   5.862   0.300  1.1643  1.7091 -0.3306
  402MOL0     H54260   0.404   5.620   0.233  0.2475 -1.7409 -7.7819
  402MOL0     H54261   0.257   5.590   0.340 -0.2927 -1.5812 -0.6221
  402MOL0     H54262   0.330   5.483   0.079  2.4245 -2.3818  0.6978
  402MOL0     H54263   0.177   5.441   0.160 -0.5137 -1.4927 -0.7918
  402MOL0     H54264   0.371   5.270   0.200  1.5456 -0.0360  1.7706
  402MOL0     H54265   0.287   5.333   0.340 -1.5579  0.9997  0.0438
  402MOL0     H54266   0.463   5.473   0.404  0.1704 -0.4384 -0.3257
  402MOL0     H54267   0.553   5.455   0.259  1.6763 -2.7967 -1.5542
  402MOL0     H54268   0.677   5.121   0.484 -1.2215  0.9523  0.4081
  402MOL0     H54269   0.224   5.768  -0.080 -1.0416 -0.8531  0.5957
  402MOL0     H54270   0.306   5.986  -0.166 -2.2304 -0.5830 -0.1751
  403MOL0     O54271   9.359  10.163  10.004  0.0498 -0.2399 -0.7352
  403MOL0     C54272   9.313  10.257  10.074  0.2150  0.0560 -0.0418
  403MOL0     O54273   9.365  10.391  10.077  0.0066  0.1199  0.4291
  403MOL0     C54274   9.462  10.426   9.978 -0.3161  0.5204 -0.2200
  403MOL0     C54275   9.484  10.357   9.851 -0.4643  0.0464 -0.6024
  403MOL0     C54276   9.592  10.392   9.775  0.5007 -0.4096  1.0690
  403MOL0     C54277   9.683  10.490   9.813  0.9282  0.0696 -0.0557
  403MOL0     O54278   9.791  10.517   9.732  0.1522  0.5904  0.3074
  403MOL0     C54279   9.902  10.591   9.786  0.0218 -0.0672 -0.2189
  403MOL0     C54280   9.988  10.639   9.672 -0.3991  0.0771  0.8617
  403MOL0     C54281   9.944  10.750   9.574 -0.0477 -0.7962 -0.3734
  403MOL0     C54282   9.818  10.730   9.493 -0.2758 -0.8151  0.2526
  403MOL0     C54283   9.694  10.787   9.544  0.4567  0.1396 -0.4575
  403MOL0     C54284   9.592  10.772   9.435 -0.3473  0.1660  0.0350
  403MOL0     C54285   9.444  10.829   9.452 -0.7660  0.5311  0.0088
  403MOL0     C54286   9.372  10.762   9.568  0.6239 -0.1785  0.0667
  403MOL0     N54287   9.303  10.643   9.512  0.7153  0.8777  0.6120
  403MOL0     C54288   9.360  10.512   9.494  0.8477 -0.2982  1.1160
  403MOL0     C54289   9.268  10.448   9.404  0.7934  0.4977 -0.0497
  403MOL0     C54290   9.295  10.312   9.348  0.4277  0.1065  0.2076
  403MOL0     C54291   9.163  10.241   9.323 -0.6746 -0.9378  0.4093
  403MOL0     C54292   9.185  10.094   9.277  0.0387 -0.6213 -0.2992
  403MOL0     C54293   9.058  10.033   9.241  0.0654  0.1369 -0.1635
  403MOL0     O54294   9.074   9.896   9.220  0.5795 -0.0199  0.4105
  403MOL0     C54295   9.071   9.806   9.324 -0.6314  0.3026  0.4898
  403MOL0     C54296   9.046   9.843   9.455  0.1117 -0.9631  0.2213
  403MOL0     C54297   9.034   9.757   9.563 -0.2966  0.8193  0.6191
  403MOL0     C54298   9.006   9.823   9.700  0.1645  0.3193  0.2352
  403MOL0     C54299   9.057   9.619   9.532  0.1767 -0.4480 -1.2098
  403MOL0     C54300   9.032   9.512   9.639  0.0247  0.2228  0.5338
  403MOL0     O54301   9.043   9.549   9.777  0.0647  0.4821 -0.5658
  403MOL0     C54302   8.992   9.454   9.869 -0.2141  0.3295 -0.5325
  403MOL0     C54303   9.073   9.406   9.974  0.9783 -0.1488 -1.1523
  403MOL0     C54304   9.021   9.317  10.073 -0.3368 -0.0179  1.2381
  403MOL0     C54305   8.884   9.292  10.060  0.0198  0.6126 -0.3302
  403MOL0     O54306   8.832   9.223  10.164 -0.8921  0.1614 -0.2258
  403MOL0     C54307   8.691   9.240  10.197 -0.3539 -1.0953  0.1573
  403MOL0     C54308   8.667   9.198  10.337 -0.7512 -0.1088 -0.1959
  403MOL0     C54309   8.516   9.203  10.359  0.5558 -0.1887 -0.2376
  403MOL0     C54310   8.482   9.189  10.512 -0.7526 -0.3044 -0.1792
  403MOL0     C54311   8.328   9.156  10.526 -0.5262  0.1096 -0.3457
  403MOL0     C54312   8.314   9.061  10.652 -0.4089 -0.2852  0.7312
  403MOL0     C54313   8.362   9.117  10.784  1.4326 -0.6722 -0.5940
  403MOL0     C54314   8.346   9.006  10.893 -0.3032  0.1099 -0.1667
  403MOL0    Cl54315   8.477   8.879  10.881 -0.2995  0.2530  0.0612
  403MOL0     C54316   8.809   9.331   9.957  0.7493  0.6343 -0.0994
  403MOL0     C54317   8.857   9.416   9.863 -0.9618 -0.4338  0.7575
  403MOL0     O54318   9.013   9.399   9.601 -0.5182  0.6932  0.3966
  403MOL0     C54319   9.072   9.577   9.402 -0.5326  0.1081  0.8691
  403MOL0     C54320   9.081   9.676   9.294 -0.6500  0.4214  1.1492
  403MOL0     N54321   9.172  10.541   9.374  0.5074  0.4779 -1.0470
  403MOL0     N54322   9.187  10.654   9.439 -0.1634  0.1423 -0.1115
  403MOL0     C54323   9.654  10.562   9.928  0.4335  0.4097  0.1542
  403MOL0     C54324   9.547  10.535  10.008  0.2992  0.1499 -1.1046
  403MOL0     C54325   9.197  10.232  10.170 -0.1594 -0.7877  0.7593
  403MOL0     C54326   9.140  10.109  10.196 -0.1313 -0.3140 -0.7969
  403MOL0     C54327   9.019  10.100  10.274 -1.3549 -0.3545  0.0301
  403MOL0     C54328   8.957  10.215  10.334 -0.9747  0.9242  0.1316
  403MOL0     O54329   8.848  10.195  10.401 -0.0695 -0.0140  0.3094
  403MOL0     C54330   8.852  10.243  10.536 -0.0573 -0.9307 -0.3920
  403MOL0     C54331   8.727  10.190  10.622 -0.0022  0.8524  0.0341
  403MOL0     C54332   8.747  10.044  10.671 -0.1667 -0.5369 -0.1086
  403MOL0     C54333   8.842  10.022  10.787  0.3332  0.3239  0.2733
  403MOL0     C54334   8.969  10.008  10.730  0.3177  0.5252  0.4856
  403MOL0     C54335   9.082   9.989  10.683  0.0579 -0.2378 -0.6655
  403MOL0     C54336   9.011  10.340  10.307  0.1795  0.7097 -0.2106
  403MOL0     C54337   9.132  10.349  10.228 -0.5215  0.1023 -0.3171
  403MOL0     H54338   9.428  10.274   9.809 -2.4759 -0.3261  2.4589
  403MOL0     H54339   9.596  10.344   9.678 -1.7734  2.5640 -0.6712
  403MOL0     H54340   9.878  10.682   9.841 -1.2674 -1.3973  1.5516
  403MOL0     H54341   9.959  10.533   9.859  0.7409 -0.6462 -1.2217
  403MOL0     H54342  10.075  10.666   9.734 -1.2711 -0.7696  2.5483
  403MOL0     H54343  10.027  10.567   9.599  0.9844 -0.0310  1.6513
  403MOL0     H54344   9.932  10.839   9.638  5.5791 -1.0124  1.5401
  403MOL0     H54345  10.022  10.777   9.503  0.8262  0.2926  0.9329
  403MOL0     H54346   9.838  10.792   9.405  0.2120  1.5050  1.9099
  403MOL0     H54347   9.803  10.628   9.457  0.5009 -1.1332  0.7893
  403MOL0     H54348   9.653  10.739   9.633 -3.2081 -2.3289 -3.2012
  403MOL0     H54349   9.706  10.890   9.580  0.5933 -0.0195 -0.0348
  403MOL0     H54350   9.622  10.829   9.347 -0.5333  2.5618  1.4467
  403MOL0     H54351   9.592  10.667   9.403  1.5143  0.1070  0.1122
  403MOL0     H54352   9.444  10.938   9.460  2.6267  0.6755 -0.5066
  403MOL0     H54353   9.388  10.798   9.364 -5.4224  3.7417  1.4533
  403MOL0     H54354   9.307  10.836   9.615  0.6807  1.1152 -1.8190
  403MOL0     H54355   9.430  10.718   9.650 -3.3977 -0.5881  2.9765
  403MOL0     H54356   9.461  10.484   9.524  0.8481  1.1681  2.6253
  403MOL0     H54357   9.362  10.322   9.263  1.1432  1.0304  0.8615
  403MOL0     H54358   9.344  10.264   9.434 -1.2516  3.0370  3.0698
  403MOL0     H54359   9.117  10.298   9.242  1.2629  1.5388  0.9579
  403MOL0     H54360   9.093  10.243   9.407 -0.5860  2.5529  0.5396
  403MOL0     H54361   9.221  10.028   9.356 -2.5159 -1.7261  0.0329
  403MOL0     H54362   9.254  10.098   9.192  0.2033 -1.5305 -0.2167
  403MOL0     H54363   9.018  10.089   9.156 -0.7408  4.2472  2.6071
  403MOL0     H54364   8.991  10.053   9.325  1.0279 -3.1683  1.6045
  403MOL0     H54365   9.026   9.946   9.481 -0.4722 -0.6997 -1.1898
  403MOL0     H54366   8.968   9.926   9.693 -0.8346  0.1179  2.0884
  403MOL0     H54367   8.926   9.777   9.759 -0.5090  1.0601 -0.0758
  403MOL0     H54368   9.095   9.812   9.762  0.3434  1.4053  0.1907
  403MOL0     H54369   9.174   9.445   9.968  1.3596 -1.1300 -1.3625
  403MOL0     H54370   9.078   9.278  10.157 -1.6989 -2.2680  1.2057
  403MOL0     H54371   8.654   9.341  10.175  1.7014  0.5003  3.2327
  403MOL0     H54372   8.637   9.165  10.138 -2.0044  0.5955 -0.6129
  403MOL0     H54373   8.701   9.097  10.362 -2.0478 -0.6242 -0.4316
  403MOL0     H54374   8.712   9.271  10.405 -2.5095  2.2039 -1.4101
  403MOL0     H54375   8.476   9.121  10.299 -1.4873 -0.3055  1.1707
  403MOL0     H54376   8.477   9.303  10.335 -1.7143 -0.8159  0.5661
  403MOL0     H54377   8.547   9.110  10.552 -1.5526 -0.7810  0.2203
  403MOL0     H54378   8.507   9.284  10.558 -0.0404  1.3883 -3.7701
  403MOL0     H54379   8.287   9.104  10.439 -1.0995  5.9686 -4.1392
  403MOL0     H54380   8.265   9.246  10.531 -3.3349 -1.7469  0.3479
  403MOL0     H54381   8.210   9.029  10.650 -0.9576  1.3634  1.0404
  403MOL0     H54382   8.377   8.972  10.644 -3.3996 -2.5663  1.0880
  403MOL0     H54383   8.290   9.193  10.816  0.8530 -0.9071 -1.3240
  403MOL0     H54384   8.465   9.153  10.784  1.1931  0.4491  3.2083
  403MOL0     H54385   8.250   8.954  10.887  0.5253 -1.5620  0.3139
  403MOL0     H54386   8.350   9.052  10.993  2.9997  1.0712 -0.6172
  403MOL0     H54387   8.708   9.293   9.944  1.3328 -2.1957  2.4394
  403MOL0     H54388   8.795   9.448   9.780  0.8723 -0.7478 -0.8180
  403MOL0     H54389   9.072   9.470   9.383 -0.6973 -0.0845  1.8505
  403MOL0     H54390   9.096   9.648   9.191 -0.1122  1.8484  0.8196
  403MOL0     H54391   9.703  10.658   9.942 -0.7360  1.1313 -0.5149
  403MOL0     H54392   9.543  10.587  10.103 -1.9445  0.6992 -1.4290
  403MOL0     H54393   9.196  10.030  10.146  1.5962  2.9215 -4.5730
  403MOL0     H54394   8.978  10.002  10.296 -0.3501 -0.8215 -0.1202
  403MOL0     H54395   8.953  10.217  10.571  1.0112  1.0123 -1.8362
  403MOL0     H54396   8.847  10.351  10.523  0.5012 -0.9558 -0.9068
  403MOL0     H54397   8.638  10.187  10.558 -0.5011  0.8803  0.7205
  403MOL0     H54398   8.711  10.255  10.709  2.3862 -3.4622  4.1080
  403MOL0     H54399   8.778   9.975  10.592  3.4081  2.0746 -1.2570
  403MOL0     H54400   8.649  10.019  10.714  0.7958 -0.6853  2.1760
  403MOL0     H54401   8.809   9.928  10.833 -0.0803 -0.8055 -2.1598
  403MOL0     H54402   8.845  10.109  10.852 -1.4633  2.5699 -2.4200
  403MOL0     H54403   9.182   9.961  10.658 -0.3508  0.4300 -3.5222
  403MOL0     H54404   8.967  10.430  10.347  0.9904  0.1964  2.0111
  403MOL0     H54405   9.173  10.450  10.235  1.4514 -0.7284  0.8412
  404MOL0     O54406   1.321   6.685   3.260 -0.2955  0.7765  0.8167
  404MOL0     C54407   1.243   6.772   3.230  0.5002  0.7232 -0.9216
  404MOL0     O54408   1.260   6.906   3.261 -0.0167 -0.0304 -0.0806
  404MOL0     C54409   1.379   6.976   3.249 -0.6508 -0.3671  1.9159
  404MOL0     C54410   1.495   6.915   3.191 -0.3882  0.1451 -0.8196
  404MOL0     C54411   1.610   6.989   3.163  0.2456  0.1886  0.6480
  404MOL0     C54412   1.608   7.126   3.187  0.2603 -0.4087  0.2193
  404MOL0     O54413   1.719   7.206   3.174 -0.6331  0.6293 -0.2249
  404MOL0     C54414   1.839   7.148   3.120  0.0672 -0.4595  0.0433
  404MOL0     C54415   1.942   7.256   3.121 -0.3828  0.6479 -0.2629
  404MOL0     C54416   2.083   7.196   3.127 -0.3686  0.0884 -0.2052
  404MOL0     C54417   2.195   7.294   3.102 -0.1665 -0.8643 -0.0495
  404MOL0     C54418   2.241   7.306   2.953  0.6086 -0.2778 -0.0362
  404MOL0     C54419   2.343   7.418   2.908 -0.4636 -0.5286  0.0101
  404MOL0     C54420   2.368   7.402   2.755  0.0731  0.3248 -0.5346
  404MOL0     C54421   2.244   7.414   2.665 -0.1131  0.4541 -0.9104
  404MOL0     N54422   2.282   7.432   2.525  0.2295  0.2005 -0.3102
  404MOL0     C54423   2.385   7.503   2.463 -0.1289 -0.5651 -0.0531
  404MOL0     C54424   2.359   7.486   2.333  0.7447 -0.6055  0.0833
  404MOL0     C54425   2.436   7.559   2.221 -0.4827  0.3142  0.5519
  404MOL0     C54426   2.587   7.537   2.218  0.0978 -0.4666 -0.7023
  404MOL0     C54427   2.625   7.391   2.206 -0.0040  0.3211  0.3527
  404MOL0     C54428   2.574   7.321   2.074 -0.9471 -0.6566 -0.0163
  404MOL0     O54429   2.597   7.419   1.968 -0.3845 -0.2709  0.1724
  404MOL0     C54430   2.544   7.391   1.845  0.2800  0.1931  0.1805
  404MOL0     C54431   2.581   7.487   1.748  0.7246  0.3003  0.2078
  404MOL0     C54432   2.548   7.468   1.619  0.2344 -0.2790  0.5448
  404MOL0     C54433   2.613   7.573   1.517  0.3532 -0.2711 -0.1334
  404MOL0     C54434   2.470   7.355   1.576 -1.2151  0.4975  0.6024
  404MOL0     C54435   2.449   7.328   1.434  0.2170 -0.5180 -0.2448
  404MOL0     O54436   2.496   7.218   1.379  0.1318  1.1853  0.4048
  404MOL0     C54437   2.478   7.202   1.243  0.2623 -0.3032 -0.9308
  404MOL0     C54438   2.346   7.161   1.199  0.3540 -0.6354 -0.9778
  404MOL0     C54439   2.323   7.144   1.066  0.9799 -0.6352 -0.3994
  404MOL0     C54440   2.428   7.147   0.972 -0.3203  0.2007 -0.8357
  404MOL0     O54441   2.402   7.105   0.844 -0.1876  0.4104  0.3959
  404MOL0     C54442   2.282   7.040   0.802  0.0906  0.0505 -0.4145
  404MOL0     C54443   2.166   7.135   0.762  0.4847  0.5353 -0.0809
  404MOL0     C54444   2.202   7.234   0.653  0.0951 -0.1708  0.1930
  404MOL0     C54445   2.109   7.360   0.669 -1.5685  0.3303  0.0625
  404MOL0     C54446   2.160   7.456   0.547 -0.2464 -0.5655 -0.8376
  404MOL0     C54447   2.106   7.592   0.565  1.4203  0.0454 -1.0611
  404MOL0     C54448   1.949   7.604   0.525 -0.0810 -0.1593 -0.2074
  404MOL0     C54449   1.890   7.746   0.524  1.4886  0.1262  0.6698
  404MOL0    Cl54450   1.714   7.731   0.464  0.3134  0.5632  0.6334
  404MOL0     C54451   2.553   7.187   1.021  0.2224 -0.0363 -0.0322
  404MOL0     C54452   2.582   7.220   1.150  0.8929 -1.3045 -1.0357
  404MOL0     O54453   2.388   7.416   1.375  0.4200  0.3873 -0.0193
  404MOL0     C54454   2.438   7.257   1.671 -0.5567 -0.2638  0.6360
  404MOL0     C54455   2.482   7.265   1.804  0.9654  0.7306  0.2656
  404MOL0     N54456   2.246   7.414   2.317 -0.1472  0.7518  0.5996
  404MOL0     N54457   2.195   7.393   2.430 -0.2631 -0.3021  0.0106
  404MOL0     C54458   1.488   7.191   3.229  0.1406 -0.6673 -0.1559
  404MOL0     C54459   1.374   7.118   3.266 -0.0042 -0.1635  0.3687
  404MOL0     C54460   1.112   6.720   3.178 -0.1150 -0.7849  0.2630
  404MOL0     C54461   0.998   6.797   3.195  0.3021 -0.9369  0.7344
  404MOL0     C54462   0.880   6.734   3.151  0.0543  0.6385  0.1890
  404MOL0     C54463   0.875   6.613   3.077 -0.0038  0.9825  0.4129
  404MOL0     O54464   0.757   6.547   3.027 -0.7105  0.9749  0.3128
  404MOL0     C54465   0.628   6.599   3.059  0.2213  1.2191  0.4315
  404MOL0     C54466   0.530   6.536   2.967  0.1902 -0.2386  0.2719
  404MOL0     C54467   0.571   6.551   2.824  0.0815 -0.1727 -0.3335
  404MOL0     C54468   0.462   6.553   2.724  0.4722 -0.2142  0.5464
  404MOL0     C54469   0.405   6.419   2.690 -0.8921 -0.5609 -0.4752
  404MOL0     C54470   0.366   6.307   2.686  0.8644  1.2897  0.1254
  404MOL0     C54471   0.994   6.541   3.068  0.4490 -0.0779  0.4364
  404MOL0     C54472   1.111   6.594   3.117 -0.3689 -0.1650 -0.0366
  404MOL0     H54473   1.513   6.809   3.175  3.8389 -0.4568  4.7348
  404MOL0     H54474   1.704   6.945   3.132  1.1411  2.3904  0.0113
  404MOL0     H54475   1.856   7.069   3.194  2.5525  2.5645  3.0184
  404MOL0     H54476   1.813   7.120   3.017 -0.4055  1.1894 -0.3170
  404MOL0     H54477   1.922   7.312   3.029  0.4317  1.0933 -0.1828
  404MOL0     H54478   1.932   7.323   3.206  0.7679  3.3537 -2.1275
  404MOL0     H54479   2.105   7.142   3.220  1.5293 -1.0619 -1.2679
  404MOL0     H54480   2.100   7.114   3.057  4.3079 -0.9675  1.7424
  404MOL0     H54481   2.174   7.396   3.136  2.9874  0.1339 -0.7178
  404MOL0     H54482   2.281   7.252   3.155 -0.1819 -2.0969 -0.9774
  404MOL0     H54483   2.300   7.216   2.936 -0.4928 -0.7911 -1.2865
  404MOL0     H54484   2.156   7.306   2.884  0.9577  2.0699 -0.5676
  404MOL0     H54485   2.290   7.512   2.924 -0.4990 -0.6169  0.4194
  404MOL0     H54486   2.427   7.410   2.977  0.2719 -5.2302 -1.0972
  404MOL0     H54487   2.444   7.476   2.730  0.7986  0.5589  2.0893
  404MOL0     H54488   2.411   7.303   2.739  1.0892  0.4209  1.3359
  404MOL0     H54489   2.182   7.501   2.689  0.4047  1.2192 -2.2182
  404MOL0     H54490   2.184   7.323   2.667  2.9850 -1.7486  1.0000
  404MOL0     H54491   2.470   7.552   2.510  0.7856 -2.7515  0.6635
  404MOL0     H54492   2.409   7.516   2.124  1.1054 -0.9317  0.6379
  404MOL0     H54493   2.418   7.667   2.229  1.4348  0.8077 -1.1533
  404MOL0     H54494   2.620   7.563   2.319  0.8418 -3.3023 -0.1099
  404MOL0     H54495   2.640   7.587   2.136  1.9013 -1.5786 -0.2737
  404MOL0     H54496   2.585   7.340   2.294  0.4883  1.3312  1.1868
  404MOL0     H54497   2.733   7.377   2.203 -0.0665 -0.4968  1.4482
  404MOL0     H54498   2.466   7.304   2.075 -0.9464 -1.6034 -3.6640
  404MOL0     H54499   2.623   7.223   2.065  1.6165  0.6798 -1.5631
  404MOL0     H54500   2.616   7.584   1.782 -2.6105  1.9123 -0.4470
  404MOL0     H54501   2.721   7.581   1.530  0.1736  0.2117  1.1693
  404MOL0     H54502   2.595   7.531   1.417 -2.4488 -0.3474  0.3067
  404MOL0     H54503   2.565   7.671   1.528  1.5180  0.6717 -2.7259
  404MOL0     H54504   2.259   7.163   1.264  1.0809 -0.9309  0.0152
  404MOL0     H54505   2.217   7.132   1.045  1.1510 -2.0194 -0.5556
  404MOL0     H54506   2.303   6.969   0.722 -1.6171 -2.7117  1.3759
  404MOL0     H54507   2.242   6.973   0.880  1.8099 -1.0077 -0.4025
  404MOL0     H54508   2.089   7.078   0.709  1.9322  0.3043 -2.0440
  404MOL0     H54509   2.127   7.187   0.850  3.4248  1.3584  0.8808
  404MOL0     H54510   2.192   7.196   0.550 -2.0036 -0.4053  0.4324
  404MOL0     H54511   2.307   7.261   0.663  0.4594 -1.6460  0.6214
  404MOL0     H54512   2.002   7.336   0.669 -1.5821  0.3647  0.8970
  404MOL0     H54513   2.131   7.407   0.765 -0.6581 -1.2155  0.6608
  404MOL0     H54514   2.130   7.423   0.448 -1.5622 -2.5442  0.1709
  404MOL0     H54515   2.268   7.462   0.562 -0.4531 -0.6822  0.9718
  404MOL0     H54516   2.129   7.641   0.660  0.7150  2.4642 -2.0430
  404MOL0     H54517   2.149   7.651   0.483 -1.0800  0.3940 -2.2143
  404MOL0     H54518   1.899   7.553   0.608  1.8073 -0.0620  1.0795
  404MOL0     H54519   1.928   7.541   0.438  1.0667 -1.8877  0.6896
  404MOL0     H54520   1.953   7.814   0.466  5.5761 -2.2971  1.8522
  404MOL0     H54521   1.890   7.779   0.628 -0.4638 -0.3395  0.8520
  404MOL0     H54522   2.624   7.168   0.941 -1.5762 -3.0834 -1.0916
  404MOL0     H54523   2.680   7.256   1.180 -0.1700  1.9150 -1.0677
  404MOL0     H54524   2.375   7.178   1.631  1.1342 -1.5276  0.3450
  404MOL0     H54525   2.443   7.183   1.863  0.7310  0.5601 -0.1196
  404MOL0     H54526   1.489   7.299   3.236  0.8145 -0.5958 -1.1465
  404MOL0     H54527   1.289   7.178   3.297  3.3739  3.5841  3.5901
  404MOL0     H54528   0.996   6.900   3.228 -3.5597 -0.3988 -0.6532
  404MOL0     H54529   0.792   6.795   3.172  0.8533  2.5868 -1.7287
  404MOL0     H54530   0.617   6.569   3.164 -2.1810 -1.4226 -0.4453
  404MOL0     H54531   0.626   6.707   3.040  0.4783  0.4915 -5.3146
  404MOL0     H54532   0.442   6.596   2.990  0.8929  1.5569 -1.4209
  404MOL0     H54533   0.499   6.436   2.997  2.8601 -2.2816 -3.0379
  404MOL0     H54534   0.620   6.455   2.805  0.6987  0.2705 -1.0462
  404MOL0     H54535   0.638   6.635   2.801 -1.6471  1.8623  1.5691
  404MOL0     H54536   0.505   6.588   2.630 -0.5001 -2.6575 -0.9108
  404MOL0     H54537   0.381   6.623   2.747  0.6246  0.3776 -0.6629
  404MOL0     H54538   0.328   6.207   2.691 -1.2442  1.7827 -3.0213
  404MOL0     H54539   1.008   6.443   3.024  0.2291  1.3180 -3.0326
  404MOL0     H54540   1.205   6.539   3.114  0.4030  1.0720  0.6240
  405MOL0     O54541   6.121   4.656   0.250  0.4246 -0.1879  0.4255
  405MOL0     C54542   6.170   4.666   0.139  0.0970 -0.0284  0.5085
  405MOL0     O54543   6.240   4.774   0.096  0.1683 -0.0673  0.4228
  405MOL0     C54544   6.263   4.883   0.180  0.1584  0.2402  0.0978
  405MOL0     C54545   6.182   4.945   0.283 -0.7934 -0.0670  0.3446
  405MOL0     C54546   6.238   5.035   0.376 -0.1844  0.5775 -0.2290
  405MOL0     C54547   6.373   5.075   0.375  0.2688  0.5850 -0.1586
  405MOL0     O54548   6.432   5.175   0.449 -0.2268  0.3562 -0.2900
  405MOL0     C54549   6.349   5.229   0.560 -0.3356 -0.0219 -1.2743
  405MOL0     C54550   6.436   5.316   0.659 -0.0630  0.2537  0.6267
  405MOL0     C54551   6.517   5.415   0.587 -0.1822  0.5298  0.1110
  405MOL0     C54552   6.444   5.553   0.552 -0.3156 -0.1450 -0.9173
  405MOL0     C54553   6.398   5.646   0.664  0.7832 -0.0976  0.2075
  405MOL0     C54554   6.508   5.751   0.692 -0.5645 -0.3461  1.0206
  405MOL0     C54555   6.492   5.829   0.825  0.0285  0.3975 -0.2654
  405MOL0     C54556   6.591   5.945   0.827 -0.8376  0.6697  0.4472
  405MOL0     N54557   6.678   5.940   0.948 -0.1379  0.3439 -0.2330
  405MOL0     C54558   6.792   5.859   0.959 -0.3126 -1.2865  0.7148
  405MOL0     C54559   6.808   5.843   1.091  0.9623 -0.2455  0.1891
  405MOL0     C54560   6.904   5.756   1.156  0.1579  0.1700 -0.1697
  405MOL0     C54561   7.052   5.793   1.159 -0.0289 -1.1002  0.4298
  405MOL0     C54562   7.112   5.741   1.033 -0.1277  0.1936  0.1619
  405MOL0     C54563   7.227   5.829   0.992 -1.0703 -0.4501 -0.1593
  405MOL0     O54564   7.335   5.808   1.093  0.6301  0.3977 -0.3625
  405MOL0     C54565   7.450   5.883   1.087  0.5094  0.4289  0.4241
  405MOL0     C54566   7.513   5.891   1.210 -0.3097 -0.8442 -0.7436
  405MOL0     C54567   7.629   5.965   1.234 -0.5429  0.6325 -1.0245
  405MOL0     C54568   7.697   5.958   1.370  0.6886 -0.9577 -0.1148
  405MOL0     C54569   7.677   6.050   1.128  0.2043  0.7197  0.1282
  405MOL0     C54570   7.798   6.143   1.124  0.9807  1.0401 -0.4287
  405MOL0     O54571   7.841   6.187   1.001  0.1668  0.5086  0.1756
  405MOL0     C54572   7.921   6.298   0.985  0.6525  0.2453  1.2239
  405MOL0     C54573   7.997   6.301   0.867 -1.0715  0.7390 -0.9158
  405MOL0     C54574   8.075   6.413   0.838  0.6028 -0.4020 -0.7977
  405MOL0     C54575   8.085   6.523   0.913 -0.0977  0.0275 -1.3983
  405MOL0     O54576   8.183   6.625   0.892  0.3178 -0.4442  1.0441
  405MOL0     C54577   8.282   6.646   0.995  0.4492  0.7736  0.4378
  405MOL0     C54578   8.419   6.588   0.940  0.4111  0.4246  0.0992
  405MOL0     C54579   8.526   6.566   1.056  0.8724  0.0536  0.7921
  405MOL0     C54580   8.643   6.472   1.003  0.1080  0.1614  0.0653
  405MOL0     C54581   8.745   6.441   1.104 -0.5302  0.8310 -0.4426
  405MOL0     C54582   8.862   6.333   1.063 -0.1913  1.1042 -0.1286
  405MOL0     C54583   8.973   6.394   0.983 -0.3212 -0.0382 -0.1514
  405MOL0     C54584   9.122   6.360   1.006 -0.8592 -0.4129 -0.5449
  405MOL0    Cl54585   9.166   6.192   0.933 -0.2163  0.0780  0.0975
  405MOL0     C54586   8.001   6.523   1.027 -0.6127 -0.0519  0.5804
  405MOL0     C54587   7.914   6.419   1.055 -0.1901  0.3867 -0.0436
  405MOL0     O54588   7.834   6.181   1.235  0.0069  0.3319 -0.9736
  405MOL0     C54589   7.620   6.039   1.004 -0.0360 -0.4715 -0.1852
  405MOL0     C54590   7.508   5.958   0.986 -0.0624 -0.3029  0.3847
  405MOL0     N54591   6.722   5.934   1.155 -0.1627  0.2574  0.4522
  405MOL0     N54592   6.645   5.991   1.068 -0.4723 -0.0376 -0.1031
  405MOL0     C54593   6.451   5.010   0.277  0.0038  0.3824  0.8908
  405MOL0     C54594   6.402   4.920   0.179  1.6051  0.1460  0.2400
  405MOL0     C54595   6.139   4.563   0.029  0.6085 -0.1731 -1.5564
  405MOL0     C54596   6.016   4.488   0.046  0.0639  0.5004  0.9185
  405MOL0     C54597   5.985   4.395  -0.060 -0.0296 -0.7800  0.3339
  405MOL0     C54598   6.065   4.389  -0.180 -0.0034 -0.4432 -0.5331
  405MOL0     O54599   6.019   4.328  -0.292  0.3250  0.3881 -0.4750
  405MOL0     C54600   5.910   4.234  -0.289  0.9177 -0.4054  0.6925
  405MOL0     C54601   5.966   4.122  -0.204 -0.1975  0.0685  0.0464
  405MOL0     C54602   5.945   3.978  -0.265  0.5273  0.1432  0.2069
  405MOL0     C54603   5.972   3.852  -0.179 -0.1974  0.0725  0.7341
  405MOL0     C54604   5.849   3.804  -0.108 -0.4219 -0.0096  0.6031
  405MOL0     C54605   5.752   3.775  -0.035  0.1499 -0.5645  0.1921
  405MOL0     C54606   6.173   4.470  -0.196  0.1970  1.0291  0.4226
  405MOL0     C54607   6.216   4.556  -0.086  0.0603 -0.0189 -0.2748
  405MOL0     H54608   6.076   4.921   0.285 -1.1353  1.2982 -0.0972
  405MOL0     H54609   6.165   5.071   0.448 -1.5066 -1.6278 -0.3525
  405MOL0     H54610   6.261   5.289   0.532 -2.1319 -0.3271  2.9914
  405MOL0     H54611   6.306   5.148   0.619  1.0057 -0.0972 -0.3613
  405MOL0     H54612   6.372   5.372   0.728 -0.9135 -0.7100  0.6388
  405MOL0     H54613   6.504   5.258   0.723 -0.3800  0.0941  0.8218
  405MOL0     H54614   6.593   5.454   0.656 -1.9006  1.8701  1.3383
  405MOL0     H54615   6.565   5.375   0.498  0.1608 -3.0177  1.7204
  405MOL0     H54616   6.513   5.604   0.485 -0.2314 -1.0929 -1.5780
  405MOL0     H54617   6.358   5.524   0.491  0.0191 -0.0539 -1.4371
  405MOL0     H54618   6.308   5.696   0.628  0.5824 -0.8816 -0.3967
  405MOL0     H54619   6.379   5.577   0.747 -0.7943 -0.3820 -0.3636
  405MOL0     H54620   6.605   5.701   0.695 -0.9209 -1.1645 -0.5151
  405MOL0     H54621   6.506   5.814   0.603 -1.4397 -0.6371  0.8343
  405MOL0     H54622   6.390   5.867   0.838  0.0870 -0.2196  2.6361
  405MOL0     H54623   6.490   5.761   0.911 -1.4250 -1.7594 -1.8728
  405MOL0     H54624   6.533   6.037   0.837 -0.3949  1.2921 -2.0043
  405MOL0     H54625   6.666   5.942   0.746  0.2379  0.0601  1.4326
  405MOL0     H54626   6.836   5.797   0.882 -0.3138  1.1547 -1.3848
  405MOL0     H54627   6.865   5.750   1.258 -2.9798  0.5109 -1.2341
  405MOL0     H54628   6.904   5.651   1.125  2.8721  0.1886 -0.5026
  405MOL0     H54629   7.096   5.760   1.253  2.9397  1.8985  0.2767
  405MOL0     H54630   7.074   5.900   1.166  2.6396 -1.5637  0.1956
  405MOL0     H54631   7.038   5.733   0.952  0.5142  1.4999 -0.5824
  405MOL0     H54632   7.132   5.633   1.037  0.5134  0.1703 -2.1014
  405MOL0     H54633   7.204   5.934   0.975  3.6832  0.2684 -4.4721
  405MOL0     H54634   7.270   5.798   0.896  1.5034 -0.0514  0.7875
  405MOL0     H54635   7.467   5.827   1.285 -0.6363 -2.2895 -2.1157
  405MOL0     H54636   7.647   5.881   1.429 -1.1899 -0.6545 -1.2313
  405MOL0     H54637   7.805   5.939   1.363  0.3014 -3.0623 -1.6464
  405MOL0     H54638   7.687   6.050   1.427 -1.0393 -0.0113 -1.8078
  405MOL0     H54639   8.007   6.210   0.808  4.0150  0.8924 -0.7154
  405MOL0     H54640   8.131   6.429   0.747  2.0713  2.4039  0.4739
  405MOL0     H54641   8.299   6.754   1.006  2.8741  0.2950  1.9863
  405MOL0     H54642   8.255   6.609   1.094  3.1371  0.5112  1.1315
  405MOL0     H54643   8.412   6.491   0.890  1.2426  0.9217 -1.0229
  405MOL0     H54644   8.466   6.660   0.872  1.1413 -0.5296 -0.4400
  405MOL0     H54645   8.472   6.526   1.141 -0.7124 -2.1488 -1.1360
  405MOL0     H54646   8.567   6.666   1.073  0.7238  0.5819 -1.5197
  405MOL0     H54647   8.608   6.375   0.966 -2.0512  0.6152  0.7477
  405MOL0     H54648   8.694   6.530   0.925  1.5039  0.2596  1.0221
  405MOL0     H54649   8.692   6.432   1.199 -4.0913  0.0635 -2.3050
  405MOL0     H54650   8.802   6.534   1.111  0.9769  0.5298 -5.1662
  405MOL0     H54651   8.892   6.296   1.161 -0.1647 -0.5405 -0.7164
  405MOL0     H54652   8.828   6.243   1.010 -0.0724 -0.0383  1.6716
  405MOL0     H54653   8.965   6.501   1.004 -2.6334 -0.1514 -0.2087
  405MOL0     H54654   8.936   6.392   0.880 -0.4138  0.5800 -0.1347
  405MOL0     H54655   9.154   6.362   1.110 -1.6427  1.6328 -0.2931
  405MOL0     H54656   9.190   6.435   0.966 -1.0042  2.3706  3.8551
  405MOL0     H54657   8.004   6.596   1.107  2.4659 -0.2131  0.7337
  405MOL0     H54658   7.867   6.419   1.153  2.3004  0.0886  1.2655
  405MOL0     H54659   7.658   6.093   0.917 -0.0053  4.2453  2.4086
  405MOL0     H54660   7.457   5.968   0.890 -0.9475  0.9548  0.9509
  405MOL0     H54661   6.560   5.019   0.278 -0.0859  1.9114  0.2339
  405MOL0     H54662   6.471   4.880   0.105  3.0128 -0.1565  1.6525
  405MOL0     H54663   5.949   4.502   0.130 -2.0586  0.1693 -0.6345
  405MOL0     H54664   5.902   4.331  -0.034 -1.9955  1.0668 -1.0318
  405MOL0     H54665   5.816   4.274  -0.248  0.5207  3.0512 -2.9648
  405MOL0     H54666   5.886   4.198  -0.389  0.1212 -2.4754  1.5779
  405MOL0     H54667   5.934   4.122  -0.099  5.5420  0.3406  2.1360
  405MOL0     H54668   6.075   4.134  -0.199  0.2110 -1.2284 -3.3010
  405MOL0     H54669   6.011   3.973  -0.352  1.1286  0.8303  0.6120
  405MOL0     H54670   5.846   3.962  -0.308  1.9328 -0.2601 -3.1653
  405MOL0     H54671   6.055   3.858  -0.109  0.5804 -1.0913 -0.0538
  405MOL0     H54672   5.993   3.768  -0.245 -1.0639 -0.9715  1.7571
  405MOL0     H54673   5.673   3.771   0.036  1.8189  3.6892  2.6562
  405MOL0     H54674   6.222   4.476  -0.293 -1.9064  2.3247 -0.6522
  405MOL0     H54675   6.306   4.615  -0.099  0.6699 -1.2319 -1.8516
  406MOL0     O54676   8.940   0.301   8.393  0.8780 -0.2462  0.9386
  406MOL0     C54677   8.974   0.226   8.481  0.1855 -0.2599  0.2745
  406MOL0     O54678   8.990   0.097   8.464  0.5681  1.0548 -0.1169
  406MOL0     C54679   8.966   0.024   8.347 -0.6775  0.3447  0.8117
  406MOL0     C54680   8.925  -0.105   8.357 -0.1080  0.3119  1.1935
  406MOL0     C54681   8.913  -0.195   8.253 -0.1436  0.3092 -0.0280
  406MOL0     C54682   8.967  -0.154   8.130  0.1794 -0.1608  0.2590
  406MOL0     O54683   8.968  -0.245   8.028 -0.0418 -0.5163 -0.5214
  406MOL0     C54684   8.866  -0.221   7.926 -0.1634 -0.1795 -0.3637
  406MOL0     C54685   8.781  -0.343   7.874  0.4602 -0.0093  0.3428
  406MOL0     C54686   8.687  -0.395   7.985  0.1306 -0.3612 -0.0405
  406MOL0     C54687   8.559  -0.309   8.004 -0.5237  0.6129 -1.3537
  406MOL0     C54688   8.509  -0.331   8.148 -0.2882  0.5648 -0.1271
  406MOL0     C54689   8.429  -0.215   8.203  0.5722 -0.0626 -0.0728
  406MOL0     C54690   8.386  -0.252   8.348  0.6476 -0.0875 -0.7142
  406MOL0     C54691   8.283  -0.146   8.404 -0.1966  0.1936 -0.1384
  406MOL0     N54692   8.245  -0.154   8.540  0.1622 -0.0213 -0.3894
  406MOL0     C54693   8.334  -0.174   8.644 -0.7221  0.5725 -0.3808
  406MOL0     C54694   8.258  -0.180   8.756 -0.2083  0.9042  0.6683
  406MOL0     C54695   8.303  -0.224   8.897 -0.3470 -0.0144  0.0522
  406MOL0     C54696   8.251  -0.149   9.018  0.6750 -0.0984 -0.3969
  406MOL0     C54697   8.308  -0.007   9.023 -1.0637 -0.3598  0.5397
  406MOL0     C54698   8.255   0.074   9.135 -0.6253  0.1006  0.2976
  406MOL0     O54699   8.339   0.048   9.248  0.0817  0.3121  0.1364
  406MOL0     C54700   8.285  -0.008   9.358 -0.5843  0.4016 -0.7109
  406MOL0     C54701   8.191  -0.107   9.356  0.5209 -0.3653  0.2866
  406MOL0     C54702   8.156  -0.181   9.473 -0.5472 -0.4647  0.1088
  406MOL0     C54703   8.068  -0.297   9.457 -0.7216 -0.4663  0.2711
  406MOL0     C54704   8.207  -0.144   9.599 -0.1036  0.7665 -0.2565
  406MOL0     C54705   8.191  -0.203   9.730  0.5281 -0.2224  0.3443
  406MOL0     O54706   8.253  -0.148   9.841 -0.2061 -0.2517 -0.4918
  406MOL0     C54707   8.189  -0.167   9.956 -0.2042 -0.0746 -0.2710
  406MOL0     C54708   8.060  -0.117   9.979 -0.3514  0.6233  0.1021
  406MOL0     C54709   7.993  -0.131  10.093  0.1917  0.7391 -0.1974
  406MOL0     C54710   8.049  -0.197  10.198  0.3737 -0.0939 -0.2675
  406MOL0     O54711   7.963  -0.219  10.311  0.1712 -0.4960  0.5729
  406MOL0     C54712   8.013  -0.215  10.441 -0.1629  0.8434 -1.5319
  406MOL0     C54713   7.890  -0.213  10.528  0.5322 -0.1102 -0.6845
  406MOL0     C54714   7.915  -0.206  10.682  0.4039  0.5089  0.0156
  406MOL0     C54715   8.002  -0.088  10.722  0.4151 -0.2002 -0.6172
  406MOL0     C54716   7.999  -0.073  10.867  0.7319  0.5198  0.4766
  406MOL0     C54717   8.056   0.061  10.916 -1.6073 -0.1987 -0.4906
  406MOL0     C54718   7.971   0.185  10.889 -0.4093 -0.4137  0.1080
  406MOL0     C54719   8.049   0.314  10.911  0.5990  0.0804  0.0507
  406MOL0    Cl54720   8.128   0.343  10.755  0.0529  0.0458 -0.4249
  406MOL0     C54721   8.181  -0.248  10.181  0.8897 -0.5885  0.3271
  406MOL0     C54722   8.252  -0.238  10.054  0.6208 -0.3703  0.0353
  406MOL0     O54723   8.119  -0.296   9.731  0.5502 -0.3153 -0.0998
  406MOL0     C54724   8.309  -0.043   9.601  0.9537 -1.1992 -0.6973
  406MOL0     C54725   8.347   0.028   9.483  0.2954  0.1881 -0.0952
  406MOL0     N54726   8.127  -0.157   8.724 -0.1722  0.9411 -0.0908
  406MOL0     N54727   8.121  -0.141   8.591  0.6506 -0.2545 -0.3410
  406MOL0     C54728   9.025  -0.023   8.114 -0.6014  1.0841 -0.0601
  406MOL0     C54729   9.033   0.061   8.222 -0.3769  0.1374  0.1927
  406MOL0     C54730   9.010   0.281   8.615 -0.0615 -0.6208  0.4787
  406MOL0     C54731   8.941   0.405   8.651 -0.3143  0.2775  0.4336
  406MOL0     C54732   8.968   0.460   8.782 -0.6912 -1.4263  0.7542
  406MOL0     C54733   9.068   0.403   8.863  0.6957  0.0580 -0.2972
  406MOL0     O54734   9.107   0.451   8.983  0.6664 -0.5574 -0.7915
  406MOL0     C54735   9.045   0.579   9.024  0.2065 -0.3939  0.9689
  406MOL0     C54736   9.113   0.633   9.144  0.5500  0.1377  0.0929
  406MOL0     C54737   9.257   0.667   9.116  0.1676  0.6170  0.3676
  406MOL0     C54738   9.305   0.792   9.196  0.1995 -0.5146 -0.4681
  406MOL0     C54739   9.320   0.768   9.337  0.4956  0.0719  0.0526
  406MOL0     C54740   9.334   0.750   9.461  0.4582 -0.6563 -1.3655
  406MOL0     C54741   9.129   0.278   8.826 -0.5273  0.0234  0.6365
  406MOL0     C54742   9.096   0.220   8.701 -0.5477 -0.0239 -0.4980
  406MOL0     H54743   8.913  -0.155   8.453 -2.0869  0.0685  0.8650
  406MOL0     H54744   8.881  -0.297   8.268  1.6585  0.0442  2.7646
  406MOL0     H54745   8.792  -0.146   7.955  1.6979  1.6593 -0.0868
  406MOL0     H54746   8.918  -0.164   7.848 -2.2985  1.5210 -0.6396
  406MOL0     H54747   8.721  -0.316   7.787 -2.5254  0.3522  2.3834
  406MOL0     H54748   8.858  -0.416   7.847  0.5403  0.2882 -0.2423
  406MOL0     H54749   8.657  -0.495   7.955 -0.5400  0.0865 -0.9094
  406MOL0     H54750   8.752  -0.389   8.074 -0.3137  2.0185  0.1965
  406MOL0     H54751   8.574  -0.202   7.986 -5.7699  1.6385 -1.2401
  406MOL0     H54752   8.487  -0.333   7.926  1.0124  1.7822 -3.2240
  406MOL0     H54753   8.435  -0.411   8.145  1.0489 -0.7020 -0.1778
  406MOL0     H54754   8.578  -0.364   8.227 -1.7803  0.2961  1.1062
  406MOL0     H54755   8.494  -0.127   8.204 -1.1331  1.2781  1.1042
  406MOL0     H54756   8.347  -0.179   8.139  1.0662  3.0343  0.8434
  406MOL0     H54757   8.336  -0.349   8.362  0.2753 -0.1264 -2.1813
  406MOL0     H54758   8.472  -0.258   8.416 -0.6031  0.8656  1.0411
  406MOL0     H54759   8.189  -0.149   8.348 -0.8725  0.6504  0.9390
  406MOL0     H54760   8.338  -0.052   8.393  1.1309 -0.5218  0.1548
  406MOL0     H54761   8.441  -0.194   8.634 -0.2149  2.7719  0.0506
  406MOL0     H54762   8.278  -0.330   8.907  3.0058 -1.0151 -0.8341
  406MOL0     H54763   8.412  -0.218   8.892 -0.3493 -0.7567 -1.9932
  406MOL0     H54764   8.297  -0.206   9.099 -0.4377 -0.4471  0.0096
  406MOL0     H54765   8.143  -0.166   9.007  0.6416  0.3981 -0.9075
  406MOL0     H54766   8.280   0.038   8.927  1.9881  4.1320  1.4517
  406MOL0     H54767   8.417  -0.007   9.020 -0.9026  3.2517 -3.9060
  406MOL0     H54768   8.148   0.067   9.156 -0.5410 -0.9519  0.4344
  406MOL0     H54769   8.270   0.179   9.109  0.4546  0.0100  0.4979
  406MOL0     H54770   8.146  -0.134   9.261  1.3388  1.6993 -0.7659
  406MOL0     H54771   7.982  -0.299   9.525 -1.2616 -1.1056 -0.4146
  406MOL0     H54772   8.036  -0.291   9.353 -0.8577  1.5699  0.3834
  406MOL0     H54773   8.135  -0.383   9.466  0.5106 -0.0069 -3.1094
  406MOL0     H54774   8.007  -0.079   9.893 -2.6656 -0.1564  1.1222
  406MOL0     H54775   7.893  -0.088  10.096 -0.3286 -0.4600  0.0281
  406MOL0     H54776   8.072  -0.304  10.464 -3.3221 -0.9975  0.2262
  406MOL0     H54777   8.070  -0.124  10.463  1.3299  0.0159 -1.8601
  406MOL0     H54778   7.833  -0.127  10.493  0.1391 -0.3829 -0.7206
  406MOL0     H54779   7.833  -0.304  10.510  3.1130 -2.3777  1.5720
  406MOL0     H54780   7.973  -0.291  10.717  2.2731  2.4929  2.1374
  406MOL0     H54781   7.822  -0.211  10.740 -0.6125 -0.3499 -1.6207
  406MOL0     H54782   8.102  -0.107  10.682  0.1807 -2.8563 -0.0900
  406MOL0     H54783   7.968   0.002  10.669 -2.0830  0.6366  2.1547
  406MOL0     H54784   8.051  -0.159  10.910 -1.7683 -1.9590 -1.1136
  406MOL0     H54785   7.897  -0.079  10.906  0.1831 -2.6910 -1.1157
  406MOL0     H54786   8.078   0.059  11.023  1.4642  3.1040 -0.8748
  406MOL0     H54787   8.156   0.089  10.881 -0.6330  1.0589  2.9597
  406MOL0     H54788   7.892   0.172  10.964  2.6346  0.1330  3.7695
  406MOL0     H54789   7.924   0.187  10.791  0.9583 -3.6743 -0.7184
  406MOL0     H54790   8.123   0.298  10.990 -1.2266 -0.0848  1.7987
  406MOL0     H54791   7.981   0.398  10.928 -1.2878 -0.8222 -2.4188
  406MOL0     H54792   8.232  -0.290  10.267  0.7728  0.9428  1.1765
  406MOL0     H54793   8.339  -0.303  10.052 -0.1020 -1.3606 -0.0521
  406MOL0     H54794   8.353  -0.001   9.691  1.4567  1.5670 -2.1356
  406MOL0     H54795   8.421   0.107   9.472  2.1774 -1.6407 -1.2073
  406MOL0     H54796   9.069  -0.000   8.018  0.9335 -0.7974  0.1271
  406MOL0     H54797   9.084   0.157   8.215 -0.7800  0.2816 -0.8832
  406MOL0     H54798   8.868   0.449   8.584  0.2117  0.3267 -0.1162
  406MOL0     H54799   8.914   0.545   8.824  0.9647  0.7222 -1.2056
  406MOL0     H54800   9.037   0.652   8.943  2.3216  0.4329  1.4451
  406MOL0     H54801   8.944   0.567   9.064 -0.1596  1.8544  0.8495
  406MOL0     H54802   9.113   0.558   9.224 -1.0684 -1.1483 -1.0474
  406MOL0     H54803   9.060   0.713   9.198  0.7195 -0.2889  0.9186
  406MOL0     H54804   9.260   0.691   9.009 -2.8449 -0.7231 -0.1246
  406MOL0     H54805   9.316   0.578   9.141 -0.1323 -0.5611 -2.6688
  406MOL0     H54806   9.242   0.878   9.172 -0.6913 -1.3267 -1.1369
  406MOL0     H54807   9.404   0.822   9.158  1.2778  0.8551  3.0762
  406MOL0     H54808   9.343   0.747   9.568  2.1255 -1.6933 -1.4837
  406MOL0     H54809   9.194   0.234   8.901 -1.0194 -0.7662  0.6156
  406MOL0     H54810   9.135   0.123   8.671 -2.7894 -1.5175  1.0933
  407MOL0     O54811   8.825   7.937   9.846  0.6304  0.2386  0.1849
  407MOL0     C54812   8.716   7.902   9.888  1.3007  0.1920 -0.5568
  407MOL0     O54813   8.685   7.877  10.021 -0.0223  0.8172 -0.0541
  407MOL0     C54814   8.765   7.904  10.125 -0.0838  0.3677  1.4948
  407MOL0     C54815   8.740   7.816  10.229  0.4320  0.9753  0.6055
  407MOL0     C54816   8.792   7.829  10.357 -0.5257 -0.7292  0.4510
  407MOL0     C54817   8.886   7.937  10.380  0.9542  0.3072  0.2820
  407MOL0     O54818   8.945   7.955  10.507  0.6182 -0.0127 -0.2062
  407MOL0     C54819   8.874   8.040  10.600 -1.1668  0.5274 -0.2989
  407MOL0     C54820   8.932   8.037  10.739 -0.9433 -0.3309 -1.2791
  407MOL0     C54821   8.977   7.903  10.798 -0.6210  1.5657 -0.6238
  407MOL0     C54822   8.975   7.889  10.957  0.3531  0.1871  0.2047
  407MOL0     C54823   9.086   7.969  11.029  0.4863  0.6296  0.2521
  407MOL0     C54824   9.104   7.907  11.167 -0.2868  0.1823 -0.4082
  407MOL0     C54825   9.222   7.977  11.239  0.3066  0.8591  0.5497
  407MOL0     C54826   9.352   7.891  11.246 -0.1151 -0.0250 -0.4236
  407MOL0     N54827   9.437   7.879  11.120  0.6384  0.1864 -0.0355
  407MOL0     C54828   9.451   7.978  11.016 -0.5947  0.8731 -0.1760
  407MOL0     C54829   9.509   7.912  10.910 -0.2846 -1.0857 -0.4738
  407MOL0     C54830   9.550   7.975  10.777 -0.0369 -0.2024  0.9581
  407MOL0     C54831   9.464   7.919  10.656  0.6383  0.2239  0.1528
  407MOL0     C54832   9.350   8.016  10.628 -0.0816  0.4201 -0.9951
  407MOL0     C54833   9.286   7.972  10.503  1.0275  0.9404 -0.1058
  407MOL0     O54834   9.370   8.020  10.395  0.2826  0.3881 -0.7664
  407MOL0     C54835   9.348   7.961  10.271 -0.0280 -0.3037 -0.3848
  407MOL0     C54836   9.249   7.870  10.237 -0.5202  1.0014  0.2589
  407MOL0     C54837   9.235   7.826  10.105 -0.0655  0.7430  0.0729
  407MOL0     C54838   9.135   7.714  10.088  1.0612 -0.5567  1.2679
  407MOL0     C54839   9.311   7.883  10.001  0.2073 -0.2298  0.3916
  407MOL0     C54840   9.316   7.818   9.860 -0.0407 -1.4123 -0.5062
  407MOL0     O54841   9.221   7.727   9.835 -0.6848 -0.4094  0.5691
  407MOL0     C54842   9.203   7.691   9.699  0.2388  0.1725 -0.2391
  407MOL0     C54843   9.290   7.600   9.627 -1.2605  0.0927 -1.0279
  407MOL0     C54844   9.280   7.584   9.485 -0.4842 -0.1906 -0.5705
  407MOL0     C54845   9.190   7.664   9.416  0.3884 -0.1152  0.1652
  407MOL0     O54846   9.189   7.667   9.281 -0.4966  0.0006  0.2558
  407MOL0     C54847   9.198   7.541   9.214  0.6382  0.1200  0.7908
  407MOL0     C54848   9.130   7.539   9.078  0.1361 -0.0959  0.2988
  407MOL0     C54849   9.212   7.632   8.983  0.1927  0.0805  0.6079
  407MOL0     C54850   9.323   7.568   8.897 -0.2402 -0.8597 -1.3827
  407MOL0     C54851   9.403   7.668   8.815 -0.0436  0.5817 -0.1508
  407MOL0     C54852   9.514   7.736   8.896  0.0842  0.1657  0.0307
  407MOL0     C54853   9.620   7.791   8.809 -0.7217 -0.5824 -0.6050
  407MOL0     C54854   9.733   7.851   8.891  0.1795 -0.6252 -0.4846
  407MOL0    Cl54855   9.808   7.726   9.004  0.0675  0.0098 -0.2887
  407MOL0     C54856   9.109   7.752   9.493  0.4501 -0.1225  0.9154
  407MOL0     C54857   9.104   7.756   9.633 -0.5281  0.3273 -0.2255
  407MOL0     O54858   9.413   7.843   9.788 -0.0963 -0.3058 -0.1136
  407MOL0     C54859   9.404   7.983  10.041  0.8709 -1.0146  0.0531
  407MOL0     C54860   9.418   8.023  10.170 -0.2596 -0.1395 -0.3926
  407MOL0     N54861   9.532   7.779  10.949 -0.5792  0.4283 -0.8587
  407MOL0     N54862   9.497   7.770  11.074  0.8855 -0.4694 -0.2863
  407MOL0     C54863   8.919   8.015  10.270  0.6526  1.3368 -0.2757
  407MOL0     C54864   8.853   8.010  10.145 -0.7454 -0.2840 -0.1512
  407MOL0     C54865   8.604   7.895   9.788 -0.1213  0.8580  0.3342
  407MOL0     C54866   8.495   7.808   9.815 -0.5610 -0.5550  1.1713
  407MOL0     C54867   8.402   7.794   9.712  0.1944 -0.3739 -0.0085
  407MOL0     C54868   8.422   7.838   9.583  0.0369  0.7566 -0.5786
  407MOL0     O54869   8.342   7.800   9.475  0.1561 -0.0401  0.1989
  407MOL0     C54870   8.210   7.860   9.478  0.0950 -0.1454 -0.2247
  407MOL0     C54871   8.168   7.888   9.333  0.1984  1.3068  0.6717
  407MOL0     C54872   8.268   7.972   9.261  0.0096 -0.0627 -0.5509
  407MOL0     C54873   8.236   8.006   9.126 -0.2881 -0.3796 -0.2775
  407MOL0     C54874   8.357   8.044   9.057 -0.4818 -0.7239 -0.2164
  407MOL0     C54875   8.457   8.081   9.001  0.5056  0.7192 -0.6908
  407MOL0     C54876   8.542   7.903   9.555  0.1136  0.3873  0.0462
  407MOL0     C54877   8.634   7.936   9.660  0.3606 -1.2446 -0.2344
  407MOL0     H54878   8.661   7.741  10.223  2.8225 -1.6767  0.2531
  407MOL0     H54879   8.754   7.773  10.442 -1.0848  1.6195  1.8073
  407MOL0     H54880   8.865   8.143  10.567 -1.2061  1.3597  2.1158
  407MOL0     H54881   8.768   8.013  10.604 -1.1064  0.3342  0.0647
  407MOL0     H54882   9.003   8.120  10.739 -1.0199 -0.2651 -1.2358
  407MOL0     H54883   8.861   8.077  10.812  0.5690  0.7890 -0.3648
  407MOL0     H54884   8.922   7.821  10.751  2.5948 -0.1216 -1.6699
  407MOL0     H54885   9.081   7.885  10.771 -0.8998  1.3135 -1.5792
  407MOL0     H54886   8.883   7.928  11.002 -0.4132 -1.7078  0.3800
  407MOL0     H54887   8.974   7.787  10.995 -2.4965  0.3391  0.7589
  407MOL0     H54888   9.181   7.953  10.978  2.7796  2.5132  3.5881
  407MOL0     H54889   9.060   8.074  11.040 -2.7336 -0.0526  0.2779
  407MOL0     H54890   9.009   7.911  11.220  0.5564  0.5331  1.1336
  407MOL0     H54891   9.120   7.799  11.166  0.5334  0.1401  3.2482
  407MOL0     H54892   9.251   8.075  11.200 -0.7411  0.5262 -1.1598
  407MOL0     H54893   9.190   7.991  11.342  2.8550  2.5558  1.1959
  407MOL0     H54894   9.351   7.808  11.317 -1.0282  0.1278 -0.2496
  407MOL0     H54895   9.411   7.949  11.318 -0.0683  0.2985 -0.7192
  407MOL0     H54896   9.428   8.083  11.002  0.5776  1.0602 -0.8386
  407MOL0     H54897   9.553   8.084  10.780 -0.0783 -0.1480 -0.3794
  407MOL0     H54898   9.647   7.934  10.745 -1.5019 -1.0716 -2.8721
  407MOL0     H54899   9.427   7.818  10.674  1.3381  0.1207  1.0965
  407MOL0     H54900   9.535   7.922  10.573 -0.4186  0.0574 -0.7849
  407MOL0     H54901   9.375   8.122  10.624  1.1534  0.1276 -4.3120
  407MOL0     H54902   9.278   7.998  10.708  2.4604  0.2427  1.3934
  407MOL0     H54903   9.185   8.013  10.498 -0.4044 -1.3733  4.4831
  407MOL0     H54904   9.292   7.864  10.513  1.7795  1.1888  3.7950
  407MOL0     H54905   9.186   7.818  10.309 -0.5854 -2.8989 -2.3309
  407MOL0     H54906   9.187   7.629  10.042  1.3716  0.5906 -0.5993
  407MOL0     H54907   9.091   7.681  10.183  1.0414  1.8708  2.1548
  407MOL0     H54908   9.048   7.734  10.025  2.0736 -1.2682 -0.4225
  407MOL0     H54909   9.371   7.546   9.674 -1.4082  1.0165  0.3588
  407MOL0     H54910   9.354   7.520   9.439  3.0617  2.7976  0.4024
  407MOL0     H54911   9.303   7.529   9.186  0.5651 -0.8612  0.9061
  407MOL0     H54912   9.162   7.466   9.284 -0.8875  1.3718  1.4049
  407MOL0     H54913   9.133   7.438   9.039  0.8399 -0.2712  0.7847
  407MOL0     H54914   9.026   7.575   9.083  0.8979  2.5394 -0.8925
  407MOL0     H54915   9.261   7.714   9.036  1.8953 -0.5711  0.1068
  407MOL0     H54916   9.141   7.684   8.917  1.0230  0.5969  0.1101
  407MOL0     H54917   9.403   7.526   8.958 -0.8254 -0.1611 -0.0945
  407MOL0     H54918   9.280   7.488   8.836  0.5345 -2.8920  0.5802
  407MOL0     H54919   9.344   7.740   8.757 -1.5176 -0.5836 -0.1556
  407MOL0     H54920   9.459   7.605   8.745 -2.3296 -1.0240 -0.6404
  407MOL0     H54921   9.472   7.822   8.950  0.4570  0.2373  0.2107
  407MOL0     H54922   9.552   7.670   8.974  0.4019  2.0672  1.5763
  407MOL0     H54923   9.572   7.859   8.738 -3.0104  0.1687  1.5224
  407MOL0     H54924   9.660   7.706   8.752 -0.2355 -0.2358 -0.7791
  407MOL0     H54925   9.691   7.922   8.964  2.8973  1.8709 -1.1393
  407MOL0     H54926   9.815   7.886   8.827  0.8077 -0.7666  0.2299
  407MOL0     H54927   9.036   7.819   9.447 -0.2553  0.8232  3.2636
  407MOL0     H54928   9.035   7.828   9.676  1.6947  1.6590  1.3011
  407MOL0     H54929   9.462   8.027   9.960  0.0984 -1.0357 -0.5218
  407MOL0     H54930   9.478   8.111  10.191  1.4070 -1.2469 -0.2546
  407MOL0     H54931   8.984   8.100  10.288  1.8460  0.8076 -1.8393
  407MOL0     H54932   8.875   8.094  10.080 -0.0747  0.3385  0.8631
  407MOL0     H54933   8.485   7.771   9.916 -2.7922  1.4151  1.7432
  407MOL0     H54934   8.311   7.743   9.745 -0.6786  1.1344  0.0164
  407MOL0     H54935   8.145   7.785   9.524  0.2348 -3.0328 -4.1984
  407MOL0     H54936   8.207   7.957   9.528  5.3953 -0.0710  0.5832
  407MOL0     H54937   8.074   7.944   9.341  0.1502  1.4384 -0.6377
  407MOL0     H54938   8.162   7.794   9.277  0.2863 -0.7186  3.7974
  407MOL0     H54939   8.361   7.914   9.259 -0.6919 -1.2176 -1.8995
  407MOL0     H54940   8.278   8.067   9.313  0.6302  0.9517 -2.4385
  407MOL0     H54941   8.156   8.080   9.117 -2.2407 -1.9634  2.6087
  407MOL0     H54942   8.202   7.923   9.062  1.0147  0.6310 -2.4001
  407MOL0     H54943   8.542   8.091   8.938  1.3817 -2.8200 -0.2615
  407MOL0     H54944   8.564   7.917   9.449  1.7405 -3.6312 -0.3503
  407MOL0     H54945   8.719   8.001   9.646 -0.2853 -0.2601  0.2702
  408MOL0     O54946   3.011   0.677   3.790 -0.2976  0.0618 -0.0454
  408MOL0     C54947   3.040   0.568   3.839  0.8972  0.4662  1.6894
  408MOL0     O54948   2.987   0.502   3.949  0.6961 -0.4313  0.0608
  408MOL0     C54949   2.928   0.590   4.041 -0.2784  0.2323 -0.4952
  408MOL0     C54950   2.985   0.613   4.168  0.2509 -0.4448 -0.7468
  408MOL0     C54951   2.921   0.676   4.275  0.8689 -1.2699  0.5965
  408MOL0     C54952   2.787   0.716   4.252 -0.6500  0.1264  0.1839
  408MOL0     O54953   2.723   0.779   4.347 -0.4424 -0.2613 -0.0930
  408MOL0     C54954   2.698   0.914   4.300 -0.5522 -0.3676 -0.7471
  408MOL0     C54955   2.672   0.989   4.428  0.1676 -0.0044 -0.1494
  408MOL0     C54956   2.684   1.142   4.388  1.2045  0.5195  0.2294
  408MOL0     C54957   2.564   1.192   4.312  0.9686 -0.5269  0.2884
  408MOL0     C54958   2.588   1.340   4.264  0.8329 -0.1761  1.1588
  408MOL0     C54959   2.465   1.394   4.192  0.9566  0.8274 -0.6243
  408MOL0     C54960   2.465   1.541   4.149  0.8489  0.2564 -0.0446
  408MOL0     C54961   2.459   1.634   4.276  0.2291 -0.7919  0.0349
  408MOL0     N54962   2.456   1.774   4.239 -0.0558  0.7929  0.2018
  408MOL0     C54963   2.347   1.857   4.220 -0.2220 -0.2167 -0.3731
  408MOL0     C54964   2.392   1.968   4.161 -0.6989 -0.0019  0.4160
  408MOL0     C54965   2.305   2.087   4.131 -0.1002 -0.9805 -0.3971
  408MOL0     C54966   2.272   2.162   4.262 -0.2320  0.8677 -0.4415
  408MOL0     C54967   2.215   2.304   4.251 -0.9321 -0.1739 -0.0989
  408MOL0     C54968   2.162   2.359   4.386 -0.8607  0.0417  1.0704
  408MOL0     O54969   2.265   2.353   4.489  0.3098  0.1593 -0.4572
  408MOL0     C54970   2.322   2.480   4.502  0.9631 -0.3074  0.7144
  408MOL0     C54971   2.435   2.514   4.429 -0.6318 -0.0318  0.0305
  408MOL0     C54972   2.501   2.640   4.449 -0.0689  0.7422 -0.3404
  408MOL0     C54973   2.615   2.672   4.354 -0.6655  0.3407  1.0628
  408MOL0     C54974   2.444   2.732   4.546 -1.1733  0.2787 -0.6751
  408MOL0     C54975   2.518   2.864   4.585 -0.3238  0.0114 -0.1157
  408MOL0     O54976   2.649   2.871   4.565 -0.4130  0.3066  0.8687
  408MOL0     C54977   2.722   2.961   4.637  0.0284 -0.1529  1.5617
  408MOL0     C54978   2.687   3.040   4.750 -0.1627  1.7299 -0.3247
  408MOL0     C54979   2.779   3.136   4.803  0.2251  0.5895  0.0740
  408MOL0     C54980   2.907   3.158   4.745  1.4418  0.9260  0.5028
  408MOL0     O54981   2.999   3.252   4.782  0.0981 -0.2126 -0.1901
  408MOL0     C54982   2.958   3.387   4.826  0.1313  1.4289  1.1042
  408MOL0     C54983   2.997   3.384   4.971 -0.1173 -0.0128 -0.8841
  408MOL0     C54984   3.034   3.519   5.020 -0.4966  0.2423  0.7683
  408MOL0     C54985   3.093   3.529   5.155  0.5118  0.2064  0.3046
  408MOL0     C54986   3.187   3.656   5.157  0.6181 -0.7767  0.2935
  408MOL0     C54987   3.104   3.788   5.146 -0.3603  0.1286 -0.0445
  408MOL0     C54988   3.203   3.903   5.171 -0.3752  0.6718  1.0724
  408MOL0     C54989   3.127   4.024   5.193  0.5358  0.0531  0.4454
  408MOL0    Cl54990   3.084   4.029   5.365  0.1149  0.2747  0.2920
  408MOL0     C54991   2.931   3.078   4.637 -0.4058 -0.4297  0.2617
  408MOL0     C54992   2.847   2.983   4.585 -0.9454 -0.2720  0.0927
  408MOL0     O54993   2.447   2.948   4.630  0.5476 -0.6199 -0.0232
  408MOL0     C54994   2.333   2.695   4.622 -0.2397 -0.2074  0.0138
  408MOL0     C54995   2.272   2.575   4.599  1.0577 -0.5527 -0.2008
  408MOL0     N54996   2.527   1.954   4.149  0.2082 -0.5589  0.7839
  408MOL0     N54997   2.566   1.834   4.183  0.2233 -0.1085  0.1993
  408MOL0     C54998   2.727   0.685   4.125 -0.6427 -0.3855 -0.2452
  408MOL0     C54999   2.799   0.627   4.018 -0.5401  0.7896 -0.8433
  408MOL0     C55000   3.137   0.488   3.764  0.0435  0.7155  0.3182
  408MOL0     C55001   3.241   0.549   3.678  0.4562 -0.2392  0.2474
  408MOL0     C55002   3.331   0.475   3.600 -1.0318 -0.8481 -0.2087
  408MOL0     C55003   3.318   0.335   3.591  0.3017 -0.6276 -0.3685
  408MOL0     O55004   3.387   0.272   3.488  0.4299 -0.3392  0.7443
  408MOL0     C55005   3.437   0.141   3.529 -0.2172 -0.4649 -0.4515
  408MOL0     C55006   3.556   0.114   3.438 -0.2231  1.0144 -0.3047
  408MOL0     C55007   3.523   0.112   3.291 -0.0564 -0.0377  0.3150
  408MOL0     C55008   3.607   0.004   3.216  0.1106  0.0719 -0.4118
  408MOL0     C55009   3.590   0.015   3.075  0.1332 -0.1181 -0.2078
  408MOL0     C55010   3.571   0.019   2.958 -0.5030  0.1647  0.1312
  408MOL0     C55011   3.221   0.272   3.675  0.4675 -0.9676  0.0845
  408MOL0     C55012   3.139   0.342   3.770  0.0059 -0.2870  0.1200
  408MOL0     H55013   3.085   0.572   4.180  1.4699  2.0684 -1.7558
  408MOL0     H55014   2.963   0.707   4.370 -1.0912  3.5690  0.1571
  408MOL0     H55015   2.782   0.958   4.246  1.2208 -1.2520  1.2001
  408MOL0     H55016   2.606   0.919   4.241 -1.5224  0.3180  0.7557
  408MOL0     H55017   2.581   0.962   4.482  1.0153  0.2764  1.4770
  408MOL0     H55018   2.757   0.966   4.493 -0.2685  0.4136  0.5840
  408MOL0     H55019   2.692   1.196   4.483 -2.5321  0.4727  0.7196
  408MOL0     H55020   2.779   1.175   4.346  1.2681  1.6484  1.2030
  408MOL0     H55021   2.544   1.131   4.224  2.3518  2.1978 -2.0851
  408MOL0     H55022   2.484   1.193   4.387  2.0134  3.5360  1.6238
  408MOL0     H55023   2.612   1.414   4.341  0.2918  1.1480  0.0956
  408MOL0     H55024   2.667   1.359   4.191 -0.0272 -0.2320  0.1813
  408MOL0     H55025   2.452   1.345   4.095  0.1875  0.2251 -0.2272
  408MOL0     H55026   2.380   1.386   4.261  2.7021 -0.9180  1.5156
  408MOL0     H55027   2.560   1.572   4.106  1.5338  0.0912  1.2936
  408MOL0     H55028   2.384   1.562   4.079 -0.5378 -2.1305  0.7218
  408MOL0     H55029   2.550   1.631   4.337  0.6096  0.7106 -0.4352
  408MOL0     H55030   2.374   1.615   4.343 -0.7639  0.5299 -0.8112
  408MOL0     H55031   2.247   1.833   4.254  0.5410  0.8253  2.9426
  408MOL0     H55032   2.359   2.160   4.069 -2.2096 -0.2547 -1.4764
  408MOL0     H55033   2.214   2.065   4.076  0.0216  1.6074 -1.8072
  408MOL0     H55034   2.364   2.172   4.322 -0.2930  2.8280 -0.6139
  408MOL0     H55035   2.201   2.103   4.321  0.8183  0.8152  0.8437
  408MOL0     H55036   2.126   2.314   4.188 -0.5634  2.6257 -0.2670
  408MOL0     H55037   2.290   2.375   4.215 -0.9131 -0.5958 -0.9356
  408MOL0     H55038   2.081   2.297   4.425 -0.0717 -1.1689  0.8298
  408MOL0     H55039   2.130   2.462   4.366  2.5523  0.7738 -1.5059
  408MOL0     H55040   2.466   2.437   4.360  0.9178  1.7920 -1.4168
  408MOL0     H55041   2.581   2.762   4.303 -1.6360 -0.0298  1.0473
  408MOL0     H55042   2.710   2.683   4.408 -0.2845  0.8699  0.3009
  408MOL0     H55043   2.626   2.593   4.279 -0.1230  2.0757 -0.7711
  408MOL0     H55044   2.607   3.014   4.818  1.6720 -2.6109  0.5640
  408MOL0     H55045   2.751   3.192   4.891  1.4653  1.6552 -0.1775
  408MOL0     H55046   3.025   3.457   4.776  2.0428 -1.7966 -1.2184
  408MOL0     H55047   2.849   3.395   4.815 -0.0523 -1.1522  0.5013
  408MOL0     H55048   2.920   3.342   5.037  1.7694 -2.9293 -0.3714
  408MOL0     H55049   3.085   3.322   4.988 -0.5343 -0.2070  0.8235
  408MOL0     H55050   2.940   3.573   5.012 -0.7280  0.0061  1.8065
  408MOL0     H55051   3.105   3.557   4.946 -0.5380  1.3925  1.3030
  408MOL0     H55052   3.009   3.536   5.225 -0.5739 -1.7248 -0.7276
  408MOL0     H55053   3.145   3.437   5.186  2.6156  1.2722  0.1030
  408MOL0     H55054   3.256   3.646   5.073 -0.0189  3.5119 -0.9831
  408MOL0     H55055   3.238   3.652   5.254 -1.4821  0.4913  1.5267
  408MOL0     H55056   3.064   3.799   5.045 -2.6878 -0.9731  0.6983
  408MOL0     H55057   3.020   3.794   5.216  1.7500  1.3685  2.5707
  408MOL0     H55058   3.258   3.934   5.081  0.0260  0.5523  1.2759
  408MOL0     H55059   3.263   3.877   5.258  0.8906 -0.5963 -0.1175
  408MOL0     H55060   3.031   4.023   5.141  1.1799 -1.5058 -0.7870
  408MOL0     H55061   3.184   4.105   5.148  0.6196 -0.6320 -0.7065
  408MOL0     H55062   3.032   3.089   4.596 -1.5935 -1.4674 -3.3494
  408MOL0     H55063   2.879   2.909   4.512 -1.7127  0.5923 -1.1557
  408MOL0     H55064   2.300   2.757   4.704  2.7292  0.9683  0.4188
  408MOL0     H55065   2.186   2.554   4.662 -0.2632  2.7042 -0.7512
  408MOL0     H55066   2.623   0.703   4.100 -0.7462 -1.5403 -0.7539
  408MOL0     H55067   2.750   0.610   3.923 -0.5970  0.8470 -0.8248
  408MOL0     H55068   3.227   0.656   3.675 -2.8183 -0.5596 -0.5238
  408MOL0     H55069   3.392   0.525   3.526 -5.0080  0.7717 -2.7127
  408MOL0     H55070   3.467   0.138   3.634 -0.5283 -0.5287 -0.3627
  408MOL0     H55071   3.357   0.066   3.525 -1.7591  1.1611 -2.3156
  408MOL0     H55072   3.597   0.015   3.464  1.1605  0.6632 -3.3215
  408MOL0     H55073   3.631   0.189   3.462  0.4721 -0.3502  2.0479
  408MOL0     H55074   3.542   0.210   3.247  3.9017 -0.3830  0.8597
  408MOL0     H55075   3.416   0.090   3.288 -0.5746  2.3576 -1.1633
  408MOL0     H55076   3.577  -0.097   3.245  1.3133 -0.2060 -0.0412
  408MOL0     H55077   3.710   0.011   3.253 -1.4685 -0.3675  4.9517
  408MOL0     H55078   3.547   0.019   2.854 -0.5398 -1.7149  0.1109
  408MOL0     H55079   3.204   0.165   3.681 -0.1697 -0.9622 -1.2779
  408MOL0     H55080   3.067   0.275   3.817  2.6276 -4.3607 -1.1424
  409MOL0     O55081   6.432   5.204   6.791 -0.1302  0.0409  0.2070
  409MOL0     C55082   6.352   5.148   6.870  0.7701  0.7509 -0.1401
  409MOL0     O55083   6.384   5.060   6.968  0.0684 -0.6209 -0.1960
  409MOL0     C55084   6.514   5.021   6.983 -0.2777 -0.0566  0.3888
  409MOL0     C55085   6.575   5.022   7.120 -0.3940 -0.0262  0.0119
  409MOL0     C55086   6.695   4.954   7.142  0.0567 -0.3913  1.0883
  409MOL0     C55087   6.759   4.891   7.034 -0.1765 -0.0550 -1.2658
  409MOL0     O55088   6.881   4.825   7.059  0.3424 -0.4215  0.3890
  409MOL0     C55089   6.980   4.911   7.112  1.2740 -0.5262  0.2404
  409MOL0     C55090   7.128   4.878   7.064 -0.4467  0.6943 -0.8108
  409MOL0     C55091   7.168   4.769   7.161  0.5306 -0.4032 -0.5036
  409MOL0     C55092   7.314   4.724   7.150  0.5869 -0.5897  0.4988
  409MOL0     C55093   7.351   4.588   7.215 -0.1174 -0.1913  1.2033
  409MOL0     C55094   7.508   4.575   7.218 -0.0211 -0.1920  0.1639
  409MOL0     C55095   7.548   4.431   7.232  0.1736 -0.0035 -1.1275
  409MOL0     C55096   7.697   4.418   7.258  0.2074 -0.3782  0.5871
  409MOL0     N55097   7.742   4.286   7.296 -0.7245 -0.4043 -0.4340
  409MOL0     C55098   7.698   4.157   7.257 -0.0721  0.7929 -0.2678
  409MOL0     C55099   7.795   4.068   7.261  0.0658  0.2038  0.2044
  409MOL0     C55100   7.795   3.936   7.191  0.6617 -0.1292 -0.4085
  409MOL0     C55101   7.748   3.833   7.292 -0.1544  0.2041 -0.4218
  409MOL0     C55102   7.613   3.775   7.238 -0.2234 -0.5193  0.1294
  409MOL0     C55103   7.484   3.865   7.238  0.2713 -0.2880 -0.6031
  409MOL0     O55104   7.362   3.796   7.241 -0.1568  0.6673  0.5536
  409MOL0     C55105   7.248   3.857   7.287  0.0573 -0.0376 -0.1597
  409MOL0     C55106   7.247   3.965   7.377  0.6276 -0.6611 -0.0847
  409MOL0     C55107   7.129   4.022   7.425  0.4568  0.3766 -0.3469
  409MOL0     C55108   7.138   4.136   7.522  0.1241 -1.1771  0.7355
  409MOL0     C55109   7.006   3.993   7.359  0.1904  0.2513 -0.8050
  409MOL0     C55110   6.870   4.031   7.411 -0.1602 -0.2702 -0.7471
  409MOL0     O55111   6.758   3.989   7.340  0.2713  0.2395 -0.7278
  409MOL0     C55112   6.640   4.009   7.402  0.6030  0.2468 -1.0492
  409MOL0     C55113   6.563   3.896   7.425  0.1999 -0.3545 -0.5728
  409MOL0     C55114   6.422   3.912   7.449  0.1501  0.7224  0.5770
  409MOL0     C55115   6.362   4.042   7.463 -0.1180  0.9722 -0.9765
  409MOL0     O55116   6.229   4.046   7.509  0.6056 -0.2318  0.7439
  409MOL0     C55117   6.182   3.956   7.606 -0.2052 -0.1313 -0.4118
  409MOL0     C55118   6.038   4.000   7.660 -0.0851  0.7612  0.2068
  409MOL0     C55119   6.016   4.152   7.664  0.2597 -0.1919 -0.4425
  409MOL0     C55120   5.878   4.185   7.725 -0.0506 -0.4538  0.6007
  409MOL0     C55121   5.833   4.324   7.671 -0.3978 -0.4667 -0.6726
  409MOL0     C55122   5.675   4.338   7.681  0.2600  0.0610 -0.0403
  409MOL0     C55123   5.612   4.409   7.555 -0.5516 -0.7850 -0.7143
  409MOL0     C55124   5.463   4.433   7.567  0.0016  1.0525 -0.0561
  409MOL0    Cl55125   5.440   4.567   7.674 -0.0361 -0.3421 -0.3260
  409MOL0     C55126   6.444   4.152   7.468 -0.5274 -0.9395  0.3497
  409MOL0     C55127   6.580   4.136   7.431  0.1451 -0.2267 -0.0014
  409MOL0     O55128   6.872   4.080   7.522  0.2051  0.6532  0.4487
  409MOL0     C55129   7.013   3.894   7.257 -0.3482 -0.1610  0.3647
  409MOL0     C55130   7.131   3.818   7.230 -0.1561  0.0937  0.1298
  409MOL0     N55131   7.906   4.135   7.312  0.2302 -0.4724  0.3850
  409MOL0     N55132   7.870   4.261   7.338  0.1862  0.7549 -0.0069
  409MOL0     C55133   6.697   4.893   6.909  0.9248  0.0420 -0.4160
  409MOL0     C55134   6.579   4.958   6.883  0.5108 -0.3640 -0.2571
  409MOL0     C55135   6.210   5.175   6.849 -0.2592  0.8782 -0.6739
  409MOL0     C55136   6.119   5.126   6.937  1.4171 -0.1141 -0.5259
  409MOL0     C55137   5.978   5.147   6.912  0.2115  0.4154  1.1021
  409MOL0     C55138   5.931   5.210   6.802  1.1456  0.2618 -0.5249
  409MOL0     O55139   5.799   5.228   6.774 -0.7951  0.6204 -0.3348
  409MOL0     C55140   5.742   5.178   6.647  0.3460  1.0888 -0.0561
  409MOL0     C55141   5.599   5.130   6.670 -0.1972  0.5276  0.3547
  409MOL0     C55142   5.561   4.988   6.734 -0.2591 -0.5156  0.5384
  409MOL0     C55143   5.571   4.862   6.644  0.0182  0.5879  0.5043
  409MOL0     C55144   5.460   4.866   6.540 -0.2052 -0.2255 -0.9499
  409MOL0     C55145   5.381   4.860   6.453 -0.0980  0.4261  0.4535
  409MOL0     C55146   6.025   5.258   6.705  1.1967 -0.3139  0.2824
  409MOL0     C55147   6.160   5.238   6.737  0.4985  0.0633 -0.1508
  409MOL0     H55148   6.502   5.040   7.198 -0.2845  0.1290  0.0792
  409MOL0     H55149   6.750   4.966   7.235  0.9266 -1.0039  0.6577
  409MOL0     H55150   6.958   5.013   7.080 -0.4750 -0.5238  1.3184
  409MOL0     H55151   6.965   4.910   7.220 -1.5756 -0.1728 -0.0695
  409MOL0     H55152   7.113   4.853   6.959  1.6332  3.7453 -1.9833
  409MOL0     H55153   7.193   4.965   7.070 -0.9253  1.1152 -1.6476
  409MOL0     H55154   7.155   4.786   7.268  1.2716 -1.6105 -0.2024
  409MOL0     H55155   7.101   4.687   7.134  1.6302 -0.6608 -2.6096
  409MOL0     H55156   7.332   4.736   7.043  0.8474  1.0378  0.7089
  409MOL0     H55157   7.378   4.800   7.196  0.5271 -0.5353  0.4938
  409MOL0     H55158   7.307   4.595   7.315 -0.5001 -1.5548  1.1490
  409MOL0     H55159   7.314   4.505   7.154  1.8315 -0.9432  0.9705
  409MOL0     H55160   7.547   4.609   7.121 -2.2513  0.0750 -0.6902
  409MOL0     H55161   7.546   4.636   7.300 -0.1842  0.3790 -0.1803
  409MOL0     H55162   7.490   4.387   7.314  0.1792 -0.4958 -1.3836
  409MOL0     H55163   7.524   4.372   7.143  2.0794 -1.4049 -0.7639
  409MOL0     H55164   7.739   4.494   7.325  1.3913 -0.3287 -0.1918
  409MOL0     H55165   7.746   4.430   7.161  2.4739 -0.4881  1.6573
  409MOL0     H55166   7.601   4.142   7.210  0.6625  2.3096 -2.4490
  409MOL0     H55167   7.743   3.930   7.095 -1.9507  1.7092  0.7740
  409MOL0     H55168   7.901   3.919   7.168  1.3358  2.3705  0.5953
  409MOL0     H55169   7.723   3.880   7.388  1.1240  0.3526 -0.1358
  409MOL0     H55170   7.810   3.743   7.304  2.1081  1.5832 -1.0743
  409MOL0     H55171   7.583   3.689   7.299 -3.8618  0.2591 -0.3593
  409MOL0     H55172   7.625   3.730   7.139 -0.6079 -1.0314  0.3115
  409MOL0     H55173   7.482   3.909   7.138  1.3605 -1.1942 -1.0389
  409MOL0     H55174   7.496   3.925   7.329 -1.0038 -2.7631  1.3416
  409MOL0     H55175   7.345   3.997   7.410  0.8259 -2.9313  1.8115
  409MOL0     H55176   7.237   4.182   7.533 -0.8436  1.5923 -1.1406
  409MOL0     H55177   7.084   4.220   7.478  1.0976  0.3584  2.3216
  409MOL0     H55178   7.094   4.115   7.620 -1.3989 -2.8818 -0.2618
  409MOL0     H55179   6.608   3.797   7.425  0.3372 -0.2990 -1.4611
  409MOL0     H55180   6.364   3.825   7.476  1.0131 -0.3530 -0.8941
  409MOL0     H55181   6.178   3.851   7.575 -1.0355 -1.3203  3.1599
  409MOL0     H55182   6.255   3.963   7.688  1.3867 -2.1921 -1.5516
  409MOL0     H55183   5.956   3.958   7.601  0.8198  0.6456 -0.9867
  409MOL0     H55184   6.025   3.951   7.757  0.2953 -1.1529 -0.6679
  409MOL0     H55185   6.024   4.194   7.563 -0.3246 -3.2217 -1.8725
  409MOL0     H55186   6.097   4.195   7.722 -2.1492  3.5449  0.5190
  409MOL0     H55187   5.807   4.114   7.682 -0.4720 -1.2925  2.6218
  409MOL0     H55188   5.884   4.186   7.834  0.4243  0.3132  0.5756
  409MOL0     H55189   5.869   4.336   7.568 -0.6438  0.0107 -0.7054
  409MOL0     H55190   5.874   4.409   7.725 -1.5414 -0.0012 -0.5020
  409MOL0     H55191   5.628   4.239   7.677  2.9673 -1.4533  2.0681
  409MOL0     H55192   5.635   4.368   7.778 -2.4919 -3.3486  0.1071
  409MOL0     H55193   5.612   4.331   7.478 -0.3035 -2.4405  0.9019
  409MOL0     H55194   5.664   4.501   7.527  0.4879 -1.8434 -2.4543
  409MOL0     H55195   5.416   4.344   7.610  1.5271 -1.0958 -2.5075
  409MOL0     H55196   5.423   4.456   7.468 -4.0369  4.9081  2.0986
  409MOL0     H55197   6.413   4.251   7.502  0.3582 -0.2439 -0.7992
  409MOL0     H55198   6.647   4.220   7.418  4.7127 -3.1214  2.1533
  409MOL0     H55199   6.923   3.860   7.205 -0.1260  0.8949 -0.7639
  409MOL0     H55200   7.120   3.743   7.152  2.4452  1.3531 -1.6101
  409MOL0     H55201   6.744   4.834   6.831  2.6019  1.4715 -0.5565
  409MOL0     H55202   6.531   4.956   6.786  0.3113 -1.7190 -0.1491
  409MOL0     H55203   6.152   5.093   7.034  0.3559  0.4748  0.0546
  409MOL0     H55204   5.907   5.108   6.984 -1.8054 -1.8678 -1.9015
  409MOL0     H55205   5.726   5.263   6.580 -2.1508 -0.6822 -1.9005
  409MOL0     H55206   5.807   5.106   6.595  1.1817  1.4633  0.4444
  409MOL0     H55207   5.565   5.128   6.566 -0.4948 -1.4821  0.4628
  409MOL0     H55208   5.540   5.208   6.720 -0.3184  0.8362 -0.2552
  409MOL0     H55209   5.459   4.989   6.772  0.4852 -1.8425  2.7650
  409MOL0     H55210   5.625   4.981   6.822 -3.3269  2.8821  3.3267
  409MOL0     H55211   5.546   4.778   6.709 -2.2197  0.3521 -0.5711
  409MOL0     H55212   5.668   4.846   6.596 -1.3686 -0.4625 -2.1699
  409MOL0     H55213   5.303   4.854   6.379 -0.6066  0.4791  0.9825
  409MOL0     H55214   5.995   5.311   6.615 -3.6737  3.2250  3.4849
  409MOL0     H55215   6.242   5.271   6.674  2.0692 -0.2742  1.6207
  410MOL0     O55216   4.251   8.662   6.842 -0.9788  0.3086  0.4517
  410MOL0     C55217   4.266   8.631   6.956 -0.3513 -0.6159  0.1437
  410MOL0     O55218   4.164   8.612   7.047 -0.5491 -0.3604 -0.2989
  410MOL0     C55219   4.035   8.641   7.005  0.0344  0.7767  0.1370
  410MOL0     C55220   3.971   8.759   7.049  1.3706 -0.7864 -0.2786
  410MOL0     C55221   3.855   8.805   6.992 -0.6415  0.4140  0.0663
  410MOL0     C55222   3.780   8.720   6.902 -0.5130  0.3174 -0.2467
  410MOL0     O55223   3.655   8.745   6.845  0.5445 -0.3999 -0.6029
  410MOL0     C55224   3.569   8.845   6.899  0.0214  0.0609 -0.7527
  410MOL0     C55225   3.539   8.946   6.788 -0.6825 -0.9738  0.1024
  410MOL0     C55226   3.665   9.004   6.715  0.2278  0.3087  0.8272
  410MOL0     C55227   3.635   9.112   6.617 -0.2811  0.1173  0.6660
  410MOL0     C55228   3.750   9.170   6.529  0.8225  0.6457  0.6243
  410MOL0     C55229   3.721   9.306   6.469  0.1205 -0.3046  0.8414
  410MOL0     C55230   3.599   9.305   6.379 -0.2365 -0.3861  0.4336
  410MOL0     C55231   3.564   9.433   6.301 -0.4573  0.2887 -0.5116
  410MOL0     N55232   3.544   9.540   6.392  0.2856  0.1752 -0.2193
  410MOL0     C55233   3.444   9.557   6.482  0.0586 -0.1254  0.5132
  410MOL0     C55234   3.448   9.691   6.505  0.0017 -0.4146 -0.1956
  410MOL0     C55235   3.351   9.763   6.586  0.7446 -0.4399 -0.1022
  410MOL0     C55236   3.220   9.797   6.500  0.2351  0.2857 -0.9596
  410MOL0     C55237   3.143   9.666   6.450 -0.2727  0.4109 -0.3182
  410MOL0     C55238   3.009   9.709   6.393 -0.4135 -0.8466  0.0029
  410MOL0     O55239   2.929   9.784   6.485  0.8109  0.2248 -0.1010
  410MOL0     C55240   2.801   9.805   6.442  0.1902  0.0909  1.3060
  410MOL0     C55241   2.709   9.696   6.437 -0.7975 -0.5482  0.6473
  410MOL0     C55242   2.588   9.703   6.372  0.8015 -0.2102  0.9377
  410MOL0     C55243   2.500   9.588   6.370 -0.6586  0.4208  0.1532
  410MOL0     C55244   2.550   9.833   6.311 -0.0509  0.5571 -0.7356
  410MOL0     C55245   2.441   9.862   6.215  1.2719  0.2226  0.2876
  410MOL0     O55246   2.408   9.994   6.195 -0.9662  0.0941  0.2131
  410MOL0     C55247   2.338  10.040   6.076 -1.6598 -0.5428  0.8870
  410MOL0     C55248   2.278   9.953   5.979  0.0063 -0.4986 -0.8092
  410MOL0     C55249   2.198  10.013   5.875 -0.2693 -0.0156 -0.0829
  410MOL0     C55250   2.193  10.155   5.859 -0.0388 -0.0211  0.7160
  410MOL0     O55251   2.125  10.225   5.769  0.6138 -0.2959 -0.2596
  410MOL0     C55252   2.016  10.156   5.716  0.0968  0.0763  0.3429
  410MOL0     C55253   1.936  10.241   5.614 -0.3888 -0.2677 -0.4603
  410MOL0     C55254   1.793  10.187   5.578 -0.0685  0.4593  0.0158
  410MOL0     C55255   1.744  10.260   5.454  0.5167 -0.8237  0.7988
  410MOL0     C55256   1.600  10.213   5.424 -0.5970 -0.4144  0.0116
  410MOL0     C55257   1.499  10.325   5.365 -0.9365 -0.4549  0.3249
  410MOL0     C55258   1.350  10.268   5.380 -0.7063 -0.0330  0.4773
  410MOL0     C55259   1.247  10.372   5.376 -0.2767  0.6772  0.0712
  410MOL0    Cl55260   1.266  10.490   5.509 -0.3266 -0.4182  0.2278
  410MOL0     C55261   2.271  10.231   5.949  0.4028 -0.1910 -0.5878
  410MOL0     C55262   2.329  10.178   6.059 -0.0619 -0.3871 -0.4501
  410MOL0     O55263   2.385   9.767   6.172 -0.0007  0.2275 -0.1008
  410MOL0     C55264   2.631   9.942   6.343  0.4699 -0.1317  0.3391
  410MOL0     C55265   2.755   9.929   6.412 -0.5500 -0.4654  0.3403
  410MOL0     N55266   3.559   9.751   6.452 -0.2405 -0.2388  0.3552
  410MOL0     N55267   3.611   9.659   6.385 -0.5614  0.1831  0.1188
  410MOL0     C55268   3.841   8.592   6.864 -0.9056 -0.1305  0.3985
  410MOL0     C55269   3.970   8.550   6.915 -0.2153 -1.1165 -1.2268
  410MOL0     C55270   4.414   8.601   7.003 -0.0258  0.4940 -0.8736
  410MOL0     C55271   4.527   8.600   6.910  0.3360 -1.4865  0.1279
  410MOL0     C55272   4.659   8.596   6.956 -0.1438  0.1729  0.2376
  410MOL0     C55273   4.682   8.584   7.091  0.1522  0.1118 -0.1806
  410MOL0     O55274   4.805   8.581   7.149  0.3846  0.0844 -0.9610
  410MOL0     C55275   4.866   8.711   7.143 -0.2851 -0.3859  0.7272
  410MOL0     C55276   4.974   8.691   7.251  1.0115  0.2285  0.5329
  410MOL0     C55277   5.080   8.801   7.269 -0.6144 -0.1734  0.1698
  410MOL0     C55278   5.161   8.799   7.400  0.3237 -0.4020 -0.5531
  410MOL0     C55279   5.253   8.900   7.398 -0.3673 -0.6931  0.3587
  410MOL0     C55280   5.329   8.995   7.381  0.4677  0.7243 -0.4863
  410MOL0     C55281   4.579   8.594   7.187  1.0567 -0.6421  1.3974
  410MOL0     C55282   4.445   8.595   7.140 -0.5322  0.1820 -0.3521
  410MOL0     H55283   4.025   8.812   7.127  0.7785 -1.7104  0.7815
  410MOL0     H55284   3.805   8.897   7.022 -0.7572  0.6524 -0.8307
  410MOL0     H55285   3.476   8.795   6.926  0.6908 -0.2234  1.1886
  410MOL0     H55286   3.615   8.898   6.982  2.2423 -0.0625 -1.8212
  410MOL0     H55287   3.475   8.892   6.718 -3.1602  1.2208  0.5044
  410MOL0     H55288   3.481   9.028   6.832  1.1200  1.7245 -2.1535
  410MOL0     H55289   3.731   9.047   6.790  2.7019  1.4026 -1.7937
  410MOL0     H55290   3.714   8.919   6.667 -0.7900  0.3319 -0.3121
  410MOL0     H55291   3.555   9.086   6.546  2.5880 -0.0923 -2.7405
  410MOL0     H55292   3.589   9.194   6.674 -2.2811 -1.2278  1.1191
  410MOL0     H55293   3.844   9.186   6.583  2.9286  2.6249 -3.2138
  410MOL0     H55294   3.773   9.094   6.454 -3.6507  1.3143 -1.7544
  410MOL0     H55295   3.723   9.386   6.544 -1.9611  1.1056 -0.5317
  410MOL0     H55296   3.801   9.323   6.396 -0.4501 -3.3673 -0.6420
  410MOL0     H55297   3.620   9.233   6.299  1.9167  0.3724  0.2494
  410MOL0     H55298   3.509   9.262   6.424 -1.0125 -1.6186 -2.0830
  410MOL0     H55299   3.474   9.411   6.244 -2.1678  0.2925  2.0596
  410MOL0     H55300   3.655   9.443   6.239  0.2574 -1.0457  0.2877
  410MOL0     H55301   3.355   9.497   6.497 -1.4469  2.1683  1.3005
  410MOL0     H55302   3.324   9.694   6.667 -1.1111 -1.0243 -1.1672
  410MOL0     H55303   3.408   9.845   6.632  1.4055 -2.2413  2.5565
  410MOL0     H55304   3.253   9.856   6.414  4.4288 -2.2608 -1.3751
  410MOL0     H55305   3.164   9.862   6.568  1.5998  0.2799  0.1994
  410MOL0     H55306   3.132   9.594   6.531 -2.8289 -0.2250 -1.1296
  410MOL0     H55307   3.182   9.615   6.361 -1.8251 -0.9259 -0.2743
  410MOL0     H55308   2.960   9.614   6.368  1.3454 -1.3025 -2.0007
  410MOL0     H55309   3.028   9.771   6.306  0.4730 -3.3712 -1.7227
  410MOL0     H55310   2.743   9.603   6.481  2.7698  0.2899  0.0345
  410MOL0     H55311   2.529   9.538   6.278  4.2659  0.7644  1.2190
  410MOL0     H55312   2.523   9.538   6.465 -0.6179 -1.3012 -0.7431
  410MOL0     H55313   2.394   9.615   6.367 -0.7010  0.2177 -0.1565
  410MOL0     H55314   2.281   9.845   5.974 -2.3423 -0.7513  1.2933
  410MOL0     H55315   2.146   9.943   5.809  0.9599  0.6113 -1.7803
  410MOL0     H55316   2.040  10.065   5.660 -3.0437 -1.0827  0.6382
  410MOL0     H55317   1.951  10.124   5.799  1.4114 -2.4962  0.4569
  410MOL0     H55318   1.930  10.341   5.658 -2.8800 -0.6616  0.2997
  410MOL0     H55319   1.987  10.244   5.517 -0.0424 -1.3626 -0.3298
  410MOL0     H55320   1.730  10.210   5.664 -0.3694  0.1008 -0.1035
  410MOL0     H55321   1.793  10.082   5.548  0.7038  1.3723 -3.6906
  410MOL0     H55322   1.744  10.365   5.485  1.2250  0.5439 -3.2745
  410MOL0     H55323   1.795  10.262   5.357 -1.1321  0.1810 -0.0933
  410MOL0     H55324   1.564  10.183   5.523 -0.5976 -2.1819 -0.5049
  410MOL0     H55325   1.590  10.130   5.353 -3.1349  1.3733 -1.9280
  410MOL0     H55326   1.526  10.419   5.414 -2.0726 -0.4180  0.9155
  410MOL0     H55327   1.526  10.338   5.260  3.3770 -0.4561  1.2343
  410MOL0     H55328   1.343  10.231   5.483  0.4815  1.9349  1.3300
  410MOL0     H55329   1.330  10.182   5.316  3.3658 -0.2451 -0.7932
  410MOL0     H55330   1.150  10.327   5.400 -1.0749  1.5453 -1.3253
  410MOL0     H55331   1.246  10.426   5.280 -0.9738 -1.1536 -1.0055
  410MOL0     H55332   2.275  10.338   5.933  0.9030  0.0551  1.0177
  410MOL0     H55333   2.361  10.240   6.142 -1.4518  1.6107 -1.3294
  410MOL0     H55334   2.618  10.041   6.300  0.9256  0.2830  1.1368
  410MOL0     H55335   2.825  10.011   6.427  1.3042 -2.2163  1.7821
  410MOL0     H55336   3.789   8.520   6.801 -0.9777  1.0959 -1.0044
  410MOL0     H55337   4.026   8.461   6.887  0.8589  0.0130 -2.8447
  410MOL0     H55338   4.516   8.593   6.802  4.5205  0.2244 -0.6129
  410MOL0     H55339   4.738   8.583   6.883  0.5939 -1.5130  1.2501
  410MOL0     H55340   4.905   8.723   7.042 -1.2535 -1.2699  0.2355
  410MOL0     H55341   4.802   8.795   7.171  4.1390  3.4777  0.5897
  410MOL0     H55342   5.025   8.594   7.242 -0.8310 -0.6385 -1.2664
  410MOL0     H55343   4.918   8.692   7.345 -1.3365  3.1070 -0.7680
  410MOL0     H55344   5.032   8.898   7.254  0.9880  0.8755  1.5056
  410MOL0     H55345   5.151   8.787   7.187  0.6349  2.2365  0.7254
  410MOL0     H55346   5.214   8.704   7.411 -0.5310 -1.1013 -2.2506
  410MOL0     H55347   5.084   8.816   7.476  1.4858 -0.8827  0.7796
  410MOL0     H55348   5.397   9.077   7.368  0.6579  0.4419 -1.3067
  410MOL0     H55349   4.593   8.599   7.295  0.7578  3.6959  1.3959
  410MOL0     H55350   4.362   8.595   7.210  1.1075  3.1674  1.8064
  411MOL0     O55351   1.588   8.283   3.808 -1.4673  0.7727 -0.4214
  411MOL0     C55352   1.489   8.233   3.752 -0.0575  1.4831  0.1932
  411MOL0     O55353   1.493   8.179   3.631  0.1468  0.4043  0.5816
  411MOL0     C55354   1.597   8.209   3.548  0.3964 -0.0895  0.3421
  411MOL0     C55355   1.653   8.341   3.535 -0.2399 -0.3185  0.9844
  411MOL0     C55356   1.765   8.363   3.450 -0.4589  0.4756 -0.1442
  411MOL0     C55357   1.833   8.252   3.383 -0.1230 -0.2092  0.1736
  411MOL0     O55358   1.938   8.281   3.298 -0.1631 -0.0147  0.9733
  411MOL0     C55359   2.036   8.169   3.259 -0.0867 -0.3125  0.5184
  411MOL0     C55360   2.157   8.248   3.186  0.0690  0.2565 -0.3316
  411MOL0     C55361   2.272   8.268   3.282 -0.5901 -0.2430 -0.3017
  411MOL0     C55362   2.403   8.315   3.208  0.2210 -0.0411 -0.3983
  411MOL0     C55363   2.519   8.334   3.303 -0.6922  0.3411 -0.1795
  411MOL0     C55364   2.483   8.437   3.425  0.2499  0.2468  0.4455
  411MOL0     C55365   2.616   8.469   3.495  0.3146  0.3513  0.0888
  411MOL0     C55366   2.594   8.536   3.626 -0.8067  1.1420  0.4147
  411MOL0     N55367   2.512   8.658   3.599  0.0881  0.2808  0.1261
  411MOL0     C55368   2.377   8.672   3.619 -1.2844 -0.5551 -0.9732
  411MOL0     C55369   2.358   8.804   3.588  0.1831 -0.0990  0.0406
  411MOL0     C55370   2.225   8.850   3.553 -0.3553 -0.0472  1.0923
  411MOL0     C55371   2.206   8.992   3.612 -0.5257  0.0454 -0.2822
  411MOL0     C55372   2.259   9.096   3.512  0.2452  1.3999 -0.2378
  411MOL0     C55373   2.296   9.220   3.580 -0.1270 -0.6758  0.4365
  411MOL0     O55374   2.338   9.324   3.489  0.1425 -0.2109  0.2817
  411MOL0     C55375   2.477   9.326   3.466 -0.4779  0.0685  0.3020
  411MOL0     C55376   2.503   9.433   3.384 -0.1780  0.3053  0.6732
  411MOL0     C55377   2.638   9.458   3.341  0.2602 -0.5124 -0.5752
  411MOL0     C55378   2.656   9.567   3.240  0.7686 -0.1391  0.4416
  411MOL0     C55379   2.743   9.379   3.395 -0.7020 -0.6070  0.0281
  411MOL0     C55380   2.884   9.401   3.363  0.4678  0.5920 -0.1569
  411MOL0     O55381   2.960   9.287   3.352  0.3013 -0.3529  0.1184
  411MOL0     C55382   3.083   9.295   3.284  0.3415  0.2044  0.1972
  411MOL0     C55383   3.127   9.404   3.201 -0.0506 -0.5243  0.0090
  411MOL0     C55384   3.264   9.398   3.158  0.1229 -0.2435 -0.1722
  411MOL0     C55385   3.357   9.299   3.192 -0.1858 -0.6917 -0.3515
  411MOL0     O55386   3.483   9.303   3.135 -0.0047  0.5550 -0.5097
  411MOL0     C55387   3.582   9.208   3.179  0.5694 -0.8332 -0.4372
  411MOL0     C55388   3.722   9.255   3.147  0.7578  0.1509  0.1419
  411MOL0     C55389   3.754   9.238   2.995  0.0169 -0.2846  0.7446
  411MOL0     C55390   3.907   9.265   2.975  0.7095 -0.5335  0.2255
  411MOL0     C55391   3.943   9.413   2.993  0.3726 -0.3596 -0.9780
  411MOL0     C55392   4.093   9.434   2.966  0.6361  0.7350 -0.1136
  411MOL0     C55393   4.144   9.575   2.993 -0.4505  0.2898  0.8549
  411MOL0     C55394   4.079   9.684   2.905  0.2499 -0.2555  0.1261
  411MOL0    Cl55395   4.158   9.845   2.930 -0.2839 -0.1567 -0.0203
  411MOL0     C55396   3.309   9.202   3.275  0.1577 -1.3882  0.0491
  411MOL0     C55397   3.175   9.200   3.322  0.1203  0.1815  1.1798
  411MOL0     O55398   2.918   9.514   3.341 -0.5160  0.1371 -0.1292
  411MOL0     C55399   2.705   9.265   3.464 -0.1727  0.3060 -0.3964
  411MOL0     C55400   2.576   9.234   3.507  0.4076  0.4964  0.3412
  411MOL0     N55401   2.481   8.869   3.571  0.5391  0.7820 -0.2624
  411MOL0     N55402   2.570   8.779   3.594 -0.0293  0.5730  0.6925
  411MOL0     C55403   1.758   8.136   3.385  0.4682 -0.7238  0.6844
  411MOL0     C55404   1.647   8.115   3.462 -0.7847  0.3659  2.2288
  411MOL0     C55405   1.355   8.229   3.821  0.6188  0.1246  0.0217
  411MOL0     C55406   1.346   8.247   3.959  0.4557 -0.3715  1.3756
  411MOL0     C55407   1.225   8.229   4.023 -0.5330  0.1044 -0.3362
  411MOL0     C55408   1.117   8.191   3.949 -0.3152 -0.7897  0.8397
  411MOL0     O55409   0.997   8.182   4.019 -0.1952 -0.7230  0.4932
  411MOL0     C55410   0.878   8.187   3.937 -0.4428  0.1598 -0.3069
  411MOL0     C55411   0.742   8.174   4.010  0.8285  1.1380 -0.2258
  411MOL0     C55412   0.733   8.029   4.055  0.7158  0.0853  1.1302
  411MOL0     C55413   0.697   7.924   3.946 -0.8001  0.6474 -0.3868
  411MOL0     C55414   0.626   7.804   3.991  0.6311 -0.3175 -1.0534
  411MOL0     C55415   0.570   7.698   4.022  0.7302  0.3608 -0.0304
  411MOL0     C55416   1.118   8.193   3.812  0.5650  0.9048  0.0972
  411MOL0     C55417   1.246   8.197   3.748  0.4786  0.8272 -0.1792
  411MOL0     H55418   1.601   8.422   3.584 -0.8185  1.7511 -2.6874
  411MOL0     H55419   1.809   8.461   3.432 -1.5350  0.7704 -1.3092
  411MOL0     H55420   2.063   8.123   3.355 -0.2431 -1.0797  0.1991
  411MOL0     H55421   2.002   8.087   3.196  0.1692 -0.3281  0.3984
  411MOL0     H55422   2.175   8.187   3.096  1.9969 -2.1882  1.5582
  411MOL0     H55423   2.131   8.352   3.164  1.1321  1.5183  3.5200
  411MOL0     H55424   2.233   8.348   3.346  0.7656 -1.0967  1.7058
  411MOL0     H55425   2.289   8.187   3.353 -2.7612  2.0028  3.1193
  411MOL0     H55426   2.435   8.246   3.130 -2.0586 -1.2993 -0.3068
  411MOL0     H55427   2.378   8.412   3.163 -1.2187 -0.1066  0.1901
  411MOL0     H55428   2.551   8.237   3.344  1.2266 -0.5268 -3.3445
  411MOL0     H55429   2.592   8.367   3.229 -0.4610  0.1279 -0.0482
  411MOL0     H55430   2.437   8.529   3.389  0.6171  0.4995  0.6153
  411MOL0     H55431   2.415   8.388   3.496  2.7418 -1.0479  2.1029
  411MOL0     H55432   2.669   8.375   3.510 -1.9341 -1.1522 -0.8353
  411MOL0     H55433   2.674   8.540   3.436  0.8682  2.1580  2.6130
  411MOL0     H55434   2.694   8.569   3.659  0.2684 -0.2893 -1.2701
  411MOL0     H55435   2.560   8.476   3.711  1.4629 -1.1092 -0.1532
  411MOL0     H55436   2.299   8.602   3.647  0.2148 -2.0078 -0.2955
  411MOL0     H55437   2.242   8.858   3.445  1.5602 -0.0760  1.3531
  411MOL0     H55438   2.154   8.775   3.587  0.7076 -0.8058  1.7103
  411MOL0     H55439   2.266   8.993   3.703 -0.1587 -2.8972 -0.3933
  411MOL0     H55440   2.100   9.009   3.629 -0.5152  1.9832 -1.8406
  411MOL0     H55441   2.182   9.120   3.438 -0.3824 -0.9801 -0.4436
  411MOL0     H55442   2.345   9.054   3.459  0.2121 -3.0185  2.6268
  411MOL0     H55443   2.371   9.198   3.656  0.3216 -0.4773  0.0592
  411MOL0     H55444   2.212   9.261   3.636  0.7377 -0.2775  1.4668
  411MOL0     H55445   2.416   9.480   3.339 -0.9966 -1.5778  0.2262
  411MOL0     H55446   2.703   9.650   3.295  2.1992  1.0520 -2.3926
  411MOL0     H55447   2.714   9.531   3.155  0.7006 -0.8093  0.6721
  411MOL0     H55448   2.557   9.603   3.210  1.2181  0.2528 -0.6169
  411MOL0     H55449   3.071   9.492   3.169  2.4218  0.8541 -0.8356
  411MOL0     H55450   3.295   9.477   3.090  1.4946  0.8919  1.6649
  411MOL0     H55451   3.579   9.195   3.288  1.7885  0.4122 -0.2319
  411MOL0     H55452   3.552   9.115   3.130 -1.1531 -0.8469  0.5322
  411MOL0     H55453   3.744   9.357   3.178 -2.7516  0.8284  0.7766
  411MOL0     H55454   3.778   9.180   3.205 -2.8519 -1.9549  1.2161
  411MOL0     H55455   3.682   9.300   2.941 -3.8732 -3.0838  2.2708
  411MOL0     H55456   3.728   9.135   2.972  0.8885 -0.8808  2.2965
  411MOL0     H55457   3.966   9.213   3.050  3.0569  1.9018  0.2051
  411MOL0     H55458   3.938   9.231   2.876  0.0042 -1.9404  0.4654
  411MOL0     H55459   3.922   9.443   3.096 -4.4582 -3.9915 -0.5769
  411MOL0     H55460   3.878   9.467   2.923 -1.5170 -0.6089  0.4974
  411MOL0     H55461   4.152   9.355   3.015  1.0835  0.4937 -1.0259
  411MOL0     H55462   4.101   9.419   2.858  2.7584  0.4053  0.0335
  411MOL0     H55463   4.251   9.573   2.969 -0.4385 -1.8172  0.8464
  411MOL0     H55464   4.131   9.600   3.098  0.0576 -0.8231  1.1991
  411MOL0     H55465   3.979   9.704   2.943 -0.4943 -0.2209 -1.7196
  411MOL0     H55466   4.053   9.654   2.803 -1.8453  0.5222  0.3813
  411MOL0     H55467   3.363   9.120   3.321 -1.1069 -0.3893  3.6674
  411MOL0     H55468   3.141   9.132   3.399  0.6394  2.4053  3.5152
  411MOL0     H55469   2.786   9.193   3.474 -0.3003  0.2775  0.5290
  411MOL0     H55470   2.551   9.143   3.560 -4.2386  1.3474  0.0410
  411MOL0     H55471   1.786   8.056   3.316  2.3187  1.5142 -1.3471
  411MOL0     H55472   1.593   8.021   3.450 -1.7123  1.2327 -2.0849
  411MOL0     H55473   1.438   8.278   4.007  1.9048  0.3056 -1.5620
  411MOL0     H55474   1.210   8.266   4.124  0.0808  0.8337 -0.5025
  411MOL0     H55475   0.867   8.281   3.881 -1.0963 -0.4413 -1.1958
  411MOL0     H55476   0.877   8.112   3.858  0.4172  0.3096 -0.4703
  411MOL0     H55477   0.667   8.190   3.932  1.5819  0.0532 -1.2041
  411MOL0     H55478   0.732   8.246   4.091  2.3377  0.2697  0.7819
  411MOL0     H55479   0.653   8.031   4.130  1.0997  0.3505  1.5420
  411MOL0     H55480   0.823   8.013   4.114 -0.8625 -0.3071  3.6087
  411MOL0     H55481   0.789   7.898   3.892 -0.9298  2.1571 -1.3822
  411MOL0     H55482   0.632   7.967   3.870  0.0493 -2.3658 -3.0351
  411MOL0     H55483   0.522   7.604   4.044 -1.7531  2.2214  3.3964
  411MOL0     H55484   1.040   8.152   3.749 -0.4791  2.0826  0.5691
  411MOL0     H55485   1.253   8.155   3.649  1.4280 -2.5329  1.1710
  412MOL0     O55486   4.210   2.252  10.194  0.5199 -0.2028  0.0802
  412MOL0     C55487   4.194   2.197  10.091 -0.6031  0.4793 -0.3067
  412MOL0     O55488   4.123   2.245   9.991 -0.1664 -0.1729  0.2604
  412MOL0     C55489   4.029   2.337  10.005 -0.7318  0.5477 -0.2616
  412MOL0     C55490   4.010   2.431   9.900 -0.4662  0.3425 -0.4535
  412MOL0     C55491   3.887   2.507   9.889  0.1215  1.1849  0.3838
  412MOL0     C55492   3.799   2.511  10.000 -0.3117  0.5667 -0.2464
  412MOL0     O55493   3.677   2.582   9.978 -0.7968  0.0807  0.4458
  412MOL0     C55494   3.621   2.643  10.097 -0.6146  0.1979 -0.2878
  412MOL0     C55495   3.493   2.563  10.141  1.0866 -0.2591  0.1518
  412MOL0     C55496   3.370   2.590  10.039 -0.8364 -0.2120  0.0676
  412MOL0     C55497   3.260   2.488  10.068 -0.2615 -0.2979  0.2950
  412MOL0     C55498   3.130   2.492   9.976  1.0764  0.4017  0.0870
  412MOL0     C55499   3.042   2.616  10.021  0.3814  0.3935 -1.0152
  412MOL0     C55500   2.926   2.660   9.919 -0.3899 -0.2763 -0.1970
  412MOL0     C55501   2.984   2.721   9.784 -0.1782 -0.3372  0.4793
  412MOL0     N55502   3.014   2.864   9.799  0.7453  1.0304  0.0025
  412MOL0     C55503   2.925   2.964   9.786 -0.1430 -0.0217  0.3476
  412MOL0     C55504   3.000   3.074   9.787  0.8394 -0.0213  0.2075
  412MOL0     C55505   2.944   3.210   9.799  0.1684 -0.5321 -0.0524
  412MOL0     C55506   2.885   3.275   9.675  0.4688  0.8398  0.2626
  412MOL0     C55507   2.990   3.292   9.561 -0.6642 -0.4118  0.5204
  412MOL0     C55508   2.956   3.402   9.465  0.7947  0.0429  0.2551
  412MOL0     O55509   2.991   3.539   9.515 -0.0592  0.1019  0.3096
  412MOL0     C55510   3.093   3.585   9.436  0.6703 -0.4168 -0.1188
  412MOL0     C55511   3.073   3.658   9.329  0.3054 -0.6606  0.1699
  412MOL0     C55512   3.180   3.714   9.245 -0.7667  0.2588 -0.0495
  412MOL0     C55513   3.149   3.797   9.123 -0.5821 -0.5459  0.8081
  412MOL0     C55514   3.314   3.677   9.276  0.1143  0.4174 -0.3013
  412MOL0     C55515   3.436   3.717   9.205  0.2524  0.0685  0.0945
  412MOL0     O55516   3.559   3.682   9.267  0.0780  0.0105  0.1930
  412MOL0     C55517   3.680   3.738   9.216 -0.2976  0.0502  0.6863
  412MOL0     C55518   3.782   3.678   9.271 -0.0419  0.6983 -0.1334
  412MOL0     C55519   3.924   3.709   9.253  0.6265  0.0353  0.4702
  412MOL0     C55520   3.952   3.817   9.165 -0.3199 -0.3385 -0.3159
  412MOL0     O55521   4.083   3.847   9.156 -0.1320  0.1369 -0.3816
  412MOL0     C55522   4.108   3.959   9.075 -0.9718  0.1102  0.8611
  412MOL0     C55523   4.264   3.985   9.053 -0.5565 -0.2405  0.5314
  412MOL0     C55524   4.304   4.138   9.056  1.2725  0.8949 -0.7114
  412MOL0     C55525   4.263   4.202   8.924 -0.7675 -0.3346 -0.7880
  412MOL0     C55526   4.288   4.357   8.928  0.1513  0.4554 -0.1135
  412MOL0     C55527   4.237   4.424   8.800 -0.4234 -0.3409 -0.9320
  412MOL0     C55528   4.233   4.579   8.820  0.4813 -0.4973  0.9519
  412MOL0     C55529   4.375   4.617   8.848  0.3530 -0.6608 -0.1181
  412MOL0    Cl55530   4.382   4.793   8.815 -0.3139  0.3923  0.1252
  412MOL0     C55531   3.832   3.891   9.119 -1.0996  0.3957 -0.1601
  412MOL0     C55532   3.705   3.846   9.139  0.8515 -0.9926 -0.7958
  412MOL0     O55533   3.434   3.758   9.090  0.2415  0.2440 -0.4342
  412MOL0     C55534   3.332   3.616   9.404 -0.4281 -0.1887 -0.3149
  412MOL0     C55535   3.218   3.564   9.480  0.3829 -0.0802  0.1907
  412MOL0     N55536   3.129   3.046   9.807  0.3332 -0.3025  0.4456
  412MOL0     N55537   3.136   2.916   9.808  0.0798 -0.2819 -0.7502
  412MOL0     C55538   3.829   2.429  10.109 -0.0106  0.3148 -1.0431
  412MOL0     C55539   3.941   2.343  10.112  0.4438  0.0458 -0.2967
  412MOL0     C55540   4.268   2.067  10.071 -0.4296 -0.2643  0.0337
  412MOL0     C55541   4.298   2.019   9.943  0.8542  0.2970  0.6786
  412MOL0     C55542   4.356   1.887   9.937 -0.0023  0.4314  0.7016
  412MOL0     C55543   4.381   1.804  10.048  0.4442  0.9808  0.7747
  412MOL0     O55544   4.417   1.671  10.036 -0.5928  0.4275 -0.0046
  412MOL0     C55545   4.478   1.592  10.145  0.2933 -0.2536  0.1532
  412MOL0     C55546   4.373   1.517  10.217  0.1748  0.4109  0.3416
  412MOL0     C55547   4.321   1.398  10.138 -0.5159 -0.9629 -0.0883
  412MOL0     C55548   4.422   1.282  10.137 -0.0471  0.1896 -0.4616
  412MOL0     C55549   4.347   1.162  10.093  0.3283  0.0041  0.5303
  412MOL0     C55550   4.290   1.064  10.056 -0.3476 -0.4410  1.2164
  412MOL0     C55551   4.360   1.862  10.176 -0.0539  0.1998  0.0224
  412MOL0     C55552   4.319   1.992  10.187 -0.9184 -1.0215  0.9443
  412MOL0     H55553   4.070   2.424   9.810 -1.3482  1.9473 -1.2103
  412MOL0     H55554   3.846   2.554   9.800 -1.3903 -0.8384 -0.0826
  412MOL0     H55555   3.696   2.636  10.176 -1.4017  1.3177  0.5679
  412MOL0     H55556   3.586   2.740  10.061 -2.7382 -0.5317 -0.3412
  412MOL0     H55557   3.509   2.455  10.138  0.1679 -0.4475  1.2875
  412MOL0     H55558   3.461   2.599  10.239 -0.0084  2.1236 -0.9969
  412MOL0     H55559   3.324   2.687  10.062 -2.4834 -0.7475 -0.7816
  412MOL0     H55560   3.410   2.584   9.937  1.2105 -0.6375  0.8457
  412MOL0     H55561   3.294   2.386  10.051 -0.9222 -0.6532  1.0467
  412MOL0     H55562   3.228   2.493  10.172  0.0296  0.0223  0.3711
  412MOL0     H55563   3.162   2.511   9.874  2.0504  1.0506  0.4943
  412MOL0     H55564   3.093   2.390   9.988  2.6153 -0.4136 -1.6340
  412MOL0     H55565   2.988   2.608  10.116 -0.1724 -0.4161 -1.3881
  412MOL0     H55566   3.112   2.698  10.042  0.6102 -0.2800  1.0125
  412MOL0     H55567   2.861   2.579   9.884 -1.9939  1.5105 -1.5329
  412MOL0     H55568   2.852   2.732   9.954 -1.6069 -1.8690  0.6305
  412MOL0     H55569   2.912   2.715   9.702  0.0854  0.2599  0.1965
  412MOL0     H55570   3.080   2.677   9.756  0.8617  0.7862  2.1320
  412MOL0     H55571   2.819   2.963   9.760 -0.1170  0.4928  0.1964
  412MOL0     H55572   2.866   3.206   9.876 -2.6631  1.4328 -2.5750
  412MOL0     H55573   3.025   3.276   9.832  0.0133 -0.4985  0.2699
  412MOL0     H55574   2.838   3.373   9.680  0.0252  1.1860 -4.9934
  412MOL0     H55575   2.814   3.208   9.625  2.0059 -0.2455 -0.5637
  412MOL0     H55576   2.984   3.200   9.501  0.9496 -0.6113  0.6381
  412MOL0     H55577   3.093   3.297   9.597  0.5115 -0.7667 -2.4703
  412MOL0     H55578   2.848   3.404   9.448  0.8265 -2.0755 -0.5599
  412MOL0     H55579   2.989   3.379   9.363 -2.8697  0.6940 -1.2375
  412MOL0     H55580   2.968   3.673   9.308  0.0360 -1.3695  0.9302
  412MOL0     H55581   3.042   3.798   9.101 -0.2298 -1.4419 -1.2408
  412MOL0     H55582   3.192   3.898   9.129 -0.7248 -0.4663  0.5057
  412MOL0     H55583   3.200   3.746   9.041  0.4506  0.5210  0.7551
  412MOL0     H55584   3.742   3.615   9.350 -1.3764  1.8070  0.1025
  412MOL0     H55585   4.003   3.650   9.298  2.0216  1.1526 -0.4031
  412MOL0     H55586   4.065   3.962   8.975  0.3821  0.8213  0.2788
  412MOL0     H55587   4.074   4.049   9.127 -0.3886  2.0161 -1.8653
  412MOL0     H55588   4.324   3.947   9.137  1.2610  0.8611 -0.1933
  412MOL0     H55589   4.304   3.931   8.967  2.4422  2.6952 -0.1624
  412MOL0     H55590   4.413   4.153   9.060  1.2805  0.6527  0.3235
  412MOL0     H55591   4.257   4.184   9.144 -2.3386 -1.5735 -1.1474
  412MOL0     H55592   4.316   4.168   8.835 -1.1391  3.4199 -2.6463
  412MOL0     H55593   4.154   4.188   8.927 -0.6409 -1.3258  1.0583
  412MOL0     H55594   4.396   4.370   8.941 -0.1879  2.8191  0.8242
  412MOL0     H55595   4.242   4.411   9.011  0.7730  0.5016  0.2098
  412MOL0     H55596   4.301   4.393   8.717 -2.0322 -1.9212 -1.6484
  412MOL0     H55597   4.135   4.391   8.778 -0.7731 -0.6384  1.0048
  412MOL0     H55598   4.167   4.597   8.905  0.2779  0.7065  0.5532
  412MOL0     H55599   4.192   4.621   8.728  0.5284 -0.1127  1.1078
  412MOL0     H55600   4.445   4.572   8.777  0.5035 -0.9112  0.1895
  412MOL0     H55601   4.403   4.598   8.952  2.6342  0.0461 -0.5625
  412MOL0     H55602   3.849   3.979   9.058  1.8333  0.5995  0.8146
  412MOL0     H55603   3.613   3.882   9.094  1.4606 -2.2403 -3.2398
  412MOL0     H55604   3.428   3.587   9.445 -1.8521 -1.8669  2.1365
  412MOL0     H55605   3.241   3.517   9.576 -0.5173  2.2540  1.6366
  412MOL0     H55606   3.752   2.417  10.185  0.8745 -1.9057 -0.4456
  412MOL0     H55607   3.958   2.280  10.199  0.3852 -0.4801 -0.6621
  412MOL0     H55608   4.267   2.087   9.864  2.3756  0.6141  0.3157
  412MOL0     H55609   4.370   1.836   9.842 -1.9302  1.1393 -0.0285
  412MOL0     H55610   4.549   1.522  10.100  1.6686  0.7285  0.7048
  412MOL0     H55611   4.528   1.661  10.214 -1.0433  1.0449 -0.1131
  412MOL0     H55612   4.301   1.588  10.258 -2.1072 -2.3111  1.3870
  412MOL0     H55613   4.404   1.470  10.310  0.4352 -2.8972 -1.2764
  412MOL0     H55614   4.280   1.419  10.039 -0.6528 -0.3782  0.0875
  412MOL0     H55615   4.238   1.355  10.195  0.6674 -0.7461  1.8866
  412MOL0     H55616   4.455   1.264  10.239 -6.3692 -0.6931  1.8414
  412MOL0     H55617   4.499   1.304  10.062  0.1000  0.6166 -0.1839
  412MOL0     H55618   4.231   0.978  10.029 -0.7771  1.1324 -4.1863
  412MOL0     H55619   4.371   1.796  10.261 -0.4629 -1.0926 -0.8854
  412MOL0     H55620   4.309   2.033  10.286 -0.2007 -0.9335  0.9831
  413MOL0     O55621  11.474   6.759   1.045 -0.3195  0.3885 -0.0498
  413MOL0     C55622  11.419   6.843   1.122  0.8148  0.1046  0.3320
  413MOL0     O55623  11.369   6.964   1.083 -0.2088 -0.0412  0.5003
  413MOL0     C55624  11.365   6.985   0.955  0.1453 -0.6038  0.0434
  413MOL0     C55625  11.491   7.001   0.883 -0.0015 -0.5863  0.3185
  413MOL0     C55626  11.492   7.034   0.745 -0.0808  0.4388 -0.0094
  413MOL0     C55627  11.376   7.081   0.683  0.8585 -0.2651  1.0316
  413MOL0     O55628  11.390   7.152   0.562 -0.4066  0.0873 -0.1231
  413MOL0     C55629  11.274   7.176   0.488  0.9772 -0.1160  0.9397
  413MOL0     C55630  11.197   7.303   0.525 -0.1538 -0.5289  0.2330
  413MOL0     C55631  11.262   7.430   0.472 -0.3936 -0.2118  0.0477
  413MOL0     C55632  11.192   7.499   0.353 -0.4289  0.1013 -0.2637
  413MOL0     C55633  11.164   7.408   0.234  0.8257 -0.0998  1.0570
  413MOL0     C55634  11.294   7.371   0.165 -0.2822 -0.1800  0.1068
  413MOL0     C55635  11.277   7.267   0.048  0.1348 -1.3007 -1.1577
  413MOL0     C55636  11.256   7.129   0.106 -0.9658 -0.1464 -0.6346
  413MOL0     N55637  11.228   7.039  -0.006 -0.2238  0.0092 -0.0115
  413MOL0     C55638  11.176   6.910   0.005  0.4909 -0.0282 -0.0983
  413MOL0     C55639  11.156   6.864  -0.121 -0.1671  0.6629 -0.2951
  413MOL0     C55640  11.084   6.744  -0.161 -1.3065  0.1887 -0.2112
  413MOL0     C55641  11.141   6.611  -0.095 -0.0194 -0.5005 -0.5015
  413MOL0     C55642  11.057   6.488  -0.153  0.2281  0.3070 -0.8925
  413MOL0     C55643  11.091   6.360  -0.070 -0.3302 -1.1705 -0.3579
  413MOL0     O55644  11.209   6.285  -0.103  0.2974  0.3517 -0.1364
  413MOL0     C55645  11.242   6.248  -0.230 -0.9435  0.4643  0.2627
  413MOL0     C55646  11.379   6.227  -0.260  0.2113  0.4318  0.6744
  413MOL0     C55647  11.430   6.205  -0.385 -0.3273 -0.5710  0.5850
  413MOL0     C55648  11.590   6.207  -0.400  0.4772  0.0355 -0.7982
  413MOL0     C55649  11.324   6.198  -0.501 -0.3891 -0.4677  0.4426
  413MOL0     C55650  11.354   6.183  -0.644 -0.1171 -0.0407 -0.0822
  413MOL0     O55651  11.256   6.105  -0.712  0.0842  0.8684 -0.3092
  413MOL0     C55652  11.251   6.114  -0.845  0.5916 -0.4811  0.5441
  413MOL0     C55653  11.188   6.007  -0.913  0.7000  1.0618  0.5208
  413MOL0     C55654  11.157   6.030  -1.049 -0.6266 -0.1227 -0.0106
  413MOL0     C55655  11.179   6.150  -1.123 -0.6692  1.2401 -0.3430
  413MOL0     O55656  11.129   6.151  -1.248 -0.0367 -1.1539 -0.1226
  413MOL0     C55657  11.134   6.272  -1.332  0.9520  0.1469 -0.0462
  413MOL0     C55658  11.037   6.381  -1.289 -0.0977  0.4222  0.5387
  413MOL0     C55659  10.888   6.342  -1.290 -0.2519  0.3240 -0.6641
  413MOL0     C55660  10.790   6.444  -1.239  0.8660 -0.1495  0.5359
  413MOL0     C55661  10.639   6.410  -1.243 -0.0589 -0.5126  0.3511
  413MOL0     C55662  10.553   6.529  -1.189  0.2630 -0.6032  0.3140
  413MOL0     C55663  10.410   6.476  -1.154  1.2544  0.2159  0.2229
  413MOL0     C55664  10.347   6.418  -1.281  0.1333  0.8377  0.1304
  413MOL0    Cl55665  10.314   6.550  -1.402 -0.2696  0.1641 -0.9143
  413MOL0     C55666  11.251   6.248  -1.055 -0.9069 -0.1192  0.0963
  413MOL0     C55667  11.286   6.230  -0.918  0.6263  0.6736  0.4761
  413MOL0     O55668  11.444   6.239  -0.691 -0.1841  0.2553  0.2165
  413MOL0     C55669  11.186   6.203  -0.462  0.3938  0.0457 -0.0329
  413MOL0     C55670  11.148   6.230  -0.328  0.7366 -0.1940  0.6157
  413MOL0     N55671  11.232   6.947  -0.203 -0.9763 -0.0324 -0.4313
  413MOL0     N55672  11.251   7.057  -0.136 -0.3241  0.2791  0.8230
  413MOL0     C55673  11.248   7.066   0.756 -0.0510 -0.1173  0.5578
  413MOL0     C55674  11.250   7.025   0.885  0.3912  0.3491  0.9818
  413MOL0     C55675  11.395   6.797   1.259 -1.0952 -0.3255  0.2470
  413MOL0     C55676  11.439   6.680   1.311 -0.6795  0.3847 -0.4300
  413MOL0     C55677  11.445   6.643   1.448 -0.0415 -1.1095  0.1004
  413MOL0     C55678  11.397   6.731   1.542  0.0407  0.2760 -0.0476
  413MOL0     O55679  11.413   6.705   1.669  0.0975 -0.1855 -0.5288
  413MOL0     C55680  11.310   6.665   1.758 -0.0886  1.2853 -0.5311
  413MOL0     C55681  11.335   6.733   1.893  0.2272 -0.2153 -0.3095
  413MOL0     C55682  11.285   6.659   2.017  0.5892  0.4842 -0.1636
  413MOL0     C55683  11.155   6.580   2.027  0.7455  0.7337 -0.1152
  413MOL0     C55684  11.055   6.669   1.959 -0.2573 -0.4566 -0.2028
  413MOL0     C55685  10.968   6.725   1.894 -0.4980  0.1930  1.2167
  413MOL0     C55686  11.332   6.839   1.498 -1.1032  0.0508  0.7095
  413MOL0     C55687  11.317   6.871   1.355  0.5288  0.9399 -0.7534
  413MOL0     H55688  11.582   6.991   0.940 -0.6778  1.5927  1.9415
  413MOL0     H55689  11.587   7.041   0.694 -1.3135 -1.4276 -2.8574
  413MOL0     H55690  11.301   7.201   0.385  2.2004 -0.6034  1.1291
  413MOL0     H55691  11.211   7.087   0.493 -1.4729  1.3960 -0.5826
  413MOL0     H55692  11.094   7.308   0.489  0.5619  0.2158 -1.8577
  413MOL0     H55693  11.203   7.309   0.634  1.9788 -5.3622  0.6397
  413MOL0     H55694  11.269   7.506   0.551  1.7199 -3.8311  3.7223
  413MOL0     H55695  11.369   7.417   0.451 -0.1810  1.3314  0.0006
  413MOL0     H55696  11.092   7.520   0.393  1.7370  1.1623  5.7207
  413MOL0     H55697  11.251   7.589   0.335  0.2372 -0.1755  0.4821
  413MOL0     H55698  11.110   7.318   0.264  0.8091 -1.0157 -1.4569
  413MOL0     H55699  11.103   7.468   0.167 -2.3565 -1.6460  2.3715
  413MOL0     H55700  11.335   7.461   0.120  5.1302 -1.2501  2.1905
  413MOL0     H55701  11.374   7.343   0.234  2.9262  0.9145 -2.8696
  413MOL0     H55702  11.191   7.303  -0.010 -1.0670  3.0450  2.7187
  413MOL0     H55703  11.367   7.274  -0.013  1.6676  1.5607  1.1908
  413MOL0     H55704  11.179   7.123   0.183  2.4966 -3.0655  3.0263
  413MOL0     H55705  11.340   7.089   0.163 -1.1968 -0.0610 -0.2353
  413MOL0     H55706  11.152   6.854   0.094  3.4603  1.6334  1.9157
  413MOL0     H55707  10.978   6.760  -0.140 -0.5585  1.4543  3.1058
  413MOL0     H55708  11.109   6.734  -0.267  2.9289  0.8375  0.5338
  413MOL0     H55709  11.126   6.621   0.013 -3.5638  4.2558 -1.0811
  413MOL0     H55710  11.245   6.598  -0.125 -0.2786 -0.5631 -1.3943
  413MOL0     H55711  11.069   6.465  -0.260  1.0781 -2.9362 -0.2028
  413MOL0     H55712  10.950   6.498  -0.132  0.2191 -2.1986  0.6339
  413MOL0     H55713  11.004   6.295  -0.076 -0.8801 -0.5024  0.1619
  413MOL0     H55714  11.101   6.399   0.032 -0.3771 -1.3729 -0.2758
  413MOL0     H55715  11.443   6.259  -0.178 -1.5276  0.9648  1.8987
  413MOL0     H55716  11.619   6.223  -0.504  1.3129 -0.0484 -0.5868
  413MOL0     H55717  11.634   6.286  -0.338 -0.4627 -1.5452  2.0762
  413MOL0     H55718  11.626   6.107  -0.374  1.4938  0.0542 -2.0588
  413MOL0     H55719  11.151   5.917  -0.865 -1.5472 -0.1931 -3.1445
  413MOL0     H55720  11.096   5.956  -1.102  1.8441 -3.2060  1.1808
  413MOL0     H55721  11.231   6.317  -1.355  1.2435 -1.0239 -1.3177
  413MOL0     H55722  11.108   6.235  -1.432  1.7701  1.4137 -0.7620
  413MOL0     H55723  11.074   6.419  -1.193  0.0457 -1.3859  1.2383
  413MOL0     H55724  11.045   6.460  -1.365  0.2864  0.7386  0.8991
  413MOL0     H55725  10.883   6.260  -1.218 -2.4280  2.4236  1.8421
  413MOL0     H55726  10.862   6.309  -1.391 -0.4561 -1.1461 -0.1519
  413MOL0     H55727  10.816   6.459  -1.134 -0.7392 -1.3163  1.1454
  413MOL0     H55728  10.810   6.537  -1.293  2.6037 -1.6241 -1.5096
  413MOL0     H55729  10.611   6.335  -1.169 -0.3427 -1.2826 -0.5160
  413MOL0     H55730  10.612   6.381  -1.346 -3.6194 -0.4808  1.1516
  413MOL0     H55731  10.604   6.573  -1.103 -0.7861  4.2798 -1.2726
  413MOL0     H55732  10.541   6.607  -1.264 -0.4324 -0.4849  0.5446
  413MOL0     H55733  10.349   6.556  -1.111 -0.9595 -0.6155 -1.1834
  413MOL0     H55734  10.409   6.389  -1.088 -0.3957 -1.5692 -1.9706
  413MOL0     H55735  10.253   6.367  -1.257  0.4978 -0.9627 -2.0013
  413MOL0     H55736  10.409   6.339  -1.323 -0.2062  1.9384 -2.6480
  413MOL0     H55737  11.278   6.333  -1.116  0.1775 -1.2305 -1.0375
  413MOL0     H55738  11.311   6.326  -0.873 -1.4566  1.6013 -0.2061
  413MOL0     H55739  11.111   6.201  -0.541  0.9504  1.3449 -0.6229
  413MOL0     H55740  11.041   6.242  -0.311 -0.0738 -1.5885 -2.6320
  413MOL0     H55741  11.146   7.089   0.728  0.3023  1.6096  0.5638
  413MOL0     H55742  11.157   7.030   0.941  0.5913  4.4024  1.2381
  413MOL0     H55743  11.490   6.615   1.241  1.2426  2.7200 -1.3426
  413MOL0     H55744  11.501   6.556   1.480  0.2563 -0.1578  2.3229
  413MOL0     H55745  11.213   6.677   1.709 -0.4478  2.7365  0.4812
  413MOL0     H55746  11.325   6.558   1.774  0.9831  1.7819  2.4744
  413MOL0     H55747  11.275   6.824   1.885 -3.0822 -2.2969 -1.1944
  413MOL0     H55748  11.440   6.763   1.906  0.5936 -0.5308 -2.1845
  413MOL0     H55749  11.260   6.746   2.079 -0.0183 -2.3646  4.0310
  413MOL0     H55750  11.362   6.605   2.073  1.5489 -0.9729 -2.7316
  413MOL0     H55751  11.128   6.565   2.132  1.2560  0.6516  0.0094
  413MOL0     H55752  11.167   6.483   1.978 -1.1713  0.5745 -0.3420
  413MOL0     H55753  10.892   6.767   1.831 -0.9998 -0.7355  1.1768
  413MOL0     H55754  11.293   6.912   1.569  3.0171  3.8399 -0.4874
  413MOL0     H55755  11.269   6.958   1.310  5.0861  1.4946 -5.4354
  414MOL0     O55756   9.393   5.600   1.737 -0.7088 -0.1405 -0.2056
  414MOL0     C55757   9.271   5.586   1.741 -0.3777  0.2232 -0.1047
  414MOL0     O55758   9.192   5.666   1.808  0.1738  0.4501  0.3187
  414MOL0     C55759   9.233   5.786   1.856 -0.0761 -0.3982 -1.4382
  414MOL0     C55760   9.145   5.840   1.962 -0.3946 -0.0024  0.2049
  414MOL0     C55761   9.147   5.969   1.998 -0.0733 -0.3099  0.0820
  414MOL0     C55762   9.237   6.054   1.928 -0.1453  0.4694 -0.6281
  414MOL0     O55763   9.221   6.186   1.953  0.1240  0.5045 -0.2891
  414MOL0     C55764   9.333   6.277   1.950 -0.5067  0.2223  0.0136
  414MOL0     C55765   9.298   6.417   1.989 -0.1080  0.2266 -0.4086
  414MOL0     C55766   9.270   6.443   2.142 -0.0311 -0.5791 -0.8786
  414MOL0     C55767   9.395   6.437   2.223 -0.8924 -0.3719 -0.0358
  414MOL0     C55768   9.369   6.422   2.369 -0.5517 -0.0358  0.0823
  414MOL0     C55769   9.506   6.393   2.436  0.7997  0.0583 -0.7732
  414MOL0     C55770   9.489   6.360   2.597  0.5452  0.3422 -0.0691
  414MOL0     C55771   9.637   6.315   2.637  0.7006  0.4506 -0.7408
  414MOL0     N55772   9.650   6.286   2.782 -0.0639  0.0805  0.2016
  414MOL0     C55773   9.764   6.235   2.836 -0.1633 -0.0026  0.4598
  414MOL0     C55774   9.732   6.164   2.945 -0.6371 -0.0868  0.8302
  414MOL0     C55775   9.838   6.086   3.029 -0.0633  0.2680  0.2381
  414MOL0     C55776   9.854   6.152   3.170  0.3258  0.0775  0.1656
  414MOL0     C55777   9.748   6.090   3.265  0.4969 -0.3732 -0.3097
  414MOL0     C55778   9.777   6.128   3.416  0.3888  0.1303 -0.1326
  414MOL0     O55779   9.905   6.082   3.450  0.0320 -0.1972 -0.8922
  414MOL0     C55780   9.970   6.139   3.553  0.2045  0.1205 -0.1055
  414MOL0     C55781   9.926   6.256   3.621 -0.1694 -0.1096  0.7636
  414MOL0     C55782   9.997   6.319   3.718 -0.7596  0.7032 -0.4920
  414MOL0     C55783   9.946   6.443   3.784  0.5446  1.2485  0.2520
  414MOL0     C55784  10.120   6.256   3.754 -0.2444 -0.2987 -0.5875
  414MOL0     C55785  10.212   6.328   3.850 -0.5845 -0.4899 -0.0559
  414MOL0     O55786  10.294   6.426   3.803 -0.0010  0.3631 -0.1366
  414MOL0     C55787  10.381   6.482   3.891 -0.3460  0.3104 -0.3352
  414MOL0     C55788  10.511   6.486   3.856  1.1714  0.0682  0.3315
  414MOL0     C55789  10.603   6.534   3.951  0.1655 -0.5370 -0.5588
  414MOL0     C55790  10.565   6.599   4.069 -1.0090  0.3590  0.1374
  414MOL0     O55791  10.666   6.671   4.137  0.3302  0.1947 -0.2352
  414MOL0     C55792  10.805   6.640   4.116 -0.7915 -0.5278  0.9389
  414MOL0     C55793  10.891   6.713   4.225  0.3899 -0.3919  0.3915
  414MOL0     C55794  11.024   6.780   4.160 -0.2957  0.1832 -0.0555
  414MOL0     C55795  11.093   6.865   4.276  0.0686 -0.4522  0.1331
  414MOL0     C55796  11.217   6.946   4.241 -0.3130 -0.8653 -0.2782
  414MOL0     C55797  11.329   6.862   4.180 -0.7686 -0.4067 -0.0277
  414MOL0     C55798  11.459   6.933   4.179  0.8958  0.2440  0.1671
  414MOL0     C55799  11.570   6.846   4.124  0.4238  0.5388  0.0256
  414MOL0    Cl55800  11.606   6.707   4.238 -0.1225 -0.1076  0.5369
  414MOL0     C55801  10.432   6.603   4.095 -0.2276  0.1524 -0.3765
  414MOL0     C55802  10.342   6.540   4.011  0.0513 -0.6137  0.7451
  414MOL0     O55803  10.212   6.283   3.964  0.2785  0.1284  0.3695
  414MOL0     C55804  10.165   6.142   3.689  0.1481  0.0154 -0.0909
  414MOL0     C55805  10.091   6.084   3.586 -0.0078 -0.0255 -0.1817
  414MOL0     N55806   9.594   6.181   2.961 -0.2066 -0.1372 -0.5304
  414MOL0     N55807   9.548   6.253   2.861  0.2980 -0.1933 -0.3200
  414MOL0     C55808   9.342   5.999   1.852 -0.6507  0.6485 -0.1447
  414MOL0     C55809   9.343   5.867   1.811  0.1164  0.1092 -0.1858
  414MOL0     C55810   9.213   5.461   1.684 -0.0850 -0.1464 -0.3379
  414MOL0     C55811   9.067   5.425   1.686 -0.8458  0.4857  0.6732
  414MOL0     C55812   9.039   5.300   1.635 -0.0749 -0.8635  0.2224
  414MOL0     C55813   9.124   5.213   1.563 -0.1608  0.1464  0.3998
  414MOL0     O55814   9.090   5.090   1.515  0.5441 -0.7779 -0.2496
  414MOL0     C55815   9.028   5.075   1.385 -0.2052 -0.7509 -0.7612
  414MOL0     C55816   8.874   5.102   1.393 -1.1627  0.0805  0.0790
  414MOL0     C55817   8.797   5.015   1.477 -0.1908  0.9529 -0.1364
  414MOL0     C55818   8.651   5.080   1.495 -0.0426  0.0706  0.9260
  414MOL0     C55819   8.644   5.218   1.543 -0.4389  0.8376 -0.6307
  414MOL0     C55820   8.639   5.326   1.597  0.7555 -0.0790 -0.7204
  414MOL0     C55821   9.256   5.260   1.539 -0.4277  1.4365 -0.1538
  414MOL0     C55822   9.301   5.383   1.594 -0.6268  0.4218  0.4419
  414MOL0     H55823   9.073   5.778   2.015  0.8318 -0.2633  1.6373
  414MOL0     H55824   9.076   6.011   2.068  0.7805  2.7195 -0.7208
  414MOL0     H55825   9.413   6.240   2.015 -0.3115  1.0418  0.2576
  414MOL0     H55826   9.377   6.282   1.850  0.4555  1.9108  0.4862
  414MOL0     H55827   9.380   6.487   1.967 -0.4284  1.4727  2.0187
  414MOL0     H55828   9.203   6.436   1.938 -0.2634  0.1473 -0.1485
  414MOL0     H55829   9.221   6.540   2.156 -0.9627 -1.3816  2.3139
  414MOL0     H55830   9.195   6.372   2.178  1.6949 -1.8058  0.4544
  414MOL0     H55831   9.474   6.369   2.189  1.1556  1.9933 -0.3093
  414MOL0     H55832   9.441   6.535   2.210 -3.5455  0.7470 -1.7428
  414MOL0     H55833   9.321   6.510   2.412  0.2874 -0.9094  3.0148
  414MOL0     H55834   9.292   6.345   2.382  0.9390 -2.0395 -2.1222
  414MOL0     H55835   9.545   6.301   2.392 -0.6330 -0.4808 -0.9750
  414MOL0     H55836   9.569   6.481   2.424 -0.4034  1.0371 -0.1573
  414MOL0     H55837   9.453   6.444   2.657 -1.0632 -0.3030 -0.0826
  414MOL0     H55838   9.414   6.280   2.603  0.2624  0.5832 -0.3690
  414MOL0     H55839   9.714   6.386   2.607  2.2777 -0.3040  1.2810
  414MOL0     H55840   9.644   6.217   2.588 -1.6642 -0.2204  0.1032
  414MOL0     H55841   9.861   6.219   2.790 -0.5775 -2.8786  0.3911
  414MOL0     H55842   9.805   5.983   3.044  1.9253 -1.0137 -3.1217
  414MOL0     H55843   9.938   6.091   2.984  0.0469  0.9617  0.5399
  414MOL0     H55844   9.828   6.258   3.163 -3.4961 -0.7832 -1.4220
  414MOL0     H55845   9.955   6.131   3.208  1.5476  0.0237 -2.7979
  414MOL0     H55846   9.734   5.983   3.248 -2.2250  0.0667 -1.2301
  414MOL0     H55847   9.658   6.141   3.232  0.1527 -1.5563 -1.2553
  414MOL0     H55848   9.713   6.079   3.489  1.9753 -0.2626  1.0469
  414MOL0     H55849   9.765   6.236   3.429  0.6659  0.3651 -1.6454
  414MOL0     H55850   9.830   6.305   3.606  1.1081  1.8090 -1.8014
  414MOL0     H55851   9.894   6.422   3.878 -0.7173 -1.4156 -0.9327
  414MOL0     H55852  10.019   6.518   3.817 -1.3186  2.6649  1.3225
  414MOL0     H55853   9.888   6.500   3.710  0.1621 -0.4676 -0.8172
  414MOL0     H55854  10.563   6.446   3.770  0.2412 -0.4070 -0.0256
  414MOL0     H55855  10.707   6.527   3.923  0.1630 -1.4885 -0.3496
  414MOL0     H55856  10.828   6.533   4.121 -1.1656 -0.5595  2.5578
  414MOL0     H55857  10.845   6.679   4.023 -1.1603  3.0841  2.1519
  414MOL0     H55858  10.832   6.794   4.267 -2.2783 -1.3951 -1.1422
  414MOL0     H55859  10.935   6.643   4.297 -0.5179  0.8215  2.2036
  414MOL0     H55860  10.988   6.832   4.071  1.4616  0.5103 -0.6272
  414MOL0     H55861  11.103   6.711   4.129 -0.9560 -0.5181 -0.1971
  414MOL0     H55862  11.029   6.946   4.310  1.7075  2.0945 -2.3487
  414MOL0     H55863  11.130   6.796   4.352 -1.0665  0.6939  1.7773
  414MOL0     H55864  11.252   6.990   4.335  2.3882  0.9619 -1.9819
  414MOL0     H55865  11.193   7.028   4.173  3.2480 -0.1013 -0.8023
  414MOL0     H55866  11.343   6.766   4.230  1.1207  0.0144  0.3413
  414MOL0     H55867  11.300   6.846   4.076 -1.2793  1.2493 -0.1641
  414MOL0     H55868  11.487   6.963   4.281  2.8262 -0.9328  0.0441
  414MOL0     H55869  11.451   7.024   4.120 -0.0769  0.8888  1.2538
  414MOL0     H55870  11.662   6.900   4.102  0.2789  0.9943  0.4973
  414MOL0     H55871  11.550   6.800   4.027  0.0274  1.2861 -0.2599
  414MOL0     H55872  10.402   6.660   4.181 -2.1498  1.2832 -1.7217
  414MOL0     H55873  10.241   6.532   4.048  0.2792 -0.6656  1.3649
  414MOL0     H55874  10.260   6.102   3.724  0.4330  0.3925 -0.4337
  414MOL0     H55875  10.137   6.001   3.534  1.1424  0.2492  0.3459
  414MOL0     H55876   9.420   6.064   1.811  0.5713  1.9723  3.8307
  414MOL0     H55877   9.413   5.841   1.732  1.7740 -0.6493  1.4316
  414MOL0     H55878   8.988   5.486   1.729 -3.4307 -1.6466 -0.7466
  414MOL0     H55879   8.936   5.266   1.638 -0.2589 -0.2519  1.5373
  414MOL0     H55880   9.075   5.145   1.314  1.5780  1.0993  2.0548
  414MOL0     H55881   9.045   4.972   1.351  1.2716 -0.1624 -1.9144
  414MOL0     H55882   8.840   5.111   1.289 -0.3525  3.8113  0.0106
  414MOL0     H55883   8.864   5.207   1.424  0.7727  0.8801 -1.7276
  414MOL0     H55884   8.850   5.017   1.573  1.0378 -3.2866 -0.5364
  414MOL0     H55885   8.775   4.909   1.464  0.4269  0.4737  2.3091
  414MOL0     H55886   8.604   5.014   1.569  3.8054 -2.7533  1.1395
  414MOL0     H55887   8.591   5.075   1.404  1.2259 -4.1259  0.1002
  414MOL0     H55888   8.602   5.414   1.646 -0.0921 -1.3580  1.0505
  414MOL0     H55889   9.315   5.200   1.470  0.0413  0.1402  1.3124
  414MOL0     H55890   9.397   5.427   1.569  1.2353 -2.1342  2.5171
  415MOL0     O55891   9.498   9.338   8.166  0.6166  0.0706  0.0216
  415MOL0     C55892   9.391   9.378   8.117 -1.0079 -0.0496  0.2686
  415MOL0     O55893   9.365   9.389   7.988  0.1940  0.5573 -0.0515
  415MOL0     C55894   9.446   9.355   7.885  0.2775  0.5409 -0.8345
  415MOL0     C55895   9.546   9.442   7.841 -0.2790  0.8200 -0.1403
  415MOL0     C55896   9.616   9.417   7.725  0.0278  0.5077 -0.7813
  415MOL0     C55897   9.593   9.308   7.649 -0.1199  0.7554 -0.0549
  415MOL0     O55898   9.670   9.297   7.537  0.8858 -0.1010 -0.0817
  415MOL0     C55899   9.687   9.167   7.472 -0.0308 -0.3969  0.2968
  415MOL0     C55900   9.626   9.184   7.337  0.8024  0.1505  0.2969
  415MOL0     C55901   9.473   9.172   7.346  0.4970  0.3047 -0.9218
  415MOL0     C55902   9.410   9.190   7.203  0.4302 -1.0239 -0.4633
  415MOL0     C55903   9.259   9.211   7.200  0.8483  0.5606 -0.5446
  415MOL0     C55904   9.227   9.349   7.167 -0.2771 -1.0718 -0.5613
  415MOL0     C55905   9.081   9.381   7.211  0.5898  0.5287 -0.6461
  415MOL0     C55906   9.073   9.421   7.363 -0.6443 -0.0215 -0.3924
  415MOL0     N55907   9.146   9.543   7.400  0.4446  0.6723  0.4618
  415MOL0     C55908   9.263   9.551   7.472  0.0586  0.9509 -0.2591
  415MOL0     C55909   9.303   9.675   7.469 -0.3797 -0.6593 -0.6802
  415MOL0     C55910   9.431   9.736   7.519  0.1148 -0.4763 -0.6815
  415MOL0     C55911   9.439   9.725   7.673 -0.9061 -0.0242  0.3559
  415MOL0     C55912   9.346   9.822   7.735 -0.8652  0.0612 -0.0619
  415MOL0     C55913   9.349   9.814   7.896  0.6970  0.8326  1.0201
  415MOL0     O55914   9.482   9.826   7.954 -0.3865  0.4035 -0.3709
  415MOL0     C55915   9.488   9.838   8.094 -0.1388 -0.0170  0.6283
  415MOL0     C55916   9.378   9.834   8.178 -0.1717  0.0127  1.8459
  415MOL0     C55917   9.399   9.835   8.320  1.2821 -0.1344  0.4876
  415MOL0     C55918   9.266   9.839   8.393 -0.0421 -0.3109  0.2302
  415MOL0     C55919   9.526   9.848   8.370  0.3737  0.6092 -0.1658
  415MOL0     C55920   9.556   9.849   8.512 -0.8707  0.5216  0.7341
  415MOL0     O55921   9.530   9.734   8.585 -0.8738 -0.0077  1.3875
  415MOL0     C55922   9.521   9.744   8.721 -1.1946 -0.0728 -0.1932
  415MOL0     C55923   9.406   9.801   8.776  0.4505 -0.0641 -0.4960
  415MOL0     C55924   9.382   9.798   8.915 -0.0638 -0.6230  0.8450
  415MOL0     C55925   9.482   9.751   9.008 -0.0667  0.1191 -0.6022
  415MOL0     O55926   9.451   9.748   9.147 -0.5818  0.2338 -0.7750
  415MOL0     C55927   9.538   9.652   9.217  0.0590 -0.1436  0.4058
  415MOL0     C55928   9.465   9.620   9.353 -0.2791 -0.5511 -0.3427
  415MOL0     C55929   9.558   9.534   9.431  0.5211 -0.7320 -0.9144
  415MOL0     C55930   9.491   9.475   9.558 -0.6942 -0.1317  0.3455
  415MOL0     C55931   9.571   9.373   9.631 -0.2814 -0.0742  0.7142
  415MOL0     C55932   9.677   9.429   9.715 -0.1170 -0.2166  0.0227
  415MOL0     C55933   9.788   9.335   9.767  0.3273  0.4190 -0.4384
  415MOL0     C55934   9.911   9.418   9.808 -0.1260 -0.1318 -0.8097
  415MOL0    Cl55935   9.998   9.480   9.672  0.0569  0.1054 -0.3554
  415MOL0     C55936   9.602   9.710   8.946 -0.4790  0.4698 -0.4560
  415MOL0     C55937   9.619   9.701   8.811  0.2099  0.5618  0.6991
  415MOL0     O55938   9.608   9.955   8.553 -0.3334 -0.0781 -0.5591
  415MOL0     C55939   9.630   9.867   8.282  0.0440 -0.1106  0.1221
  415MOL0     C55940   9.614   9.861   8.144 -1.1922 -0.4134 -1.2004
  415MOL0     N55941   9.210   9.748   7.397  0.2322  0.6104  1.2415
  415MOL0     N55942   9.117   9.667   7.348 -0.6707 -0.0116 -0.1138
  415MOL0     C55943   9.492   9.221   7.694 -0.0556  0.8577 -0.2280
  415MOL0     C55944   9.415   9.241   7.809  0.5812  0.2579 -0.4334
  415MOL0     C55945   9.291   9.422   8.224  0.5437  0.1822 -0.2314
  415MOL0     C55946   9.175   9.495   8.181 -0.0364  0.8113  1.1782
  415MOL0     C55947   9.073   9.534   8.267 -0.1165  0.0235 -0.2459
  415MOL0     C55948   9.086   9.494   8.404  0.1298  0.1352  0.1769
  415MOL0     O55949   8.976   9.526   8.482  0.6985  0.2273  0.2741
  415MOL0     C55950   8.948   9.445   8.599  0.2013  0.6290 -0.1580
  415MOL0     C55951   8.901   9.307   8.561 -0.2419  0.5998 -0.5995
  415MOL0     C55952   8.780   9.301   8.464  0.4545 -0.9356 -0.0838
  415MOL0     C55953   8.670   9.396   8.504  0.1188  0.8407 -0.0377
  415MOL0     C55954   8.563   9.391   8.416 -0.5309  0.4447 -0.0849
  415MOL0     C55955   8.471   9.404   8.334 -0.8734  0.3409  0.0147
  415MOL0     C55956   9.198   9.425   8.443  0.5581  0.5409 -0.5184
  415MOL0     C55957   9.300   9.390   8.353  0.2196 -0.0332 -0.0665
  415MOL0     H55958   9.561   9.524   7.910 -3.5107 -0.1084  1.8737
  415MOL0     H55959   9.708   9.468   7.699  1.0468 -0.1914  1.2351
  415MOL0     H55960   9.788   9.127   7.457 -0.1468 -0.6566  0.2045
  415MOL0     H55961   9.630   9.092   7.528 -0.9507  0.2935  0.3075
  415MOL0     H55962   9.652   9.279   7.291  3.8951 -0.6680  0.1314
  415MOL0     H55963   9.665   9.109   7.267  0.3502  3.1836 -3.5304
  415MOL0     H55964   9.438   9.077   7.388 -3.0846  2.4677  1.5118
  415MOL0     H55965   9.427   9.245   7.413 -1.7297 -3.1742  1.6982
  415MOL0     H55966   9.470   9.268   7.156  1.6833 -1.2915  0.6251
  415MOL0     H55967   9.425   9.096   7.149 -1.5769 -0.9512 -1.2434
  415MOL0     H55968   9.210   9.150   7.123 -1.5408 -0.1231  1.3807
  415MOL0     H55969   9.208   9.187   7.293  1.5302 -0.0183 -0.3110
  415MOL0     H55970   9.289   9.427   7.212  0.2466 -0.5980 -2.0729
  415MOL0     H55971   9.227   9.366   7.059 -3.6163 -3.6646 -1.1404
  415MOL0     H55972   9.037   9.467   7.161  1.9574  0.9716 -1.1034
  415MOL0     H55973   9.014   9.295   7.196 -1.7619  1.5739  2.6179
  415MOL0     H55974   9.109   9.339   7.426 -0.8759  0.7356  0.7312
  415MOL0     H55975   8.966   9.433   7.381 -0.3043  0.2500  1.7144
  415MOL0     H55976   9.322   9.472   7.518  0.1530  0.6099 -0.9515
  415MOL0     H55977   9.517   9.683   7.476 -0.7552 -0.4316 -2.5390
  415MOL0     H55978   9.440   9.835   7.474  0.5047 -0.3152 -0.2639
  415MOL0     H55979   9.545   9.728   7.701  0.7735 -0.2864 -4.9629
  415MOL0     H55980   9.396   9.627   7.697 -3.0048  0.4251 -1.3347
  415MOL0     H55981   9.243   9.799   7.709 -2.6158  3.9759  2.3499
  415MOL0     H55982   9.383   9.919   7.699 -1.2204  0.4791  0.6566
  415MOL0     H55983   9.305   9.716   7.917  0.7060  0.9696  1.6749
  415MOL0     H55984   9.287   9.888   7.946  0.4137 -1.7221  4.8407
  415MOL0     H55985   9.279   9.813   8.139  0.2492  0.3844  0.5564
  415MOL0     H55986   9.231   9.941   8.414 -3.0688 -1.0999 -0.4556
  415MOL0     H55987   9.180   9.793   8.344  0.0760  1.1301 -1.4365
  415MOL0     H55988   9.280   9.783   8.485  1.2391  1.6694  1.3179
  415MOL0     H55989   9.321   9.820   8.712 -1.4076 -0.8358  1.5838
  415MOL0     H55990   9.284   9.831   8.947 -0.1596 -2.1847  2.2675
  415MOL0     H55991   9.545   9.555   9.168 -1.8557  0.1869 -0.6534
  415MOL0     H55992   9.634   9.698   9.240  0.8757  0.4575 -3.5781
  415MOL0     H55993   9.448   9.710   9.413  0.4160 -1.0101  0.5804
  415MOL0     H55994   9.367   9.571   9.345 -1.3268  1.7112 -2.6388
  415MOL0     H55995   9.636   9.603   9.464 -1.5704  1.5681 -0.3696
  415MOL0     H55996   9.615   9.456   9.381  4.1732  1.4221 -0.4349
  415MOL0     H55997   9.461   9.562   9.619 -0.8286  0.7089 -0.8873
  415MOL0     H55998   9.405   9.429   9.509  0.0971 -1.0552 -0.1929
  415MOL0     H55999   9.609   9.304   9.555  1.4905  0.1577  1.3287
  415MOL0     H56000   9.506   9.311   9.693  1.4442 -0.0866  2.5828
  415MOL0     H56001   9.723   9.514   9.664 -1.4153  1.1098  0.9866
  415MOL0     H56002   9.632   9.484   9.798  1.5654  3.5844 -1.3475
  415MOL0     H56003   9.810   9.259   9.691 -3.1769 -0.7901 -0.4287
  415MOL0     H56004   9.752   9.279   9.854 -0.0183  0.6265 -0.4508
  415MOL0     H56005   9.978   9.356   9.867  1.5027  1.6354 -0.7264
  415MOL0     H56006   9.873   9.497   9.873  1.4302  0.3845 -0.4925
  415MOL0     H56007   9.683   9.680   9.013 -1.6112 -3.7163 -0.6493
  415MOL0     H56008   9.709   9.669   8.759  1.5428  3.1975  1.2023
  415MOL0     H56009   9.722   9.902   8.328 -1.1528  0.6560  2.0655
  415MOL0     H56010   9.704   9.877   8.086 -0.9953 -2.1407 -1.4294
  415MOL0     H56011   9.464   9.128   7.644  0.2845 -0.8716  2.5842
  415MOL0     H56012   9.332   9.180   7.842 -1.2228  1.4300 -2.5301
  415MOL0     H56013   9.147   9.509   8.077 -3.5365  1.3544  2.0496
  415MOL0     H56014   8.980   9.583   8.239 -0.4191  0.0709  0.7745
  415MOL0     H56015   9.034   9.439   8.666 -1.4680  0.1944  2.0584
  415MOL0     H56016   8.871   9.497   8.657  0.0578 -2.3497  2.6315
  415MOL0     H56017   8.883   9.253   8.655  2.1888 -0.9293 -0.9399
  415MOL0     H56018   8.983   9.252   8.515 -0.0507 -0.0851  0.5082
  415MOL0     H56019   8.739   9.200   8.471 -2.1017  0.1026  1.4208
  415MOL0     H56020   8.815   9.305   8.360  0.6629 -1.0476 -0.0173
  415MOL0     H56021   8.698   9.502   8.504 -2.3365  1.6021  1.8846
  415MOL0     H56022   8.637   9.361   8.603  0.4544  2.7624  0.7969
  415MOL0     H56023   8.393   9.411   8.261  0.0334 -2.3399 -1.3341
  415MOL0     H56024   9.223   9.402   8.546 -0.0008 -0.7246 -0.6459
  415MOL0     H56025   9.393   9.347   8.392 -0.3101  1.0186  2.5826
  416MOL0     O56026   4.813   6.386   5.750  0.1934  0.9318 -0.1090
  416MOL0     C56027   4.865   6.420   5.648  0.3310 -0.0512  0.1029
  416MOL0     O56028   4.980   6.496   5.642  0.1974  0.2938 -0.4082
  416MOL0     C56029   5.053   6.535   5.748  0.8909 -0.4154 -1.0882
  416MOL0     C56030   5.196   6.529   5.734 -0.1022 -0.1049 -0.4210
  416MOL0     C56031   5.283   6.591   5.833 -0.5287  1.0839 -0.2357
  416MOL0     C56032   5.222   6.627   5.955 -0.1757  0.5088  0.2046
  416MOL0     O56033   5.314   6.669   6.056  0.1854  0.2381 -0.0832
  416MOL0     C56034   5.274   6.793   6.112  1.0346  0.8665  0.8317
  416MOL0     C56035   5.396   6.840   6.185 -0.2577  0.5897 -0.0485
  416MOL0     C56036   5.365   6.963   6.269  1.0310 -0.0096 -0.6347
  416MOL0     C56037   5.477   6.986   6.370  0.2382  0.1257  0.2456
  416MOL0     C56038   5.433   7.104   6.451 -0.4053 -0.2033  1.0952
  416MOL0     C56039   5.534   7.133   6.560  0.1261 -0.0823  0.1637
  416MOL0     C56040   5.667   7.195   6.507  0.6654  0.3331  0.5799
  416MOL0     C56041   5.746   7.281   6.612  0.7231  0.4764  0.3432
  416MOL0     N56042   5.743   7.420   6.579  1.6469 -0.6017  0.3722
  416MOL0     C56043   5.797   7.479   6.468 -0.5166 -0.3794 -0.2648
  416MOL0     C56044   5.793   7.610   6.478 -0.1029 -0.3087 -0.6294
  416MOL0     C56045   5.846   7.699   6.366 -0.0261  0.0787 -0.2784
  416MOL0     C56046   5.731   7.757   6.288 -0.5479 -0.3709  0.3457
  416MOL0     C56047   5.784   7.860   6.177 -0.0223 -1.4603 -0.0352
  416MOL0     C56048   5.912   7.822   6.100  1.2497  0.6756  0.4641
  416MOL0     O56049   5.871   7.712   6.016 -1.0981 -0.0808  0.1266
  416MOL0     C56050   5.904   7.723   5.888 -0.0281 -0.2253 -0.1021
  416MOL0     C56051   6.016   7.784   5.834  0.0112 -0.8836  0.2433
  416MOL0     C56052   6.044   7.790   5.696 -0.1337 -0.1312  0.0225
  416MOL0     C56053   6.174   7.852   5.652 -0.3781 -0.0372  0.5064
  416MOL0     C56054   5.938   7.772   5.601 -0.2930  0.9944 -0.1576
  416MOL0     C56055   5.954   7.800   5.463 -0.3300 -0.3023  0.7194
  416MOL0     O56056   5.916   7.688   5.389  0.2395  0.1779  0.7843
  416MOL0     C56057   5.882   7.707   5.254 -0.6386 -0.1119  0.2950
  416MOL0     C56058   5.956   7.779   5.158  0.1360 -0.9604 -0.6424
  416MOL0     C56059   5.903   7.787   5.030 -1.1643  1.1952 -1.0670
  416MOL0     C56060   5.788   7.718   5.001  0.5232  0.1552  0.8456
  416MOL0     O56061   5.716   7.749   4.894 -0.1307  0.0192 -0.0757
  416MOL0     C56062   5.750   7.677   4.779 -0.0910 -0.1814  0.1429
  416MOL0     C56063   5.825   7.777   4.696  0.7459  0.9864 -0.5968
  416MOL0     C56064   5.901   7.709   4.582 -1.1274  0.4800  0.1277
  416MOL0     C56065   5.959   7.815   4.486  0.1407  0.8939 -0.1633
  416MOL0     C56066   6.068   7.762   4.399 -0.0290 -0.4585 -0.4786
  416MOL0     C56067   6.151   7.881   4.330  0.2776  0.0132 -0.6200
  416MOL0     C56068   6.228   7.824   4.204  0.5504  0.5921 -0.6171
  416MOL0     C56069   6.343   7.919   4.159  0.5736  1.1603  0.4907
  416MOL0    Cl56070   6.368   7.886   3.971  0.0256  0.3316 -0.3326
  416MOL0     C56071   5.718   7.635   5.088 -0.1237  0.2832  0.5605
  416MOL0     C56072   5.773   7.625   5.216  0.4243 -0.2892 -0.9382
  416MOL0     O56073   5.993   7.914   5.429  0.5643  1.1805  0.1741
  416MOL0     C56074   5.817   7.705   5.646  0.4487 -0.3726 -0.5957
  416MOL0     C56075   5.800   7.685   5.792 -0.9327 -0.5791  0.0071
  416MOL0     N56076   5.740   7.640   6.600  1.4423  0.1854 -0.4376
  416MOL0     N56077   5.709   7.526   6.657  0.6159  0.5297  0.5065
  416MOL0     C56078   5.086   6.615   5.976 -0.5083  0.5545 -0.3900
  416MOL0     C56079   5.005   6.576   5.874 -0.2481 -0.0879  0.5676
  416MOL0     C56080   4.798   6.379   5.527  0.6008  0.2980 -0.3185
  416MOL0     C56081   4.715   6.264   5.532 -0.1516  0.7149  1.3055
  416MOL0     C56082   4.653   6.213   5.414 -0.7875  0.2602  0.6888
  416MOL0     C56083   4.672   6.281   5.293 -0.5867  0.1291  0.8817
  416MOL0     O56084   4.618   6.229   5.174 -0.6509  0.3388  0.6312
  416MOL0     C56085   4.686   6.257   5.050  0.6176  0.2097  0.5035
  416MOL0     C56086   4.624   6.182   4.940  0.4071 -0.1305 -0.3884
  416MOL0     C56087   4.639   6.028   4.946  0.3547 -0.1264 -0.8144
  416MOL0     C56088   4.518   5.962   5.025 -0.5868  1.0565  1.0404
  416MOL0     C56089   4.498   5.831   4.975  0.7845  1.3043 -0.0445
  416MOL0     C56090   4.505   5.716   4.941 -0.5776  0.6984  0.2505
  416MOL0     C56091   4.761   6.391   5.291 -0.5619 -0.0942 -0.9907
  416MOL0     C56092   4.822   6.435   5.405 -0.0788  0.0696 -0.7099
  416MOL0     H56093   5.237   6.501   5.638  1.5820  1.4735 -0.2055
  416MOL0     H56094   5.392   6.591   5.831 -0.3693 -3.0860 -0.9840
  416MOL0     H56095   5.245   6.858   6.029 -1.1009 -3.0900 -1.8378
  416MOL0     H56096   5.190   6.781   6.181  1.4744  1.5523  1.5126
  416MOL0     H56097   5.427   6.756   6.248 -2.1147 -1.3954 -1.6151
  416MOL0     H56098   5.472   6.852   6.108 -2.0634  0.2454 -1.9781
  416MOL0     H56099   5.348   7.044   6.198 -0.2664  0.9813  0.7554
  416MOL0     H56100   5.276   6.950   6.330 -0.9367  0.7604 -3.1800
  416MOL0     H56101   5.479   6.898   6.435 -1.7453  0.8060  1.2754
  416MOL0     H56102   5.574   7.003   6.321  2.7816 -2.1844  4.0008
  416MOL0     H56103   5.425   7.194   6.389  2.3361 -0.5356  0.0799
  416MOL0     H56104   5.349   7.092   6.520 -0.0390  3.1759  2.3101
  416MOL0     H56105   5.492   7.207   6.629 -0.3271  2.9583 -3.0538
  416MOL0     H56106   5.555   7.044   6.620 -2.6086  0.5951  2.2991
  416MOL0     H56107   5.725   7.118   6.456  0.8664  1.2863 -0.6554
  416MOL0     H56108   5.642   7.259   6.423 -2.0688 -0.1481  0.9251
  416MOL0     H56109   5.849   7.245   6.611 -0.6009 -3.9330 -1.1498
  416MOL0     H56110   5.716   7.263   6.715 -1.0882  0.1286 -0.2014
  416MOL0     H56111   5.839   7.413   6.393 -1.0923 -1.9721  0.7617
  416MOL0     H56112   5.924   7.772   6.392 -1.6668  2.7261 -2.3420
  416MOL0     H56113   5.893   7.626   6.299 -0.2042 -0.2561 -0.0419
  416MOL0     H56114   5.658   7.801   6.357 -1.7515 -1.7615 -0.0012
  416MOL0     H56115   5.681   7.683   6.226  0.5033 -0.6766 -0.1541
  416MOL0     H56116   5.803   7.957   6.225 -1.2962 -1.8096  1.2454
  416MOL0     H56117   5.700   7.876   6.108 -0.8846 -2.5703  0.7303
  416MOL0     H56118   5.993   7.801   6.170  0.4537  3.2425  2.2698
  416MOL0     H56119   5.942   7.910   6.041  0.5309  0.5518 -0.1109
  416MOL0     H56120   6.090   7.826   5.901 -1.6503  0.7068  1.1657
  416MOL0     H56121   6.207   7.807   5.557 -2.1366 -2.7721  1.0798
  416MOL0     H56122   6.160   7.960   5.645  1.5179  0.3735  2.1038
  416MOL0     H56123   6.257   7.822   5.716  0.1443 -1.6540 -0.8433
  416MOL0     H56124   6.041   7.838   5.190 -1.5873  2.4387 -1.8024
  416MOL0     H56125   5.960   7.842   4.956  3.1082 -0.9889  0.2874
  416MOL0     H56126   5.818   7.593   4.797  1.2879  0.7470 -0.5775
  416MOL0     H56127   5.662   7.654   4.718 -2.4094  2.2005  2.3565
  416MOL0     H56128   5.750   7.845   4.654  1.3759  2.6494  0.8200
  416MOL0     H56129   5.896   7.842   4.749 -0.3332  0.5189  1.5483
  416MOL0     H56130   5.837   7.643   4.523  1.0649  0.1189 -2.0073
  416MOL0     H56131   5.981   7.645   4.623 -0.0829  2.6631  1.7260
  416MOL0     H56132   5.873   7.851   4.429 -1.8689 -2.2201  0.6265
  416MOL0     H56133   5.984   7.899   4.551  0.9882  0.3776  0.1949
  416MOL0     H56134   6.013   7.713   4.318 -1.9307 -0.8197  0.9626
  416MOL0     H56135   6.129   7.693   4.457 -3.8203 -0.9338  3.4165
  416MOL0     H56136   6.085   7.960   4.291  0.6263  2.1042  2.7160
  416MOL0     H56137   6.212   7.926   4.408 -0.2908  0.6310 -0.5239
  416MOL0     H56138   6.157   7.817   4.121  1.2087 -1.8755 -1.0566
  416MOL0     H56139   6.268   7.724   4.226  2.9666  1.0747 -2.3197
  416MOL0     H56140   6.433   7.907   4.220  0.6945 -0.3055  0.0520
  416MOL0     H56141   6.310   8.022   4.175 -2.2173  0.2132  1.4481
  416MOL0     H56142   5.623   7.597   5.053  0.3007 -1.4098  1.1651
  416MOL0     H56143   5.722   7.566   5.292  0.5127  4.0965  3.0040
  416MOL0     H56144   5.727   7.691   5.586  0.8952 -0.9795 -1.1321
  416MOL0     H56145   5.713   7.636   5.834 -0.2632 -2.7282 -0.9395
  416MOL0     H56146   5.042   6.643   6.071 -1.8008 -1.3699 -0.3691
  416MOL0     H56147   4.900   6.590   5.898 -0.3610 -1.4928  0.9775
  416MOL0     H56148   4.704   6.208   5.624  0.9793  0.8334  1.5207
  416MOL0     H56149   4.589   6.125   5.414 -0.2211 -0.2030 -1.6892
  416MOL0     H56150   4.668   6.362   5.025 -3.1255 -0.0233  1.6131
  416MOL0     H56151   4.786   6.217   5.065 -0.4184 -2.4109  1.0241
  416MOL0     H56152   4.662   6.229   4.849 -0.7381  3.3298  0.7709
  416MOL0     H56153   4.520   6.216   4.940  0.0994 -0.7934  2.5934
  416MOL0     H56154   4.739   5.988   4.967  0.7304  0.1895 -1.9216
  416MOL0     H56155   4.625   6.003   4.840 -0.6231 -2.7748 -0.1358
  416MOL0     H56156   4.427   6.016   4.997 -0.5388  0.3993 -0.5156
  416MOL0     H56157   4.525   5.967   5.134 -1.3032  1.7541  1.0647
  416MOL0     H56158   4.518   5.619   4.898 -2.0744  0.6294 -0.1003
  416MOL0     H56159   4.777   6.432   5.192 -1.0276 -2.3283 -2.0649
  416MOL0     H56160   4.890   6.519   5.401 -0.0706  0.1364  0.5391
  417MOL0     O56161   9.088  10.792   3.579 -0.0663  0.3517 -0.2729
  417MOL0     C56162   9.085  10.736   3.695 -0.3288  0.4040  0.4121
  417MOL0     O56163   9.142  10.618   3.725 -0.6041 -0.2560 -0.3574
  417MOL0     C56164   9.166  10.510   3.633  0.3094  0.1750  0.8462
  417MOL0     C56165   9.126  10.521   3.497 -0.2386 -1.2040 -0.0516
  417MOL0     C56166   9.150  10.415   3.409  0.3834  0.4004 -1.5563
  417MOL0     C56167   9.203  10.291   3.451 -0.5990 -0.3330  0.1786
  417MOL0     O56168   9.219  10.179   3.381  0.4732  0.5171  0.1633
  417MOL0     C56169   9.226  10.190   3.237 -0.4249  0.3522  0.0032
  417MOL0     C56170   9.300  10.075   3.172 -0.8609 -0.7797 -0.3409
  417MOL0     C56171   9.345  10.113   3.021  0.3749 -0.0013 -0.3924
  417MOL0     C56172   9.452  10.229   3.007 -0.4697 -0.2707 -1.0329
  417MOL0     C56173   9.401  10.366   2.951  0.8350  0.7300 -0.1613
  417MOL0     C56174   9.347  10.372   2.813 -0.6996  1.2382  0.2809
  417MOL0     C56175   9.470  10.363   2.715  0.1347 -0.5180  1.0325
  417MOL0     C56176   9.447  10.374   2.557 -0.3570 -0.2035 -0.3632
  417MOL0     N56177   9.564  10.368   2.481  0.2381  0.5535 -0.1042
  417MOL0     C56178   9.663  10.279   2.514 -1.3879 -0.7007 -0.0435
  417MOL0     C56179   9.748  10.309   2.406 -0.1799  0.5911 -0.3145
  417MOL0     C56180   9.880  10.242   2.381 -0.3527  0.1003 -0.1481
  417MOL0     C56181   9.989  10.282   2.486 -0.4310 -0.1832  0.7055
  417MOL0     C56182  10.046  10.414   2.463 -0.2389 -1.0616 -0.0854
  417MOL0     C56183  10.146  10.467   2.561  0.7650  0.5623 -0.7134
  417MOL0     O56184  10.255  10.374   2.582  0.3603  0.0652 -1.0608
  417MOL0     C56185  10.358  10.428   2.649 -0.2458  0.4987 -1.0875
  417MOL0     C56186  10.471  10.347   2.642 -0.1771 -0.1224  0.2721
  417MOL0     C56187  10.586  10.360   2.720  0.4704 -0.0859  0.5625
  417MOL0     C56188  10.710  10.268   2.687  0.0790 -0.6026 -0.4494
  417MOL0     C56189  10.587  10.475   2.807 -0.1721  0.0443 -0.0531
  417MOL0     C56190  10.710  10.513   2.884 -0.5434 -0.6632 -0.7249
  417MOL0     O56191  10.826  10.446   2.860  0.1644  0.5889  0.1365
  417MOL0     C56192  10.942  10.438   2.934 -0.4180  0.4985 -0.7210
  417MOL0     C56193  11.044  10.375   2.869  0.1941  0.3457 -0.1788
  417MOL0     C56194  11.166  10.355   2.934  0.3299 -0.1007 -0.5569
  417MOL0     C56195  11.182  10.391   3.072  0.0120 -0.4684 -0.2858
  417MOL0     O56196  11.298  10.349   3.134 -0.2385 -0.0428 -0.0141
  417MOL0     C56197  11.317  10.337   3.269 -0.3532  0.3855  0.0770
  417MOL0     C56198  11.384  10.461   3.334 -0.4956  1.4889  1.1106
  417MOL0     C56199  11.404  10.469   3.489  0.2493  0.1186 -0.7190
  417MOL0     C56200  11.270  10.476   3.568 -0.3926  0.0361  0.5013
  417MOL0     C56201  11.294  10.437   3.716  0.2176 -0.2380 -0.8751
  417MOL0     C56202  11.406  10.521   3.777  0.2745 -0.6648 -0.6834
  417MOL0     C56203  11.447  10.485   3.923 -0.4843 -0.3971  0.3954
  417MOL0     C56204  11.340  10.538   4.020  1.2095  0.1360  0.3881
  417MOL0    Cl56205  11.396  10.523   4.190  0.2772 -0.5475 -0.2184
  417MOL0     C56206  11.081  10.472   3.131  0.9262 -0.9829  1.1616
  417MOL0     C56207  10.961  10.503   3.062 -0.0582 -0.5569 -0.7060
  417MOL0     O56208  10.712  10.621   2.942  0.4724 -1.0471 -0.7010
  417MOL0     C56209  10.474  10.551   2.823 -0.0563 -0.3940 -0.0045
  417MOL0     C56210  10.362  10.525   2.742  0.2756  0.1735 -0.5524
  417MOL0     N56211   9.697  10.412   2.338 -0.2704 -0.9608 -0.0305
  417MOL0     N56212   9.586  10.448   2.377 -0.5229  0.1097 -0.3377
  417MOL0     C56213   9.247  10.296   3.585 -0.0785  0.3195  0.3007
  417MOL0     C56214   9.227  10.390   3.678  0.2894  0.4665  0.5771
  417MOL0     C56215   9.030  10.809   3.812  0.7173 -1.0222  0.2514
  417MOL0     C56216   8.982  10.943   3.797 -0.0022  0.3156  0.3960
  417MOL0     C56217   8.951  11.021   3.907  0.7626  0.0424 -0.7408
  417MOL0     C56218   8.942  10.961   4.031  0.1084  0.0504  0.9743
  417MOL0     O56219   8.903  11.044   4.127 -0.3376  0.2062 -0.1411
  417MOL0     C56220   8.891  11.009   4.263  0.2321  0.5086  0.9829
  417MOL0     C56221   8.765  10.925   4.279  0.3574  0.3807  0.4313
  417MOL0     C56222   8.716  10.920   4.423 -0.1625  0.5294  0.0781
  417MOL0     C56223   8.585  10.840   4.430  0.1193 -0.2007 -0.6802
  417MOL0     C56224   8.539  10.809   4.566  0.6193 -0.3774  0.3157
  417MOL0     C56225   8.526  10.809   4.684  0.8863 -0.7143  0.2824
  417MOL0     C56226   8.990  10.826   4.049  0.2481 -1.0425  0.4519
  417MOL0     C56227   9.046  10.763   3.941  0.1789 -0.1122  0.4614
  417MOL0     H56228   9.064  10.598   3.451  2.4414  0.3394 -1.3243
  417MOL0     H56229   9.105  10.424   3.311  1.6415 -1.8398 -2.4274
  417MOL0     H56230   9.123  10.184   3.198  0.2227 -1.3407 -1.5813
  417MOL0     H56231   9.277  10.278   3.195 -2.5628  0.9248 -1.5890
  417MOL0     H56232   9.388  10.046   3.230 -0.3979  0.3644 -0.4515
  417MOL0     H56233   9.235   9.987   3.170  0.8272 -2.0884 -2.1007
  417MOL0     H56234   9.376  10.015   2.984 -2.4601 -1.9835  2.0006
  417MOL0     H56235   9.259  10.144   2.961  0.4487 -0.6564 -0.8504
  417MOL0     H56236   9.493  10.249   3.106  0.1624  0.3812 -1.4144
  417MOL0     H56237   9.542  10.200   2.951 -0.7995  0.1362 -1.7961
  417MOL0     H56238   9.318  10.392   3.018  0.2832 -1.3796  0.0457
  417MOL0     H56239   9.483  10.436   2.968  0.5221  1.0566  0.0361
  417MOL0     H56240   9.276  10.292   2.791  3.0395 -3.0203  2.3208
  417MOL0     H56241   9.295  10.467   2.793 -3.7956 -0.9835 -3.7831
  417MOL0     H56242   9.547  10.438   2.736 -2.7604  2.9840  0.1802
  417MOL0     H56243   9.521  10.267   2.726  0.4529 -0.8527 -2.3936
  417MOL0     H56244   9.380  10.457   2.531 -0.6224  0.1636  1.3328
  417MOL0     H56245   9.383  10.287   2.541 -1.8329  0.5144  1.2319
  417MOL0     H56246   9.682  10.203   2.590 -2.4366 -1.9870 -1.0158
  417MOL0     H56247   9.863  10.134   2.385 -0.1319  0.1072  2.4940
  417MOL0     H56248   9.898  10.260   2.275 -1.5760  0.1009 -0.3695
  417MOL0     H56249  10.064  10.203   2.497  0.3598  0.3858 -0.3696
  417MOL0     H56250   9.939  10.295   2.582 -2.7424  1.2128 -0.6098
  417MOL0     H56251   9.968  10.491   2.458  2.9519  2.5116  1.2491
  417MOL0     H56252  10.087  10.414   2.361  3.0580 -2.9576  1.1118
  417MOL0     H56253  10.090  10.481   2.654  2.5063  0.6792  0.3552
  417MOL0     H56254  10.186  10.562   2.525 -0.8444  0.3588 -3.3056
  417MOL0     H56255  10.486  10.273   2.564 -0.2267 -0.8436  0.9297
  417MOL0     H56256  10.758  10.207   2.763  0.5290  0.6734  0.3147
  417MOL0     H56257  10.684  10.198   2.607 -1.4714 -0.2132 -0.3269
  417MOL0     H56258  10.782  10.335   2.639 -0.1835  1.5227  1.9197
  417MOL0     H56259  11.030  10.334   2.769 -0.6345  0.3024 -0.0511
  417MOL0     H56260  11.246  10.300   2.885  0.3381  0.3497 -1.0544
  417MOL0     H56261  11.219  10.321   3.316  0.5618 -0.8103  1.6869
  417MOL0     H56262  11.390  10.257   3.284 -0.9823 -0.6097 -1.8347
  417MOL0     H56263  11.485  10.476   3.296  0.5559  2.2406  3.9350
  417MOL0     H56264  11.328  10.551   3.307 -0.0634  1.7744  1.1556
  417MOL0     H56265  11.456  10.562   3.512 -0.5955  0.3913  0.1764
  417MOL0     H56266  11.472  10.391   3.524 -2.5079 -1.5023  1.5056
  417MOL0     H56267  11.219  10.570   3.545  0.4409  0.1954 -0.8082
  417MOL0     H56268  11.201  10.405   3.521 -0.3029  0.3035 -0.0472
  417MOL0     H56269  11.329  10.334   3.727 -0.5554 -0.2367  4.3093
  417MOL0     H56270  11.198  10.439   3.769  0.3260  1.1273 -0.7061
  417MOL0     H56271  11.499  10.514   3.720 -0.5570 -3.0281 -1.8726
  417MOL0     H56272  11.384  10.627   3.792 -1.1200 -0.9752 -0.4603
  417MOL0     H56273  11.545  10.530   3.942  1.1461 -2.7914 -1.6410
  417MOL0     H56274  11.478  10.380   3.922  2.2455  0.3315  0.1358
  417MOL0     H56275  11.260  10.470   3.989 -0.0937  2.0566 -0.6728
  417MOL0     H56276  11.322  10.645   4.012 -2.3267 -0.2685  1.4487
  417MOL0     H56277  11.088  10.515   3.231 -3.3461  3.6749 -0.1329
  417MOL0     H56278  10.882  10.566   3.101  3.1373  3.1654  0.3874
  417MOL0     H56279  10.460  10.617   2.909 -0.5914  0.2972 -0.6046
  417MOL0     H56280  10.271  10.575   2.771  1.4604  0.1044  3.9532
  417MOL0     H56281   9.314  10.220   3.624  1.8656  0.8077 -1.8510
  417MOL0     H56282   9.262  10.385   3.781  1.5621 -0.4396  0.1107
  417MOL0     H56283   8.986  10.987   3.699 -2.8162 -1.8676 -0.8479
  417MOL0     H56284   8.938  11.127   3.888 -1.4102 -0.2236 -1.0614
  417MOL0     H56285   8.969  10.940   4.298 -2.7259 -3.1461  0.9967
  417MOL0     H56286   8.877  11.103   4.317 -1.9670  1.8673 -1.6936
  417MOL0     H56287   8.778  10.832   4.223 -0.3706  1.3547 -1.4597
  417MOL0     H56288   8.685  10.977   4.224 -0.6921 -0.3306  1.2415
  417MOL0     H56289   8.699  11.024   4.453 -0.8511  0.7434 -1.0021
  417MOL0     H56290   8.780  10.863   4.490  1.6109  2.4064  0.0873
  417MOL0     H56291   8.580  10.740   4.385 -0.0393 -0.5204  0.0194
  417MOL0     H56292   8.519  10.908   4.376  2.4907  2.3513 -0.5513
  417MOL0     H56293   8.520  10.824   4.790 -1.2485 -0.9134  0.2470
  417MOL0     H56294   8.989  10.772   4.143  1.7507 -0.9921  0.5110
  417MOL0     H56295   9.077  10.660   3.955  0.0658 -0.3602 -0.9130
  418MOL0     O56296   7.054   4.069   9.369  0.8714  0.1096  0.1317
  418MOL0     C56297   6.987   3.982   9.305  0.6278 -0.0552  0.3076
  418MOL0     O56298   7.029   3.901   9.210 -0.0599  0.4300  0.0781
  418MOL0     C56299   7.167   3.889   9.190 -0.2375  0.5940 -0.5959
  418MOL0     C56300   7.255   3.874   9.300  0.0581 -0.3754 -1.2158
  418MOL0     C56301   7.384   3.834   9.274 -0.0104 -0.0238 -1.3285
  418MOL0     C56302   7.429   3.803   9.150  0.2057  0.9287 -0.3913
  418MOL0     O56303   7.558   3.767   9.137 -0.2149 -0.0521  0.1855
  418MOL0     C56304   7.638   3.843   9.036 -0.6293  0.5959  0.2319
  418MOL0     C56305   7.767   3.755   9.020  0.2150  0.3522 -0.6107
  418MOL0     C56306   7.877   3.831   8.942  0.3372  0.7751  0.2507
  418MOL0     C56307   8.015   3.756   8.956 -1.8152  0.3847 -0.4196
  418MOL0     C56308   8.068   3.745   9.104  0.4286 -0.5567 -0.6450
  418MOL0     C56309   8.221   3.705   9.116 -0.6214 -0.3345  0.8568
  418MOL0     C56310   8.316   3.807   9.041  0.8081  0.4190 -0.5233
  418MOL0     C56311   8.455   3.779   9.081  0.9742 -1.1535 -0.0317
  418MOL0     N56312   8.498   3.650   9.039 -0.0453  0.0763 -0.2557
  418MOL0     C56313   8.464   3.519   9.094 -0.0196  0.8601 -0.5846
  418MOL0     C56314   8.556   3.433   9.039 -0.3464  0.3191  0.6481
  418MOL0     C56315   8.584   3.284   9.081 -0.3117 -0.6280  0.0071
  418MOL0     C56316   8.525   3.252   9.218 -0.5785 -0.2731  0.6878
  418MOL0     C56317   8.533   3.106   9.242 -0.7569  0.9504  0.4915
  418MOL0     C56318   8.437   3.054   9.351  0.1006  0.2536 -0.0546
  418MOL0     O56319   8.444   3.138   9.474 -0.7050  0.0725  0.0890
  418MOL0     C56320   8.413   3.080   9.589  0.8979  0.3292  0.6538
  418MOL0     C56321   8.480   3.118   9.702 -0.1807  0.3523  0.5708
  418MOL0     C56322   8.463   3.060   9.825 -0.0188 -0.5945 -0.2192
  418MOL0     C56323   8.544   3.103   9.947 -0.7969 -0.4685  0.0321
  418MOL0     C56324   8.383   2.943   9.836  0.5579 -0.1680  1.1039
  418MOL0     C56325   8.338   2.885   9.961 -0.1847  0.1968 -0.4244
  418MOL0     O56326   8.282   2.764   9.947 -0.4458  0.4786  0.3397
  418MOL0     C56327   8.287   2.676  10.051  0.4291  0.1124  0.1575
  418MOL0     C56328   8.375   2.682  10.161  0.4533  0.2230 -0.4839
  418MOL0     C56329   8.368   2.591  10.264  0.8911 -0.4552  0.5201
  418MOL0     C56330   8.273   2.494  10.272  0.7183  0.2618  0.2569
  418MOL0     O56331   8.253   2.418  10.387  0.6875 -0.3665 -0.0150
  418MOL0     C56332   8.262   2.493  10.512  1.1640  0.3661 -0.4049
  418MOL0     C56333   8.175   2.431  10.627  0.3548  0.7049  0.7009
  418MOL0     C56334   8.189   2.272  10.623 -0.1785 -1.3871 -0.6642
  418MOL0     C56335   8.112   2.192  10.740 -0.6822  0.1016 -0.2404
  418MOL0     C56336   8.178   2.232  10.873  1.7087 -0.0645 -0.2694
  418MOL0     C56337   8.123   2.153  10.995 -0.3296 -0.3951 -0.0571
  418MOL0     C56338   8.223   2.197  11.117 -0.1174  0.4610  0.2024
  418MOL0     C56339   8.164   2.160  11.259 -1.1542  0.0103  0.2395
  418MOL0    Cl56340   8.166   1.980  11.280  0.3524 -0.5393  0.3637
  418MOL0     C56341   8.181   2.488  10.166  0.3950 -0.7861 -0.3657
  418MOL0     C56342   8.194   2.572  10.052 -0.0225 -0.0487 -0.0147
  418MOL0     O56343   8.325   2.954  10.066  0.5304  0.2494 -0.1770
  418MOL0     C56344   8.326   2.895   9.711  0.0582 -0.1456  0.7714
  418MOL0     C56345   8.338   2.964   9.596  0.0528  0.4810  1.0073
  418MOL0     N56346   8.632   3.507   8.947  0.3700 -0.0538  0.4107
  418MOL0     N56347   8.596   3.626   8.948 -0.2928  0.0655 -0.3836
  418MOL0     C56348   7.341   3.806   9.047  0.6879  0.2333  0.1599
  418MOL0     C56349   7.206   3.844   9.062  0.4937 -0.7590 -0.0441
  418MOL0     C56350   6.835   3.976   9.329 -0.1395 -0.2815 -0.7732
  418MOL0     C56351   6.746   3.900   9.256 -0.5913 -1.1997  0.7187
  418MOL0     C56352   6.609   3.908   9.283  0.3676 -0.7612 -0.4086
  418MOL0     C56353   6.563   3.984   9.399 -1.0730  0.8013  0.3057
  418MOL0     O56354   6.440   3.998   9.452 -0.4097 -0.3527  0.4235
  418MOL0     C56355   6.327   3.946   9.374 -0.1772  0.4647  0.4182
  418MOL0     C56356   6.200   4.000   9.440  0.2968  0.1532  0.6413
  418MOL0     C56357   6.190   4.152   9.406 -0.0073  0.1430  0.0381
  418MOL0     C56358   6.056   4.218   9.456  0.7089  0.6600 -0.1644
  418MOL0     C56359   6.061   4.362   9.480  0.7849 -0.2501 -0.3056
  418MOL0     C56360   6.061   4.478   9.506  0.6345  0.7043 -0.1635
  418MOL0     C56361   6.656   4.043   9.481  0.4106  0.3243  0.4595
  418MOL0     C56362   6.787   4.043   9.443  0.1416 -0.2291 -0.1980
  418MOL0     H56363   7.230   3.912   9.398 -1.4205  1.1052 -2.1188
  418MOL0     H56364   7.445   3.812   9.361 -1.0472 -2.4672 -1.1584
  418MOL0     H56365   7.582   3.854   8.942 -1.1410 -0.5676  0.3730
  418MOL0     H56366   7.664   3.944   9.068  1.2712  0.1126  0.3191
  418MOL0     H56367   7.794   3.719   9.119 -1.0483 -2.3588 -1.1641
  418MOL0     H56368   7.743   3.663   8.966 -1.1674 -0.0293  0.5971
  418MOL0     H56369   7.856   3.835   8.834  0.6551  0.2937  0.1664
  418MOL0     H56370   7.889   3.934   8.978  2.1589  0.4164  0.7861
  418MOL0     H56371   7.996   3.657   8.913 -0.6341  0.8776 -2.1352
  418MOL0     H56372   8.084   3.807   8.889  0.2721 -0.1446  1.2078
  418MOL0     H56373   8.057   3.844   9.149  1.0901 -0.3967 -0.8251
  418MOL0     H56374   8.006   3.672   9.157  1.7322 -1.5062 -0.3898
  418MOL0     H56375   8.250   3.708   9.221  1.5423  3.1470  0.2997
  418MOL0     H56376   8.232   3.603   9.079 -2.6145 -1.0604  2.0800
  418MOL0     H56377   8.309   3.786   8.934 -0.3332  0.2270 -0.4252
  418MOL0     H56378   8.294   3.911   9.067  3.2083  0.6170  0.9885
  418MOL0     H56379   8.458   3.781   9.190 -1.5100  0.5028  0.0744
  418MOL0     H56380   8.521   3.856   9.038 -0.5556 -0.4681 -1.2645
  418MOL0     H56381   8.387   3.504   9.169  2.3642 -0.3795  1.7974
  418MOL0     H56382   8.548   3.210   9.009  0.9875 -0.5948 -0.7137
  418MOL0     H56383   8.692   3.265   9.075  0.2989  2.1614  0.8646
  418MOL0     H56384   8.421   3.283   9.206  0.6599  3.9941 -0.8948
  418MOL0     H56385   8.583   3.296   9.299 -1.1796  2.3240 -0.2007
  418MOL0     H56386   8.637   3.076   9.259  0.2526  1.1750 -4.0760
  418MOL0     H56387   8.520   3.046   9.152  0.8982  2.0310 -0.5285
  418MOL0     H56388   8.468   2.955   9.384  1.0668  0.6559  0.2925
  418MOL0     H56389   8.332   3.047   9.323 -1.9018  1.4073  5.8286
  418MOL0     H56390   8.547   3.204   9.701 -0.3176  0.4591  0.5436
  418MOL0     H56391   8.563   3.020  10.015 -0.5453 -1.1331 -0.8283
  418MOL0     H56392   8.640   3.128   9.901 -0.5421 -0.3326  0.6282
  418MOL0     H56393   8.501   3.187  10.002  1.7981  1.9348 -1.3922
  418MOL0     H56394   8.445   2.764  10.169 -2.1093  2.9519 -3.4452
  418MOL0     H56395   8.432   2.592  10.351  0.3691 -4.0439  1.0800
  418MOL0     H56396   8.368   2.491  10.537  1.6500  0.0671 -2.3494
  418MOL0     H56397   8.227   2.595  10.499  0.7245  0.5263  1.6038
  418MOL0     H56398   8.203   2.476  10.722 -1.4644  0.8357  1.2179
  418MOL0     H56399   8.068   2.451  10.612  0.0468 -2.1502 -2.0965
  418MOL0     H56400   8.296   2.250  10.630  0.1867 -0.1590 -1.8019
  418MOL0     H56401   8.148   2.242  10.526 -1.3722 -0.3779 -0.4883
  418MOL0     H56402   8.008   2.227  10.740  0.1157  2.6953  0.1793
  418MOL0     H56403   8.116   2.083  10.732 -0.9658  0.1767 -1.5578
  418MOL0     H56404   8.134   2.330  10.896  0.3316 -0.0757 -2.5111
  418MOL0     H56405   8.286   2.243  10.867  1.4747  3.3645 -0.2381
  418MOL0     H56406   8.023   2.194  11.010  0.8166  1.2609  5.1021
  418MOL0     H56407   8.119   2.045  10.980  0.5895 -0.0256 -4.3897
  418MOL0     H56408   8.227   2.306  11.107  0.8503  0.7077  2.6807
  418MOL0     H56409   8.325   2.160  11.106 -1.2567 -2.6376 -1.1872
  418MOL0     H56410   8.064   2.202  11.274 -1.1831  0.3728 -0.8550
  418MOL0     H56411   8.221   2.196  11.345  1.0612 -2.3550 -0.1503
  418MOL0     H56412   8.094   2.423  10.164 -0.2706  0.1058 -1.9712
  418MOL0     H56413   8.119   2.558   9.975 -0.2913  0.7361  0.1034
  418MOL0     H56414   8.267   2.804   9.706 -0.7933  0.4335 -2.7187
  418MOL0     H56415   8.284   2.930   9.508  3.5217 -0.1248 -1.0609
  418MOL0     H56416   7.370   3.771   8.948  0.6200  0.0964  0.1880
  418MOL0     H56417   7.141   3.830   8.975  0.6470  0.6705 -0.4189
  418MOL0     H56418   6.783   3.836   9.177  0.9216 -0.8315  1.0925
  418MOL0     H56419   6.537   3.849   9.227 -0.1143  0.7969 -1.5260
  418MOL0     H56420   6.328   3.971   9.267  3.8303  4.1716  1.0351
  418MOL0     H56421   6.323   3.837   9.364  0.0090  0.4921  0.0301
  418MOL0     H56422   6.212   3.980   9.547 -3.2489 -0.4789  1.0636
  418MOL0     H56423   6.108   3.947   9.411  1.0814  0.1091 -2.0389
  418MOL0     H56424   6.203   4.160   9.298 -1.6009 -3.7714 -0.5955
  418MOL0     H56425   6.274   4.194   9.463  0.7488 -2.2240  0.7922
  418MOL0     H56426   6.012   4.170   9.544  0.2481 -0.5259 -1.0063
  418MOL0     H56427   5.988   4.188   9.375  0.6279 -0.0083  0.1406
  418MOL0     H56428   6.058   4.580   9.538 -0.1903  0.8736 -0.7474
  418MOL0     H56429   6.630   4.108   9.564 -1.7252 -0.1566  0.2046
  418MOL0     H56430   6.848   4.099   9.514 -1.4075  1.4487 -0.1268
  419MOL0     O56431   0.017   2.021   3.537  0.1058  0.4021 -0.1321
  419MOL0     C56432  -0.069   1.941   3.513 -0.3089 -0.0958 -0.3523
  419MOL0     O56433  -0.086   1.816   3.569 -0.1850 -0.2054 -1.0332
  419MOL0     C56434   0.009   1.775   3.671 -0.1800 -0.9704 -0.1252
  419MOL0     C56435   0.150   1.804   3.661  0.2408  0.0672 -0.9412
  419MOL0     C56436   0.240   1.764   3.758  1.0655 -0.3385 -0.0534
  419MOL0     C56437   0.197   1.710   3.879  0.1686  0.3896 -0.0984
  419MOL0     O56438   0.284   1.679   3.986  0.2604  0.4169  0.6362
  419MOL0     C56439   0.394   1.768   4.009  0.2452 -0.3234  0.5932
  419MOL0     C56440   0.440   1.743   4.150 -0.5217 -0.4885  0.2957
  419MOL0     C56441   0.335   1.805   4.247 -0.1113  0.5812  0.8552
  419MOL0     C56442   0.374   1.949   4.296 -0.6245 -0.4775  0.2403
  419MOL0     C56443   0.277   2.025   4.393 -0.0319 -0.1390 -0.8080
  419MOL0     C56444   0.277   2.186   4.373  0.2839 -0.3989  0.0283
  419MOL0     C56445   0.419   2.266   4.386  0.0984  0.8969 -0.0136
  419MOL0     C56446   0.484   2.302   4.513  0.5066  0.2033 -0.4220
  419MOL0     N56447   0.395   2.374   4.607 -0.2202  0.0215 -1.2065
  419MOL0     C56448   0.380   2.513   4.610  0.0418 -0.0850  0.5522
  419MOL0     C56449   0.299   2.530   4.711  0.3996  0.3899  0.2836
  419MOL0     C56450   0.262   2.663   4.759  0.7936 -0.4519  0.4437
  419MOL0     C56451   0.182   2.743   4.655 -0.8890  0.1004  0.4358
  419MOL0     C56452   0.048   2.675   4.623  0.1126  0.2261  0.7212
  419MOL0     C56453  -0.071   2.769   4.632  0.6976  0.3509 -0.3636
  419MOL0     O56454  -0.190   2.683   4.615  0.4937  0.1399  0.2975
  419MOL0     C56455  -0.310   2.746   4.577 -0.5540  0.1321 -0.5970
  419MOL0     C56456  -0.349   2.874   4.590 -0.5316 -0.1242  0.7607
  419MOL0     C56457  -0.473   2.914   4.538  0.9946 -0.0108  0.3871
  419MOL0     C56458  -0.510   3.058   4.569  0.2176  0.3259 -0.9679
  419MOL0     C56459  -0.573   2.816   4.493 -0.3464 -0.0072 -0.6885
  419MOL0     C56460  -0.716   2.857   4.453  0.4725 -0.1210 -0.4087
  419MOL0     O56461  -0.793   2.758   4.399  0.6433  0.2008 -0.0012
  419MOL0     C56462  -0.921   2.804   4.358  0.4480  0.1304 -0.0372
  419MOL0     C56463  -1.024   2.834   4.452 -0.2905 -0.0410  0.0359
  419MOL0     C56464  -1.138   2.897   4.404  0.2367 -0.5608 -0.3012
  419MOL0     C56465  -1.166   2.936   4.276 -0.2998 -0.6194  0.1208
  419MOL0     O56466  -1.284   3.002   4.246  0.0277  0.6458 -0.3148
  419MOL0     C56467  -1.271   3.115   4.155 -0.6467  0.2656  0.7801
  419MOL0     C56468  -1.403   3.188   4.139 -0.0492  0.4796  0.1491
  419MOL0     C56469  -1.437   3.247   3.996  0.1768  0.0855  0.4738
  419MOL0     C56470  -1.581   3.290   3.964  1.1670 -0.5981 -0.8718
  419MOL0     C56471  -1.615   3.319   3.820 -0.4371 -0.0168  0.4051
  419MOL0     C56472  -1.560   3.451   3.769  0.0336 -0.5981 -0.6019
  419MOL0     C56473  -1.534   3.488   3.621 -0.1059  1.4564  0.7405
  419MOL0     C56474  -1.592   3.623   3.572  0.6984 -0.2536 -0.6724
  419MOL0    Cl56475  -1.766   3.629   3.575 -0.1190 -0.2739 -0.0219
  419MOL0     C56476  -1.068   2.900   4.177  0.6971 -0.8944 -0.1253
  419MOL0     C56477  -0.947   2.843   4.221  0.2658 -0.7883  0.5492
  419MOL0     O56478  -0.758   2.970   4.479 -1.5768  0.3221  0.4626
  419MOL0     C56479  -0.530   2.689   4.471  0.1817  0.0165 -0.8580
  419MOL0     C56480  -0.398   2.656   4.516  0.6658 -0.6608 -0.0683
  419MOL0     N56481   0.270   2.404   4.774 -0.7817  0.5021  0.7611
  419MOL0     N56482   0.333   2.316   4.712  0.0873  0.1562  0.3109
  419MOL0     C56483   0.058   1.671   3.884 -1.2017  0.7783 -0.1272
  419MOL0     C56484  -0.031   1.703   3.780 -0.1509  1.4132 -0.5713
  419MOL0     C56485  -0.161   1.969   3.410  0.6524 -1.1343  0.8029
  419MOL0     C56486  -0.148   2.093   3.344 -0.3171  0.6296  0.0901
  419MOL0     C56487  -0.246   2.138   3.250  0.7098  0.6403 -0.1792
  419MOL0     C56488  -0.339   2.048   3.187 -1.1096 -0.0805 -0.2128
  419MOL0     O56489  -0.432   2.072   3.098 -0.3312 -0.2966 -0.2440
  419MOL0     C56490  -0.367   2.103   2.969 -0.4945 -0.1580 -0.2352
  419MOL0     C56491  -0.466   2.139   2.866 -0.4829  0.7629  0.7909
  419MOL0     C56492  -0.514   2.282   2.858 -0.5202  0.6247 -0.5927
  419MOL0     C56493  -0.540   2.318   2.712  0.5969 -0.4475 -0.3509
  419MOL0     C56494  -0.617   2.218   2.630  0.5104 -0.5749  0.0171
  419MOL0     C56495  -0.662   2.140   2.553  0.5077 -0.2077 -0.4083
  419MOL0     C56496  -0.338   1.914   3.241 -0.2011 -0.0876  1.1414
  419MOL0     C56497  -0.249   1.875   3.349 -0.2723 -0.7216  0.7912
  419MOL0     H56498   0.181   1.860   3.573 -1.3192  0.6994 -1.1151
  419MOL0     H56499   0.345   1.792   3.751  1.9468 -2.7582  2.0146
  419MOL0     H56500   0.471   1.756   3.931  1.6094 -0.8821  1.9845
  419MOL0     H56501   0.359   1.871   3.998  0.1435 -0.2134  1.8221
  419MOL0     H56502   0.460   1.638   4.174  1.8099 -0.3797 -0.8669
  419MOL0     H56503   0.533   1.796   4.172 -2.1168  1.4785  2.9758
  419MOL0     H56504   0.238   1.796   4.197 -0.1889 -3.3540  1.3557
  419MOL0     H56505   0.320   1.744   4.336  1.9533  0.4942  1.1862
  419MOL0     H56506   0.476   1.942   4.335 -0.7946  3.3066  1.7740
  419MOL0     H56507   0.378   2.010   4.206 -1.3812  0.4193  0.7883
  419MOL0     H56508   0.178   1.981   4.395  0.1835 -0.6050  0.7950
  419MOL0     H56509   0.307   2.001   4.495 -2.8002  1.9198  0.5909
  419MOL0     H56510   0.228   2.219   4.281 -1.8095  0.1456  1.2589
  419MOL0     H56511   0.200   2.230   4.438 -1.3117 -2.3205 -0.4692
  419MOL0     H56512   0.495   2.208   4.334 -2.1402 -1.3994 -0.8976
  419MOL0     H56513   0.407   2.358   4.327  2.0618  0.5205 -1.0725
  419MOL0     H56514   0.575   2.354   4.482  0.2283 -1.4673 -4.5720
  419MOL0     H56515   0.514   2.210   4.564  0.9217 -0.8715 -2.5430
  419MOL0     H56516   0.421   2.591   4.546  0.1191 -0.4985  0.0952
  419MOL0     H56517   0.203   2.644   4.849  2.2359 -3.1165  0.9307
  419MOL0     H56518   0.353   2.718   4.787  0.5662 -0.7838  1.8800
  419MOL0     H56519   0.254   2.766   4.576 -0.4700 -0.8644  0.5155
  419MOL0     H56520   0.167   2.837   4.708  0.3164  1.4350 -1.4891
  419MOL0     H56521   0.025   2.593   4.692 -2.6997 -0.6172 -1.0312
  419MOL0     H56522   0.054   2.637   4.520 -1.1979  4.7876 -1.2875
  419MOL0     H56523  -0.059   2.825   4.539 -2.0783  0.3178 -0.8297
  419MOL0     H56524  -0.074   2.841   4.714  3.0821  1.1514 -0.9114
  419MOL0     H56525  -0.282   2.947   4.634  1.3459 -2.1348  1.3893
  419MOL0     H56526  -0.582   3.111   4.506 -0.3695  0.7634  0.0396
  419MOL0     H56527  -0.550   3.049   4.671 -1.1226  2.8018 -1.2008
  419MOL0     H56528  -0.423   3.123   4.580  1.5532 -1.6632  1.3282
  419MOL0     H56529  -1.007   2.808   4.556  0.0936  0.0475 -0.0020
  419MOL0     H56530  -1.201   2.930   4.486  4.7897 -1.5032  4.0516
  419MOL0     H56531  -1.205   3.198   4.179  0.1190 -0.0884 -0.0267
  419MOL0     H56532  -1.244   3.067   4.060 -0.6094 -1.4825  1.6360
  419MOL0     H56533  -1.488   3.127   4.171 -2.0495  2.3281 -1.3374
  419MOL0     H56534  -1.410   3.263   4.218  1.3041 -0.6898  1.4293
  419MOL0     H56535  -1.408   3.171   3.923  1.1397  0.3549  0.5497
  419MOL0     H56536  -1.365   3.329   3.980 -0.4770  0.2849 -1.9046
  419MOL0     H56537  -1.647   3.215   4.008  1.3693  0.6624  1.7555
  419MOL0     H56538  -1.605   3.380   4.020 -1.2175 -1.5241 -0.3087
  419MOL0     H56539  -1.722   3.313   3.798 -0.2535 -0.2492 -0.4442
  419MOL0     H56540  -1.570   3.241   3.757 -2.5910  0.4429 -1.8629
  419MOL0     H56541  -1.630   3.527   3.805 -0.8877 -1.4816 -0.4702
  419MOL0     H56542  -1.472   3.472   3.830 -1.0955  3.0655  0.0207
  419MOL0     H56543  -1.576   3.410   3.557  1.1933  0.3640  1.1740
  419MOL0     H56544  -1.426   3.475   3.609 -0.6548 -4.3304 -1.0066
  419MOL0     H56545  -1.551   3.652   3.474 -5.6593 -3.2334 -4.9313
  419MOL0     H56546  -1.559   3.700   3.642 -0.6832 -0.2542  0.0099
  419MOL0     H56547  -1.088   2.925   4.074  0.2374 -1.8609 -0.2831
  419MOL0     H56548  -0.866   2.826   4.151 -0.3637  0.4535 -0.5141
  419MOL0     H56549  -0.589   2.606   4.434 -1.6354  1.0268 -0.3452
  419MOL0     H56550  -0.375   2.552   4.499  2.1235 -0.2316 -0.9476
  419MOL0     H56551   0.014   1.636   3.978 -0.8168 -5.0488 -1.7316
  419MOL0     H56552  -0.135   1.671   3.792 -0.7156  3.5486  0.7977
  419MOL0     H56553  -0.077   2.167   3.380 -0.3235 -0.3947  2.3914
  419MOL0     H56554  -0.266   2.240   3.218 -0.0880  1.0994  1.6371
  419MOL0     H56555  -0.293   2.183   2.962 -0.7925 -0.0226 -3.2584
  419MOL0     H56556  -0.324   2.005   2.948 -2.0371 -1.1029  0.8654
  419MOL0     H56557  -0.557   2.079   2.878  1.1259 -3.5480 -4.6971
  419MOL0     H56558  -0.431   2.102   2.769 -3.8928 -1.2530  0.1430
  419MOL0     H56559  -0.436   2.347   2.900  1.6992 -0.6836 -2.4635
  419MOL0     H56560  -0.604   2.305   2.916 -0.7347 -1.0593 -0.2070
  419MOL0     H56561  -0.440   2.321   2.669  0.6771  0.9529 -0.1094
  419MOL0     H56562  -0.592   2.415   2.711 -0.5266 -1.0232  0.0947
  419MOL0     H56563  -0.699   2.064   2.487  0.1917  0.2350 -0.7496
  419MOL0     H56564  -0.420   1.853   3.203 -1.3596  2.1536 -0.2002
  419MOL0     H56565  -0.257   1.783   3.406 -1.0354  0.5779  2.9073
  420MOL0     O56566   1.356   7.339   9.646  0.0045  0.7744  0.9604
  420MOL0     C56567   1.410   7.233   9.667  0.2447  0.4771  0.2103
  420MOL0     O56568   1.523   7.195   9.606  0.6272 -0.1848  0.2484
  420MOL0     C56569   1.570   7.269   9.492  0.6708 -0.0962 -0.9087
  420MOL0     C56570   1.708   7.273   9.478 -0.1397  0.4610  0.1303
  420MOL0     C56571   1.765   7.319   9.362 -0.8194  0.4855  0.4380
  420MOL0     C56572   1.691   7.376   9.259  0.5113 -0.9514  0.6720
  420MOL0     O56573   1.743   7.427   9.146  0.4009  0.7622  0.0885
  420MOL0     C56574   1.844   7.344   9.091  0.1562 -0.5967  0.3625
  420MOL0     C56575   1.889   7.413   8.957 -0.0758  0.0526 -0.0491
  420MOL0     C56576   1.784   7.382   8.850  0.0647 -0.5858  0.1525
  420MOL0     C56577   1.810   7.460   8.723 -0.4573 -0.0163 -0.5306
  420MOL0     C56578   1.812   7.618   8.750 -0.3877  0.1546  0.4082
  420MOL0     C56579   1.815   7.685   8.614 -0.7005 -0.0059  0.3661
  420MOL0     C56580   1.781   7.833   8.622 -0.2122 -0.2785 -0.1151
  420MOL0     C56581   1.636   7.876   8.648  0.1642  0.2256  0.0283
  420MOL0     N56582   1.598   8.016   8.641  1.5146 -0.0401 -0.1969
  420MOL0     C56583   1.680   8.123   8.657 -0.1129 -0.7906 -0.9764
  420MOL0     C56584   1.586   8.232   8.652 -0.4241 -0.3889  0.3798
  420MOL0     C56585   1.596   8.384   8.669 -0.5504  0.6596 -0.5749
  420MOL0     C56586   1.728   8.444   8.609  1.4699  0.7661  0.1050
  420MOL0     C56587   1.729   8.594   8.606  0.2576 -0.5900 -0.6688
  420MOL0     C56588   1.633   8.657   8.513 -0.0917  0.4980 -0.3562
  420MOL0     O56589   1.681   8.665   8.382 -0.3339 -0.2698 -0.1972
  420MOL0     C56590   1.761   8.769   8.339 -0.2053  0.2421 -0.1192
  420MOL0     C56591   1.779   8.770   8.200  0.6246 -0.4204  0.4281
  420MOL0     C56592   1.886   8.845   8.144 -0.2409  0.2525  0.1269
  420MOL0     C56593   1.908   8.849   7.998 -0.2897  0.1164 -1.5253
  420MOL0     C56594   1.972   8.927   8.228 -0.0532 -0.2437  1.0900
  420MOL0     C56595   2.088   9.008   8.186  1.3621 -0.1644  0.1681
  420MOL0     O56596   2.120   9.022   8.055 -0.4857 -0.2930  0.4058
  420MOL0     C56597   2.244   9.061   8.015 -0.1037  0.1759  0.0884
  420MOL0     C56598   2.252   9.133   7.901  0.2341 -0.0616  0.0414
  420MOL0     C56599   2.366   9.173   7.830 -0.0015 -0.0726 -1.2894
  420MOL0     C56600   2.485   9.146   7.894  1.0643 -0.8730  0.0977
  420MOL0     O56601   2.603   9.184   7.844  0.3939  0.5753 -0.0556
  420MOL0     C56602   2.602   9.327   7.830 -0.1837 -0.1553 -0.4289
  420MOL0     C56603   2.735   9.399   7.815 -0.1474  0.4295  0.5145
  420MOL0     C56604   2.819   9.396   7.948 -0.3802 -1.3162 -0.0679
  420MOL0     C56605   2.934   9.504   7.965  0.0572 -0.1535  0.5913
  420MOL0     C56606   3.023   9.479   8.083  1.1298 -1.2857  0.1646
  420MOL0     C56607   3.144   9.580   8.088 -0.3568  0.4497 -0.9619
  420MOL0     C56608   3.183   9.601   8.239 -0.0890 -0.6427 -0.0437
  420MOL0     C56609   3.301   9.695   8.261  1.0339  0.5222  1.0503
  420MOL0    Cl56610   3.299   9.747   8.430  0.1770 -0.3851  0.4519
  420MOL0     C56611   2.483   9.063   8.013 -0.8529  1.1863  0.8878
  420MOL0     C56612   2.361   9.019   8.072  1.1023  0.3880 -0.2572
  420MOL0     O56613   2.135   9.074   8.271  0.0846 -0.4730 -0.9060
  420MOL0     C56614   1.928   8.941   8.361  0.1011  1.2913  0.5446
  420MOL0     C56615   1.831   8.854   8.426  1.5072 -0.2651  0.7077
  420MOL0     N56616   1.465   8.179   8.661 -1.4564 -0.3216  0.5297
  420MOL0     N56617   1.464   8.051   8.650  0.6531  0.0331 -1.1233
  420MOL0     C56618   1.556   7.386   9.284 -0.2765 -0.7701  0.6453
  420MOL0     C56619   1.495   7.334   9.397  0.3025  0.6557 -0.2622
  420MOL0     C56620   1.346   7.154   9.773  0.3351  0.4294  1.2308
  420MOL0     C56621   1.321   7.020   9.739 -0.0251  0.1518 -0.5747
  420MOL0     C56622   1.281   6.936   9.847 -0.0722 -0.3857  1.0079
  420MOL0     C56623   1.253   6.998   9.976  0.1825  1.7340 -0.1461
  420MOL0     O56624   1.219   6.918  10.084  0.1889  0.6553 -0.5116
  420MOL0     C56625   1.309   6.904  10.202  0.3920  1.0309  0.2962
  420MOL0     C56626   1.379   6.769  10.186 -0.2522  0.0503  0.0247
  420MOL0     C56627   1.272   6.659  10.168  0.1452  0.5613  0.5588
  420MOL0     C56628   1.338   6.526  10.122 -0.4327 -0.1911 -0.0062
  420MOL0     C56629   1.233   6.420  10.099  0.7381 -0.2457  0.1182
  420MOL0     C56630   1.154   6.334  10.054  0.0355  0.0307  0.6011
  420MOL0     C56631   1.277   7.128   9.997 -0.8509  0.2999  0.3126
  420MOL0     C56632   1.311   7.210   9.897  0.4068 -1.2902  0.6891
  420MOL0     H56633   1.773   7.216   9.545  0.2426 -1.8554 -2.0441
  420MOL0     H56634   1.872   7.315   9.348 -0.4900  0.4368  2.6307
  420MOL0     H56635   1.928   7.336   9.161 -3.9047 -1.1470  5.8512
  420MOL0     H56636   1.801   7.245   9.072  0.3695 -0.5936 -0.1577
  420MOL0     H56637   1.897   7.521   8.975  1.2095  0.2650 -1.6868
  420MOL0     H56638   1.982   7.359   8.936 -0.1495 -1.4656  2.8941
  420MOL0     H56639   1.781   7.274   8.830  1.1612 -0.3749 -1.2706
  420MOL0     H56640   1.689   7.413   8.895  0.8580  1.6547  0.3604
  420MOL0     H56641   1.908   7.424   8.690 -0.1088  0.0590  0.4083
  420MOL0     H56642   1.733   7.434   8.649 -0.8245 -0.0120 -0.1559
  420MOL0     H56643   1.726   7.655   8.807 -0.4396  2.1324 -0.8584
  420MOL0     H56644   1.909   7.646   8.791 -0.7715  1.8002  0.2708
  420MOL0     H56645   1.912   7.671   8.565 -0.7678  1.6436 -0.3079
  420MOL0     H56646   1.740   7.640   8.548 -1.9772  1.6497  0.6396
  420MOL0     H56647   1.852   7.882   8.689  1.7657  0.4999 -2.6504
  420MOL0     H56648   1.812   7.866   8.523 -0.9022 -0.3460 -0.3583
  420MOL0     H56649   1.607   7.860   8.752 -2.0816  5.1463  0.4443
  420MOL0     H56650   1.557   7.840   8.580 -0.6704  5.6222 -2.3300
  420MOL0     H56651   1.789   8.119   8.657 -0.1329 -1.5513 -0.2462
  420MOL0     H56652   1.500   8.429   8.643 -1.2259  1.1218  2.3658
  420MOL0     H56653   1.602   8.396   8.778 -0.9327 -0.0938 -0.4638
  420MOL0     H56654   1.749   8.403   8.510  0.8559 -1.3156  0.7892
  420MOL0     H56655   1.807   8.401   8.671  1.3229 -0.5084 -0.5441
  420MOL0     H56656   1.831   8.616   8.571 -0.4885 -1.4207 -3.7014
  420MOL0     H56657   1.705   8.634   8.704 -1.5390 -1.7374 -0.5953
  420MOL0     H56658   1.608   8.758   8.547 -0.2550 -0.8109  4.0921
  420MOL0     H56659   1.535   8.609   8.515 -0.0738  0.2491 -2.7814
  420MOL0     H56660   1.718   8.701   8.142 -1.1370  3.4855 -2.9028
  420MOL0     H56661   1.840   8.771   7.962 -3.1254  2.4819 -1.5975
  420MOL0     H56662   1.872   8.941   7.951 -0.8849 -0.0272 -1.3630
  420MOL0     H56663   2.012   8.832   7.969 -0.5633  0.2065 -2.6117
  420MOL0     H56664   2.158   9.173   7.864 -0.2602 -0.2467  1.0529
  420MOL0     H56665   2.346   9.225   7.737  2.7003  2.3889 -0.6202
  420MOL0     H56666   2.552   9.347   7.735 -2.4093  0.0552  0.7371
  420MOL0     H56667   2.545   9.377   7.909 -1.3514 -0.3015 -1.1537
  420MOL0     H56668   2.786   9.359   7.727 -3.0985  3.8932 -3.1989
  420MOL0     H56669   2.704   9.501   7.790 -2.4282  0.1754  2.0178
  420MOL0     H56670   2.847   9.293   7.972  1.4820 -0.8163  0.0518
  420MOL0     H56671   2.758   9.416   8.037  2.9653  0.6133  2.0038
  420MOL0     H56672   2.988   9.493   7.871 -0.2094  1.0225  0.2896
  420MOL0     H56673   2.897   9.607   7.960  5.7151  2.2605  1.4666
  420MOL0     H56674   3.061   9.377   8.077  1.2185 -1.4863  2.9283
  420MOL0     H56675   2.964   9.503   8.172 -1.6931 -0.1490 -1.8545
  420MOL0     H56676   3.232   9.530   8.047  1.3096 -0.1235  2.8118
  420MOL0     H56677   3.119   9.669   8.031  4.4867  1.3910 -2.0214
  420MOL0     H56678   3.212   9.506   8.284 -1.7639 -1.1963 -0.0279
  420MOL0     H56679   3.095   9.634   8.296 -0.8150 -1.5590 -0.5913
  420MOL0     H56680   3.299   9.776   8.187  2.4266 -0.0182  0.3702
  420MOL0     H56681   3.398   9.644   8.252  0.3387 -0.5482 -1.0592
  420MOL0     H56682   2.579   9.047   8.061  1.6107  1.7531 -3.3841
  420MOL0     H56683   2.370   8.977   8.172  1.1637  0.3208 -0.2902
  420MOL0     H56684   1.977   9.011   8.428  1.2900 -0.6614  1.8213
  420MOL0     H56685   1.805   8.857   8.531  0.0548  0.3965  0.3514
  420MOL0     H56686   1.501   7.444   9.211  1.2126 -0.8015 -0.5597
  420MOL0     H56687   1.389   7.321   9.415 -0.2504  3.2590 -1.1283
  420MOL0     H56688   1.342   6.982   9.639  1.7161  2.2238 -1.0579
  420MOL0     H56689   1.268   6.828   9.846 -2.6863 -0.1176 -0.3883
  420MOL0     H56690   1.379   6.988  10.193  0.7458  0.6285 -0.7877
  420MOL0     H56691   1.241   6.923  10.286 -2.4234  1.9633 -2.0503
  420MOL0     H56692   1.443   6.766  10.274 -1.0033  2.7286  0.7701
  420MOL0     H56693   1.439   6.776  10.095  1.2801  1.2108  1.0751
  420MOL0     H56694   1.200   6.685  10.089 -2.5291 -0.4824  2.5112
  420MOL0     H56695   1.217   6.642  10.261  0.3651 -2.4830  0.2123
  420MOL0     H56696   1.408   6.497  10.201 -0.1822  4.1468  1.6405
  420MOL0     H56697   1.388   6.532  10.025  0.3289  0.3845  0.4049
  420MOL0     H56698   1.094   6.257  10.011  0.4966  0.0975 -0.1797
  420MOL0     H56699   1.258   7.184  10.088 -0.3331  2.1346 -0.6791
  420MOL0     H56700   1.312   7.313   9.932  0.1338 -1.6147  1.6872
  421MOL0     O56701  11.322   6.560  10.146 -0.6017  0.6566  0.1262
  421MOL0     C56702  11.346   6.648  10.064 -0.2413 -1.3240  0.0113
  421MOL0     O56703  11.312   6.774  10.078 -0.4280  0.3842 -0.4273
  421MOL0     C56704  11.220   6.806  10.182  0.5047 -0.2166  1.2087
  421MOL0     C56705  11.260   6.911  10.261  0.4411  0.3528 -0.8078
  421MOL0     C56706  11.169   6.953  10.365 -0.6677  0.1584  0.1982
  421MOL0     C56707  11.054   6.879  10.389  0.7586 -0.5636 -0.2671
  421MOL0     O56708  10.964   6.917  10.487 -0.2308 -0.4496 -0.0034
  421MOL0     C56709  10.828   6.953  10.451 -0.0188  0.5078 -0.0963
  421MOL0     C56710  10.704   6.859  10.479 -0.1860 -0.7683 -0.3050
  421MOL0     C56711  10.581   6.954  10.505 -0.5242 -0.0159 -0.2056
  421MOL0     C56712  10.449   6.877  10.533 -0.6329 -0.0642 -0.4789
  421MOL0     C56713  10.436   6.828  10.677  0.7870 -0.0204 -0.0600
  421MOL0     C56714  10.309   6.742  10.697  0.4849 -0.6997 -0.1501
  421MOL0     C56715  10.183   6.820  10.700  0.4815 -1.0632 -0.4722
  421MOL0     C56716  10.049   6.741  10.697  0.0529 -0.3084 -0.2605
  421MOL0     N56717  10.036   6.680  10.564  0.2946  0.1914  0.1975
  421MOL0     C56718   9.995   6.739  10.440  0.3953  0.0238 -0.2617
  421MOL0     C56719   9.978   6.635  10.358 -0.1896 -0.1436 -1.2729
  421MOL0     C56720   9.928   6.638  10.221  0.8930  1.1146 -0.0441
  421MOL0     C56721   9.784   6.604  10.236  0.0668 -0.4851  0.2413
  421MOL0     C56722   9.714   6.655  10.103  0.2640  0.8694 -1.2076
  421MOL0     C56723   9.574   6.611  10.111  0.4012 -0.3061 -0.5531
  421MOL0     O56724   9.486   6.707  10.057 -0.8573  0.7025 -0.1623
  421MOL0     C56725   9.497   6.746   9.927  0.6175 -0.1452  0.4748
  421MOL0     C56726   9.534   6.667   9.815  0.0992 -0.4813 -0.4366
  421MOL0     C56727   9.524   6.725   9.680 -0.1482 -0.4587  0.6390
  421MOL0     C56728   9.587   6.647   9.564 -0.4908  0.2913 -0.0167
  421MOL0     C56729   9.459   6.850   9.664 -0.7634 -1.1373  0.1464
  421MOL0     C56730   9.442   6.915   9.531 -0.2111 -0.2800 -0.2161
  421MOL0     O56731   9.447   7.053   9.530  0.4582  0.2012  0.0462
  421MOL0     C56732   9.422   7.112   9.409  0.9694 -0.1068 -1.2749
  421MOL0     C56733   9.524   7.159   9.330 -0.1028 -0.0445  0.3439
  421MOL0     C56734   9.493   7.222   9.215 -0.3311 -0.1645  0.7720
  421MOL0     C56735   9.362   7.234   9.166  0.0846 -0.0125 -0.3643
  421MOL0     O56736   9.340   7.292   9.043  1.0122 -0.1421  0.1706
  421MOL0     C56737   9.395   7.215   8.932 -0.3610 -0.1085  0.2221
  421MOL0     C56738   9.292   7.110   8.895 -0.1899  1.0330 -0.9710
  421MOL0     C56739   9.183   7.169   8.814 -0.1877  0.0016 -0.4104
  421MOL0     C56740   9.095   7.047   8.757  0.0517 -0.2845  0.0235
  421MOL0     C56741   8.983   7.088   8.666 -0.5234  0.5276 -0.1443
  421MOL0     C56742   8.885   7.183   8.735 -0.4148  0.5082 -0.3781
  421MOL0     C56743   8.747   7.200   8.659 -0.5002 -0.5873  0.0914
  421MOL0     C56744   8.760   7.308   8.551  0.9417  0.1780  0.1574
  421MOL0    Cl56745   8.606   7.321   8.490 -0.4389 -0.1984  0.1094
  421MOL0     C56746   9.256   7.200   9.250 -1.3731  0.5164 -0.2525
  421MOL0     C56747   9.290   7.135   9.372 -0.3461 -0.1473  0.3244
  421MOL0     O56748   9.432   6.849   9.426 -0.4947  0.5629  0.0463
  421MOL0     C56749   9.424   6.927   9.775 -0.4590  0.1673  0.0440
  421MOL0     C56750   9.438   6.870   9.905 -0.8111 -0.0393  1.1738
  421MOL0     N56751  10.008   6.516  10.425  0.3322  0.6513 -0.0551
  421MOL0     N56752  10.059   6.545  10.549 -0.3695 -1.1097 -0.4354
  421MOL0     C56753  11.018   6.771  10.305  0.7436  0.6368 -0.1549
  421MOL0     C56754  11.094   6.738  10.194 -0.8668 -0.0306 -0.9188
  421MOL0     C56755  11.439   6.622   9.951 -0.5679 -0.6855 -0.3002
  421MOL0     C56756  11.477   6.495   9.899  0.2403 -0.4964  0.0661
  421MOL0     C56757  11.576   6.489   9.799 -0.1921  0.5075  0.8460
  421MOL0     C56758  11.651   6.595   9.765 -0.3978  0.1713 -0.3480
  421MOL0     O56759  11.738   6.577   9.666 -0.3231 -0.0464 -0.1936
  421MOL0     C56760  11.781   6.685   9.580  0.0761 -0.7769 -0.7361
  421MOL0     C56761  11.825   6.638   9.440  1.4074  0.7043 -0.3670
  421MOL0     C56762  11.962   6.571   9.444 -0.0441 -0.1279  0.2900
  421MOL0     C56763  12.013   6.534   9.302 -0.3061 -0.7153 -0.0053
  421MOL0     C56764  12.145   6.478   9.301  0.1702 -0.1572 -0.0640
  421MOL0     C56765  12.253   6.423   9.311 -0.4539  0.3036 -0.5303
  421MOL0     C56766  11.634   6.718   9.827 -1.5540 -0.5193 -0.1605
  421MOL0     C56767  11.526   6.731   9.909  0.2524 -0.2932  0.0490
  421MOL0     H56768  11.363   6.945  10.256  1.4568  0.2637  6.9845
  421MOL0     H56769  11.205   7.038  10.422 -0.2415  1.6742 -2.1866
  421MOL0     H56770  10.812   7.047  10.505 -1.5249 -2.3055  5.0624
  421MOL0     H56771  10.822   6.976  10.344 -3.7373  2.7885  0.4154
  421MOL0     H56772  10.686   6.801  10.389 -2.9168  1.3599 -1.2846
  421MOL0     H56773  10.727   6.798  10.567  1.5199 -2.0946 -1.6130
  421MOL0     H56774  10.601   7.027  10.584 -0.7981 -1.1423  0.9303
  421MOL0     H56775  10.574   7.016  10.415  3.9777 -2.1147 -2.3242
  421MOL0     H56776  10.362   6.938  10.506 -0.2350  1.6348  1.8071
  421MOL0     H56777  10.451   6.789  10.468  1.0399 -0.7100  0.3742
  421MOL0     H56778  10.522   6.768  10.705  2.2741  0.8864 -2.3530
  421MOL0     H56779  10.422   6.905  10.753  1.9837 -0.0500  0.1969
  421MOL0     H56780  10.310   6.668  10.616 -0.1941  1.6022 -2.4007
  421MOL0     H56781  10.322   6.692  10.793 -2.2242  0.3166  0.8340
  421MOL0     H56782  10.179   6.886  10.788 -2.7605 -1.4487 -0.2269
  421MOL0     H56783  10.188   6.892  10.618  5.5787 -0.2466  0.2119
  421MOL0     H56784   9.971   6.816  10.711  1.3786  1.3120 -1.1702
  421MOL0     H56785  10.046   6.672  10.782 -1.8586 -0.0832 -0.1040
  421MOL0     H56786   9.978   6.846  10.428  1.6440  0.0164 -3.0030
  421MOL0     H56787   9.948   6.733  10.171  1.1886  0.9056 -0.3266
  421MOL0     H56788   9.965   6.558  10.156  2.6419 -1.0293  3.2628
  421MOL0     H56789   9.739   6.660  10.318  2.4255 -0.8634  1.9161
  421MOL0     H56790   9.771   6.498  10.260 -0.6617 -0.5915 -0.5813
  421MOL0     H56791   9.760   6.589  10.029  0.2490 -1.1200  0.4714
  421MOL0     H56792   9.724   6.763  10.087 -1.0729  1.8572  3.2577
  421MOL0     H56793   9.544   6.598  10.215  0.4375  0.7622 -0.3981
  421MOL0     H56794   9.562   6.524  10.046  1.3624 -0.9340  0.0908
  421MOL0     H56795   9.571   6.571   9.849 -1.3893  0.3706  4.4486
  421MOL0     H56796   9.672   6.701   9.522 -0.0806 -0.0181  0.3889
  421MOL0     H56797   9.635   6.552   9.588  0.4173  0.5841 -0.6419
  421MOL0     H56798   9.512   6.631   9.487 -1.4345  1.4100  0.6384
  421MOL0     H56799   9.629   7.150   9.358 -0.1531 -1.0576  0.2348
  421MOL0     H56800   9.570   7.269   9.155 -1.5211  1.7284  0.6679
  421MOL0     H56801   9.403   7.280   8.844 -0.5259 -0.0462  0.2532
  421MOL0     H56802   9.496   7.175   8.946  0.6929  2.4401  0.4106
  421MOL0     H56803   9.345   7.028   8.846 -0.0232  2.2601 -2.9447
  421MOL0     H56804   9.245   7.070   8.985 -1.4206  1.3712 -1.4423
  421MOL0     H56805   9.232   7.227   8.736  3.3269  3.2839  3.6997
  421MOL0     H56806   9.126   7.247   8.866 -0.4055  0.2997 -1.0899
  421MOL0     H56807   9.160   6.973   8.710 -1.1120 -3.0059  2.4131
  421MOL0     H56808   9.057   6.991   8.843 -0.8843  0.4023  0.0813
  421MOL0     H56809   8.930   6.996   8.637 -2.0008  0.0647  3.5177
  421MOL0     H56810   9.033   7.141   8.585  1.8065  2.4101  2.3583
  421MOL0     H56811   8.866   7.135   8.832 -1.4402 -3.8645 -2.4806
  421MOL0     H56812   8.926   7.282   8.758  1.7137 -0.8551  2.2739
  421MOL0     H56813   8.671   7.224   8.734 -2.6437 -0.9178 -1.8627
  421MOL0     H56814   8.698   7.119   8.605  0.1228  0.0051 -1.4404
  421MOL0     H56815   8.839   7.274   8.483 -1.3662 -2.2331 -1.5361
  421MOL0     H56816   8.795   7.399   8.600  1.4408  1.7973 -2.9568
  421MOL0     H56817   9.157   7.229   9.216 -1.5470 -1.0303 -1.1607
  421MOL0     H56818   9.220   7.091   9.442 -0.2384 -3.0094 -1.1892
  421MOL0     H56819   9.390   7.030   9.770  1.0744  0.7761  1.1010
  421MOL0     H56820   9.426   6.923   9.999  1.1323 -0.7910  1.8993
  421MOL0     H56821  10.927   6.712  10.312  0.5798  0.2707 -3.6796
  421MOL0     H56822  11.069   6.665  10.117  0.8127 -0.8741 -0.7280
  421MOL0     H56823  11.427   6.404   9.932 -1.3684  1.2342  2.8266
  421MOL0     H56824  11.591   6.398   9.742 -0.3382  0.3495  1.0590
  421MOL0     H56825  11.712   6.770   9.566  3.9240  3.1670  1.5841
  421MOL0     H56826  11.863   6.722   9.643 -1.9810 -1.5418  2.6680
  421MOL0     H56827  11.821   6.720   9.368 -1.2722 -0.7861 -2.0832
  421MOL0     H56828  11.747   6.571   9.402  1.7850 -1.3466  2.1557
  421MOL0     H56829  11.955   6.484   9.509 -0.1055 -1.6132 -1.6115
  421MOL0     H56830  12.049   6.618   9.492  0.9460 -0.1206 -1.4237
  421MOL0     H56831  12.007   6.622   9.237 -0.5684  0.0701  1.0630
  421MOL0     H56832  11.941   6.462   9.262 -1.9618  0.9640 -0.1870
  421MOL0     H56833  12.355   6.394   9.326 -1.4217 -1.8830  3.2424
  421MOL0     H56834  11.698   6.805   9.818  0.8761 -2.2505 -0.4142
  421MOL0     H56835  11.509   6.830   9.951  1.6630  1.3769 -2.9138
  422MOL0     O56836   1.398   5.573   0.085 -0.0039 -0.2986  1.1015
  422MOL0     C56837   1.373   5.603   0.197 -0.9606 -0.6832 -0.1583
  422MOL0     O56838   1.416   5.537   0.308  0.3132 -0.0964  0.0798
  422MOL0     C56839   1.497   5.439   0.289 -1.5953  0.8678  0.2851
  422MOL0     C56840   1.468   5.313   0.237  0.2561 -0.4325  0.2630
  422MOL0     C56841   1.559   5.210   0.235 -0.2733  0.1888 -0.1346
  422MOL0     C56842   1.693   5.213   0.264 -1.2650 -1.5579  0.0966
  422MOL0     O56843   1.781   5.111   0.264 -0.1005 -0.1160 -1.1942
  422MOL0     C56844   1.753   5.003   0.180 -0.1868  1.1928 -0.3704
  422MOL0     C56845   1.864   4.895   0.180 -0.8575 -0.2016 -0.4004
  422MOL0     C56846   1.858   4.796   0.297  0.2275 -0.1681 -0.9194
  422MOL0     C56847   1.848   4.855   0.440  0.0390  0.6215 -0.3565
  422MOL0     C56848   1.746   4.774   0.522 -0.4101 -0.4245  1.1900
  422MOL0     C56849   1.748   4.820   0.668 -0.8769  1.0919  0.0883
  422MOL0     C56850   1.630   4.770   0.746  0.4474 -0.6781  0.8451
  422MOL0     C56851   1.633   4.617   0.744  0.6912 -0.0656  0.0940
  422MOL0     N56852   1.538   4.553   0.836 -0.0753  0.2280  0.8384
  422MOL0     C56853   1.504   4.426   0.831 -0.4168 -0.1000  0.0468
  422MOL0     C56854   1.426   4.402   0.939  0.3321 -0.4210 -0.4511
  422MOL0     C56855   1.353   4.272   0.967 -0.4380  0.0424  0.1305
  422MOL0     C56856   1.438   4.176   1.046 -0.2846  0.5703 -0.2502
  422MOL0     C56857   1.363   4.050   1.100  0.0689 -0.3066  0.8173
  422MOL0     C56858   1.234   4.053   1.186  0.1629  0.0444  0.1307
  422MOL0     O56859   1.110   4.113   1.138  0.0538 -0.2299 -0.2457
  422MOL0     C56860   1.065   4.064   1.018 -0.3001  0.5476 -0.1156
  422MOL0     C56861   1.059   3.926   0.989  0.2684  0.5801 -0.3370
  422MOL0     C56862   1.007   3.872   0.871  0.1865  0.3008 -0.8132
  422MOL0     C56863   1.012   3.723   0.858 -0.3159  0.2233  0.6855
  422MOL0     C56864   0.937   3.965   0.790  0.1797 -0.6323  0.0441
  422MOL0     C56865   0.879   3.928   0.660 -0.4388 -0.2139 -0.7789
  422MOL0     O56866   0.870   4.023   0.562 -0.4444 -0.2073  0.2298
  422MOL0     C56867   0.796   4.001   0.447 -0.1836 -0.2717  0.0957
  422MOL0     C56868   0.831   3.913   0.348  0.7833 -0.1481 -0.7370
  422MOL0     C56869   0.745   3.890   0.238  0.2210  0.3115 -1.0825
  422MOL0     C56870   0.620   3.948   0.229  0.6226 -0.3978  0.9827
  422MOL0     O56871   0.537   3.891   0.127  0.9919  0.3341 -0.2588
  422MOL0     C56872   0.399   3.929   0.128 -0.5530  0.4208 -0.3753
  422MOL0     C56873   0.340   3.882  -0.004  0.5412  0.6748  0.0340
  422MOL0     C56874   0.190   3.942  -0.001 -0.0481  0.0795 -0.3028
  422MOL0     C56875   0.105   3.869  -0.115 -0.4131  0.0092 -0.7723
  422MOL0     C56876  -0.019   3.954  -0.135 -0.1483 -0.4381  1.2829
  422MOL0     C56877  -0.098   3.901  -0.249  0.0407  0.5278 -0.9229
  422MOL0     C56878  -0.233   3.965  -0.279 -0.2987  0.5305 -0.7902
  422MOL0     C56879  -0.308   3.907  -0.400 -0.4590  0.0690 -0.9835
  422MOL0    Cl56880  -0.486   3.962  -0.390  0.3209 -0.3424 -0.1919
  422MOL0     C56881   0.582   4.043   0.330 -0.3967  0.0782  1.0445
  422MOL0     C56882   0.675   4.073   0.435  0.0485  0.2093 -0.1443
  422MOL0     O56883   0.828   3.818   0.645 -0.6042 -0.5130  0.2186
  422MOL0     C56884   0.926   4.103   0.829  0.2556 -0.7328 -0.3457
  422MOL0     C56885   0.992   4.156   0.937 -0.7203  0.6873  0.1491
  422MOL0     N56886   1.419   4.521   1.017 -0.9357  1.2892  0.5247
  422MOL0     N56887   1.481   4.600   0.948 -0.1780  0.4408  0.2314
  422MOL0     C56888   1.736   5.341   0.285  0.1527 -0.1487  0.2562
  422MOL0     C56889   1.642   5.450   0.311 -0.2422  1.0068  0.3519
  422MOL0     C56890   1.286   5.715   0.229 -0.5806  0.6826 -0.1783
  422MOL0     C56891   1.230   5.793   0.124  0.6725 -0.1622 -0.4236
  422MOL0     C56892   1.145   5.909   0.153 -0.3947  0.1669  0.7354
  422MOL0     C56893   1.117   5.946   0.285 -0.2319  0.1333  0.2044
  422MOL0     O56894   1.027   6.039   0.323  1.2122 -0.4105  0.9479
  422MOL0     C56895   0.942   6.105   0.230 -0.2454 -0.1841  0.2264
  422MOL0     C56896   0.847   6.199   0.309  0.0229 -0.5761 -0.0214
  422MOL0     C56897   0.914   6.347   0.322 -0.4412  0.6383 -0.3565
  422MOL0     C56898   0.955   6.385   0.469  0.0609  0.5988  0.7787
  422MOL0     C56899   0.826   6.432   0.536 -0.8071  0.5315  0.2827
  422MOL0     C56900   0.709   6.462   0.556  0.4403  0.2103  0.8837
  422MOL0     C56901   1.175   5.867   0.384 -0.0092 -0.4330  0.2001
  422MOL0     C56902   1.264   5.757   0.359  0.6505 -0.0696  0.1406
  422MOL0     H56903   1.372   5.283   0.196  0.0982  0.7516 -0.2700
  422MOL0     H56904   1.524   5.111   0.207 -0.2579 -0.0232  0.5772
  422MOL0     H56905   1.658   4.960   0.211 -0.3270  1.8330  0.1118
  422MOL0     H56906   1.752   5.032   0.075 -1.6651  0.2853 -0.6216
  422MOL0     H56907   1.855   4.849   0.081 -0.8976 -0.2977 -0.3515
  422MOL0     H56908   1.959   4.948   0.179 -1.5415  1.5578 -5.6977
  422MOL0     H56909   1.760   4.748   0.287  0.2536 -0.1726 -1.1568
  422MOL0     H56910   1.937   4.721   0.289  1.6977  1.3309 -1.0738
  422MOL0     H56911   1.945   4.829   0.484 -0.2680 -4.1410 -1.9127
  422MOL0     H56912   1.828   4.962   0.440 -1.9471  0.2960  0.2694
  422MOL0     H56913   1.645   4.794   0.484 -0.4096 -0.3720  1.2161
  422MOL0     H56914   1.776   4.669   0.522 -0.9479 -0.6715  4.2221
  422MOL0     H56915   1.846   4.801   0.711 -0.5926  0.8818 -0.6370
  422MOL0     H56916   1.740   4.929   0.677  2.8583  1.2884  3.6777
  422MOL0     H56917   1.643   4.801   0.850  0.1878 -3.5501  1.8181
  422MOL0     H56918   1.533   4.806   0.711 -0.1870 -2.3212  0.8564
  422MOL0     H56919   1.726   4.577   0.786 -0.2602  0.2858  2.7067
  422MOL0     H56920   1.624   4.576   0.643  0.1107 -0.8790  0.4722
  422MOL0     H56921   1.528   4.345   0.763 -2.1013  1.0146 -1.9460
  422MOL0     H56922   1.264   4.306   1.021 -0.3418  1.4314 -0.5629
  422MOL0     H56923   1.319   4.224   0.875 -0.9162 -0.2467  0.4540
  422MOL0     H56924   1.465   4.237   1.133 -0.3079  2.3754 -1.4370
  422MOL0     H56925   1.534   4.161   0.996  0.8359  2.9410  0.9838
  422MOL0     H56926   1.439   4.002   1.163 -2.2256 -2.7812  1.9199
  422MOL0     H56927   1.343   3.992   1.009 -0.9266  1.1123  0.1027
  422MOL0     H56928   1.262   4.086   1.287 -1.9778  1.0416  0.4592
  422MOL0     H56929   1.218   3.946   1.201 -0.0582 -0.4386 -2.9410
  422MOL0     H56930   1.099   3.861   1.066 -0.9793 -0.1398 -0.2687
  422MOL0     H56931   1.091   3.685   0.924  3.2014  3.3686 -1.3185
  422MOL0     H56932   0.914   3.694   0.896 -0.7726  1.5331  0.5552
  422MOL0     H56933   1.050   3.688   0.761  0.9109 -0.0571  1.2382
  422MOL0     H56934   0.925   3.859   0.343  2.5035  2.4610  0.9630
  422MOL0     H56935   0.774   3.820   0.161  0.2324 -1.0369  0.0927
  422MOL0     H56936   0.352   3.880   0.214  0.2354  0.9626  0.3790
  422MOL0     H56937   0.383   4.037   0.131 -1.4023  0.2791  1.9251
  422MOL0     H56938   0.411   3.908  -0.084  1.3299 -2.5398 -0.4576
  422MOL0     H56939   0.340   3.773  -0.013  2.2007  0.6306  0.2957
  422MOL0     H56940   0.202   4.049  -0.019  3.0941 -0.1520 -0.1943
  422MOL0     H56941   0.134   3.928   0.092  2.4495 -1.1956  1.1529
  422MOL0     H56942   0.168   3.849  -0.202  0.4644 -1.8120  0.2288
  422MOL0     H56943   0.070   3.770  -0.086 -1.3143  0.7298  0.7120
  422MOL0     H56944   0.013   4.057  -0.153  0.9057 -0.8158  0.9473
  422MOL0     H56945  -0.088   3.952  -0.050 -2.0778 -0.1223 -0.2023
  422MOL0     H56946  -0.034   3.913  -0.337  0.7444  1.2657 -0.3316
  422MOL0     H56947  -0.112   3.795  -0.230 -0.3129  0.7495  0.1129
  422MOL0     H56948  -0.227   4.074  -0.288  0.4349  0.5047 -0.6988
  422MOL0     H56949  -0.286   3.941  -0.186  3.1342 -0.4194  1.1052
  422MOL0     H56950  -0.303   3.798  -0.409 -0.1819  0.1471 -1.9011
  422MOL0     H56951  -0.258   3.950  -0.487  4.4555 -0.7571  1.0686
  422MOL0     H56952   0.483   4.086   0.335 -1.1370 -1.1937 -1.0933
  422MOL0     H56953   0.628   4.140   0.506  1.0035  0.2416  0.4754
  422MOL0     H56954   0.867   4.177   0.776  1.7696  0.8442  0.0623
  422MOL0     H56955   0.988   4.261   0.965 -0.3212  1.3815 -2.1788
  422MOL0     H56956   1.842   5.361   0.299 -0.3367  3.0578  0.0667
  422MOL0     H56957   1.665   5.545   0.359 -1.7685 -0.4801  4.4068
  422MOL0     H56958   1.238   5.771   0.018  1.9875 -0.6220 -0.2453
  422MOL0     H56959   1.116   5.975   0.072  2.1485  2.8721  1.8500
  422MOL0     H56960   0.993   6.158   0.149  0.1302 -2.3993 -1.0937
  422MOL0     H56961   0.877   6.032   0.180 -1.0872  1.0297 -0.5160
  422MOL0     H56962   0.834   6.141   0.401  0.6202 -0.4908  0.1180
  422MOL0     H56963   0.747   6.196   0.265  0.0568 -0.5885 -0.0975
  422MOL0     H56964   0.842   6.421   0.285  0.1105  1.0800 -0.5620
  422MOL0     H56965   1.000   6.363   0.256 -1.9458  1.0659 -2.3198
  422MOL0     H56966   1.033   6.461   0.470  1.8353 -0.8988 -2.9640
  422MOL0     H56967   0.989   6.297   0.524 -0.2327 -0.1061 -0.1432
  422MOL0     H56968   0.606   6.476   0.582 -1.0174  0.6710 -4.0473
  422MOL0     H56969   1.130   5.890   0.481 -2.0158 -1.9771 -0.2957
  422MOL0     H56970   1.311   5.709   0.445  2.0385  0.2188 -0.4332
  423MOL0     O56971   7.130   6.479   8.070  0.1718  0.3423 -0.1489
  423MOL0     C56972   7.126   6.512   8.186 -0.3466  0.3521  0.0040
  423MOL0     O56973   7.232   6.510   8.273  0.2588 -0.0741 -0.2177
  423MOL0     C56974   7.349   6.460   8.228  0.4959 -0.6744  1.1568
  423MOL0     C56975   7.376   6.327   8.253  0.0041 -0.5610 -0.1673
  423MOL0     C56976   7.493   6.268   8.214  0.1136  0.0654 -1.1760
  423MOL0     C56977   7.589   6.342   8.138  0.7797  0.1096 -0.1499
  423MOL0     O56978   7.697   6.272   8.101  0.0958 -0.2753  0.2796
  423MOL0     C56979   7.829   6.329   8.082  0.2639 -0.3564 -0.1320
  423MOL0     C56980   7.905   6.306   8.212 -0.1287 -0.1699  0.5605
  423MOL0     C56981   7.976   6.167   8.239  0.6305  0.4772  1.0522
  423MOL0     C56982   8.064   6.174   8.367  0.6378 -0.8565  0.6707
  423MOL0     C56983   8.076   6.031   8.436  0.3176 -0.9687 -0.5128
  423MOL0     C56984   8.172   6.010   8.558  0.0182  0.4686 -0.8582
  423MOL0     C56985   8.112   6.093   8.675  0.0693  0.4239  0.0570
  423MOL0     C56986   7.974   6.039   8.723  0.8093 -0.2021  0.0930
  423MOL0     N56987   7.938   6.120   8.844  0.2464  0.5770 -1.0736
  423MOL0     C56988   7.949   6.087   8.978 -0.4722  0.2879 -0.2614
  423MOL0     C56989   7.906   6.194   9.049  1.3055  0.2488 -0.0628
  423MOL0     C56990   7.903   6.209   9.197  0.1261 -0.0360 -0.1661
  423MOL0     C56991   7.814   6.312   9.262  1.4281  0.2676  0.0642
  423MOL0     C56992   7.664   6.259   9.274  0.3214 -1.4615 -0.6465
  423MOL0     C56993   7.562   6.375   9.310 -0.0523 -0.1327  0.4397
  423MOL0     O56994   7.539   6.454   9.185 -0.5429  0.3305 -0.3957
  423MOL0     C56995   7.491   6.577   9.196 -0.0949  0.3362 -0.3207
  423MOL0     C56996   7.562   6.689   9.148  0.2004  1.0929 -0.1136
  423MOL0     C56997   7.494   6.810   9.152  0.1115  0.6165 -0.0052
  423MOL0     C56998   7.552   6.927   9.083 -1.1441  0.7219 -0.5106
  423MOL0     C56999   7.362   6.819   9.218  0.4090  0.3212  0.9511
  423MOL0     C57000   7.282   6.949   9.223  0.2871 -0.1170  0.4186
  423MOL0     O57001   7.190   6.940   9.319  0.6547 -0.3492  0.7070
  423MOL0     C57002   7.132   7.061   9.352  0.5457  0.4393 -0.7027
  423MOL0     C57003   7.199   7.184   9.352  0.1051  0.3027  0.1322
  423MOL0     C57004   7.145   7.314   9.374  0.3054  0.1287  0.9289
  423MOL0     C57005   7.010   7.314   9.424 -0.4194 -0.5613 -0.0237
  423MOL0     O57006   6.948   7.422   9.473  0.5353  0.6883  0.2374
  423MOL0     C57007   6.995   7.555   9.452 -0.0673  0.4329 -0.0218
  423MOL0     C57008   7.002   7.599   9.306  0.5598  0.2785  0.5049
  423MOL0     C57009   6.862   7.629   9.262 -0.4437 -0.0748  0.2193
  423MOL0     C57010   6.868   7.698   9.122  0.0905  0.1627 -0.3051
  423MOL0     C57011   6.732   7.757   9.104 -0.5197  0.8168 -0.7939
  423MOL0     C57012   6.703   7.825   8.969 -0.5598  0.1665 -0.7175
  423MOL0     C57013   6.616   7.946   8.976  0.2252 -0.8106  0.3029
  423MOL0     C57014   6.464   7.914   8.964  0.0220  0.7906 -0.3327
  423MOL0    Cl57015   6.401   8.060   8.878 -0.1630  0.0879  0.5860
  423MOL0     C57016   6.935   7.189   9.426  0.4247 -0.2981 -0.8412
  423MOL0     C57017   6.993   7.071   9.386 -0.7395 -0.2851  0.3570
  423MOL0     O57018   7.278   7.027   9.136  0.3619  1.0361  0.4780
  423MOL0     C57019   7.311   6.708   9.279 -0.3387  0.1659 -0.1607
  423MOL0     C57020   7.372   6.590   9.270 -0.2823  0.0497 -0.2633
  423MOL0     N57021   7.869   6.291   8.953 -0.8928  0.3476  0.9310
  423MOL0     N57022   7.891   6.245   8.835  0.8455  0.5211 -1.2204
  423MOL0     C57023   7.562   6.470   8.110 -0.6794 -0.7822  0.0040
  423MOL0     C57024   7.443   6.531   8.152  0.0553  0.5529 -0.7702
  423MOL0     C57025   7.002   6.578   8.237 -0.0981  1.5901 -0.0577
  423MOL0     C57026   6.881   6.540   8.189  0.7054  0.7059 -0.2973
  423MOL0     C57027   6.768   6.609   8.244 -0.7913 -0.0115 -0.1533
  423MOL0     C57028   6.781   6.715   8.338 -0.1754  0.7621  0.1350
  423MOL0     O57029   6.671   6.792   8.365 -0.2556  0.3982 -0.4443
  423MOL0     C57030   6.650   6.852   8.488  0.1962 -0.5023 -0.4989
  423MOL0     C57031   6.577   6.985   8.449  0.2204  0.3496 -0.5439
  423MOL0     C57032   6.674   7.086   8.382  0.4543 -0.5152 -0.7563
  423MOL0     C57033   6.768   7.159   8.474  0.0109 -0.3090 -0.0125
  423MOL0     C57034   6.705   7.258   8.557  0.3410  0.2627 -0.1168
  423MOL0     C57035   6.652   7.342   8.631  0.1062 -0.2202 -0.8099
  423MOL0     C57036   6.905   6.742   8.397 -0.0546  0.2290  0.2252
  423MOL0     C57037   7.013   6.669   8.343 -0.9246  0.5337 -0.2137
  423MOL0     H57038   7.298   6.271   8.302  2.9965 -2.0263  3.4753
  423MOL0     H57039   7.503   6.164   8.241 -2.0027 -0.1138 -0.9332
  423MOL0     H57040   7.883   6.291   7.995  2.7856 -1.9860  1.9969
  423MOL0     H57041   7.830   6.436   8.061  0.9666 -0.6436 -1.6672
  423MOL0     H57042   7.991   6.372   8.203  0.8296 -1.3633  0.6032
  423MOL0     H57043   7.834   6.328   8.293 -0.1901 -1.4569  0.8855
  423MOL0     H57044   7.898   6.093   8.257  1.3865 -1.4435 -2.6602
  423MOL0     H57045   8.036   6.144   8.150  0.0729 -0.9044  1.0182
  423MOL0     H57046   8.160   6.221   8.345 -0.2884  0.6347 -0.3529
  423MOL0     H57047   8.017   6.241   8.440  3.2916 -1.3652  3.0596
  423MOL0     H57048   7.976   5.988   8.449  0.9432 -2.0675  0.9740
  423MOL0     H57049   8.116   5.960   8.364 -0.6792 -0.5573 -1.4989
  423MOL0     H57050   8.179   5.904   8.583  0.0461  0.2780 -1.6653
  423MOL0     H57051   8.271   6.052   8.541  0.5436 -0.0109  0.7972
  423MOL0     H57052   8.185   6.087   8.755 -1.0953  2.6025  1.3951
  423MOL0     H57053   8.101   6.196   8.640  0.0001 -0.3436 -2.3619
  423MOL0     H57054   7.985   5.932   8.744 -1.7666 -0.3519  0.9963
  423MOL0     H57055   7.896   6.064   8.650  1.2854  2.7653  0.5054
  423MOL0     H57056   7.987   5.990   9.009 -2.7407 -0.8305 -0.7642
  423MOL0     H57057   7.893   6.113   9.248  0.4484  0.5750  1.1059
  423MOL0     H57058   8.004   6.251   9.209  0.6221  1.3081 -6.0641
  423MOL0     H57059   7.830   6.401   9.199  2.0073 -1.0278 -1.6915
  423MOL0     H57060   7.856   6.336   9.361  0.3352 -0.4216  0.7068
  423MOL0     H57061   7.664   6.193   9.362  2.0131 -0.0193  0.5072
  423MOL0     H57062   7.633   6.203   9.185 -0.7948 -3.6617  1.0127
  423MOL0     H57063   7.599   6.430   9.397  0.1571 -1.1587  1.0140
  423MOL0     H57064   7.468   6.325   9.337 -1.0203  1.1959 -0.3261
  423MOL0     H57065   7.659   6.687   9.098  1.7139  1.0371  2.6191
  423MOL0     H57066   7.543   7.016   9.146  0.9363  0.9765 -0.5041
  423MOL0     H57067   7.657   6.925   9.052 -0.4372  1.2285  1.7152
  423MOL0     H57068   7.499   6.954   8.990 -2.4895  2.5585  0.7232
  423MOL0     H57069   7.303   7.185   9.318 -1.0795  0.8740 -4.0629
  423MOL0     H57070   7.204   7.405   9.376 -0.3863  0.6040  0.3411
  423MOL0     H57071   6.924   7.621   9.503  0.1255 -0.4918  1.5296
  423MOL0     H57072   7.093   7.575   9.495 -0.3701  0.4449  0.6756
  423MOL0     H57073   7.073   7.682   9.303  0.1917  0.6636  1.9532
  423MOL0     H57074   7.039   7.524   9.235 -1.4221  0.7179 -1.0845
  423MOL0     H57075   6.819   7.700   9.334 -1.6167  0.3509 -0.8605
  423MOL0     H57076   6.815   7.531   9.254 -0.7361  0.1866 -1.9991
  423MOL0     H57077   6.942   7.778   9.118  0.7404 -0.1846  2.6340
  423MOL0     H57078   6.893   7.621   9.049 -1.5291 -0.5193 -0.1903
  423MOL0     H57079   6.719   7.832   9.183  3.6515  0.6768  0.2993
  423MOL0     H57080   6.652   7.683   9.113  0.4922 -0.2982 -0.7178
  423MOL0     H57081   6.800   7.860   8.932  0.3058 -2.5927 -1.3468
  423MOL0     H57082   6.653   7.749   8.907 -2.6748 -1.2413  2.4612
  423MOL0     H57083   6.640   8.018   8.897  1.3802 -0.8305  0.6168
  423MOL0     H57084   6.629   8.001   9.069  0.0682 -0.7899  0.3139
  423MOL0     H57085   6.396   7.890   9.046  0.8043  1.0143  0.3954
  423MOL0     H57086   6.457   7.837   8.887  1.1668  1.6908 -1.3800
  423MOL0     H57087   6.836   7.186   9.471  1.5416 -2.8130  1.7904
  423MOL0     H57088   6.938   6.978   9.391 -3.1835  1.0627  0.0228
  423MOL0     H57089   7.221   6.704   9.339 -1.7372 -0.1758 -2.1796
  423MOL0     H57090   7.327   6.509   9.326  0.6677  0.8203  1.7226
  423MOL0     H57091   7.627   6.535   8.052 -1.3013  1.0249  1.2047
  423MOL0     H57092   7.404   6.631   8.132 -0.4699  0.7095  0.8264
  423MOL0     H57093   6.855   6.466   8.114 -4.1509  0.6835  1.0694
  423MOL0     H57094   6.671   6.570   8.217 -0.7006 -0.1668 -0.2536
  423MOL0     H57095   6.606   6.788   8.564 -1.2474  1.2991  0.2577
  423MOL0     H57096   6.743   6.889   8.532 -0.8379  3.4402 -1.2607
  423MOL0     H57097   6.532   7.029   8.538  1.8025 -1.2218  1.1142
  423MOL0     H57098   6.492   6.955   8.387 -0.4256 -3.0355  1.6824
  423MOL0     H57099   6.610   7.156   8.327 -1.0839 -0.5771  0.8714
  423MOL0     H57100   6.733   7.029   8.310  1.1974 -1.3296  0.4718
  423MOL0     H57101   6.849   7.206   8.418  0.8746 -3.3198 -1.4435
  423MOL0     H57102   6.809   7.081   8.538  2.4389  0.2408 -0.7969
  423MOL0     H57103   6.620   7.426   8.689  0.9752  0.6933 -1.6300
  423MOL0     H57104   6.921   6.828   8.462 -4.3276  1.1127  0.3929
  423MOL0     H57105   7.101   6.681   8.405 -0.7618  1.7048 -0.6465
  424MOL0     O57106   2.243   8.644   0.917 -0.6552 -0.0759 -0.0960
  424MOL0     C57107   2.212   8.736   0.999 -0.1776 -0.6028 -1.1969
  424MOL0     O57108   2.232   8.739   1.131  0.0386  0.0634  0.2216
  424MOL0     C57109   2.257   8.619   1.189 -0.5907 -0.0221 -0.1437
  424MOL0     C57110   2.378   8.539   1.167 -0.1534  0.3547 -0.3151
  424MOL0     C57111   2.404   8.431   1.247 -0.7106  0.1758 -0.2028
  424MOL0     C57112   2.307   8.390   1.338 -1.1031 -0.1683  0.7566
  424MOL0     O57113   2.326   8.280   1.425  0.4122  0.6286  0.2996
  424MOL0     C57114   2.227   8.181   1.407  0.3621  0.3192 -0.3111
  424MOL0     C57115   2.316   8.061   1.372  0.1580  0.4258 -0.1806
  424MOL0     C57116   2.219   7.950   1.346  0.0953 -0.0256 -0.5428
  424MOL0     C57117   2.101   7.912   1.439  0.7871 -0.0445  0.0853
  424MOL0     C57118   2.042   7.777   1.402 -0.4488  0.1883 -0.3019
  424MOL0     C57119   1.951   7.725   1.512 -0.7838 -0.9481 -0.2643
  424MOL0     C57120   1.873   7.600   1.488  0.6053 -0.1623  0.1151
  424MOL0     C57121   1.959   7.477   1.481 -1.1064  0.0449 -0.7492
  424MOL0     N57122   1.897   7.355   1.438 -0.6707  0.2941 -0.2378
  424MOL0     C57123   1.766   7.317   1.453 -0.1279 -1.5671  0.0481
  424MOL0     C57124   1.748   7.199   1.395 -0.0873 -0.4351  0.6802
  424MOL0     C57125   1.626   7.126   1.377  0.2719 -0.1546 -0.7039
  424MOL0     C57126   1.621   6.990   1.453  0.2491  0.2896  0.2697
  424MOL0     C57127   1.579   7.005   1.607  0.1237  0.6192  0.6862
  424MOL0     C57128   1.512   6.874   1.655 -0.3536 -0.7842  0.5079
  424MOL0     O57129   1.382   6.854   1.597  0.1227  0.8362  0.1070
  424MOL0     C57130   1.346   6.733   1.542 -0.7810 -0.4426 -0.0948
  424MOL0     C57131   1.212   6.695   1.546 -0.9656 -0.7304  1.3994
  424MOL0     C57132   1.169   6.573   1.496  0.1681  0.0704 -0.1877
  424MOL0     C57133   1.031   6.516   1.526  1.0785 -0.5504 -0.1414
  424MOL0     C57134   1.269   6.486   1.440 -0.4062  0.5063 -0.4778
  424MOL0     C57135   1.247   6.355   1.385  0.2145  0.3053 -0.3893
  424MOL0     O57136   1.350   6.265   1.390  0.2667 -0.8575 -0.8185
  424MOL0     C57137   1.313   6.133   1.370  0.5680  0.2008  0.6756
  424MOL0     C57138   1.257   6.052   1.462  1.4218  0.4708 -1.1154
  424MOL0     C57139   1.250   5.916   1.442  0.3980 -0.1321  0.1978
  424MOL0     C57140   1.285   5.856   1.318 -0.4753  0.9875  1.1042
  424MOL0     O57141   1.259   5.729   1.274  0.4690 -0.6646  0.6339
  424MOL0     C57142   1.376   5.640   1.244 -0.4077 -0.5019  0.1290
  424MOL0     C57143   1.426   5.597   1.383 -0.5539 -0.9484  0.6041
  424MOL0     C57144   1.532   5.493   1.372 -0.1656 -0.2602 -0.4286
  424MOL0     C57145   1.625   5.477   1.505  0.6152 -1.1242 -0.7709
  424MOL0     C57146   1.728   5.357   1.528 -0.2066  0.2291  0.4589
  424MOL0     C57147   1.830   5.341   1.417  0.4230  0.5846 -0.0963
  424MOL0     C57148   1.881   5.475   1.360  0.3006 -0.1861  0.0953
  424MOL0     C57149   2.012   5.461   1.281  0.3854  1.0269  0.6426
  424MOL0    Cl57150   1.984   5.325   1.159 -0.1460  0.0391  0.5190
  424MOL0     C57151   1.348   5.939   1.222  0.7320 -0.4302  0.9150
  424MOL0     C57152   1.368   6.074   1.258 -0.0314  0.4695  0.8313
  424MOL0     O57153   1.136   6.340   1.331  0.7589 -0.1360 -0.7137
  424MOL0     C57154   1.403   6.521   1.449  0.1014  0.0138  0.6175
  424MOL0     C57155   1.435   6.641   1.493 -0.5497  0.0574 -0.2952
  424MOL0     N57156   1.878   7.159   1.355 -0.0367 -0.4755 -0.3786
  424MOL0     N57157   1.965   7.256   1.378 -0.4730 -0.9650 -0.0756
  424MOL0     C57158   2.196   8.470   1.372  0.4479 -0.9679  0.3190
  424MOL0     C57159   2.172   8.593   1.302  0.9473  0.6807 -0.8124
  424MOL0     C57160   2.149   8.858   0.935 -1.2410  0.2207  0.4559
  424MOL0     C57161   2.148   8.876   0.789  0.4924  0.8660 -0.3796
  424MOL0     C57162   2.103   8.998   0.735  0.4634 -0.3675 -0.8545
  424MOL0     C57163   2.047   9.091   0.824  0.1376  0.5052  0.1267
  424MOL0     O57164   1.982   9.214   0.795 -0.7616  0.7698  0.3271
  424MOL0     C57165   1.953   9.265   0.660 -0.4053 -0.6295 -0.9807
  424MOL0     C57166   2.078   9.291   0.568  0.1139 -0.0581  0.5401
  424MOL0     C57167   2.026   9.314   0.420  0.1237  0.2914 -0.1254
  424MOL0     C57168   1.952   9.198   0.349  0.3921  0.6901  0.2958
  424MOL0     C57169   2.038   9.084   0.323 -0.1831  0.5842 -0.2198
  424MOL0     C57170   2.104   8.994   0.282  0.5180 -0.1393  0.6466
  424MOL0     C57171   2.057   9.077   0.966 -0.2565 -0.3649  0.8134
  424MOL0     C57172   2.113   8.963   1.016  0.0636  0.5130  0.8089
  424MOL0     H57173   2.452   8.579   1.099  2.4682  1.3971  2.8829
  424MOL0     H57174   2.489   8.367   1.227 -0.4093  1.2296 -2.5239
  424MOL0     H57175   2.160   8.183   1.493 -0.7951  2.1003 -1.2022
  424MOL0     H57176   2.168   8.214   1.321  1.7928  0.7643 -1.1587
  424MOL0     H57177   2.364   8.084   1.276 -1.1772 -0.5581 -1.1133
  424MOL0     H57178   2.387   8.026   1.447 -0.4001 -2.3729 -0.8295
  424MOL0     H57179   2.168   7.976   1.253 -1.9908  2.1931  1.0827
  424MOL0     H57180   2.288   7.865   1.338 -0.9382 -1.0949  1.2149
  424MOL0     H57181   2.137   7.900   1.541  1.9440 -1.6460 -0.4747
  424MOL0     H57182   2.028   7.994   1.436 -1.6187 -2.0867 -0.3964
  424MOL0     H57183   1.999   7.794   1.303 -0.7021  1.7662  0.0477
  424MOL0     H57184   2.126   7.707   1.396 -2.0362 -2.3017  3.1843
  424MOL0     H57185   2.015   7.708   1.599 -2.6251  0.0938  1.3822
  424MOL0     H57186   1.893   7.814   1.540  0.9297  0.4911 -1.0639
  424MOL0     H57187   1.795   7.597   1.564 -1.6870  2.0725 -1.9430
  424MOL0     H57188   1.822   7.610   1.391  1.1111  3.7257  0.0768
  424MOL0     H57189   1.998   7.458   1.582 -3.7516  0.0766  0.3656
  424MOL0     H57190   2.044   7.495   1.414  0.8774 -0.0591  1.5945
  424MOL0     H57191   1.695   7.371   1.514  4.2529  0.5852  3.9147
  424MOL0     H57192   1.533   7.172   1.411 -0.1437 -1.5419  0.1113
  424MOL0     H57193   1.605   7.120   1.270 -0.3444  1.7905 -0.7323
  424MOL0     H57194   1.717   6.938   1.450  2.0808  3.2665  1.6223
  424MOL0     H57195   1.545   6.939   1.394  0.1937  1.1843 -0.4553
  424MOL0     H57196   1.526   7.098   1.631  3.6626  2.2406  3.1408
  424MOL0     H57197   1.662   7.017   1.677  1.6310 -2.5160 -0.3895
  424MOL0     H57198   1.502   6.904   1.760  2.3812  0.4707  0.4830
  424MOL0     H57199   1.582   6.792   1.673  1.7049  1.1073  1.6204
  424MOL0     H57200   1.152   6.762   1.606  0.2434  1.6035  0.1385
  424MOL0     H57201   0.988   6.561   1.615  1.8177 -2.2518  1.1367
  424MOL0     H57202   0.980   6.542   1.433  4.5245  1.4406 -1.6475
  424MOL0     H57203   1.025   6.411   1.555 -2.0243  0.5152  4.0044
  424MOL0     H57204   1.210   6.088   1.552 -0.5688 -2.8669 -0.6619
  424MOL0     H57205   1.192   5.858   1.513  0.1783  0.5822  0.6179
  424MOL0     H57206   1.330   5.550   1.202 -0.4472 -1.2712  1.7651
  424MOL0     H57207   1.456   5.689   1.188  0.7300 -0.9395  1.3293
  424MOL0     H57208   1.470   5.687   1.426 -0.5349  0.7249 -2.6209
  424MOL0     H57209   1.336   5.572   1.440 -0.7318 -1.1438  0.2461
  424MOL0     H57210   1.589   5.526   1.284 -3.1535  2.0509 -1.6694
  424MOL0     H57211   1.478   5.400   1.351 -2.9203  0.3036  3.2574
  424MOL0     H57212   1.674   5.573   1.523  0.4747 -1.1882 -0.0198
  424MOL0     H57213   1.543   5.452   1.573  1.9480 -1.2634  0.8283
  424MOL0     H57214   1.667   5.266   1.538 -1.5978  1.1197  0.4408
  424MOL0     H57215   1.785   5.385   1.617 -1.4519 -0.0175  1.3668
  424MOL0     H57216   1.916   5.291   1.463  1.7416  0.8656 -2.1513
  424MOL0     H57217   1.784   5.280   1.339 -2.3432 -0.3371  2.1090
  424MOL0     H57218   1.893   5.551   1.438  1.9775  2.5208 -2.5244
  424MOL0     H57219   1.812   5.512   1.284 -0.7715 -1.8806  0.2079
  424MOL0     H57220   2.095   5.438   1.348 -1.5162 -1.6099  2.3215
  424MOL0     H57221   2.035   5.545   1.215  1.6657 -0.7629 -1.3172
  424MOL0     H57222   1.401   5.908   1.133  1.4955  2.6436  0.1695
  424MOL0     H57223   1.430   6.142   1.201  1.4111 -1.6796 -0.3127
  424MOL0     H57224   1.483   6.460   1.409 -2.7678 -2.6497 -1.5293
  424MOL0     H57225   1.543   6.647   1.501 -0.3344 -1.9441 -1.1746
  424MOL0     H57226   2.139   8.448   1.461  0.1776 -0.1584  0.3549
  424MOL0     H57227   2.088   8.658   1.321 -0.8066 -2.1068  1.8156
  424MOL0     H57228   2.170   8.797   0.718  0.6861  0.6608 -0.0934
  424MOL0     H57229   2.075   9.014   0.631 -2.9929  1.3840  0.1845
  424MOL0     H57230   1.884   9.189   0.622 -1.0287 -2.4346  3.1641
  424MOL0     H57231   1.896   9.358   0.663 -1.3225 -1.0447 -3.4364
  424MOL0     H57232   2.138   9.199   0.565 -4.2809 -3.1789 -1.5730
  424MOL0     H57233   2.137   9.376   0.604  1.8051 -1.0848  0.3174
  424MOL0     H57234   2.100   9.358   0.352  0.2464  0.2286 -0.0328
  424MOL0     H57235   1.949   9.390   0.436  0.9033  1.5163 -1.7923
  424MOL0     H57236   1.910   9.232   0.254  1.7454  1.2229 -0.1470
  424MOL0     H57237   1.871   9.170   0.417  2.3752 -0.6571  2.2780
  424MOL0     H57238   2.174   8.922   0.243 -0.8212 -1.8693  1.2914
  424MOL0     H57239   2.002   9.152   1.022 -1.1149 -0.5504  0.2327
  424MOL0     H57240   2.134   8.954   1.122 -1.9724 -1.5778  1.1399
  425MOL0     O57241   7.904   3.517   2.307 -0.5838  0.6864 -0.7409
  425MOL0     C57242   7.877   3.566   2.201  0.6543 -0.5572  0.6491
  425MOL0     O57243   7.883   3.697   2.164 -0.0317  0.6118  0.3586
  425MOL0     C57244   7.909   3.799   2.251 -0.6905  0.9816  0.2151
  425MOL0     C57245   7.920   3.796   2.395  0.6293  0.7133  0.3959
  425MOL0     C57246   7.931   3.908   2.470 -0.7274  0.4450 -0.2497
  425MOL0     C57247   7.936   4.034   2.407  0.2794  0.5568 -0.5629
  425MOL0     O57248   7.945   4.140   2.499  0.3438 -0.0158  0.1606
  425MOL0     C57249   7.899   4.268   2.460 -0.4217 -1.1406 -0.0155
  425MOL0     C57250   7.941   4.358   2.579 -0.2333 -0.6937 -0.6500
  425MOL0     C57251   7.846   4.354   2.706 -0.5189  0.2453  0.5525
  425MOL0     C57252   7.826   4.211   2.759 -0.1444 -0.6267  0.1424
  425MOL0     C57253   7.720   4.214   2.875 -0.0600  0.9311  0.6714
  425MOL0     C57254   7.714   4.079   2.951  0.1072 -0.1751 -0.2072
  425MOL0     C57255   7.841   4.045   3.039 -0.6271 -0.2674 -0.7844
  425MOL0     C57256   7.806   3.911   3.105  0.0363 -0.5460  0.2985
  425MOL0     N57257   7.897   3.886   3.220  0.3810 -0.1037 -0.0115
  425MOL0     C57258   8.012   3.811   3.204  0.0628  1.5009  0.1481
  425MOL0     C57259   8.069   3.811   3.330 -0.6272 -0.9018  0.0940
  425MOL0     C57260   8.195   3.733   3.349 -0.2586 -0.1783 -0.2877
  425MOL0     C57261   8.309   3.793   3.267  0.5240  0.0996 -1.0050
  425MOL0     C57262   8.360   3.936   3.305 -0.7785  0.0586  0.0823
  425MOL0     C57263   8.257   4.044   3.255  0.6922 -0.2913 -0.2579
  425MOL0     O57264   8.217   4.032   3.121  0.3077 -0.5583  0.3563
  425MOL0     C57265   8.302   4.029   3.016  0.4584  0.1949  0.7344
  425MOL0     C57266   8.269   3.966   2.893  0.7931 -0.0048  0.7701
  425MOL0     C57267   8.358   3.976   2.776  0.9826 -1.1503  0.2624
  425MOL0     C57268   8.297   3.918   2.639 -1.0100  0.1058 -0.8737
  425MOL0     C57269   8.492   4.021   2.785 -0.1832  0.4223 -1.1324
  425MOL0     C57270   8.597   4.020   2.678  0.6652 -0.5730  0.0416
  425MOL0     O57271   8.550   4.026   2.549  0.0510  0.4695 -0.3862
  425MOL0     C57272   8.637   3.984   2.447  0.0053  0.2916 -0.6294
  425MOL0     C57273   8.626   3.847   2.412 -0.2386 -0.4492  0.4708
  425MOL0     C57274   8.703   3.813   2.292 -0.1560 -0.8444 -0.4992
  425MOL0     C57275   8.774   3.912   2.217 -0.2558  0.1892  0.5595
  425MOL0     O57276   8.839   3.858   2.112  0.0370 -0.3216 -0.2124
  425MOL0     C57277   8.916   3.945   2.027  0.6460 -0.7070 -0.6708
  425MOL0     C57278   8.994   3.870   1.916  0.3278  0.5194  0.5312
  425MOL0     C57279   8.898   3.779   1.835  1.3959 -0.1463 -0.2818
  425MOL0     C57280   8.975   3.710   1.729 -0.0150 -0.3264  0.5214
  425MOL0     C57281   8.883   3.613   1.646  0.4500  0.0014  0.1156
  425MOL0     C57282   8.809   3.694   1.535  0.1235 -0.4895  0.0915
  425MOL0     C57283   8.711   3.609   1.461 -0.6823  0.9709  0.6733
  425MOL0     C57284   8.619   3.693   1.356  1.2067  0.1541  0.4558
  425MOL0    Cl57285   8.511   3.817   1.422  0.0181 -0.1393  0.0831
  425MOL0     C57286   8.764   4.040   2.257 -0.0929  0.2258 -0.2719
  425MOL0     C57287   8.693   4.082   2.369  0.6293  0.4185 -0.4969
  425MOL0     O57288   8.714   4.021   2.712  0.4337  0.2086 -0.1860
  425MOL0     C57289   8.530   4.065   2.914 -0.1415 -0.6147  0.0877
  425MOL0     C57290   8.440   4.068   3.019 -0.0220  0.5599  0.8354
  425MOL0     N57291   7.998   3.884   3.421 -0.1496 -0.0689  0.3413
  425MOL0     N57292   7.895   3.927   3.356 -0.4931 -0.7055 -0.0834
  425MOL0     C57293   7.937   4.047   2.269 -0.5698 -0.2624  0.4368
  425MOL0     C57294   7.917   3.930   2.188  0.3006  0.7042 -0.4043
  425MOL0     C57295   7.829   3.459   2.103  0.0022 -1.4613 -0.1547
  425MOL0     C57296   7.728   3.490   2.010  0.1803  0.1581 -0.1682
  425MOL0     C57297   7.675   3.391   1.925 -0.4575 -0.0505  0.2851
  425MOL0     C57298   7.726   3.268   1.920  1.8252  0.6782 -0.8467
  425MOL0     O57299   7.707   3.188   1.816  0.3054  0.3112 -0.2042
  425MOL0     C57300   7.625   3.059   1.830  0.7683  0.0577  0.1980
  425MOL0     C57301   7.482   3.083   1.830  0.1151  0.4139 -0.4424
  425MOL0     C57302   7.439   3.123   1.683  0.2684 -0.1481 -1.3068
  425MOL0     C57303   7.289   3.123   1.678 -0.4653  0.2816 -0.1404
  425MOL0     C57304   7.249   3.155   1.540  0.2107 -0.5619  0.5501
  425MOL0     C57305   7.229   3.174   1.420  1.0836  0.3913 -0.0826
  425MOL0     C57306   7.826   3.234   2.012 -0.6582  0.8266  0.0813
  425MOL0     C57307   7.881   3.333   2.094  0.0370  0.2949 -0.3770
  425MOL0     H57308   7.942   3.704   2.448  3.2087  1.7335  1.2505
  425MOL0     H57309   7.950   3.891   2.576  1.0113  1.8964 -0.2938
  425MOL0     H57310   7.949   4.298   2.367  1.1493  0.7540  1.3398
  425MOL0     H57311   7.790   4.274   2.454 -0.7536 -2.6379  2.9336
  425MOL0     H57312   8.041   4.335   2.617 -1.2283  1.0588  3.5866
  425MOL0     H57313   7.936   4.461   2.542  0.4205 -0.5464 -0.3356
  425MOL0     H57314   7.892   4.415   2.784  2.9301 -1.3101 -0.1149
  425MOL0     H57315   7.753   4.401   2.671 -0.6027  0.8929  1.6195
  425MOL0     H57316   7.790   4.147   2.679  1.2950  0.8073 -1.7555
  425MOL0     H57317   7.924   4.181   2.798  0.4147  1.0799  0.1504
  425MOL0     H57318   7.760   4.293   2.939  2.0402  1.0207 -0.6440
  425MOL0     H57319   7.620   4.233   2.835 -0.6179 -1.4739  0.7658
  425MOL0     H57320   7.621   4.090   3.007 -1.0822 -2.1690 -1.6645
  425MOL0     H57321   7.703   3.991   2.887  2.0998 -0.9439  0.4293
  425MOL0     H57322   7.929   4.039   2.974 -0.5771  0.1971 -0.7592
  425MOL0     H57323   7.859   4.115   3.121  1.9105  0.3869 -1.7969
  425MOL0     H57324   7.821   3.825   3.038  2.9696 -0.3101  0.5437
  425MOL0     H57325   7.705   3.909   3.148  0.9193  1.5951  2.6768
  425MOL0     H57326   8.046   3.757   3.116 -1.4855 -1.0286  0.9985
  425MOL0     H57327   8.229   3.729   3.453 -1.3519  3.4934  0.3759
  425MOL0     H57328   8.176   3.632   3.312  0.6482 -1.0078  1.3868
  425MOL0     H57329   8.283   3.788   3.161 -0.8268 -1.1676 -0.6531
  425MOL0     H57330   8.399   3.731   3.276 -0.3463 -0.9036  1.8118
  425MOL0     H57331   8.449   3.956   3.245 -1.0456 -2.5220 -1.3315
  425MOL0     H57332   8.389   3.948   3.409  2.0731  0.0785 -0.6429
  425MOL0     H57333   8.308   4.140   3.271 -2.8454  1.8776 -1.0581
  425MOL0     H57334   8.169   4.041   3.319 -1.0390 -2.1796 -2.5718
  425MOL0     H57335   8.167   3.933   2.880  0.3043  2.1998 -1.9358
  425MOL0     H57336   8.191   3.891   2.644 -1.8960  3.2434  3.8629
  425MOL0     H57337   8.302   3.997   2.563  2.1817  0.3238 -0.5922
  425MOL0     H57338   8.361   3.839   2.598  0.3663  0.4829  0.4714
  425MOL0     H57339   8.585   3.772   2.478  3.3555 -0.5269  2.9250
  425MOL0     H57340   8.705   3.710   2.259  0.0585 -1.2805  0.8094
  425MOL0     H57341   8.847   4.006   1.969 -1.0764 -1.3471  0.6099
  425MOL0     H57342   8.980   4.012   2.086 -0.7823 -0.0811  0.2193
  425MOL0     H57343   9.040   3.933   1.839  3.3798 -1.5158  0.5264
  425MOL0     H57344   9.083   3.817   1.951 -1.1882 -3.0265 -0.5611
  425MOL0     H57345   8.815   3.837   1.794  0.7318 -0.3185  0.7771
  425MOL0     H57346   8.847   3.717   1.910 -2.1508  3.1418  0.3558
  425MOL0     H57347   9.027   3.784   1.668 -0.1840  1.3882  2.3445
  425MOL0     H57348   9.055   3.649   1.774  1.8645  0.6611 -1.3200
  425MOL0     H57349   8.801   3.572   1.705  1.6288 -1.6308  0.6835
  425MOL0     H57350   8.927   3.528   1.593 -1.8585 -1.2142  0.0349
  425MOL0     H57351   8.751   3.776   1.577  0.0783  0.0563 -0.9958
  425MOL0     H57352   8.877   3.733   1.458 -1.5132 -0.1700 -1.2542
  425MOL0     H57353   8.663   3.545   1.536  2.8317 -1.4692  1.0798
  425MOL0     H57354   8.756   3.535   1.394 -2.3544  0.6928 -0.2052
  425MOL0     H57355   8.569   3.621   1.289  2.0330  0.8411 -0.9502
  425MOL0     H57356   8.682   3.755   1.291 -0.1410  1.4665  0.3506
  425MOL0     H57357   8.808   4.119   2.197  0.8919 -0.4778 -0.5009
  425MOL0     H57358   8.677   4.187   2.392 -1.9266 -0.0721  0.2114
  425MOL0     H57359   8.628   4.104   2.940 -0.0024 -1.3747  0.7517
  425MOL0     H57360   8.475   4.122   3.107  1.4410  0.1881  0.5009
  425MOL0     H57361   7.956   4.144   2.223  3.9341 -1.7575 -1.3129
  425MOL0     H57362   7.900   3.935   2.081 -1.9754 -2.7005 -0.3624
  425MOL0     H57363   7.671   3.582   2.005  3.2020  2.1188 -1.3239
  425MOL0     H57364   7.588   3.424   1.868  0.5928  3.9048  0.6239
  425MOL0     H57365   7.645   2.998   1.742 -1.1882  2.9045 -2.4569
  425MOL0     H57366   7.673   3.004   1.911  1.1752  0.4913  0.2564
  425MOL0     H57367   7.460   3.164   1.900  1.7346 -0.9175  1.7540
  425MOL0     H57368   7.440   2.992   1.873  0.7878  0.4767  0.3843
  425MOL0     H57369   7.474   3.037   1.625  0.5010 -1.3194  0.4817
  425MOL0     H57370   7.476   3.220   1.650 -0.5429  0.9595  0.8387
  425MOL0     H57371   7.259   3.209   1.739 -0.4452 -0.0546  0.3436
  425MOL0     H57372   7.237   3.035   1.718 -3.6863  1.6591 -0.9396
  425MOL0     H57373   7.200   3.195   1.319 -1.2073 -1.7767  0.0080
  425MOL0     H57374   7.883   3.142   2.021 -2.0862  0.0800  2.2942
  425MOL0     H57375   7.971   3.313   2.151  1.2741 -0.7324 -2.5588
  426MOL0     O57376   7.269   5.497   8.582  0.1139 -0.2207  0.9621
  426MOL0     C57377   7.331   5.599   8.607  0.4167 -0.2783  0.4013
  426MOL0     O57378   7.270   5.719   8.665 -1.1550 -0.5506  0.3339
  426MOL0     C57379   7.134   5.703   8.683  0.2731 -1.2329  0.8713
  426MOL0     C57380   7.076   5.621   8.773 -1.0168  0.1041  0.2788
  426MOL0     C57381   6.945   5.600   8.793 -0.2756 -0.4968 -0.7132
  426MOL0     C57382   6.858   5.674   8.712  0.6332 -0.9563 -0.7756
  426MOL0     O57383   6.716   5.676   8.724  0.0431 -0.6602 -0.1105
  426MOL0     C57384   6.659   5.546   8.727 -0.5737  1.3248  0.1538
  426MOL0     C57385   6.518   5.543   8.667 -0.2902 -0.1730 -0.8350
  426MOL0     C57386   6.421   5.630   8.748  0.3146 -0.0575  0.5334
  426MOL0     C57387   6.328   5.534   8.831  0.0990  1.2590 -0.4585
  426MOL0     C57388   6.239   5.620   8.920  0.3118 -0.7410  0.0866
  426MOL0     C57389   6.120   5.542   8.981 -0.4964 -0.5363  0.7702
  426MOL0     C57390   6.174   5.464   9.099  0.0679  0.7583  0.7332
  426MOL0     C57391   6.050   5.401   9.167 -0.7816  0.0158  0.7240
  426MOL0     N57392   5.991   5.284   9.099 -0.6775  0.0915 -1.0759
  426MOL0     C57393   6.054   5.162   9.097 -0.0382 -0.3120  1.1100
  426MOL0     C57394   5.955   5.083   9.041  0.3454 -0.1259  0.2850
  426MOL0     C57395   5.988   4.933   9.019  0.0176 -0.1540  0.7745
  426MOL0     C57396   5.957   4.920   8.868 -0.4108 -0.5397 -0.9183
  426MOL0     C57397   5.983   4.771   8.832 -0.5667 -0.9398  0.3431
  426MOL0     C57398   5.956   4.739   8.686  0.6932  0.0802 -0.0376
  426MOL0     O57399   5.819   4.699   8.671 -0.2220  0.1702  0.4768
  426MOL0     C57400   5.784   4.565   8.651  0.3564 -0.3499  0.0164
  426MOL0     C57401   5.860   4.459   8.692 -0.0037 -0.1250  0.7583
  426MOL0     C57402   5.822   4.324   8.686  0.7373  0.0970  0.5977
  426MOL0     C57403   5.912   4.229   8.751  0.0516  0.2412  0.0172
  426MOL0     C57404   5.702   4.289   8.613  0.2896 -0.2943  0.6676
  426MOL0     C57405   5.647   4.154   8.592 -0.6903 -0.8303 -0.2853
  426MOL0     O57406   5.661   4.070   8.702 -0.5303 -0.2479 -0.1796
  426MOL0     C57407   5.661   3.934   8.671 -0.4704  0.7759 -0.2126
  426MOL0     C57408   5.759   3.884   8.593  0.2966 -0.4311 -0.6230
  426MOL0     C57409   5.764   3.745   8.574 -0.8395  0.6292 -1.2688
  426MOL0     C57410   5.665   3.656   8.626  0.4673  0.4592 -0.1559
  426MOL0     O57411   5.692   3.523   8.608 -0.3123 -0.2215  0.0702
  426MOL0     C57412   5.690   3.436   8.727 -0.6328 -0.1791 -0.4553
  426MOL0     C57413   5.751   3.485   8.863  0.7320 -0.7836  0.4728
  426MOL0     C57414   5.892   3.436   8.888  0.3434  0.4818 -0.0590
  426MOL0     C57415   5.890   3.277   8.903 -0.1911  0.5020 -1.2079
  426MOL0     C57416   6.018   3.223   8.972  0.0765  0.1804  0.2908
  426MOL0     C57417   6.035   3.061   8.965  0.4282 -0.6390 -0.9841
  426MOL0     C57418   6.134   3.024   9.078 -0.5931 -0.4382 -0.2167
  426MOL0     C57419   6.151   2.877   9.099 -0.0957  0.6360  0.0967
  426MOL0    Cl57420   6.006   2.791   9.153  0.1440 -0.1174 -0.2923
  426MOL0     C57421   5.564   3.708   8.707 -0.0412  0.6107 -0.9004
  426MOL0     C57422   5.571   3.843   8.727  0.1386 -0.2904 -0.0432
  426MOL0     O57423   5.595   4.136   8.486  0.5013  0.6552  0.3550
  426MOL0     C57424   5.629   4.403   8.555  1.2037  0.1063 -0.3070
  426MOL0     C57425   5.671   4.527   8.575 -1.1104  0.1940  0.3651
  426MOL0     N57426   5.837   5.149   9.018 -0.2117  0.4081  0.0543
  426MOL0     N57427   5.866   5.269   9.052  0.8413  0.2553 -0.2428
  426MOL0     C57428   6.910   5.762   8.619 -0.2528  1.0324  0.6124
  426MOL0     C57429   7.046   5.771   8.601  0.3063 -0.6069 -0.9409
  426MOL0     C57430   7.478   5.586   8.600 -0.4719 -0.5067 -0.6020
  426MOL0     C57431   7.563   5.657   8.691 -0.5510  0.4172 -0.0927
  426MOL0     C57432   7.702   5.632   8.706 -0.0356  0.2653 -1.0328
  426MOL0     C57433   7.764   5.530   8.635  0.1078  0.2732 -0.0114
  426MOL0     O57434   7.892   5.533   8.656 -0.0137  0.1684  0.6934
  426MOL0     C57435   7.979   5.435   8.595  0.3987 -0.4724 -0.6386
  426MOL0     C57436   7.975   5.316   8.683 -0.3016  0.3789 -1.0781
  426MOL0     C57437   8.002   5.357   8.842  0.5017  0.5601  0.5220
  426MOL0     C57438   7.973   5.243   8.928 -0.5797  0.3729  0.0564
  426MOL0     C57439   7.956   5.275   9.069 -0.1975 -0.2163  0.4417
  426MOL0     C57440   7.944   5.320   9.184 -0.4799  0.3973 -1.6779
  426MOL0     C57441   7.687   5.446   8.549  0.0262 -0.9064 -0.4450
  426MOL0     C57442   7.549   5.484   8.534 -0.3696 -0.9645  0.8543
  426MOL0     H57443   7.150   5.566   8.830 -0.9044 -2.8616 -2.4508
  426MOL0     H57444   6.902   5.551   8.880  0.8550  0.9851  0.7331
  426MOL0     H57445   6.724   5.481   8.668 -1.5167  0.3888  0.1050
  426MOL0     H57446   6.654   5.512   8.831 -0.8113  0.7747 -0.0330
  426MOL0     H57447   6.520   5.570   8.562  3.9011 -2.1215 -1.4382
  426MOL0     H57448   6.476   5.442   8.672 -0.8748  0.0144 -1.8154
  426MOL0     H57449   6.484   5.697   8.808  1.9538 -1.3000  0.2879
  426MOL0     H57450   6.357   5.692   8.684  0.7416  0.2676  0.4114
  426MOL0     H57451   6.276   5.473   8.757  1.2883 -0.6261  0.2050
  426MOL0     H57452   6.383   5.466   8.897 -2.0424 -1.5515 -1.3635
  426MOL0     H57453   6.311   5.658   8.992  1.1409 -2.9723  0.5153
  426MOL0     H57454   6.201   5.700   8.856  2.7080  0.2502 -0.1824
  426MOL0     H57455   6.053   5.623   9.012 -2.2210 -1.6502  0.1275
  426MOL0     H57456   6.052   5.484   8.917 -0.4664 -0.9504  1.1182
  426MOL0     H57457   6.233   5.378   9.065  1.5903  3.2386 -3.7175
  426MOL0     H57458   6.236   5.521   9.169  1.0170  2.7089 -1.5599
  426MOL0     H57459   5.974   5.479   9.177 -0.2949  0.2891  2.6114
  426MOL0     H57460   6.091   5.357   9.258 -0.9672 -1.2199  0.2262
  426MOL0     H57461   6.156   5.131   9.115  0.5447  0.6891 -0.3061
  426MOL0     H57462   6.095   4.920   9.037  0.1280 -0.3734 -0.0012
  426MOL0     H57463   5.932   4.866   9.084  3.0421 -1.6118  2.0604
  426MOL0     H57464   6.014   4.991   8.808  0.4374 -2.8035 -2.9824
  426MOL0     H57465   5.851   4.940   8.846 -0.8075  1.1279  1.9562
  426MOL0     H57466   5.941   4.701   8.905  1.5989 -1.4420  1.1946
  426MOL0     H57467   6.089   4.748   8.846 -0.5062 -0.8173  0.0728
  426MOL0     H57468   6.028   4.668   8.644  1.2704  1.1315 -0.8932
  426MOL0     H57469   5.962   4.834   8.633  3.7357  0.4473  0.7714
  426MOL0     H57470   5.961   4.473   8.727 -1.0437  0.9607  3.6491
  426MOL0     H57471   5.938   4.272   8.848  0.8583  0.5756 -0.3466
  426MOL0     H57472   5.870   4.129   8.763 -0.5376  0.2347 -1.7375
  426MOL0     H57473   6.006   4.236   8.697  1.2470  0.9417  2.0906
  426MOL0     H57474   5.832   3.955   8.555  2.9105 -1.3824  2.1661
  426MOL0     H57475   5.847   3.706   8.516  1.8009  2.8067  0.7611
  426MOL0     H57476   5.585   3.419   8.752 -1.2550  0.7022 -2.2436
  426MOL0     H57477   5.725   3.335   8.705 -1.0975 -0.8086  1.5222
  426MOL0     H57478   5.764   3.593   8.856  0.5891 -0.8718 -1.9053
  426MOL0     H57479   5.683   3.445   8.938 -0.3287  0.1413  0.0191
  426MOL0     H57480   5.921   3.479   8.985  1.3267 -0.3481  0.0250
  426MOL0     H57481   5.965   3.457   8.809  0.5357 -1.0613 -0.3176
  426MOL0     H57482   5.801   3.243   8.957  1.4611 -0.8824  0.7798
  426MOL0     H57483   5.864   3.229   8.808 -1.7240 -0.9408 -0.1219
  426MOL0     H57484   6.018   3.253   9.077  2.8013 -1.0282  0.7374
  426MOL0     H57485   6.104   3.272   8.925  1.6479 -2.9192 -0.3267
  426MOL0     H57486   5.940   3.007   8.977  0.8370 -0.7936  2.4366
  426MOL0     H57487   6.075   3.025   8.869 -2.9714 -4.5103 -1.2202
  426MOL0     H57488   6.102   3.072   9.171  0.9188  2.3728 -1.0107
  426MOL0     H57489   6.230   3.070   9.055 -0.8766 -0.6614 -1.9692
  426MOL0     H57490   6.234   2.854   9.166  0.8125 -0.1621 -1.2508
  426MOL0     H57491   6.179   2.832   9.003 -0.8345  3.2895 -1.4570
  426MOL0     H57492   5.477   3.650   8.737 -0.1300  0.8657 -0.6627
  426MOL0     H57493   5.477   3.886   8.763  0.0100 -1.5223  1.1640
  426MOL0     H57494   5.535   4.393   8.502 -0.2594  3.7349  1.2279
  426MOL0     H57495   5.607   4.602   8.531  1.1585  0.5094 -2.6932
  426MOL0     H57496   6.841   5.826   8.564  0.0606  0.5890 -0.3223
  426MOL0     H57497   7.075   5.840   8.522 -4.9667  1.1901 -1.7486
  426MOL0     H57498   7.506   5.727   8.751  0.5398  2.4680 -1.2940
  426MOL0     H57499   7.758   5.698   8.771 -0.1213 -0.8156  0.1811
  426MOL0     H57500   7.951   5.400   8.495  2.0042 -0.5227 -1.0986
  426MOL0     H57501   8.084   5.465   8.593 -0.0870  1.7631  1.6898
  426MOL0     H57502   8.054   5.246   8.655 -0.9921 -1.5118  1.3854
  426MOL0     H57503   7.888   5.251   8.672  1.6723 -2.9336  1.1081
  426MOL0     H57504   7.927   5.427   8.882  2.1062  1.2168  2.5611
  426MOL0     H57505   8.103   5.395   8.859  0.1807  2.9851 -2.1563
  426MOL0     H57506   8.052   5.168   8.922 -0.9870  0.0231 -1.2723
  426MOL0     H57507   7.885   5.185   8.898 -1.0890 -0.2786  2.5746
  426MOL0     H57508   7.938   5.367   9.280  0.6130  0.8934 -1.8324
  426MOL0     H57509   7.732   5.384   8.473 -0.5424 -1.0103 -0.7003
  426MOL0     H57510   7.502   5.419   8.461 -2.0275 -0.5733  1.5177
  427MOL0     O57511   1.810   1.334   5.136  0.0532 -0.3050 -0.1798
  427MOL0     C57512   1.712   1.373   5.074  0.9231  0.6035 -0.1635
  427MOL0     O57513   1.581   1.366   5.111  0.0854  0.0602  0.3517
  427MOL0     C57514   1.555   1.330   5.240  0.3267 -1.3512  0.8174
  427MOL0     C57515   1.628   1.364   5.350 -0.1266  0.6346 -0.2185
  427MOL0     C57516   1.594   1.333   5.482 -0.9556 -0.9625  0.4681
  427MOL0     C57517   1.480   1.265   5.509  0.6399 -0.2198  0.6018
  427MOL0     O57518   1.435   1.223   5.633  0.5438 -0.2191  0.3545
  427MOL0     C57519   1.504   1.238   5.757  0.5039 -0.0347 -0.2041
  427MOL0     C57520   1.615   1.129   5.775  0.1485 -0.5016  0.0318
  427MOL0     C57521   1.669   1.096   5.915  0.5820 -0.0569 -0.1374
  427MOL0     C57522   1.783   0.994   5.899  0.8569  0.2329  0.6595
  427MOL0     C57523   1.835   0.959   6.038 -0.1460 -0.5464  0.8888
  427MOL0     C57524   1.979   0.906   6.015  0.9365 -0.1127 -0.3184
  427MOL0     C57525   2.048   0.859   6.149 -0.7399 -0.7843  0.1298
  427MOL0     C57526   2.028   0.949   6.263 -1.0246 -0.3737  0.0844
  427MOL0     N57527   2.107   0.892   6.375  0.0398 -0.2506 -0.2739
  427MOL0     C57528   2.241   0.879   6.381  0.8922 -0.4521 -0.2535
  427MOL0     C57529   2.274   0.826   6.503  0.2553 -0.1722 -0.1556
  427MOL0     C57530   2.406   0.797   6.566  0.5345 -0.2935  0.0407
  427MOL0     C57531   2.494   0.923   6.549  0.0938  0.1219 -0.7080
  427MOL0     C57532   2.614   0.924   6.656 -0.5519  0.8350 -1.0993
  427MOL0     C57533   2.675   1.071   6.665 -0.7779 -0.1769 -0.4380
  427MOL0     O57534   2.795   1.075   6.580  0.5304 -0.7154 -0.1225
  427MOL0     C57535   2.924   1.043   6.620  0.9871  0.0471  1.3851
  427MOL0     C57536   3.036   1.045   6.545 -0.3281 -0.9514  0.4846
  427MOL0     C57537   3.166   1.007   6.580  0.3252  0.0403  0.9414
  427MOL0     C57538   3.271   1.000   6.477 -0.4036 -0.1395 -0.7704
  427MOL0     C57539   3.180   0.960   6.717 -0.2244 -0.5333  0.0300
  427MOL0     C57540   3.321   0.930   6.791  0.6096  0.4851  0.7646
  427MOL0     O57541   3.324   0.919   6.925  0.3581  0.3366 -0.5164
  427MOL0     C57542   3.428   0.880   7.008 -0.8014  0.3074  0.8543
  427MOL0     C57543   3.559   0.862   6.966 -0.8610  0.4522 -0.0856
  427MOL0     C57544   3.657   0.805   7.057  0.1453 -0.2601  0.0749
  427MOL0     C57545   3.625   0.785   7.190  0.0017 -0.4637  0.0299
  427MOL0     O57546   3.714   0.720   7.263 -0.3886  0.7631 -0.5175
  427MOL0     C57547   3.722   0.756   7.403 -1.1814  0.1304 -0.0752
  427MOL0     C57548   3.859   0.723   7.464 -0.6600  0.7021 -0.2915
  427MOL0     C57549   3.973   0.820   7.412  0.1488  0.0027 -0.6118
  427MOL0     C57550   4.014   0.808   7.259 -0.4625 -0.8523 -0.0893
  427MOL0     C57551   4.142   0.891   7.215  0.2772 -0.0347  0.7567
  427MOL0     C57552   4.126   1.042   7.234  0.4777  0.8821  0.1828
  427MOL0     C57553   4.257   1.107   7.213 -0.1660 -0.2027  0.8806
  427MOL0     C57554   4.227   1.252   7.224 -0.3840 -1.0500  0.6896
  427MOL0    Cl57555   4.181   1.294   7.384  0.2023  0.0190 -0.1117
  427MOL0     C57556   3.493   0.815   7.237 -0.6940 -0.3793 -0.1967
  427MOL0     C57557   3.404   0.862   7.138 -0.0892 -0.0341 -1.0943
  427MOL0     O57558   3.412   0.898   6.708  0.8390 -0.9855 -1.7091
  427MOL0     C57559   3.066   0.963   6.798 -1.0696  0.1109  0.4084
  427MOL0     C57560   2.941   1.005   6.753  0.6115 -1.0883  0.0742
  427MOL0     N57561   2.156   0.808   6.568  0.3503  0.4342  0.4309
  427MOL0     N57562   2.063   0.859   6.506 -0.3984  0.7797 -0.1085
  427MOL0     C57563   1.398   1.235   5.406 -0.2518 -1.4071  0.5990
  427MOL0     C57564   1.433   1.264   5.270 -0.3767  0.4548  0.0274
  427MOL0     C57565   1.733   1.437   4.952 -0.1822 -0.2710 -0.0403
  427MOL0     C57566   1.628   1.445   4.861  0.5252  0.1754  0.6250
  427MOL0     C57567   1.638   1.513   4.740 -0.2013  0.4598 -0.9725
  427MOL0     C57568   1.756   1.583   4.707  0.1163  0.0533  0.5107
  427MOL0     O57569   1.759   1.674   4.594  0.0421 -0.9065  0.0963
  427MOL0     C57570   1.641   1.701   4.527 -0.1750  0.8381 -0.1438
  427MOL0     C57571   1.609   1.592   4.427  0.2144 -0.5840 -0.4009
  427MOL0     C57572   1.613   1.648   4.286 -0.9833 -0.0310 -0.2761
  427MOL0     C57573   1.553   1.550   4.187  0.2408 -0.1300  1.0952
  427MOL0     C57574   1.598   1.595   4.050 -0.6659 -0.5769 -0.5478
  427MOL0     C57575   1.632   1.651   3.948  0.6434 -0.0825 -0.6923
  427MOL0     C57576   1.866   1.568   4.791  0.0262 -0.5474 -0.2494
  427MOL0     C57577   1.855   1.497   4.914 -0.6876 -0.4542 -0.8493
  427MOL0     H57578   1.726   1.411   5.346  0.7385 -0.9281  1.3393
  427MOL0     H57579   1.663   1.364   5.560 -0.0913  0.1539 -0.7117
  427MOL0     H57580   1.546   1.338   5.772  1.6879  0.1718 -3.8817
  427MOL0     H57581   1.425   1.219   5.830  0.1514  2.2888  0.1126
  427MOL0     H57582   1.598   1.035   5.723  2.0356 -2.4229  2.6727
  427MOL0     H57583   1.698   1.169   5.716  1.1765 -1.0006  1.1266
  427MOL0     H57584   1.698   1.192   5.959 -0.2660 -0.5032  1.4753
  427MOL0     H57585   1.594   1.052   5.980 -0.4957 -1.3578 -2.1474
  427MOL0     H57586   1.763   0.907   5.836 -2.4950  1.6226 -0.3888
  427MOL0     H57587   1.859   1.047   5.840  0.9081 -1.8080 -1.2120
  427MOL0     H57588   1.826   1.052   6.094 -0.4794  0.2324 -0.4278
  427MOL0     H57589   1.778   0.888   6.100 -1.1894 -0.6404 -0.1313
  427MOL0     H57590   1.972   0.816   5.954 -3.1329  0.9183 -1.7013
  427MOL0     H57591   2.054   0.975   5.978  0.5572  0.8534  0.6600
  427MOL0     H57592   2.018   0.759   6.183  0.6779 -0.5712  2.1715
  427MOL0     H57593   2.154   0.845   6.128 -0.1091  1.8943  1.1860
  427MOL0     H57594   1.921   0.952   6.283 -1.3472  1.4148 -1.6446
  427MOL0     H57595   2.067   1.046   6.231  0.3458 -0.5559  1.1039
  427MOL0     H57596   2.311   0.923   6.310  2.2598 -0.6568  0.9201
  427MOL0     H57597   2.416   0.768   6.671 -0.6916 -0.9288  0.0075
  427MOL0     H57598   2.449   0.709   6.519  1.3747 -0.3744  0.9306
  427MOL0     H57599   2.427   1.009   6.561 -1.7406 -1.1439 -1.3232
  427MOL0     H57600   2.543   0.912   6.452  0.2725 -2.1181 -0.4216
  427MOL0     H57601   2.696   0.859   6.624 -1.4659  0.0100 -1.8079
  427MOL0     H57602   2.586   0.897   6.758  3.4875 -1.3026 -0.3446
  427MOL0     H57603   2.710   1.096   6.765  0.7597 -1.7978 -0.5238
  427MOL0     H57604   2.598   1.146   6.643  1.2026  2.0784 -0.1827
  427MOL0     H57605   3.007   1.081   6.447 -0.5574 -3.5419 -0.4578
  427MOL0     H57606   3.313   0.900   6.484 -1.0844 -0.3101  1.7622
  427MOL0     H57607   3.239   1.024   6.375  0.2819  0.4072 -0.8618
  427MOL0     H57608   3.355   1.067   6.498  2.5023 -2.8658 -2.7702
  427MOL0     H57609   3.601   0.873   6.867 -2.2417 -0.7667 -0.8310
  427MOL0     H57610   3.758   0.779   7.028 -0.7914 -1.4659 -2.4184
  427MOL0     H57611   3.717   0.865   7.413 -0.9319  0.1575 -0.2397
  427MOL0     H57612   3.652   0.708   7.471 -1.2275  1.1083  0.5919
  427MOL0     H57613   3.854   0.739   7.572 -0.7461  1.8900 -0.4539
  427MOL0     H57614   3.878   0.616   7.454  2.8601  1.3730 -2.6497
  427MOL0     H57615   4.071   0.812   7.460  0.3144  3.2354 -0.2030
  427MOL0     H57616   3.939   0.922   7.433 -1.1873 -0.4572 -0.4146
  427MOL0     H57617   4.039   0.704   7.234  1.5515 -0.3060 -0.5457
  427MOL0     H57618   3.926   0.847   7.209  0.4975  3.5794  1.2714
  427MOL0     H57619   4.151   0.861   7.110  0.0379  3.8222 -0.5323
  427MOL0     H57620   4.233   0.861   7.268  0.2895  0.7892  1.2124
  427MOL0     H57621   4.050   1.075   7.162  0.2424 -1.2755 -0.6428
  427MOL0     H57622   4.089   1.046   7.337  3.7365 -2.2303  1.6745
  427MOL0     H57623   4.311   1.089   7.120 -1.7002  0.1096 -0.1102
  427MOL0     H57624   4.313   1.075   7.301 -2.3232 -1.0275  2.0455
  427MOL0     H57625   4.147   1.290   7.159  1.1935  2.4365  0.5399
  427MOL0     H57626   4.312   1.309   7.186 -1.3637  0.0957  0.1378
  427MOL0     H57627   3.460   0.768   7.329  1.0702  0.5110  0.9419
  427MOL0     H57628   3.303   0.892   7.166 -0.4964  0.6070 -3.1101
  427MOL0     H57629   3.068   0.917   6.897  0.5599 -1.7060 -0.3915
  427MOL0     H57630   2.873   0.973   6.832  2.8101 -1.6153  1.8658
  427MOL0     H57631   1.318   1.167   5.433 -0.8392 -1.5084 -1.2390
  427MOL0     H57632   1.371   1.244   5.183 -0.1564 -0.6392  0.1165
  427MOL0     H57633   1.525   1.412   4.876  0.2658  0.6853  0.0119
  427MOL0     H57634   1.540   1.510   4.694 -1.1155  2.6347  0.6326
  427MOL0     H57635   1.553   1.716   4.590 -1.5646 -0.7138 -1.6153
  427MOL0     H57636   1.665   1.796   4.478 -4.2574  2.3261  0.4059
  427MOL0     H57637   1.509   1.552   4.445  0.0081  0.4129  0.7054
  427MOL0     H57638   1.686   1.514   4.440  1.9493  1.4096  2.3455
  427MOL0     H57639   1.717   1.673   4.263 -0.8231  0.6486  1.1026
  427MOL0     H57640   1.561   1.744   4.282  1.5621  1.4821  0.9340
  427MOL0     H57641   1.444   1.554   4.172  0.1984 -1.4324  0.9532
  427MOL0     H57642   1.576   1.446   4.210  2.8046 -0.3314 -1.8301
  427MOL0     H57643   1.653   1.685   3.849  0.6998  0.8857 -0.3644
  427MOL0     H57644   1.951   1.624   4.754 -1.3063  1.4011 -0.5183
  427MOL0     H57645   1.935   1.500   4.987  0.8736 -3.0534 -2.3194
  428MOL0     O57646   2.017   7.728   0.036 -0.5141 -0.0590 -0.1247
  428MOL0     C57647   2.026   7.607   0.048  0.1622  0.9139  0.2779
  428MOL0     O57648   1.925   7.517   0.028  0.0617 -0.1260 -0.3135
  428MOL0     C57649   1.795   7.560   0.014  0.4788 -0.2406 -0.4212
  428MOL0     C57650   1.729   7.525  -0.103 -0.7720 -0.1424 -1.0271
  428MOL0     C57651   1.599   7.581  -0.136 -0.1466  0.6017  0.1260
  428MOL0     C57652   1.526   7.659  -0.053  1.2340  0.4544  0.4692
  428MOL0     O57653   1.394   7.697  -0.094  0.0143  0.1625 -0.8375
  428MOL0     C57654   1.283   7.613  -0.058  0.2776 -0.4099 -0.9851
  428MOL0     C57655   1.195   7.686   0.053  0.2378  0.0084 -0.4733
  428MOL0     C57656   1.050   7.701   0.014 -0.4170 -0.1789  0.5960
  428MOL0     C57657   0.993   7.788   0.114 -0.4263 -0.0729 -0.6186
  428MOL0     C57658   0.842   7.799   0.103  0.2082  0.5961  0.0392
  428MOL0     C57659   0.772   7.864   0.236  0.2917  0.5730  0.2447
  428MOL0     C57660   0.828   7.997   0.279  1.1546 -0.4371 -0.1703
  428MOL0     C57661   0.806   8.102   0.170 -0.7681 -0.6454 -0.2583
  428MOL0     N57662   0.823   8.246   0.210  0.6585  0.2016 -0.1672
  428MOL0     C57663   0.770   8.353   0.153 -0.1716 -0.3566  0.3855
  428MOL0     C57664   0.815   8.462   0.226  0.3546  0.5911  0.2961
  428MOL0     C57665   0.785   8.606   0.187 -0.1209 -0.6323  0.7711
  428MOL0     C57666   0.854   8.715   0.277 -0.0241 -0.1157  0.3342
  428MOL0     C57667   0.771   8.744   0.397  0.5013 -0.2770 -0.5407
  428MOL0     C57668   0.831   8.857   0.486  0.1866  0.0242  0.5749
  428MOL0     O57669   0.816   8.985   0.417 -0.3796  0.7646  0.7413
  428MOL0     C57670   0.869   9.095   0.483 -0.5002  0.2567  0.7853
  428MOL0     C57671   0.866   9.122   0.617  0.4637  0.8262  0.2931
  428MOL0     C57672   0.909   9.246   0.673  0.1093  0.2099 -0.0517
  428MOL0     C57673   0.905   9.261   0.824  0.1133  0.1372 -0.7295
  428MOL0     C57674   0.958   9.332   0.582 -0.5872 -0.2859 -0.7404
  428MOL0     C57675   0.985   9.478   0.628  0.4970  0.3715  0.1906
  428MOL0     O57676   0.901   9.530   0.717 -0.0338 -0.1746 -0.2457
  428MOL0     C57677   0.940   9.648   0.786  0.1401 -0.7076  0.1325
  428MOL0     C57678   1.035   9.636   0.892  0.4140  0.6732 -0.0313
  428MOL0     C57679   1.064   9.754   0.959 -0.3671 -0.0578  1.3335
  428MOL0     C57680   1.016   9.884   0.927 -0.2745  0.9183 -0.3234
  428MOL0     O57681   1.045   9.990   1.009  0.1061  0.8632  0.2386
  428MOL0     C57682   1.058   9.962   1.151  0.4959 -0.0561  0.7982
  428MOL0     C57683   1.045  10.091   1.220 -0.0779 -0.3963  0.0941
  428MOL0     C57684   1.163  10.198   1.213  0.2346 -0.0963  0.3552
  428MOL0     C57685   1.218  10.235   1.069  0.8325 -0.1307  0.5027
  428MOL0     C57686   1.279  10.374   1.055  0.5660 -0.0816 -0.2526
  428MOL0     C57687   1.425  10.367   1.088  0.1365 -0.5251 -0.5444
  428MOL0     C57688   1.486  10.501   1.047 -0.2435  0.7883 -0.5704
  428MOL0     C57689   1.632  10.515   1.109 -0.4782  0.2795  0.2462
  428MOL0    Cl57690   1.746  10.401   1.035 -0.1101 -0.1082  0.2294
  428MOL0     C57691   0.944   9.895   0.812 -0.3392 -0.7136  0.0438
  428MOL0     C57692   0.907   9.779   0.741  0.9541 -0.8218 -0.0015
  428MOL0     O57693   1.093   9.529   0.597  0.0300  0.7622  0.2731
  428MOL0     C57694   0.977   9.310   0.449 -0.0278 -0.1754 -0.4105
  428MOL0     C57695   0.932   9.188   0.402 -0.2623  1.5332 -0.9401
  428MOL0     N57696   0.912   8.418   0.312 -0.9300 -0.5403  0.7243
  428MOL0     N57697   0.914   8.287   0.303  0.6273  0.5603  0.0611
  428MOL0     C57698   1.584   7.685   0.071  0.1092  0.4759  0.4216
  428MOL0     C57699   1.717   7.638   0.107 -0.5164 -0.3869 -0.0089
  428MOL0     C57700   2.156   7.546   0.103 -0.0626  0.0431  0.1858
  428MOL0     C57701   2.271   7.624   0.132  0.3723 -0.2014 -0.7018
  428MOL0     C57702   2.382   7.566   0.191  0.0103 -0.3171 -0.6879
  428MOL0     C57703   2.390   7.430   0.229  0.1125 -0.3091 -0.5050
  428MOL0     O57704   2.505   7.392   0.303  0.0928 -0.5330  0.6208
  428MOL0     C57705   2.511   7.253   0.341 -0.2193 -0.0525 -0.4203
  428MOL0     C57706   2.638   7.184   0.402  0.3261 -0.1978  0.1904
  428MOL0     C57707   2.653   7.256   0.537  0.0001  0.3349 -0.2143
  428MOL0     C57708   2.762   7.215   0.623 -0.2605 -0.5578 -0.0172
  428MOL0     C57709   2.778   7.066   0.639 -0.0865  0.3133 -0.7057
  428MOL0     C57710   2.801   6.946   0.626  0.1346  0.2673 -0.3333
  428MOL0     C57711   2.277   7.349   0.201  0.3689  0.3351 -1.0341
  428MOL0     C57712   2.163   7.409   0.134  0.1049 -0.2181 -0.5468
  428MOL0     H57713   1.785   7.469  -0.178 -0.2967  1.1505 -1.6761
  428MOL0     H57714   1.577   7.538  -0.233 -1.0674  1.1521  0.0864
  428MOL0     H57715   1.243   7.582  -0.155  0.2140  0.3973 -1.2201
  428MOL0     H57716   1.329   7.520  -0.022  0.6284 -0.2039 -0.8881
  428MOL0     H57717   1.202   7.643   0.154  0.1699 -0.4995 -0.6817
  428MOL0     H57718   1.224   7.791   0.055  0.2798  0.0063  1.8518
  428MOL0     H57719   1.053   7.742  -0.087  2.7792 -2.8720 -0.6075
  428MOL0     H57720   0.995   7.606   0.015 -1.0635  0.1367 -1.3089
  428MOL0     H57721   1.010   7.745   0.214  0.6949  0.9244 -0.3559
  428MOL0     H57722   1.024   7.893   0.118  0.4147 -0.3164 -0.5237
  428MOL0     H57723   0.810   7.854   0.014 -1.5452 -0.2043  0.1280
  428MOL0     H57724   0.796   7.701   0.085  1.7741  0.1566 -1.9051
  428MOL0     H57725   0.669   7.868   0.200  0.8244 -2.2735 -1.9313
  428MOL0     H57726   0.769   7.791   0.318  3.6317  1.9799  1.8090
  428MOL0     H57727   0.784   8.047   0.366 -3.6950 -0.0299 -2.5061
  428MOL0     H57728   0.935   7.990   0.300  0.6146 -2.9976  2.3337
  428MOL0     H57729   0.705   8.085   0.131 -1.3118 -1.9835  1.5916
  428MOL0     H57730   0.879   8.085   0.091 -2.0770 -0.0946 -1.6464
  428MOL0     H57731   0.711   8.371   0.063  0.9070 -1.1482 -0.5120
  428MOL0     H57732   0.822   8.615   0.085 -0.7042 -2.2181  0.3984
  428MOL0     H57733   0.677   8.618   0.196 -0.0196  1.6690 -0.3499
  428MOL0     H57734   0.865   8.810   0.225  0.5976 -0.9318 -1.0853
  428MOL0     H57735   0.959   8.691   0.298 -0.1508 -1.0351 -0.0378
  428MOL0     H57736   0.769   8.661   0.468  0.0618 -0.2064 -0.4682
  428MOL0     H57737   0.670   8.770   0.364  0.9106  0.2040 -1.4435
  428MOL0     H57738   0.935   8.833   0.511 -1.1893 -4.0671  3.2343
  428MOL0     H57739   0.781   8.852   0.583  0.8821 -2.3616  0.8532
  428MOL0     H57740   0.825   9.047   0.684 -5.8265  3.1740 -0.2248
  428MOL0     H57741   0.929   9.163   0.866 -0.1624  0.3657 -0.0266
  428MOL0     H57742   0.985   9.329   0.856  0.1223 -0.2593  0.1084
  428MOL0     H57743   0.809   9.297   0.862 -0.3811 -1.6105 -0.2247
  428MOL0     H57744   1.076   9.541   0.925 -0.1272  0.9197  1.4272
  428MOL0     H57745   1.133   9.750   1.043 -1.3067  0.7697  2.1657
  428MOL0     H57746   0.988   9.888   1.190  0.9803 -0.6575  0.5463
  428MOL0     H57747   1.157   9.922   1.174  0.6701 -0.2107 -0.1844
  428MOL0     H57748   0.943  10.122   1.195 -1.2834 -3.6525  0.4159
  428MOL0     H57749   1.041  10.067   1.327  2.8124  2.6322  1.0204
  428MOL0     H57750   1.250  10.178   1.277  0.7930 -1.8796 -0.8832
  428MOL0     H57751   1.111  10.287   1.251  0.8052 -0.8445  3.1754
  428MOL0     H57752   1.273  10.153   1.023  0.6328  0.6940 -1.2555
  428MOL0     H57753   1.128  10.248   1.007  2.2902  1.5013 -1.3903
  428MOL0     H57754   1.236  10.449   1.123 -0.7805  1.7174 -2.9242
  428MOL0     H57755   1.266  10.406   0.952  2.1237  1.5959  0.0209
  428MOL0     H57756   1.425  10.360   1.197  1.5914 -2.0769 -0.6099
  428MOL0     H57757   1.479  10.277   1.060 -0.7099 -1.1777 -0.1196
  428MOL0     H57758   1.427  10.575   1.101  2.0446  1.4851  1.0968
  428MOL0     H57759   1.491  10.519   0.939  0.9921 -2.2257 -1.1248
  428MOL0     H57760   1.615  10.489   1.214  0.3701 -1.2123  0.0420
  428MOL0     H57761   1.663  10.620   1.105 -1.3313  0.5732  0.8842
  428MOL0     H57762   0.907   9.985   0.765  2.0627  0.6929  0.6950
  428MOL0     H57763   0.859   9.785   0.644 -1.0281  0.0772  0.9861
  428MOL0     H57764   1.015   9.391   0.388  3.5506 -1.8604 -0.6511
  428MOL0     H57765   0.932   9.147   0.301 -1.7776  0.1283 -0.4184
  428MOL0     H57766   1.532   7.733   0.154 -0.8739 -2.4793  1.6472
  428MOL0     H57767   1.760   7.670   0.201  1.3989 -2.3672 -0.1249
  428MOL0     H57768   2.253   7.726   0.101 -0.7554 -0.5089 -1.1168
  428MOL0     H57769   2.468   7.620   0.230 -0.3162 -0.9574  1.0381
  428MOL0     H57770   2.423   7.236   0.404 -0.9923 -0.8819 -1.6797
  428MOL0     H57771   2.489   7.200   0.248  0.8053  1.3465 -1.5016
  428MOL0     H57772   2.727   7.186   0.339 -0.1662 -2.5882 -0.7150
  428MOL0     H57773   2.611   7.078   0.411  1.5321 -0.6539 -1.2655
  428MOL0     H57774   2.558   7.245   0.590  1.9489 -2.3085  3.1096
  428MOL0     H57775   2.665   7.362   0.514 -0.3501  0.9348  2.0546
  428MOL0     H57776   2.749   7.248   0.726 -1.0339  0.0073 -0.2833
  428MOL0     H57777   2.855   7.248   0.576 -1.0054 -0.5961 -1.6114
  428MOL0     H57778   2.839   6.849   0.605  3.4582  1.6995 -1.5817
  428MOL0     H57779   2.264   7.243   0.216 -0.3818  0.5307 -0.2011
  428MOL0     H57780   2.078   7.344   0.113  0.5750 -0.8048 -0.6379
  429MOL0     O57781   1.413   4.692   7.518 -0.3575 -0.5725 -0.8501
  429MOL0     C57782   1.526   4.678   7.557  0.3071 -0.1409 -0.1987
  429MOL0     O57783   1.618   4.781   7.562 -0.5896  0.4155  0.2882
  429MOL0     C57784   1.598   4.909   7.508  0.4468 -1.0822 -0.4231
  429MOL0     C57785   1.712   4.981   7.477 -0.6514 -0.2793  0.4257
  429MOL0     C57786   1.703   5.120   7.449  0.1698  0.1532  0.2867
  429MOL0     C57787   1.580   5.191   7.455 -0.0991 -0.2977 -0.6715
  429MOL0     O57788   1.553   5.323   7.468  0.2737 -0.1846  0.1111
  429MOL0     C57789   1.653   5.411   7.523 -0.8251  0.6034  0.2773
  429MOL0     C57790   1.573   5.541   7.553  0.7211  0.0720  0.8434
  429MOL0     C57791   1.599   5.660   7.451  0.0194  0.3166 -0.3103
  429MOL0     C57792   1.495   5.763   7.480 -0.0758 -0.8316  0.8100
  429MOL0     C57793   1.512   5.891   7.397  0.2220  0.7609  0.1816
  429MOL0     C57794   1.438   6.008   7.454 -0.2432 -0.1158 -0.2534
  429MOL0     C57795   1.472   6.150   7.398 -0.3213  0.3763  0.7152
  429MOL0     C57796   1.372   6.253   7.447 -0.5733  0.0308 -0.4034
  429MOL0     N57797   1.387   6.389   7.393  0.0643  0.3757  0.1120
  429MOL0     C57798   1.462   6.413   7.285 -0.2597  0.9389  0.6532
  429MOL0     C57799   1.480   6.548   7.288  0.5696 -0.1396  0.2174
  429MOL0     C57800   1.546   6.642   7.182 -0.1838 -0.8363 -0.0379
  429MOL0     C57801   1.482   6.639   7.041  0.4096  0.1615  0.3018
  429MOL0     C57802   1.561   6.706   6.931 -0.3337 -0.2138 -0.3474
  429MOL0     C57803   1.695   6.632   6.888 -1.3053  0.9788 -0.2722
  429MOL0     O57804   1.677   6.495   6.847  0.0953 -0.7404  0.1227
  429MOL0     C57805   1.732   6.403   6.933 -0.1093  0.0578  0.2684
  429MOL0     C57806   1.774   6.404   7.067  0.2252  0.5498 -0.3288
  429MOL0     C57807   1.813   6.294   7.142 -0.0729  0.3714  0.0993
  429MOL0     C57808   1.862   6.305   7.274 -0.2418  0.0877 -0.1458
  429MOL0     C57809   1.790   6.165   7.072 -0.4824  0.3150 -0.7375
  429MOL0     C57810   1.802   6.026   7.143 -0.0900 -0.5329  0.6421
  429MOL0     O57811   1.787   5.908   7.067 -0.7844  0.5189  0.0538
  429MOL0     C57812   1.828   5.788   7.124  0.6927  0.4586 -0.0974
  429MOL0     C57813   1.736   5.686   7.135 -0.2552  0.4006 -0.0047
  429MOL0     C57814   1.782   5.551   7.150  0.0031 -0.2967 -1.5229
  429MOL0     C57815   1.921   5.527   7.181 -0.7365 -1.1819 -0.0136
  429MOL0     O57816   1.956   5.397   7.209  0.3813  0.4503  0.8229
  429MOL0     C57817   2.095   5.373   7.235  0.2413  0.3480 -0.7433
  429MOL0     C57818   2.112   5.251   7.330  0.5722 -0.3205  0.3680
  429MOL0     C57819   2.258   5.203   7.344 -0.1174  0.2038 -0.6256
  429MOL0     C57820   2.285   5.100   7.458  0.5681  0.1661 -0.5420
  429MOL0     C57821   2.237   4.962   7.415 -0.5305  0.0999 -1.1376
  429MOL0     C57822   2.235   4.862   7.532  0.4353 -0.2789 -0.2846
  429MOL0     C57823   2.221   4.719   7.492  1.0577  0.6018 -0.0518
  429MOL0     C57824   2.127   4.639   7.571  0.2932  0.0688  0.1254
  429MOL0    Cl57825   1.962   4.679   7.534 -0.0856 -0.2141 -0.0251
  429MOL0     C57826   2.004   5.643   7.177 -0.5015  0.4329 -0.0146
  429MOL0     C57827   1.963   5.770   7.150 -0.1990 -0.3834  0.6233
  429MOL0     O57828   1.805   6.027   7.263 -0.6897 -0.2885  0.1971
  429MOL0     C57829   1.765   6.161   6.934  1.7066  0.0327 -0.1061
  429MOL0     C57830   1.738   6.281   6.865 -0.9998  0.0278  0.3745
  429MOL0     N57831   1.401   6.603   7.394 -0.6037  0.0090  0.3303
  429MOL0     N57832   1.344   6.500   7.445 -0.6238 -0.5565  0.4853
  429MOL0     C57833   1.466   5.116   7.469 -0.1555 -0.0888  0.3927
  429MOL0     C57834   1.472   4.978   7.497  0.9423  0.2619  0.3726
  429MOL0     C57835   1.563   4.548   7.604 -0.3372  0.5573  0.1219
  429MOL0     C57836   1.458   4.455   7.621 -1.2409  0.7578 -0.4544
  429MOL0     C57837   1.482   4.340   7.687 -0.7293  0.0606  0.5404
  429MOL0     C57838   1.613   4.306   7.712 -0.3573 -0.1539  0.3871
  429MOL0     O57839   1.655   4.187   7.775  0.4251 -0.5327  0.2706
  429MOL0     C57840   1.576   4.070   7.742  0.3919  0.4644 -0.1591
  429MOL0     C57841   1.660   3.935   7.745  1.5240  0.0706 -0.1786
  429MOL0     C57842   1.776   3.946   7.659 -0.2301 -0.8602 -0.1697
  429MOL0     C57843   1.735   3.951   7.506  0.4336 -0.4514 -0.6432
  429MOL0     C57844   1.858   3.923   7.436  0.8988 -0.4723  0.8966
  429MOL0     C57845   1.964   3.902   7.379  0.6123 -0.5114 -0.0359
  429MOL0     C57846   1.717   4.389   7.678 -1.2080 -0.2100  0.1730
  429MOL0     C57847   1.693   4.522   7.644  0.3391  0.8887  0.3950
  429MOL0     H57848   1.794   4.913   7.459 -1.1847 -0.9165  0.3907
  429MOL0     H57849   1.802   5.164   7.441  1.0520 -1.1980  2.5898
  429MOL0     H57850   1.688   5.370   7.618 -2.0615 -1.2600 -0.0182
  429MOL0     H57851   1.733   5.415   7.449 -1.1346 -1.6803 -0.2673
  429MOL0     H57852   1.468   5.512   7.541  0.6585  1.1061 -1.8973
  429MOL0     H57853   1.583   5.576   7.656  0.3462  3.3554 -0.1406
  429MOL0     H57854   1.697   5.702   7.475 -0.1003  0.5002 -0.1455
  429MOL0     H57855   1.591   5.638   7.344  0.1285  2.6379 -0.8381
  429MOL0     H57856   1.400   5.711   7.461  1.9985 -5.1118  1.0053
  429MOL0     H57857   1.491   5.795   7.585  0.7869  0.1463  0.5598
  429MOL0     H57858   1.618   5.920   7.399  0.2906  1.0324 -2.7093
  429MOL0     H57859   1.496   5.890   7.289  1.6969  1.0717 -0.0642
  429MOL0     H57860   1.334   5.984   7.429 -0.0075 -1.4203 -0.0774
  429MOL0     H57861   1.458   6.003   7.561  3.7968  0.4175 -0.8292
  429MOL0     H57862   1.578   6.174   7.410 -0.8953  2.4649  2.0582
  429MOL0     H57863   1.437   6.143   7.294 -1.7179  4.7909  0.6704
  429MOL0     H57864   1.386   6.259   7.556  0.1326 -0.9358 -0.4282
  429MOL0     H57865   1.269   6.230   7.422 -0.8430  1.0844 -0.3029
  429MOL0     H57866   1.501   6.347   7.208 -0.7230  0.0052  1.2127
  429MOL0     H57867   1.541   6.746   7.214  4.2100 -1.1711  2.4174
  429MOL0     H57868   1.653   6.624   7.187  0.2038  1.5068  2.4275
  429MOL0     H57869   1.381   6.680   7.048 -0.0899 -1.2923  2.7843
  429MOL0     H57870   1.473   6.533   7.016  0.4138  0.2673 -0.1465
  429MOL0     H57871   1.581   6.811   6.953 -3.7371  0.0852  2.2896
  429MOL0     H57872   1.490   6.706   6.848 -0.3684 -2.6402 -0.3827
  429MOL0     H57873   1.785   6.642   6.950 -0.4072 -1.3470 -1.0764
  429MOL0     H57874   1.744   6.678   6.801  0.3923 -1.8418 -0.9434
  429MOL0     H57875   1.781   6.501   7.116  2.2985 -0.0741  0.7387
  429MOL0     H57876   1.958   6.255   7.290 -0.7294 -0.0187  3.2959
  429MOL0     H57877   1.874   6.410   7.306 -3.3484  0.2462  0.8911
  429MOL0     H57878   1.792   6.257   7.342  1.2490  0.8906  2.0769
  429MOL0     H57879   1.630   5.704   7.119 -0.0662 -0.9974 -3.5744
  429MOL0     H57880   1.711   5.469   7.154 -0.3316 -0.1509 -3.4439
  429MOL0     H57881   2.162   5.365   7.148 -1.0225  2.3780 -1.9963
  429MOL0     H57882   2.140   5.445   7.304  3.2313 -2.1690  0.1797
  429MOL0     H57883   2.073   5.270   7.430 -1.8897  0.8425 -0.7373
  429MOL0     H57884   2.054   5.176   7.276 -0.6045  2.0054 -1.8219
  429MOL0     H57885   2.322   5.291   7.356  2.5026 -1.6422 -0.3003
  429MOL0     H57886   2.298   5.164   7.250  0.4990  2.3535 -1.3299
  429MOL0     H57887   2.387   5.074   7.489 -0.5334 -3.7783  0.4145
  429MOL0     H57888   2.232   5.135   7.547  0.1362 -0.5083 -0.5209
  429MOL0     H57889   2.304   4.924   7.337 -1.6998  0.1661 -2.1952
  429MOL0     H57890   2.144   4.961   7.358  1.6304  0.7546 -5.0401
  429MOL0     H57891   2.321   4.876   7.598 -1.7232  0.5555  2.5794
  429MOL0     H57892   2.159   4.897   7.603 -0.8967 -2.9926 -0.2239
  429MOL0     H57893   2.315   4.663   7.494 -0.1570 -1.5607  1.4302
  429MOL0     H57894   2.184   4.720   7.389  0.2923  0.2536  0.2114
  429MOL0     H57895   2.138   4.649   7.679 -0.3139 -1.6296  0.3802
  429MOL0     H57896   2.140   4.536   7.535 -2.1237 -1.0966  2.2669
  429MOL0     H57897   2.106   5.636   7.214 -0.7752  3.4463  1.6179
  429MOL0     H57898   2.031   5.855   7.141 -1.5943  0.9853  2.4190
  429MOL0     H57899   1.745   6.066   6.884 -2.2382  1.3001 -1.2890
  429MOL0     H57900   1.703   6.274   6.763 -1.7722  2.2846  0.4281
  429MOL0     H57901   1.371   5.165   7.490 -1.3918 -1.1796 -2.1851
  429MOL0     H57902   1.375   4.935   7.517 -0.6677  3.8532  0.9803
  429MOL0     H57903   1.352   4.463   7.595 -1.1797  1.2066 -0.5647
  429MOL0     H57904   1.395   4.276   7.702  0.5804 -1.7862  0.6153
  429MOL0     H57905   1.493   4.088   7.811  0.1047  1.1793 -0.6890
  429MOL0     H57906   1.532   4.072   7.642 -0.1757  1.1668  0.0935
  429MOL0     H57907   1.578   3.873   7.708 -1.7445  3.1007  1.4504
  429MOL0     H57908   1.686   3.898   7.845 -0.7761  0.4194  0.6114
  429MOL0     H57909   1.833   3.855   7.681  1.9095  0.4548  0.0045
  429MOL0     H57910   1.838   4.031   7.688 -1.7212  0.1465  0.1843
  429MOL0     H57911   1.676   4.039   7.478 -1.5894 -1.5602 -0.0565
  429MOL0     H57912   1.667   3.869   7.482 -0.3406  0.4612 -1.6720
  429MOL0     H57913   2.064   3.878   7.351  2.1948  0.6578  4.0457
  429MOL0     H57914   1.816   4.367   7.717 -0.9831 -0.2304 -0.3894
  429MOL0     H57915   1.767   4.601   7.632  0.7938  0.2247 -1.6385
  430MOL0     O57916   4.015   5.445   6.007  0.2820 -0.1809 -1.0675
  430MOL0     C57917   3.919   5.383   5.961  0.6626  0.0963 -1.0065
  430MOL0     O57918   3.849   5.414   5.841 -0.8014 -0.3083 -0.5208
  430MOL0     C57919   3.880   5.538   5.786 -0.7808 -0.9862  0.1362
  430MOL0     C57920   3.974   5.558   5.690 -0.1155  0.0371  0.0815
  430MOL0     C57921   4.006   5.688   5.658 -0.2649 -0.1255  0.4359
  430MOL0     C57922   3.941   5.794   5.714 -0.2209  0.1831 -0.1476
  430MOL0     O57923   3.983   5.919   5.660 -0.0336  1.1059 -0.0552
  430MOL0     C57924   3.901   6.026   5.690  0.6051  0.0171  0.1114
  430MOL0     C57925   3.935   6.136   5.588 -0.2120 -0.0036 -0.0388
  430MOL0     C57926   4.075   6.173   5.567 -0.2728  0.3056 -0.2086
  430MOL0     C57927   4.141   6.195   5.703 -0.1007  0.5145 -0.9469
  430MOL0     C57928   4.279   6.256   5.690  0.3010  0.4822  0.7566
  430MOL0     C57929   4.312   6.360   5.806 -0.8040  0.6903 -0.8059
  430MOL0     C57930   4.459   6.396   5.808 -0.7299  0.0402  0.7517
  430MOL0     C57931   4.502   6.465   5.936 -0.6776  1.0907 -0.4111
  430MOL0     N57932   4.453   6.600   5.959 -0.9552 -0.5063 -0.0141
  430MOL0     C57933   4.455   6.706   5.868 -0.3702  0.1875 -0.0631
  430MOL0     C57934   4.383   6.805   5.920  0.0523 -0.1502 -0.4364
  430MOL0     C57935   4.342   6.945   5.868  0.3532 -0.2225 -0.6792
  430MOL0     C57936   4.436   7.062   5.905 -0.0198  0.2976  0.0877
  430MOL0     C57937   4.438   7.102   6.053  0.6386 -0.4589 -0.3742
  430MOL0     C57938   4.535   7.219   6.090 -0.4697  0.3454  1.0183
  430MOL0     O57939   4.506   7.340   6.026  0.4089 -0.2705  0.8391
  430MOL0     C57940   4.606   7.398   5.946 -0.2092  0.4998 -0.0554
  430MOL0     C57941   4.630   7.353   5.816  0.0811  0.2671 -0.3414
  430MOL0     C57942   4.739   7.403   5.743 -0.1944 -0.0951  0.2886
  430MOL0     C57943   4.752   7.326   5.613  0.7292  0.1704 -0.0515
  430MOL0     C57944   4.821   7.507   5.796  0.8511 -0.6075  0.1028
  430MOL0     C57945   4.943   7.562   5.736 -0.7056  0.3309  0.0542
  430MOL0     O57946   5.010   7.675   5.787 -0.2605  0.4406  0.9782
  430MOL0     C57947   5.121   7.713   5.719  0.1529 -0.2690  0.3753
  430MOL0     C57948   5.242   7.647   5.727  0.0660  0.6653 -0.0402
  430MOL0     C57949   5.355   7.685   5.655 -0.0062 -0.6828  0.4704
  430MOL0     C57950   5.347   7.789   5.564 -0.3669 -0.3925 -0.2077
  430MOL0     O57951   5.454   7.813   5.488 -0.6141  0.4025 -0.1466
  430MOL0     C57952   5.460   7.922   5.395 -0.1648 -1.4734  0.0063
  430MOL0     C57953   5.612   7.956   5.360 -0.0230 -0.1410  0.2936
  430MOL0     C57954   5.600   8.085   5.276 -0.0117 -0.8848  0.1773
  430MOL0     C57955   5.732   8.131   5.215  0.0608  0.4850 -0.4038
  430MOL0     C57956   5.719   8.273   5.166  0.1292 -0.7660 -0.0333
  430MOL0     C57957   5.619   8.298   5.052 -0.1942  0.2918  0.1407
  430MOL0     C57958   5.618   8.195   4.937 -0.2198 -0.0780 -0.0253
  430MOL0     C57959   5.561   8.257   4.809  0.0317  0.1787  0.2914
  430MOL0    Cl57960   5.494   8.140   4.690 -0.2407  0.2360 -0.5607
  430MOL0     C57961   5.219   7.858   5.560 -0.4439  0.0344 -1.2256
  430MOL0     C57962   5.114   7.824   5.647  0.5876 -0.4025  0.3797
  430MOL0     O57963   4.969   7.525   5.622  0.7319  0.2562  0.4509
  430MOL0     C57964   4.782   7.556   5.924 -0.6058  0.1765  0.3198
  430MOL0     C57965   4.687   7.498   6.002 -0.1621  0.1497 -0.1792
  430MOL0     N57966   4.344   6.763   6.046  0.3420  0.2374 -0.5126
  430MOL0     N57967   4.386   6.645   6.065  0.5549  0.2135  0.1716
  430MOL0     C57968   3.832   5.777   5.803  0.7721 -0.1045 -1.2056
  430MOL0     C57969   3.800   5.647   5.832 -0.6948  1.2566  0.7114
  430MOL0     C57970   3.895   5.242   6.008  0.2468 -0.3629 -0.5160
  430MOL0     C57971   3.838   5.137   5.922 -0.0272 -0.5705 -0.1015
  430MOL0     C57972   3.832   5.011   5.968  0.3437 -0.9485  0.2840
  430MOL0     C57973   3.873   4.983   6.092 -0.3874 -0.3094  0.1082
  430MOL0     O57974   3.868   4.846   6.111 -0.0226  0.4070 -0.3807
  430MOL0     C57975   3.945   4.786   6.209 -0.2809  0.4249 -0.5932
  430MOL0     C57976   4.055   4.700   6.135 -0.3547 -0.5833 -0.0205
  430MOL0     C57977   4.191   4.768   6.100 -0.1843 -0.3589 -0.5024
  430MOL0     C57978   4.266   4.674   6.008  0.1353  0.7251 -0.2872
  430MOL0     C57979   4.330   4.563   6.083  1.7379 -0.0966  0.0983
  430MOL0     C57980   4.381   4.478   6.154  0.4331 -0.5669 -0.3576
  430MOL0     C57981   3.922   5.083   6.178 -0.8869 -0.4643  0.8993
  430MOL0     C57982   3.934   5.214   6.132  0.7091  0.2541 -0.5362
  430MOL0     H57983   4.029   5.471   5.653 -0.6619 -0.2158 -0.1536
  430MOL0     H57984   4.085   5.696   5.584 -0.3809 -2.4177 -0.0281
  430MOL0     H57985   3.797   5.999   5.673  0.4119  1.7469 -1.7850
  430MOL0     H57986   3.908   6.060   5.794 -1.4299  2.2082 -0.3756
  430MOL0     H57987   3.893   6.126   5.487 -0.0154  0.5578 -0.1807
  430MOL0     H57988   3.881   6.228   5.614 -1.3348 -0.0208 -2.0353
  430MOL0     H57989   4.123   6.085   5.523 -1.6348 -0.3744 -0.4001
  430MOL0     H57990   4.076   6.254   5.494 -1.3745  2.6012  2.1642
  430MOL0     H57991   4.077   6.260   5.764 -0.0116 -0.3179  0.0481
  430MOL0     H57992   4.159   6.107   5.764 -0.3771 -0.8879 -2.7994
  430MOL0     H57993   4.352   6.175   5.692  1.3435  1.3192 -0.9067
  430MOL0     H57994   4.291   6.307   5.593  3.5979 -1.9647 -0.3023
  430MOL0     H57995   4.259   6.455   5.800  1.1536  2.3802  3.6562
  430MOL0     H57996   4.282   6.319   5.903  0.3953  0.3510 -0.5581
  430MOL0     H57997   4.514   6.303   5.793 -3.6397 -1.8368  0.9845
  430MOL0     H57998   4.484   6.464   5.726  0.5358 -0.8573  0.3667
  430MOL0     H57999   4.611   6.458   5.933 -0.7349 -4.7536  0.3576
  430MOL0     H58000   4.477   6.403   6.023 -0.2135 -1.1405 -1.7949
  430MOL0     H58001   4.515   6.710   5.777 -2.1779 -1.2592 -1.4094
  430MOL0     H58002   4.351   6.933   5.760  1.3959  1.0187 -0.7578
  430MOL0     H58003   4.242   6.979   5.895 -0.3459 -2.6521  0.0240
  430MOL0     H58004   4.406   7.145   5.840 -1.7318 -0.4571 -0.1383
  430MOL0     H58005   4.539   7.037   5.875  0.0133  1.3215 -0.7250
  430MOL0     H58006   4.455   7.016   6.118 -0.0358  0.3984  0.9930
  430MOL0     H58007   4.335   7.127   6.080  0.7641 -1.5714  1.2907
  430MOL0     H58008   4.638   7.188   6.074  0.1458  2.7842 -0.1328
  430MOL0     H58009   4.521   7.243   6.196 -0.9963  3.0886  0.4111
  430MOL0     H58010   4.561   7.271   5.800  1.1260 -0.7150  0.0446
  430MOL0     H58011   4.658   7.285   5.574  0.9640  1.8684 -2.6335
  430MOL0     H58012   4.795   7.388   5.535 -1.4935  0.2254 -1.3318
  430MOL0     H58013   4.819   7.245   5.642  2.8558  1.6890 -0.4705
  430MOL0     H58014   5.254   7.567   5.799  3.4712  0.5026 -0.5930
  430MOL0     H58015   5.445   7.625   5.656 -0.3802 -1.4096 -2.3401
  430MOL0     H58016   5.421   7.898   5.295  3.2094 -0.0321 -1.8150
  430MOL0     H58017   5.409   8.009   5.439  0.4362 -2.3285  2.5605
  430MOL0     H58018   5.685   7.984   5.437  4.4908 -2.2050 -2.7973
  430MOL0     H58019   5.643   7.873   5.295 -5.7257 -2.3857 -0.1601
  430MOL0     H58020   5.572   8.163   5.347  0.4322  0.7509 -1.3935
  430MOL0     H58021   5.524   8.090   5.197 -2.9363  5.5227  2.7490
  430MOL0     H58022   5.798   8.152   5.299  1.9141  1.1415 -1.9651
  430MOL0     H58023   5.778   8.057   5.150 -0.1423  0.6260 -0.7135
  430MOL0     H58024   5.815   8.316   5.136 -1.2043  2.6062  0.1091
  430MOL0     H58025   5.689   8.344   5.243 -1.5107 -1.9463  0.4415
  430MOL0     H58026   5.516   8.289   5.089 -0.7081  0.8601 -1.0669
  430MOL0     H58027   5.617   8.405   5.027 -1.3223  1.1059  3.2436
  430MOL0     H58028   5.552   8.114   4.970 -2.5850  0.7712 -2.3584
  430MOL0     H58029   5.713   8.142   4.923 -0.8644 -1.4721  0.5851
  430MOL0     H58030   5.632   8.312   4.746 -1.2406  2.7492  0.9734
  430MOL0     H58031   5.490   8.332   4.842  1.2733  1.9694 -0.9247
  430MOL0     H58032   5.203   7.951   5.507  1.0416  0.4684 -0.9622
  430MOL0     H58033   5.024   7.885   5.642  1.1320  0.3989  0.1538
  430MOL0     H58034   4.854   7.616   5.978  2.0289 -3.4770  1.3068
  430MOL0     H58035   4.676   7.516   6.108  2.9723  0.1515  0.2319
  430MOL0     H58036   3.771   5.857   5.844 -1.2412 -1.3808 -1.5995
  430MOL0     H58037   3.716   5.637   5.900 -1.0481  1.7588  0.3530
  430MOL0     H58038   3.806   5.171   5.825  2.4140 -0.0327 -0.7936
  430MOL0     H58039   3.800   4.934   5.898  1.2786  2.0979 -3.8564
  430MOL0     H58040   3.986   4.860   6.278 -0.9907 -0.5060  0.8535
  430MOL0     H58041   3.878   4.723   6.268 -0.3266  1.7907  0.8657
  430MOL0     H58042   4.014   4.681   6.035  1.6263  0.7205 -1.1605
  430MOL0     H58043   4.067   4.610   6.196 -0.9565 -0.1609  0.7330
  430MOL0     H58044   4.247   4.784   6.193  0.0083  0.2760 -0.7236
  430MOL0     H58045   4.165   4.868   6.063 -2.9763  0.6054  3.3636
  430MOL0     H58046   4.340   4.723   5.943  2.5291 -1.7844  0.3297
  430MOL0     H58047   4.193   4.636   5.937  0.4813  1.0216 -0.8161
  430MOL0     H58048   4.442   4.409   6.208  2.2964  1.3056  0.0645
  430MOL0     H58049   3.939   5.070   6.285 -1.7728 -0.4872  1.0483
  430MOL0     H58050   3.979   5.283   6.201  1.4523 -0.9011  0.1665
  431MOL0     O58051   7.240  11.513   1.391 -0.1726 -0.1714  0.1338
  431MOL0     C58052   7.174  11.540   1.294 -0.9136 -0.3617 -0.1824
  431MOL0     O58053   7.037  11.509   1.269 -0.0369 -0.1522  0.4290
  431MOL0     C58054   6.963  11.427   1.345  0.2157  0.8810  0.1269
  431MOL0     C58055   6.829  11.459   1.362 -0.2828 -0.3726  0.7231
  431MOL0     C58056   6.736  11.381   1.433 -0.5760  1.0029  0.4518
  431MOL0     C58057   6.789  11.252   1.482  0.6953 -0.2368 -0.0640
  431MOL0     O58058   6.720  11.170   1.565  0.3014 -0.1145 -0.3542
  431MOL0     C58059   6.737  11.209   1.701  0.1063  0.4546  0.5795
  431MOL0     C58060   6.854  11.134   1.765  0.3964  0.4038 -0.0852
  431MOL0     C58061   6.837  11.108   1.919  1.8199  0.1657  0.6919
  431MOL0     C58062   6.985  11.121   1.975  0.9374 -0.5667  0.9309
  431MOL0     C58063   6.961  11.111   2.119  0.8104  0.2712 -0.0198
  431MOL0     C58064   7.094  11.117   2.201 -0.1484  0.2605 -0.0010
  431MOL0     C58065   7.074  11.126   2.351  0.0662  0.3955 -0.9383
  431MOL0     C58066   7.051  11.262   2.397  0.3072 -0.1471  0.5122
  431MOL0     N58067   7.157  11.362   2.376  0.1250 -0.3619  0.0500
  431MOL0     C58068   7.277  11.371   2.433 -0.8435 -1.5989 -0.3459
  431MOL0     C58069   7.341  11.482   2.384  0.3675 -0.5394 -0.1788
  431MOL0     C58070   7.484  11.539   2.418  0.0774 -0.1798 -0.8119
  431MOL0     C58071   7.498  11.658   2.518  0.0623 -0.4027 -0.1300
  431MOL0     C58072   7.434  11.629   2.667 -0.9180 -0.2093  0.2952
  431MOL0     C58073   7.515  11.723   2.758 -0.3694  0.4395  0.3687
  431MOL0     O58074   7.622  11.670   2.837  0.0210 -0.2004 -0.7542
  431MOL0     C58075   7.597  11.642   2.971  0.8953 -0.7238  0.3922
  431MOL0     C58076   7.692  11.588   3.046  0.1052 -0.1490  1.0416
  431MOL0     C58077   7.674  11.538   3.172 -1.1621  0.0994  0.3646
  431MOL0     C58078   7.778  11.457   3.237 -0.4978 -0.1500 -0.7338
  431MOL0     C58079   7.550  11.554   3.237  0.0224 -0.2206 -0.5307
  431MOL0     C58080   7.511  11.505   3.375 -0.3690  0.4294  0.3429
  431MOL0     O58081   7.595  11.533   3.478 -0.3053 -0.2395  0.3550
  431MOL0     C58082   7.572  11.456   3.592 -0.7083  0.0201 -0.6649
  431MOL0     C58083   7.616  11.319   3.591 -0.4432 -0.4663 -0.3360
  431MOL0     C58084   7.597  11.244   3.708 -0.3913 -0.5184 -0.5857
  431MOL0     C58085   7.537  11.302   3.822 -0.1114 -0.9535 -0.0031
  431MOL0     O58086   7.532  11.219   3.933  0.0076  0.1392  0.2176
  431MOL0     C58087   7.529  11.285   4.065  0.4552 -0.0888 -0.1633
  431MOL0     C58088   7.653  11.368   4.107 -0.0732  0.0166  1.4424
  431MOL0     C58089   7.620  11.458   4.224  0.0062 -0.4370 -0.3996
  431MOL0     C58090   7.721  11.570   4.238 -0.9145  0.5848  0.3833
  431MOL0     C58091   7.656  11.669   4.339 -0.1907  0.8725  0.1132
  431MOL0     C58092   7.763  11.756   4.406 -0.0311 -0.8151  0.4294
  431MOL0     C58093   7.760  11.901   4.349 -0.5532  0.2293  0.6498
  431MOL0     C58094   7.661  12.002   4.425  0.4576  0.3072 -1.0602
  431MOL0    Cl58095   7.486  11.966   4.389 -0.6926 -0.3074  0.1244
  431MOL0     C58096   7.488  11.440   3.818  1.2939  0.4334 -0.7992
  431MOL0     C58097   7.505  11.511   3.703  0.4261 -1.3196  0.1208
  431MOL0     O58098   7.407  11.442   3.382  0.7187 -0.0135  0.4524
  431MOL0     C58099   7.453  11.619   3.158 -0.2108  0.4701 -0.5730
  431MOL0     C58100   7.473  11.670   3.037  0.0366  0.5008  0.0591
  431MOL0     N58101   7.261  11.530   2.281  0.4113 -0.0779 -0.8220
  431MOL0     N58102   7.143  11.471   2.291  0.0974  0.4064  0.7095
  431MOL0     C58103   6.915  11.217   1.450  0.1984  0.9320  0.7136
  431MOL0     C58104   7.002  11.301   1.379 -0.3560  0.2355 -0.4345
  431MOL0     C58105   7.257  11.611   1.189  0.0566 -0.0506  0.3509
  431MOL0     C58106   7.197  11.674   1.088 -0.6031 -0.2398 -0.0797
  431MOL0     C58107   7.262  11.743   0.993  0.0064 -0.6650  0.1519
  431MOL0     C58108   7.399  11.759   0.996 -0.4853 -0.2129 -0.9809
  431MOL0     O58109   7.448  11.844   0.901  0.0394 -0.1759  0.0171
  431MOL0     C58110   7.587  11.823   0.866 -0.1826  0.0748  1.5396
  431MOL0     C58111   7.585  11.802   0.715  0.8668  0.5885  0.2633
  431MOL0     C58112   7.549  11.912   0.615  0.0596 -0.3703  1.1080
  431MOL0     C58113   7.420  11.992   0.627 -0.3064  0.2026  0.4505
  431MOL0     C58114   7.306  11.904   0.599  0.0380 -0.6393 -0.8131
  431MOL0     C58115   7.210  11.825   0.583  0.4996 -0.8065 -0.0538
  431MOL0     C58116   7.468  11.703   1.102 -0.4237  0.8070 -0.1373
  431MOL0     C58117   7.395  11.623   1.194  0.1667  0.1041 -0.2439
  431MOL0     H58118   6.806  11.557   1.322  0.6045 -0.5226 -0.2008
  431MOL0     H58119   6.634  11.416   1.446 -0.9150  0.1141  0.2571
  431MOL0     H58120   6.748  11.318   1.701  2.4738  0.3214 -1.7363
  431MOL0     H58121   6.643  11.185   1.752  1.0860 -0.0660  2.2209
  431MOL0     H58122   6.849  11.035   1.717  1.9745  0.4835 -0.4705
  431MOL0     H58123   6.949  11.187   1.749  0.2646  1.0976  1.2978
  431MOL0     H58124   6.756  11.174   1.952 -1.3191 -2.2695 -1.3808
  431MOL0     H58125   6.792  11.011   1.942  1.4503  0.6856  2.2523
  431MOL0     H58126   7.049  11.042   1.935  0.6850  0.0724 -0.8446
  431MOL0     H58127   7.030  11.215   1.943 -0.1715  0.2397  1.6539
  431MOL0     H58128   6.904  11.200   2.147  1.3181  1.0821 -1.4586
  431MOL0     H58129   6.907  11.022   2.152 -1.1343  1.6828  0.8211
  431MOL0     H58130   7.154  11.026   2.183 -1.5687 -0.7168  0.0614
  431MOL0     H58131   7.153  11.200   2.160 -2.2882  1.5990 -0.5250
  431MOL0     H58132   6.998  11.053   2.379  0.3591 -0.0107 -1.1968
  431MOL0     H58133   7.166  11.077   2.381 -1.2404 -0.7065  1.5132
  431MOL0     H58134   7.029  11.258   2.504 -0.7425  2.0572  0.4498
  431MOL0     H58135   6.962  11.314   2.359 -3.1448 -0.3033  7.0277
  431MOL0     H58136   7.317  11.305   2.509 -4.6014 -0.5949  2.7970
  431MOL0     H58137   7.542  11.456   2.460 -2.4344 -1.3109  0.6270
  431MOL0     H58138   7.525  11.577   2.324 -2.1436  5.4595  0.1559
  431MOL0     H58139   7.457  11.753   2.481  4.1341  0.3797 -3.3984
  431MOL0     H58140   7.606  11.663   2.531  0.5553 -0.9094 -3.2280
  431MOL0     H58141   7.443  11.522   2.688 -3.7655 -0.9077 -1.4204
  431MOL0     H58142   7.326  11.641   2.669 -1.3873 -3.5846  0.9629
  431MOL0     H58143   7.441  11.777   2.818 -1.5853 -1.0949  0.3163
  431MOL0     H58144   7.556  11.804   2.697 -0.3031 -3.1966 -5.1059
  431MOL0     H58145   7.784  11.561   2.995  0.1436 -2.0699  2.0189
  431MOL0     H58146   7.725  11.399   3.314  0.6618 -0.2380  0.0263
  431MOL0     H58147   7.822  11.375   3.179  1.9558 -0.6908  1.6705
  431MOL0     H58148   7.854  11.522   3.280 -1.0196 -0.2201  0.3376
  431MOL0     H58149   7.652  11.279   3.497 -0.5161 -2.6995  0.5268
  431MOL0     H58150   7.631  11.141   3.700  1.6193  0.1881 -1.9965
  431MOL0     H58151   7.434  11.336   4.080 -0.6741 -2.3252  0.8089
  431MOL0     H58152   7.522  11.205   4.139 -2.6827 -1.1708 -1.4876
  431MOL0     H58153   7.743  11.307   4.117  1.4255  1.8728  0.1867
  431MOL0     H58154   7.677  11.427   4.018  3.0201 -2.6315  0.3456
  431MOL0     H58155   7.620  11.386   4.307 -0.1168 -1.2248 -1.0720
  431MOL0     H58156   7.521  11.504   4.224  0.6745  1.1705  1.6578
  431MOL0     H58157   7.811  11.525   4.280 -0.4994 -1.1642 -2.1496
  431MOL0     H58158   7.741  11.615   4.140 -1.8991 -1.9996 -1.1054
  431MOL0     H58159   7.596  11.609   4.408 -2.9162  2.4347 -0.7320
  431MOL0     H58160   7.592  11.731   4.275  0.1905  0.3099 -0.8235
  431MOL0     H58161   7.740  11.757   4.513  0.5844 -0.8923  0.5652
  431MOL0     H58162   7.859  11.705   4.394 -0.0570 -0.7300 -0.1675
  431MOL0     H58163   7.728  11.897   4.244 -5.0344  0.2390  1.8174
  431MOL0     H58164   7.858  11.949   4.343 -1.8539  3.3911  2.4351
  431MOL0     H58165   7.674  12.106   4.393  3.1487 -0.2606 -2.0478
  431MOL0     H58166   7.699  12.002   4.527  0.8792 -0.5408 -1.2146
  431MOL0     H58167   7.441  11.472   3.910 -0.1624  0.0618 -1.3907
  431MOL0     H58168   7.466  11.612   3.696  0.8248 -1.2473 -1.1754
  431MOL0     H58169   7.347  11.630   3.178 -0.1558  1.7036 -0.9094
  431MOL0     H58170   7.387  11.728   3.004  0.4551  1.0637 -0.0519
  431MOL0     H58171   6.939  11.113   1.470 -1.7878  0.4522  0.7849
  431MOL0     H58172   7.097  11.254   1.356  0.0935 -0.2987  2.1759
  431MOL0     H58173   7.089  11.668   1.084 -0.5052 -3.3368 -1.1463
  431MOL0     H58174   7.203  11.785   0.913 -0.2341 -0.4256  0.4532
  431MOL0     H58175   7.654  11.908   0.879  0.1779 -0.3875  2.8227
  431MOL0     H58176   7.638  11.738   0.911  2.3359  1.0896  0.8067
  431MOL0     H58177   7.523  11.713   0.695  3.1749 -1.0190 -0.1047
  431MOL0     H58178   7.682  11.773   0.674  0.0419  1.6137 -2.6823
  431MOL0     H58179   7.563  11.874   0.513  3.4950 -1.9227  2.0014
  431MOL0     H58180   7.632  11.984   0.616 -0.2945  0.1296 -0.7941
  431MOL0     H58181   7.416  12.071   0.552  3.6335  0.4533  0.2860
  431MOL0     H58182   7.408  12.025   0.731 -3.0652 -1.0629  0.6271
  431MOL0     H58183   7.127  11.763   0.557  1.2913 -1.0587 -2.1510
  431MOL0     H58184   7.568  11.729   1.134  0.5050  1.1431 -3.0535
  431MOL0     H58185   7.447  11.584   1.281  2.4100 -1.0258 -1.9586
  432MOL0     O58186   2.571   3.390   0.107 -0.3588 -0.2606  0.0298
  432MOL0     C58187   2.617   3.473   0.028  0.1060 -0.6504 -0.7403
  432MOL0     O58188   2.552   3.583  -0.023  0.4269 -1.0280  0.6811
  432MOL0     C58189   2.414   3.602  -0.002 -0.0983 -0.5766 -0.5461
  432MOL0     C58190   2.327   3.495   0.004  0.5730 -0.0443  0.0641
  432MOL0     C58191   2.193   3.525   0.030  0.1199 -0.0008 -0.1633
  432MOL0     C58192   2.140   3.654   0.037 -0.3913 -0.5567 -0.4101
  432MOL0     O58193   2.001   3.672   0.060  0.1362 -0.6377 -1.0240
  432MOL0     C58194   1.979   3.703   0.203 -0.0691  0.7693 -0.2536
  432MOL0     C58195   1.843   3.634   0.226 -0.2789  0.5958 -0.3987
  432MOL0     C58196   1.725   3.687   0.137 -0.2429  0.1600 -0.0957
  432MOL0     C58197   1.608   3.590   0.130 -0.6850 -0.2781 -0.2103
  432MOL0     C58198   1.622   3.445   0.091 -0.3044  0.3761 -0.2166
  432MOL0     C58199   1.495   3.396   0.017  0.4057 -0.4463 -0.0424
  432MOL0     C58200   1.516   3.257  -0.026 -0.1919 -0.1256  0.2452
  432MOL0     C58201   1.383   3.192  -0.069  0.3042  0.2624 -0.5921
  432MOL0     N58202   1.347   3.205  -0.210 -0.8866 -0.1191 -0.4211
  432MOL0     C58203   1.396   3.137  -0.313 -1.0664 -0.2373  0.9315
  432MOL0     C58204   1.309   3.167  -0.420  0.7024 -0.3955 -0.3770
  432MOL0     C58205   1.341   3.123  -0.563  0.9848  0.5431  0.7907
  432MOL0     C58206   1.452   3.203  -0.626  0.1823 -0.5314 -0.1514
  432MOL0     C58207   1.458   3.167  -0.775 -0.0133 -0.4430  0.1342
  432MOL0     C58208   1.455   3.017  -0.810  0.4327 -0.5976  0.0228
  432MOL0     O58209   1.565   2.932  -0.769  0.1210 -0.5896  0.5443
  432MOL0     C58210   1.608   2.843  -0.862 -0.3914 -0.5581 -0.2219
  432MOL0     C58211   1.531   2.802  -0.972 -0.0297 -0.7269 -0.3801
  432MOL0     C58212   1.589   2.708  -1.063 -0.0576 -0.2100 -0.7223
  432MOL0     C58213   1.502   2.681  -1.186  0.9225 -0.2543  0.5783
  432MOL0     C58214   1.709   2.638  -1.030 -0.3909  0.0715  0.8251
  432MOL0     C58215   1.754   2.514  -1.102  0.0838  0.1851 -0.0284
  432MOL0     O58216   1.863   2.507  -1.182 -1.3621  0.5165 -0.2403
  432MOL0     C58217   1.964   2.607  -1.169  0.2580 -0.9204  0.4549
  432MOL0     C58218   1.939   2.714  -1.259 -0.5399  0.0756 -1.1167
  432MOL0     C58219   2.018   2.826  -1.245  0.6172 -0.5414  0.0420
  432MOL0     C58220   2.140   2.835  -1.170 -0.2213  0.0488  0.8162
  432MOL0     O58221   2.215   2.947  -1.163  0.3739  0.8758  0.5230
  432MOL0     C58222   2.239   3.030  -1.282 -1.1446 -0.1475  0.4027
  432MOL0     C58223   2.330   3.144  -1.248  0.4084  0.3466  0.4577
  432MOL0     C58224   2.262   3.256  -1.165 -0.5796 -0.2516  0.1897
  432MOL0     C58225   2.317   3.388  -1.186  0.3758 -0.2904 -0.5362
  432MOL0     C58226   2.258   3.484  -1.074 -0.0446 -0.5442  0.0636
  432MOL0     C58227   2.264   3.630  -1.108 -0.6235  0.8199  0.0353
  432MOL0     C58228   2.236   3.718  -0.979  0.2917  0.1826  0.6713
  432MOL0     C58229   2.360   3.724  -0.886 -0.5039  0.0062  0.1413
  432MOL0    Cl58230   2.510   3.807  -0.958  0.3325  0.4620  0.0553
  432MOL0     C58231   2.164   2.724  -1.086 -0.0401  0.2603  0.1339
  432MOL0     C58232   2.077   2.606  -1.079 -0.3965 -0.9070  0.1687
  432MOL0     O58233   1.671   2.428  -1.092  0.1995  0.3081  0.0150
  432MOL0     C58234   1.786   2.688  -0.922 -0.8635 -0.0799 -0.0359
  432MOL0     C58235   1.738   2.801  -0.844  0.3878  0.4031 -0.7835
  432MOL0     N58236   1.215   3.263  -0.370 -0.5221  0.2658  0.3534
  432MOL0     N58237   1.239   3.282  -0.245  0.0045  0.3097 -0.6897
  432MOL0     C58238   2.227   3.763   0.020 -0.3293 -0.2059  0.6649
  432MOL0     C58239   2.364   3.734   0.018  0.3400 -0.3320 -0.0739
  432MOL0     C58240   2.756   3.463  -0.036  0.2338  0.1746 -0.0770
  432MOL0     C58241   2.819   3.580  -0.076 -1.0936  0.0317 -0.3392
  432MOL0     C58242   2.950   3.568  -0.133 -0.3376  0.4859  1.4453
  432MOL0     C58243   3.012   3.440  -0.171  0.7026  0.2042 -0.0300
  432MOL0     O58244   3.137   3.420  -0.227 -0.7852  0.0086  0.0600
  432MOL0     C58245   3.194   3.532  -0.293 -0.7675  0.1124  0.1472
  432MOL0     C58246   3.280   3.613  -0.199 -0.3714 -0.5909 -0.7330
  432MOL0     C58247   3.397   3.547  -0.136  0.5432 -0.1268  0.0667
  432MOL0     C58248   3.509   3.532  -0.238  0.1025  0.1356 -0.2166
  432MOL0     C58249   3.644   3.570  -0.196 -0.3432 -1.1478  1.3783
  432MOL0     C58250   3.748   3.617  -0.156  0.5162 -0.3082  0.4234
  432MOL0     C58251   2.941   3.327  -0.129 -0.3603 -0.4935 -0.2435
  432MOL0     C58252   2.816   3.339  -0.061 -0.0872  0.7193 -0.0924
  432MOL0     H58253   2.355   3.390   0.008  0.3719 -0.1249 -0.5523
  432MOL0     H58254   2.116   3.450   0.044 -1.5200  1.6580  0.0820
  432MOL0     H58255   2.049   3.669   0.280  0.6909  0.0831 -1.2200
  432MOL0     H58256   1.971   3.810   0.224 -0.9216  0.5356  0.7026
  432MOL0     H58257   1.857   3.528   0.204 -2.2649  0.2060  0.0770
  432MOL0     H58258   1.806   3.627   0.328 -1.6441  0.8053 -0.8599
  432MOL0     H58259   1.694   3.786   0.172  1.5475  1.6110 -2.3680
  432MOL0     H58260   1.753   3.708   0.034 -0.3971  1.5895  0.1262
  432MOL0     H58261   1.553   3.582   0.225 -1.1545  0.0129 -0.4555
  432MOL0     H58262   1.540   3.640   0.060 -1.1057 -1.7292 -0.8923
  432MOL0     H58263   1.713   3.430   0.032 -0.2987 -2.2378  0.3745
  432MOL0     H58264   1.628   3.394   0.187  1.8364  1.4793  0.2967
  432MOL0     H58265   1.408   3.410   0.081  0.6251  0.5889  0.0376
  432MOL0     H58266   1.501   3.460  -0.071  3.8489 -1.5566 -0.7909
  432MOL0     H58267   1.592   3.261  -0.104  1.0580  2.1512  1.4650
  432MOL0     H58268   1.555   3.202   0.060  2.1290  2.2397  0.8314
  432MOL0     H58269   1.304   3.228  -0.003  1.0474  1.1585 -0.1644
  432MOL0     H58270   1.384   3.084  -0.050 -1.7036  0.2085 -0.5453
  432MOL0     H58271   1.471   3.060  -0.302  1.5231  2.2999  2.4634
  432MOL0     H58272   1.370   3.018  -0.558  2.2524  0.6802 -1.8064
  432MOL0     H58273   1.256   3.128  -0.632  1.6653  2.2724  0.0206
  432MOL0     H58274   1.550   3.179  -0.583  0.1662  1.0082  0.8206
  432MOL0     H58275   1.437   3.311  -0.617 -0.0409 -0.5337 -0.4905
  432MOL0     H58276   1.552   3.201  -0.820  1.9346 -1.6960  2.9806
  432MOL0     H58277   1.368   3.212  -0.817  0.7744  1.3897  0.3023
  432MOL0     H58278   1.451   3.027  -0.919  1.7296  0.6035  0.0521
  432MOL0     H58279   1.364   2.969  -0.773 -0.4017 -0.0336 -1.2460
  432MOL0     H58280   1.430   2.822  -1.006  0.3709  0.9765 -0.6394
  432MOL0     H58281   1.437   2.766  -1.206 -1.4154 -1.8083  1.2631
  432MOL0     H58282   1.561   2.669  -1.278 -0.8728 -2.6335 -0.3534
  432MOL0     H58283   1.439   2.592  -1.184  1.1534 -0.5044 -1.3005
  432MOL0     H58284   1.851   2.719  -1.323  1.5774  2.6988 -4.1205
  432MOL0     H58285   1.976   2.903  -1.307 -0.8650 -0.4521  1.1176
  432MOL0     H58286   2.293   2.976  -1.360 -0.7750 -1.4531  1.5097
  432MOL0     H58287   2.144   3.067  -1.322  0.6267  4.1922 -0.3226
  432MOL0     H58288   2.412   3.107  -1.186  0.4094  0.2227  0.3826
  432MOL0     H58289   2.375   3.182  -1.340  1.1408 -2.1435 -0.3022
  432MOL0     H58290   2.280   3.229  -1.061 -2.5678  2.0575  1.2284
  432MOL0     H58291   2.155   3.259  -1.188 -0.1508  1.1826 -2.0281
  432MOL0     H58292   2.423   3.398  -1.163  0.0923  1.6236  0.1266
  432MOL0     H58293   2.293   3.431  -1.283 -0.4937 -0.8293 -0.5811
  432MOL0     H58294   2.284   3.460  -0.971 -2.2383 -2.0568  0.3310
  432MOL0     H58295   2.149   3.479  -1.076 -0.3220  1.1396  3.5816
  432MOL0     H58296   2.362   3.655  -1.148  0.7099 -0.6315  2.1682
  432MOL0     H58297   2.181   3.647  -1.178  0.0604 -2.8411 -1.8905
  432MOL0     H58298   2.149   3.677  -0.927  1.5203 -1.7417  1.3453
  432MOL0     H58299   2.209   3.820  -1.008  0.6953 -0.1202 -0.8221
  432MOL0     H58300   2.376   3.621  -0.851 -1.4049 -0.9089 -1.9657
  432MOL0     H58301   2.344   3.761  -0.784  0.3019  0.6818  0.0312
  432MOL0     H58302   2.250   2.738  -1.022  2.7537 -1.2064 -2.9937
  432MOL0     H58303   2.088   2.533  -0.999 -1.0266 -1.0039  0.1733
  432MOL0     H58304   1.882   2.645  -0.897 -0.1452  0.5771 -1.5260
  432MOL0     H58305   1.809   2.847  -0.775 -0.6875 -1.9789  2.1441
  432MOL0     H58306   2.192   3.866   0.011 -1.2191 -0.5927 -0.4959
  432MOL0     H58307   2.435   3.816   0.028 -1.2275  0.9318  1.2442
  432MOL0     H58308   2.782   3.680  -0.059 -2.0015 -0.3762  0.1828
  432MOL0     H58309   3.001   3.661  -0.154  0.7869 -0.3410  0.3612
  432MOL0     H58310   3.258   3.493  -0.373 -4.0468  0.5324 -2.9845
  432MOL0     H58311   3.118   3.594  -0.343 -0.2428 -0.2992 -1.1970
  432MOL0     H58312   3.229   3.656  -0.113 -1.3670 -1.5105 -0.8475
  432MOL0     H58313   3.324   3.697  -0.254 -1.5651  0.7273  0.2428
  432MOL0     H58314   3.386   3.448  -0.092 -0.5746  1.5150  3.8747
  432MOL0     H58315   3.444   3.603  -0.054  1.8607  0.5759 -1.1290
  432MOL0     H58316   3.485   3.593  -0.326  0.8842 -2.4215 -2.3293
  432MOL0     H58317   3.517   3.426  -0.264  0.5398  0.0117  0.4005
  432MOL0     H58318   3.832   3.637  -0.093 -0.5216 -0.7590  1.9945
  432MOL0     H58319   2.990   3.232  -0.146  2.6178  1.3750 -3.1244
  432MOL0     H58320   2.760   3.251  -0.029  0.0291  0.3346 -0.9304
  433MOL0     O58321   0.105   9.951   3.352  0.0681  0.1775 -0.0984
  433MOL0     C58322   0.026   9.854   3.344  0.0602 -0.1018  0.2546
  433MOL0     O58323   0.057   9.716   3.379  0.1451  0.1854  0.0534
  433MOL0     C58324   0.164   9.691   3.458 -0.4847  1.2806 -0.3156
  433MOL0     C58325   0.201   9.750   3.576  0.1700 -0.8716 -0.0088
  433MOL0     C58326   0.304   9.697   3.659 -0.7891  0.0492  0.1539
  433MOL0     C58327   0.371   9.582   3.626  0.0576 -0.0752  0.4216
  433MOL0     O58328   0.467   9.529   3.711  0.5222 -0.4002  0.1235
  433MOL0     C58329   0.537   9.627   3.786 -0.8453  0.2939 -0.1072
  433MOL0     C58330   0.680   9.567   3.810 -0.2613 -0.2816 -0.6010
  433MOL0     C58331   0.757   9.617   3.932 -0.4220  0.4357 -0.0024
  433MOL0     C58332   0.815   9.761   3.929  0.8294 -0.1108 -0.0542
  433MOL0     C58333   0.925   9.778   4.029 -0.9684  0.1657  0.2197
  433MOL0     C58334   0.977   9.918   4.036 -0.2644  0.1498  1.1852
  433MOL0     C58335   1.091   9.923   4.141 -0.2682  0.8423  0.4317
  433MOL0     C58336   1.230   9.859   4.084  0.4941 -0.1212 -0.0718
  433MOL0     N58337   1.263   9.886   3.946 -0.0659  0.1693  0.0023
  433MOL0     C58338   1.329  10.000   3.902  0.2730 -0.8682 -0.8522
  433MOL0     C58339   1.340   9.979   3.771  0.1221  0.0310 -0.3061
  433MOL0     C58340   1.381  10.090   3.669  0.2008 -0.0353  0.0153
  433MOL0     C58341   1.525  10.102   3.629 -0.8381  1.1159 -0.4852
  433MOL0     C58342   1.569  10.207   3.537  0.7996 -0.6115 -0.1490
  433MOL0     C58343   1.558  10.340   3.601 -0.5947 -0.9715  0.5465
  433MOL0     O58344   1.622  10.344   3.730 -0.0598  0.4333 -0.1815
  433MOL0     C58345   1.586  10.452   3.805 -0.0766 -0.3420 -0.6369
  433MOL0     C58346   1.573  10.583   3.768 -0.2715  0.1612 -0.2983
  433MOL0     C58347   1.554  10.691   3.854 -0.5464 -0.3714  1.4027
  433MOL0     C58348   1.553  10.835   3.801  0.8833 -0.4276 -0.4485
  433MOL0     C58349   1.535  10.661   3.995 -0.7490 -0.3956  0.6681
  433MOL0     C58350   1.505  10.776   4.084 -0.4917 -0.4923  0.6824
  433MOL0     O58351   1.381  10.831   4.087 -0.3147 -0.4861 -0.3086
  433MOL0     C58352   1.332  10.916   4.184 -1.1756  0.2887  0.0016
  433MOL0     C58353   1.394  10.936   4.316  0.0426 -0.1224  0.8680
  433MOL0     C58354   1.330  11.014   4.403  0.7182  0.4346 -1.3403
  433MOL0     C58355   1.197  11.062   4.380 -0.5336 -1.5295  0.8308
  433MOL0     O58356   1.123  11.129   4.472 -0.6691 -1.1921 -0.0407
  433MOL0     C58357   1.156  11.108   4.608  0.8927  0.2218 -1.0861
  433MOL0     C58358   1.052  11.187   4.696  0.3635 -0.6699  0.8424
  433MOL0     C58359   0.906  11.170   4.646  0.6480  0.4262  0.0486
  433MOL0     C58360   0.846  11.025   4.642 -0.6541 -0.1964 -0.1679
  433MOL0     C58361   0.700  11.013   4.616 -0.0121  0.4338 -0.9844
  433MOL0     C58362   0.639  10.879   4.595  0.0783  0.4786  0.3507
  433MOL0     C58363   0.490  10.896   4.542  0.8734 -0.1347  0.6885
  433MOL0     C58364   0.461  10.843   4.397 -0.3053  0.2624 -0.3289
  433MOL0    Cl58365   0.546  10.956   4.297  0.5403 -0.6722 -0.4457
  433MOL0     C58366   1.141  11.044   4.254 -0.6063  0.8003 -0.1572
  433MOL0     C58367   1.211  10.969   4.158  0.2042  0.0689  1.0022
  433MOL0     O58368   1.607  10.807   4.155 -0.7299  1.0821 -0.1148
  433MOL0     C58369   1.538  10.530   4.037  0.0927  0.6336 -0.3283
  433MOL0     C58370   1.555  10.429   3.943 -0.4644 -0.2310  0.1159
  433MOL0     N58371   1.294   9.851   3.732 -0.4489  0.4293  0.2275
  433MOL0     N58372   1.234   9.800   3.834  0.2274 -0.3223 -0.9765
  433MOL0     C58373   0.336   9.516   3.503 -0.9781 -0.3924  0.0756
  433MOL0     C58374   0.224   9.561   3.434 -0.6236 -0.1046 -0.7011
  433MOL0     C58375  -0.088   9.876   3.260  1.0063  0.2720  0.8786
  433MOL0     C58376  -0.118  10.001   3.209  1.0333 -0.4267  0.0023
  433MOL0     C58377  -0.210  10.010   3.102 -0.2805  0.1553  0.0761
  433MOL0     C58378  -0.284   9.904   3.060  0.0362 -0.0179  0.7646
  433MOL0     O58379  -0.371   9.915   2.953  0.0361 -0.2689  0.6297
  433MOL0     C58380  -0.484   9.998   2.975 -0.8585 -1.1135  0.3248
  433MOL0     C58381  -0.620   9.931   2.950 -0.1273 -0.4657 -1.0273
  433MOL0     C58382  -0.616   9.871   2.808  0.4468 -0.2555 -0.7373
  433MOL0     C58383  -0.754   9.823   2.754  0.6003 -0.9290  0.6880
  433MOL0     C58384  -0.774   9.690   2.806 -1.2097  1.0783  0.8153
  433MOL0     C58385  -0.785   9.566   2.828 -0.0158  0.4791  0.9475
  433MOL0     C58386  -0.255   9.780   3.109 -0.6518 -0.2259 -0.0823
  433MOL0     C58387  -0.160   9.763   3.210 -0.0678 -0.5015  0.2260
  433MOL0     H58388   0.161   9.843   3.614  3.6958 -0.0933  2.1884
  433MOL0     H58389   0.331   9.762   3.742  0.3891  0.4899 -0.5468
  433MOL0     H58390   0.550   9.730   3.752 -1.8063  0.5459  0.2520
  433MOL0     H58391   0.493   9.631   3.886  0.5509  0.7062  0.5240
  433MOL0     H58392   0.693   9.459   3.799  0.3247 -0.0305 -3.0346
  433MOL0     H58393   0.743   9.600   3.726  0.2275  2.2431  0.6660
  433MOL0     H58394   0.703   9.607   4.026  2.1613 -1.2121  1.4196
  433MOL0     H58395   0.837   9.542   3.934 -2.7784 -2.6110 -3.9699
  433MOL0     H58396   0.853   9.800   3.834  0.4489  2.0694  0.6427
  433MOL0     H58397   0.736   9.834   3.946  2.5800  1.3749  2.2598
  433MOL0     H58398   0.891   9.745   4.127 -2.4873  0.6623 -0.1060
  433MOL0     H58399   1.017   9.723   4.005  0.6209  3.2154 -1.2999
  433MOL0     H58400   1.008   9.948   3.936 -0.4853  0.9582  1.3480
  433MOL0     H58401   0.886   9.976   4.056 -0.3729 -0.7950  3.8739
  433MOL0     H58402   1.100  10.030   4.161  0.4984  1.2317 -1.7176
  433MOL0     H58403   1.060   9.871   4.231  0.2909  1.1801  0.8266
  433MOL0     H58404   1.228   9.750   4.092  0.2690 -0.3137 -2.1392
  433MOL0     H58405   1.306   9.902   4.149 -1.1935  0.1135  1.8565
  433MOL0     H58406   1.380  10.081   3.952 -0.8929  0.1404 -1.2237
  433MOL0     H58407   1.311  10.092   3.585 -1.6966  1.9840  1.5262
  433MOL0     H58408   1.362  10.188   3.714  1.0721  0.2879 -0.2785
  433MOL0     H58409   1.554  10.009   3.578 -1.6935  0.0436  0.9013
  433MOL0     H58410   1.584  10.096   3.721  0.2973  2.4685 -1.0879
  433MOL0     H58411   1.521  10.208   3.439  1.9047  1.6726 -0.7552
  433MOL0     H58412   1.672  10.193   3.503 -0.1093  0.2638 -3.7444
  433MOL0     H58413   1.452  10.368   3.613 -0.6984 -1.7260  1.4984
  433MOL0     H58414   1.602  10.414   3.534 -3.3507 -1.2064 -1.7167
  433MOL0     H58415   1.595  10.595   3.663 -1.4480  1.5884 -0.4133
  433MOL0     H58416   1.627  10.888   3.863 -2.0441  0.0589  2.9721
  433MOL0     H58417   1.585  10.855   3.698  5.2540  2.5847  1.1839
  433MOL0     H58418   1.449  10.862   3.820  0.7236 -0.5962 -1.0693
  433MOL0     H58419   1.493  10.893   4.323 -1.6725 -5.6765 -2.6832
  433MOL0     H58420   1.379  11.031   4.498  3.2010  0.4191 -2.5358
  433MOL0     H58421   1.157  11.002   4.634  5.3185  0.2952 -0.1073
  433MOL0     H58422   1.255  11.140   4.644  0.4766 -1.2606  1.6895
  433MOL0     H58423   1.069  11.157   4.800 -2.9425  1.5158  2.1717
  433MOL0     H58424   1.086  11.289   4.678  2.4549 -1.5992 -0.9095
  433MOL0     H58425   0.894  11.207   4.544 -0.6529 -2.5143 -0.9858
  433MOL0     H58426   0.832  11.230   4.700 -0.8856 -3.0554  2.2511
  433MOL0     H58427   0.890  10.968   4.560 -2.4516 -4.0113  1.2569
  433MOL0     H58428   0.865  10.970   4.735  0.1761  2.5396  1.3881
  433MOL0     H58429   0.678  11.082   4.534  0.0707  1.1853 -0.3811
  433MOL0     H58430   0.653  11.052   4.707 -0.3573 -0.9386 -0.5385
  433MOL0     H58431   0.702  10.823   4.525 -0.1993  4.3275 -3.4123
  433MOL0     H58432   0.651  10.834   4.694  2.8047  3.5663  1.6144
  433MOL0     H58433   0.461  11.001   4.533  0.1903 -0.4461 -1.0033
  433MOL0     H58434   0.413  10.848   4.604  1.6025 -2.4027 -0.0528
  433MOL0     H58435   0.354  10.838   4.377 -0.7489  3.7268  0.5294
  433MOL0     H58436   0.513  10.750   4.372  1.6734  2.2125 -4.5171
  433MOL0     H58437   1.043  11.081   4.228 -1.1301  0.3792  1.1268
  433MOL0     H58438   1.167  10.960   4.059 -1.6115 -0.3654  1.8144
  433MOL0     H58439   1.514  10.500   4.139  1.4584  3.3107  0.8894
  433MOL0     H58440   1.538  10.330   3.983 -2.2104  0.8579  2.2458
  433MOL0     H58441   0.381   9.418   3.491  0.6114 -0.2452  3.6054
  433MOL0     H58442   0.196   9.490   3.357  1.5702 -2.5158  0.5512
  433MOL0     H58443  -0.070  10.090   3.247 -0.0714  0.7513 -1.2602
  433MOL0     H58444  -0.214  10.102   3.044 -0.5438 -0.4697 -0.9275
  433MOL0     H58445  -0.485  10.032   3.079  1.0033  2.2549 -0.5928
  433MOL0     H58446  -0.478  10.080   2.903  2.1838 -0.7587  0.8300
  433MOL0     H58447  -0.685  10.018   2.964 -0.0862 -0.3554 -1.5147
  433MOL0     H58448  -0.647   9.860   3.029  0.1488 -1.3080 -1.6779
  433MOL0     H58449  -0.554   9.782   2.807 -0.8379 -1.2711  1.5732
  433MOL0     H58450  -0.571   9.941   2.737  1.6576 -0.2318  0.0284
  433MOL0     H58451  -0.737   9.812   2.646  0.4425  2.3350  0.2236
  433MOL0     H58452  -0.834   9.897   2.765  1.7909  0.0859  3.3810
  433MOL0     H58453  -0.811   9.462   2.834 -0.9906  0.6418 -0.0334
  433MOL0     H58454  -0.305   9.697   3.060  1.0557 -1.7805  0.6585
  433MOL0     H58455  -0.133   9.664   3.245 -1.3215 -0.1315  2.4440
  434MOL0     O58456   5.236   0.374   8.902  0.3061 -0.4666  0.6114
  434MOL0     C58457   5.148   0.340   8.983 -0.0760 -0.4028 -0.4962
  434MOL0     O58458   5.037   0.262   8.956 -0.1077  0.2808 -0.0609
  434MOL0     C58459   5.029   0.212   8.832  0.5636  1.0455  0.0870
  434MOL0     C58460   5.015   0.073   8.824  0.0660 -0.1624  0.0799
  434MOL0     C58461   4.994   0.020   8.694 -0.3412  0.1946  0.4307
  434MOL0     C58462   4.974   0.102   8.582 -0.2037 -0.4117 -0.6196
  434MOL0     O58463   4.933   0.051   8.466 -0.4278  0.9913 -0.4835
  434MOL0     C58464   4.839   0.126   8.397 -0.2118 -0.7351  0.1697
  434MOL0     C58465   4.762   0.036   8.309 -0.4747 -0.2137 -0.2183
  434MOL0     C58466   4.654   0.116   8.222  0.0035 -0.0461 -0.1382
  434MOL0     C58467   4.542   0.188   8.299 -0.2210 -0.5860 -0.3031
  434MOL0     C58468   4.417   0.213   8.226  0.1536 -1.2902 -0.1376
  434MOL0     C58469   4.435   0.309   8.104  0.1651  0.2559  0.7708
  434MOL0     C58470   4.302   0.311   8.022 -0.4839  0.0028 -0.4406
  434MOL0     C58471   4.161   0.298   8.086 -0.2947  0.2074 -0.6420
  434MOL0     N58472   4.120   0.420   8.151  0.8816 -0.1317 -0.3537
  434MOL0     C58473   4.077   0.440   8.285 -0.8895 -0.3681  0.3569
  434MOL0     C58474   4.013   0.562   8.290 -0.7603 -0.2170 -0.7716
  434MOL0     C58475   3.933   0.627   8.398 -0.0491 -0.3291 -0.0775
  434MOL0     C58476   3.783   0.579   8.395 -0.4690  0.4446  0.0014
  434MOL0     C58477   3.707   0.659   8.287  1.3549  0.0544 -0.2729
  434MOL0     C58478   3.564   0.609   8.281 -0.2380  1.0903  0.6390
  434MOL0     O58479   3.483   0.726   8.268  1.2640  0.5396  0.4476
  434MOL0     C58480   3.369   0.725   8.194 -0.2835 -0.6449  0.3444
  434MOL0     C58481   3.334   0.838   8.128 -0.1232  0.1945  1.2508
  434MOL0     C58482   3.211   0.854   8.054  0.3807 -0.7981  0.3710
  434MOL0     C58483   3.179   0.986   7.991 -0.2195 -0.8055  1.2119
  434MOL0     C58484   3.128   0.740   8.044  0.4066 -0.2074  1.2270
  434MOL0     C58485   2.997   0.738   7.961  0.2998 -0.3107 -1.1183
  434MOL0     O58486   2.912   0.645   8.005  0.3136  0.2199  0.3393
  434MOL0     C58487   2.801   0.602   7.929 -0.5546 -0.3451 -0.6318
  434MOL0     C58488   2.779   0.624   7.791 -0.1393  0.8423 -0.3807
  434MOL0     C58489   2.667   0.576   7.723 -0.3635  0.1520  0.0273
  434MOL0     C58490   2.555   0.536   7.807  0.5127  0.7286  0.6104
  434MOL0     O58491   2.439   0.483   7.750 -0.1281  0.7619 -0.3520
  434MOL0     C58492   2.315   0.538   7.791 -0.3204 -0.5039  0.9350
  434MOL0     C58493   2.255   0.602   7.671 -0.9724  0.8101 -0.2359
  434MOL0     C58494   2.348   0.724   7.616 -1.0219 -0.3386  0.2368
  434MOL0     C58495   2.292   0.794   7.493  0.6114 -1.2042 -0.7667
  434MOL0     C58496   2.339   0.730   7.364  1.2242 -0.4646  0.6929
  434MOL0     C58497   2.289   0.840   7.257 -0.8863  0.0894  0.2236
  434MOL0     C58498   2.266   0.757   7.125 -0.1235 -0.3270 -0.5145
  434MOL0     C58499   2.168   0.841   7.043  0.4698  0.1621  1.3046
  434MOL0    Cl58500   2.218   1.013   7.035  0.2167  0.2297  0.4059
  434MOL0     C58501   2.573   0.523   7.952  0.1824 -0.2753 -0.2642
  434MOL0     C58502   2.693   0.553   8.008 -0.4695  0.0060  0.0784
  434MOL0     O58503   2.975   0.822   7.871  1.1914 -0.1599 -0.1404
  434MOL0     C58504   3.159   0.627   8.121  0.0107 -0.3090  0.5597
  434MOL0     C58505   3.282   0.616   8.187 -0.4266 -1.1586 -0.2380
  434MOL0     N58506   4.025   0.622   8.170 -0.8244  0.0005 -0.5367
  434MOL0     N58507   4.086   0.537   8.089  0.0418 -0.8473 -0.5286
  434MOL0     C58508   4.995   0.238   8.595  0.0245 -0.3506  0.4119
  434MOL0     C58509   5.010   0.291   8.721 -0.0758  0.1651  0.8720
  434MOL0     C58510   5.164   0.392   9.118 -0.3762  0.3027 -1.1735
  434MOL0     C58511   5.255   0.501   9.142 -0.8753  0.7685 -0.8492
  434MOL0     C58512   5.266   0.538   9.276 -1.1178 -0.4189 -0.7374
  434MOL0     C58513   5.192   0.483   9.383  0.5637  0.0178 -0.2639
  434MOL0     O58514   5.201   0.543   9.505 -0.0946  0.1943  0.2890
  434MOL0     C58515   5.146   0.669   9.502 -0.5641 -0.8260 -0.0285
  434MOL0     C58516   5.077   0.698   9.632 -0.0638  0.5858  0.0364
  434MOL0     C58517   5.015   0.832   9.660  0.0078 -0.4596  0.6111
  434MOL0     C58518   4.927   0.882   9.541  0.1100 -0.5765 -0.1240
  434MOL0     C58519   4.810   0.799   9.539  0.1163  0.7169 -0.3045
  434MOL0     C58520   4.714   0.730   9.550  0.6716  1.2950 -0.2136
  434MOL0     C58521   5.107   0.373   9.357  0.2750 -0.0488  0.0238
  434MOL0     C58522   5.080   0.338   9.220 -0.1808 -1.0079  0.4885
  434MOL0     H58523   5.014  -0.007   8.898  0.3148 -0.8822 -0.6654
  434MOL0     H58524   4.985  -0.088   8.683 -3.3329  0.5804 -2.0480
  434MOL0     H58525   4.766   0.169   8.466 -2.0463  1.4509 -2.8492
  434MOL0     H58526   4.899   0.200   8.343  0.2955  0.1647  1.9020
  434MOL0     H58527   4.850   0.008   8.250  0.3653  2.1387 -0.2238
  434MOL0     H58528   4.725  -0.055   8.357  1.6150 -1.4999 -0.9153
  434MOL0     H58529   4.707   0.190   8.162  0.1078  0.3845  0.4757
  434MOL0     H58530   4.613   0.042   8.153  4.2181  0.0038 -3.0490
  434MOL0     H58531   4.521   0.129   8.388 -3.0431 -1.1979 -1.2822
  434MOL0     H58532   4.582   0.281   8.339  0.0658 -0.0407 -1.7734
  434MOL0     H58533   4.377   0.118   8.189  1.5596 -1.9624  0.0132
  434MOL0     H58534   4.350   0.258   8.299  2.3752 -0.1560  1.2953
  434MOL0     H58535   4.458   0.412   8.135  2.7287  0.2044 -0.6480
  434MOL0     H58536   4.511   0.274   8.034  0.0302 -3.3650  2.2384
  434MOL0     H58537   4.307   0.391   7.948 -2.2765 -0.9954 -1.7196
  434MOL0     H58538   4.315   0.217   7.967  0.2155 -0.4714  0.5047
  434MOL0     H58539   4.167   0.215   8.157 -2.3027  0.7384  0.2148
  434MOL0     H58540   4.076   0.272   8.022 -1.7417  0.2523  1.1632
  434MOL0     H58541   4.068   0.374   8.371  2.5279 -1.5759 -0.0949
  434MOL0     H58542   3.975   0.597   8.495 -1.8660 -1.9568  0.2744
  434MOL0     H58543   3.943   0.735   8.385  3.7774 -0.4760  0.6339
  434MOL0     H58544   3.725   0.586   8.488 -2.5437  0.6499 -1.2538
  434MOL0     H58545   3.791   0.472   8.377 -4.6389  0.0715 -0.5030
  434MOL0     H58546   3.748   0.647   8.187  2.5662 -0.3243  0.2551
  434MOL0     H58547   3.710   0.762   8.325 -1.7011 -0.3859  1.5706
  434MOL0     H58548   3.528   0.557   8.371  1.1646 -0.4263  0.3728
  434MOL0     H58549   3.561   0.531   8.204 -0.6822  2.2001 -0.5036
  434MOL0     H58550   3.409   0.916   8.135  0.2093 -0.1900  2.1043
  434MOL0     H58551   3.207   0.977   7.885 -1.2618  2.6432  0.4946
  434MOL0     H58552   3.078   1.019   8.016  0.8706  4.9848 -0.4120
  434MOL0     H58553   3.244   1.069   8.023 -2.7777  1.5695  0.6734
  434MOL0     H58554   2.860   0.668   7.733 -0.7944  2.4647 -0.1266
  434MOL0     H58555   2.658   0.566   7.615 -2.5607  1.4288  0.0293
  434MOL0     H58556   2.244   0.462   7.826 -5.4708  3.0134 -0.7259
  434MOL0     H58557   2.325   0.613   7.869 -0.3601 -1.6498  2.0752
  434MOL0     H58558   2.244   0.529   7.589 -3.2305 -0.3867  1.0416
  434MOL0     H58559   2.155   0.635   7.700 -1.2072 -1.3141  1.6747
  434MOL0     H58560   2.448   0.690   7.587 -1.5833  0.8004 -3.5538
  434MOL0     H58561   2.341   0.791   7.702 -3.4639  0.1529 -0.2749
  434MOL0     H58562   2.184   0.807   7.506  0.8122 -0.4103  0.1788
  434MOL0     H58563   2.322   0.899   7.500  0.9156 -1.3907  1.1774
  434MOL0     H58564   2.287   0.635   7.349  1.6388 -0.2425 -3.1540
  434MOL0     H58565   2.448   0.725   7.365  1.2511  0.0369  1.0795
  434MOL0     H58566   2.201   0.898   7.288 -0.6614  0.2389  0.5951
  434MOL0     H58567   2.371   0.910   7.236  0.5408 -1.9886 -1.5054
  434MOL0     H58568   2.223   0.658   7.147  3.2511 -1.9416 -0.4780
  434MOL0     H58569   2.357   0.736   7.067 -0.2019  1.8276 -1.5124
  434MOL0     H58570   2.070   0.842   7.090  0.2208  1.2148  0.7901
  434MOL0     H58571   2.171   0.803   6.940 -1.2493 -1.5657  1.8334
  434MOL0     H58572   2.491   0.486   8.012  0.9452  1.8592  2.3100
  434MOL0     H58573   2.714   0.544   8.115  0.7350 -0.3708 -0.1786
  434MOL0     H58574   3.103   0.535   8.124 -0.1969 -0.2175 -0.2035
  434MOL0     H58575   3.304   0.519   8.229 -1.8063 -1.3586  0.0587
  434MOL0     H58576   4.980   0.300   8.506 -2.3754 -1.4643 -0.0400
  434MOL0     H58577   5.021   0.397   8.739 -0.5660  0.2428  0.7349
  434MOL0     H58578   5.308   0.547   9.060  1.7534  1.0776  0.8852
  434MOL0     H58579   5.325   0.626   9.298 -1.3007 -0.8668  1.9165
  434MOL0     H58580   5.225   0.745   9.491 -0.1405 -0.4467  3.9959
  434MOL0     H58581   5.082   0.676   9.414 -0.0602 -1.7052 -0.4738
  434MOL0     H58582   5.157   0.672   9.702  0.4559 -0.2265 -0.8388
  434MOL0     H58583   5.009   0.614   9.649  1.3228 -0.1652  2.2264
  434MOL0     H58584   5.094   0.906   9.678  1.5311 -2.4332  2.6655
  434MOL0     H58585   4.955   0.826   9.751  0.7206  0.1729  1.1349
  434MOL0     H58586   4.971   0.881   9.441  1.0271  1.2498  0.2168
  434MOL0     H58587   4.902   0.987   9.558  0.3598 -0.5326 -0.0235
  434MOL0     H58588   4.628   0.666   9.554  1.0330  0.4346 -3.1422
  434MOL0     H58589   5.052   0.332   9.441  0.2668 -1.1364 -0.4972
  434MOL0     H58590   5.011   0.254   9.211 -1.1924 -0.0900 -0.4336
  435MOL0     O58591   1.761   7.238   6.100  0.1787  0.2274 -0.4642
  435MOL0     C58592   1.668   7.308   6.148 -0.2573 -0.3977  1.0887
  435MOL0     O58593   1.535   7.268   6.158 -1.6025 -0.3016 -0.5763
  435MOL0     C58594   1.492   7.146   6.105  0.0936 -0.3602  1.0662
  435MOL0     C58595   1.497   7.030   6.188  1.2274 -0.1525  0.1563
  435MOL0     C58596   1.453   6.904   6.150  0.4339 -0.0441  0.4201
  435MOL0     C58597   1.410   6.892   6.018  0.5714  0.1098 -0.1983
  435MOL0     O58598   1.373   6.774   5.957  0.3130  0.3091 -0.2773
  435MOL0     C58599   1.234   6.752   5.973  0.2981  0.1956 -0.2685
  435MOL0     C58600   1.191   6.691   6.106 -1.0989  0.3638 -0.1401
  435MOL0     C58601   1.046   6.644   6.119  0.7982  1.1786 -0.3508
  435MOL0     C58602   0.995   6.666   6.264  0.6500 -0.0248 -0.3066
  435MOL0     C58603   0.852   6.601   6.297 -0.3234  1.1685  0.5367
  435MOL0     C58604   0.773   6.655   6.405 -0.3120  0.6619 -0.1133
  435MOL0     C58605   0.834   6.630   6.537 -0.3353 -0.3101 -0.6823
  435MOL0     C58606   0.743   6.670   6.652 -0.1094  0.1772 -0.1338
  435MOL0     N58607   0.818   6.691   6.781 -0.4800 -0.9729 -0.5094
  435MOL0     C58608   0.902   6.605   6.833 -0.6987 -0.2644 -0.3200
  435MOL0     C58609   0.983   6.668   6.931  0.5850 -0.2295 -0.3357
  435MOL0     C58610   1.083   6.592   7.005  0.0032  0.0062  0.2882
  435MOL0     C58611   1.094   6.605   7.166  0.0591 -0.1434 -0.2742
  435MOL0     C58612   0.978   6.531   7.248  0.5792 -0.4453  0.4970
  435MOL0     C58613   1.019   6.504   7.386 -0.6521  0.2755  1.0208
  435MOL0     O58614   0.914   6.440   7.452  1.1623  0.3212 -0.8405
  435MOL0     C58615   0.933   6.425   7.588  0.3870 -0.5263  0.4450
  435MOL0     C58616   0.848   6.326   7.650  1.3180 -0.6419  0.3345
  435MOL0     C58617   0.852   6.299   7.785  0.2141  0.3621 -0.6424
  435MOL0     C58618   0.751   6.210   7.852 -1.6196  0.7122  0.7013
  435MOL0     C58619   0.936   6.372   7.864  0.0185  0.2945 -0.8109
  435MOL0     C58620   0.940   6.367   8.012 -0.8205  0.6357 -0.2166
  435MOL0     O58621   1.060   6.352   8.068  0.6179 -0.5310  0.4889
  435MOL0     C58622   1.077   6.399   8.201 -1.4224 -1.0076  0.8558
  435MOL0     C58623   1.120   6.307   8.296  0.2878  0.9685  0.0988
  435MOL0     C58624   1.140   6.346   8.429  0.3694  0.4015 -0.3777
  435MOL0     C58625   1.122   6.471   8.476 -0.1884  0.3951 -1.2783
  435MOL0     O58626   1.156   6.507   8.604 -0.2849  0.2150  0.8073
  435MOL0     C58627   1.052   6.570   8.684 -0.0470  0.0003 -0.0817
  435MOL0     C58628   1.067   6.525   8.827 -0.8187 -0.4769  1.1222
  435MOL0     C58629   1.005   6.635   8.911 -0.1814  1.1597 -0.9052
  435MOL0     C58630   0.955   6.572   9.044  0.8301  1.2602 -0.9744
  435MOL0     C58631   0.882   6.676   9.130  0.1179 -0.5447 -0.1135
  435MOL0     C58632   0.749   6.732   9.063 -0.1907 -0.3951  0.0013
  435MOL0     C58633   0.666   6.817   9.155 -0.8152 -0.4093 -0.1327
  435MOL0     C58634   0.541   6.848   9.084 -0.3551 -0.2019 -0.5653
  435MOL0    Cl58635   0.577   6.985   8.975 -0.2132  0.0630  0.2911
  435MOL0     C58636   1.078   6.564   8.378 -0.5089 -0.1413 -0.5881
  435MOL0     C58637   1.060   6.530   8.241  0.3536 -1.1451  0.5595
  435MOL0     O58638   0.833   6.386   8.074  0.8099  0.6589 -0.4721
  435MOL0     C58639   1.027   6.465   7.810 -0.8760  0.1900  0.3586
  435MOL0     C58640   1.036   6.487   7.673  0.5160  0.5689 -0.2423
  435MOL0     N58641   0.930   6.798   6.943 -0.6377 -0.2752 -0.2375
  435MOL0     N58642   0.834   6.804   6.852  0.2902 -0.5071 -0.0492
  435MOL0     C58643   1.395   7.006   5.938  1.2854 -0.4725 -0.3682
  435MOL0     C58644   1.428   7.131   5.974  0.6176  0.8143 -1.2608
  435MOL0     C58645   1.705   7.427   6.220  0.4170 -1.0658  0.2754
  435MOL0     C58646   1.828   7.491   6.194 -0.7046 -0.7423  0.1255
  435MOL0     C58647   1.866   7.609   6.261  0.4373 -0.7298  1.2514
  435MOL0     C58648   1.785   7.674   6.346 -0.1500 -0.0678 -0.6601
  435MOL0     O58649   1.843   7.793   6.407 -0.3513 -0.3696 -0.3983
  435MOL0     C58650   1.786   7.824   6.540 -0.0065 -0.6375  0.9874
  435MOL0     C58651   1.880   7.922   6.626 -0.0884  0.6985 -0.1118
  435MOL0     C58652   2.010   7.844   6.657 -0.4012  0.4485 -0.6341
  435MOL0     C58653   2.093   7.907   6.778  1.2150  0.5686 -0.1165
  435MOL0     C58654   2.134   8.040   6.752 -0.6522 -0.8992 -0.5780
  435MOL0     C58655   2.203   8.138   6.757 -0.7754  0.1326 -0.2134
  435MOL0     C58656   1.659   7.610   6.385 -0.8426 -0.7206 -0.0859
  435MOL0     C58657   1.623   7.495   6.315  0.9583 -0.1354 -0.2789
  435MOL0     H58658   1.547   7.041   6.284 -0.9706  0.0233  1.3407
  435MOL0     H58659   1.459   6.817   6.214  3.3830 -0.7327 -0.6120
  435MOL0     H58660   1.172   6.840   5.956  0.1746  0.3161  0.7509
  435MOL0     H58661   1.203   6.671   5.906 -0.8251 -0.3557  0.8635
  435MOL0     H58662   1.264   6.616   6.138 -0.7000  0.5265 -0.6631
  435MOL0     H58663   1.214   6.765   6.183  1.3788 -0.6142  0.1337
  435MOL0     H58664   0.976   6.690   6.049 -0.5464 -0.9400 -0.5172
  435MOL0     H58665   1.045   6.538   6.091  0.0369  1.1019 -0.0685
  435MOL0     H58666   1.072   6.626   6.331 -0.0173 -3.2829 -1.2805
  435MOL0     H58667   0.992   6.770   6.299 -1.0469 -0.3577  0.6954
  435MOL0     H58668   0.796   6.617   6.205 -0.0601  2.8839  0.6525
  435MOL0     H58669   0.859   6.492   6.306 -2.0415  1.0610  0.9901
  435MOL0     H58670   0.756   6.761   6.384  0.0711  0.3130 -2.4037
  435MOL0     H58671   0.677   6.604   6.395  0.2003 -0.0747 -1.5576
  435MOL0     H58672   0.853   6.523   6.546 -0.4550 -0.1760  2.2092
  435MOL0     H58673   0.922   6.694   6.540 -0.0160 -0.7773  0.4778
  435MOL0     H58674   0.666   6.595   6.671 -2.5564  2.4283 -0.6424
  435MOL0     H58675   0.692   6.766   6.643  0.1816  0.4482  0.9309
  435MOL0     H58676   0.919   6.501   6.807 -0.8738 -0.1938 -0.7290
  435MOL0     H58677   1.058   6.489   6.981 -3.2730  0.9537 -0.9508
  435MOL0     H58678   1.181   6.615   6.963  0.1800 -0.7562  0.2787
  435MOL0     H58679   1.115   6.702   7.211  4.2807 -1.5746  1.3611
  435MOL0     H58680   1.176   6.538   7.193 -1.9579 -2.7692 -0.2120
  435MOL0     H58681   0.974   6.437   7.192  3.5682  1.0185 -2.5863
  435MOL0     H58682   0.886   6.591   7.251 -0.1586 -1.5970  1.4387
  435MOL0     H58683   1.056   6.601   7.419  2.1151 -0.6272  0.8122
  435MOL0     H58684   1.102   6.433   7.381  0.3721  1.5241 -0.5025
  435MOL0     H58685   0.767   6.283   7.591  2.7870 -2.5867 -0.3814
  435MOL0     H58686   0.808   6.138   7.911  2.1561  0.0976 -3.1505
  435MOL0     H58687   0.688   6.267   7.920 -0.5363  0.3796  2.0207
  435MOL0     H58688   0.681   6.178   7.774  0.9023  2.0223 -2.3662
  435MOL0     H58689   1.129   6.212   8.243  0.6246  1.5631 -0.9402
  435MOL0     H58690   1.170   6.275   8.506 -1.1116 -1.0639 -1.0850
  435MOL0     H58691   1.039   6.678   8.666 -2.0735 -0.3303 -0.8838
  435MOL0     H58692   0.954   6.529   8.656 -0.1065  0.1449 -0.0899
  435MOL0     H58693   1.033   6.421   8.834  0.7521 -1.1881 -0.8200
  435MOL0     H58694   1.175   6.531   8.845 -0.0255 -3.4173 -1.6703
  435MOL0     H58695   0.918   6.683   8.866 -0.1081  2.2997  0.1027
  435MOL0     H58696   1.073   6.717   8.937 -2.2013  3.0266 -1.2683
  435MOL0     H58697   0.876   6.503   9.016  0.4222  2.4269 -2.8501
  435MOL0     H58698   1.035   6.527   9.104 -0.3348 -0.2602 -0.4960
  435MOL0     H58699   0.943   6.765   9.147 -2.1855  0.8943  1.0492
  435MOL0     H58700   0.860   6.635   9.229 -1.0469  0.2688 -0.0150
  435MOL0     H58701   0.780   6.776   8.968 -1.0199 -1.9902 -1.0647
  435MOL0     H58702   0.683   6.647   9.041 -2.2032  0.7631  1.2107
  435MOL0     H58703   0.722   6.907   9.181 -0.2972 -1.0326  0.9989
  435MOL0     H58704   0.643   6.767   9.250 -1.8087 -0.4114 -0.3684
  435MOL0     H58705   0.469   6.876   9.161 -0.9249 -0.3257 -1.0456
  435MOL0     H58706   0.501   6.755   9.042 -0.4003 -1.0130  1.2041
  435MOL0     H58707   1.063   6.664   8.419 -0.5977 -0.6580  0.6874
  435MOL0     H58708   1.018   6.598   8.167  1.0373  0.2369  1.3906
  435MOL0     H58709   1.116   6.504   7.858  1.3295 -0.9212 -2.5177
  435MOL0     H58710   1.108   6.559   7.636  0.4061  0.8418  0.0615
  435MOL0     H58711   1.339   6.984   5.847  0.0537 -2.2180  0.7599
  435MOL0     H58712   1.412   7.211   5.901 -0.6614  0.8092 -1.0007
  435MOL0     H58713   1.894   7.438   6.127 -1.9621 -1.9726 -0.1676
  435MOL0     H58714   1.960   7.653   6.229  0.3859 -1.4705  0.0438
  435MOL0     H58715   1.691   7.875   6.521  0.4603 -0.1714 -0.2341
  435MOL0     H58716   1.779   7.732   6.599 -0.0840 -1.8137 -0.7527
  435MOL0     H58717   1.828   7.959   6.715  1.0476  0.0344  0.8544
  435MOL0     H58718   1.893   8.009   6.560 -1.2544  0.9163 -0.0952
  435MOL0     H58719   2.079   7.848   6.572  0.1287  2.8476 -0.1649
  435MOL0     H58720   1.978   7.741   6.674 -2.0237  0.8819 -0.8823
  435MOL0     H58721   2.178   7.845   6.808  0.8593  0.2621  0.2783
  435MOL0     H58722   2.040   7.907   6.873  0.9787 -1.1507 -0.2144
  435MOL0     H58723   2.264   8.226   6.764 -0.6771 -0.0367  1.7632
  435MOL0     H58724   1.589   7.641   6.462  0.6313 -0.2117  1.0897
  435MOL0     H58725   1.533   7.451   6.356 -0.3532  1.4186 -1.3748
  436MOL0     O58726   3.892  10.750   3.259 -0.7565  0.1123  0.4912
  436MOL0     C58727   3.962  10.733   3.358 -0.5231  0.1918 -0.1468
  436MOL0     O58728   3.956  10.629   3.449  0.1803 -0.0487  0.2242
  436MOL0     C58729   3.852  10.545   3.472  1.0759 -0.8134 -0.0214
  436MOL0     C58730   3.808  10.461   3.366  1.0558 -0.3645 -0.1197
  436MOL0     C58731   3.718  10.362   3.395 -0.4433  0.8088  0.4061
  436MOL0     C58732   3.683  10.332   3.528  0.5184 -0.1186 -1.6510
  436MOL0     O58733   3.590  10.232   3.570 -0.3705 -0.3063 -0.5037
  436MOL0     C58734   3.549  10.125   3.481 -0.6122 -0.3450 -0.3485
  436MOL0     C58735   3.480  10.013   3.572  0.3047 -0.0180  0.6624
  436MOL0     C58736   3.570   9.949   3.670  0.1859  0.0291 -0.3336
  436MOL0     C58737   3.498   9.848   3.758  0.0769 -0.1385 -0.6606
  436MOL0     C58738   3.430   9.916   3.883 -0.1640  0.9522  0.4709
  436MOL0     C58739   3.390   9.816   3.998  0.2458  1.0611 -1.1282
  436MOL0     C58740   3.261   9.739   3.964 -0.3064 -0.6695 -0.4823
  436MOL0     C58741   3.123   9.819   3.975 -0.2565 -0.2019 -0.1407
  436MOL0     N58742   3.069   9.838   4.105  0.9211  0.5438  0.5760
  436MOL0     C58743   2.963   9.775   4.167  0.6389 -1.0290 -0.3992
  436MOL0     C58744   2.950   9.828   4.294  0.3577 -0.4105  0.1763
  436MOL0     C58745   2.833   9.806   4.388  0.5128 -0.4052  0.5153
  436MOL0     C58746   2.866   9.762   4.538 -0.0003  0.1596 -0.6447
  436MOL0     C58747   2.988   9.670   4.544 -0.1059  0.0368  0.8342
  436MOL0     C58748   3.012   9.636   4.686 -0.3388 -0.1217  0.0012
  436MOL0     O58749   2.924   9.540   4.730  0.0765  0.1932 -0.4331
  436MOL0     C58750   2.824   9.567   4.820  0.0682 -0.0415  1.2231
  436MOL0     C58751   2.693   9.521   4.796 -0.5103  1.1229  0.8020
  436MOL0     C58752   2.592   9.522   4.888 -0.9403 -0.4803 -0.2016
  436MOL0     C58753   2.462   9.484   4.846  1.2341  0.0200 -0.3521
  436MOL0     C58754   2.616   9.591   5.006  0.1155 -0.2909  0.7784
  436MOL0     C58755   2.514   9.590   5.114  0.2109  0.5765 -0.4787
  436MOL0     O58756   2.574   9.577   5.233 -0.2182 -0.0299  0.0808
  436MOL0     C58757   2.505   9.540   5.345 -0.3036  0.3098 -0.6048
  436MOL0     C58758   2.409   9.441   5.338 -0.0835 -0.5398  0.6553
  436MOL0     C58759   2.348   9.397   5.452 -0.1140 -0.2321 -0.0578
  436MOL0     C58760   2.373   9.460   5.575 -0.4624 -0.5957 -0.7812
  436MOL0     O58761   2.288   9.447   5.685 -0.4239  0.3194  0.5460
  436MOL0     C58762   2.338   9.375   5.793  0.3527  1.2340 -0.0773
  436MOL0     C58763   2.334   9.226   5.766  0.5184  0.3217 -0.8320
  436MOL0     C58764   2.196   9.160   5.756  0.1194  0.2621  0.1567
  436MOL0     C58765   2.131   9.172   5.627 -0.0744  0.3558  0.3339
  436MOL0     C58766   2.007   9.088   5.609  0.4931  0.2706  0.4765
  436MOL0     C58767   2.036   8.938   5.588 -0.9835 -0.1054 -0.3308
  436MOL0     C58768   1.902   8.853   5.579 -0.3778  0.1083  0.3824
  436MOL0     C58769   1.919   8.708   5.600 -0.3514  0.1040 -0.9258
  436MOL0    Cl58770   1.961   8.662   5.763 -0.0996 -0.7905 -0.3687
  436MOL0     C58771   2.476   9.557   5.586 -0.2462 -0.6203 -0.6772
  436MOL0     C58772   2.541   9.602   5.469  0.8648  0.1978 -0.2819
  436MOL0     O58773   2.395   9.615   5.099  0.2636  0.5464  0.4985
  436MOL0     C58774   2.739   9.651   5.035  0.1767  0.3814  0.8602
  436MOL0     C58775   2.838   9.625   4.938 -0.4958 -0.8585 -0.3233
  436MOL0     N58776   3.056   9.916   4.303 -0.2413  0.5630 -0.3009
  436MOL0     N58777   3.119   9.928   4.186  0.3415 -0.5189  0.4668
  436MOL0     C58778   3.738  10.411   3.628  0.1177  0.9566 -0.5393
  436MOL0     C58779   3.822  10.514   3.604  0.5000 -0.2605  0.8890
  436MOL0     C58780   4.094  10.805   3.360  0.2803  0.1552  0.0172
  436MOL0     C58781   4.096  10.936   3.316  0.1578 -0.5798  0.8875
  436MOL0     C58782   4.207  11.015   3.316 -1.5324 -1.1709  0.1628
  436MOL0     C58783   4.330  10.950   3.360  0.2540 -0.1570 -0.0404
  436MOL0     O58784   4.446  11.021   3.337  0.2048  0.1705  0.4356
  436MOL0     C58785   4.561  10.945   3.344 -0.7401 -0.5977  0.4271
  436MOL0     C58786   4.680  11.028   3.298 -0.1950 -1.1700 -0.4905
  436MOL0     C58787   4.799  11.031   3.392  0.3374  0.2560 -0.1454
  436MOL0     C58788   4.779  11.130   3.509  0.1415  0.0489  0.6402
  436MOL0     C58789   4.884  11.112   3.611  0.1706  0.8272  1.1263
  436MOL0     C58790   4.979  11.116   3.682 -0.2017 -0.5489  0.5674
  436MOL0     C58791   4.330  10.817   3.408  0.0982 -0.0142 -0.1742
  436MOL0     C58792   4.218  10.742   3.401 -0.4827 -0.0637 -1.2580
  436MOL0     H58793   3.840  10.472   3.263  2.0642  2.6945  0.4326
  436MOL0     H58794   3.682  10.316   3.303 -0.5259  0.8093  0.4377
  436MOL0     H58795   3.483  10.167   3.404 -1.0993  0.1046  0.2948
  436MOL0     H58796   3.631  10.072   3.432 -0.5555 -2.4558  1.8694
  436MOL0     H58797   3.391  10.054   3.620 -0.5452  0.7731 -1.4773
  436MOL0     H58798   3.434   9.943   3.501 -0.0840  4.1725 -3.6948
  436MOL0     H58799   3.654   9.897   3.622 -1.7296 -5.4326  1.4934
  436MOL0     H58800   3.610  10.025   3.738  0.1325  1.1873 -1.5583
  436MOL0     H58801   3.422   9.796   3.699 -1.8351  1.0916  0.5803
  436MOL0     H58802   3.570   9.777   3.799 -2.5826 -2.3563  0.5249
  436MOL0     H58803   3.497   9.986   3.934  1.5919  2.0634 -3.0185
  436MOL0     H58804   3.356   9.982   3.836 -1.0366  2.7411  3.9786
  436MOL0     H58805   3.471   9.745   4.020  0.7254  0.4180 -4.3943
  436MOL0     H58806   3.361   9.868   4.090  1.7446 -1.6880  1.0624
  436MOL0     H58807   3.268   9.695   3.864  1.5354  2.7268 -2.0229
  436MOL0     H58808   3.261   9.659   4.039  0.9961 -0.6851 -0.4789
  436MOL0     H58809   3.059   9.752   3.916 -0.4104 -1.2287  1.1533
  436MOL0     H58810   3.150   9.916   3.932  5.7600 -1.0556  0.9025
  436MOL0     H58811   2.887   9.711   4.125 -3.1327  1.4093  2.1233
  436MOL0     H58812   2.773   9.897   4.398  3.4813  1.7452  0.0581
  436MOL0     H58813   2.776   9.723   4.345 -1.5736 -0.8629  3.7972
  436MOL0     H58814   2.781   9.717   4.590 -1.1875  0.7085 -2.0322
  436MOL0     H58815   2.883   9.847   4.605  1.0212 -2.0676  2.0881
  436MOL0     H58816   3.079   9.718   4.505  0.1916  0.5448  2.1108
  436MOL0     H58817   2.981   9.582   4.479  0.4279 -0.3361  1.2620
  436MOL0     H58818   3.011   9.732   4.739  5.9322  0.5462 -0.4324
  436MOL0     H58819   3.114   9.600   4.700 -0.2835 -0.5562 -1.4488
  436MOL0     H58820   2.675   9.470   4.702 -1.5799  3.2331 -0.2099
  436MOL0     H58821   2.401   9.572   4.825 -1.3318 -1.6591 -0.4088
  436MOL0     H58822   2.465   9.414   4.762  0.8852 -3.7805  2.5046
  436MOL0     H58823   2.408   9.422   4.918  0.0502 -0.0123 -1.2421
  436MOL0     H58824   2.383   9.392   5.245  1.7500  1.2836 -0.9248
  436MOL0     H58825   2.274   9.318   5.450 -1.3940  0.8962  0.4270
  436MOL0     H58826   2.441   9.390   5.826  0.8251 -1.9654  0.2434
  436MOL0     H58827   2.276   9.405   5.878  0.5850  1.7185 -0.0780
  436MOL0     H58828   2.393   9.194   5.679 -0.2326 -2.1733 -0.4943
  436MOL0     H58829   2.387   9.186   5.853  1.8627  2.4031 -0.6075
  436MOL0     H58830   2.129   9.187   5.838 -1.3572 -0.2093 -0.8591
  436MOL0     H58831   2.211   9.054   5.781  0.4606  0.5348  1.1342
  436MOL0     H58832   2.124   9.279   5.606  3.2360  0.7635  0.6628
  436MOL0     H58833   2.200   9.135   5.551 -1.1885 -0.3188 -0.3730
  436MOL0     H58834   1.958   9.121   5.517  2.3127  0.0102 -0.6359
  436MOL0     H58835   1.943   9.097   5.698  1.0597 -1.9665  1.1867
  436MOL0     H58836   2.106   8.928   5.505 -0.3235 -2.7877  0.4699
  436MOL0     H58837   2.089   8.898   5.674  0.8933  0.2833 -1.2537
  436MOL0     H58838   1.881   8.864   5.472  2.8892 -5.2482 -1.1964
  436MOL0     H58839   1.839   8.908   5.649  2.1612  4.0407 -0.0866
  436MOL0     H58840   1.987   8.669   5.524  0.1405  1.8856 -1.4404
  436MOL0     H58841   1.820   8.666   5.580  0.1032 -1.3066 -0.3760
  436MOL0     H58842   2.494   9.608   5.680 -0.6132  1.4423 -1.6721
  436MOL0     H58843   2.618   9.679   5.466  0.6221  0.4148 -1.1178
  436MOL0     H58844   2.753   9.695   5.133  2.5575  0.0288  0.7384
  436MOL0     H58845   2.935   9.659   4.973 -0.4610 -2.8682  1.7481
  436MOL0     H58846   3.702  10.390   3.729  0.1465  0.0126 -0.7207
  436MOL0     H58847   3.865  10.562   3.691 -1.4140 -3.3281  3.7763
  436MOL0     H58848   4.004  10.979   3.276  1.0600  0.9283  0.3726
  436MOL0     H58849   4.196  11.117   3.281 -2.1565 -0.0849  3.1738
  436MOL0     H58850   4.574  10.916   3.448 -0.7859 -2.7629 -0.1347
  436MOL0     H58851   4.548  10.862   3.274  1.0042  1.4592 -2.6296
  436MOL0     H58852   4.653  11.133   3.284 -0.9543 -1.2309  0.4564
  436MOL0     H58853   4.719  10.986   3.204 -2.3216 -1.4651 -1.2988
  436MOL0     H58854   4.893  11.054   3.341  0.7017 -1.7161 -0.4439
  436MOL0     H58855   4.804  10.931   3.435  3.4781  0.0649 -0.7129
  436MOL0     H58856   4.682  11.103   3.551 -0.6683 -0.4781 -1.4273
  436MOL0     H58857   4.761  11.234   3.478  1.0710  1.0608  3.2029
  436MOL0     H58858   5.070  11.115   3.739 -0.3381 -0.4911  0.7880
  436MOL0     H58859   4.422  10.779   3.452 -0.3792 -1.2322 -0.1849
  436MOL0     H58860   4.207  10.646   3.449 -0.4862  1.5964  2.4347
  437MOL0     O58861   6.654   4.778   6.528  0.3766  0.5253 -0.5903
  437MOL0     C58862   6.658   4.893   6.500 -0.5367  0.5672  0.3345
  437MOL0     O58863   6.558   4.954   6.432 -0.2279  0.0166 -0.2675
  437MOL0     C58864   6.438   4.906   6.454  0.4913  0.0165  0.1359
  437MOL0     C58865   6.342   4.993   6.505  0.4069  0.2527  0.7370
  437MOL0     C58866   6.209   4.956   6.535  1.2740  0.5060  0.4379
  437MOL0     C58867   6.168   4.828   6.494  0.1152 -0.4472 -0.1509
  437MOL0     O58868   6.039   4.787   6.540  0.1818  0.3287  0.1349
  437MOL0     C58869   6.012   4.649   6.559 -0.1629 -0.4459  0.4249
  437MOL0     C58870   5.880   4.649   6.658 -0.8125  0.7461 -0.8493
  437MOL0     C58871   5.848   4.502   6.690  0.3726 -0.0087  0.3921
  437MOL0     C58872   5.767   4.445   6.572 -0.4893 -0.5787 -0.5396
  437MOL0     C58873   5.719   4.304   6.589 -0.1936  0.5728 -0.3792
  437MOL0     C58874   5.658   4.257   6.456  0.5044 -0.0058  0.5237
  437MOL0     C58875   5.741   4.244   6.331 -0.2000 -0.4409 -0.9555
  437MOL0     C58876   5.711   4.117   6.265  0.9449  0.3929 -0.9023
  437MOL0     N58877   5.561   4.115   6.231 -0.5928  0.5831 -0.4723
  437MOL0     C58878   5.505   4.208   6.150  1.0558  0.6875  0.6259
  437MOL0     C58879   5.370   4.184   6.156 -0.7786 -0.0293 -0.3722
  437MOL0     C58880   5.256   4.253   6.087  0.2832 -0.4942 -0.0918
  437MOL0     C58881   5.209   4.187   5.955 -0.3031  0.1276 -0.1638
  437MOL0     C58882   5.126   4.057   5.977  0.8532 -0.0756 -0.1535
  437MOL0     C58883   5.120   3.982   5.844  0.5232  0.3317 -0.5237
  437MOL0     O58884   5.036   3.870   5.892 -0.4062  0.2813 -0.3444
  437MOL0     C58885   4.927   3.837   5.817 -0.0198 -0.3298  0.5764
  437MOL0     C58886   4.946   3.760   5.709 -0.6939  0.9269 -0.2584
  437MOL0     C58887   4.841   3.719   5.621 -0.5021  0.1880 -0.5123
  437MOL0     C58888   4.891   3.650   5.496 -0.2193 -0.6774  0.7354
  437MOL0     C58889   4.705   3.741   5.658 -0.1335 -0.1995 -0.1722
  437MOL0     C58890   4.594   3.691   5.575 -0.9126  0.5066  0.4176
  437MOL0     O58891   4.492   3.788   5.555  0.6550 -0.4178  0.4149
  437MOL0     C58892   4.411   3.766   5.451 -0.0109 -0.9328  1.5476
  437MOL0     C58893   4.443   3.737   5.316  0.5983 -0.2803 -0.6876
  437MOL0     C58894   4.350   3.688   5.223 -0.1630 -0.3790 -0.4781
  437MOL0     C58895   4.222   3.670   5.265 -0.0826  0.6930  0.2040
  437MOL0     O58896   4.143   3.614   5.175 -0.2815  0.6703  0.5458
  437MOL0     C58897   4.014   3.558   5.202 -0.0030 -0.6796 -0.0678
  437MOL0     C58898   4.044   3.423   5.260  0.2314 -0.0194 -0.6710
  437MOL0     C58899   3.913   3.356   5.295  0.0112 -0.4671  0.4952
  437MOL0     C58900   3.868   3.246   5.202 -0.0481 -0.1733  0.7302
  437MOL0     C58901   3.735   3.157   5.244  0.0739 -0.6767  0.2305
  437MOL0     C58902   3.625   3.258   5.253 -0.0171  0.7372  0.3416
  437MOL0     C58903   3.496   3.186   5.272  1.3635 -0.8696 -0.0946
  437MOL0     C58904   3.367   3.266   5.225 -0.1669  1.0927  1.1254
  437MOL0    Cl58905   3.226   3.206   5.294  0.2397 -0.5431 -0.3353
  437MOL0     C58906   4.193   3.685   5.399  0.0758  0.3484  0.2126
  437MOL0     C58907   4.290   3.734   5.489 -0.4091 -0.4622  0.1100
  437MOL0     O58908   4.600   3.578   5.524  0.2438 -0.0649 -0.2305
  437MOL0     C58909   4.681   3.814   5.777 -1.0013 -1.0076 -0.9472
  437MOL0     C58910   4.788   3.857   5.852  0.8448  0.3080  0.4656
  437MOL0     N58911   5.352   4.063   6.223 -1.0825 -0.2353 -0.5093
  437MOL0     N58912   5.466   4.025   6.276  0.3865  0.8351  0.0444
  437MOL0     C58913   6.267   4.741   6.443  0.9895  0.8406  0.5230
  437MOL0     C58914   6.397   4.773   6.420  0.9750 -0.1153  0.5561
  437MOL0     C58915   6.780   4.951   6.533 -0.6385  0.3791 -0.6971
  437MOL0     C58916   6.900   4.876   6.560  0.2083 -0.5983  0.6826
  437MOL0     C58917   7.012   4.944   6.595  0.0480  0.9119 -0.7718
  437MOL0     C58918   7.014   5.079   6.625  0.3970  1.1440  0.3845
  437MOL0     O58919   7.128   5.137   6.660  0.4839  0.0723  0.3015
  437MOL0     C58920   7.130   5.245   6.754 -0.0525 -0.4800 -0.3502
  437MOL0     C58921   7.056   5.223   6.892  0.4751 -0.3761  0.8641
  437MOL0     C58922   7.078   5.337   6.987 -0.7991 -1.1027 -0.2386
  437MOL0     C58923   7.043   5.309   7.133 -0.2172 -0.2172 -0.4875
  437MOL0     C58924   6.902   5.274   7.147  0.0455 -1.0265 -0.3468
  437MOL0     C58925   6.787   5.260   7.151  0.1930  0.6472 -1.2175
  437MOL0     C58926   6.892   5.149   6.608 -0.1425 -0.3649  0.8681
  437MOL0     C58927   6.776   5.082   6.558 -0.2998 -0.1658 -0.6831
  437MOL0     H58928   6.373   5.095   6.524 -1.7814  1.8176 -3.0777
  437MOL0     H58929   6.138   5.025   6.579  0.2738 -0.3642  0.2217
  437MOL0     H58930   5.984   4.615   6.459  2.1515 -2.2092  0.3056
  437MOL0     H58931   6.085   4.589   6.613 -1.3123 -0.7574  1.6999
  437MOL0     H58932   5.925   4.689   6.750  2.1457 -1.4975 -1.1788
  437MOL0     H58933   5.798   4.713   6.625 -1.8791 -0.5646 -0.7953
  437MOL0     H58934   5.936   4.444   6.720 -1.3412 -3.0012 -0.0136
  437MOL0     H58935   5.774   4.499   6.770  0.3027 -0.3534  0.3169
  437MOL0     H58936   5.679   4.510   6.569  1.6569  2.5379 -0.0991
  437MOL0     H58937   5.820   4.444   6.477  4.0503 -0.8550  1.7557
  437MOL0     H58938   5.799   4.240   6.627 -0.7262  0.7649  1.1620
  437MOL0     H58939   5.648   4.305   6.672  0.7124 -5.2299  0.9230
  437MOL0     H58940   5.626   4.154   6.474  2.0512 -0.5640  0.2392
  437MOL0     H58941   5.569   4.317   6.437  0.9104 -0.0438 -1.7433
  437MOL0     H58942   5.733   4.333   6.267  2.0530  1.1528  0.8292
  437MOL0     H58943   5.847   4.255   6.354 -0.8212  0.0330  2.1430
  437MOL0     H58944   5.739   4.037   6.335  2.7168  0.5668 -1.3700
  437MOL0     H58945   5.770   4.111   6.173  0.9668  1.7149 -0.9873
  437MOL0     H58946   5.551   4.287   6.093 -0.2848  0.6540 -0.5575
  437MOL0     H58947   5.177   4.252   6.163  2.5364 -0.2159  2.4121
  437MOL0     H58948   5.291   4.355   6.070  1.0934 -1.1519 -3.0114
  437MOL0     H58949   5.300   4.162   5.900  2.4671  1.3321  3.5163
  437MOL0     H58950   5.155   4.258   5.892 -3.1625 -2.9293 -1.5164
  437MOL0     H58951   5.032   4.092   6.020  2.7989  4.8387  0.8244
  437MOL0     H58952   5.179   3.996   6.051  1.8699  0.5414 -0.3474
  437MOL0     H58953   5.222   3.949   5.818  1.1535 -1.6976  3.6717
  437MOL0     H58954   5.075   4.042   5.764 -3.1399  0.1445  1.2084
  437MOL0     H58955   5.044   3.720   5.684 -1.8806 -1.4913 -1.3274
  437MOL0     H58956   4.850   3.692   5.404 -2.2280  1.8082  2.6372
  437MOL0     H58957   4.998   3.662   5.474 -0.9364  2.9815 -1.5610
  437MOL0     H58958   4.877   3.542   5.511  3.1089 -2.0236 -3.6290
  437MOL0     H58959   4.543   3.770   5.290  1.4449 -1.0004  1.4814
  437MOL0     H58960   4.373   3.653   5.123 -1.2854  1.0836 -1.3008
  437MOL0     H58961   3.958   3.616   5.276  1.9537  0.4054  0.6384
  437MOL0     H58962   3.947   3.550   5.115 -1.4441 -1.3551  1.0583
  437MOL0     H58963   4.095   3.357   5.188  0.9166 -1.5058  1.1072
  437MOL0     H58964   4.096   3.434   5.355  1.5109 -1.5699 -1.1512
  437MOL0     H58965   3.837   3.434   5.304 -1.0615 -1.5437  1.0056
  437MOL0     H58966   3.922   3.310   5.394  2.0633 -0.4692  0.3514
  437MOL0     H58967   3.863   3.300   5.107  1.7778  1.1234  1.3122
  437MOL0     H58968   3.952   3.175   5.199  0.3030  0.1278  2.4692
  437MOL0     H58969   3.749   3.101   5.337  0.6782 -0.5341  0.2300
  437MOL0     H58970   3.726   3.079   5.167 -1.4497 -1.4034  1.0993
  437MOL0     H58971   3.631   3.316   5.346  0.1645  0.9619  0.1901
  437MOL0     H58972   3.631   3.323   5.165 -0.1581  0.2845 -0.0022
  437MOL0     H58973   3.486   3.159   5.378 -0.7613  1.1033  0.2766
  437MOL0     H58974   3.506   3.089   5.221  1.4891 -0.5891 -0.6087
  437MOL0     H58975   3.350   3.258   5.118  0.5069 -0.6320  1.1139
  437MOL0     H58976   3.376   3.367   5.265  0.4199  1.2305  0.6605
  437MOL0     H58977   4.099   3.653   5.443  2.5904 -4.7865  2.7484
  437MOL0     H58978   4.255   3.744   5.592  0.9533  1.3560  0.4453
  437MOL0     H58979   4.577   3.834   5.804 -0.7383 -0.4086 -0.3328
  437MOL0     H58980   4.765   3.900   5.949  0.7312 -0.6605  0.8837
  437MOL0     H58981   6.226   4.645   6.413  0.9318  1.1187 -0.3236
  437MOL0     H58982   6.461   4.690   6.391 -0.3672 -0.6421 -1.0211
  437MOL0     H58983   6.908   4.770   6.538  1.4163  0.2447 -3.7641
  437MOL0     H58984   7.104   4.886   6.597 -0.5221  0.0011 -0.1189
  437MOL0     H58985   7.233   5.282   6.760 -1.7002  4.9878 -0.9344
  437MOL0     H58986   7.078   5.324   6.700  2.9502  0.4136 -2.1653
  437MOL0     H58987   7.102   5.131   6.929  1.1580  0.2785  1.6825
  437MOL0     H58988   6.947   5.213   6.890  0.2121  1.5363  2.7976
  437MOL0     H58989   7.012   5.419   6.956 -0.0262 -0.4833 -0.2755
  437MOL0     H58990   7.181   5.367   6.969 -1.3587  0.4020 -1.1017
  437MOL0     H58991   7.073   5.398   7.189  0.9089 -1.4410  0.9562
  437MOL0     H58992   7.102   5.221   7.162 -1.6954 -1.1308 -0.1571
  437MOL0     H58993   6.681   5.243   7.159  0.3121  0.7157  1.1614
  437MOL0     H58994   6.894   5.257   6.613 -2.0594 -0.2984  1.2662
  437MOL0     H58995   6.698   5.148   6.522 -0.0066 -0.0910 -1.2017
  438MOL0     O58996   1.144   5.379   7.415  0.2810  0.4478  0.1402
  438MOL0     C58997   1.132   5.493   7.373  0.8288  0.3133  0.3879
  438MOL0     O58998   1.043   5.589   7.419 -0.2398  0.0399 -0.2634
  438MOL0     C58999   0.946   5.565   7.506  0.5122  0.7635 -0.1799
  438MOL0     C59000   0.825   5.618   7.483  0.3160 -0.3362  0.2305
  438MOL0     C59001   0.716   5.595   7.562  0.5000 -0.8568  0.4001
  438MOL0     C59002   0.729   5.519   7.674 -0.2704 -0.1482 -0.9794
  438MOL0     O59003   0.628   5.478   7.756  0.2682  0.1886  0.0840
  438MOL0     C59004   0.504   5.448   7.688 -1.4026 -0.4551  0.0760
  438MOL0     C59005   0.385   5.401   7.760  0.0883 -0.4320 -0.0513
  438MOL0     C59006   0.258   5.404   7.667  0.8752  0.4973 -0.0274
  438MOL0     C59007   0.124   5.395   7.739  0.8070 -0.2124  0.1027
  438MOL0     C59008   0.104   5.258   7.801 -0.0298  0.5509  0.3197
  438MOL0     C59009  -0.048   5.217   7.812  0.2056 -0.4655 -0.0225
  438MOL0     C59010  -0.137   5.323   7.877  0.4042 -0.7455 -0.0298
  438MOL0     C59011  -0.111   5.334   8.028 -0.0367  0.4045  0.5578
  438MOL0     N59012  -0.193   5.429   8.102  0.7833  1.4109  0.8828
  438MOL0     C59013  -0.251   5.418   8.217  0.6935  0.2369 -0.2938
  438MOL0     C59014  -0.281   5.545   8.256  0.2511 -0.2401  0.5542
  438MOL0     C59015  -0.343   5.583   8.391 -0.5228  0.3307 -1.2286
  438MOL0     C59016  -0.491   5.524   8.396 -0.5023  0.3772 -0.0508
  438MOL0     C59017  -0.600   5.576   8.296  0.6805 -0.3290 -2.2014
  438MOL0     C59018  -0.663   5.708   8.334  0.6260 -0.4386 -0.3891
  438MOL0     O59019  -0.725   5.698   8.457 -0.7702  0.0225  0.6853
  438MOL0     C59020  -0.779   5.813   8.514  0.0560  1.0285  0.4931
  438MOL0     C59021  -0.847   5.791   8.631 -0.6748 -0.1790  0.3994
  438MOL0     C59022  -0.901   5.884   8.718  0.4820 -0.0198  0.9721
  438MOL0     C59023  -0.977   5.820   8.831 -0.8917 -0.2946 -0.8063
  438MOL0     C59024  -0.879   6.029   8.688  0.6661  0.5583 -0.4370
  438MOL0     C59025  -0.913   6.146   8.783 -0.7976  0.0592 -0.0679
  438MOL0     O59026  -0.900   6.270   8.724 -0.0076 -0.4778  0.4708
  438MOL0     C59027  -0.918   6.379   8.804 -0.2372 -0.3400 -0.7777
  438MOL0     C59028  -0.796   6.445   8.826  0.7996 -0.6537  1.5413
  438MOL0     C59029  -0.798   6.551   8.915  0.8255  0.3519  0.5316
  438MOL0     C59030  -0.921   6.587   8.985 -0.2750 -0.5039  0.3558
  438MOL0     O59031  -0.918   6.693   9.080  0.0595  0.8110 -0.1759
  438MOL0     C59032  -0.833   6.801   9.057  0.9435  0.8142 -0.1314
  438MOL0     C59033  -0.862   6.908   9.158  0.4159 -0.4417  0.0351
  438MOL0     C59034  -1.005   6.965   9.145 -0.2129  0.3175 -0.2757
  438MOL0     C59035  -1.027   7.100   9.212 -0.4380  0.4900  0.1346
  438MOL0     C59036  -1.172   7.141   9.225  0.1346 -0.0113 -0.3302
  438MOL0     C59037  -1.196   7.288   9.279 -0.7574 -0.2724  0.5489
  438MOL0     C59038  -1.082   7.346   9.373  0.9427 -0.2100  1.1666
  438MOL0     C59039  -1.119   7.495   9.398 -0.0912 -0.9984  0.4527
  438MOL0    Cl59040  -1.085   7.606   9.257 -0.0816 -0.0409 -0.1990
  438MOL0     C59041  -1.042   6.523   8.950 -0.2584  0.3883  0.0867
  438MOL0     C59042  -1.043   6.413   8.868 -0.1767  0.7477 -0.6396
  438MOL0     O59043  -0.947   6.123   8.903 -2.0953  0.3309  0.3851
  438MOL0     C59044  -0.829   6.046   8.561 -0.7306 -0.8499  0.0488
  438MOL0     C59045  -0.776   5.953   8.477 -0.1837  0.8383  0.3094
  438MOL0     N59046  -0.224   5.633   8.165 -0.7960 -0.1049  0.3935
  438MOL0     N59047  -0.178   5.557   8.078 -0.1710 -0.1192 -0.5886
  438MOL0     C59048   0.860   5.462   7.701 -0.4165  0.0394  0.2192
  438MOL0     C59049   0.972   5.491   7.623  0.8254  0.8926 -1.0245
  438MOL0     C59050   1.210   5.531   7.251 -0.2471  0.4466 -0.2539
  438MOL0     C59051   1.232   5.447   7.143 -0.4190  0.1977 -0.2994
  438MOL0     C59052   1.299   5.494   7.029  0.1063  0.7237 -1.0924
  438MOL0     C59053   1.350   5.622   7.018 -1.0494 -0.7744  0.9529
  438MOL0     O59054   1.437   5.658   6.908 -0.2837  0.1424  0.1822
  438MOL0     C59055   1.453   5.806   6.879 -1.2085  0.0007 -0.2458
  438MOL0     C59056   1.346   5.877   6.801 -0.6993  0.1618 -0.6730
  438MOL0     C59057   1.387   6.019   6.767 -0.2199 -0.3454  0.4771
  438MOL0     C59058   1.318   6.131   6.847  0.1706 -0.3429  0.7882
  438MOL0     C59059   1.369   6.263   6.812 -0.7471 -0.4154  0.3190
  438MOL0     C59060   1.412   6.375   6.781 -0.2989 -0.2268 -0.5775
  438MOL0     C59061   1.317   5.714   7.121  0.0021  0.1038  0.4094
  438MOL0     C59062   1.250   5.666   7.240  0.1939  0.0646  0.2122
  438MOL0     H59063   0.812   5.668   7.387 -2.5147  3.4849  2.2929
  438MOL0     H59064   0.617   5.627   7.529  0.6848 -0.4671  0.2165
  438MOL0     H59065   0.476   5.540   7.634 -2.8140 -1.0638 -0.2884
  438MOL0     H59066   0.540   5.370   7.620  1.7423  0.4416  0.5617
  438MOL0     H59067   0.401   5.301   7.803 -0.6229 -0.3415  0.4564
  438MOL0     H59068   0.362   5.472   7.840  1.3966 -0.6773  0.5586
  438MOL0     H59069   0.255   5.495   7.605 -2.3109  0.0214 -0.7866
  438MOL0     H59070   0.262   5.320   7.597  2.3846  0.9173 -0.4703
  438MOL0     H59071   0.122   5.471   7.818 -1.5072  2.4470 -2.3152
  438MOL0     H59072   0.047   5.429   7.670 -0.1483 -0.2517  1.1235
  438MOL0     H59073   0.160   5.181   7.747 -1.3334  0.5506 -1.0804
  438MOL0     H59074   0.156   5.259   7.898 -1.0756  1.6581  0.8996
  438MOL0     H59075  -0.096   5.188   7.718  1.7521  1.5486 -1.5270
  438MOL0     H59076  -0.036   5.133   7.881  3.6037  0.7040  1.0448
  438MOL0     H59077  -0.131   5.424   7.835  0.5237 -0.2512  1.1264
  438MOL0     H59078  -0.241   5.296   7.859 -0.8449  4.7205 -3.4871
  438MOL0     H59079  -0.007   5.365   8.035 -0.1465  1.0130 -0.2887
  438MOL0     H59080  -0.132   5.237   8.074  2.0852  0.4833  1.7753
  438MOL0     H59081  -0.270   5.324   8.268  2.4619 -0.6621 -1.1986
  438MOL0     H59082  -0.288   5.540   8.476 -0.0145  1.9336 -0.7117
  438MOL0     H59083  -0.339   5.692   8.400  4.1989  0.2456  0.7034
  438MOL0     H59084  -0.523   5.540   8.499 -0.9051 -0.9569  0.0482
  438MOL0     H59085  -0.485   5.416   8.383  0.9282  0.6329 -2.0895
  438MOL0     H59086  -0.684   5.505   8.297 -0.1542  0.5066  1.1827
  438MOL0     H59087  -0.559   5.586   8.195  0.4019  2.6148 -2.1072
  438MOL0     H59088  -0.727   5.747   8.254 -1.2876  2.1796  2.1959
  438MOL0     H59089  -0.578   5.774   8.353  0.8840 -1.1872  1.2516
  438MOL0     H59090  -0.844   5.687   8.663  1.2218 -0.7307 -1.3288
  438MOL0     H59091  -0.959   5.713   8.846 -1.6552 -0.2885  0.2459
  438MOL0     H59092  -0.947   5.867   8.925 -0.7647 -1.3980 -0.2811
  438MOL0     H59093  -1.082   5.841   8.812 -0.3630  2.1868 -1.2844
  438MOL0     H59094  -0.699   6.435   8.777 -0.8448  0.5537 -2.3230
  438MOL0     H59095  -0.702   6.601   8.909 -0.8265  4.0280  1.4569
  438MOL0     H59096  -0.726   6.783   9.066  0.8606  1.2742  2.6234
  438MOL0     H59097  -0.846   6.850   8.960 -0.7049  2.1136  0.6773
  438MOL0     H59098  -0.856   6.872   9.261 -0.5386  1.0787  0.6700
  438MOL0     H59099  -0.779   6.976   9.136 -0.6101 -0.1860 -3.6513
  438MOL0     H59100  -1.066   6.898   9.207 -0.3068  3.4779  3.4423
  438MOL0     H59101  -1.020   6.972   9.037 -0.1307  1.2167 -0.2359
  438MOL0     H59102  -0.978   7.094   9.309  1.2846  3.2072 -0.4530
  438MOL0     H59103  -0.980   7.180   9.154 -4.9301  3.4039  0.0529
  438MOL0     H59104  -1.223   7.066   9.286  0.7249 -1.4175 -1.5120
  438MOL0     H59105  -1.213   7.129   9.124 -1.4741  0.8162  0.1885
  438MOL0     H59106  -1.199   7.359   9.196 -1.2118  1.0847  1.6748
  438MOL0     H59107  -1.293   7.297   9.330 -1.3392  1.1913 -0.7070
  438MOL0     H59108  -0.982   7.336   9.331  0.1045 -1.9267 -0.5806
  438MOL0     H59109  -1.085   7.284   9.463 -0.0154  0.8462  1.9016
  438MOL0     H59110  -1.074   7.523   9.494  2.5774 -2.5511 -0.2635
  438MOL0     H59111  -1.227   7.494   9.417 -0.5034 -2.2346 -1.6318
  438MOL0     H59112  -1.136   6.553   8.995  0.2170 -1.7687  2.8194
  438MOL0     H59113  -1.138   6.362   8.855 -1.3267  2.3461  0.9536
  438MOL0     H59114  -0.832   6.149   8.525  2.1067  0.5839  3.2956
  438MOL0     H59115  -0.734   5.988   8.383  0.4262  2.0775  1.0159
  438MOL0     H59116   0.868   5.411   7.796 -0.8670  1.6347  1.1503
  438MOL0     H59117   1.068   5.462   7.664 -0.3989  0.3538  1.7069
  438MOL0     H59118   1.200   5.345   7.160  1.4163 -1.3862 -4.8101
  438MOL0     H59119   1.321   5.424   6.950  1.9566 -1.0276  0.8704
  438MOL0     H59120   1.480   5.870   6.964  0.5347 -0.1960 -0.6146
  438MOL0     H59121   1.549   5.810   6.827 -1.7559 -3.9898 -1.9016
  438MOL0     H59122   1.257   5.877   6.866 -0.3414  2.8079 -0.0461
  438MOL0     H59123   1.324   5.833   6.703  0.3414  1.3578 -1.4736
  438MOL0     H59124   1.366   6.044   6.663  3.3879 -0.7155 -0.4548
  438MOL0     H59125   1.496   6.029   6.768 -0.2954  1.0997 -1.1500
  438MOL0     H59126   1.322   6.103   6.952  1.2862 -2.3851  0.2695
  438MOL0     H59127   1.216   6.123   6.808  0.6137 -4.4069  0.0149
  438MOL0     H59128   1.450   6.468   6.744  5.8263 -1.6224  1.1894
  438MOL0     H59129   1.363   5.812   7.130  1.7845 -0.8733  4.7022
  438MOL0     H59130   1.245   5.733   7.325 -3.0821 -0.0543  0.2304
  439MOL0     O59131   5.781   8.986   4.879  0.2233  0.1392 -0.0665
  439MOL0     C59132   5.849   8.886   4.846  0.0462 -0.6564  0.4239
  439MOL0     O59133   5.842   8.827   4.725 -0.5689 -0.7091  0.1921
  439MOL0     C59134   5.779   8.904   4.634 -0.3304  0.3528  0.4895
  439MOL0     C59135   5.641   8.917   4.630 -0.1787 -0.9266 -0.2340
  439MOL0     C59136   5.575   8.976   4.513 -0.2562  0.1055 -0.1334
  439MOL0     C59137   5.655   9.014   4.404  0.6512  0.1631  0.6921
  439MOL0     O59138   5.621   9.098   4.297 -0.3826  0.4073  0.2078
  439MOL0     C59139   5.494   9.077   4.235 -0.2833 -0.2553  0.5192
  439MOL0     C59140   5.402   9.188   4.272  0.2441 -0.4878  0.2926
  439MOL0     C59141   5.449   9.328   4.226  0.5047 -0.1522 -0.5948
  439MOL0     C59142   5.347   9.437   4.264 -0.4283 -0.4601 -0.0640
  439MOL0     C59143   5.278   9.489   4.140  0.0194  0.3451  0.1418
  439MOL0     C59144   5.147   9.571   4.168 -0.2822  0.1007 -0.3366
  439MOL0     C59145   5.023   9.508   4.223 -0.6063 -0.5636  0.1161
  439MOL0     C59146   4.909   9.607   4.237 -0.6838  0.2779  0.6548
  439MOL0     N59147   4.834   9.559   4.341  0.5382 -0.7303 -0.1217
  439MOL0     C59148   4.776   9.637   4.443  0.2055  0.0304  0.6297
  439MOL0     C59149   4.712   9.539   4.511 -0.7258 -0.8608 -0.1858
  439MOL0     C59150   4.643   9.578   4.639 -0.4666 -0.3031  1.1111
  439MOL0     C59151   4.680   9.494   4.750  0.5573  0.3786 -0.9164
  439MOL0     C59152   4.606   9.517   4.884 -0.2458 -0.1290 -0.2396
  439MOL0     C59153   4.456   9.480   4.866 -0.6324 -0.3345 -1.1446
  439MOL0     O59154   4.388   9.498   4.987 -0.0691  0.3909  0.6257
  439MOL0     C59155   4.251   9.467   4.987 -0.8494  1.7669  0.6457
  439MOL0     C59156   4.178   9.410   4.884 -0.4949  0.8642 -0.0214
  439MOL0     C59157   4.050   9.356   4.900  0.0650 -0.0623 -0.2640
  439MOL0     C59158   3.966   9.302   4.778  0.7249 -0.0665  0.0845
  439MOL0     C59159   3.980   9.372   5.019 -0.7151 -0.0190  0.1029
  439MOL0     C59160   3.844   9.321   5.051  0.8062 -0.3990  0.0399
  439MOL0     O59161   3.816   9.189   5.039 -0.1877  0.7227 -0.4888
  439MOL0     C59162   3.703   9.121   5.054  0.8362 -0.3026 -1.1687
  439MOL0     C59163   3.728   8.983   5.062 -0.0494  0.2556 -0.2084
  439MOL0     C59164   3.617   8.895   5.068  0.4767 -0.1429 -0.0605
  439MOL0     C59165   3.480   8.945   5.083  0.7792  0.0320 -0.3862
  439MOL0     O59166   3.365   8.874   5.109 -0.0384 -0.9482  1.0545
  439MOL0     C59167   3.365   8.746   5.054  0.0362 -0.5689  0.1552
  439MOL0     C59168   3.250   8.669   5.113 -0.0045 -0.4665 -0.7367
  439MOL0     C59169   3.239   8.635   5.260  0.6046 -0.1714 -0.5408
  439MOL0     C59170   3.113   8.559   5.293  1.1261  0.2477  0.9921
  439MOL0     C59171   3.115   8.490   5.423 -0.5972  0.3630 -0.5198
  439MOL0     C59172   2.983   8.416   5.447 -1.0515  0.3907 -0.0361
  439MOL0     C59173   2.963   8.335   5.579  0.3637  0.0105  0.0462
  439MOL0     C59174   3.037   8.199   5.575  0.4466 -0.8838  0.2923
  439MOL0    Cl59175   3.209   8.189   5.549 -0.2719  0.0672 -0.5622
  439MOL0     C59176   3.463   9.081   5.097  0.2434 -0.4725  0.0734
  439MOL0     C59177   3.575   9.167   5.073  1.2290 -0.1452 -0.1491
  439MOL0     O59178   3.761   9.399   5.099  1.2059 -0.1475  0.7778
  439MOL0     C59179   4.050   9.443   5.123  0.2792 -1.1626 -0.1073
  439MOL0     C59180   4.186   9.489   5.106  0.3035 -0.6582 -0.1171
  439MOL0     N59181   4.714   9.416   4.445 -0.1309 -0.2762 -0.6940
  439MOL0     N59182   4.795   9.430   4.343  0.1814  0.2573  0.6541
  439MOL0     C59183   5.793   8.990   4.409 -0.2727 -0.3205 -0.2871
  439MOL0     C59184   5.851   8.934   4.523  0.1244 -0.3771 -0.1882
  439MOL0     C59185   5.951   8.819   4.930 -0.1245  0.5280  0.5460
  439MOL0     C59186   6.050   8.905   4.996  0.4167  0.7364  1.5070
  439MOL0     C59187   6.164   8.839   5.043 -0.0333 -0.3394 -1.3107
  439MOL0     C59188   6.169   8.691   5.050 -0.0090 -0.0380  0.3530
  439MOL0     O59189   6.279   8.623   5.101  0.0173  1.2013 -0.1875
  439MOL0     C59190   6.355   8.686   5.209  0.4972 -0.0065 -0.2015
  439MOL0     C59191   6.463   8.580   5.258  0.2828 -0.3136  0.0480
  439MOL0     C59192   6.399   8.452   5.324  0.6793 -0.2634  0.0909
  439MOL0     C59193   6.502   8.373   5.404  0.9712 -0.1745  0.3365
  439MOL0     C59194   6.444   8.240   5.435 -0.7612  0.2784  0.1770
  439MOL0     C59195   6.411   8.130   5.481  0.4932 -0.1903 -1.1987
  439MOL0     C59196   6.057   8.618   4.999  0.8116 -0.3187 -0.3715
  439MOL0     C59197   5.951   8.678   4.930  0.0727 -0.4845  0.0537
  439MOL0     H59198   5.577   8.898   4.717  3.2063 -0.0851  2.6730
  439MOL0     H59199   5.468   8.991   4.519 -0.3695  0.1465 -1.7842
  439MOL0     H59200   5.491   9.082   4.125 -0.7475 -1.8692  0.4254
  439MOL0     H59201   5.455   8.975   4.250  0.2498 -1.0327 -2.5855
  439MOL0     H59202   5.309   9.166   4.219 -0.3633 -1.2658  1.6335
  439MOL0     H59203   5.385   9.185   4.380 -2.9497  1.0623 -0.0440
  439MOL0     H59204   5.541   9.343   4.285 -1.5622 -1.6712  3.4342
  439MOL0     H59205   5.481   9.324   4.122 -1.7890  0.4149 -1.3619
  439MOL0     H59206   5.276   9.400   4.338  2.9092 -0.6867  3.3261
  439MOL0     H59207   5.399   9.519   4.315 -0.4101  1.1202 -2.4941
  439MOL0     H59208   5.346   9.558   4.089  0.3557  0.7744  1.1450
  439MOL0     H59209   5.244   9.408   4.075 -2.9080  1.7045 -0.1482
  439MOL0     H59210   5.180   9.663   4.218 -3.3517  1.3085 -0.3208
  439MOL0     H59211   5.107   9.610   4.074 -4.8656  3.7268  2.6409
  439MOL0     H59212   4.986   9.428   4.159  0.4516 -0.7887 -0.2312
  439MOL0     H59213   5.051   9.461   4.318 -1.9622 -2.6077 -0.4080
  439MOL0     H59214   4.864   9.611   4.138  0.8966  1.9106 -0.0513
  439MOL0     H59215   4.937   9.712   4.255 -1.9967  0.5696  1.1486
  439MOL0     H59216   4.802   9.733   4.488 -2.5335 -0.8167  4.6450
  439MOL0     H59217   4.651   9.686   4.653  0.7518 -0.0097 -1.3531
  439MOL0     H59218   4.536   9.568   4.617 -0.3812  1.4415 -0.3489
  439MOL0     H59219   4.788   9.503   4.764  0.6508  1.4977 -2.2127
  439MOL0     H59220   4.670   9.391   4.714  1.0495  0.2707 -0.7499
  439MOL0     H59221   4.611   9.624   4.907  0.0229 -0.2289  0.1852
  439MOL0     H59222   4.655   9.466   4.968 -1.3093 -1.3841 -0.3519
  439MOL0     H59223   4.450   9.374   4.840 -1.7489 -0.4102 -0.6026
  439MOL0     H59224   4.413   9.546   4.790 -3.4181 -1.1749 -0.3898
  439MOL0     H59225   4.224   9.403   4.786 -2.3124 -0.3583 -0.8226
  439MOL0     H59226   3.984   9.200   4.745  1.9503  0.4079 -0.7651
  439MOL0     H59227   3.858   9.312   4.793  0.3434 -1.7256 -1.3019
  439MOL0     H59228   3.986   9.373   4.696 -0.1193 -1.7574 -1.6589
  439MOL0     H59229   3.826   8.941   5.045 -0.2629  0.1000 -1.1044
  439MOL0     H59230   3.642   8.790   5.060  1.5011  0.1634 -1.0851
  439MOL0     H59231   3.351   8.747   4.945 -2.3658 -1.6388  0.3979
  439MOL0     H59232   3.450   8.682   5.076  1.3273  0.7838 -0.7057
  439MOL0     H59233   3.158   8.721   5.086 -1.3318 -1.5788  1.3599
  439MOL0     H59234   3.248   8.569   5.068  3.6585 -0.7369 -0.6007
  439MOL0     H59235   3.272   8.711   5.331 -0.0414 -0.9945  0.6675
  439MOL0     H59236   3.314   8.557   5.271  1.6480  0.7267 -1.0333
  439MOL0     H59237   3.034   8.635   5.294  2.5690  1.9809 -2.2546
  439MOL0     H59238   3.090   8.489   5.212 -1.5345  0.2293  1.6510
  439MOL0     H59239   3.133   8.569   5.496 -2.6702  3.2196 -2.8589
  439MOL0     H59240   3.202   8.423   5.425 -1.6206 -1.0128  0.9589
  439MOL0     H59241   2.902   8.489   5.439  0.3703  2.2287  1.4884
  439MOL0     H59242   2.983   8.350   5.359  3.5273  1.9118 -1.4724
  439MOL0     H59243   2.856   8.320   5.566  0.7488 -1.4690 -1.8273
  439MOL0     H59244   2.994   8.389   5.669 -1.0539  0.5869  0.2189
  439MOL0     H59245   2.985   8.143   5.496 -3.5363  1.1159  1.2539
  439MOL0     H59246   3.004   8.148   5.666  0.8234  0.3823  1.1672
  439MOL0     H59247   3.363   9.112   5.128 -0.7393 -2.5068 -0.8175
  439MOL0     H59248   3.558   9.272   5.097 -0.9463 -0.9158  2.0183
  439MOL0     H59249   4.015   9.445   5.226 -0.7674 -3.3904 -0.3451
  439MOL0     H59250   4.251   9.529   5.183  0.6669  0.3080 -0.9090
  439MOL0     H59251   5.862   9.032   4.337 -0.4566  0.7269  0.1294
  439MOL0     H59252   5.958   8.947   4.537 -0.1916  2.0301  0.4384
  439MOL0     H59253   6.031   9.011   5.001  2.1705  1.2274 -0.4174
  439MOL0     H59254   6.231   8.901   5.101 -1.9373  1.3215 -0.7819
  439MOL0     H59255   6.400   8.782   5.183  0.5636 -0.2218 -0.9047
  439MOL0     H59256   6.285   8.706   5.291 -1.4311  1.8203 -2.1407
  439MOL0     H59257   6.507   8.635   5.341 -1.5551 -2.0869  2.3229
  439MOL0     H59258   6.538   8.539   5.188 -1.2841 -1.7410 -0.8779
  439MOL0     H59259   6.360   8.399   5.236  1.6412  0.3690 -0.7491
  439MOL0     H59260   6.322   8.483   5.395  1.2262 -0.2508  0.6827
  439MOL0     H59261   6.532   8.434   5.490  1.0948  0.4322 -0.1320
  439MOL0     H59262   6.584   8.352   5.334 -0.5334 -0.7348 -1.3283
  439MOL0     H59263   6.379   8.033   5.513  1.0281  0.1173  0.3940
  439MOL0     H59264   6.056   8.510   4.999 -0.9853 -0.3812 -2.0968
  439MOL0     H59265   5.881   8.629   4.862 -0.4633 -1.3274  1.1717
  440MOL0     O59266   4.097   3.956   0.343 -0.9408  0.1997 -0.6932
  440MOL0     C59267   4.136   4.068   0.370  0.1831 -0.7136  0.0647
  440MOL0     O59268   4.250   4.115   0.326  0.2363 -0.1778 -0.7075
  440MOL0     C59269   4.329   4.062   0.231  0.6428 -0.4006 -1.0961
  440MOL0     C59270   4.275   4.000   0.120 -0.3035  0.2176  0.4207
  440MOL0     C59271   4.360   3.959   0.014  0.0277  0.6058  0.5166
  440MOL0     C59272   4.497   3.987   0.012 -0.0739 -0.2032  0.5624
  440MOL0     O59273   4.575   3.952  -0.092  0.2988  0.1026  1.0697
  440MOL0     C59274   4.581   4.058  -0.190  0.4188  0.1863 -0.0535
  440MOL0     C59275   4.517   4.009  -0.327 -0.1114  0.4045  0.5279
  440MOL0     C59276   4.578   4.081  -0.451  0.2413 -0.0587 -0.3217
  440MOL0     C59277   4.600   3.966  -0.553  0.2315 -0.6504  0.8981
  440MOL0     C59278   4.672   4.019  -0.673 -0.2453  0.1211  0.0125
  440MOL0     C59279   4.697   3.923  -0.782 -0.0053  0.0402  0.5043
  440MOL0     C59280   4.766   4.000  -0.895  0.2406  0.5435  0.5946
  440MOL0     C59281   4.690   4.081  -0.999  0.1841  0.5063 -0.0957
  440MOL0     N59282   4.780   4.128  -1.104  0.1121  0.7030 -0.3262
  440MOL0     C59283   4.903   4.187  -1.088  0.0008 -0.1989  0.3282
  440MOL0     C59284   4.941   4.205  -1.223 -1.0904  0.7659 -0.6729
  440MOL0     C59285   5.054   4.285  -1.266 -0.0707  0.2137  0.2924
  440MOL0     C59286   5.157   4.179  -1.320  0.0723  0.3596 -0.4424
  440MOL0     C59287   5.281   4.263  -1.372 -0.3801  0.1616 -0.6928
  440MOL0     C59288   5.340   4.359  -1.262 -0.4943  0.2430 -0.3089
  440MOL0     O59289   5.480   4.383  -1.291 -0.9771 -0.1409  1.1243
  440MOL0     C59290   5.543   4.465  -1.203 -0.0574  0.4741  0.5764
  440MOL0     C59291   5.653   4.405  -1.152 -0.3826 -0.4521 -0.9094
  440MOL0     C59292   5.732   4.476  -1.049  0.9358  0.5110  0.9274
  440MOL0     C59293   5.863   4.414  -1.003 -0.3820 -1.4504  0.3243
  440MOL0     C59294   5.688   4.608  -1.014 -0.3420  0.8731 -0.4152
  440MOL0     C59295   5.762   4.698  -0.928 -0.8445  0.5191 -0.2145
  440MOL0     O59296   5.692   4.802  -0.871  0.1310 -0.1969 -0.6501
  440MOL0     C59297   5.751   4.922  -0.837  0.5780  0.3341 -0.7661
  440MOL0     C59298   5.704   5.045  -0.876  0.8115  0.0579  0.2083
  440MOL0     C59299   5.763   5.166  -0.838 -0.2716  0.8948  0.1049
  440MOL0     C59300   5.864   5.157  -0.736  1.0529 -0.0155  0.1615
  440MOL0     O59301   5.932   5.265  -0.694 -0.9547  0.4632  1.5499
  440MOL0     C59302   6.017   5.324  -0.801 -0.6597  1.0407 -0.2672
  440MOL0     C59303   6.165   5.310  -0.760 -0.1518  0.4727 -1.3894
  440MOL0     C59304   6.195   5.372  -0.631 -0.6824 -0.0971 -0.6012
  440MOL0     C59305   6.350   5.349  -0.597  0.3593 -0.2654 -0.1961
  440MOL0     C59306   6.399   5.447  -0.494 -0.3971 -0.0287 -0.1782
  440MOL0     C59307   6.555   5.461  -0.526 -0.8127 -0.4678 -0.4715
  440MOL0     C59308   6.649   5.502  -0.407 -0.3600 -0.5660  0.0819
  440MOL0     C59309   6.779   5.578  -0.446 -0.2032  0.7442  0.0699
  440MOL0    Cl59310   6.744   5.748  -0.480  0.4226 -0.0854  0.0899
  440MOL0     C59311   5.910   5.036  -0.687  0.1291  1.0121 -0.3036
  440MOL0     C59312   5.853   4.917  -0.738 -0.3531 -0.6826  0.0463
  440MOL0     O59313   5.884   4.686  -0.906 -0.0491 -0.2452 -0.3143
  440MOL0     C59314   5.575   4.660  -1.065  0.2719 -0.0244 -0.1699
  440MOL0     C59315   5.507   4.599  -1.170 -0.1514 -0.0414  0.0997
  440MOL0     N59316   4.851   4.151  -1.310  0.5884 -0.4207  0.1478
  440MOL0     N59317   4.760   4.109  -1.231 -0.4119  0.0615 -0.1220
  440MOL0     C59318   4.542   4.068   0.119 -0.2931 -0.6532  0.2273
  440MOL0     C59319   4.462   4.098   0.232 -0.4918 -0.7497  0.1137
  440MOL0     C59320   4.056   4.144   0.471  0.3642  0.0633  0.5524
  440MOL0     C59321   3.952   4.077   0.534 -0.0961 -0.8505  0.2404
  440MOL0     C59322   3.872   4.150   0.619 -0.1227 -0.9758  0.4499
  440MOL0     C59323   3.876   4.291   0.629 -0.2277 -0.3094 -0.5983
  440MOL0     O59324   3.789   4.347   0.722 -0.6008  0.7101  0.0839
  440MOL0     C59325   3.787   4.492   0.740  0.3788  0.4807 -0.3972
  440MOL0     C59326   3.659   4.532   0.804 -0.9865 -0.4559  0.5844
  440MOL0     C59327   3.661   4.679   0.868  0.0511  0.5037  0.5870
  440MOL0     C59328   3.689   4.677   1.022 -0.1009  0.2041  1.3589
  440MOL0     C59329   3.592   4.617   1.120  0.1593 -0.3011 -0.5318
  440MOL0     C59330   3.510   4.562   1.194  0.4690 -0.2408 -0.4740
  440MOL0     C59331   3.986   4.352   0.566 -0.1300 -0.7715 -0.2194
  440MOL0     C59332   4.078   4.279   0.493  0.8556 -0.5482  0.0261
  440MOL0     H59333   4.167   3.988   0.121 -0.4080  0.9138 -0.3839
  440MOL0     H59334   4.316   3.905  -0.070 -2.6217  0.0365  2.1476
  440MOL0     H59335   4.542   4.153  -0.152 -2.6937 -1.1712  0.3934
  440MOL0     H59336   4.684   4.092  -0.208 -0.9948  4.1265 -1.9245
  440MOL0     H59337   4.540   3.902  -0.339  2.1658  1.0753 -2.3759
  440MOL0     H59338   4.410   4.026  -0.340 -0.0357 -0.5856 -2.0291
  440MOL0     H59339   4.508   4.158  -0.483  0.3350 -0.0274 -0.4539
  440MOL0     H59340   4.670   4.134  -0.422 -0.6410 -0.3736  3.6406
  440MOL0     H59341   4.652   3.884  -0.503  0.2894 -1.4531 -0.4230
  440MOL0     H59342   4.504   3.931  -0.590 -0.4124 -1.0336  2.8359
  440MOL0     H59343   4.605   4.096  -0.713  0.7185  0.2394 -1.4383
  440MOL0     H59344   4.768   4.056  -0.635 -0.8353  3.0106 -1.0607
  440MOL0     H59345   4.754   3.832  -0.761 -1.4568 -1.0024  0.1314
  440MOL0     H59346   4.599   3.883  -0.811 -1.1057  1.3967  2.1563
  440MOL0     H59347   4.842   4.060  -0.843  0.1067 -0.1004  1.5581
  440MOL0     H59348   4.810   3.917  -0.952 -3.3594  0.6567 -2.7030
  440MOL0     H59349   4.641   4.169  -0.958 -2.2259 -1.3016  1.2091
  440MOL0     H59350   4.609   4.018  -1.038  1.4164 -0.1882 -1.6877
  440MOL0     H59351   4.940   4.234  -0.997  1.2078 -2.2694  0.9533
  440MOL0     H59352   5.012   4.353  -1.341  1.1726  1.6603  0.8634
  440MOL0     H59353   5.094   4.331  -1.175  1.3727 -0.5733  0.0851
  440MOL0     H59354   5.114   4.109  -1.392 -1.9571 -0.5094  1.5092
  440MOL0     H59355   5.192   4.126  -1.231  2.0856  0.1471 -1.3029
  440MOL0     H59356   5.242   4.316  -1.460  0.8024  1.8363 -0.2727
  440MOL0     H59357   5.354   4.187  -1.399 -2.5881 -2.4622  0.2918
  440MOL0     H59358   5.328   4.310  -1.164 -1.8611 -0.6226 -0.8725
  440MOL0     H59359   5.295   4.458  -1.268 -0.7408  0.1694  0.2508
  440MOL0     H59360   5.675   4.305  -1.190 -0.3343  0.4796 -3.5541
  440MOL0     H59361   5.944   4.478  -1.040  0.1523 -2.2551  0.0827
  440MOL0     H59362   5.873   4.424  -0.895  0.2401 -1.7840  0.3008
  440MOL0     H59363   5.883   4.311  -1.034  0.4038 -0.6768 -1.9460
  440MOL0     H59364   5.609   5.043  -0.930  0.1621  0.6834  1.2969
  440MOL0     H59365   5.730   5.266  -0.861  1.9849  1.5647 -0.5207
  440MOL0     H59366   6.005   5.264  -0.891  1.2529 -1.2096  0.8746
  440MOL0     H59367   5.990   5.429  -0.818 -0.6814  1.2593  0.9768
  440MOL0     H59368   6.185   5.202  -0.759  0.9224  0.5856  1.9113
  440MOL0     H59369   6.224   5.359  -0.838 -0.5186  3.8734  0.2889
  440MOL0     H59370   6.135   5.326  -0.552  2.0625 -0.8475  1.1913
  440MOL0     H59371   6.175   5.480  -0.637 -0.0058  0.2545  2.1413
  440MOL0     H59372   6.368   5.245  -0.567  0.6232  0.0412  0.7586
  440MOL0     H59373   6.402   5.379  -0.688 -2.3029  0.5094 -1.5740
  440MOL0     H59374   6.373   5.409  -0.394 -2.0031 -1.1832 -0.9778
  440MOL0     H59375   6.349   5.544  -0.499 -1.4673  0.0147  5.2900
  440MOL0     H59376   6.586   5.363  -0.562 -0.3551  0.3389 -2.4074
  440MOL0     H59377   6.578   5.520  -0.615  2.1204  1.1423  1.1999
  440MOL0     H59378   6.691   5.410  -0.365  3.7356  0.3783 -1.4897
  440MOL0     H59379   6.597   5.562  -0.331  1.0883 -2.1562  2.4815
  440MOL0     H59380   6.833   5.533  -0.530  3.2560  0.2228  2.3679
  440MOL0     H59381   6.860   5.575  -0.373 -1.1532  1.2872  1.1871
  440MOL0     H59382   5.995   5.029  -0.619  1.4029 -1.7457 -1.9499
  440MOL0     H59383   5.886   4.820  -0.702 -2.3678 -1.3279  0.2468
  440MOL0     H59384   5.540   4.761  -1.044 -0.7425 -0.2530 -0.6828
  440MOL0     H59385   5.420   4.645  -1.215  0.5528  1.1992 -0.0527
  440MOL0     H59386   4.642   4.109   0.115 -0.2164 -0.9120 -3.0639
  440MOL0     H59387   4.499   4.167   0.307 -1.1074  1.6888 -1.6988
  440MOL0     H59388   3.921   3.974   0.520  1.6106 -1.1393 -2.0901
  440MOL0     H59389   3.783   4.105   0.663  0.1070 -0.1425  1.8079
  440MOL0     H59390   3.872   4.524   0.801 -0.6599  1.2560  0.6902
  440MOL0     H59391   3.793   4.561   0.655 -3.1869  2.2672  0.5821
  440MOL0     H59392   3.622   4.468   0.884 -4.4044  1.1497  0.4346
  440MOL0     H59393   3.576   4.536   0.733 -2.1836  0.3416  1.9684
  440MOL0     H59394   3.569   4.733   0.843  0.5674  0.9783 -0.3671
  440MOL0     H59395   3.736   4.738   0.815 -0.0736  0.1250 -0.0182
  440MOL0     H59396   3.686   4.786   1.026 -0.2366  0.3422 -1.0379
  440MOL0     H59397   3.789   4.636   1.038  1.2352  0.8109 -3.6184
  440MOL0     H59398   3.427   4.525   1.250 -1.9691  0.8422 -3.1354
  440MOL0     H59399   4.013   4.457   0.573 -0.9247 -0.5001 -1.0483
  440MOL0     H59400   4.160   4.318   0.434 -0.6213 -2.0305 -3.3170
  441MOL0     O59401   2.687   6.063   9.476 -0.2173 -0.1787  0.0502
  441MOL0     C59402   2.674   5.991   9.378  0.1354 -0.3814 -0.5180
  441MOL0     O59403   2.685   6.027   9.249  0.4560  0.2123 -0.1259
  441MOL0     C59404   2.732   6.152   9.223 -0.3703 -0.1372  0.3228
  441MOL0     C59405   2.647   6.264   9.239 -0.1308  0.2729 -0.7171
  441MOL0     C59406   2.705   6.394   9.236 -0.7363  0.6072 -0.6567
  441MOL0     C59407   2.838   6.419   9.197  0.1261  0.1977  0.5400
  441MOL0     O59408   2.884   6.550   9.170  0.2557 -0.1025  0.2388
  441MOL0     C59409   3.025   6.585   9.181  0.1390 -0.0679 -0.1069
  441MOL0     C59410   3.054   6.723   9.129 -1.7935  0.3425  0.0957
  441MOL0     C59411   3.013   6.734   8.977 -0.2242  0.1999  0.0397
  441MOL0     C59412   3.001   6.885   8.938  0.2514  0.6262 -1.2283
  441MOL0     C59413   2.944   6.911   8.799  0.3844 -0.6696  0.0122
  441MOL0     C59414   2.884   7.051   8.780  0.1925  0.2884  0.3470
  441MOL0     C59415   2.851   7.088   8.640  0.2342 -0.5735 -0.0048
  441MOL0     C59416   2.968   7.133   8.556 -0.6779 -0.0356 -0.9278
  441MOL0     N59417   2.918   7.177   8.430 -0.0267 -0.6864  0.8280
  441MOL0     C59418   2.912   7.107   8.311  0.7281  0.2183  0.3034
  441MOL0     C59419   2.880   7.205   8.222 -0.0116 -0.3235 -0.2832
  441MOL0     C59420   2.859   7.191   8.075  0.0869 -0.8031 -0.1781
  441MOL0     C59421   2.710   7.150   8.048 -0.6873  0.1856 -0.1160
  441MOL0     C59422   2.680   7.191   7.900  0.2355  0.5039  0.1015
  441MOL0     C59423   2.795   7.131   7.805  0.6623  0.1717  0.3759
  441MOL0     O59424   2.724   7.119   7.674  0.7324 -1.0290 -0.1393
  441MOL0     C59425   2.804   7.129   7.562  0.1408 -0.5856  1.1752
  441MOL0     C59426   2.759   7.200   7.448 -0.3507 -0.7835  0.5717
  441MOL0     C59427   2.831   7.215   7.330  0.3382  0.1983 -0.3912
  441MOL0     C59428   2.763   7.280   7.218 -0.7806 -0.9430 -0.2313
  441MOL0     C59429   2.947   7.147   7.309  0.3580 -0.4590  0.1496
  441MOL0     C59430   3.032   7.162   7.186  0.2712  1.1359  0.0999
  441MOL0     O59431   3.084   7.282   7.152  0.9152 -0.0857 -0.8500
  441MOL0     C59432   3.116   7.301   7.022 -1.2123 -0.2280  0.2015
  441MOL0     C59433   3.011   7.319   6.933 -0.2011 -0.6534  1.0973
  441MOL0     C59434   3.035   7.346   6.797  0.0103  0.5551  0.5442
  441MOL0     C59435   3.164   7.360   6.750  1.0561  0.0472  1.0968
  441MOL0     O59436   3.165   7.405   6.619  0.2193 -0.4903 -0.6620
  441MOL0     C59437   3.284   7.374   6.547 -0.6654  0.3402 -0.0249
  441MOL0     C59438   3.263   7.372   6.404  0.4623 -0.2176  0.0787
  441MOL0     C59439   3.178   7.259   6.351  0.6969 -1.3669 -0.3113
  441MOL0     C59440   3.182   7.253   6.195  0.0533 -0.5681 -0.1926
  441MOL0     C59441   3.121   7.125   6.138 -0.3036  0.8496  0.0932
  441MOL0     C59442   3.143   7.127   5.991 -0.1607  0.7190 -0.8570
  441MOL0     C59443   3.289   7.085   5.955  0.3963 -0.4814  0.1378
  441MOL0     C59444   3.303   6.981   5.836 -0.0573  0.2040 -0.7389
  441MOL0    Cl59445   3.200   7.017   5.687  0.0608  0.2824 -0.4614
  441MOL0     C59446   3.275   7.343   6.835  0.2634  0.1886  0.0945
  441MOL0     C59447   3.244   7.315   6.971 -0.1950 -0.8938 -0.0205
  441MOL0     O59448   3.056   7.058   7.119  0.1187 -0.4656 -0.5700
  441MOL0     C59449   2.996   7.070   7.414  0.3120  0.2911  0.5237
  441MOL0     C59450   2.922   7.058   7.538  0.2111 -0.6466 -0.2305
  441MOL0     N59451   2.859   7.331   8.285  0.0932  0.2131 -0.2009
  441MOL0     N59452   2.883   7.309   8.407  0.1984  1.3394 -0.1698
  441MOL0     C59453   2.910   6.302   9.159  0.3134 -0.8006 -0.7589
  441MOL0     C59454   2.858   6.169   9.176 -0.1295  0.4047 -0.4360
  441MOL0     C59455   2.652   5.852   9.403 -0.4973  0.3403 -0.9384
  441MOL0     C59456   2.670   5.792   9.527  0.6542  0.5600 -0.7983
  441MOL0     C59457   2.647   5.652   9.536 -0.8168 -0.1611 -0.2365
  441MOL0     C59458   2.605   5.577   9.430  0.8661 -0.0877 -0.2739
  441MOL0     O59459   2.597   5.436   9.439 -0.2106 -0.7219  0.1169
  441MOL0     C59460   2.535   5.358   9.334  0.8026 -0.2739  0.3963
  441MOL0     C59461   2.630   5.293   9.237 -0.3767  0.4093  0.3652
  441MOL0     C59462   2.549   5.271   9.108 -1.1740  1.3537  0.3184
  441MOL0     C59463   2.650   5.222   9.001 -0.1916  0.6757 -0.5845
  441MOL0     C59464   2.599   5.260   8.871  0.0836 -0.5904 -0.1748
  441MOL0     C59465   2.549   5.295   8.767  0.8661 -0.5994  0.0806
  441MOL0     C59466   2.594   5.638   9.302 -0.1107 -0.5223 -0.0637
  441MOL0     C59467   2.620   5.775   9.290  0.3113  0.8450  0.2329
  441MOL0     H59468   2.543   6.253   9.266 -0.8147  1.3945 -2.7176
  441MOL0     H59469   2.640   6.481   9.238 -0.6632  0.6426  0.2882
  441MOL0     H59470   3.054   6.574   9.286  0.9356  0.1156 -0.2975
  441MOL0     H59471   3.090   6.519   9.123 -0.4834 -0.6780 -0.1151
  441MOL0     H59472   3.015   6.795   9.201  0.8278 -0.1273  2.1388
  441MOL0     H59473   3.162   6.741   9.128 -1.1573 -2.0672 -5.0852
  441MOL0     H59474   3.107   6.696   8.934 -0.1006 -2.7178  2.5321
  441MOL0     H59475   2.924   6.674   8.957 -0.1306  0.1343 -0.1808
  441MOL0     H59476   2.938   6.930   9.015  0.3008  1.9948 -1.9491
  441MOL0     H59477   3.101   6.927   8.956  0.2190 -0.6920  3.1380
  441MOL0     H59478   3.023   6.903   8.723 -1.8661 -1.9426 -2.3834
  441MOL0     H59479   2.873   6.828   8.785  0.4974 -0.4906 -2.0210
  441MOL0     H59480   2.794   7.061   8.840 -0.2675 -2.9573  0.3652
  441MOL0     H59481   2.967   7.114   8.815 -0.3723  0.9538  0.5176
  441MOL0     H59482   2.812   7.006   8.579  3.1374  1.0390 -4.5209
  441MOL0     H59483   2.776   7.168   8.643  0.4998 -0.2250  4.8889
  441MOL0     H59484   3.036   7.050   8.537 -0.6550  0.2667 -2.2464
  441MOL0     H59485   3.021   7.216   8.605  1.7759 -3.2399  2.3655
  441MOL0     H59486   2.943   7.005   8.294  1.2208  0.3934  0.1272
  441MOL0     H59487   2.885   7.291   8.040  0.2068  0.4005  3.0091
  441MOL0     H59488   2.920   7.109   8.036  1.8192 -0.9943  2.6205
  441MOL0     H59489   2.640   7.200   8.115 -0.3450  1.7638 -0.8759
  441MOL0     H59490   2.708   7.041   8.056  0.4389  0.0373 -1.3966
  441MOL0     H59491   2.678   7.300   7.891 -1.6798  0.7932  2.6997
  441MOL0     H59492   2.583   7.144   7.880 -1.6394  3.6381  1.0416
  441MOL0     H59493   2.823   7.028   7.828 -1.5823 -0.7470 -0.6963
  441MOL0     H59494   2.883   7.195   7.801  1.8928 -1.5197 -1.1713
  441MOL0     H59495   2.668   7.255   7.472  0.2316  0.0346  0.9462
  441MOL0     H59496   2.822   7.369   7.193  3.2161 -2.8629  1.4374
  441MOL0     H59497   2.768   7.209   7.135 -0.1233 -0.9587 -0.1814
  441MOL0     H59498   2.658   7.307   7.235 -0.3175  1.0463 -0.2791
  441MOL0     H59499   2.909   7.302   6.968 -0.4123  0.0779  0.8592
  441MOL0     H59500   2.944   7.341   6.737 -0.2315  0.7246  0.8937
  441MOL0     H59501   3.369   7.439   6.572 -1.0379 -0.0466  2.5495
  441MOL0     H59502   3.318   7.274   6.574 -0.3304  0.2152 -0.8712
  441MOL0     H59503   3.208   7.460   6.369 -2.0554 -2.7683 -3.0058
  441MOL0     H59504   3.362   7.364   6.358 -1.3685  2.5330 -5.3451
  441MOL0     H59505   3.077   7.286   6.381  1.2873  0.8688 -0.1347
  441MOL0     H59506   3.204   7.161   6.394 -1.2779 -1.6866  0.2316
  441MOL0     H59507   3.119   7.333   6.155 -1.7108 -0.6249  2.2463
  441MOL0     H59508   3.286   7.259   6.162  1.0896  0.8990  2.9637
  441MOL0     H59509   3.014   7.129   6.163 -0.3991  1.0523 -0.3264
  441MOL0     H59510   3.189   7.053   6.183  1.1360 -0.7962 -4.1433
  441MOL0     H59511   3.084   7.044   5.950  0.3551 -0.9342  1.5302
  441MOL0     H59512   3.118   7.226   5.953  1.1209  0.6918 -1.8341
  441MOL0     H59513   3.344   7.043   6.040  2.0272 -0.5000 -0.8689
  441MOL0     H59514   3.346   7.170   5.916  3.5715 -2.9442 -1.1123
  441MOL0     H59515   3.285   6.879   5.871  0.6903 -0.7853 -3.0492
  441MOL0     H59516   3.409   6.976   5.809  0.1084 -2.3957  0.1481
  441MOL0     H59517   3.380   7.351   6.807 -0.0994 -1.2965 -1.9758
  441MOL0     H59518   3.325   7.300   7.041  0.7462  1.5971 -0.4545
  441MOL0     H59519   3.086   7.012   7.394  1.9863  2.9569 -0.1717
  441MOL0     H59520   2.964   6.987   7.608  0.6420 -2.9016 -2.6477
  441MOL0     H59521   3.007   6.310   9.111  0.8929  1.0051  0.6084
  441MOL0     H59522   2.924   6.083   9.166  3.5024  2.6610  1.7801
  441MOL0     H59523   2.707   5.841   9.616  0.5929  0.9782 -0.9999
  441MOL0     H59524   2.669   5.619   9.637  0.4144  3.1869  0.7540
  441MOL0     H59525   2.484   5.273   9.380  0.7075 -1.1947 -1.3312
  441MOL0     H59526   2.461   5.411   9.274  0.6575 -3.2688 -2.3206
  441MOL0     H59527   2.656   5.193   9.274  0.7268  0.1363 -1.0896
  441MOL0     H59528   2.713   5.361   9.219  0.2013 -0.4388 -0.2163
  441MOL0     H59529   2.508   5.367   9.075  0.8334  1.7367 -1.2846
  441MOL0     H59530   2.478   5.190   9.123 -0.9334  1.4825  2.3882
  441MOL0     H59531   2.677   5.117   9.019 -2.2666  0.4138  1.4877
  441MOL0     H59532   2.742   5.275   9.025  0.6212 -0.9285 -0.0344
  441MOL0     H59533   2.511   5.307   8.667  0.5702 -0.5511  0.1965
  441MOL0     H59534   2.557   5.581   9.218 -1.0267 -0.6824  0.4300
  441MOL0     H59535   2.592   5.825   9.198  3.3472 -0.3045 -1.4687
  442MOL0     O59536   6.297   7.652   7.539 -0.0913 -0.4833 -0.8856
  442MOL0     C59537   6.268   7.550   7.477  0.3939  0.2614  0.2866
  442MOL0     O59538   6.180   7.452   7.527 -0.1795 -0.1476  0.3468
  442MOL0     C59539   6.080   7.479   7.612  1.0964  0.5586  0.2506
  442MOL0     C59540   5.988   7.590   7.611 -0.1016  0.8753  1.3604
  442MOL0     C59541   5.895   7.592   7.709 -0.0746  0.9257 -0.0577
  442MOL0     C59542   5.875   7.496   7.803  1.1422  0.9968 -0.0839
  442MOL0     O59543   5.771   7.524   7.891 -0.7286 -0.3466 -0.0938
  442MOL0     C59544   5.781   7.478   8.021  0.4462  0.0459  0.2554
  442MOL0     C59545   5.669   7.555   8.088  0.7412 -0.8018  0.5066
  442MOL0     C59546   5.627   7.519   8.226  0.0750  0.4742 -0.3122
  442MOL0     C59547   5.545   7.387   8.226  0.2072 -0.1681  0.0946
  442MOL0     C59548   5.479   7.355   8.365 -0.2586  0.1744 -0.6804
  442MOL0     C59549   5.379   7.233   8.348  0.1228 -1.2117 -0.4840
  442MOL0     C59550   5.307   7.211   8.486  0.1310  0.3817  1.4067
  442MOL0     C59551   5.206   7.106   8.451 -0.7354 -0.2776  0.1029
  442MOL0     N59552   5.114   7.059   8.551  0.7575 -0.8893 -0.1985
  442MOL0     C59553   5.144   6.967   8.649  0.4340 -0.0049 -0.5881
  442MOL0     C59554   5.017   6.948   8.712 -0.3602 -0.3152  0.7027
  442MOL0     C59555   4.988   6.850   8.828 -0.1195  0.3562  0.0531
  442MOL0     C59556   4.851   6.863   8.898 -0.2841 -0.7234 -0.5146
  442MOL0     C59557   4.858   6.811   9.040  0.5170  0.0386  0.1301
  442MOL0     C59558   4.715   6.775   9.072  1.4832  0.7267 -1.3568
  442MOL0     O59559   4.717   6.699   9.189 -0.4044 -0.0139  0.2593
  442MOL0     C59560   4.599   6.644   9.236  0.3610  0.1477 -0.6422
  442MOL0     C59561   4.613   6.541   9.338  0.7852 -1.1242  1.4752
  442MOL0     C59562   4.502   6.478   9.383 -0.2778  0.0469  0.7106
  442MOL0     C59563   4.512   6.367   9.480  0.4674 -0.1571  1.0681
  442MOL0     C59564   4.372   6.518   9.330  0.9392  0.3568  0.9242
  442MOL0     C59565   4.244   6.453   9.376 -1.0448 -0.9278 -0.2088
  442MOL0     O59566   4.231   6.422   9.502  0.8125 -0.6424  0.6456
  442MOL0     C59567   4.141   6.323   9.525  0.1300 -0.7692  0.2336
  442MOL0     C59568   4.080   6.322   9.652  0.5309 -0.2276 -0.6852
  442MOL0     C59569   4.000   6.218   9.693 -0.0197 -0.7390  1.0730
  442MOL0     C59570   3.999   6.100   9.616  0.0580 -0.2216  0.6277
  442MOL0     O59571   3.938   5.984   9.646 -0.1536 -0.5436  0.2188
  442MOL0     C59572   3.876   5.960   9.776  1.0510  0.3310 -0.0462
  442MOL0     C59573   3.966   5.889   9.878  0.6561 -0.3586  0.7331
  442MOL0     C59574   3.899   5.898  10.016  0.0948 -0.5889  0.0168
  442MOL0     C59575   3.974   5.840  10.141 -0.5453 -0.5094 -0.3670
  442MOL0     C59576   4.103   5.904  10.167  0.3285  0.0671 -0.8114
  442MOL0     C59577   4.085   6.047  10.214 -0.0325  0.9903 -0.6660
  442MOL0     C59578   4.203   6.127  10.277  0.0321  0.4922 -0.8548
  442MOL0     C59579   4.314   6.140  10.179  0.4518  0.0150  0.3747
  442MOL0    Cl59580   4.457   6.206  10.272  0.2087 -0.0785  0.3945
  442MOL0     C59581   4.062   6.097   9.493 -0.2499 -0.5317 -0.5537
  442MOL0     C59582   4.135   6.206   9.445  0.7798  2.1574  0.1986
  442MOL0     O59583   4.163   6.465   9.290 -0.3994 -0.0190  0.3277
  442MOL0     C59584   4.363   6.619   9.233 -0.3201 -0.0811 -0.2603
  442MOL0     C59585   4.476   6.682   9.193 -0.1187 -0.4282  0.0003
  442MOL0     N59586   4.921   7.018   8.648 -0.2154  0.9132 -1.1213
  442MOL0     N59587   4.979   7.078   8.555 -0.6575  0.2850  0.0402
  442MOL0     C59588   5.945   7.383   7.788 -0.0756 -0.5107  0.8863
  442MOL0     C59589   6.056   7.382   7.702  0.8800  0.2371  0.3642
  442MOL0     C59590   6.337   7.532   7.346 -0.4058  0.3730 -0.3072
  442MOL0     C59591   6.432   7.619   7.289  0.9108  0.5391 -0.1049
  442MOL0     C59592   6.482   7.590   7.158 -0.2695  0.2778 -0.0526
  442MOL0     C59593   6.457   7.473   7.087  0.0070 -0.6811  0.2009
  442MOL0     O59594   6.528   7.453   6.969  0.3616  1.2082 -0.0621
  442MOL0     C59595   6.541   7.312   6.926  1.1036  0.6373 -0.8049
  442MOL0     C59596   6.640   7.300   6.815 -0.1323 -0.4122  0.1425
  442MOL0     C59597   6.778   7.343   6.866 -0.2467 -0.1678  0.0005
  442MOL0     C59598   6.883   7.350   6.762 -0.4735  0.1595  1.0657
  442MOL0     C59599   6.969   7.227   6.741  1.0042 -0.8944  0.2205
  442MOL0     C59600   7.041   7.132   6.721  0.5715  0.5564 -0.8578
  442MOL0     C59601   6.360   7.383   7.149 -0.0321 -0.0831 -0.0451
  442MOL0     C59602   6.296   7.421   7.270  0.7404  0.0538  0.7583
  442MOL0     H59603   6.001   7.673   7.543  2.1831  0.2151  0.8918
  442MOL0     H59604   5.839   7.684   7.721  0.1252  1.5402 -2.9308
  442MOL0     H59605   5.747   7.374   8.029 -0.8810  0.5906  2.8415
  442MOL0     H59606   5.880   7.512   8.052  1.6584 -0.1377 -3.0125
  442MOL0     H59607   5.695   7.661   8.075  1.6660 -1.1345 -0.5594
  442MOL0     H59608   5.578   7.552   8.028 -0.4496  0.5017  2.1409
  442MOL0     H59609   5.722   7.513   8.279  0.7320  0.5417 -1.4608
  442MOL0     H59610   5.563   7.596   8.270  0.0130  0.2998 -0.0884
  442MOL0     H59611   5.468   7.395   8.148  1.1191  2.4631 -0.6466
  442MOL0     H59612   5.606   7.301   8.198 -1.3725 -2.0496  2.0309
  442MOL0     H59613   5.552   7.334   8.443 -0.7672 -1.1347 -0.5341
  442MOL0     H59614   5.419   7.440   8.399 -1.5696 -1.0471  0.1372
  442MOL0     H59615   5.305   7.255   8.270  0.8303  2.5992 -0.2981
  442MOL0     H59616   5.433   7.143   8.319  0.2685 -1.5937  0.8970
  442MOL0     H59617   5.387   7.181   8.554  0.8948 -0.9163  0.0109
  442MOL0     H59618   5.263   7.301   8.529  1.1113 -0.1222  3.6102
  442MOL0     H59619   5.266   7.022   8.415 -3.3371 -3.4356  2.4186
  442MOL0     H59620   5.146   7.141   8.366 -0.6146  2.8032  1.1668
  442MOL0     H59621   5.243   6.934   8.681 -0.3188 -2.4811 -0.6528
  442MOL0     H59622   4.989   6.748   8.789 -1.7776 -0.0317  0.9340
  442MOL0     H59623   5.064   6.878   8.901 -1.6143  1.1697  1.3545
  442MOL0     H59624   4.764   6.832   8.839 -3.3297  1.4420  2.4713
  442MOL0     H59625   4.840   6.971   8.905  2.4041 -0.1879 -2.5341
  442MOL0     H59626   4.905   6.884   9.106 -2.9086  1.6125  1.0748
  442MOL0     H59627   4.915   6.717   9.043  1.9931  0.8272 -1.3578
  442MOL0     H59628   4.666   6.720   8.991  1.5739 -0.0735 -0.8835
  442MOL0     H59629   4.657   6.864   9.095  1.9678  1.3475 -2.4643
  442MOL0     H59630   4.711   6.519   9.378  0.9309  1.0542  2.4772
  442MOL0     H59631   4.468   6.281   9.430  1.5583  0.3435 -0.8707
  442MOL0     H59632   4.614   6.338   9.507  0.1551 -3.0804 -0.4721
  442MOL0     H59633   4.444   6.392   9.562 -0.7041 -1.0548  0.4017
  442MOL0     H59634   4.094   6.410   9.714 -2.9442  0.3352 -0.5172
  442MOL0     H59635   3.954   6.209   9.791 -0.7839 -1.2839  0.6772
  442MOL0     H59636   3.831   6.048   9.822 -0.8094 -0.6859  0.1996
  442MOL0     H59637   3.788   5.899   9.753 -2.5467  4.7603  0.5159
  442MOL0     H59638   3.976   5.786   9.842 -3.3965 -1.4394  2.0923
  442MOL0     H59639   4.059   5.942   9.899 -1.3254  3.0025  1.8981
  442MOL0     H59640   3.798   5.858  10.002  0.1974  0.0439 -3.5246
  442MOL0     H59641   3.886   6.003  10.041  3.7717  0.2101 -0.8923
  442MOL0     H59642   3.914   5.853  10.231 -1.6601  0.0495 -1.1658
  442MOL0     H59643   4.008   5.737  10.135  1.3689  0.0022  0.8456
  442MOL0     H59644   4.165   5.915  10.077  0.3134  4.2583 -0.5392
  442MOL0     H59645   4.152   5.854  10.250  0.7505  1.5033 -0.1577
  442MOL0     H59646   4.066   6.114  10.130 -1.2992  0.3673 -0.8929
  442MOL0     H59647   4.000   6.036  10.282 -1.4908 -0.8745 -2.6635
  442MOL0     H59648   4.237   6.062  10.359  0.7234  1.6440 -0.2058
  442MOL0     H59649   4.175   6.227  10.311 -4.1957 -0.3756 -1.2863
  442MOL0     H59650   4.293   6.202  10.091  4.3717 -1.3645 -1.7515
  442MOL0     H59651   4.350   6.040  10.152 -1.2754 -0.0115 -2.3127
  442MOL0     H59652   4.052   6.013   9.424 -2.1717 -0.8714  0.0694
  442MOL0     H59653   4.179   6.198   9.346 -0.0400 -2.9393 -0.0029
  442MOL0     H59654   4.273   6.634   9.174 -0.1717 -0.0402 -0.4766
  442MOL0     H59655   4.449   6.744   9.108  0.1439 -0.7275 -0.3025
  442MOL0     H59656   5.933   7.307   7.865 -1.0501  0.7735  2.0409
  442MOL0     H59657   6.132   7.305   7.696  1.2349  0.6071 -0.0862
  442MOL0     H59658   6.467   7.710   7.337  1.7540  0.4038 -0.4461
  442MOL0     H59659   6.564   7.651   7.121  0.8633 -1.6281 -0.8492
  442MOL0     H59660   6.581   7.260   7.014 -1.3362  1.5786  1.0009
  442MOL0     H59661   6.446   7.267   6.896  2.7219 -1.9333 -2.4329
  442MOL0     H59662   6.605   7.364   6.733 -2.5817 -1.3422  0.3636
  442MOL0     H59663   6.646   7.196   6.782  2.0826 -0.8685  1.7753
  442MOL0     H59664   6.807   7.270   6.942  0.8856 -2.2621 -2.3008
  442MOL0     H59665   6.756   7.438   6.916 -3.5282  0.3433 -2.0622
  442MOL0     H59666   6.940   7.441   6.781  0.2046 -0.0975  0.2997
  442MOL0     H59667   6.835   7.355   6.663 -0.5114 -0.6062  1.0365
  442MOL0     H59668   7.089   7.038   6.710 -0.3629  0.0685 -0.9146
  442MOL0     H59669   6.325   7.294   7.098  1.5226 -1.5878  1.4031
  442MOL0     H59670   6.207   7.365   7.297 -2.9949  1.7948 -5.7722
  443MOL0     O59671   4.237  10.139   5.119 -0.8471  0.0778 -0.2240
  443MOL0     C59672   4.180  10.128   5.007 -0.5976  1.0671 -0.8297
  443MOL0     O59673   4.045  10.085   5.002  0.0281 -0.3901  0.0219
  443MOL0     C59674   3.993  10.051   5.125  0.9572 -0.6122 -0.3842
  443MOL0     C59675   3.929  10.146   5.210  0.4235  0.7857  0.0603
  443MOL0     C59676   3.890  10.104   5.338  0.3552 -0.1001 -0.6367
  443MOL0     C59677   3.912   9.973   5.388 -0.5137  0.3934 -0.8878
  443MOL0     O59678   3.883   9.924   5.517  0.2144 -1.1067  0.1774
  443MOL0     C59679   3.746   9.954   5.551  1.0304  0.2959  0.0919
  443MOL0     C59680   3.722   9.857   5.674 -0.1903 -0.2960 -0.3705
  443MOL0     C59681   3.810   9.901   5.798  0.2462  0.4570  0.9029
  443MOL0     C59682   3.844   9.796   5.898  0.3173 -0.2255 -0.0686
  443MOL0     C59683   3.727   9.724   5.959  0.3812 -0.3718 -0.1052
  443MOL0     C59684   3.625   9.803   6.041 -0.8022 -0.8477 -0.4166
  443MOL0     C59685   3.506   9.723   6.087  0.7194  0.2608  0.8425
  443MOL0     C59686   3.417   9.670   5.968  0.8484  0.2479  0.9254
  443MOL0     N59687   3.338   9.552   6.014 -0.3557  0.6611  0.9866
  443MOL0     C59688   3.359   9.422   5.979  0.7839  0.2358 -0.2188
  443MOL0     C59689   3.277   9.352   6.064  0.4093 -0.9571 -0.6423
  443MOL0     C59690   3.267   9.205   6.063 -0.3423  0.2596  0.1726
  443MOL0     C59691   3.147   9.160   5.972  0.2660  0.2347 -0.5602
  443MOL0     C59692   3.142   9.225   5.838 -0.1495 -0.1825 -0.1615
  443MOL0     C59693   3.011   9.193   5.760 -1.0557  0.9223 -0.7702
  443MOL0     O59694   2.886   9.194   5.836  0.3980  0.1245 -0.0390
  443MOL0     C59695   2.775   9.128   5.775 -0.2540  0.2449 -0.4436
  443MOL0     C59696   2.738   9.157   5.640 -0.0475 -0.6760 -0.5763
  443MOL0     C59697   2.635   9.085   5.569  0.3729 -0.3456 -0.7514
  443MOL0     C59698   2.613   9.132   5.427  0.1084  0.0695  0.0463
  443MOL0     C59699   2.558   8.989   5.650 -0.9827 -0.1284 -0.3813
  443MOL0     C59700   2.433   8.925   5.591  0.0236  0.1251 -0.6272
  443MOL0     O59701   2.432   8.918   5.455 -0.1364  0.8798  0.3947
  443MOL0     C59702   2.403   8.800   5.390  0.5909 -0.5576 -0.8812
  443MOL0     C59703   2.360   8.674   5.453  0.5904 -0.1499 -0.8675
  443MOL0     C59704   2.339   8.561   5.382 -0.6239  0.5065 -0.0978
  443MOL0     C59705   2.353   8.558   5.237  0.8683 -0.0844 -0.0409
  443MOL0     O59706   2.345   8.438   5.159 -0.2888  1.4099  0.0313
  443MOL0     C59707   2.317   8.313   5.231  0.2761  0.0502  0.2000
  443MOL0     C59708   2.178   8.295   5.291 -0.3089  0.3693  0.4662
  443MOL0     C59709   2.082   8.302   5.175 -0.6708 -0.2062  0.0316
  443MOL0     C59710   1.938   8.268   5.225 -0.0921 -0.1231  0.0432
  443MOL0     C59711   1.862   8.214   5.106 -0.3273  0.1567  0.7199
  443MOL0     C59712   1.746   8.124   5.141  0.3463 -0.9900  0.3534
  443MOL0     C59713   1.664   8.049   5.020  0.8910  0.5773 -0.4759
  443MOL0     C59714   1.741   7.957   4.929 -0.1677  0.9048 -0.1236
  443MOL0    Cl59715   1.865   7.855   4.995 -0.5659 -0.2664 -0.1965
  443MOL0     C59716   2.390   8.682   5.182 -0.0416  0.5036  0.0747
  443MOL0     C59717   2.423   8.798   5.257  0.1704  0.5158 -0.2322
  443MOL0     O59718   2.340   8.885   5.662 -0.7249  0.5625 -0.9207
  443MOL0     C59719   2.602   8.961   5.779  0.2849  0.1736 -0.3345
  443MOL0     C59720   2.709   9.022   5.846 -0.5226 -0.8773 -0.2928
  443MOL0     N59721   3.207   9.445   6.146 -0.1547 -0.9144  1.1081
  443MOL0     N59722   3.247   9.563   6.112  1.3883 -0.6862 -0.2635
  443MOL0     C59723   3.985   9.883   5.302 -0.4928  0.2437 -0.1792
  443MOL0     C59724   4.003   9.922   5.166 -0.7478  0.5058  0.2515
  443MOL0     C59725   4.244  10.174   4.883 -0.4229  0.7616  0.5301
  443MOL0     C59726   4.375  10.224   4.887 -0.0240  0.4339 -1.2923
  443MOL0     C59727   4.434  10.284   4.781  0.3550 -0.0280  0.2451
  443MOL0     C59728   4.367  10.290   4.657  0.4062  0.1730  1.3272
  443MOL0     O59729   4.418  10.343   4.536  0.2932  0.8233 -0.0650
  443MOL0     C59730   4.532  10.430   4.545  1.0667  0.2322 -0.3218
  443MOL0     C59731   4.570  10.490   4.409  0.1494  0.1826 -0.1748
  443MOL0     C59732   4.703  10.570   4.418  0.8451  0.0749  0.1594
  443MOL0     C59733   4.758  10.603   4.282 -0.3105 -0.2998 -0.2530
  443MOL0     C59734   4.899  10.651   4.278  0.4199  0.2745  0.1405
  443MOL0     C59735   5.016  10.688   4.300  1.2067 -0.3821 -0.2434
  443MOL0     C59736   4.235  10.237   4.645 -0.1563 -0.3178 -0.1573
  443MOL0     C59737   4.177  10.179   4.760 -0.3739  0.0813 -0.4344
  443MOL0     H59738   3.914  10.249   5.181 -3.9465  0.5105  0.6524
  443MOL0     H59739   3.841  10.173   5.405  0.4664  0.3064 -0.9699
  443MOL0     H59740   3.741  10.058   5.584  0.0387  0.4926 -0.6189
  443MOL0     H59741   3.664   9.941   5.480  0.4713 -1.2053  0.9638
  443MOL0     H59742   3.620   9.851   5.714  1.7870 -2.9280  5.3014
  443MOL0     H59743   3.761   9.760   5.641 -2.7224 -0.3033 -3.9753
  443MOL0     H59744   3.899   9.960   5.777 -0.1792  0.8604  0.1815
  443MOL0     H59745   3.743   9.970   5.851 -0.9895 -0.0574  0.0611
  443MOL0     H59746   3.902   9.729   5.834 -1.1086 -0.7747 -0.8292
  443MOL0     H59747   3.891   9.841   5.986 -0.0794  0.4513 -0.1963
  443MOL0     H59748   3.677   9.667   5.879  0.2799 -0.4550  0.0182
  443MOL0     H59749   3.763   9.651   6.031 -0.1852 -0.3214  0.2300
  443MOL0     H59750   3.679   9.851   6.124  1.1345 -1.5769 -1.1941
  443MOL0     H59751   3.587   9.878   5.971 -1.7880 -0.1415  0.8229
  443MOL0     H59752   3.549   9.645   6.151  0.5704 -2.0200 -1.6489
  443MOL0     H59753   3.439   9.771   6.158  0.4098 -1.9141  2.1177
  443MOL0     H59754   3.477   9.639   5.881  0.2503  2.1214 -0.1992
  443MOL0     H59755   3.353   9.749   5.930  1.1297 -0.7654 -1.9446
  443MOL0     H59756   3.422   9.367   5.909  2.4068  2.3101 -0.4576
  443MOL0     H59757   3.362   9.168   6.025  0.4676 -1.8544  3.7719
  443MOL0     H59758   3.254   9.149   6.157 -1.8348 -3.5990 -2.0821
  443MOL0     H59759   3.052   9.195   6.015  1.4497  2.9143  0.0756
  443MOL0     H59760   3.158   9.052   5.964  0.8803  0.3662 -1.7204
  443MOL0     H59761   3.234   9.205   5.783  0.1804  0.6520  0.0562
  443MOL0     H59762   3.147   9.335   5.838 -0.8201 -0.1311  1.3409
  443MOL0     H59763   3.025   9.090   5.724 -1.6416 -0.2950  2.2039
  443MOL0     H59764   3.010   9.262   5.675  0.6606  2.7642  0.6234
  443MOL0     H59765   2.804   9.227   5.590  0.5907 -0.2518  0.8214
  443MOL0     H59766   2.697   9.198   5.404  0.4001 -0.4612 -0.4030
  443MOL0     H59767   2.621   9.048   5.357  2.4387  0.1614  0.1256
  443MOL0     H59768   2.512   9.175   5.422 -1.8344 -3.6232  2.6840
  443MOL0     H59769   2.344   8.667   5.560  0.6424  2.2489 -0.6489
  443MOL0     H59770   2.323   8.470   5.440 -2.4795  0.2208 -0.9755
  443MOL0     H59771   2.339   8.231   5.162  4.6808  2.4366 -1.5656
  443MOL0     H59772   2.397   8.300   5.304 -0.5192 -1.8664  0.8064
  443MOL0     H59773   2.184   8.190   5.317  2.6456  1.1491  3.6023
  443MOL0     H59774   2.144   8.358   5.374 -0.7720  1.5847 -0.5881
  443MOL0     H59775   2.119   8.242   5.092 -2.7255 -1.5664  0.0415
  443MOL0     H59776   2.070   8.400   5.127  1.7998 -1.5376 -3.7556
  443MOL0     H59777   1.949   8.189   5.300  1.3691  2.1214  2.3683
  443MOL0     H59778   1.887   8.349   5.279  0.4494 -0.6723  1.4149
  443MOL0     H59779   1.921   8.148   5.041  0.9225  1.1303  0.8252
  443MOL0     H59780   1.829   8.297   5.043 -0.5953 -0.1447  0.4599
  443MOL0     H59781   1.786   8.056   5.216  1.8482 -1.2044 -0.5848
  443MOL0     H59782   1.667   8.181   5.190  0.5369 -0.1333 -0.3121
  443MOL0     H59783   1.611   8.122   4.958 -1.8534 -0.3397  0.6554
  443MOL0     H59784   1.584   7.996   5.072  2.9337 -0.2283  2.0575
  443MOL0     H59785   1.774   8.019   4.844  2.7365 -2.0558 -1.3916
  443MOL0     H59786   1.675   7.882   4.886  0.9361 -0.4012  0.4038
  443MOL0     H59787   2.409   8.684   5.075  1.8517  4.2682  0.3250
  443MOL0     H59788   2.461   8.890   5.214 -0.5989  0.8863 -0.1389
  443MOL0     H59789   2.536   8.897   5.837  3.7343 -2.0884  1.4619
  443MOL0     H59790   2.746   8.996   5.944  1.7383  0.9719 -0.5829
  443MOL0     H59791   4.003   9.779   5.326  3.1779  0.7687 -0.0336
  443MOL0     H59792   4.036   9.856   5.087 -1.1315 -0.5158  0.9288
  443MOL0     H59793   4.429  10.234   4.981 -2.0322 -0.7840  0.0758
  443MOL0     H59794   4.536  10.316   4.799  0.0304  0.8177  0.6181
  443MOL0     H59795   4.503  10.517   4.605 -0.4100  2.4320 -3.8950
  443MOL0     H59796   4.616  10.376   4.590 -1.0358 -1.4401  1.8371
  443MOL0     H59797   4.488  10.550   4.369  0.7695 -0.0404 -1.8369
  443MOL0     H59798   4.579  10.411   4.334 -3.0662  0.4871 -1.0178
  443MOL0     H59799   4.770  10.496   4.464 -0.4507  0.2554  2.4993
  443MOL0     H59800   4.694  10.662   4.477 -2.0805  0.9400 -1.4861
  443MOL0     H59801   4.705  10.689   4.241  1.3937  0.9028 -0.0137
  443MOL0     H59802   4.756  10.515   4.217  1.5771  0.6823 -1.7625
  443MOL0     H59803   5.117  10.717   4.319  1.2361 -1.0097  0.6111
  443MOL0     H59804   4.188  10.241   4.547 -1.2846  2.2121  0.4145
  443MOL0     H59805   4.077  10.138   4.748 -0.1061 -0.3533 -1.3324
  444MOL0     O59806  10.093   2.847   4.855 -0.7172  0.5233  0.4025
  444MOL0     C59807  10.214   2.843   4.824  1.1783 -0.3153 -0.1342
  444MOL0     O59808  10.304   2.737   4.850 -0.4465 -0.1842  0.0341
  444MOL0     C59809  10.266   2.609   4.876  0.5461 -0.4331  1.0119
  444MOL0     C59810  10.354   2.512   4.935  0.4077  0.8190  0.1584
  444MOL0     C59811  10.305   2.386   4.984  0.6281 -0.7217 -1.4773
  444MOL0     C59812  10.170   2.347   4.971  0.2673 -0.5777 -1.6542
  444MOL0     O59813  10.134   2.226   5.021 -0.1815 -0.2865 -0.0991
  444MOL0     C59814  10.153   2.122   4.928  0.5375  0.4770 -0.4760
  444MOL0     C59815  10.284   2.037   4.962 -0.0707  0.1142 -0.0160
  444MOL0     C59816  10.303   1.935   4.848 -0.3857  0.1145  0.1187
  444MOL0     C59817  10.448   1.862   4.860 -0.4241 -0.2646 -0.1820
  444MOL0     C59818  10.484   1.801   5.004 -0.8002 -0.5569 -0.4319
  444MOL0     C59819  10.614   1.719   4.996  1.2653 -0.0161  0.1171
  444MOL0     C59820  10.739   1.803   4.977  0.0445  0.0908  0.2571
  444MOL0     C59821  10.866   1.731   4.988  0.2928 -0.9408 -0.6187
  444MOL0     N59822  10.897   1.675   5.120  0.4414 -0.4107  0.1030
  444MOL0     C59823  10.856   1.731   5.235 -0.3485 -1.1159 -0.0319
  444MOL0     C59824  10.862   1.632   5.333  0.1489  1.2355  0.2152
  444MOL0     C59825  10.817   1.631   5.475 -0.2465 -0.2073  0.0745
  444MOL0     C59826  10.911   1.732   5.545  0.8361 -0.0600  0.2709
  444MOL0     C59827  10.900   1.728   5.696 -0.1149  0.5185 -0.0252
  444MOL0     C59828  10.942   1.863   5.750 -0.6358 -0.6784 -0.5998
  444MOL0     O59829  10.856   1.967   5.693 -1.0467  0.1156  0.0554
  444MOL0     C59830  10.848   2.088   5.754 -0.0208  0.3378  1.0436
  444MOL0     C59831  10.905   2.130   5.873  0.7767  0.3082 -0.4676
  444MOL0     C59832  10.884   2.262   5.922 -1.0028  0.9152 -0.0815
  444MOL0     C59833  10.899   2.291   6.080  0.7747 -0.0734  1.1634
  444MOL0     C59834  10.820   2.356   5.834 -0.3494 -0.0785  0.3200
  444MOL0     C59835  10.826   2.501   5.865 -0.2764 -0.4601 -0.6192
  444MOL0     O59836  10.927   2.546   5.951 -0.0094  0.5944 -0.6022
  444MOL0     C59837  10.935   2.676   6.000 -0.6077 -0.7574  0.1495
  444MOL0     C59838  10.900   2.790   5.925 -0.7595 -0.7010 -0.5606
  444MOL0     C59839  10.952   2.914   5.961  0.0122 -0.0970  0.7659
  444MOL0     C59840  11.006   2.932   6.090  0.9704 -1.3951 -0.6030
  444MOL0     O59841  11.039   3.052   6.146  0.2582 -0.4839  0.0889
  444MOL0     C59842  10.930   3.136   6.175 -0.0661  0.4414  0.1220
  444MOL0     C59843  10.985   3.260   6.240  0.8717 -1.6501  0.0421
  444MOL0     C59844  10.873   3.372   6.239  0.6206 -0.7100  0.0986
  444MOL0     C59845  10.741   3.339   6.304  0.6789 -0.6885  1.0896
  444MOL0     C59846  10.640   3.452   6.297  0.0884 -0.6555  0.1281
  444MOL0     C59847  10.667   3.548   6.405 -0.3933 -0.4916  1.0561
  444MOL0     C59848  10.637   3.688   6.349  0.4151  0.3240 -0.0517
  444MOL0     C59849  10.493   3.705   6.295  0.6818 -0.0929  0.0353
  444MOL0    Cl59850  10.404   3.862   6.317 -0.0979  0.4192 -0.1783
  444MOL0     C59851  11.053   2.817   6.158 -0.0242 -0.0155  0.6529
  444MOL0     C59852  11.021   2.689   6.106  0.5982 -0.0411 -0.9256
  444MOL0     O59853  10.742   2.574   5.817  0.3493  0.0215 -0.2069
  444MOL0     C59854  10.782   2.313   5.714  0.0692 -0.4213  0.4191
  444MOL0     C59855  10.793   2.183   5.674 -0.2805  0.0374  0.7353
  444MOL0     N59856  10.913   1.516   5.266 -0.5226 -0.4020  0.0588
  444MOL0     N59857  10.914   1.538   5.145 -0.7555 -0.5626  0.2704
  444MOL0     C59858  10.084   2.434   4.901  0.2518  0.0044 -0.2062
  444MOL0     C59859  10.129   2.559   4.855 -0.3416  0.3911  0.7715
  444MOL0     C59860  10.262   2.960   4.757 -0.5599  0.6659  0.4329
  444MOL0     C59861  10.401   2.970   4.741 -0.1378 -0.2235  0.3443
  444MOL0     C59862  10.463   3.079   4.678  0.1055 -1.6090 -0.6868
  444MOL0     C59863  10.382   3.185   4.636  0.1263 -0.0469  0.2056
  444MOL0     O59864  10.436   3.302   4.571 -0.3226 -0.0638 -1.1107
  444MOL0     C59865  10.568   3.351   4.588  0.5095  0.5123 -0.8673
  444MOL0     C59866  10.667   3.302   4.478  0.5262  0.0649 -0.2688
  444MOL0     C59867  10.609   3.316   4.336 -0.7361  1.0420  0.4293
  444MOL0     C59868  10.702   3.269   4.231  1.0765 -0.0323  0.5579
  444MOL0     C59869  10.649   3.291   4.099  0.7064  0.3249  0.1423
  444MOL0     C59870  10.611   3.312   3.981 -0.3182  0.5126 -0.1111
  444MOL0     C59871  10.245   3.175   4.649  0.0249  0.9014 -0.0974
  444MOL0     C59872  10.182   3.063   4.712 -0.4441  0.3649 -0.2346
  444MOL0     H59873  10.453   2.554   4.952 -0.0942  3.4790 -2.6229
  444MOL0     H59874  10.368   2.317   5.040 -0.7239 -0.8545 -0.0509
  444MOL0     H59875  10.070   2.053   4.945  0.3771  0.1510 -2.3371
  444MOL0     H59876  10.170   2.155   4.825 -0.8473  1.0931 -0.5434
  444MOL0     H59877  10.372   2.102   4.968  0.1331  0.0586 -1.7015
  444MOL0     H59878  10.256   1.977   5.048  0.6240  2.2570  1.8074
  444MOL0     H59879  10.224   1.860   4.859  1.5648 -1.8798  1.0670
  444MOL0     H59880  10.290   1.982   4.749  0.6430 -0.3708 -0.2597
  444MOL0     H59881  10.450   1.785   4.782 -1.4878  0.4342 -0.9239
  444MOL0     H59882  10.518   1.941   4.832  1.4730 -1.2904  1.4086
  444MOL0     H59883  10.514   1.880   5.074 -1.0457 -0.2873 -0.6297
  444MOL0     H59884  10.398   1.756   5.055  0.6392  0.5019  3.3166
  444MOL0     H59885  10.625   1.660   5.088  0.7466 -0.0353  0.1735
  444MOL0     H59886  10.606   1.643   4.917  0.8484 -0.1084  0.2424
  444MOL0     H59887  10.743   1.838   4.874 -1.8629 -0.2603  0.0166
  444MOL0     H59888  10.735   1.896   5.036  0.3317  1.3148 -1.5696
  444MOL0     H59889  10.945   1.803   4.963 -0.2442  0.2284  0.9472
  444MOL0     H59890  10.870   1.646   4.919  1.1034 -1.2943 -0.1569
  444MOL0     H59891  10.816   1.826   5.271 -0.2214 -0.9495 -0.3278
  444MOL0     H59892  10.719   1.678   5.478 -0.4232 -0.3087 -2.2063
  444MOL0     H59893  10.825   1.527   5.509  3.5812  0.6377  2.3494
  444MOL0     H59894  10.884   1.832   5.511  4.6078  1.9272  2.5206
  444MOL0     H59895  11.018   1.724   5.524  0.9601  1.4183  0.2386
  444MOL0     H59896  10.967   1.648   5.728 -1.9399 -1.4329 -0.8524
  444MOL0     H59897  10.795   1.700   5.709 -0.4573  0.6266 -2.1165
  444MOL0     H59898  11.044   1.866   5.710 -0.0733 -0.9452  0.7731
  444MOL0     H59899  10.935   1.860   5.859 -1.5420  1.3669 -0.5665
  444MOL0     H59900  10.960   2.054   5.927  1.8725  0.5871 -1.1501
  444MOL0     H59901  11.006   2.306   6.096  1.4893  1.8249 -3.5318
  444MOL0     H59902  10.835   2.374   6.110  0.0665 -0.9611  2.1735
  444MOL0     H59903  10.866   2.202   6.134 -1.4626  0.3321  0.5616
  444MOL0     H59904  10.845   2.775   5.833  0.6604 -1.7068 -1.2751
  444MOL0     H59905  10.922   3.004   5.908 -1.2206 -1.1081 -0.3172
  444MOL0     H59906  10.879   3.157   6.080 -0.5732 -3.6667 -0.7047
  444MOL0     H59907  10.853   3.077   6.227  1.9403 -3.6118 -1.0272
  444MOL0     H59908  10.999   3.241   6.347 -3.9851 -0.4351  1.1486
  444MOL0     H59909  11.074   3.296   6.188 -0.6012  1.2601 -0.6932
  444MOL0     H59910  10.851   3.389   6.133  0.2621  1.1807  0.4421
  444MOL0     H59911  10.910   3.464   6.284  0.2960  0.1060 -1.2320
  444MOL0     H59912  10.696   3.262   6.241 -1.3057  2.4344 -1.6946
  444MOL0     H59913  10.770   3.304   6.403 -0.4578 -1.6217  1.1083
  444MOL0     H59914  10.543   3.402   6.297 -0.8571  1.0540 -1.1855
  444MOL0     H59915  10.648   3.495   6.196 -0.5689 -3.6293 -1.2896
  444MOL0     H59916  10.601   3.522   6.488 -2.7888  1.1414 -0.2085
  444MOL0     H59917  10.771   3.541   6.437  0.3047  3.1135  0.0493
  444MOL0     H59918  10.703   3.718   6.267 -0.4549  3.3055  0.2276
  444MOL0     H59919  10.639   3.756   6.436  0.4274 -1.6107  1.5383
  444MOL0     H59920  10.424   3.631   6.335  1.3960 -1.3734 -1.0426
  444MOL0     H59921  10.502   3.689   6.187 -0.3087  0.6094 -0.1667
  444MOL0     H59922  11.112   2.829   6.248 -0.8236 -0.3791  1.2353
  444MOL0     H59923  11.070   2.599   6.142 -0.4848 -0.9622 -1.6846
  444MOL0     H59924  10.750   2.388   5.642  1.2643 -0.1787  0.1161
  444MOL0     H59925  10.756   2.151   5.576 -2.2976 -4.0456  2.5623
  444MOL0     H59926   9.983   2.399   4.883 -0.3566  1.0587  1.0011
  444MOL0     H59927  10.081   2.631   4.788  2.8902  1.9765 -0.0342
  444MOL0     H59928  10.474   2.894   4.767  0.4089  0.0270 -0.4145
  444MOL0     H59929  10.572   3.085   4.677  0.0439  2.6813 -0.5542
  444MOL0     H59930  10.553   3.460   4.587 -1.6452  0.2707 -2.4704
  444MOL0     H59931  10.598   3.316   4.688  2.1117  1.5322 -0.9545
  444MOL0     H59932  10.685   3.197   4.502  2.1171  0.3535 -0.1186
  444MOL0     H59933  10.762   3.355   4.486  0.2869  0.2600  1.7068
  444MOL0     H59934  10.576   3.417   4.309  1.3578  2.1214  1.7045
  444MOL0     H59935  10.517   3.257   4.331  0.1876 -0.4395  0.3861
  444MOL0     H59936  10.729   3.165   4.254  1.3410 -0.9611 -3.2010
  444MOL0     H59937  10.796   3.325   4.228  2.4336 -2.2144 -1.0071
  444MOL0     H59938  10.572   3.299   3.883 -1.0030 -1.2211  0.3514
  444MOL0     H59939  10.189   3.251   4.596  1.3766  1.1213 -1.2403
  444MOL0     H59940  10.074   3.047   4.707 -0.8419  2.7883 -0.5748
  445MOL0     O59941   2.178   5.844   6.621  0.4472  0.2920 -0.1297
  445MOL0     C59942   2.151   5.870   6.740 -0.0850  0.2189  0.4190
  445MOL0     O59943   2.049   5.932   6.788 -0.0520 -0.4125 -0.0345
  445MOL0     C59944   1.954   5.970   6.694  0.1754  0.0566 -0.4535
  445MOL0     C59945   1.971   6.094   6.626 -0.3642  0.2068  0.1537
  445MOL0     C59946   1.872   6.133   6.535  0.1406 -0.2366 -0.4001
  445MOL0     C59947   1.748   6.072   6.530 -0.1864 -0.5367 -0.8231
  445MOL0     O59948   1.650   6.124   6.464 -0.3316 -0.5344  0.0595
  445MOL0     C59949   1.656   6.142   6.320 -0.5418  0.7051  0.1741
  445MOL0     C59950   1.668   6.297   6.298 -0.3978  0.0843  0.6586
  445MOL0     C59951   1.629   6.327   6.154  0.8203 -1.2354  0.9452
  445MOL0     C59952   1.609   6.478   6.106  0.4733  0.7551  0.0118
  445MOL0     C59953   1.739   6.543   6.068 -0.1525 -0.8503 -0.1322
  445MOL0     C59954   1.725   6.698   6.055 -0.0868  0.5216 -0.0570
  445MOL0     C59955   1.854   6.762   6.009 -0.7696  0.2820 -0.1680
  445MOL0     C59956   1.851   6.922   6.013 -0.3266  0.6050  0.7236
  445MOL0     N59957   1.978   6.983   5.965  0.4356 -0.7276  0.3348
  445MOL0     C59958   2.015   6.992   5.837 -0.0258  0.3329 -0.0465
  445MOL0     C59959   2.137   7.041   5.836 -0.0989  1.5779  0.0201
  445MOL0     C59960   2.198   7.075   5.697 -0.6702 -0.6519  0.1662
  445MOL0     C59961   2.348   7.042   5.669  0.1327  1.1922 -0.0569
  445MOL0     C59962   2.376   6.887   5.700 -0.1025 -0.7270  0.5617
  445MOL0     C59963   2.520   6.864   5.699  0.1952 -0.8480 -0.6422
  445MOL0     O59964   2.579   6.930   5.814  0.2172 -0.0658  0.2336
  445MOL0     C59965   2.696   6.887   5.873  0.4830  1.4761  0.2870
  445MOL0     C59966   2.795   6.816   5.803 -0.0981 -0.4272 -0.0776
  445MOL0     C59967   2.920   6.772   5.864 -0.6096  0.0994  0.1676
  445MOL0     C59968   3.029   6.708   5.775  0.5423  0.5467  0.5951
  445MOL0     C59969   2.940   6.796   6.004 -0.7870  0.3342 -0.1400
  445MOL0     C59970   3.062   6.748   6.080 -0.0125  0.0012 -0.7157
  445MOL0     O59971   3.115   6.626   6.037 -0.0448 -0.8593 -0.3512
  445MOL0     C59972   3.241   6.608   6.080  0.4790  0.0500 -1.0522
  445MOL0     C59973   3.345   6.701   6.108  0.8190  0.1948  0.2812
  445MOL0     C59974   3.475   6.654   6.149  0.5341 -1.0979  1.0449
  445MOL0     C59975   3.503   6.515   6.166  0.1462 -0.8575 -0.3178
  445MOL0     O59976   3.620   6.452   6.211 -0.0458 -0.1605 -0.1961
  445MOL0     C59977   3.746   6.525   6.210  0.8751 -0.8993  0.3293
  445MOL0     C59978   3.877   6.450   6.250 -0.7806 -0.1445 -1.2848
  445MOL0     C59979   3.854   6.326   6.345  0.4594 -0.2274  0.0588
  445MOL0     C59980   3.983   6.261   6.408 -0.3834 -0.2522 -0.4147
  445MOL0     C59981   3.937   6.133   6.497 -0.0807 -0.2686 -0.3259
  445MOL0     C59982   3.928   6.147   6.645 -0.4230 -0.1174  0.4447
  445MOL0     C59983   3.840   6.256   6.718  0.3812 -0.1304  0.0776
  445MOL0     C59984   3.915   6.386   6.746 -0.4134  0.0391 -0.0008
  445MOL0    Cl59985   3.822   6.508   6.844 -0.0990  0.1713 -0.1152
  445MOL0     C59986   3.394   6.425   6.141 -0.6760 -0.7252  0.6098
  445MOL0     C59987   3.270   6.472   6.094 -1.2531  0.3366 -0.1849
  445MOL0     O59988   3.092   6.801   6.189 -0.3348  0.4222  0.6836
  445MOL0     C59989   2.846   6.878   6.073 -0.4593  0.4097  0.0727
  445MOL0     C59990   2.728   6.916   6.005 -0.9986  0.0669 -0.5723
  445MOL0     N59991   2.182   7.050   5.973  0.2485 -0.2481 -0.5826
  445MOL0     N59992   2.086   7.006   6.046  0.1047  0.0361 -0.4016
  445MOL0     C59993   1.729   5.951   6.606  0.4870 -0.0225  0.3390
  445MOL0     C59994   1.834   5.899   6.682 -0.6015  1.4232 -0.6835
  445MOL0     C59995   2.261   5.815   6.830 -0.4092 -0.3508  0.1326
  445MOL0     C59996   2.347   5.714   6.787  0.0274  0.5113 -0.0058
  445MOL0     C59997   2.454   5.664   6.863  1.0130  0.3758 -0.0600
  445MOL0     C59998   2.461   5.714   6.996 -1.3436 -0.5984  0.7306
  445MOL0     O59999   2.547   5.668   7.094  0.2384 -1.4473  0.4611
  445MOL0     C60000   2.646   5.579   7.045  0.7166 -0.3158 -0.3564
  445MOL0     C60001   2.588   5.438   7.046 -0.0385 -1.1340 -0.3011
  445MOL0     C60002   2.572   5.384   7.190 -0.1354  0.2546  0.1882
  445MOL0     C60003   2.673   5.411   7.298 -0.7500 -0.9527  0.2295
  445MOL0     C60004   2.657   5.321   7.419 -0.1316  1.2475  0.0261
  445MOL0     C60005   2.646   5.233   7.508 -1.8535 -0.2437 -0.0620
  445MOL0     C60006   2.383   5.824   7.038 -0.6871  0.6437 -1.2478
  445MOL0     C60007   2.286   5.874   6.956 -0.0094  0.0015 -0.2343
  445MOL0     H60008   2.055   6.161   6.638 -1.4573  1.4650  1.1084
  445MOL0     H60009   1.875   6.234   6.496 -0.3896  0.8199  2.1013
  445MOL0     H60010   1.738   6.079   6.284 -3.6289 -3.0082 -1.1185
  445MOL0     H60011   1.570   6.095   6.272 -0.6087 -0.5853  1.4772
  445MOL0     H60012   1.609   6.356   6.369  2.9894  4.6808  0.0984
  445MOL0     H60013   1.773   6.322   6.313 -0.2310 -1.3302  2.0550
  445MOL0     H60014   1.707   6.289   6.087  1.9293  0.2773  1.3385
  445MOL0     H60015   1.533   6.277   6.137 -1.4282  2.7004  1.0568
  445MOL0     H60016   1.543   6.475   6.018  1.9981 -1.2580 -1.1293
  445MOL0     H60017   1.554   6.532   6.184 -1.6758 -1.2816  0.0282
  445MOL0     H60018   1.816   6.523   6.143 -2.5010 -0.7689  2.4539
  445MOL0     H60019   1.778   6.497   5.977 -0.0813 -0.1700 -0.4525
  445MOL0     H60020   1.642   6.717   5.986  1.9240  0.0390 -2.7836
  445MOL0     H60021   1.696   6.739   6.152  1.8785  2.2401 -0.1239
  445MOL0     H60022   1.936   6.731   6.075 -0.6353 -0.5107 -0.7021
  445MOL0     H60023   1.878   6.733   5.907  2.1150  1.0551  0.2057
  445MOL0     H60024   1.850   6.939   6.121  1.8789 -1.4287  1.1377
  445MOL0     H60025   1.767   6.967   5.959  1.4909  2.8966 -0.3689
  445MOL0     H60026   1.943   6.973   5.758 -0.6298 -3.2542  1.1676
  445MOL0     H60027   2.141   7.035   5.613 -1.6764 -0.6524  0.8322
  445MOL0     H60028   2.189   7.184   5.692 -3.5580 -0.4104  4.7717
  445MOL0     H60029   2.406   7.105   5.736  1.2041 -1.8009  2.0336
  445MOL0     H60030   2.377   7.058   5.564  1.2836  2.1008  0.3795
  445MOL0     H60031   2.327   6.817   5.632  0.3173 -0.5162  0.0413
  445MOL0     H60032   2.354   6.866   5.806  2.7302 -3.1929  0.7831
  445MOL0     H60033   2.556   6.896   5.601  2.1219  1.1787  0.6422
  445MOL0     H60034   2.539   6.756   5.703  1.4958 -0.5993  1.9234
  445MOL0     H60035   2.788   6.794   5.697  1.8680  0.0103 -0.3483
  445MOL0     H60036   3.125   6.730   5.823  1.5401  0.5857 -1.3477
  445MOL0     H60037   3.022   6.600   5.790 -2.5650  0.8797  2.3172
  445MOL0     H60038   3.032   6.746   5.673  1.6073 -1.1726 -0.0521
  445MOL0     H60039   3.323   6.807   6.098  0.0944 -0.0788 -1.3565
  445MOL0     H60040   3.552   6.719   6.189  2.4267 -3.4874  1.5097
  445MOL0     H60041   3.754   6.575   6.113  0.3276 -0.6622  0.4042
  445MOL0     H60042   3.747   6.606   6.284  5.1417  2.5756 -2.9625
  445MOL0     H60043   3.940   6.424   6.165  0.0713 -1.3507 -0.3238
  445MOL0     H60044   3.927   6.530   6.307 -2.8962  0.4862 -0.1999
  445MOL0     H60045   3.791   6.255   6.291 -1.3226  0.9472  0.4844
  445MOL0     H60046   3.792   6.364   6.427  2.9799  1.9343  1.1315
  445MOL0     H60047   4.039   6.221   6.323  0.1119 -2.4320  0.8401
  445MOL0     H60048   4.043   6.331   6.466 -3.8528  1.9311  0.8826
  445MOL0     H60049   4.007   6.052   6.473 -0.2876 -0.2254 -1.1030
  445MOL0     H60050   3.840   6.099   6.460 -0.7475 -2.0196  2.6785
  445MOL0     H60051   3.901   6.047   6.679  0.4191 -0.5274 -0.0484
  445MOL0     H60052   4.030   6.158   6.683 -0.2271 -2.2012  0.6053
  445MOL0     H60053   3.811   6.196   6.804  0.7785  0.5339  0.6853
  445MOL0     H60054   3.755   6.272   6.652  0.7667  1.5087 -0.0560
  445MOL0     H60055   3.936   6.428   6.647 -2.8978  1.7158  0.0829
  445MOL0     H60056   4.009   6.362   6.796  0.3207  0.6755 -1.0184
  445MOL0     H60057   3.410   6.318   6.150  0.4666 -0.7144 -0.8560
  445MOL0     H60058   3.190   6.400   6.080 -0.6075 -0.6084  0.8334
  445MOL0     H60059   2.855   6.902   6.178 -2.6760 -0.3454  0.4808
  445MOL0     H60060   2.647   6.960   6.063 -1.7210 -0.5556 -1.0947
  445MOL0     H60061   1.638   5.898   6.582 -0.1319  1.5101 -0.8250
  445MOL0     H60062   1.827   5.816   6.751 -0.1829  2.4087  0.5794
  445MOL0     H60063   2.335   5.679   6.684  3.6882 -0.9520 -0.0748
  445MOL0     H60064   2.518   5.589   6.817  0.3691 -0.7156  0.7798
  445MOL0     H60065   2.686   5.607   6.947  2.9345 -2.0955 -0.0649
  445MOL0     H60066   2.735   5.585   7.109  0.5299 -1.3624  0.0351
  445MOL0     H60067   2.665   5.374   7.002 -0.9247 -0.9704 -2.2084
  445MOL0     H60068   2.495   5.425   6.990 -0.4225 -0.8114  0.2557
  445MOL0     H60069   2.572   5.276   7.169  1.2883  0.3693 -0.4885
  445MOL0     H60070   2.473   5.420   7.221 -0.5119 -0.9224  0.4231
  445MOL0     H60071   2.665   5.515   7.328  0.4992 -0.0585 -2.2818
  445MOL0     H60072   2.772   5.375   7.267 -0.7181 -3.1256  2.5235
  445MOL0     H60073   2.619   5.153   7.574  1.4681 -1.4783  0.0302
  445MOL0     H60074   2.395   5.868   7.137 -0.2995  3.7041 -2.5347
  445MOL0     H60075   2.228   5.957   6.995  3.7176  2.8031 -0.1225
  446MOL0     O60076   2.192   0.903  10.718  0.7936  0.2554 -0.0467
  446MOL0     C60077   2.136   1.018  10.733 -0.2112  0.1332  0.3660
  446MOL0     O60078   2.085   1.088  10.636  0.7185  0.0053  0.1299
  446MOL0     C60079   2.069   1.057  10.501 -0.6944 -0.4166 -0.9746
  446MOL0     C60080   1.988   1.138  10.415 -0.4130  0.0371  1.0441
  446MOL0     C60081   1.951   1.096  10.293  0.7626 -0.6666 -0.5428
  446MOL0     C60082   2.009   0.985  10.241 -0.4744  0.4724 -0.0602
  446MOL0     O60083   1.990   0.942  10.110 -0.4077 -0.5526 -0.2983
  446MOL0     C60084   1.930   1.039  10.016 -0.9482 -0.0222  0.4080
  446MOL0     C60085   1.943   0.995   9.863  0.1958 -0.6763  0.8238
  446MOL0     C60086   1.941   1.122   9.764 -0.5445 -0.2450 -0.0505
  446MOL0     C60087   1.800   1.145   9.724  0.0127 -0.0158  0.2810
  446MOL0     C60088   1.782   1.280   9.654  0.5926  0.8684  0.7092
  446MOL0     C60089   1.645   1.283   9.580 -0.0356 -0.1385  0.4049
  446MOL0     C60090   1.608   1.428   9.549  0.0592 -0.1217 -0.4726
  446MOL0     C60091   1.704   1.499   9.451  0.5971  0.4368  0.3771
  446MOL0     N60092   1.621   1.542   9.337  0.2738  0.0977 -0.6655
  446MOL0     C60093   1.580   1.670   9.310  0.5419 -0.4417  0.1834
  446MOL0     C60094   1.541   1.671   9.176  0.3646  0.0330 -0.3982
  446MOL0     C60095   1.493   1.788   9.092 -0.2393  0.6290 -0.5971
  446MOL0     C60096   1.613   1.865   9.045 -0.5107  0.7921 -0.7001
  446MOL0     C60097   1.599   1.927   8.905  0.0883 -0.2806  0.6108
  446MOL0     C60098   1.476   2.014   8.876 -0.0620  0.0948 -0.4305
  446MOL0     O60099   1.502   2.071   8.741 -0.2187 -0.5473 -0.1814
  446MOL0     C60100   1.566   2.191   8.729  0.5308 -0.3525  0.8863
  446MOL0     C60101   1.624   2.270   8.830 -0.9025  0.1817 -0.2323
  446MOL0     C60102   1.677   2.394   8.804 -0.2094  0.7580 -0.3766
  446MOL0     C60103   1.721   2.464   8.924 -0.5852 -0.0931  0.3177
  446MOL0     C60104   1.687   2.441   8.672 -0.3525  0.2357 -0.1458
  446MOL0     C60105   1.763   2.557   8.632  0.0113 -0.7386  0.3148
  446MOL0     O60106   1.738   2.618   8.515  0.5153 -0.3212  0.3908
  446MOL0     C60107   1.842   2.687   8.453 -0.0353 -0.5017 -0.9641
  446MOL0     C60108   1.958   2.621   8.414 -0.6473 -0.4919  0.8037
  446MOL0     C60109   2.058   2.687   8.335 -0.4255 -0.2329 -0.1332
  446MOL0     C60110   2.052   2.831   8.322  0.4488  0.5502 -0.6136
  446MOL0     O60111   2.154   2.903   8.261 -0.1884  0.5386 -0.1201
  446MOL0     C60112   2.178   2.875   8.118 -0.3162 -0.8734  0.0254
  446MOL0     C60113   2.322   2.911   8.082 -0.2957 -0.6278  0.1231
  446MOL0     C60114   2.422   2.819   8.152  0.4519  0.0496  0.5750
  446MOL0     C60115   2.421   2.675   8.100 -1.2300  0.3228  0.5254
  446MOL0     C60116   2.547   2.599   8.166  0.4117 -0.6810  0.6378
  446MOL0     C60117   2.547   2.454   8.139 -0.2918  0.0077  0.3394
  446MOL0     C60118   2.637   2.380   8.242 -0.0791  0.3591 -0.3835
  446MOL0     C60119   2.627   2.233   8.211 -1.1981 -0.5902  0.6400
  446MOL0    Cl60120   2.478   2.171   8.277  0.2182  0.2557 -0.3456
  446MOL0     C60121   1.945   2.903   8.372  0.4543  0.1986 -0.6391
  446MOL0     C60122   1.829   2.823   8.423  0.0367 -1.0059  0.2485
  446MOL0     O60123   1.862   2.583   8.705 -0.7054  0.4442 -0.7438
  446MOL0     C60124   1.628   2.359   8.569  0.3218 -0.0768  1.2377
  446MOL0     C60125   1.565   2.239   8.600  0.3661 -0.1186 -0.1539
  446MOL0     N60126   1.545   1.526   9.142  0.7915 -0.5824  0.5003
  446MOL0     N60127   1.605   1.462   9.231 -0.1895  0.0885  0.2222
  446MOL0     C60128   2.098   0.906  10.309 -0.1603  0.3393 -0.3046
  446MOL0     C60129   2.130   0.942  10.442 -0.3520 -0.1305  0.6331
  446MOL0     C60130   2.130   1.070  10.872 -0.7511  1.3030  0.4191
  446MOL0     C60131   2.145   1.206  10.888  0.1176 -0.6811 -0.2949
  446MOL0     C60132   2.156   1.257  11.022 -0.0533 -0.3496 -0.5796
  446MOL0     C60133   2.138   1.173  11.128  0.0005 -0.5469 -0.7623
  446MOL0     O60134   2.150   1.191  11.272  0.1140 -0.0090 -0.7209
  446MOL0     C60135   2.250   1.278  11.321  0.0516 -0.2490 -0.5082
  446MOL0     C60136   2.383   1.201  11.326 -0.1036  0.3866 -0.2384
  446MOL0     C60137   2.408   1.127  11.460 -0.1969  0.2557  0.8228
  446MOL0     C60138   2.306   1.023  11.485 -0.0812  0.6131 -0.5422
  446MOL0     C60139   2.342   0.934  11.603 -0.3627 -1.6417  0.2984
  446MOL0     C60140   2.388   0.868  11.698 -0.6233  0.4480  1.4892
  446MOL0     C60141   2.123   1.031  11.109  0.9275 -0.9801 -0.2035
  446MOL0     C60142   2.122   0.987  10.978  0.3716  0.2419  0.6324
  446MOL0     H60143   1.959   1.239  10.443  3.4157  1.4516  0.5850
  446MOL0     H60144   1.880   1.152  10.234 -2.1741 -3.4277  0.0723
  446MOL0     H60145   1.822   1.053  10.022 -0.8108  1.1609  0.3645
  446MOL0     H60146   1.969   1.139  10.040 -0.4595 -0.5483  1.9070
  446MOL0     H60147   2.041   0.947   9.853  0.3212 -0.2454 -0.1236
  446MOL0     H60148   1.882   0.917   9.816  0.8659  0.1737 -1.6010
  446MOL0     H60149   1.983   1.211   9.813  0.7249  0.1607 -1.8069
  446MOL0     H60150   2.000   1.101   9.675 -1.4048 -0.4386 -0.5825
  446MOL0     H60151   1.756   1.066   9.661 -1.2504 -0.5090  1.7142
  446MOL0     H60152   1.740   1.147   9.816  0.3457 -1.6037  0.5614
  446MOL0     H60153   1.798   1.365   9.720  1.4189 -0.1505  1.8770
  446MOL0     H60154   1.865   1.274   9.584 -1.7554 -1.3973 -2.1495
  446MOL0     H60155   1.648   1.222   9.489 -3.7647  0.1005 -0.0271
  446MOL0     H60156   1.561   1.236   9.631  2.0146 -1.8430  2.4792
  446MOL0     H60157   1.503   1.424   9.519  0.9766 -1.7829 -4.0202
  446MOL0     H60158   1.609   1.483   9.644 -1.5075 -1.7800  0.5694
  446MOL0     H60159   1.789   1.433   9.428  0.4388  0.2388  0.3603
  446MOL0     H60160   1.724   1.597   9.497 -2.5682  0.7925  1.2433
  446MOL0     H60161   1.581   1.755   9.378  0.3847  3.0821 -3.8302
  446MOL0     H60162   1.427   1.764   9.008 -0.0863  1.9230 -1.1030
  446MOL0     H60163   1.439   1.850   9.165  1.0304 -0.0300  0.9738
  446MOL0     H60164   1.700   1.799   9.035 -1.9045 -1.1714 -0.5278
  446MOL0     H60165   1.628   1.942   9.121 -0.2194 -0.0622  0.1299
  446MOL0     H60166   1.610   1.841   8.837  1.5360 -3.5601  4.5492
  446MOL0     H60167   1.691   1.981   8.882  1.2420 -2.0907  0.7674
  446MOL0     H60168   1.484   2.092   8.953 -0.8158 -0.1620 -0.0864
  446MOL0     H60169   1.380   1.963   8.885 -0.2490  0.5444  0.2254
  446MOL0     H60170   1.606   2.244   8.933 -1.1270  1.1778 -0.0097
  446MOL0     H60171   1.829   2.455   8.933 -0.5439  1.3508  1.6252
  446MOL0     H60172   1.697   2.567   8.895 -1.3371 -1.3373 -4.5389
  446MOL0     H60173   1.670   2.434   9.016 -0.6361  2.8164  1.3497
  446MOL0     H60174   1.982   2.518   8.437  2.2596 -0.3689 -1.1580
  446MOL0     H60175   2.146   2.635   8.298  1.3403  1.9317  0.7779
  446MOL0     H60176   2.156   2.771   8.090 -0.7539 -1.4042  2.1286
  446MOL0     H60177   2.111   2.935   8.056  1.3000  1.4776  0.4211
  446MOL0     H60178   2.325   2.903   7.973  1.3209 -3.4546  0.2486
  446MOL0     H60179   2.340   3.013   8.116 -0.6940 -0.2888 -0.6716
  446MOL0     H60180   2.392   2.831   8.257 -2.1133 -1.3822  0.1007
  446MOL0     H60181   2.521   2.861   8.133  1.2948 -2.8123 -2.2844
  446MOL0     H60182   2.323   2.634   8.123 -1.4336  0.2324 -0.4673
  446MOL0     H60183   2.432   2.688   7.992 -2.7486  0.3140  0.3552
  446MOL0     H60184   2.547   2.618   8.274 -2.2850 -2.1053  0.9871
  446MOL0     H60185   2.632   2.652   8.123 -0.1224  1.4048  2.0282
  446MOL0     H60186   2.442   2.423   8.139 -0.8922  1.7792 -2.0621
  446MOL0     H60187   2.583   2.434   8.038 -1.2413 -0.5879  0.1023
  446MOL0     H60188   2.585   2.407   8.335 -3.3453  0.1753 -2.0234
  446MOL0     H60189   2.743   2.408   8.252 -1.1083  4.3191  1.5297
  446MOL0     H60190   2.709   2.176   8.256 -1.4051 -0.8063  0.7444
  446MOL0     H60191   2.619   2.205   8.106 -1.8778  1.8528 -0.0393
  446MOL0     H60192   1.948   3.011   8.359 -2.8848  0.3228 -1.2339
  446MOL0     H60193   1.747   2.884   8.459  0.3849 -0.5317  0.2480
  446MOL0     H60194   1.623   2.392   8.466 -0.8224  1.6969  1.8314
  446MOL0     H60195   1.510   2.194   8.518 -0.2849  0.2335  0.0844
  446MOL0     H60196   2.146   0.818  10.267  2.2976  1.2070  0.4473
  446MOL0     H60197   2.181   0.867  10.502  2.3284  0.4970 -0.7028
  446MOL0     H60198   2.156   1.270  10.801 -0.9539  0.2239  0.2078
  446MOL0     H60199   2.195   1.358  11.025 -0.4455 -0.2044 -0.3085
  446MOL0     H60200   2.261   1.363  11.252 -0.4241  0.1434 -0.1125
  446MOL0     H60201   2.237   1.325  11.419  3.3093 -1.2290  0.4877
  446MOL0     H60202   2.471   1.266  11.326  0.8739 -0.8967 -0.5143
  446MOL0     H60203   2.391   1.130  11.243 -3.1246  0.0503 -0.3460
  446MOL0     H60204   2.400   1.205  11.536 -1.8650 -1.1187  2.1689
  446MOL0     H60205   2.509   1.086  11.468 -0.7398 -1.7050 -1.3445
  446MOL0     H60206   2.298   0.967  11.392 -1.6485 -2.0017  1.0626
  446MOL0     H60207   2.214   1.077  11.507  0.7509  1.1208  2.0884
  446MOL0     H60208   2.434   0.809  11.775  1.4269  1.6868  1.2983
  446MOL0     H60209   2.119   0.956  11.187  5.0883 -4.5857 -2.9132
  446MOL0     H60210   2.120   0.879  10.971  3.2106 -0.1442  3.5428
  447MOL0     O60211   7.019   8.112   8.238  0.3279 -1.0982  0.1373
  447MOL0     C60212   7.126   8.153   8.190 -0.3911  0.0305  0.3828
  447MOL0     O60213   7.165   8.280   8.189  0.0265  0.1083  0.4119
  447MOL0     C60214   7.059   8.373   8.184 -1.0077 -0.2519 -0.1638
  447MOL0     C60215   6.968   8.391   8.291 -0.7139 -0.5119  0.0045
  447MOL0     C60216   6.865   8.482   8.275 -0.5157  0.2328 -1.6349
  447MOL0     C60217   6.854   8.580   8.179 -0.1085  0.1259 -0.3734
  447MOL0     O60218   6.741   8.661   8.188 -0.2415  0.6114 -0.4392
  447MOL0     C60219   6.703   8.741   8.074  0.8203  0.2296 -0.5006
  447MOL0     C60220   6.561   8.806   8.084  0.3591 -0.2055 -0.1046
  447MOL0     C60221   6.531   8.918   7.987  0.5457  0.2991  0.6073
  447MOL0     C60222   6.377   8.934   7.994 -0.3470 -0.7981 -1.1047
  447MOL0     C60223   6.310   9.035   7.898  0.1399 -0.7598  0.5253
  447MOL0     C60224   6.158   9.061   7.936  0.0760  0.2874  1.0884
  447MOL0     C60225   6.078   9.106   7.818  1.2589  0.0434  0.6547
  447MOL0     C60226   6.094   9.248   7.752 -0.3837  0.1710  0.5504
  447MOL0     N60227   6.162   9.243   7.628  0.1308  0.0598 -0.8031
  447MOL0     C60228   6.159   9.331   7.523 -0.1781 -0.1709  0.1586
  447MOL0     C60229   6.256   9.295   7.443 -0.1255 -0.4767 -1.2803
  447MOL0     C60230   6.279   9.347   7.309 -1.0409  0.0562  0.0528
  447MOL0     C60231   6.143   9.347   7.236  0.2775  0.4820 -0.3546
  447MOL0     C60232   6.087   9.211   7.204 -0.1031  0.9670  1.5313
  447MOL0     C60233   6.152   9.140   7.090  0.2662  0.0028  0.3665
  447MOL0     O60234   6.102   9.000   7.078  0.1516 -0.5765 -0.1099
  447MOL0     C60235   5.975   8.975   7.016 -0.1861  0.5169 -0.3559
  447MOL0     C60236   5.907   8.852   7.019 -0.9560  0.1837 -0.1287
  447MOL0     C60237   5.773   8.831   6.963  1.0399 -0.8486 -0.2981
  447MOL0     C60238   5.692   8.700   6.989 -0.8199 -0.6319 -0.4175
  447MOL0     C60239   5.715   8.943   6.901  0.3178  0.8297  0.6969
  447MOL0     C60240   5.566   8.955   6.867 -0.9827 -0.2393  0.5377
  447MOL0     O60241   5.471   8.905   6.948  0.6033 -0.3521 -0.4005
  447MOL0     C60242   5.339   8.941   6.932 -0.1394  0.5085 -0.5017
  447MOL0     C60243   5.293   9.074   6.954  0.8900 -0.1126  0.5798
  447MOL0     C60244   5.159   9.111   6.941 -0.2030  0.6132  0.0079
  447MOL0     C60245   5.063   9.014   6.905 -0.1237  0.8324 -0.3811
  447MOL0     O60246   4.935   9.044   6.890  0.4839 -0.1762 -0.6075
  447MOL0     C60247   4.871   9.128   6.988 -0.5501  0.1188  0.8275
  447MOL0     C60248   4.726   9.152   6.944  0.9649 -0.0584  0.7302
  447MOL0     C60249   4.626   9.046   6.982 -0.1773 -0.1169 -0.0552
  447MOL0     C60250   4.477   9.095   6.978 -0.0834  0.0395  0.1200
  447MOL0     C60251   4.386   8.976   6.991  0.6055  0.7878  0.7992
  447MOL0     C60252   4.255   9.005   6.911 -0.4516 -0.4302 -0.5082
  447MOL0     C60253   4.188   9.122   6.979  0.2053  0.2507 -1.2134
  447MOL0     C60254   4.048   9.134   6.900 -1.2244 -0.0750 -0.9822
  447MOL0    Cl60255   3.945   9.258   6.986  0.1373  0.3375 -0.0102
  447MOL0     C60256   5.108   8.876   6.887 -0.3620  0.7823 -0.1578
  447MOL0     C60257   5.243   8.835   6.910 -0.6293  0.3903  0.5547
  447MOL0     O60258   5.534   9.027   6.774  0.0595 -0.0675 -0.9259
  447MOL0     C60259   5.788   9.057   6.878  0.8878 -0.9526 -0.4252
  447MOL0     C60260   5.910   9.078   6.943  0.5946 -0.2241  0.5079
  447MOL0     N60261   6.329   9.192   7.502  0.0092 -0.9078 -0.6758
  447MOL0     N60262   6.272   9.165   7.611  0.0483 -0.4031  0.5781
  447MOL0     C60263   6.943   8.572   8.077 -0.3368 -0.1210 -0.4493
  447MOL0     C60264   7.051   8.472   8.087  0.5935 -0.0170 -0.4320
  447MOL0     C60265   7.216   8.047   8.141  0.8571 -0.0265  0.5849
  447MOL0     C60266   7.354   8.071   8.131 -0.8565 -0.5572 -0.0092
  447MOL0     C60267   7.434   7.971   8.074 -0.1947  0.4556 -0.7287
  447MOL0     C60268   7.385   7.844   8.035  0.5916 -0.4657 -0.5382
  447MOL0     O60269   7.483   7.748   8.004  0.0189 -0.1023  0.3396
  447MOL0     C60270   7.420   7.635   7.947 -0.5644  0.8790  0.3588
  447MOL0     C60271   7.532   7.547   7.879  0.0634  0.2345 -0.9183
  447MOL0     C60272   7.461   7.410   7.844  0.4870  0.6110  0.0671
  447MOL0     C60273   7.548   7.329   7.749  0.0086  0.0449  0.4596
  447MOL0     C60274   7.688   7.304   7.774  0.3166  0.8796  0.1254
  447MOL0     C60275   7.808   7.292   7.791  0.2598 -0.9269  0.1838
  447MOL0     C60276   7.249   7.827   8.044 -1.2220  0.6598 -0.1070
  447MOL0     C60277   7.166   7.932   8.094  0.3182  0.8658 -0.3091
  447MOL0     H60278   6.961   8.337   8.385 -0.3210  2.8030  2.0878
  447MOL0     H60279   6.794   8.502   8.355  0.0546  0.8871 -1.2819
  447MOL0     H60280   6.776   8.821   8.060  1.1371 -0.3340 -2.3022
  447MOL0     H60281   6.705   8.687   7.979 -1.1427  0.6600 -0.8471
  447MOL0     H60282   6.485   8.728   8.079 -0.0936 -0.0808  3.0707
  447MOL0     H60283   6.546   8.848   8.184 -2.1777  0.8370 -0.8490
  447MOL0     H60284   6.563   9.016   8.024 -1.5956  0.6073  1.8305
  447MOL0     H60285   6.569   8.894   7.887  1.7832  2.8331  0.3898
  447MOL0     H60286   6.326   8.838   7.978 -1.5774 -0.4751  0.6512
  447MOL0     H60287   6.352   8.966   8.095 -1.8793 -0.5902 -1.5161
  447MOL0     H60288   6.378   9.120   7.882 -0.3056 -0.1911  1.5467
  447MOL0     H60289   6.303   8.985   7.801  3.7117 -1.2049  0.3585
  447MOL0     H60290   6.116   8.960   7.949  0.1562  0.1137  0.1382
  447MOL0     H60291   6.147   9.118   8.028 -3.6349  0.9676  0.3831
  447MOL0     H60292   6.060   9.036   7.736  1.6401  1.2607 -0.4823
  447MOL0     H60293   5.976   9.103   7.858  0.9274  1.9268  0.0237
  447MOL0     H60294   6.166   9.294   7.821  2.0276  1.7277 -2.7497
  447MOL0     H60295   6.005   9.312   7.747  0.8715  1.9438 -0.0680
  447MOL0     H60296   6.095   9.415   7.496  0.2109  0.2544  0.5318
  447MOL0     H60297   6.319   9.448   7.319  2.3709 -1.2228  0.8338
  447MOL0     H60298   6.356   9.284   7.264  0.6068  0.2144  2.4787
  447MOL0     H60299   6.140   9.398   7.139 -0.9977 -0.4099 -0.8207
  447MOL0     H60300   6.067   9.394   7.299  1.3111  0.5625  0.8447
  447MOL0     H60301   5.981   9.223   7.178 -0.5597 -0.6076  2.4897
  447MOL0     H60302   6.108   9.146   7.290  5.4435 -0.6843 -0.6522
  447MOL0     H60303   6.258   9.146   7.115  0.7255 -1.7907 -0.9464
  447MOL0     H60304   6.142   9.185   6.991  2.6391  0.5616  0.3386
  447MOL0     H60305   5.954   8.769   7.072 -0.7588 -0.8544 -1.8695
  447MOL0     H60306   5.606   8.715   7.056 -0.3769 -2.7206  0.7176
  447MOL0     H60307   5.654   8.663   6.893 -0.3655 -2.1090 -0.0517
  447MOL0     H60308   5.767   8.632   7.030  0.0559  0.7411  0.3512
  447MOL0     H60309   5.359   9.157   6.975 -1.1976  2.0322 -0.8973
  447MOL0     H60310   5.130   9.213   6.963 -3.1116 -0.2794  0.7002
  447MOL0     H60311   4.904   9.077   7.078  0.8245  0.0344  0.2926
  447MOL0     H60312   4.925   9.223   6.986  0.2557 -0.1801  3.8715
  447MOL0     H60313   4.697   9.250   6.984  0.2617 -0.0014  0.1076
  447MOL0     H60314   4.726   9.167   6.836 -0.1297 -2.6218  0.3060
  447MOL0     H60315   4.647   9.007   7.082  1.2174  0.6289 -0.0351
  447MOL0     H60316   4.650   8.961   6.918  1.4686 -0.3701  0.8241
  447MOL0     H60317   4.470   9.167   7.059  2.5997 -1.9576  2.3512
  447MOL0     H60318   4.464   9.151   6.885  1.1270 -2.1716 -1.4750
  447MOL0     H60319   4.381   8.956   7.098  1.4668  0.5278  0.7973
  447MOL0     H60320   4.429   8.886   6.946 -1.1326  0.9213 -1.2674
  447MOL0     H60321   4.269   9.025   6.804 -4.0628  0.8351 -0.8768
  447MOL0     H60322   4.197   8.914   6.923  2.0222 -1.7621  3.4214
  447MOL0     H60323   4.249   9.213   6.976 -0.1493  0.9243  3.7360
  447MOL0     H60324   4.166   9.108   7.085 -0.5474  2.9549 -0.9227
  447MOL0     H60325   3.989   9.042   6.898  2.4082 -2.7392  1.0958
  447MOL0     H60326   4.074   9.182   6.804 -0.4541  1.6546  0.0426
  447MOL0     H60327   5.041   8.798   6.852 -0.2289 -0.1303  1.5242
  447MOL0     H60328   5.267   8.730   6.903  1.0021  0.8154 -0.9548
  447MOL0     H60329   5.744   9.141   6.826 -0.2825 -1.3988 -0.2017
  447MOL0     H60330   5.944   9.177   6.915  0.5828 -0.1050  0.9122
  447MOL0     H60331   6.936   8.646   7.998  2.7900  3.7664  2.5289
  447MOL0     H60332   7.118   8.473   8.002  0.8688  4.1808 -0.3881
  447MOL0     H60333   7.385   8.168   8.168 -1.8288  0.7634 -2.4163
  447MOL0     H60334   7.543   7.972   8.071 -0.1724  1.2957 -4.6880
  447MOL0     H60335   7.381   7.583   8.035  1.9902  0.0435  1.0812
  447MOL0     H60336   7.341   7.657   7.874  1.4746  0.2410 -2.1987
  447MOL0     H60337   7.613   7.540   7.952  1.4102  5.8853 -1.3516
  447MOL0     H60338   7.569   7.587   7.785 -0.0121  0.0773 -1.0155
  447MOL0     H60339   7.361   7.419   7.801  0.4001 -1.6629 -0.3520
  447MOL0     H60340   7.443   7.361   7.940 -2.3632  1.0150 -0.1618
  447MOL0     H60341   7.547   7.381   7.653 -0.1356  2.4962  1.7189
  447MOL0     H60342   7.491   7.237   7.732 -1.5745  1.3117 -1.6127
  447MOL0     H60343   7.906   7.286   7.833  0.3392  2.0099  0.6265
  447MOL0     H60344   7.203   7.736   8.007 -0.8601  0.1367  0.7071
  447MOL0     H60345   7.059   7.914   8.087 -0.0549  1.9489  1.7049
  448MOL0     O60346   6.328   0.190   6.649  0.5748 -0.0032  0.0988
  448MOL0     C60347   6.387   0.088   6.620  0.3022 -0.5265  0.4958
  448MOL0     O60348   6.505   0.035   6.677 -0.9584 -0.7242  0.5626
  448MOL0     C60349   6.546   0.071   6.801 -0.5580 -0.1460 -0.1049
  448MOL0     C60350   6.608   0.193   6.814 -0.6621  0.5159 -0.5127
  448MOL0     C60351   6.669   0.228   6.939 -0.4346  0.1342  0.5482
  448MOL0     C60352   6.677   0.133   7.043  0.3650  0.4987 -0.0084
  448MOL0     O60353   6.742   0.152   7.161  0.5854  0.1776 -0.6512
  448MOL0     C60354   6.844   0.254   7.163 -0.1560  0.2439 -0.1005
  448MOL0     C60355   6.897   0.246   7.306 -0.7742  0.6958  0.5885
  448MOL0     C60356   6.996   0.356   7.336 -0.0822 -0.1517  0.0706
  448MOL0     C60357   7.043   0.343   7.485 -0.1628  0.4300 -1.4945
  448MOL0     C60358   7.034   0.489   7.556 -0.4843 -0.0055 -0.5549
  448MOL0     C60359   6.889   0.508   7.616 -0.5618  0.3292  0.4005
  448MOL0     C60360   6.874   0.655   7.648 -0.3640 -0.2902 -0.1482
  448MOL0     C60361   6.870   0.685   7.794 -0.8526  0.0438 -0.2032
  448MOL0     N60362   7.004   0.722   7.842 -0.1761 -0.6814  0.0561
  448MOL0     C60363   7.098   0.653   7.907  0.4094  0.3490 -0.6393
  448MOL0     C60364   7.195   0.748   7.937 -0.5024  1.0928 -0.4089
  448MOL0     C60365   7.307   0.719   8.025 -0.3736  0.4553 -1.6857
  448MOL0     C60366   7.273   0.769   8.174 -0.0362 -0.4430  0.4381
  448MOL0     C60367   7.372   0.721   8.272 -0.0255  0.4161 -1.2907
  448MOL0     C60368   7.485   0.814   8.296 -0.0924  0.5288  0.0076
  448MOL0     O60369   7.567   0.803   8.182  0.3591 -0.4141 -0.0263
  448MOL0     C60370   7.686   0.876   8.171 -0.5008  0.2785 -0.1331
  448MOL0     C60371   7.745   0.883   8.042 -0.4937  0.1091 -0.4870
  448MOL0     C60372   7.878   0.954   8.030 -0.3121  0.9327 -0.4357
  448MOL0     C60373   7.923   0.954   7.882  0.2366  1.1707 -1.0438
  448MOL0     C60374   7.948   1.020   8.137  1.1124 -1.3799 -0.1422
  448MOL0     C60375   8.078   1.087   8.136  0.2519 -0.0057 -0.3669
  448MOL0     O60376   8.127   1.139   8.025 -0.1849 -0.0319 -0.6506
  448MOL0     C60377   8.249   1.188   7.995 -0.3092  0.9535  0.0226
  448MOL0     C60378   8.254   1.231   7.862  1.0082  0.1143 -0.4334
  448MOL0     C60379   8.370   1.280   7.802 -0.6213  0.6669  0.0211
  448MOL0     C60380   8.492   1.268   7.873 -0.6736  0.4632  0.7054
  448MOL0     O60381   8.608   1.311   7.820  0.3198  0.2015  0.3521
  448MOL0     C60382   8.676   1.214   7.731  0.1513  0.7352  0.1836
  448MOL0     C60383   8.702   1.258   7.586 -0.0117  0.5051 -0.2979
  448MOL0     C60384   8.820   1.343   7.550  0.7002  0.6216 -0.2184
  448MOL0     C60385   8.833   1.366   7.397  0.0056  0.5234  0.3840
  448MOL0     C60386   8.979   1.396   7.342 -0.2283 -0.1904 -0.3095
  448MOL0     C60387   9.078   1.273   7.349 -1.1074 -0.3282  0.4027
  448MOL0     C60388   9.065   1.172   7.240  0.2439  0.4733  0.3327
  448MOL0     C60389   9.156   1.041   7.255 -0.3948 -0.3122 -0.3817
  448MOL0    Cl60390   9.103   0.949   7.398 -0.4583 -0.1443 -0.1123
  448MOL0     C60391   8.485   1.220   8.004  0.0757 -0.3945 -0.1606
  448MOL0     C60392   8.363   1.181   8.077  0.0284  0.3317 -0.2158
  448MOL0     O60393   8.126   1.098   8.241  0.7934 -0.1653 -0.3899
  448MOL0     C60394   7.881   0.994   8.263 -0.1785  0.1005  0.5961
  448MOL0     C60395   7.759   0.929   8.278 -0.0621 -0.8013 -0.8917
  448MOL0     N60396   7.170   0.875   7.889 -0.0681 -0.5921  0.1257
  448MOL0     N60397   7.061   0.845   7.824  0.2235  0.1067 -0.6963
  448MOL0     C60398   6.634  -0.002   7.021 -0.0515 -0.4941 -0.0244
  448MOL0     C60399   6.570  -0.025   6.903 -0.4937  0.2945 -0.2191
  448MOL0     C60400   6.322   0.018   6.508  0.0726 -0.3122 -0.1531
  448MOL0     C60401   6.394  -0.091   6.446  0.0078 -0.0592  0.8976
  448MOL0     C60402   6.341  -0.158   6.337 -0.7256 -0.3780 -0.2050
  448MOL0     C60403   6.215  -0.131   6.289  0.1577 -0.0621  0.1803
  448MOL0     O60404   6.147  -0.210   6.195  0.3533 -0.0705 -0.4893
  448MOL0     C60405   6.226  -0.321   6.146 -0.1682 -0.3521  0.7993
  448MOL0     C60406   6.136  -0.399   6.046  0.0878 -0.1699 -0.5175
  448MOL0     C60407   6.211  -0.509   5.967 -0.1201  0.2833 -0.9400
  448MOL0     C60408   6.132  -0.533   5.842 -0.4985 -0.2573  0.0005
  448MOL0     C60409   6.011  -0.611   5.876 -0.0452  0.7110 -0.7675
  448MOL0     C60410   5.929  -0.685   5.922 -0.5160  1.2935 -1.0116
  448MOL0     C60411   6.144  -0.027   6.347  0.7478  0.0620 -0.6925
  448MOL0     C60412   6.196   0.050   6.451  0.2935  0.6637 -0.1655
  448MOL0     H60413   6.599   0.250   6.722 -3.1536 -0.3857 -0.8893
  448MOL0     H60414   6.692   0.333   6.953 -2.7228  0.8321 -0.4876
  448MOL0     H60415   6.929   0.248   7.093 -0.3045  0.2255 -0.2805
  448MOL0     H60416   6.808   0.356   7.145 -0.7529  0.2067  0.8337
  448MOL0     H60417   6.808   0.257   7.368 -2.2506  2.1422 -1.6224
  448MOL0     H60418   6.948   0.151   7.322  4.1765  2.5396 -1.9271
  448MOL0     H60419   7.092   0.346   7.286  0.4711  2.6490  0.4086
  448MOL0     H60420   6.953   0.455   7.316  0.7044  0.5691  1.7491
  448MOL0     H60421   6.980   0.276   7.545 -1.1028  1.7440 -0.9603
  448MOL0     H60422   7.148   0.312   7.489 -0.7983 -1.8337  0.1746
  448MOL0     H60423   7.098   0.481   7.643  0.3138  1.5015 -0.9644
  448MOL0     H60424   7.065   0.570   7.488 -0.7657  1.9082  1.5000
  448MOL0     H60425   6.814   0.486   7.539 -1.9598  1.3233  1.4291
  448MOL0     H60426   6.879   0.446   7.705 -2.5611 -0.8968 -0.6067
  448MOL0     H60427   6.941   0.727   7.601 -0.9968  0.0829 -0.4853
  448MOL0     H60428   6.777   0.687   7.609 -1.3189  2.6407  3.9871
  448MOL0     H60429   6.833   0.596   7.846  1.2109 -2.0079 -2.0376
  448MOL0     H60430   6.818   0.777   7.823  1.0364  0.9366  0.5308
  448MOL0     H60431   7.090   0.555   7.953 -0.8880  2.6596  4.8297
  448MOL0     H60432   7.336   0.615   8.036  2.6623  1.4860  2.6932
  448MOL0     H60433   7.394   0.777   7.991 -2.3949  2.9440 -2.9936
  448MOL0     H60434   7.177   0.723   8.197 -1.3558  1.8999 -0.1038
  448MOL0     H60435   7.259   0.878   8.177 -1.5362 -0.6374  1.5872
  448MOL0     H60436   7.407   0.619   8.255 -0.1865 -0.2200  1.6838
  448MOL0     H60437   7.318   0.717   8.367  1.3135 -3.7248 -0.5117
  448MOL0     H60438   7.533   0.765   8.381 -0.5667 -0.2586 -0.1741
  448MOL0     H60439   7.452   0.914   8.327 -0.7926  0.7902 -1.5204
  448MOL0     H60440   7.689   0.846   7.957 -1.7090 -0.7498  0.6417
  448MOL0     H60441   7.897   0.869   7.818  2.0155  0.5858 -1.0478
  448MOL0     H60442   7.867   1.030   7.827 -0.5570  0.2243 -1.5739
  448MOL0     H60443   8.025   0.986   7.862  0.2565  2.6942  1.1854
  448MOL0     H60444   8.158   1.238   7.812  1.1525 -1.9292 -1.0721
  448MOL0     H60445   8.358   1.335   7.709 -1.2388  0.2158 -0.1728
  448MOL0     H60446   8.770   1.177   7.774 -0.6787 -1.4093  0.2558
  448MOL0     H60447   8.610   1.129   7.710  1.5838 -0.2918 -0.3954
  448MOL0     H60448   8.714   1.173   7.518  3.6477  2.2619 -2.1481
  448MOL0     H60449   8.612   1.319   7.568 -0.6563 -0.5909 -0.9063
  448MOL0     H60450   8.897   1.286   7.601 -0.7241  1.0284  2.5846
  448MOL0     H60451   8.807   1.439   7.602  2.5788  0.3833  0.7700
  448MOL0     H60452   8.801   1.275   7.345 -0.3734  0.2279  1.1127
  448MOL0     H60453   8.763   1.440   7.357 -1.6727 -2.4714 -2.8090
  448MOL0     H60454   9.022   1.472   7.409  3.2504 -0.3138 -2.1825
  448MOL0     H60455   8.975   1.428   7.237  0.3241  0.4524 -0.1449
  448MOL0     H60456   9.171   1.326   7.330 -0.7135 -1.7134 -1.9171
  448MOL0     H60457   9.069   1.231   7.450 -0.3492  1.1298  1.0945
  448MOL0     H60458   9.090   1.223   7.146  0.3095 -0.7520 -0.3400
  448MOL0     H60459   8.960   1.140   7.234 -0.6351  2.9918  0.9541
  448MOL0     H60460   9.259   1.075   7.263 -0.7728  1.0126 -0.9152
  448MOL0     H60461   9.147   0.986   7.160 -0.3716  1.1305 -1.2509
  448MOL0     H60462   8.579   1.226   8.058 -1.6999  1.1047  3.0847
  448MOL0     H60463   8.366   1.156   8.183  1.5705  2.0148  0.1852
  448MOL0     H60464   7.915   1.019   8.363  0.6911  0.9710  0.1026
  448MOL0     H60465   7.723   0.899   8.376  2.9822 -3.2565 -0.3630
  448MOL0     H60466   6.653  -0.089   7.083 -0.8310  0.8075  2.1286
  448MOL0     H60467   6.527  -0.125   6.899  0.8789 -0.4710  2.0285
  448MOL0     H60468   6.488  -0.129   6.487  1.9096  1.4330 -1.7745
  448MOL0     H60469   6.398  -0.245   6.305 -2.0696 -1.7208  0.9028
  448MOL0     H60470   6.318  -0.284   6.100 -0.4373 -0.4585  0.1696
  448MOL0     H60471   6.262  -0.378   6.232 -4.5647 -1.0902  2.4244
  448MOL0     H60472   6.097  -0.323   5.978 -2.7115 -2.1616 -1.3417
  448MOL0     H60473   6.063  -0.455   6.104  1.7174  0.2704  2.1325
  448MOL0     H60474   6.220  -0.598   6.029  1.0276  1.8064  1.2042
  448MOL0     H60475   6.315  -0.475   5.964  0.5502 -1.4466  0.9496
  448MOL0     H60476   6.198  -0.603   5.790  0.2981  0.0207  0.6185
  448MOL0     H60477   6.114  -0.445   5.780 -0.9041 -1.5514 -1.7836
  448MOL0     H60478   5.845  -0.740   5.959  0.2566  1.5315  1.2624
  448MOL0     H60479   6.043  -0.020   6.308 -0.6369 -3.9529  1.5147
  448MOL0     H60480   6.133   0.126   6.496 -3.8030 -2.2917 -0.4040
  449MOL0     O60481   4.671   0.171  10.083 -0.0037 -0.3439 -0.2402
  449MOL0     C60482   4.664   0.046  10.084 -0.6115  0.4224  0.0381
  449MOL0     O60483   4.557  -0.033  10.119  0.2657 -0.1287 -0.3626
  449MOL0     C60484   4.429   0.025  10.124 -0.0396  1.1435  0.4165
  449MOL0     C60485   4.340  -0.029  10.220 -0.1014 -0.7577 -1.0349
  449MOL0     C60486   4.210   0.032  10.250 -1.7189  0.5606  0.0621
  449MOL0     C60487   4.180   0.140  10.169  0.0981  0.2384 -0.1003
  449MOL0     O60488   4.064   0.209  10.175  0.1396 -0.2337  0.3305
  449MOL0     C60489   3.951   0.176  10.258 -0.1503  0.6477  1.1806
  449MOL0     C60490   3.845   0.276  10.230  0.3574 -0.7001  0.9222
  449MOL0     C60491   3.840   0.407  10.313  0.1971 -0.0269 -0.0855
  449MOL0     C60492   3.698   0.458  10.343  0.1768 -0.4420  0.3116
  449MOL0     C60493   3.704   0.587  10.444 -0.2967  0.5531 -0.2467
  449MOL0     C60494   3.780   0.549  10.575 -0.0063 -0.0331  0.3951
  449MOL0     C60495   3.752   0.635  10.692  0.9001 -1.1551 -0.6507
  449MOL0     C60496   3.880   0.688  10.754 -0.6068 -1.2768  0.5552
  449MOL0     N60497   3.963   0.774  10.670  0.1779 -0.6393 -0.1721
  449MOL0     C60498   3.934   0.900  10.624 -0.0466  0.0333 -0.5634
  449MOL0     C60499   4.034   0.942  10.548  0.2354  0.6693 -0.4850
  449MOL0     C60500   4.070   1.078  10.495 -0.2458  0.4702  0.1977
  449MOL0     C60501   4.131   1.161  10.608  0.5711 -0.7469  0.0750
  449MOL0     C60502   4.235   1.254  10.541 -0.4213  0.9895  0.3397
  449MOL0     C60503   4.331   1.325  10.647 -0.5430  1.1838  0.3083
  449MOL0     O60504   4.396   1.446  10.591 -0.2079  0.2137 -0.3529
  449MOL0     C60505   4.529   1.446  10.603 -0.8415  1.2386 -0.5734
  449MOL0     C60506   4.577   1.495  10.728  0.9120  0.3002 -0.2652
  449MOL0     C60507   4.716   1.479  10.766  0.2056  0.2248  0.2411
  449MOL0     C60508   4.746   1.520  10.909 -0.1702 -0.4806 -0.6970
  449MOL0     C60509   4.805   1.422  10.675  0.5398 -0.3407 -0.3325
  449MOL0     C60510   4.953   1.409  10.707  0.1531  0.5686  1.2128
  449MOL0     O60511   5.010   1.491  10.796  0.4060  0.2303  1.1693
  449MOL0     C60512   5.139   1.452  10.831 -0.3399 -1.3902 -0.1677
  449MOL0     C60513   5.250   1.502  10.761  0.5133 -0.9473  0.2393
  449MOL0     C60514   5.380   1.469  10.806  0.3539 -0.3233 -0.2964
  449MOL0     C60515   5.400   1.387  10.913  0.6602  0.3580  0.5646
  449MOL0     O60516   5.526   1.359  10.951  0.0829 -0.3757  0.4600
  449MOL0     C60517   5.545   1.366  11.100 -0.1001  0.7852 -0.8221
  449MOL0     C60518   5.634   1.259  11.133  0.7775 -0.0791  0.5671
  449MOL0     C60519   5.582   1.122  11.096 -0.7549 -0.0466 -0.2402
  449MOL0     C60520   5.657   1.003  11.165 -0.1016  1.5159  0.5259
  449MOL0     C60521   5.783   0.956  11.087 -0.3228  0.1955 -0.2152
  449MOL0     C60522   5.772   0.903  10.932 -0.0219 -1.1799 -1.0253
  449MOL0     C60523   5.675   0.784  10.928 -0.1804 -0.8967  0.2795
  449MOL0     C60524   5.754   0.659  10.891 -0.6855  1.2684  0.0254
  449MOL0    Cl60525   5.802   0.664  10.713  0.0965  0.4915  0.7066
  449MOL0     C60526   5.295   1.306  10.958 -0.2369 -0.1017  0.3587
  449MOL0     C60527   5.165   1.356  10.927 -0.1432 -0.8632 -0.8995
  449MOL0     O60528   5.006   1.311  10.662 -0.2101 -0.3290 -0.6900
  449MOL0     C60529   4.749   1.378  10.547 -0.9827 -0.2811  0.2257
  449MOL0     C60530   4.611   1.384  10.513  0.1209 -1.0935  0.4075
  449MOL0     N60531   4.137   0.847  10.556  0.9196 -0.6334 -0.5345
  449MOL0     N60532   4.090   0.748  10.620 -0.0193  0.5759  0.6825
  449MOL0     C60533   4.267   0.187  10.072  0.4406 -0.7663  0.2859
  449MOL0     C60534   4.389   0.126  10.049  0.3841 -0.1255  0.1030
  449MOL0     C60535   4.793  -0.015  10.051 -0.1868  0.0558 -0.3689
  449MOL0     C60536   4.818  -0.151  10.081 -0.3317 -0.2625  0.7170
  449MOL0     C60537   4.934  -0.219  10.052  1.1962 -0.0104 -0.4346
  449MOL0     C60538   5.037  -0.142   9.994  0.4204  1.2496 -1.8838
  449MOL0     O60539   5.147  -0.220   9.972  0.1858 -0.1452  0.3407
  449MOL0     C60540   5.250  -0.166   9.888  0.4774 -0.2487  0.9587
  449MOL0     C60541   5.371  -0.249   9.876  0.0095  0.6143  0.8888
  449MOL0     C60542   5.361  -0.402   9.857 -0.5274  0.2663 -0.3359
  449MOL0     C60543   5.501  -0.459   9.858  0.1182 -0.9039  0.5283
  449MOL0     C60544   5.492  -0.593   9.805  0.1783  0.0129 -0.2427
  449MOL0     C60545   5.487  -0.718   9.780 -0.3085  1.0244 -0.2453
  449MOL0     C60546   5.019  -0.004   9.960  0.4086  0.5938 -0.1381
  449MOL0     C60547   4.895   0.049   9.989 -0.6119  0.1071 -0.4661
  449MOL0     H60548   4.363  -0.121  10.272 -4.5586 -2.0867 -1.0388
  449MOL0     H60549   4.143  -0.025  10.314  1.0446 -2.5992  0.4411
  449MOL0     H60550   3.927   0.075  10.224  1.2620  1.4860 -2.9655
  449MOL0     H60551   3.971   0.169  10.365  2.1559 -4.3605  0.6835
  449MOL0     H60552   3.854   0.306  10.125  0.2342 -1.1299  0.7865
  449MOL0     H60553   3.752   0.218  10.227 -0.2423  0.2734 -0.4530
  449MOL0     H60554   3.894   0.383  10.404  1.0186 -1.3742 -0.8892
  449MOL0     H60555   3.892   0.494  10.273  2.3601 -1.3751 -0.3657
  449MOL0     H60556   3.645   0.496  10.255  1.4293  0.6515  0.0108
  449MOL0     H60557   3.632   0.374  10.370 -2.0266  0.1915 -2.6501
  449MOL0     H60558   3.755   0.667  10.390 -1.7149  0.1728 -2.2768
  449MOL0     H60559   3.602   0.619  10.467  0.9244  4.2326  0.6851
  449MOL0     H60560   3.752   0.447  10.604  3.2448 -1.1450  0.0123
  449MOL0     H60561   3.887   0.555  10.553 -0.3337 -0.0132 -1.3669
  449MOL0     H60562   3.693   0.721  10.659  0.6698 -1.4660 -1.0508
  449MOL0     H60563   3.698   0.574  10.766 -1.1828  0.6102 -0.6215
  449MOL0     H60564   3.949   0.608  10.784  0.3656 -1.3799 -1.7751
  449MOL0     H60565   3.863   0.737  10.850  3.5799  1.0745  0.2808
  449MOL0     H60566   3.845   0.958  10.645  2.5708  3.0398  4.3681
  449MOL0     H60567   4.145   1.060  10.418 -2.2099 -0.7366 -1.5172
  449MOL0     H60568   3.978   1.123  10.455 -0.5550  1.1299  1.5707
  449MOL0     H60569   4.178   1.104  10.689 -0.7044 -0.4574  1.0621
  449MOL0     H60570   4.051   1.213  10.662  0.9736  2.3415 -2.0254
  449MOL0     H60571   4.175   1.330  10.490 -0.8077  1.7185  1.7974
  449MOL0     H60572   4.298   1.195  10.473 -3.4514  0.2299 -2.0054
  449MOL0     H60573   4.403   1.251  10.683 -0.0907  1.4094 -0.1133
  449MOL0     H60574   4.275   1.367  10.731  1.4008  1.5266  1.5053
  449MOL0     H60575   4.511   1.547  10.797  0.8912  0.2443 -0.2425
  449MOL0     H60576   4.818   1.603  10.920  1.7386 -2.3225  2.0236
  449MOL0     H60577   4.654   1.543  10.963 -0.5735 -1.4409 -0.9656
  449MOL0     H60578   4.794   1.432  10.952 -0.2935 -1.2874 -2.1482
  449MOL0     H60579   5.238   1.584  10.691 -1.0553 -0.4312  1.0571
  449MOL0     H60580   5.462   1.502  10.744 -0.5116 -1.3283 -2.0497
  449MOL0     H60581   5.579   1.464  11.133  0.8178  0.3497 -0.4521
  449MOL0     H60582   5.453   1.355  11.158 -1.4301  2.2779 -2.5377
  449MOL0     H60583   5.727   1.273  11.077 -1.8238 -2.2883 -5.1101
  449MOL0     H60584   5.653   1.277  11.239 -1.3602 -0.5119  1.0784
  449MOL0     H60585   5.578   1.103  10.988  0.9472  2.4556 -0.8360
  449MOL0     H60586   5.479   1.123  11.133 -1.7647 -4.7677 -2.1433
  449MOL0     H60587   5.692   1.045  11.259  0.6767  1.9489  0.0533
  449MOL0     H60588   5.586   0.927  11.197  0.6481  0.0741 -1.1032
  449MOL0     H60589   5.814   0.871  11.149 -1.7216  1.3794  2.2258
  449MOL0     H60590   5.873   1.017  11.087  0.5059 -0.9476 -1.4117
  449MOL0     H60591   5.734   0.986  10.872 -3.0297  0.1871  2.3685
  449MOL0     H60592   5.875   0.876  10.910  0.5217 -1.0344  1.0648
  449MOL0     H60593   5.588   0.804  10.866 -0.4082 -0.0325  0.8477
  449MOL0     H60594   5.627   0.770  11.026  1.7212  1.1410  1.6075
  449MOL0     H60595   5.697   0.567  10.909  1.6728  0.0148  1.5774
  449MOL0     H60596   5.845   0.646  10.950  0.1469 -2.2269 -1.8064
  449MOL0     H60597   5.307   1.240  11.043  2.0948 -0.6742 -0.3523
  449MOL0     H60598   5.085   1.318  10.990  1.4413 -1.0095  1.1327
  449MOL0     H60599   4.805   1.321  10.473 -1.1743 -1.1793  0.7506
  449MOL0     H60600   4.572   1.337  10.423 -3.4662 -0.4512  1.4539
  449MOL0     H60601   4.233   0.275  10.017 -1.4189 -1.0918  0.8579
  449MOL0     H60602   4.459   0.176   9.983 -1.5837  1.0188 -1.2242
  449MOL0     H60603   4.737  -0.218  10.109 -0.2815 -0.0759  1.3239
  449MOL0     H60604   4.938  -0.326  10.070  1.5946 -0.3217 -2.1569
  449MOL0     H60605   5.208  -0.146   9.789  3.6282 -1.7502 -0.8380
  449MOL0     H60606   5.279  -0.073   9.937 -0.7862 -1.0635  3.4247
  449MOL0     H60607   5.423  -0.233   9.971  0.4029 -2.0416  1.1970
  449MOL0     H60608   5.423  -0.211   9.787  1.6372 -0.0051  1.5284
  449MOL0     H60609   5.309  -0.428   9.764 -0.6811 -1.8546  0.2957
  449MOL0     H60610   5.300  -0.444   9.936  1.4754 -0.3083  0.9807
  449MOL0     H60611   5.543  -0.475   9.957  0.3361  1.2173  0.8105
  449MOL0     H60612   5.577  -0.400   9.807  0.9241 -2.3499 -0.0066
  449MOL0     H60613   5.469  -0.818   9.747 -0.9661  1.5823 -1.6845
  449MOL0     H60614   5.092   0.045   9.896  1.5135 -1.4591 -0.5576
  449MOL0     H60615   4.888   0.152   9.955 -3.6547 -0.0538 -0.6722
  450MOL0     O60616   4.748   1.546   2.054  0.3644  0.4615 -1.2938
  450MOL0     C60617   4.657   1.527   1.971 -0.2279  0.7165  0.1334
  450MOL0     O60618   4.524   1.512   1.991 -0.2405 -0.4431 -0.2554
  450MOL0     C60619   4.471   1.556   2.105  0.3205 -1.1182 -0.3366
  450MOL0     C60620   4.353   1.501   2.150  0.7220  0.2052 -0.6313
  450MOL0     C60621   4.292   1.547   2.269 -0.0833  0.3154  0.0295
  450MOL0     C60622   4.343   1.658   2.340  0.3218  0.4066  0.0180
  450MOL0     O60623   4.275   1.696   2.455 -0.2394  0.9714 -0.4176
  450MOL0     C60624   4.336   1.798   2.539  0.3640  0.1043 -0.3239
  450MOL0     C60625   4.293   1.802   2.689  0.1950  0.2436  0.5690
  450MOL0     C60626   4.338   1.691   2.790  0.3659  0.7447  0.3941
  450MOL0     C60627   4.316   1.732   2.938  0.6593  0.2723 -0.4413
  450MOL0     C60628   4.174   1.778   2.976 -0.0274  0.0174  0.2819
  450MOL0     C60629   4.146   1.760   3.130 -0.6546 -0.3806  1.3137
  450MOL0     C60630   4.257   1.834   3.210 -0.3119 -0.0413  0.6594
  450MOL0     C60631   4.244   1.825   3.356  0.5179 -0.4636 -0.0790
  450MOL0     N60632   4.369   1.885   3.414 -0.3569  0.2151  0.1021
  450MOL0     C60633   4.382   2.021   3.443 -0.0332  0.8827 -0.6665
  450MOL0     C60634   4.506   2.028   3.508  0.0008 -0.1586  0.5858
  450MOL0     C60635   4.585   2.135   3.579  0.0254  0.5907 -0.5962
  450MOL0     C60636   4.506   2.246   3.641 -0.2265  0.9692 -0.0847
  450MOL0     C60637   4.607   2.357   3.689  1.0859 -1.6890 -0.0328
  450MOL0     C60638   4.652   2.322   3.827  0.1009  0.4219 -0.0504
  450MOL0     O60639   4.750   2.220   3.816 -0.6172  0.5410 -0.6264
  450MOL0     C60640   4.838   2.202   3.919  0.2251 -0.5054  0.6205
  450MOL0     C60641   4.810   2.230   4.051  0.1592  0.6077  0.5653
  450MOL0     C60642   4.914   2.238   4.152  0.7705  0.5396  0.6238
  450MOL0     C60643   4.867   2.256   4.294  0.5728 -0.0996  0.5001
  450MOL0     C60644   5.036   2.195   4.114  0.1029  0.4716 -0.7104
  450MOL0     C60645   5.147   2.194   4.213 -0.0487  0.7883  0.1980
  450MOL0     O60646   5.250   2.091   4.196 -0.1679  0.9375  0.0367
  450MOL0     C60647   5.352   2.080   4.287 -0.0366 -0.7574 -0.0493
  450MOL0     C60648   5.457   2.180   4.299 -0.7447  1.2795  0.7136
  450MOL0     C60649   5.551   2.164   4.396  0.0953 -0.6256  1.2032
  450MOL0     C60650   5.554   2.060   4.485  0.7077 -0.5275  0.5049
  450MOL0     O60651   5.655   2.049   4.577  0.1729 -0.1322  0.0581
  450MOL0     C60652   5.750   1.949   4.556 -0.1004  0.1473 -0.2272
  450MOL0     C60653   5.838   1.950   4.687  0.0001  0.2728  0.9715
  450MOL0     C60654   5.898   2.088   4.711  0.4195  0.4554 -0.1648
  450MOL0     C60655   5.988   2.087   4.834  1.1462 -1.4826 -0.7888
  450MOL0     C60656   6.098   1.980   4.821  0.1042  0.2834 -0.3803
  450MOL0     C60657   6.218   2.016   4.918 -0.3566  0.2117 -0.3536
  450MOL0     C60658   6.336   2.084   4.837  0.0747  0.0598 -0.0322
  450MOL0     C60659   6.304   2.213   4.764  0.4629  0.2253 -0.4354
  450MOL0    Cl60660   6.424   2.223   4.620  0.1211 -0.2636  0.4088
  450MOL0     C60661   5.462   1.960   4.468  0.2185 -0.0987 -0.0102
  450MOL0     C60662   5.364   1.970   4.364 -0.5135  0.6807  0.9874
  450MOL0     O60663   5.145   2.276   4.307 -0.2058 -0.2125 -0.7288
  450MOL0     C60664   5.062   2.142   3.982 -1.1952 -0.9242  0.7666
  450MOL0     C60665   4.965   2.156   3.886  0.0338 -0.0318 -0.6778
  450MOL0     N60666   4.563   1.896   3.509  1.1967  0.0174  0.2986
  450MOL0     N60667   4.473   1.807   3.470  0.5327  0.3012 -0.3465
  450MOL0     C60668   4.455   1.718   2.286  0.6871  0.2038 -1.1886
  450MOL0     C60669   4.522   1.668   2.176 -0.3481  1.0067 -0.1325
  450MOL0     C60670   4.691   1.493   1.836 -0.4829 -0.0162  0.0001
  450MOL0     C60671   4.605   1.468   1.730 -0.8420  0.7580  0.3835
  450MOL0     C60672   4.651   1.432   1.604 -0.2194  0.3086 -0.3447
  450MOL0     C60673   4.790   1.441   1.573  0.9556  0.7357 -0.9505
  450MOL0     O60674   4.844   1.415   1.447  1.0381  0.0035  0.1637
  450MOL0     C60675   4.754   1.377   1.339 -0.2810 -0.2101 -0.1566
  450MOL0     C60676   4.827   1.338   1.214 -0.3567 -0.3106  0.6171
  450MOL0     C60677   4.898   1.199   1.226  0.4793  0.4612 -0.1775
  450MOL0     C60678   4.979   1.178   1.097  0.1552  0.1158 -0.4932
  450MOL0     C60679   4.993   1.034   1.061  0.2101 -0.7251  0.9464
  450MOL0     C60680   4.999   0.922   1.017  0.4791  0.2326 -0.3134
  450MOL0     C60681   4.874   1.472   1.672 -0.1072  1.0088 -0.0530
  450MOL0     C60682   4.831   1.488   1.803  0.0348  0.0876  0.2396
  450MOL0     H60683   4.303   1.426   2.091 -0.1378 -0.4307  0.8694
  450MOL0     H60684   4.205   1.495   2.308 -0.1114 -2.4315 -3.2218
  450MOL0     H60685   4.443   1.775   2.537  0.6816  1.3182  0.7528
  450MOL0     H60686   4.310   1.895   2.496  0.8337 -0.2807 -1.5170
  450MOL0     H60687   4.323   1.903   2.719 -0.1340  0.8435 -0.9871
  450MOL0     H60688   4.184   1.804   2.680  0.3117  0.7978 -1.0167
  450MOL0     H60689   4.287   1.598   2.766  1.9482  0.6257 -2.9915
  450MOL0     H60690   4.444   1.672   2.773  0.3652  0.0546  1.1028
  450MOL0     H60691   4.333   1.649   3.008 -0.2067  0.4795  0.0321
  450MOL0     H60692   4.391   1.805   2.972  0.9769 -1.5179  3.1985
  450MOL0     H60693   4.157   1.881   2.943  1.5962 -0.4492 -2.3062
  450MOL0     H60694   4.100   1.725   2.915  0.6841  1.0788 -1.6049
  450MOL0     H60695   4.047   1.804   3.144 -0.0431  0.5560  2.9542
  450MOL0     H60696   4.143   1.656   3.166  0.1517  0.2732  3.3647
  450MOL0     H60697   4.355   1.791   3.190 -0.1470 -0.3539  2.0396
  450MOL0     H60698   4.261   1.938   3.176  1.3390  0.0290  1.0037
  450MOL0     H60699   4.215   1.726   3.392 -3.4867  0.5831  0.0688
  450MOL0     H60700   4.160   1.894   3.371 -0.7511 -1.5443 -1.8772
  450MOL0     H60701   4.318   2.101   3.407 -0.0605 -0.6518 -4.4965
  450MOL0     H60702   4.643   2.076   3.652  0.0557 -0.7449 -1.6622
  450MOL0     H60703   4.667   2.170   3.516  0.9752 -0.8239 -0.2160
  450MOL0     H60704   4.444   2.219   3.728  2.5084  0.3008  1.7672
  450MOL0     H60705   4.429   2.283   3.573 -0.1181 -0.1993 -0.8628
  450MOL0     H60706   4.566   2.458   3.679  1.5210 -1.6762 -2.0871
  450MOL0     H60707   4.694   2.358   3.623  2.7453 -0.1092  2.0421
  450MOL0     H60708   4.560   2.307   3.885  0.6762  3.4358  1.8485
  450MOL0     H60709   4.698   2.405   3.880 -0.4724  2.2938 -2.3264
  450MOL0     H60710   4.709   2.231   4.093  0.6653  0.6027  1.8361
  450MOL0     H60711   4.925   2.337   4.340 -2.3465  2.3680  0.1666
  450MOL0     H60712   4.762   2.287   4.302 -1.1507 -4.3845 -2.2085
  450MOL0     H60713   4.874   2.158   4.342 -2.3881 -2.1536 -2.7510
  450MOL0     H60714   5.462   2.279   4.256  1.3333  0.8303 -0.1813
  450MOL0     H60715   5.630   2.236   4.413 -0.9754  0.7338  0.5982
  450MOL0     H60716   5.701   1.851   4.547 -1.2202  0.8508 -2.7690
  450MOL0     H60717   5.810   1.969   4.467  0.1159 -0.8564 -0.3193
  450MOL0     H60718   5.772   1.913   4.767 -0.2381 -1.3271  0.0596
  450MOL0     H60719   5.916   1.874   4.680 -0.9876 -0.8979  2.1020
  450MOL0     H60720   5.819   2.161   4.731  1.1972  2.9306 -4.7612
  450MOL0     H60721   5.935   2.124   4.615 -1.3004  1.0140 -0.6545
  450MOL0     H60722   6.029   2.188   4.839 -1.9905 -0.1224  0.8565
  450MOL0     H60723   5.936   2.078   4.930 -0.5243  4.0783 -0.8413
  450MOL0     H60724   6.131   1.972   4.717 -2.1914  3.3841 -1.5238
  450MOL0     H60725   6.050   1.886   4.850  0.6146  0.2545  0.3721
  450MOL0     H60726   6.191   2.076   5.006 -0.3182 -0.5364  0.1787
  450MOL0     H60727   6.259   1.930   4.973  0.6467  0.9713  0.1352
  450MOL0     H60728   6.377   2.007   4.771 -1.1006  0.9733 -1.9118
  450MOL0     H60729   6.418   2.102   4.907  0.5768 -0.3024 -0.5119
  450MOL0     H60730   6.325   2.292   4.837  1.0026 -0.7311  0.4765
  450MOL0     H60731   6.205   2.222   4.719  0.3958 -3.8253 -1.4700
  450MOL0     H60732   5.465   1.873   4.532  1.7772 -0.1701 -0.1457
  450MOL0     H60733   5.287   1.894   4.348 -1.8741  2.7706 -4.4762
  450MOL0     H60734   5.157   2.105   3.947 -1.2095 -0.7681  0.5579
  450MOL0     H60735   4.973   2.128   3.781 -1.6290  0.8282 -1.0696
  450MOL0     H60736   4.488   1.815   2.322  0.8431 -0.8520  1.7535
  450MOL0     H60737   4.613   1.719   2.148 -0.4748  0.4373 -1.6509
  450MOL0     H60738   4.500   1.469   1.757 -1.1631  0.5701 -0.8290
  450MOL0     H60739   4.583   1.387   1.533  1.2630 -0.3384 -1.4132
  450MOL0     H60740   4.691   1.294   1.369 -1.5592  0.5262 -0.7296
  450MOL0     H60741   4.690   1.460   1.309  0.9137  0.5141 -0.8083
  450MOL0     H60742   4.903   1.415   1.197 -1.4417  0.9237  1.1203
  450MOL0     H60743   4.761   1.330   1.126  2.5453 -0.3083 -1.7261
  450MOL0     H60744   4.820   1.124   1.242 -1.8171  3.1829  2.5900
  450MOL0     H60745   4.968   1.207   1.309  0.0860 -1.4417  0.3807
  450MOL0     H60746   5.078   1.216   1.123  0.3226  0.9498 -2.2050
  450MOL0     H60747   4.943   1.237   1.012 -0.6828 -1.9920 -1.6644
  450MOL0     H60748   5.007   0.822   0.981  0.8868  0.3244 -0.4874
  450MOL0     H60749   4.977   1.467   1.639 -0.1816  5.6433 -1.7453
  450MOL0     H60750   4.903   1.514   1.879  1.4344  2.4560 -1.7516
  451MOL0     O60751   5.988   5.707   5.841 -0.1415  0.0558  0.5180
  451MOL0     C60752   5.958   5.588   5.809 -0.1881  0.9120  0.3994
  451MOL0     O60753   5.949   5.532   5.685 -0.0177 -0.0704 -0.9593
  451MOL0     C60754   5.981   5.604   5.573 -2.0158  0.7115  0.3715
  451MOL0     C60755   5.885   5.652   5.491  0.0872 -0.0392 -0.3988
  451MOL0     C60756   5.912   5.713   5.371 -0.2554  0.2672  0.6500
  451MOL0     C60757   6.045   5.724   5.335  0.4160  0.3590  0.0328
  451MOL0     O60758   6.095   5.778   5.221 -0.2232  0.4552  0.1811
  451MOL0     C60759   6.014   5.828   5.113  0.1450  0.2172 -0.1688
  451MOL0     C60760   6.080   5.920   5.013 -0.3633 -0.1930 -0.8640
  451MOL0     C60761   6.195   6.003   5.084  0.6571  0.4116  0.3136
  451MOL0     C60762   6.209   6.129   4.991 -0.1846  1.2200 -0.2972
  451MOL0     C60763   6.330   6.207   5.025 -0.3428 -0.2492  0.4206
  451MOL0     C60764   6.464   6.127   5.003 -0.5914  0.6838  0.2864
  451MOL0     C60765   6.589   6.214   5.029 -0.2132 -0.1769 -0.3188
  451MOL0     C60766   6.634   6.239   5.176  0.1788  0.0460  0.3768
  451MOL0     N60767   6.640   6.115   5.254 -0.3555  0.8067 -0.7349
  451MOL0     C60768   6.704   5.993   5.224  0.5511 -0.3054 -0.0852
  451MOL0     C60769   6.653   5.900   5.313  0.8267 -0.4410  0.4089
  451MOL0     C60770   6.712   5.760   5.317  0.2678 -0.0441 -0.6795
  451MOL0     C60771   6.665   5.672   5.199  0.6399 -0.1542  0.7153
  451MOL0     C60772   6.743   5.535   5.213  0.5580  0.1309 -0.1071
  451MOL0     C60773   6.686   5.417   5.136 -0.0131 -0.2181  0.3042
  451MOL0     O60774   6.651   5.446   5.003 -0.0191 -0.6847  0.1874
  451MOL0     C60775   6.705   5.367   4.907  1.0245  0.4399  0.3696
  451MOL0     C60776   6.643   5.365   4.783  0.2346  0.3658 -0.5390
  451MOL0     C60777   6.698   5.308   4.671 -0.2084 -0.0808 -0.8461
  451MOL0     C60778   6.624   5.322   4.527 -0.4864 -0.9895 -0.3618
  451MOL0     C60779   6.827   5.244   4.679  0.0889  0.7552  1.3075
  451MOL0     C60780   6.906   5.177   4.569  0.7484  0.7778  0.2692
  451MOL0     O60781   7.041   5.204   4.578  0.5437 -0.4500  0.0042
  451MOL0     C60782   7.120   5.149   4.484 -0.3615 -0.3321  0.4328
  451MOL0     C60783   7.150   5.007   4.482  0.5564 -0.0772  0.7894
  451MOL0     C60784   7.219   4.946   4.374 -0.1071  0.0904 -0.3231
  451MOL0     C60785   7.270   5.025   4.269  0.7385 -0.6825 -1.0157
  451MOL0     O60786   7.336   4.976   4.167 -0.3824 -0.7938  0.1381
  451MOL0     C60787   7.467   5.024   4.145  0.0790 -0.0522  0.5870
  451MOL0     C60788   7.509   4.935   4.020 -0.4496  0.7640 -0.4678
  451MOL0     C60789   7.652   4.956   3.972  0.2967 -0.4474 -0.1048
  451MOL0     C60790   7.743   4.874   4.068  1.2378  0.1221 -0.1162
  451MOL0     C60791   7.885   4.895   4.029  0.4794  0.7414 -0.6225
  451MOL0     C60792   7.979   4.843   4.148  0.7606  0.2894  0.0830
  451MOL0     C60793   8.121   4.882   4.109  0.1856  0.3601  0.0184
  451MOL0     C60794   8.229   4.784   4.160  0.3856  0.7239 -0.2611
  451MOL0    Cl60795   8.379   4.884   4.147  0.5790  0.1204 -0.0043
  451MOL0     C60796   7.234   5.164   4.264 -0.4050 -0.2903  0.1037
  451MOL0     C60797   7.162   5.221   4.369 -0.3243 -0.7892 -0.1532
  451MOL0     O60798   6.850   5.089   4.506 -0.6507  0.3807 -0.0559
  451MOL0     C60799   6.882   5.235   4.801 -0.6662  0.5549  0.4257
  451MOL0     C60800   6.831   5.295   4.911  0.7982 -0.1033 -0.7819
  451MOL0     N60801   6.566   5.968   5.392  0.0957 -0.6381  0.4374
  451MOL0     N60802   6.561   6.095   5.364  0.3418  0.8950  0.5070
  451MOL0     C60803   6.151   5.688   5.424 -0.0144  0.0933  0.4638
  451MOL0     C60804   6.120   5.622   5.541  0.7153 -0.1019 -0.0351
  451MOL0     C60805   5.905   5.505   5.928 -0.2981 -0.1016  0.3363
  451MOL0     C60806   5.825   5.389   5.905  0.1763 -0.7248 -0.2300
  451MOL0     C60807   5.760   5.323   6.006 -0.5767  0.2865  0.2282
  451MOL0     C60808   5.794   5.354   6.139 -0.5169  0.0106 -0.0551
  451MOL0     O60809   5.733   5.295   6.251 -0.1537  0.5480 -0.2644
  451MOL0     C60810   5.665   5.170   6.238 -0.2742 -0.5750  0.0067
  451MOL0     C60811   5.766   5.050   6.221  0.9579 -0.0222 -0.7145
  451MOL0     C60812   5.714   4.919   6.278 -1.0354  0.4590 -0.6213
  451MOL0     C60813   5.644   4.837   6.164 -0.1177  1.2946  0.0646
  451MOL0     C60814   5.622   4.704   6.222 -0.2196 -0.9822  0.0542
  451MOL0     C60815   5.581   4.595   6.272 -0.3001 -0.1190  0.0632
  451MOL0     C60816   5.868   5.468   6.164 -0.8360 -0.6705  0.4747
  451MOL0     C60817   5.925   5.544   6.062  0.9224 -0.8014 -0.5684
  451MOL0     H60818   5.780   5.645   5.514 -0.9237  0.6697 -4.0602
  451MOL0     H60819   5.844   5.764   5.303  0.9385 -2.3021 -2.7452
  451MOL0     H60820   5.967   5.747   5.056 -0.9427  2.7118 -3.0940
  451MOL0     H60821   5.927   5.883   5.150 -0.9035 -0.9007 -0.8681
  451MOL0     H60822   6.122   5.867   4.927  2.2318  1.1996 -0.5289
  451MOL0     H60823   6.002   5.978   4.963  0.1668  1.0840 -0.2409
  451MOL0     H60824   6.167   6.037   5.184  0.4126  0.8389  0.1037
  451MOL0     H60825   6.282   5.937   5.089  0.2685 -0.2038 -0.7406
  451MOL0     H60826   6.217   6.112   4.883  1.9422 -0.6913  0.0772
  451MOL0     H60827   6.124   6.192   5.016 -1.5752 -0.7294  0.0703
  451MOL0     H60828   6.317   6.300   4.970 -2.5642  0.9891  2.8643
  451MOL0     H60829   6.325   6.245   5.127 -0.0201 -0.9215  0.6962
  451MOL0     H60830   6.464   6.029   5.051 -5.0808  1.1205  1.5828
  451MOL0     H60831   6.486   6.104   4.899  2.7391  0.6035  0.8761
  451MOL0     H60832   6.677   6.168   4.982  1.2469  2.7432 -0.6683
  451MOL0     H60833   6.579   6.312   4.980  5.2584 -0.1167 -1.9456
  451MOL0     H60834   6.574   6.322   5.213  0.2375  1.9506 -3.3551
  451MOL0     H60835   6.734   6.283   5.177 -0.7682  2.3313  0.1465
  451MOL0     H60836   6.786   5.975   5.156  1.1683  0.4856  0.4291
  451MOL0     H60837   6.817   5.785   5.305 -0.1335  0.7933 -2.9690
  451MOL0     H60838   6.688   5.711   5.412 -2.5770 -1.5566 -2.0357
  451MOL0     H60839   6.692   5.716   5.103  7.2851 -2.9152  0.7393
  451MOL0     H60840   6.557   5.664   5.213  0.4104  2.7837  1.0721
  451MOL0     H60841   6.755   5.511   5.319 -1.8270  1.6959  0.5917
  451MOL0     H60842   6.838   5.567   5.170 -0.7570  2.0374 -1.7663
  451MOL0     H60843   6.596   5.384   5.188 -0.4097  1.3988  0.6970
  451MOL0     H60844   6.755   5.332   5.146  1.4847  0.7494 -1.2564
  451MOL0     H60845   6.541   5.400   4.770 -0.4257  0.0124  2.7784
  451MOL0     H60846   6.641   5.229   4.473  2.5996 -0.2030 -0.9045
  451MOL0     H60847   6.514   5.326   4.533 -0.8558 -1.7480 -4.1562
  451MOL0     H60848   6.649   5.411   4.469 -0.8475 -1.0064 -0.5443
  451MOL0     H60849   7.113   4.947   4.564  0.3208  0.6063  1.1855
  451MOL0     H60850   7.235   4.839   4.363 -1.6811 -0.0355 -1.8439
  451MOL0     H60851   7.472   5.129   4.113 -1.4270 -1.2338 -4.5396
  451MOL0     H60852   7.524   4.995   4.234 -2.5960  0.2839  2.5275
  451MOL0     H60853   7.510   4.835   4.064  1.0874  0.1146 -1.8270
  451MOL0     H60854   7.438   4.941   3.936 -0.9764 -0.8198 -0.1686
  451MOL0     H60855   7.675   5.063   3.981  2.9316 -1.0069  0.6331
  451MOL0     H60856   7.657   4.915   3.870 -1.6898 -4.1775  1.1315
  451MOL0     H60857   7.734   4.903   4.173  0.9567 -1.7145  0.4065
  451MOL0     H60858   7.724   4.767   4.073  2.0648 -0.2183 -2.8097
  451MOL0     H60859   7.905   5.001   4.010 -0.4805  1.1203  0.3298
  451MOL0     H60860   7.916   4.851   3.934 -0.7045 -0.1609 -0.6104
  451MOL0     H60861   7.955   4.895   4.241 -4.0445 -1.0959 -0.0969
  451MOL0     H60862   7.963   4.736   4.165 -0.8783  0.3023 -1.1708
  451MOL0     H60863   8.135   4.985   4.142 -0.3293  0.6102 -0.5230
  451MOL0     H60864   8.128   4.879   4.000  0.1597 -1.1214  0.0271
  451MOL0     H60865   8.247   4.695   4.100 -2.9673 -1.1816  1.2403
  451MOL0     H60866   8.224   4.754   4.265 -0.6036  0.8196 -0.2615
  451MOL0     H60867   7.242   5.228   4.177  3.4181  0.7773  1.0531
  451MOL0     H60868   7.128   5.324   4.374  2.4358  0.1476  1.2403
  451MOL0     H60869   6.982   5.193   4.811 -0.4842  0.7644 -0.4646
  451MOL0     H60870   6.898   5.308   4.995 -1.6063 -2.8202  1.7489
  451MOL0     H60871   6.250   5.697   5.379 -0.8333  3.0251 -1.0531
  451MOL0     H60872   6.178   5.572   5.617 -0.1026  1.1431  1.4825
  451MOL0     H60873   5.818   5.354   5.803  0.2204  3.6993 -1.9576
  451MOL0     H60874   5.689   5.245   5.980 -0.3253  0.1280  0.0015
  451MOL0     H60875   5.608   5.153   6.330 -2.0396  0.3664 -0.8515
  451MOL0     H60876   5.587   5.188   6.163 -0.7942  5.1486  1.4559
  451MOL0     H60877   5.856   5.073   6.277 -1.1141 -1.7244  3.8193
  451MOL0     H60878   5.778   5.020   6.116 -3.5560 -2.9469 -0.7076
  451MOL0     H60879   5.657   4.950   6.366 -1.7086  2.3864 -1.6667
  451MOL0     H60880   5.801   4.865   6.316  0.0815  1.9471 -0.9722
  451MOL0     H60881   5.719   4.840   6.085 -0.7204 -0.3280 -0.6093
  451MOL0     H60882   5.555   4.892   6.133 -0.7587  0.0933 -0.2577
  451MOL0     H60883   5.544   4.512   6.328 -0.8451 -0.1352 -0.3237
  451MOL0     H60884   5.883   5.499   6.267  0.5325 -2.3596  0.8297
  451MOL0     H60885   5.991   5.630   6.060 -0.3976  0.2623  0.0313
  452MOL0     O60886  10.420   5.175   1.295 -0.8654 -0.2208  0.1875
  452MOL0     C60887  10.317   5.166   1.233  0.4644 -0.0510 -0.7200
  452MOL0     O60888  10.305   5.168   1.105  0.1527 -0.0792  0.1964
  452MOL0     C60889  10.412   5.185   1.027  0.0342  0.1072  0.5895
  452MOL0     C60890  10.467   5.069   0.963 -0.4757 -0.5472  0.7025
  452MOL0     C60891  10.553   5.093   0.860 -0.4145  0.4204  0.0344
  452MOL0     C60892  10.600   5.224   0.830 -0.6791 -0.7156 -0.1560
  452MOL0     O60893  10.681   5.224   0.721  0.7610 -0.3803  0.1649
  452MOL0     C60894  10.653   5.325   0.616 -0.3602  1.0765  0.0970
  452MOL0     C60895  10.744   5.452   0.630 -0.6988 -0.6351 -0.0336
  452MOL0     C60896  10.891   5.412   0.620 -0.0552  0.1483  0.2734
  452MOL0     C60897  10.995   5.516   0.655  0.5417 -0.1707 -0.3347
  452MOL0     C60898  11.003   5.550   0.806  0.1261  0.2194  0.1610
  452MOL0     C60899  11.010   5.435   0.902  0.1503 -0.1431 -0.9028
  452MOL0     C60900  11.060   5.491   1.036 -0.3686  0.5882  0.2703
  452MOL0     C60901  11.051   5.393   1.150  0.3792  1.4996  0.3432
  452MOL0     N60902  11.118   5.436   1.271  0.1623  0.1642  0.5388
  452MOL0     C60903  11.084   5.518   1.369 -0.3339  0.2004 -0.4467
  452MOL0     C60904  11.189   5.530   1.444 -0.9985 -0.7007  0.3539
  452MOL0     C60905  11.206   5.602   1.564  0.0469 -0.3496 -0.6099
  452MOL0     C60906  11.242   5.757   1.544 -0.0164  0.3722 -0.2790
  452MOL0     C60907  11.363   5.768   1.461 -0.4688 -0.9571  0.2697
  452MOL0     C60908  11.378   5.908   1.403 -0.7242  0.2431 -0.2895
  452MOL0     O60909  11.259   5.978   1.358 -0.5037  0.3639  0.1795
  452MOL0     C60910  11.216   5.965   1.222 -0.9209  0.1427  0.2358
  452MOL0     C60911  11.133   6.068   1.166  0.5115 -0.0135 -0.6757
  452MOL0     C60912  11.090   6.071   1.031  0.1289 -0.4735 -1.1382
  452MOL0     C60913  10.998   6.183   0.989 -0.2528  0.3670 -0.6870
  452MOL0     C60914  11.133   5.963   0.946 -0.8610 -0.3251  0.4056
  452MOL0     C60915  11.112   5.946   0.805  0.6326 -0.2403 -0.1051
  452MOL0     O60916  10.996   5.996   0.761 -1.2673  0.0869  0.2065
  452MOL0     C60917  10.992   6.027   0.621  0.0942 -0.5789 -0.0772
  452MOL0     C60918  10.984   5.937   0.527  0.2083 -1.0630 -0.0687
  452MOL0     C60919  10.976   5.972   0.395 -0.0194 -0.7979 -0.2144
  452MOL0     C60920  10.980   6.103   0.349 -0.1893 -0.6666 -0.1958
  452MOL0     O60921  10.965   6.149   0.220 -1.0684 -1.5397 -0.0190
  452MOL0     C60922  10.966   6.051   0.106  0.3650 -0.0285  0.0633
  452MOL0     C60923  11.094   5.979   0.084  0.5942 -1.0684 -0.4062
  452MOL0     C60924  11.094   5.868  -0.016  0.9531  0.6275 -1.2164
  452MOL0     C60925  11.073   5.915  -0.157  1.1434 -0.1382  0.1098
  452MOL0     C60926  11.066   5.795  -0.258  0.5812  0.3730 -0.1551
  452MOL0     C60927  10.945   5.697  -0.247  0.3569  0.4966 -1.3123
  452MOL0     C60928  10.820   5.748  -0.335 -1.0312 -0.5826  0.0516
  452MOL0     C60929  10.691   5.687  -0.296  0.2556  0.3011 -0.0901
  452MOL0    Cl60930  10.689   5.514  -0.348 -0.6139 -0.9780 -0.4786
  452MOL0     C60931  11.013   6.198   0.450  0.2877  0.1159 -0.1117
  452MOL0     C60932  11.017   6.165   0.588 -0.2090 -0.3067  0.3073
  452MOL0     O60933  11.206   5.903   0.741 -0.1958  0.1737  0.2413
  452MOL0     C60934  11.223   5.857   1.001  0.8351  0.6863  0.1481
  452MOL0     C60935  11.253   5.858   1.127 -0.6470 -0.2890 -0.0601
  452MOL0     N60936  11.282   5.443   1.404 -0.1033  0.6649  0.6478
  452MOL0     N60937  11.241   5.395   1.284 -0.4742 -1.3533 -0.1852
  452MOL0     C60938  10.553   5.328   0.907 -0.4369  0.1621 -0.2814
  452MOL0     C60939  10.455   5.313   1.000  0.3481 -0.1427  1.6396
  452MOL0     C60940  10.190   5.174   1.317 -0.9056 -1.0725  0.3845
  452MOL0     C60941  10.199   5.158   1.457 -0.9250 -0.0526  0.7045
  452MOL0     C60942  10.081   5.172   1.534 -0.6133 -0.2648 -0.8326
  452MOL0     C60943   9.957   5.205   1.472 -1.0379 -0.7231  0.2600
  452MOL0     O60944   9.847   5.221   1.554 -0.5954 -0.3153 -0.9217
  452MOL0     C60945   9.714   5.207   1.511  0.0183 -0.0717  0.4258
  452MOL0     C60946   9.622   5.189   1.637  0.2796  0.0741  0.0416
  452MOL0     C60947   9.620   5.060   1.705 -0.4729 -0.2192  0.5429
  452MOL0     C60948   9.500   5.037   1.803 -0.5670 -0.4334  0.1266
  452MOL0     C60949   9.532   5.092   1.932 -0.2761 -1.0516  0.4601
  452MOL0     C60950   9.560   5.130   2.041  0.1414 -0.0680 -0.0683
  452MOL0     C60951   9.954   5.232   1.337 -0.1165 -0.0418  0.3164
  452MOL0     C60952  10.069   5.209   1.259  0.2288 -0.0863 -0.7364
  452MOL0     H60953  10.439   4.968   0.991 -0.7644 -0.9262 -0.9033
  452MOL0     H60954  10.601   5.012   0.806  0.4420 -0.2948  1.8126
  452MOL0     H60955  10.670   5.276   0.520 -0.8348 -1.4071  1.1945
  452MOL0     H60956  10.545   5.343   0.619 -0.6934  0.6717 -3.9762
  452MOL0     H60957  10.724   5.530   0.555  0.7303  2.1818  2.3027
  452MOL0     H60958  10.721   5.499   0.726  1.4537  0.5547 -0.0435
  452MOL0     H60959  10.911   5.322   0.679  0.6074  0.2947  0.2859
  452MOL0     H60960  10.904   5.395   0.513 -0.5346 -3.1552  0.6278
  452MOL0     H60961  11.081   5.456   0.622 -0.4989 -0.7115 -2.1887
  452MOL0     H60962  10.969   5.606   0.599 -2.9992 -0.8311 -0.0003
  452MOL0     H60963  11.079   5.626   0.829 -0.9189  0.6261  2.4945
  452MOL0     H60964  10.916   5.605   0.844  0.6098 -0.1328  1.8488
  452MOL0     H60965  10.918   5.379   0.918  1.5531 -1.8075  2.2621
  452MOL0     H60966  11.075   5.353   0.870 -1.1418 -0.6887 -2.2236
  452MOL0     H60967  11.162   5.530   1.035 -0.7675  1.6705  0.3228
  452MOL0     H60968  10.990   5.573   1.054 -0.6053  1.1009 -2.5266
  452MOL0     H60969  11.101   5.303   1.112  3.2235  2.5871  1.2970
  452MOL0     H60970  10.944   5.372   1.163  0.9828 -1.2111  1.8675
  452MOL0     H60971  10.983   5.558   1.380 -0.5424 -0.6392  0.9687
  452MOL0     H60972  11.103   5.592   1.599 -0.3575 -2.1886 -2.1867
  452MOL0     H60973  11.284   5.549   1.619  0.8709  0.5832 -0.8463
  452MOL0     H60974  11.251   5.799   1.645 -0.6461 -2.1621  0.9271
  452MOL0     H60975  11.161   5.812   1.494 -0.3699  0.5767  0.5008
  452MOL0     H60976  11.368   5.702   1.374  2.7215 -1.2377  0.5571
  452MOL0     H60977  11.459   5.737   1.502  0.7893  1.6468 -0.4830
  452MOL0     H60978  11.453   5.915   1.324 -1.2939 -0.2986 -0.8814
  452MOL0     H60979  11.420   5.971   1.483 -3.3970  3.0595 -0.9153
  452MOL0     H60980  11.113   6.142   1.243 -0.9609 -1.3655  0.2949
  452MOL0     H60981  10.944   6.231   1.071 -2.5901  1.4321 -2.7238
  452MOL0     H60982  11.056   6.262   0.940  1.3644 -0.4666 -0.1630
  452MOL0     H60983  10.915   6.154   0.925 -0.9680  1.9714 -0.5579
  452MOL0     H60984  10.976   5.833   0.557 -2.3373 -1.4101 -1.6598
  452MOL0     H60985  10.990   5.883   0.334 -1.1707 -2.3973  1.7484
  452MOL0     H60986  10.882   5.986   0.133  2.2337 -2.1534  1.1063
  452MOL0     H60987  10.937   6.094   0.010  0.0224  4.6461  1.9727
  452MOL0     H60988  11.165   6.058   0.058 -0.4682 -0.2978 -1.0761
  452MOL0     H60989  11.139   5.927   0.169  0.2141 -4.6737 -2.2317
  452MOL0     H60990  11.017   5.800   0.022  1.1151  1.2309  0.2585
  452MOL0     H60991  11.193   5.821  -0.011  1.3044  1.4223 -0.6458
  452MOL0     H60992  10.984   5.978  -0.161  1.6241  0.5451 -4.0673
  452MOL0     H60993  11.151   5.987  -0.183 -0.4193  0.5891 -2.9812
  452MOL0     H60994  11.160   5.739  -0.261  0.3033 -0.1816  1.0515
  452MOL0     H60995  11.060   5.836  -0.360  0.2961 -2.6512 -1.4453
  452MOL0     H60996  10.971   5.594  -0.274 -1.2083 -0.3774  0.2467
  452MOL0     H60997  10.918   5.696  -0.140  2.9438  0.4884 -0.6056
  452MOL0     H60998  10.855   5.721  -0.435  0.7124  0.4328  0.3411
  452MOL0     H60999  10.814   5.856  -0.318 -3.1603 -0.0581 -3.2168
  452MOL0     H61000  10.610   5.740  -0.347  0.5112 -0.6005 -1.4770
  452MOL0     H61001  10.672   5.694  -0.188  0.7844  1.8340 -0.0739
  452MOL0     H61002  11.018   6.298   0.407 -2.7094  0.0761 -0.8045
  452MOL0     H61003  11.035   6.244   0.660 -2.4358  1.2544 -0.7606
  452MOL0     H61004  11.249   5.775   0.935  1.4605 -0.9994  2.3916
  452MOL0     H61005  11.326   5.785   1.159  0.0836  0.6588  0.4924
  452MOL0     H61006  10.607   5.420   0.887  0.0919 -0.3344 -1.1799
  452MOL0     H61007  10.411   5.404   1.042 -2.6749  1.3034 -3.7711
  452MOL0     H61008  10.289   5.129   1.510 -1.5214 -1.3399  1.0477
  452MOL0     H61009  10.079   5.163   1.642  0.8616 -1.5698 -0.8784
  452MOL0     H61010   9.679   5.292   1.451  2.6424  0.8803  0.0810
  452MOL0     H61011   9.711   5.117   1.449  0.9068 -1.2542  2.0497
  452MOL0     H61012   9.524   5.228   1.607  1.2072  1.3991 -1.4561
  452MOL0     H61013   9.652   5.265   1.710 -2.0184  0.8012  0.2849
  452MOL0     H61014   9.714   5.039   1.757 -0.8261 -0.7078  0.9867
  452MOL0     H61015   9.615   4.983   1.627  2.4994 -1.5142  1.4723
  452MOL0     H61016   9.467   4.933   1.813 -0.5684 -0.3562  1.0721
  452MOL0     H61017   9.413   5.081   1.754 -0.2551 -1.8085 -1.7596
  452MOL0     H61018   9.583   5.152   2.144  1.1928 -1.5658  0.0530
  452MOL0     H61019   9.868   5.284   1.295  0.5009  1.7929  1.1977
  452MOL0     H61020  10.067   5.229   1.152 -0.4094 -3.6973 -1.5134
  453MOL0     O61021  10.524   9.618   3.134  0.9800  0.0601 -0.3965
  453MOL0     C61022  10.518   9.740   3.135 -1.1118  0.3561 -1.7277
  453MOL0     O61023  10.412   9.825   3.099 -0.1436  0.6803  0.1039
  453MOL0     C61024  10.295   9.763   3.070  0.1689 -0.4172 -0.0246
  453MOL0     C61025  10.189   9.773   3.156 -0.0789  0.3416 -0.4153
  453MOL0     C61026  10.067   9.716   3.121 -1.1437 -0.0755  0.5231
  453MOL0     C61027  10.051   9.643   3.001  0.2990 -0.3135 -0.3141
  453MOL0     O61028   9.922   9.598   2.971 -0.8531 -0.1416 -0.5992
  453MOL0     C61029   9.878   9.633   2.838 -0.8342  0.7735 -0.2964
  453MOL0     C61030   9.858   9.780   2.810  0.3014  0.0894 -0.3236
  453MOL0     C61031   9.749   9.839   2.889 -0.3825 -0.1832 -0.6204
  453MOL0     C61032   9.761   9.993   2.908  1.1137 -0.2447  0.3369
  453MOL0     C61033   9.871  10.035   2.995 -1.2198 -0.2382 -0.7478
  453MOL0     C61034   9.876  10.180   3.033 -0.7226  0.7869  0.7301
  453MOL0     C61035   9.886  10.279   2.918 -1.0206 -0.1201 -0.1563
  453MOL0     C61036   9.850  10.428   2.972 -0.1308  0.5398  0.5512
  453MOL0     N61037   9.892  10.542   2.882  0.2418  0.5080 -0.2005
  453MOL0     C61038   9.822  10.591   2.773 -0.8891  0.4887 -0.6249
  453MOL0     C61039   9.916  10.680   2.726 -0.0249 -0.2793  0.3282
  453MOL0     C61040   9.903  10.756   2.592  0.1174 -0.5860 -0.4256
  453MOL0     C61041   9.769  10.738   2.528 -0.8783  0.4223  0.0429
  453MOL0     C61042   9.758  10.814   2.391  1.0767  0.0768 -0.2409
  453MOL0     C61043   9.619  10.815   2.338 -1.0092 -0.1308  0.1753
  453MOL0     O61044   9.547  10.906   2.422  0.2091  1.0231  0.1200
  453MOL0     C61045   9.426  10.916   2.379  0.2728  0.4527 -0.6399
  453MOL0     C61046   9.375  11.047   2.359 -0.0490  0.3142 -0.0011
  453MOL0     C61047   9.241  11.066   2.327  0.4183  0.2136  0.5892
  453MOL0     C61048   9.196  11.212   2.319  0.2653 -0.4761  0.2117
  453MOL0     C61049   9.157  10.950   2.294 -0.9756 -0.4835  0.2373
  453MOL0     C61050   9.019  10.954   2.253  1.3552 -0.2348 -0.4441
  453MOL0     O61051   8.938  10.844   2.276  0.4493 -0.2683  0.2328
  453MOL0     C61052   8.794  10.844   2.290 -0.8654  0.3190  0.4435
  453MOL0     C61053   8.706  10.956   2.274 -0.9406  0.9724 -1.0786
  453MOL0     C61054   8.571  10.939   2.291  0.2636  0.7104  0.4218
  453MOL0     C61055   8.519  10.812   2.322 -1.3195 -0.4949 -0.1709
  453MOL0     O61056   8.388  10.790   2.335 -0.6047 -0.3705 -0.1934
  453MOL0     C61057   8.299  10.905   2.338  0.1763 -0.0321 -0.2984
  453MOL0     C61058   8.164  10.846   2.396 -0.6187 -0.2444  0.1972
  453MOL0     C61059   8.022  10.908   2.355 -0.2223 -0.1704  0.7093
  453MOL0     C61060   7.998  11.043   2.412 -1.5621  0.0329  0.7672
  453MOL0     C61061   7.899  11.135   2.343 -0.2297 -0.1809  0.1571
  453MOL0     C61062   7.760  11.078   2.306 -0.4176 -0.2225 -0.1924
  453MOL0     C61063   7.683  11.027   2.424 -0.2458  0.2628  0.0537
  453MOL0     C61064   7.536  11.039   2.413 -0.2928 -1.0205 -0.5880
  453MOL0    Cl61065   7.443  10.967   2.547  0.1051  0.0485 -0.3298
  453MOL0     C61066   8.601  10.713   2.356 -1.0667  1.0359 -0.9571
  453MOL0     C61067   8.737  10.723   2.335  0.3914 -0.5751  0.3050
  453MOL0     O61068   8.978  11.053   2.198  0.0337 -0.1219 -0.0479
  453MOL0     C61069   9.214  10.827   2.309  0.5384 -0.2579 -0.6112
  453MOL0     C61070   9.341  10.806   2.360  0.6830 -0.0278  0.5294
  453MOL0     N61071  10.029  10.683   2.800  0.3846 -0.4187  0.3689
  453MOL0     N61072  10.008  10.599   2.893 -0.6009 -0.3577 -0.3988
  453MOL0     C61073  10.162   9.616   2.922 -1.3001 -1.2437 -0.1934
  453MOL0     C61074  10.282   9.682   2.954 -0.9551 -0.3293 -0.5633
  453MOL0     C61075  10.639   9.814   3.179  0.3646  0.0433 -0.8697
  453MOL0     C61076  10.751   9.749   3.238 -0.0908 -0.5249 -0.3032
  453MOL0     C61077  10.868   9.816   3.290  0.2023 -0.0828  0.3787
  453MOL0     C61078  10.873   9.962   3.274  0.1656  0.1865 -0.1230
  453MOL0     O61079  10.973  10.040   3.316 -0.5802 -0.0882  0.2842
  453MOL0     C61080  11.067   9.982   3.403  0.9727  0.4981 -0.9602
  453MOL0     C61081  11.157  10.080   3.487  0.0438  0.4975 -0.3719
  453MOL0     C61082  11.243   9.990   3.575  0.1709  0.0321  0.2817
  453MOL0     C61083  11.332  10.069   3.673  0.0840  0.5172  1.2854
  453MOL0     C61084  11.392   9.964   3.760 -0.0935  0.8732 -0.0225
  453MOL0     C61085  11.455   9.862   3.804  0.7338 -0.4639 -0.3654
  453MOL0     C61086  10.773  10.029   3.209 -0.4650 -0.8380  1.9208
  453MOL0     C61087  10.657   9.957   3.159  0.6984  0.7322  0.3120
  453MOL0     H61088  10.190   9.825   3.251  1.0501  0.6835 -0.5948
  453MOL0     H61089   9.986   9.740   3.189 -0.1480 -0.3891  1.8560
  453MOL0     H61090   9.947   9.588   2.765 -1.5671 -0.2640 -0.3819
  453MOL0     H61091   9.783   9.583   2.819  1.1114 -3.1019 -0.8581
  453MOL0     H61092   9.954   9.828   2.827 -0.3303  0.5842  2.2889
  453MOL0     H61093   9.839   9.806   2.706 -1.0473  1.6917  0.2711
  453MOL0     H61094   9.660   9.812   2.831 -0.1145 -1.6018 -0.4168
  453MOL0     H61095   9.744   9.795   2.989  0.6355 -2.6397 -1.5602
  453MOL0     H61096   9.744  10.043   2.812  0.0335 -2.7900 -0.9031
  453MOL0     H61097   9.669  10.022   2.959  0.2081 -1.1069 -0.7414
  453MOL0     H61098   9.879   9.972   3.084  2.6296 -0.3628 -1.0281
  453MOL0     H61099   9.963  10.006   2.944 -1.3599 -3.0293  0.4480
  453MOL0     H61100   9.781  10.199   3.084 -0.2187 -1.8015  2.8483
  453MOL0     H61101   9.963  10.194   3.099 -0.2381  0.9807  0.0602
  453MOL0     H61102   9.985  10.277   2.873 -1.1832  3.0761 -0.8797
  453MOL0     H61103   9.802  10.261   2.850  0.1229  0.2233 -1.7035
  453MOL0     H61104   9.898  10.426   3.070  1.1828 -2.2885 -0.0494
  453MOL0     H61105   9.741  10.444   2.978 -0.3372 -0.8282  0.7227
  453MOL0     H61106   9.725  10.555   2.740  0.1833 -2.1303 -1.1976
  453MOL0     H61107   9.903  10.865   2.609 -0.1070 -0.7411  0.6650
  453MOL0     H61108   9.984  10.738   2.521 -0.9081 -1.1305 -1.4901
  453MOL0     H61109   9.698  10.769   2.605 -1.3485  2.8059 -1.2808
  453MOL0     H61110   9.758  10.630   2.510  3.6555 -0.2522  0.0752
  453MOL0     H61111   9.815  10.754   2.319  1.3968  0.4269 -0.2810
  453MOL0     H61112   9.795  10.917   2.395 -1.2998  0.9869  0.1152
  453MOL0     H61113   9.587  10.711   2.329 -0.4736 -0.3618  0.8855
  453MOL0     H61114   9.612  10.861   2.238  2.7141  2.5383  0.8976
  453MOL0     H61115   9.452  11.119   2.383  0.3249  0.2325 -0.8968
  453MOL0     H61116   9.104  11.225   2.377  0.2957 -1.9093  0.6081
  453MOL0     H61117   9.265  11.287   2.360  3.6435 -3.7321  0.9750
  453MOL0     H61118   9.169  11.237   2.217  2.2546  0.2438 -0.1869
  453MOL0     H61119   8.747  11.053   2.249  0.2461  0.6392 -0.5015
  453MOL0     H61120   8.515  11.028   2.266  0.9070  1.9453  3.0012
  453MOL0     H61121   8.328  10.988   2.403  1.3099 -0.8446  0.2630
  453MOL0     H61122   8.279  10.937   2.235  1.3239 -0.2730 -0.6070
  453MOL0     H61123   8.166  10.739   2.377 -0.5547 -0.7025  2.5074
  453MOL0     H61124   8.171  10.849   2.505  2.4603  0.1971  0.0976
  453MOL0     H61125   7.932  10.855   2.386 -3.3607  4.1097 -0.1363
  453MOL0     H61126   8.004  10.906   2.247 -2.5353 -0.9713  1.0523
  453MOL0     H61127   7.963  11.028   2.515 -2.7499  0.8699  0.5163
  453MOL0     H61128   8.095  11.093   2.415 -0.8027 -1.2576 -1.0487
  453MOL0     H61129   7.933  11.182   2.250 -2.9355  1.9648  0.1195
  453MOL0     H61130   7.883  11.214   2.417  1.8321  0.8120 -0.3728
  453MOL0     H61131   7.711  11.161   2.255  0.1128 -0.7485 -1.5956
  453MOL0     H61132   7.770  10.999   2.231 -2.2286  0.6114 -1.3662
  453MOL0     H61133   7.722  11.085   2.508  1.6582  0.1960 -0.7404
  453MOL0     H61134   7.717  10.925   2.444 -0.1163 -0.4506 -3.2301
  453MOL0     H61135   7.502  10.998   2.318 -1.4988 -0.2780 -0.4913
  453MOL0     H61136   7.504  11.143   2.414 -1.8196 -1.4525  1.1769
  453MOL0     H61137   8.566  10.611   2.370  0.7635  0.2055 -2.0970
  453MOL0     H61138   8.796  10.632   2.345  0.9248 -0.0907  1.9339
  453MOL0     H61139   9.158  10.741   2.275 -1.4265  1.0264 -0.7729
  453MOL0     H61140   9.375  10.703   2.364 -0.4126 -0.6229 -2.6319
  453MOL0     H61141  10.157   9.554   2.833  1.7521 -0.3705 -1.0910
  453MOL0     H61142  10.371   9.669   2.892  0.9593  2.1341  1.4186
  453MOL0     H61143  10.758   9.640   3.232 -0.7901 -0.6104  0.3405
  453MOL0     H61144  10.939   9.746   3.331  0.2152  1.0649  2.4718
  453MOL0     H61145  11.010   9.923   3.475  0.3993  1.8088 -0.3312
  453MOL0     H61146  11.140   9.917   3.354 -0.8447 -2.0211 -0.5345
  453MOL0     H61147  11.106  10.166   3.528 -0.2563 -0.3609  1.1128
  453MOL0     H61148  11.220  10.129   3.412 -0.2127  2.4608  0.6416
  453MOL0     H61149  11.298   9.927   3.504  0.0503  1.0790 -0.7801
  453MOL0     H61150  11.176   9.925   3.630  1.7505 -1.3036  0.7150
  453MOL0     H61151  11.267  10.126   3.741  1.3154 -0.3912  3.3041
  453MOL0     H61152  11.414  10.131   3.637 -0.4009 -0.0083 -0.8737
  453MOL0     H61153  11.497   9.775   3.850  0.1533 -1.1598 -1.1311
  453MOL0     H61154  10.767  10.136   3.191 -2.1213 -0.8367  2.2920
  453MOL0     H61155  10.573  10.016   3.124 -0.6483 -1.7620 -0.8939
  454MOL0     O61156   5.997   8.071   0.899  0.6091 -0.4552 -0.7484
  454MOL0     C61157   5.910   8.009   0.964 -0.8536  0.0122  0.3282
  454MOL0     O61158   5.876   8.037   1.088 -0.4319  0.6887 -0.1284
  454MOL0     C61159   5.951   8.089   1.185  0.7367  0.3765  0.3649
  454MOL0     C61160   6.094   8.118   1.170 -1.0519 -0.2231 -0.2828
  454MOL0     C61161   6.163   8.151   1.281 -0.5883  0.1407 -0.3940
  454MOL0     C61162   6.104   8.173   1.406 -0.4698 -0.2477 -0.2793
  454MOL0     O61163   6.186   8.229   1.504  0.0601  0.4380  0.6615
  454MOL0     C61164   6.185   8.154   1.631  0.5409  0.5235  0.5465
  454MOL0     C61165   6.290   8.208   1.721  0.4447 -0.0921 -0.7203
  454MOL0     C61166   6.283   8.150   1.858 -0.8152  0.3657  0.4267
  454MOL0     C61167   6.356   8.247   1.954  0.1783 -0.0088 -0.1408
  454MOL0     C61168   6.331   8.207   2.095 -0.3720 -0.3592  0.0470
  454MOL0     C61169   6.384   8.312   2.194  0.1702  0.6765 -1.0605
  454MOL0     C61170   6.316   8.278   2.335  0.1179 -0.1345 -0.4027
  454MOL0     C61171   6.381   8.337   2.458 -0.5252 -0.1745  0.0029
  454MOL0     N61172   6.521   8.309   2.471 -0.9405 -0.1172  0.2092
  454MOL0     C61173   6.623   8.395   2.449 -0.9813  0.1528  0.6447
  454MOL0     C61174   6.735   8.326   2.476  0.6610  0.2422  0.2505
  454MOL0     C61175   6.871   8.369   2.468 -0.5772  0.0962 -0.0128
  454MOL0     C61176   6.936   8.424   2.602 -0.2198  0.1612  0.3763
  454MOL0     C61177   7.081   8.372   2.632 -0.0704  0.2700  0.0242
  454MOL0     C61178   7.138   8.468   2.731 -0.9305 -0.2370 -0.0316
  454MOL0     O61179   7.143   8.614   2.696  0.9652 -0.8428 -0.0261
  454MOL0     C61180   7.257   8.664   2.643  0.7969  1.0944  0.0397
  454MOL0     C61181   7.295   8.647   2.509 -0.5186 -0.7258  0.0247
  454MOL0     C61182   7.406   8.719   2.457 -0.9368  0.0723 -0.1098
  454MOL0     C61183   7.421   8.724   2.307 -0.0936  0.0244 -0.1309
  454MOL0     C61184   7.482   8.810   2.540 -1.0451  1.7821 -0.0929
  454MOL0     C61185   7.600   8.896   2.498  0.4686  0.6091  1.3925
  454MOL0     O61186   7.674   8.942   2.605  1.0802 -0.3838  0.5144
  454MOL0     C61187   7.766   9.029   2.575  0.3956 -0.3656  0.1761
  454MOL0     C61188   7.742   9.161   2.539 -0.1694 -0.0912 -0.8872
  454MOL0     C61189   7.854   9.244   2.516  0.3030 -0.3327 -0.5050
  454MOL0     C61190   7.988   9.205   2.540  0.9567 -1.0306 -0.4380
  454MOL0     O61191   8.085   9.298   2.505 -0.1713 -0.7263 -0.2956
  454MOL0     C61192   8.097   9.405   2.612 -0.0082  0.2445  0.2341
  454MOL0     C61193   8.145   9.536   2.542  0.2597  1.1323 -0.0262
  454MOL0     C61194   8.120   9.667   2.619 -0.3967  1.4644 -0.3833
  454MOL0     C61195   8.218   9.673   2.736 -0.5555 -0.6301 -0.6046
  454MOL0     C61196   8.177   9.769   2.843  0.6788 -0.5631 -1.0805
  454MOL0     C61197   8.182   9.922   2.800 -0.8186 -0.2659 -0.1247
  454MOL0     C61198   8.159  10.016   2.935 -0.0666  0.2328  0.4046
  454MOL0     C61199   8.157  10.164   2.909 -0.5484  0.1733 -0.4862
  454MOL0    Cl61200   8.003  10.217   2.823 -0.4099 -0.2435  0.1691
  454MOL0     C61201   8.005   9.082   2.597  0.1844  0.8221 -0.4542
  454MOL0     C61202   7.896   8.987   2.604  0.2327  0.1618 -0.9231
  454MOL0     O61203   7.613   8.919   2.379 -0.1330 -0.5255 -0.2470
  454MOL0     C61204   7.451   8.819   2.676  0.9031  1.0435 -0.2783
  454MOL0     C61205   7.339   8.745   2.719 -0.3340 -0.5917 -0.9238
  454MOL0     N61206   6.698   8.200   2.516  0.1467  0.4177  0.1304
  454MOL0     N61207   6.567   8.196   2.524  0.3546 -0.1854  0.0074
  454MOL0     C61208   5.970   8.161   1.420 -0.2490  0.3554 -0.0386
  454MOL0     C61209   5.894   8.128   1.308  0.4968 -0.1203 -0.6255
  454MOL0     C61210   5.833   7.904   0.902  0.0361 -0.0648  1.0554
  454MOL0     C61211   5.743   7.813   0.968 -0.0603 -0.7210 -0.7206
  454MOL0     C61212   5.667   7.726   0.892  0.2890 -1.0791 -0.0760
  454MOL0     C61213   5.675   7.719   0.757  0.2704  0.3756 -0.2537
  454MOL0     O61214   5.608   7.613   0.693  1.4364  0.6170  0.2438
  454MOL0     C61215   5.553   7.646   0.567 -0.2082 -0.3443 -0.8936
  454MOL0     C61216   5.476   7.518   0.527  0.4919 -0.9932  0.3378
  454MOL0     C61217   5.368   7.467   0.613 -0.6147 -0.1232 -0.7914
  454MOL0     C61218   5.294   7.341   0.556 -0.1125  0.1701  0.0089
  454MOL0     C61219   5.202   7.287   0.662 -0.1522  0.4074 -0.9404
  454MOL0     C61220   5.129   7.249   0.757 -0.5373  0.6735 -1.2279
  454MOL0     C61221   5.754   7.810   0.688 -0.0486 -1.0123 -0.0893
  454MOL0     C61222   5.829   7.905   0.756 -0.6793 -0.3351 -0.0880
  454MOL0     H61223   6.147   8.108   1.076 -3.8255  1.0425 -2.0922
  454MOL0     H61224   6.271   8.159   1.267 -0.6150  5.8765  0.2684
  454MOL0     H61225   6.084   8.148   1.673  0.7028 -3.9831  0.7641
  454MOL0     H61226   6.209   8.054   1.595 -1.0198 -0.1219  1.2130
  454MOL0     H61227   6.385   8.186   1.673 -0.6949  0.0703 -3.2232
  454MOL0     H61228   6.266   8.314   1.734 -0.5040 -0.6110  2.8747
  454MOL0     H61229   6.178   8.126   1.872 -1.8645  0.0943 -5.5246
  454MOL0     H61230   6.339   8.057   1.865 -2.5761 -0.6399  2.4631
  454MOL0     H61231   6.462   8.234   1.933  0.1328 -3.8045  1.2396
  454MOL0     H61232   6.313   8.345   1.933  0.9444 -0.2937 -3.8584
  454MOL0     H61233   6.224   8.192   2.113 -0.8246  3.8639  2.1357
  454MOL0     H61234   6.384   8.112   2.104  3.2318  1.3717 -0.7738
  454MOL0     H61235   6.493   8.302   2.199  0.2160 -0.9123 -3.4404
  454MOL0     H61236   6.374   8.416   2.164 -2.0454  0.2083 -2.1664
  454MOL0     H61237   6.220   8.330   2.344  0.1924  0.1354 -1.1134
  454MOL0     H61238   6.302   8.170   2.345 -0.5866  0.1431  2.5728
  454MOL0     H61239   6.332   8.295   2.546  1.6980 -2.8833  0.1167
  454MOL0     H61240   6.362   8.444   2.451 -0.1907  0.1756  3.2249
  454MOL0     H61241   6.610   8.492   2.403  1.4926  0.3953  0.3306
  454MOL0     H61242   6.938   8.294   2.427  4.6587  3.5557  1.1256
  454MOL0     H61243   6.872   8.455   2.400  2.3028  0.9049  0.8875
  454MOL0     H61244   6.872   8.407   2.689  0.4834  0.2385  0.9219
  454MOL0     H61245   6.939   8.532   2.588  1.9084  0.2815  1.2629
  454MOL0     H61246   7.149   8.378   2.546  1.0646 -1.8422  0.7166
  454MOL0     H61247   7.073   8.267   2.663  0.0576  0.0179 -0.7556
  454MOL0     H61248   7.242   8.441   2.754 -0.1141  0.0925 -2.9083
  454MOL0     H61249   7.078   8.451   2.821 -1.0544 -0.7012 -0.1952
  454MOL0     H61250   7.236   8.602   2.430  0.4403 -1.8145 -0.0885
  454MOL0     H61251   7.369   8.639   2.261 -1.0182  0.5677 -0.1191
  454MOL0     H61252   7.368   8.810   2.265  1.9643  0.7511 -1.3436
  454MOL0     H61253   7.524   8.723   2.271 -0.7997 -1.5221 -2.3477
  454MOL0     H61254   7.642   9.181   2.502 -0.4291 -1.6231 -1.1166
  454MOL0     H61255   7.838   9.346   2.484 -1.3272 -0.0090  1.1833
  454MOL0     H61256   8.005   9.418   2.671  0.0062 -2.4387  1.0230
  454MOL0     H61257   8.182   9.377   2.674  0.1019  0.2038  0.0654
  454MOL0     H61258   8.248   9.517   2.509 -0.6584  0.9700 -3.1818
  454MOL0     H61259   8.094   9.546   2.445 -0.8378 -2.5694  0.0350
  454MOL0     H61260   8.020   9.651   2.659  0.1888 -0.8788  0.2997
  454MOL0     H61261   8.114   9.749   2.546 -2.5271  1.2717 -0.4680
  454MOL0     H61262   8.224   9.577   2.789 -1.7695  0.0270  0.8021
  454MOL0     H61263   8.323   9.680   2.707 -1.0597  1.5483 -2.1496
  454MOL0     H61264   8.250   9.751   2.922  1.5865 -1.7250 -2.1286
  454MOL0     H61265   8.080   9.740   2.882  0.3580 -1.2077 -2.2925
  454MOL0     H61266   8.277   9.950   2.755 -1.1396 -2.0737 -2.0158
  454MOL0     H61267   8.105   9.958   2.731 -1.9968  1.9698  2.1516
  454MOL0     H61268   8.231   9.991   3.014 -0.0341 -0.6915  0.0924
  454MOL0     H61269   8.054   9.992   2.957 -0.1837  1.8941  1.9003
  454MOL0     H61270   8.249  10.180   2.852  0.6332 -2.3386  0.5803
  454MOL0     H61271   8.163  10.219   3.004 -2.3657 -1.6896  0.8056
  454MOL0     H61272   8.104   9.045   2.622  0.9078  1.2004 -2.5576
  454MOL0     H61273   7.924   8.883   2.622 -0.2157 -0.1880 -2.1471
  454MOL0     H61274   7.495   8.880   2.754 -3.0677  1.0934  2.2255
  454MOL0     H61275   7.323   8.746   2.827  0.5140 -0.6579 -0.7927
  454MOL0     H61276   5.923   8.169   1.517 -2.6502  0.0454 -1.1174
  454MOL0     H61277   5.785   8.121   1.309  0.4853 -0.5753 -2.3865
  454MOL0     H61278   5.747   7.804   1.076 -0.7495 -2.1120 -0.7904
  454MOL0     H61279   5.610   7.662   0.959 -0.0203  0.9918  1.7744
  454MOL0     H61280   5.491   7.736   0.572 -0.6829 -0.7074  3.0650
  454MOL0     H61281   5.639   7.659   0.500  0.6005 -0.6651  0.0686
  454MOL0     H61282   5.561   7.448   0.524  2.2946  1.0874  0.3448
  454MOL0     H61283   5.446   7.547   0.426  1.6086 -0.3937  0.1627
  454MOL0     H61284   5.286   7.539   0.612  0.2133  0.8481 -2.4273
  454MOL0     H61285   5.415   7.448   0.711 -0.6262 -2.5930 -1.1877
  454MOL0     H61286   5.357   7.267   0.506  0.4337  0.1465  0.7208
  454MOL0     H61287   5.226   7.368   0.475 -1.6097  0.2863  1.2560
  454MOL0     H61288   5.073   7.198   0.833  1.4252 -3.2930 -2.1961
  454MOL0     H61289   5.756   7.807   0.580 -1.6478 -1.1223 -0.1429
  454MOL0     H61290   5.904   7.960   0.700 -1.5236 -0.7065 -1.6319
  455MOL0     O61291   8.558   9.733   0.083  1.1081 -0.1835 -1.1192
  455MOL0     C61292   8.565   9.671   0.189  0.8266  0.4032  0.3477
  455MOL0     O61293   8.665   9.585   0.220 -0.3839 -0.6004  0.3592
  455MOL0     C61294   8.759   9.576   0.117 -0.2348 -0.3661 -0.2252
  455MOL0     C61295   8.725   9.498   0.004  1.1287 -0.5017 -0.3029
  455MOL0     C61296   8.814   9.468  -0.089 -0.4459  0.1818  0.9309
  455MOL0     C61297   8.948   9.507  -0.081 -0.3582 -0.7748 -0.7345
  455MOL0     O61298   9.038   9.480  -0.180  0.4122 -0.3954  0.8087
  455MOL0     C61299   9.021   9.382  -0.278  1.1678 -0.2261  0.9896
  455MOL0     C61300   9.156   9.325  -0.297 -0.6885  0.7697  1.2875
  455MOL0     C61301   9.157   9.222  -0.408 -0.2527  0.3771 -0.3590
  455MOL0     C61302   9.178   9.077  -0.346  0.0301  0.3692  0.7539
  455MOL0     C61303   9.180   8.970  -0.446 -0.0970  0.2049  0.2051
  455MOL0     C61304   9.308   8.980  -0.520 -0.0153  0.3681 -0.4371
  455MOL0     C61305   9.330   8.858  -0.606 -0.1896 -0.7768  0.0255
  455MOL0     C61306   9.479   8.825  -0.616 -0.4673 -0.4765 -0.0622
  455MOL0     N61307   9.563   8.931  -0.683  0.3631  0.2048 -0.9376
  455MOL0     C61308   9.682   8.987  -0.630 -0.4214 -0.1587 -0.4325
  455MOL0     C61309   9.722   9.084  -0.723  0.5815  0.4034  0.0930
  455MOL0     C61310   9.858   9.153  -0.729 -0.4148  1.2267 -0.3278
  455MOL0     C61311   9.841   9.304  -0.756  0.5040 -0.9978 -1.1900
  455MOL0     C61312   9.962   9.382  -0.742 -0.4623  0.9825  0.4596
  455MOL0     C61313   9.932   9.531  -0.736  0.2913 -0.6218 -0.6710
  455MOL0     O61314  10.049   9.605  -0.718 -0.4050  0.2096  0.3764
  455MOL0     C61315  10.024   9.734  -0.672 -0.0699  0.6869 -0.5821
  455MOL0     C61316  10.130   9.829  -0.669  0.1454  0.6968  0.7846
  455MOL0     C61317  10.115   9.968  -0.639 -0.3783  0.2647 -1.7708
  455MOL0     C61318  10.243  10.047  -0.622 -1.0347  1.0882  0.7478
  455MOL0     C61319   9.986  10.021  -0.611 -0.1544 -0.4143 -0.0211
  455MOL0     C61320   9.967  10.164  -0.577 -0.4391  0.0137 -0.0526
  455MOL0     O61321   9.884  10.231  -0.659  0.1531 -0.6095  0.6646
  455MOL0     C61322   9.896  10.364  -0.693 -0.9427  0.8730 -0.9743
  455MOL0     C61323   9.981  10.458  -0.625  0.0046 -0.0508  0.2569
  455MOL0     C61324   9.996  10.581  -0.692 -0.6358  0.2307 -0.9414
  455MOL0     C61325   9.915  10.622  -0.803  0.3961  0.2200  0.2008
  455MOL0     O61326   9.922  10.748  -0.862 -0.6340  0.7113 -0.0057
  455MOL0     C61327   9.959  10.858  -0.774  0.3655  0.5516  0.5834
  455MOL0     C61328   9.853  10.865  -0.660  0.4343  0.2164  0.4781
  455MOL0     C61329   9.857  10.998  -0.590  0.4065 -0.2368 -0.0068
  455MOL0     C61330   9.994  11.035  -0.531  0.3853  0.1562 -0.5137
  455MOL0     C61331   9.965  11.077  -0.379  0.5670 -0.2134 -1.0633
  455MOL0     C61332   9.909  11.218  -0.367 -0.7762  0.1612  0.0345
  455MOL0     C61333   9.958  11.307  -0.243  0.8330 -0.2952  0.2584
  455MOL0     C61334   9.900  11.447  -0.259 -1.0989  0.0622  0.2044
  455MOL0    Cl61335   9.952  11.518  -0.416 -0.0191 -0.3082  0.7494
  455MOL0     C61336   9.836  10.524  -0.859 -0.1425 -0.1838  0.7920
  455MOL0     C61337   9.829  10.391  -0.813 -0.3715 -0.1990 -0.1540
  455MOL0     O61338  10.033  10.205  -0.481 -0.2576 -0.4803  0.4188
  455MOL0     C61339   9.877   9.935  -0.623  0.3865 -0.9735 -0.0531
  455MOL0     C61340   9.892   9.803  -0.660 -1.2328  0.1406  0.3190
  455MOL0     N61341   9.627   9.082  -0.828 -0.1337 -0.2213  0.5584
  455MOL0     N61342   9.534   8.995  -0.797  0.9358  0.5417  0.5702
  455MOL0     C61343   8.989   9.593   0.029 -0.0857 -0.8224 -0.4791
  455MOL0     C61344   8.897   9.617   0.124 -0.5631 -0.3752  0.5076
  455MOL0     C61345   8.448   9.687   0.282 -0.7631  0.6410  0.0788
  455MOL0     C61346   8.376   9.804   0.274  0.6025  0.2791  0.0352
  455MOL0     C61347   8.256   9.821   0.354  0.1657  0.0713  0.6264
  455MOL0     C61348   8.220   9.726   0.453  0.3365 -0.2865 -0.5312
  455MOL0     O61349   8.113   9.757   0.534  0.7845  0.8726  0.4347
  455MOL0     C61350   8.067   9.659   0.629 -0.6865  0.0157 -0.1208
  455MOL0     C61351   7.935   9.708   0.690 -0.5853  0.5899 -0.0652
  455MOL0     C61352   7.876   9.619   0.812 -0.1773 -0.8698  0.5879
  455MOL0     C61353   7.753   9.669   0.872 -0.3596 -0.6070 -0.2387
  455MOL0     C61354   7.772   9.802   0.929 -0.6492  0.5213 -1.0275
  455MOL0     C61355   7.794   9.908   0.992  0.6495 -1.5124  0.0666
  455MOL0     C61356   8.298   9.616   0.463 -1.3134 -0.3386  0.3873
  455MOL0     C61357   8.416   9.597   0.388 -0.3541  0.3440  0.2993
  455MOL0     H61358   8.622   9.466   0.006  1.6434 -2.2596  0.7142
  455MOL0     H61359   8.769   9.415  -0.172  0.9573  0.2072  0.1139
  455MOL0     H61360   8.943   9.308  -0.258 -0.4931 -0.5598 -4.9352
  455MOL0     H61361   8.987   9.429  -0.371 -1.0972  1.4559  2.5589
  455MOL0     H61362   9.238   9.395  -0.318  1.5808 -1.6562  1.5684
  455MOL0     H61363   9.172   9.287  -0.196 -2.3271 -0.1607  1.2316
  455MOL0     H61364   9.074   9.218  -0.479  0.8593  1.3374 -1.7844
  455MOL0     H61365   9.240   9.253  -0.472 -0.7986  4.4810  0.6566
  455MOL0     H61366   9.259   9.065  -0.274 -1.8042 -3.2364  2.5219
  455MOL0     H61367   9.085   9.060  -0.290  1.1373 -0.8198  2.3276
  455MOL0     H61368   9.181   8.877  -0.388 -0.1125  0.3051  0.3674
  455MOL0     H61369   9.087   8.984  -0.501 -1.6197 -1.5556  2.1631
  455MOL0     H61370   9.313   9.077  -0.570  2.0889  1.3328  1.4932
  455MOL0     H61371   9.388   8.978  -0.445 -0.3218 -0.7726 -0.1154
  455MOL0     H61372   9.282   8.772  -0.557 -0.5714 -0.6856 -0.1842
  455MOL0     H61373   9.282   8.859  -0.704 -3.1035 -0.3449  1.3420
  455MOL0     H61374   9.495   8.732  -0.671  1.3485 -0.5392  0.5281
  455MOL0     H61375   9.520   8.810  -0.516 -1.2678 -1.1613  0.1728
  455MOL0     H61376   9.737   8.947  -0.545 -0.7943 -0.4594 -0.3322
  455MOL0     H61377   9.907   9.139  -0.632 -2.0589  1.3763  0.5771
  455MOL0     H61378   9.925   9.116  -0.807 -0.4697  0.5966 -0.0801
  455MOL0     H61379   9.774   9.348  -0.682 -0.1039  0.4854 -2.5573
  455MOL0     H61380   9.790   9.325  -0.850  1.1075  0.6056 -1.1863
  455MOL0     H61381  10.031   9.362  -0.824 -1.1092  2.9950 -0.6477
  455MOL0     H61382  10.008   9.350  -0.648 -2.8270 -2.2452  0.6913
  455MOL0     H61383   9.860   9.551  -0.656  0.5587  0.7088 -0.7382
  455MOL0     H61384   9.879   9.559  -0.828 -2.1881 -0.9279  0.5736
  455MOL0     H61385  10.220   9.787  -0.713 -1.8730  1.5332 -5.1305
  455MOL0     H61386  10.243  10.143  -0.673 -4.1578  0.0933 -1.4446
  455MOL0     H61387  10.276  10.053  -0.518  3.3870 -0.2417 -0.3645
  455MOL0     H61388  10.332   9.997  -0.661 -1.8076 -1.1886  1.6684
  455MOL0     H61389  10.034  10.434  -0.534 -1.3245  0.1845  1.1250
  455MOL0     H61390  10.060  10.652  -0.641 -0.5704 -0.6681  0.2789
  455MOL0     H61391  10.063  10.841  -0.746  0.8314  1.4569 -0.5210
  455MOL0     H61392   9.949  10.954  -0.825 -1.5052  0.9123  1.5563
  455MOL0     H61393   9.751  10.840  -0.693 -0.8380 -1.1817  4.7729
  455MOL0     H61394   9.877  10.797  -0.577  2.7763  2.1103  1.4633
  455MOL0     H61395   9.786  10.993  -0.507  1.3590  3.2044  1.1883
  455MOL0     H61396   9.824  11.072  -0.664  2.3534 -0.1265 -0.8151
  455MOL0     H61397  10.064  10.953  -0.547 -0.8320 -1.0340  0.0218
  455MOL0     H61398  10.042  11.123  -0.575  0.6596  0.7496  0.9110
  455MOL0     H61399  10.060  11.072  -0.326 -1.8212 -1.2976  3.6935
  455MOL0     H61400   9.899  11.004  -0.331 -0.6081  1.1529 -0.5458
  455MOL0     H61401   9.923  11.253  -0.469  1.2038 -4.2505 -1.4828
  455MOL0     H61402   9.800  11.219  -0.367 -0.8572  3.4658  0.5243
  455MOL0     H61403  10.067  11.315  -0.249  0.6643  1.3672 -1.5494
  455MOL0     H61404   9.927  11.253  -0.153 -0.6668  2.2560  1.3741
  455MOL0     H61405   9.932  11.510  -0.176  0.7281  0.9939 -1.1388
  455MOL0     H61406   9.793  11.446  -0.239 -0.4979 -2.3373  4.7387
  455MOL0     H61407   9.775  10.543  -0.947 -0.5128 -3.1867  0.3062
  455MOL0     H61408   9.770  10.314  -0.860 -1.5178  0.5894 -0.0595
  455MOL0     H61409   9.782   9.977  -0.592  0.6816 -0.1486 -0.2560
  455MOL0     H61410   9.793   9.758  -0.667 -1.8450  1.5745 -0.6405
  455MOL0     H61411   9.085   9.642   0.041 -0.0825 -1.0645  0.5762
  455MOL0     H61412   8.925   9.685   0.203 -2.0482  2.9823 -1.6247
  455MOL0     H61413   8.404   9.891   0.216  0.2536  0.2751 -0.1431
  455MOL0     H61414   8.185   9.900   0.332 -1.8758 -1.2218  2.1266
  455MOL0     H61415   8.043   9.564   0.581  1.2296 -0.6507  0.1826
  455MOL0     H61416   8.134   9.646   0.714  1.1611  3.1932 -0.9187
  455MOL0     H61417   7.858   9.716   0.613  0.3855 -0.9603 -1.2729
  455MOL0     H61418   7.963   9.810   0.717  0.6177  0.7109 -1.5805
  455MOL0     H61419   7.954   9.619   0.888  0.8637 -2.3857 -0.4369
  455MOL0     H61420   7.852   9.517   0.781 -0.7985 -0.7343  0.5963
  455MOL0     H61421   7.721   9.614   0.961 -1.3688 -1.7930 -1.2859
  455MOL0     H61422   7.673   9.665   0.798  0.7881 -2.9873 -1.4650
  455MOL0     H61423   7.825   9.996   1.044 -1.6527 -1.2297  1.0627
  455MOL0     H61424   8.276   9.543   0.540  3.5575 -1.5615  0.8899
  455MOL0     H61425   8.479   9.509   0.397 -0.0529  0.7381  2.4401
  456MOL0     O61426   5.772  11.383   7.805 -0.4972 -0.4126 -0.2069
  456MOL0     C61427   5.778  11.488   7.741 -0.7646 -0.3658 -1.3799
  456MOL0     O61428   5.888  11.563   7.716  0.7410  0.6341  0.3256
  456MOL0     C61429   6.008  11.526   7.760 -0.2625 -0.0937 -0.5950
  456MOL0     C61430   6.036  11.500   7.899  0.5416  0.2325 -0.1873
  456MOL0     C61431   6.165  11.468   7.948 -0.6682 -0.4384 -0.4462
  456MOL0     C61432   6.274  11.463   7.866 -0.0352  0.1848  0.9683
  456MOL0     O61433   6.390  11.425   7.912 -0.0715 -0.6547  0.1584
  456MOL0     C61434   6.502  11.517   7.906 -0.1207 -0.4752  0.1568
  456MOL0     C61435   6.581  11.497   8.033  0.4704  0.4323 -0.1712
  456MOL0     C61436   6.514  11.560   8.165 -0.0101 -0.0577  0.9807
  456MOL0     C61437   6.604  11.519   8.282 -0.0241  0.0944 -0.2647
  456MOL0     C61438   6.550  11.576   8.419 -0.1091 -0.2070 -0.3221
  456MOL0     C61439   6.419  11.525   8.458 -0.7957 -0.6890  0.7558
  456MOL0     C61440   6.390  11.596   8.590  0.7602  0.0754  0.8556
  456MOL0     C61441   6.250  11.539   8.634 -0.3536 -0.9371 -0.4753
  456MOL0     N61442   6.227  11.581   8.774 -0.6404 -0.4167  0.6633
  456MOL0     C61443   6.251  11.491   8.877  0.1965 -0.5422  1.1053
  456MOL0     C61444   6.201  11.546   8.985 -0.7713  0.5268  0.2029
  456MOL0     C61445   6.203  11.477   9.123 -0.7077  0.2522 -0.0729
  456MOL0     C61446   6.067  11.454   9.178  0.3085  0.0838  0.2298
  456MOL0     C61447   6.019  11.327   9.112  0.2919 -0.0722 -0.0678
  456MOL0     C61448   5.872  11.297   9.161 -1.1162  0.2333  0.8127
  456MOL0     O61449   5.819  11.192   9.079 -0.5316 -0.1308 -0.2317
  456MOL0     C61450   5.743  11.215   8.970 -0.0647  0.7408  1.0498
  456MOL0     C61451   5.711  11.100   8.898 -0.0774 -0.1605  0.1030
  456MOL0     C61452   5.631  11.102   8.782 -0.5280  0.5068 -0.0080
  456MOL0     C61453   5.605  10.972   8.699 -0.2216  0.0449 -0.8389
  456MOL0     C61454   5.590  11.232   8.721 -0.4879 -0.3183 -0.3901
  456MOL0     C61455   5.510  11.254   8.604  0.1008  0.0305  1.0604
  456MOL0     O61456   5.505  11.384   8.563 -0.1791  0.8345  0.6223
  456MOL0     C61457   5.452  11.406   8.440  0.2223  1.0726  0.1212
  456MOL0     C61458   5.333  11.481   8.436  0.2060  0.4715 -0.1049
  456MOL0     C61459   5.266  11.487   8.317  0.3418 -0.0961 -1.0664
  456MOL0     C61460   5.309  11.413   8.205 -0.2324 -0.2840  0.2272
  456MOL0     O61461   5.243  11.440   8.087  0.2437  0.2123  0.9880
  456MOL0     C61462   5.332  11.513   7.992  0.1015  0.6404 -0.3224
  456MOL0     C61463   5.249  11.605   7.899 -0.3318 -0.2429 -0.3385
  456MOL0     C61464   5.139  11.692   7.974 -0.0622  0.0676 -0.2471
  456MOL0     C61465   5.195  11.792   8.082 -0.0827  0.8245 -0.7896
  456MOL0     C61466   5.121  11.918   8.084  0.0678  0.2168 -0.3661
  456MOL0     C61467   5.190  12.017   8.187  0.1547 -0.3389 -0.1412
  456MOL0     C61468   5.175  11.965   8.330  0.3002  0.4265  0.3145
  456MOL0     C61469   5.253  12.044   8.435 -0.6734 -0.1111  0.3514
  456MOL0    Cl61470   5.206  12.221   8.445  0.3498  0.1499  0.1662
  456MOL0     C61471   5.428  11.339   8.210 -0.7473 -0.1722  0.1437
  456MOL0     C61472   5.505  11.331   8.329  0.8700  0.6837 -0.4495
  456MOL0     O61473   5.445  11.160   8.554 -0.5950 -1.0649 -0.5072
  456MOL0     C61474   5.645  11.347   8.788 -0.7632 -0.4609 -0.1360
  456MOL0     C61475   5.716  11.334   8.912 -0.3287 -0.4501 -0.6540
  456MOL0     N61476   6.150  11.665   8.955  0.6411  0.2596  0.2590
  456MOL0     N61477   6.158  11.682   8.828  0.3145  0.3795 -0.1293
  456MOL0     C61478   6.250  11.509   7.732 -0.4170 -0.1963  0.0534
  456MOL0     C61479   6.116  11.529   7.676 -0.2554  0.3876 -0.0715
  456MOL0     C61480   5.658  11.552   7.685  0.0848 -1.3756 -0.6488
  456MOL0     C61481   5.541  11.493   7.647  0.9368 -0.0474  0.4645
  456MOL0     C61482   5.435  11.553   7.596  0.0048  0.7600  0.1026
  456MOL0     C61483   5.431  11.691   7.581 -0.0164 -0.4229 -0.4823
  456MOL0     O61484   5.327  11.759   7.522  0.0613 -0.3983 -0.4627
  456MOL0     C61485   5.300  11.718   7.388  0.3558  0.0444 -0.7710
  456MOL0     C61486   5.326  11.832   7.294  0.7641  0.1366 -0.0545
  456MOL0     C61487   5.296  11.788   7.154 -0.5023  0.0931  0.5881
  456MOL0     C61488   5.145  11.811   7.140 -0.1774  0.0566  1.0348
  456MOL0     C61489   5.125  11.778   6.993 -0.4407  0.1671  0.1562
  456MOL0     C61490   5.130  11.742   6.879  0.7989  0.4805  0.0234
  456MOL0     C61491   5.543  11.760   7.619  0.4579  0.5438 -0.6669
  456MOL0     C61492   5.651  11.694   7.672 -0.8829 -0.4970 -0.5681
  456MOL0     H61493   5.959  11.495   7.975  2.9940  3.2215  2.8297
  456MOL0     H61494   6.182  11.451   8.054  1.0096  0.0794 -0.6044
  456MOL0     H61495   6.570  11.492   7.824 -2.4725  0.9663 -2.4055
  456MOL0     H61496   6.481  11.624   7.903  4.7205  0.7076  0.4818
  456MOL0     H61497   6.592  11.389   8.044  0.5878  0.1929 -2.1613
  456MOL0     H61498   6.679  11.545   8.021 -0.3872  1.7490 -3.0639
  456MOL0     H61499   6.524  11.669   8.164  0.1749 -0.0430 -0.9716
  456MOL0     H61500   6.408  11.533   8.175  0.4783 -1.1180  4.2113
  456MOL0     H61501   6.612  11.411   8.292  0.9739  0.3752  3.4117
  456MOL0     H61502   6.710  11.540   8.269 -0.2911  0.8400 -1.5273
  456MOL0     H61503   6.622  11.538   8.492 -0.9688 -0.4520  0.4129
  456MOL0     H61504   6.556  11.685   8.408  0.6387 -0.1631  0.3877
  456MOL0     H61505   6.354  11.556   8.376 -0.0575  0.1448  0.4558
  456MOL0     H61506   6.423  11.419   8.481 -0.1585  0.0768  5.0952
  456MOL0     H61507   6.463  11.572   8.669  0.5367 -4.8087 -0.1172
  456MOL0     H61508   6.372  11.703   8.580  0.0154 -0.2077 -1.4268
  456MOL0     H61509   6.253  11.430   8.644  0.7102 -0.7269  2.4174
  456MOL0     H61510   6.166  11.582   8.579  1.6739  2.9383 -0.8453
  456MOL0     H61511   6.311  11.401   8.880  0.7722 -0.3153 -1.3332
  456MOL0     H61512   6.253  11.380   9.110 -0.1417  0.8048 -2.7877
  456MOL0     H61513   6.264  11.540   9.188  0.5828 -3.7413  2.9907
  456MOL0     H61514   5.999  11.540   9.179  2.5691  2.0002  2.4200
  456MOL0     H61515   6.077  11.437   9.285 -0.1236  0.7766  0.3901
  456MOL0     H61516   6.092  11.248   9.131  1.8372  0.9019 -1.5853
  456MOL0     H61517   6.025  11.330   9.003  0.9878 -0.6342 -0.0532
  456MOL0     H61518   5.810  11.386   9.173 -2.0467 -0.5421  1.9806
  456MOL0     H61519   5.871  11.259   9.263 -1.0299  3.7493  2.2560
  456MOL0     H61520   5.754  11.010   8.941 -0.6238 -1.9389 -2.7721
  456MOL0     H61521   5.499  10.945   8.698 -0.4754  0.6508  2.2744
  456MOL0     H61522   5.655  10.972   8.601  1.1612 -0.9094 -0.1568
  456MOL0     H61523   5.662  10.901   8.759  0.6408  1.8114  0.5172
  456MOL0     H61524   5.293  11.522   8.528 -1.4785 -0.7726 -0.2412
  456MOL0     H61525   5.180  11.553   8.305  1.2155  0.7331 -3.0056
  456MOL0     H61526   5.408  11.577   8.038  1.0671 -1.6914  1.5395
  456MOL0     H61527   5.378  11.447   7.918 -0.3983  1.0607 -1.0194
  456MOL0     H61528   5.322  11.674   7.857  2.3778 -1.0351  2.6940
  456MOL0     H61529   5.203  11.541   7.823 -2.9359  0.6158  0.4076
  456MOL0     H61530   5.071  11.621   8.022 -2.8114  2.4875 -0.2946
  456MOL0     H61531   5.068  11.748   7.911 -0.2295  0.4939  0.3175
  456MOL0     H61532   5.200  11.730   8.172 -1.8734  0.5943 -0.8166
  456MOL0     H61533   5.291  11.820   8.037  0.0795  2.6916  0.5916
  456MOL0     H61534   5.015  11.917   8.112  0.1284  3.0986  0.2883
  456MOL0     H61535   5.136  11.956   7.983  0.0870 -0.1391 -0.4994
  456MOL0     H61536   5.294  12.028   8.157  0.1615 -0.7333 -0.2593
  456MOL0     H61537   5.142  12.115   8.186  5.3655  2.6871 -4.6158
  456MOL0     H61538   5.209  11.862   8.335  0.0171  0.1089 -2.5909
  456MOL0     H61539   5.068  11.969   8.354  0.4535  2.9791  0.8755
  456MOL0     H61540   5.359  12.038   8.408 -0.6204  0.4089  0.4283
  456MOL0     H61541   5.235  12.008   8.536 -1.3626  1.2194  0.7310
  456MOL0     H61542   5.465  11.281   8.126 -2.2134 -2.5474  1.0280
  456MOL0     H61543   5.597  11.277   8.346  0.1775 -0.2262  0.5211
  456MOL0     H61544   5.637  11.448   8.750  2.2392 -0.2205 -0.3183
  456MOL0     H61545   5.742  11.427   8.962 -0.8442 -0.2255 -0.7929
  456MOL0     H61546   6.335  11.524   7.666  0.1708 -0.0167  0.8446
  456MOL0     H61547   6.103  11.560   7.573 -0.0672 -2.8631 -1.1844
  456MOL0     H61548   5.527  11.385   7.656  0.2612  0.1843  2.7404
  456MOL0     H61549   5.345  11.501   7.565 -1.2283  3.0839 -0.4539
  456MOL0     H61550   5.373  11.642   7.358  1.3015  0.7586 -0.3635
  456MOL0     H61551   5.202  11.671   7.376  0.8889 -1.9576  1.7221
  456MOL0     H61552   5.428  11.870   7.302  0.6166  0.7866 -1.1072
  456MOL0     H61553   5.257  11.911   7.323 -0.7868 -0.5727 -1.5930
  456MOL0     H61554   5.327  11.684   7.140 -0.3467  0.2467 -0.3185
  456MOL0     H61555   5.348  11.842   7.073  1.2521 -3.3864 -0.8201
  456MOL0     H61556   5.108  11.912   7.158 -5.3596 -1.4477  0.4686
  456MOL0     H61557   5.081  11.747   7.201 -0.1902  0.4052  1.3853
  456MOL0     H61558   5.125  11.707   6.778  1.1300 -1.3382  0.6098
  456MOL0     H61559   5.548  11.869   7.613  1.3005  0.4690 -1.5038
  456MOL0     H61560   5.743  11.743   7.703 -2.9593  2.1297  1.9856
  457MOL0     O61561   7.283   0.417   0.079 -0.5558  0.5863 -0.2058
  457MOL0     C61562   7.269   0.469   0.192  0.6860 -0.3206 -0.1243
  457MOL0     O61563   7.367   0.541   0.267  1.0046 -0.6066  1.1002
  457MOL0     C61564   7.475   0.599   0.206 -0.5956  0.1548  0.5559
  457MOL0     C61565   7.466   0.688   0.098  0.5307  0.2298  0.0012
  457MOL0     C61566   7.575   0.736   0.029  0.5141  0.2843 -0.3786
  457MOL0     C61567   7.700   0.714   0.076  0.1471  0.0550  0.4563
  457MOL0     O61568   7.800   0.772  -0.000  0.0293  0.0355 -0.4375
  457MOL0     C61569   7.929   0.709   0.006 -0.0144 -0.2447  0.1369
  457MOL0     C61570   8.019   0.749  -0.111 -0.2939  0.1877  0.4514
  457MOL0     C61571   8.092   0.880  -0.084 -0.4132  0.0714 -1.0070
  457MOL0     C61572   8.108   0.956  -0.209 -0.5783  0.2542  0.3809
  457MOL0     C61573   8.187   1.087  -0.196  0.1646 -0.0437 -0.0705
  457MOL0     C61574   8.199   1.184  -0.315 -0.6636  0.5454  0.3394
  457MOL0     C61575   8.064   1.237  -0.348 -1.0064  0.8529  0.8098
  457MOL0     C61576   7.984   1.330  -0.247 -0.0298  0.5158  0.4602
  457MOL0     N61577   8.059   1.437  -0.181  0.5751 -0.1012 -0.7615
  457MOL0     C61578   8.126   1.444  -0.056  0.0624  0.1443  0.1506
  457MOL0     C61579   8.171   1.571  -0.050  0.4796  0.6289 -0.3234
  457MOL0     C61580   8.276   1.613   0.054 -0.0194 -0.3480 -0.2398
  457MOL0     C61581   8.283   1.755   0.080 -0.0322 -0.4443 -0.0340
  457MOL0     C61582   8.189   1.808   0.194 -0.2604  0.1471  0.2674
  457MOL0     C61583   8.203   1.952   0.228 -0.3597  0.5990  0.1721
  457MOL0     O61584   8.337   2.011   0.248 -0.1382 -0.7140  0.0279
  457MOL0     C61585   8.396   2.031   0.374  0.3573  0.1196 -0.3384
  457MOL0     C61586   8.334   1.991   0.492  0.2436  1.2471 -1.2963
  457MOL0     C61587   8.398   1.998   0.618 -0.4708 -0.1749 -0.0209
  457MOL0     C61588   8.318   1.956   0.735 -0.0829  0.5726 -0.1789
  457MOL0     C61589   8.530   2.041   0.623 -0.1772  0.0594 -0.0886
  457MOL0     C61590   8.617   2.034   0.744 -0.3538  0.6437 -0.0228
  457MOL0     O61591   8.734   2.106   0.748  0.2126  0.2413  0.3402
  457MOL0     C61592   8.804   2.086   0.867 -0.3888  1.2904  0.0422
  457MOL0     C61593   8.898   1.981   0.894  0.2287 -0.1089 -0.1812
  457MOL0     C61594   8.963   1.978   1.018  0.9519 -1.4820 -0.4302
  457MOL0     C61595   8.930   2.079   1.122 -0.4985  0.4956 -0.0649
  457MOL0     O61596   8.981   2.102   1.245  1.0846 -0.7043  0.5545
  457MOL0     C61597   9.124   2.068   1.256  0.0384  0.2711  0.2576
  457MOL0     C61598   9.134   1.914   1.287 -0.6016 -0.1274 -0.6013
  457MOL0     C61599   9.266   1.869   1.251 -0.7960 -0.2907 -0.1868
  457MOL0     C61600   9.370   1.914   1.354 -1.0049  1.0616 -0.5618
  457MOL0     C61601   9.483   1.807   1.377  0.1014 -0.7439  0.4650
  457MOL0     C61602   9.420   1.690   1.463 -0.5166 -0.1328  0.2049
  457MOL0     C61603   9.514   1.564   1.467  0.2977 -1.2974  0.1436
  457MOL0     C61604   9.467   1.467   1.579  0.5405  0.3536  0.1712
  457MOL0    Cl61605   9.512   1.296   1.528 -0.2183  0.4314 -0.0064
  457MOL0     C61606   8.836   2.175   1.096  0.7017  0.2616  0.0829
  457MOL0     C61607   8.778   2.184   0.962  0.0212 -0.7457 -0.0663
  457MOL0     O61608   8.573   1.964   0.835  0.0597  0.2405 -0.8671
  457MOL0     C61609   8.593   2.094   0.504 -0.2947 -0.7379 -0.9332
  457MOL0     C61610   8.524   2.084   0.386  0.9992  0.1586  0.1251
  457MOL0     N61611   8.134   1.640  -0.168  0.5532 -0.5699 -0.1337
  457MOL0     N61612   8.074   1.555  -0.240 -1.4255  0.1250  0.9816
  457MOL0     C61613   7.716   0.626   0.181  0.3598  1.1130 -0.1087
  457MOL0     C61614   7.610   0.555   0.234  0.7684 -0.3308 -0.5520
  457MOL0     C61615   7.140   0.435   0.257 -0.2037 -0.0556  0.0482
  457MOL0     C61616   7.102   0.522   0.361  0.2301 -0.7405 -0.0989
  457MOL0     C61617   6.986   0.498   0.427 -0.4431 -1.1788  0.1880
  457MOL0     C61618   6.902   0.377   0.408 -0.0533 -0.3612 -0.2477
  457MOL0     O61619   6.797   0.375   0.493 -0.2906  1.0408  0.1679
  457MOL0     C61620   6.709   0.263   0.500 -0.5577  0.1106 -0.1889
  457MOL0     C61621   6.593   0.291   0.588 -0.3307  0.6159 -0.5904
  457MOL0     C61622   6.645   0.260   0.734  0.2023  0.8827 -0.1813
  457MOL0     C61623   6.780   0.348   0.774  1.8337 -0.5034 -0.1629
  457MOL0     C61624   6.808   0.335   0.921  0.6584 -0.2578 -0.3156
  457MOL0     C61625   6.815   0.324   1.037 -0.3402  0.1756 -0.6942
  457MOL0     C61626   6.936   0.283   0.301 -0.3256  0.4631  0.4418
  457MOL0     C61627   7.055   0.318   0.234 -0.8231 -0.3996  0.6747
  457MOL0     H61628   7.369   0.717   0.061 -1.2609 -5.3115 -0.6691
  457MOL0     H61629   7.557   0.799  -0.058  1.2505  0.9358 -0.0732
  457MOL0     H61630   7.979   0.728   0.101  3.1088 -1.5872 -1.1068
  457MOL0     H61631   7.912   0.601   0.000 -1.7575  0.0705 -1.7311
  457MOL0     H61632   8.090   0.666  -0.123  0.2373  0.2738  2.5663
  457MOL0     H61633   7.971   0.750  -0.209  1.0844 -0.1392 -0.2412
  457MOL0     H61634   8.022   0.933  -0.019 -1.8529 -1.9383 -0.7988
  457MOL0     H61635   8.187   0.870  -0.031 -0.5948  2.5704 -0.0792
  457MOL0     H61636   8.154   0.902  -0.292 -4.5661 -2.4475 -0.3436
  457MOL0     H61637   8.010   0.980  -0.250  0.7929  1.3227 -2.5834
  457MOL0     H61638   8.139   1.136  -0.111 -2.1669 -2.4671  0.1486
  457MOL0     H61639   8.287   1.060  -0.159 -0.1430  0.7204  1.4036
  457MOL0     H61640   8.254   1.273  -0.284 -1.8919  1.1708  0.7868
  457MOL0     H61641   8.241   1.136  -0.404 -6.0971 -0.1965 -2.2797
  457MOL0     H61642   8.085   1.297  -0.437  1.2470 -1.2968 -0.2111
  457MOL0     H61643   7.996   1.156  -0.375 -0.4852  0.0538  1.8133
  457MOL0     H61644   7.938   1.263  -0.174 -1.0284  0.5788 -0.0951
  457MOL0     H61645   7.904   1.377  -0.305 -0.9994 -2.1735 -0.5444
  457MOL0     H61646   8.146   1.367   0.018  3.5177 -1.4468 -2.1571
  457MOL0     H61647   8.254   1.559   0.147 -2.8795 -1.1906 -1.2961
  457MOL0     H61648   8.372   1.581   0.012 -0.7226 -1.0336 -1.3675
  457MOL0     H61649   8.273   1.813  -0.012 -0.1359  2.0586  1.4576
  457MOL0     H61650   8.381   1.779   0.123  0.1854  3.1169 -2.1587
  457MOL0     H61651   8.199   1.751   0.286 -2.5338  1.5989  1.5194
  457MOL0     H61652   8.083   1.799   0.167 -0.5503  2.5372  0.4012
  457MOL0     H61653   8.133   1.976   0.308 -2.2980 -0.1335 -1.2322
  457MOL0     H61654   8.167   2.003   0.138 -1.4628  1.1155  0.8887
  457MOL0     H61655   8.237   1.942   0.491  0.9104 -0.2243  0.6700
  457MOL0     H61656   8.331   1.852   0.766 -0.7699  1.0798  2.0264
  457MOL0     H61657   8.316   2.006   0.832  0.1915 -1.7745  1.1293
  457MOL0     H61658   8.212   1.964   0.707 -0.8413  0.7596  2.3939
  457MOL0     H61659   8.908   1.904   0.819  0.0109 -1.8739  1.4981
  457MOL0     H61660   9.040   1.904   1.035  1.0315 -0.9088  2.2103
  457MOL0     H61661   9.183   2.110   1.174  1.3486  1.5618  1.8058
  457MOL0     H61662   9.157   2.127   1.342 -3.3798  0.0657  1.8541
  457MOL0     H61663   9.114   1.885   1.391  1.0853  3.6413  0.9751
  457MOL0     H61664   9.072   1.858   1.217  0.6215  0.1437 -1.9404
  457MOL0     H61665   9.291   1.904   1.150 -1.7712 -0.3338 -0.4546
  457MOL0     H61666   9.251   1.761   1.243 -1.2676 -0.2518  0.1264
  457MOL0     H61667   9.418   2.002   1.311  1.3571  0.9261  1.6291
  457MOL0     H61668   9.323   1.935   1.450 -1.7134  4.5550 -1.5328
  457MOL0     H61669   9.576   1.850   1.417  0.2558  0.5425 -1.2141
  457MOL0     H61670   9.504   1.783   1.273 -0.3173 -3.5214  0.9244
  457MOL0     H61671   9.407   1.727   1.565  3.0169  0.0809  0.7045
  457MOL0     H61672   9.318   1.672   1.427 -2.0933  1.9656  3.2453
  457MOL0     H61673   9.621   1.584   1.481  1.0632 -2.7349 -2.7417
  457MOL0     H61674   9.502   1.521   1.367 -1.8398  2.1271 -1.2309
  457MOL0     H61675   9.362   1.469   1.607  0.7953 -3.0769  1.8058
  457MOL0     H61676   9.522   1.495   1.669  2.0854 -0.4318 -0.4867
  457MOL0     H61677   8.813   2.253   1.167 -2.1224  0.0117 -0.4417
  457MOL0     H61678   8.714   2.271   0.947 -0.4113 -0.9605  0.4708
  457MOL0     H61679   8.695   2.127   0.491 -0.5683 -0.3735 -2.3207
  457MOL0     H61680   8.573   2.102   0.291  0.2770 -2.1644 -0.7694
  457MOL0     H61681   7.811   0.591   0.221 -0.3657 -0.3673  0.4153
  457MOL0     H61682   7.621   0.482   0.314 -0.0737  1.0248  0.8575
  457MOL0     H61683   7.162   0.605   0.398  0.0351  1.4159 -4.0644
  457MOL0     H61684   6.961   0.576   0.498  2.5050 -0.0490  0.1076
  457MOL0     H61685   6.668   0.251   0.399 -0.6197 -1.2369 -0.0163
  457MOL0     H61686   6.757   0.166   0.518 -1.6851 -0.5190 -0.4665
  457MOL0     H61687   6.501   0.235   0.568  1.0090 -1.2951 -1.8400
  457MOL0     H61688   6.575   0.397   0.573  1.1810  0.8754 -0.7657
  457MOL0     H61689   6.661   0.152   0.731 -2.3588  0.4591 -0.7675
  457MOL0     H61690   6.567   0.280   0.808  0.0123  3.9664 -1.0508
  457MOL0     H61691   6.778   0.451   0.735  2.3655  0.2385  1.6277
  457MOL0     H61692   6.868   0.316   0.717  1.7058  2.3909 -2.2026
  457MOL0     H61693   6.823   0.316   1.144 -0.3194  2.0796 -0.5170
  457MOL0     H61694   6.881   0.191   0.287  0.0956  0.1436  0.8438
  457MOL0     H61695   7.093   0.260   0.150  3.4033 -0.4480  2.3808
  458MOL0     O61696   6.886   0.066   7.664  0.1585  0.0364 -0.0047
  458MOL0     C61697   6.829   0.154   7.729  0.2828 -0.1467  0.3760
  458MOL0     O61698   6.705   0.186   7.713 -0.0929 -0.2180  0.8394
  458MOL0     C61699   6.636   0.171   7.596 -0.8223  1.0718 -1.1411
  458MOL0     C61700   6.631   0.067   7.508  0.4087  0.2061 -0.2612
  458MOL0     C61701   6.527   0.062   7.411 -0.1348  0.7022 -0.3032
  458MOL0     C61702   6.431   0.170   7.399  0.3951  1.6826  0.6254
  458MOL0     O61703   6.322   0.178   7.312 -0.1229  0.0746 -0.6269
  458MOL0     C61704   6.309   0.070   7.215 -0.9129  0.4331  0.8917
  458MOL0     C61705   6.254  -0.058   7.270  0.1059  0.2482 -0.1716
  458MOL0     C61706   6.138  -0.099   7.188 -0.0746 -0.4570  0.1657
  458MOL0     C61707   6.067  -0.230   7.245 -0.1421  0.6581  0.3415
  458MOL0     C61708   5.973  -0.197   7.356 -0.5028  0.1124 -0.8016
  458MOL0     C61709   5.899  -0.322   7.403 -0.4704  0.0140 -0.2073
  458MOL0     C61710   5.817  -0.290   7.515 -0.5800  0.7759  0.7494
  458MOL0     C61711   5.796  -0.420   7.602  0.1130  0.3753 -0.3129
  458MOL0     N61712   5.916  -0.476   7.664  0.4119 -0.4339 -0.0580
  458MOL0     C61713   5.998  -0.411   7.754  0.1612  0.3645  0.1899
  458MOL0     C61714   6.113  -0.486   7.765  0.1595 -0.6759  0.1215
  458MOL0     C61715   6.242  -0.445   7.825 -0.5641 -0.9269  0.2038
  458MOL0     C61716   6.347  -0.408   7.711  0.5076  0.4163  0.1745
  458MOL0     C61717   6.488  -0.388   7.769 -0.6608 -0.5790  0.3112
  458MOL0     C61718   6.590  -0.438   7.676  0.3033  0.4596 -0.1913
  458MOL0     O61719   6.577  -0.381   7.538  0.0469  0.9896  0.5988
  458MOL0     C61720   6.644  -0.465   7.455  0.3623  0.3491  1.0213
  458MOL0     C61721   6.713  -0.585   7.480  0.4015  0.6068  0.4300
  458MOL0     C61722   6.772  -0.659   7.383  0.2794  0.7787 -0.3617
  458MOL0     C61723   6.832  -0.787   7.435 -0.1075 -0.0482 -0.6736
  458MOL0     C61724   6.777  -0.610   7.255 -0.2149  0.1377 -0.1109
  458MOL0     C61725   6.857  -0.664   7.140  0.6611  0.5195  0.0583
  458MOL0     O61726   6.859  -0.791   7.114  0.5639  0.2934 -0.6201
  458MOL0     C61727   6.976  -0.840   7.073  0.2253 -0.0035  0.4392
  458MOL0     C61728   7.086  -0.837   7.152 -0.0841 -0.0189 -0.2916
  458MOL0     C61729   7.217  -0.866   7.106  0.0515  0.1549  0.0930
  458MOL0     C61730   7.234  -0.895   6.970  0.8065  1.3483 -0.2152
  458MOL0     O61731   7.359  -0.900   6.917  0.2751 -0.1199 -0.1418
  458MOL0     C61732   7.426  -1.020   6.957  0.3468  0.9005 -0.3375
  458MOL0     C61733   7.572  -1.033   6.906  0.5281  0.5942  0.4636
  458MOL0     C61734   7.603  -1.040   6.755 -0.5614  0.4685 -0.2275
  458MOL0     C61735   7.747  -0.998   6.735  0.0033 -0.0299  1.6534
  458MOL0     C61736   7.783  -1.026   6.596 -0.7968  0.1805 -0.5156
  458MOL0     C61737   7.933  -1.036   6.580  0.9803  0.8539  0.1423
  458MOL0     C61738   7.994  -0.906   6.554 -0.0925 -0.2964  0.5340
  458MOL0     C61739   8.145  -0.891   6.519  0.9994  0.2078  0.1336
  458MOL0    Cl61740   8.223  -0.968   6.658  0.3937  0.3558  0.7979
  458MOL0     C61741   7.119  -0.888   6.885  0.2225  0.3627  0.6593
  458MOL0     C61742   6.987  -0.867   6.935  0.0429  0.0058  0.0406
  458MOL0     O61743   6.933  -0.580   7.088  0.4167  0.3542  0.3172
  458MOL0     C61744   6.724  -0.480   7.233 -0.4753  0.2266 -0.4803
  458MOL0     C61745   6.646  -0.415   7.329 -0.3667 -0.0680  0.1027
  458MOL0     N61746   6.091  -0.601   7.692 -0.6044 -0.6532  0.4325
  458MOL0     N61747   5.979  -0.592   7.619 -0.8610 -0.5044 -0.4422
  458MOL0     C61748   6.433   0.266   7.495 -0.3932  0.7872  0.5026
  458MOL0     C61749   6.524   0.264   7.588 -0.5844  0.1364  0.7053
  458MOL0     C61750   6.898   0.204   7.847 -0.3611  0.5089 -0.1810
  458MOL0     C61751   6.834   0.282   7.944  0.0702 -0.0518  0.2026
  458MOL0     C61752   6.911   0.339   8.044  0.0624 -0.2876 -0.7383
  458MOL0     C61753   7.044   0.310   8.058  0.8687 -0.2779  0.9004
  458MOL0     O61754   7.107   0.368   8.172 -0.1432 -0.0111  0.0034
  458MOL0     C61755   7.252   0.364   8.183  0.2319 -0.4744 -1.0384
  458MOL0     C61756   7.318   0.238   8.245  0.4072 -0.6057  0.2513
  458MOL0     C61757   7.276   0.208   8.391 -0.0728  0.6043  0.0916
  458MOL0     C61758   7.369   0.259   8.507 -0.1364  0.8037 -0.9546
  458MOL0     C61759   7.364   0.400   8.530 -0.0291  0.4174 -0.8150
  458MOL0     C61760   7.352   0.516   8.556  1.1611 -0.2986  0.7200
  458MOL0     C61761   7.117   0.240   7.958  0.7705 -0.0054 -0.0441
  458MOL0     C61762   7.040   0.180   7.856 -0.9099 -0.3171  0.2623
  458MOL0     H61763   6.697  -0.019   7.500 -1.9001 -1.7926  0.9696
  458MOL0     H61764   6.533  -0.024   7.345  1.8873  2.3212 -2.4191
  458MOL0     H61765   6.248   0.099   7.129 -0.0275 -1.3361 -0.3894
  458MOL0     H61766   6.400   0.051   7.158 -0.8839  0.4278  0.9389
  458MOL0     H61767   6.323  -0.143   7.277 -3.4245 -2.9237 -0.8785
  458MOL0     H61768   6.214  -0.041   7.370 -5.1080  3.2000 -2.3862
  458MOL0     H61769   6.060  -0.025   7.168  0.4855 -0.3868 -1.9717
  458MOL0     H61770   6.157  -0.109   7.081 -0.3961  0.9583 -0.0555
  458MOL0     H61771   6.012  -0.274   7.162  0.6924  1.7056 -0.8054
  458MOL0     H61772   6.145  -0.301   7.275 -1.6958 -0.3685  2.1972
  458MOL0     H61773   6.031  -0.153   7.438  1.3249 -1.7182 -1.0447
  458MOL0     H61774   5.898  -0.128   7.317 -1.5192 -0.6789 -0.2979
  458MOL0     H61775   5.834  -0.355   7.321 -1.9837  1.0760  0.5194
  458MOL0     H61776   5.968  -0.404   7.427 -1.7201 -2.0800 -3.1147
  458MOL0     H61777   5.863  -0.207   7.568 -0.3749  1.2679 -0.1732
  458MOL0     H61778   5.717  -0.259   7.484 -0.9928  1.6902  2.8086
  458MOL0     H61779   5.751  -0.502   7.546  0.7017  0.4267 -0.8739
  458MOL0     H61780   5.727  -0.407   7.686  1.2299  0.9991  0.5467
  458MOL0     H61781   5.970  -0.311   7.785 -0.1258  1.1389 -2.2951
  458MOL0     H61782   6.220  -0.354   7.883 -5.6407 -1.2735 -0.6862
  458MOL0     H61783   6.279  -0.522   7.894 -0.2087  0.0106  1.0882
  458MOL0     H61784   6.317  -0.314   7.662 -1.9275 -1.7466 -2.8828
  458MOL0     H61785   6.334  -0.489   7.639  0.4504 -1.1307  1.8550
  458MOL0     H61786   6.501  -0.434   7.868  0.5442  1.9861  1.4379
  458MOL0     H61787   6.522  -0.284   7.777 -1.0724 -0.4415  0.3112
  458MOL0     H61788   6.561  -0.544   7.682  2.2663 -0.0401  3.1063
  458MOL0     H61789   6.688  -0.420   7.721  0.3377  1.8959 -0.7893
  458MOL0     H61790   6.705  -0.639   7.574 -3.6448 -1.5207 -0.8780
  458MOL0     H61791   6.880  -0.774   7.533 -0.9667 -0.2529 -0.2128
  458MOL0     H61792   6.754  -0.862   7.450  0.1269  0.0052  1.0345
  458MOL0     H61793   6.904  -0.835   7.369  3.2176  0.3466  2.3238
  458MOL0     H61794   7.094  -0.801   7.254  3.0027  2.9311 -1.3595
  458MOL0     H61795   7.300  -0.854   7.174 -0.4262  1.2830  0.4946
  458MOL0     H61796   7.415  -1.037   7.065 -2.8850 -0.9631 -0.8231
  458MOL0     H61797   7.375  -1.105   6.911  1.4753  0.3339 -0.5494
  458MOL0     H61798   7.626  -0.950   6.954 -1.2901  1.1498  1.6476
  458MOL0     H61799   7.603  -1.129   6.947  1.3235  0.7307  0.1978
  458MOL0     H61800   7.541  -0.962   6.709  0.8829  1.3423 -0.7348
  458MOL0     H61801   7.580  -1.139   6.714  1.6262  0.6085 -1.9591
  458MOL0     H61802   7.766  -0.893   6.756 -2.5764  0.3996  2.1836
  458MOL0     H61803   7.810  -1.051   6.806 -1.7962 -1.7387  2.0703
  458MOL0     H61804   7.743  -0.945   6.535 -2.6691  1.0079  1.6647
  458MOL0     H61805   7.740  -1.122   6.565  0.5919 -0.8584  0.6002
  458MOL0     H61806   7.983  -1.087   6.663 -2.5587 -1.4252  1.1037
  458MOL0     H61807   7.951  -1.087   6.485  2.4952  1.0075  0.3211
  458MOL0     H61808   7.966  -0.837   6.634 -1.4080 -2.8239  2.3668
  458MOL0     H61809   7.932  -0.873   6.471  0.6465 -2.0972 -0.7951
  458MOL0     H61810   8.186  -0.791   6.504 -2.1288  1.7196  0.8394
  458MOL0     H61811   8.155  -0.965   6.439  0.6238  1.1134 -0.7646
  458MOL0     H61812   7.145  -0.911   6.782 -1.5627 -4.2719  1.0236
  458MOL0     H61813   6.903  -0.865   6.866  1.0600 -2.8085 -1.4554
  458MOL0     H61814   6.725  -0.432   7.136 -2.5922  1.0560 -0.1398
  458MOL0     H61815   6.579  -0.332   7.311 -2.2791 -1.6707 -0.4121
  458MOL0     H61816   6.346   0.331   7.496 -0.6133  0.5034  0.2045
  458MOL0     H61817   6.521   0.345   7.660 -0.0155 -0.3413  1.2844
  458MOL0     H61818   6.726   0.291   7.941  0.1148  0.2912 -1.0782
  458MOL0     H61819   6.848   0.382   8.121 -1.0671  0.2380 -1.9264
  458MOL0     H61820   7.298   0.387   8.087  0.9392 -0.1883 -0.6386
  458MOL0     H61821   7.282   0.447   8.247 -1.6138 -2.0702  2.1384
  458MOL0     H61822   7.427   0.251   8.253  0.5920 -2.0652  0.5205
  458MOL0     H61823   7.290   0.157   8.177 -3.0495 -1.3334  2.2690
  458MOL0     H61824   7.284   0.099   8.404 -0.5692  0.4533 -0.7621
  458MOL0     H61825   7.173   0.234   8.417  0.0243 -1.2316  2.7287
  458MOL0     H61826   7.470   0.223   8.489  0.2702  1.2328  0.3822
  458MOL0     H61827   7.335   0.203   8.595 -1.0741  0.0056 -1.7945
  458MOL0     H61828   7.338   0.619   8.585  1.0798  0.7673 -2.6875
  458MOL0     H61829   7.219   0.205   7.970  0.3721 -0.8575  1.1006
  458MOL0     H61830   7.093   0.111   7.791  0.0921  1.3318 -0.7407
  459MOL0     O61831   3.201   3.677   3.740 -0.4802  0.7370 -0.1953
  459MOL0     C61832   3.301   3.596   3.729 -0.7752 -0.7822 -0.7051
  459MOL0     O61833   3.418   3.615   3.788 -0.3739  0.1396 -0.1468
  459MOL0     C61834   3.449   3.735   3.849  0.2958 -0.0900 -0.1685
  459MOL0     C61835   3.372   3.790   3.953  0.0682  0.0986 -0.0674
  459MOL0     C61836   3.428   3.897   4.026 -0.1881 -0.1677 -0.0647
  459MOL0     C61837   3.561   3.948   4.003  0.4947 -0.4743 -1.0438
  459MOL0     O61838   3.594   4.054   4.087 -0.8567 -0.3307  0.2716
  459MOL0     C61839   3.711   4.133   4.047 -1.0057 -0.1642 -0.2075
  459MOL0     C61840   3.695   4.270   4.117  0.2844  0.8570 -0.1241
  459MOL0     C61841   3.612   4.372   4.038  0.3306 -0.7887 -0.0246
  459MOL0     C61842   3.622   4.523   4.083 -0.2459 -0.5267  0.0047
  459MOL0     C61843   3.519   4.606   4.010  0.1761 -0.3705 -0.0397
  459MOL0     C61844   3.387   4.604   4.082 -0.7171  0.2492 -0.0928
  459MOL0     C61845   3.299   4.713   4.036 -0.3282 -0.7132  0.2236
  459MOL0     C61846   3.283   4.708   3.876  0.3505  0.6251  1.0149
  459MOL0     N61847   3.240   4.581   3.822  0.0571  0.0143  0.1688
  459MOL0     C61848   3.127   4.504   3.856  0.4672 -0.4221  0.8678
  459MOL0     C61849   3.144   4.395   3.785 -0.0876 -0.1257 -0.0838
  459MOL0     C61850   3.042   4.282   3.788  0.0754  0.5065 -0.1130
  459MOL0     C61851   3.046   4.187   3.673  0.2125  0.6194  0.0291
  459MOL0     C61852   3.147   4.072   3.710 -0.0531 -0.2522 -0.2987
  459MOL0     C61853   3.123   3.965   3.607 -0.0325 -1.4225  0.0983
  459MOL0     O61854   3.125   4.011   3.470  0.0174  0.8141  0.0868
  459MOL0     C61855   3.095   3.908   3.376  0.4997 -0.1152  0.1833
  459MOL0     C61856   3.133   3.943   3.242  0.0452 -0.7027  0.3108
  459MOL0     C61857   3.100   3.866   3.125 -0.0262  0.4399  0.0591
  459MOL0     C61858   3.135   3.922   2.991 -0.4647  0.2687  0.3138
  459MOL0     C61859   3.039   3.739   3.149 -0.1089  0.0471  0.5453
  459MOL0     C61860   3.011   3.632   3.051 -0.3050 -0.9608  0.2472
  459MOL0     O61861   2.896   3.567   3.062  0.4048 -0.9665  0.2886
  459MOL0     C61862   2.848   3.522   2.945  0.1547  0.1998  0.8646
  459MOL0     C61863   2.859   3.378   2.927  0.8475  0.5738 -0.4393
  459MOL0     C61864   2.805   3.320   2.807 -0.2550 -0.6066 -0.0470
  459MOL0     C61865   2.743   3.397   2.712 -0.0376  0.3998 -0.3089
  459MOL0     O61866   2.722   3.326   2.601 -0.7029  0.7952  0.5806
  459MOL0     C61867   2.640   3.377   2.496 -0.2579 -0.3325  0.3218
  459MOL0     C61868   2.625   3.271   2.376  0.1894  0.2565  0.0145
  459MOL0     C61869   2.561   3.143   2.426  0.5519  0.2679  0.1505
  459MOL0     C61870   2.586   3.029   2.329  0.5778  0.5502 -0.3645
  459MOL0     C61871   2.521   2.895   2.372  0.1769  0.2554  0.4146
  459MOL0     C61872   2.587   2.774   2.315  0.3028 -0.1532 -0.4371
  459MOL0     C61873   2.493   2.652   2.350 -0.3300  0.4630 -0.2019
  459MOL0     C61874   2.566   2.519   2.333  0.1258 -0.3065  0.8952
  459MOL0    Cl61875   2.606   2.480   2.165 -0.2075 -0.1081 -0.4219
  459MOL0     C61876   2.738   3.534   2.723 -0.5847  0.5753  0.1717
  459MOL0     C61877   2.790   3.592   2.844  0.2742 -1.0196 -0.6367
  459MOL0     O61878   3.091   3.616   2.960  0.8394  0.9940 -0.4614
  459MOL0     C61879   3.004   3.699   3.282  1.1602 -0.0838 -0.2703
  459MOL0     C61880   3.023   3.788   3.388 -0.1174 -0.1784 -0.7897
  459MOL0     N61881   3.249   4.415   3.705 -0.5317  0.8057  0.3552
  459MOL0     N61882   3.313   4.521   3.726  0.1076  0.5417  0.5694
  459MOL0     C61883   3.629   3.895   3.904 -0.7431  0.3453  0.6056
  459MOL0     C61884   3.577   3.786   3.832 -0.4111 -0.8363  0.3162
  459MOL0     C61885   3.296   3.466   3.648  0.5582  0.4930  0.0045
  459MOL0     C61886   3.408   3.377   3.648 -0.2393 -0.2887  0.5926
  459MOL0     C61887   3.400   3.255   3.584 -0.6242 -0.5812  0.3116
  459MOL0     C61888   3.284   3.224   3.520 -0.6204  0.0345 -0.1974
  459MOL0     O61889   3.278   3.103   3.453 -0.1929  0.4292  0.0023
  459MOL0     C61890   3.222   2.989   3.527 -0.0531 -0.0761  0.3091
  459MOL0     C61891   3.163   2.873   3.441  0.4841  0.6595  0.2743
  459MOL0     C61892   3.064   2.949   3.341  0.3692 -0.4427  0.7723
  459MOL0     C61893   2.983   2.854   3.250 -0.3432 -0.1535 -0.2189
  459MOL0     C61894   2.886   2.934   3.181  0.3257  0.3457  0.2366
  459MOL0     C61895   2.816   3.016   3.121  0.0110  0.2168 -1.0058
  459MOL0     C61896   3.183   3.319   3.513  0.3609 -0.3845  0.1000
  459MOL0     C61897   3.186   3.442   3.565 -1.4299 -0.3229 -0.0350
  459MOL0     H61898   3.274   3.752   3.979  0.1487  1.9073  3.4633
  459MOL0     H61899   3.367   3.933   4.108  0.9967 -2.1186  1.7848
  459MOL0     H61900   3.797   4.072   4.075  1.2711  3.2064  0.8373
  459MOL0     H61901   3.717   4.140   3.938 -1.5454 -1.9695 -0.3861
  459MOL0     H61902   3.656   4.246   4.216  3.3358 -0.0559  0.9844
  459MOL0     H61903   3.797   4.311   4.124  0.8793 -0.7760  1.5843
  459MOL0     H61904   3.644   4.366   3.934  2.7059 -0.8466  0.6592
  459MOL0     H61905   3.505   4.348   4.039  0.8625 -3.7827 -1.6865
  459MOL0     H61906   3.618   4.532   4.192  3.0622 -0.9172  0.2657
  459MOL0     H61907   3.724   4.554   4.059  0.4716 -0.4019  2.8063
  459MOL0     H61908   3.551   4.711   4.008 -1.6843  0.2205 -0.1242
  459MOL0     H61909   3.519   4.574   3.906  1.4710  1.0017 -0.4962
  459MOL0     H61910   3.343   4.504   4.075  1.8160 -1.1348  1.8032
  459MOL0     H61911   3.390   4.621   4.190 -0.7684 -2.9279  0.5126
  459MOL0     H61912   3.200   4.714   4.082 -1.2883  2.0239 -1.6551
  459MOL0     H61913   3.352   4.798   4.079 -3.5310  0.0184  3.1222
  459MOL0     H61914   3.372   4.753   3.830 -1.2963  0.4943 -2.6886
  459MOL0     H61915   3.204   4.777   3.846 -1.2217 -1.0062  1.2345
  459MOL0     H61916   3.052   4.518   3.933 -1.7436 -1.4938 -0.9817
  459MOL0     H61917   3.087   4.230   3.873 -1.2386 -3.2332 -1.4825
  459MOL0     H61918   2.939   4.312   3.813  0.2230  0.6246  0.3682
  459MOL0     H61919   3.085   4.254   3.595 -1.4940  3.5883  1.5320
  459MOL0     H61920   2.944   4.163   3.640  0.4873  0.2770 -0.5966
  459MOL0     H61921   3.129   4.034   3.811 -1.0202 -0.5707 -0.5797
  459MOL0     H61922   3.250   4.107   3.719  0.8895 -2.4171 -1.6363
  459MOL0     H61923   3.026   3.917   3.620 -1.1447  1.3505  3.7106
  459MOL0     H61924   3.205   3.895   3.628  3.2491  2.0763  0.0881
  459MOL0     H61925   3.203   4.026   3.235 -0.3908 -0.4187 -4.3424
  459MOL0     H61926   3.217   3.867   2.944 -0.1968  2.5205 -2.0831
  459MOL0     H61927   3.047   3.923   2.927  1.2421 -5.8136 -2.8519
  459MOL0     H61928   3.166   4.027   2.997 -0.2510  0.3032 -1.1579
  459MOL0     H61929   2.893   3.313   3.007 -3.2296 -3.5516 -1.5748
  459MOL0     H61930   2.813   3.214   2.783  0.5099  0.0103 -2.9043
  459MOL0     H61931   2.534   3.391   2.521 -0.4008 -2.2889  0.9645
  459MOL0     H61932   2.680   3.469   2.452 -0.8795  0.6548  1.7260
  459MOL0     H61933   2.552   3.314   2.306 -1.0654 -2.5034 -0.5328
  459MOL0     H61934   2.719   3.247   2.325 -0.3906  0.3593 -1.1344
  459MOL0     H61935   2.455   3.170   2.431  0.3441 -0.0907 -1.5420
  459MOL0     H61936   2.580   3.121   2.531 -3.4524  2.3643  1.5361
  459MOL0     H61937   2.549   3.058   2.230 -2.1913  0.3242  0.4966
  459MOL0     H61938   2.692   3.007   2.317 -0.1575 -2.3644 -2.5205
  459MOL0     H61939   2.413   2.893   2.355  0.2892  0.2063 -0.3330
  459MOL0     H61940   2.536   2.899   2.480 -0.2286  0.8271  0.4583
  459MOL0     H61941   2.610   2.780   2.208 -0.0960  0.9964 -0.4733
  459MOL0     H61942   2.685   2.766   2.363  0.2806  0.5390 -0.2628
  459MOL0     H61943   2.397   2.654   2.297 -1.7361  2.6870  2.1934
  459MOL0     H61944   2.466   2.671   2.454 -1.2550  3.1189 -0.8430
  459MOL0     H61945   2.506   2.439   2.376  0.0018 -1.6435 -1.5466
  459MOL0     H61946   2.668   2.521   2.373  0.5324  1.3979 -0.0780
  459MOL0     H61947   2.683   3.588   2.647 -1.0399 -1.4291 -0.9951
  459MOL0     H61948   2.781   3.700   2.857  1.1809 -0.8074 -1.6250
  459MOL0     H61949   2.952   3.605   3.297 -0.7044  0.9106 -0.2827
  459MOL0     H61950   2.985   3.748   3.482  4.7035 -1.9906  0.7055
  459MOL0     H61951   3.732   3.918   3.882 -0.3510 -0.7629  1.1761
  459MOL0     H61952   3.647   3.739   3.764  1.6808  0.9763  1.0713
  459MOL0     H61953   3.498   3.403   3.702  0.6648 -0.4964 -0.7628
  459MOL0     H61954   3.475   3.177   3.574 -1.6758 -1.3971 -1.9384
  459MOL0     H61955   3.303   2.954   3.592  0.6931  2.4127  0.8308
  459MOL0     H61956   3.143   3.033   3.590 -0.5711  2.3593 -1.8772
  459MOL0     H61957   3.105   2.802   3.501  1.8289 -1.6687 -1.0076
  459MOL0     H61958   3.241   2.828   3.379  0.4385  3.0797 -1.6848
  459MOL0     H61959   3.128   3.016   3.283  1.9468 -0.5895  2.2806
  459MOL0     H61960   2.990   3.014   3.389 -1.3983 -1.0597 -0.9408
  459MOL0     H61961   2.923   2.797   3.322 -0.7125  1.1192  0.5209
  459MOL0     H61962   3.042   2.790   3.184 -3.9060 -1.1579 -2.7372
  459MOL0     H61963   2.752   3.080   3.063  0.6921  1.0521 -0.8509
  459MOL0     H61964   3.104   3.277   3.452 -1.3195 -1.7111  2.9752
  459MOL0     H61965   3.115   3.518   3.535 -0.5428  0.3619 -0.4232
  460MOL0     O61966   0.653   6.624  10.843  0.8560 -0.5677  0.6064
  460MOL0     C61967   0.630   6.740  10.883 -0.6627  1.4431 -1.4223
  460MOL0     O61968   0.724   6.828  10.931 -0.1740 -0.4216  1.1540
  460MOL0     C61969   0.848   6.783  10.948  0.0349  0.0365  0.7410
  460MOL0     C61970   0.878   6.736  11.076  0.1233  0.3033 -0.0340
  460MOL0     C61971   1.013   6.701  11.113  0.0114  0.6530 -0.5459
  460MOL0     C61972   1.113   6.729  11.023 -0.1981  1.0055  0.3499
  460MOL0     O61973   1.234   6.690  11.083 -0.1806  0.2739 -0.0361
  460MOL0     C61974   1.334   6.652  10.982  1.2944 -0.7447  0.8503
  460MOL0     C61975   1.412   6.778  10.958  0.6038 -0.1181  0.3278
  460MOL0     C61976   1.455   6.860  11.086  0.1515  0.7640 -0.0147
  460MOL0     C61977   1.506   6.992  11.040  0.2208  0.2075 -0.1130
  460MOL0     C61978   1.603   7.061  11.139  1.1116 -0.2927 -0.9523
  460MOL0     C61979   1.674   7.164  11.047 -0.7148 -0.1309 -0.2535
  460MOL0     C61980   1.784   7.239  11.126  0.2001  0.0834 -0.0415
  460MOL0     C61981   1.841   7.338  11.019  0.3286 -0.3068  0.5051
  460MOL0     N61982   1.931   7.441  11.066 -0.0883 -0.7722 -0.1887
  460MOL0     C61983   1.971   7.565  11.002  0.8764  0.0490 -0.3385
  460MOL0     C61984   2.005   7.640  11.109  0.5502  0.6763 -0.3405
  460MOL0     C61985   2.050   7.780  11.107 -0.2919  0.2974  0.2475
  460MOL0     C61986   2.201   7.804  11.121 -0.7014 -0.0598  0.3599
  460MOL0     C61987   2.228   7.822  11.275 -0.2877 -0.7178  0.6255
  460MOL0     C61988   2.378   7.844  11.323  0.0562  1.0938  0.3452
  460MOL0     O61989   2.457   7.953  11.273 -0.2783  0.3237 -0.1078
  460MOL0     C61990   2.422   8.082  11.290  0.3163 -0.0961  0.3390
  460MOL0     C61991   2.330   8.133  11.377 -0.4742 -0.3453  0.2740
  460MOL0     C61992   2.285   8.270  11.371 -0.4101  0.1402  0.5959
  460MOL0     C61993   2.202   8.326  11.475  0.9788 -0.3816  0.5282
  460MOL0     C61994   2.345   8.351  11.266 -1.8896  0.4530 -0.8146
  460MOL0     C61995   2.328   8.496  11.252 -1.1023  0.9069 -0.5072
  460MOL0     O61996   2.236   8.557  11.333 -0.3367 -0.3674 -0.6404
  460MOL0     C61997   2.236   8.694  11.345  1.0591 -0.6636  0.2444
  460MOL0     C61998   2.190   8.773  11.236 -1.0301  0.2747 -0.5952
  460MOL0     C61999   2.205   8.909  11.264  0.4282 -1.1153  0.2079
  460MOL0     C62000   2.255   8.963  11.388  1.0525  0.0658  0.0666
  460MOL0     O62001   2.259   9.098  11.406 -0.7381  0.7608  0.2547
  460MOL0     C62002   2.238   9.149  11.532 -0.3581  0.6361 -0.3232
  460MOL0     C62003   2.191   9.293  11.529 -0.2115  1.0257 -0.8115
  460MOL0     C62004   2.049   9.291  11.467  0.2888  1.2298 -0.1498
  460MOL0     C62005   1.998   9.436  11.438  0.8874  0.0287  0.1702
  460MOL0     C62006   1.859   9.438  11.362 -0.4314  0.3628  0.7964
  460MOL0     C62007   1.849   9.573  11.286  0.9684  0.0075  0.0642
  460MOL0     C62008   1.715   9.579  11.216  0.0237  0.3540  0.4537
  460MOL0     C62009   1.678   9.710  11.148  1.0377 -0.1597 -0.1598
  460MOL0    Cl62010   1.616   9.812  11.267 -0.0569 -0.3735 -0.4298
  460MOL0     C62011   2.272   8.883  11.498 -0.9109 -0.1176 -0.0106
  460MOL0     C62012   2.264   8.746  11.473 -0.3335  0.0821  0.4759
  460MOL0     O62013   2.405   8.549  11.177  0.6392 -0.2520 -0.3045
  460MOL0     C62014   2.457   8.295  11.197 -0.6732  1.1781  0.0657
  460MOL0     C62015   2.487   8.161  11.199  0.2789  0.0413 -0.0255
  460MOL0     N62016   1.987   7.560  11.224  0.0139  0.1938  0.5822
  460MOL0     N62017   1.968   7.434  11.189 -0.0350 -0.7602 -0.5381
  460MOL0     C62018   1.084   6.772  10.892 -0.4871  0.5057 -0.0112
  460MOL0     C62019   0.953   6.809  10.853 -0.6650  0.2172 -0.3673
  460MOL0     C62020   0.488   6.781  10.882  0.4181 -0.2948  0.4572
  460MOL0     C62021   0.380   6.701  10.844 -1.0646 -1.0494  0.1295
  460MOL0     C62022   0.247   6.741  10.834 -0.8981 -0.3472  0.7757
  460MOL0     C62023   0.217   6.874  10.886 -0.3864 -0.5114  0.4324
  460MOL0     O62024   0.090   6.928  10.893 -0.5745  0.6049 -0.5471
  460MOL0     C62025   0.030   6.965  11.027  0.1308 -0.3336 -0.2963
  460MOL0     C62026  -0.025   6.851  11.121 -0.1812 -0.6700  0.5585
  460MOL0     C62027  -0.115   6.751  11.037 -0.6458 -0.2702 -0.1869
  460MOL0     C62028  -0.162   6.631  11.115 -0.0179 -0.1754 -0.1455
  460MOL0     C62029  -0.280   6.578  11.050  0.4988 -1.0514  0.4120
  460MOL0     C62030  -0.387   6.551  11.000  0.6747 -0.0936 -0.4033
  460MOL0     C62031   0.327   6.964  10.907  0.6264 -0.5379  1.1162
  460MOL0     C62032   0.461   6.913  10.912 -0.3513 -0.1906  1.3303
  460MOL0     H62033   0.807   6.716  11.156  0.0187  5.1450  1.4294
  460MOL0     H62034   1.023   6.670  11.217 -0.3352 -1.1372 -1.0084
  460MOL0     H62035   1.399   6.568  11.010  0.8351 -0.9857  1.1985
  460MOL0     H62036   1.289   6.613  10.890 -1.2386  0.9896  1.2677
  460MOL0     H62037   1.507   6.743  10.917 -1.1467 -3.4710 -1.2147
  460MOL0     H62038   1.359   6.841  10.885  0.2707  0.8090  1.3361
  460MOL0     H62039   1.365   6.882  11.144 -0.1069  1.4745 -0.6676
  460MOL0     H62040   1.530   6.815  11.152 -0.1253 -2.1280 -1.5033
  460MOL0     H62041   1.578   6.974  10.959  1.5961  3.0196  0.3542
  460MOL0     H62042   1.435   7.066  11.002  0.9092  0.9447  0.0086
  460MOL0     H62043   1.558   7.112  11.225  3.4612 -1.6520  1.2309
  460MOL0     H62044   1.685   7.003  11.182  0.9222 -0.2240 -0.5014
  460MOL0     H62045   1.730   7.121  10.964 -2.1201  0.7712 -1.7267
  460MOL0     H62046   1.592   7.226  11.011 -3.0280 -2.0091  1.4157
  460MOL0     H62047   1.742   7.304  11.203  1.4332  0.3237  0.4489
  460MOL0     H62048   1.860   7.175  11.172  3.7889  5.2346  2.1495
  460MOL0     H62049   1.755   7.402  10.994 -0.0891 -0.0704  2.3467
  460MOL0     H62050   1.881   7.289  10.930  1.0974  0.6276  0.3186
  460MOL0     H62051   1.959   7.607  10.902 -1.2576 -0.0928 -0.1964
  460MOL0     H62052   2.014   7.809  11.008 -0.2550  0.6593  0.3370
  460MOL0     H62053   1.992   7.839  11.180 -1.4779 -1.1910  0.5568
  460MOL0     H62054   2.234   7.890  11.061  0.8878 -1.2727 -0.5833
  460MOL0     H62055   2.254   7.713  11.092 -3.5872 -2.0921  1.0049
  460MOL0     H62056   2.183   7.736  11.326 -1.7414  2.3609  5.1595
  460MOL0     H62057   2.176   7.910  11.314  0.9692  1.5494 -2.4520
  460MOL0     H62058   2.436   7.759  11.287  1.8436  2.0638  0.8202
  460MOL0     H62059   2.376   7.848  11.433  0.5621 -2.1477  0.5639
  460MOL0     H62060   2.298   8.059  11.449  0.1735 -2.3118 -1.3469
  460MOL0     H62061   2.155   8.244  11.531 -2.3843  0.4252 -0.8672
  460MOL0     H62062   2.259   8.400  11.532  0.5062 -0.6170  1.3296
  460MOL0     H62063   2.115   8.384  11.445 -0.4918 -1.6555  2.0762
  460MOL0     H62064   2.155   8.723  11.146 -0.1304  0.0940 -0.8564
  460MOL0     H62065   2.148   8.967  11.192  0.0687 -0.8380  0.7122
  460MOL0     H62066   2.153   9.093  11.572 -2.2294  1.6053 -2.6705
  460MOL0     H62067   2.322   9.151  11.602  0.5795  1.6633 -1.4209
  460MOL0     H62068   2.192   9.336  11.629 -5.5804  0.2545 -0.1453
  460MOL0     H62069   2.263   9.350  11.469  2.5629 -1.3950 -0.0181
  460MOL0     H62070   1.981   9.248  11.542  0.0647 -1.1727 -1.6209
  460MOL0     H62071   2.046   9.234  11.374  1.6270 -0.0585  0.5555
  460MOL0     H62072   1.992   9.502  11.525  0.5042  0.1651  0.0422
  460MOL0     H62073   2.079   9.483  11.381  0.5456  0.3286 -0.0757
  460MOL0     H62074   1.773   9.422  11.427 -0.3245  0.9862  1.0988
  460MOL0     H62075   1.854   9.359  11.287 -1.3402 -0.1527  1.3824
  460MOL0     H62076   1.860   9.665  11.343  0.0084  1.0165 -1.3050
  460MOL0     H62077   1.931   9.579  11.214 -0.8559 -0.2629 -2.1806
  460MOL0     H62078   1.630   9.547  11.277  0.8789 -2.0372  0.5015
  460MOL0     H62079   1.729   9.512  11.130 -0.9166 -0.7880  1.1611
  460MOL0     H62080   1.600   9.697  11.072 -0.6486  0.4158  1.4138
  460MOL0     H62081   1.768   9.757  11.106  1.1847 -0.4497 -0.1742
  460MOL0     H62082   2.292   8.917  11.599 -0.6299  2.1938 -0.7710
  460MOL0     H62083   2.314   8.685  11.548  0.1541  0.2631  0.3036
  460MOL0     H62084   2.512   8.347  11.120 -4.9111  3.7176 -1.6160
  460MOL0     H62085   2.563   8.118  11.134  1.7285  0.7190  1.1594
  460MOL0     H62086   1.164   6.779  10.820 -0.0872  1.8679  0.5402
  460MOL0     H62087   0.913   6.837  10.756 -1.3256 -1.5544 -0.6434
  460MOL0     H62088   0.394   6.595  10.824  1.5004 -0.4117 -2.1454
  460MOL0     H62089   0.157   6.689  10.803 -2.0452  1.3352  1.1100
  460MOL0     H62090   0.095   7.038  11.077  0.1472 -0.0483 -0.7279
  460MOL0     H62091  -0.059   7.022  11.000  0.9310  0.7508 -0.6967
  460MOL0     H62092  -0.084   6.890  11.205  2.9854  1.9152  1.8496
  460MOL0     H62093   0.068   6.806  11.157 -0.4929 -0.8151  1.2127
  460MOL0     H62094  -0.051   6.711  10.958  0.7302 -1.9700  1.6784
  460MOL0     H62095  -0.207   6.802  11.005 -1.2195 -1.3515 -0.3317
  460MOL0     H62096  -0.175   6.659  11.220 -0.9872 -1.6428  0.1473
  460MOL0     H62097  -0.085   6.553  11.118  2.4772  1.9965 -1.8886
  460MOL0     H62098  -0.474   6.524  10.943 -1.5638  0.3811  2.5056
  460MOL0     H62099   0.300   7.068  10.921 -2.4502 -0.7418 -1.9664
  460MOL0     H62100   0.541   6.985  10.925 -1.7541  1.7171  0.0249
  461MOL0     O62101   4.959   8.455   9.768 -0.1678 -0.0949  0.2215
  461MOL0     C62102   5.042   8.527   9.826  0.3645  0.0303 -0.0674
  461MOL0     O62103   5.086   8.510   9.954  0.4039 -0.0250 -0.2458
  461MOL0     C62104   5.038   8.411  10.037  0.8729  0.3204  0.3736
  461MOL0     C62105   5.133   8.327  10.090  0.1044 -0.2023 -0.1230
  461MOL0     C62106   5.100   8.243  10.193  0.3519  0.4728  0.8278
  461MOL0     C62107   4.965   8.231  10.232 -0.5940 -0.4370 -0.0999
  461MOL0     O62108   4.924   8.146  10.329 -0.4255 -0.0492 -0.1989
  461MOL0     C62109   4.997   8.022  10.365  0.2020 -0.8433  0.5209
  461MOL0     C62110   4.933   7.886  10.329 -0.4056 -0.3126 -0.8547
  461MOL0     C62111   4.804   7.875  10.402 -0.0663  0.5745  0.0621
  461MOL0     C62112   4.726   7.752  10.379 -0.6758 -0.6746  0.2985
  461MOL0     C62113   4.601   7.746  10.461 -0.7314  0.6152  0.2556
  461MOL0     C62114   4.576   7.598  10.510 -0.1317  0.6243 -0.7901
  461MOL0     C62115   4.562   7.513  10.394  0.6177  0.5117  0.4554
  461MOL0     C62116   4.476   7.398  10.424 -0.5602 -0.1261 -0.6105
  461MOL0     N62117   4.495   7.282  10.333 -0.7595  0.3745  0.5787
  461MOL0     C62118   4.454   7.278  10.203  0.4597  0.8541 -0.0849
  461MOL0     C62119   4.468   7.148  10.171  0.7296 -0.5470  0.3261
  461MOL0     C62120   4.425   7.083  10.039 -0.4845  0.4831 -0.3376
  461MOL0     C62121   4.279   7.058  10.038  0.5176  0.4701  0.1895
  461MOL0     C62122   4.234   7.019   9.894  0.4829 -0.3368  0.2994
  461MOL0     C62123   4.083   6.992   9.886  0.0678 -0.4214 -0.1412
  461MOL0     O62124   4.023   7.115   9.884 -0.3687 -0.3084  1.0075
  461MOL0     C62125   3.919   7.122   9.961 -1.1125  0.5390 -0.9732
  461MOL0     C62126   3.804   7.052   9.921 -0.9859  0.2131  0.0594
  461MOL0     C62127   3.684   7.036   9.990  0.3785 -0.4554 -0.2676
  461MOL0     C62128   3.582   6.947   9.928  0.2859  0.3635  0.1603
  461MOL0     C62129   3.676   7.104  10.118 -0.5293  1.0350  1.1549
  461MOL0     C62130   3.561   7.126  10.199  0.1698  0.2958 -0.3694
  461MOL0     O62131   3.443   7.080  10.145  0.4195  0.6288  0.3144
  461MOL0     C62132   3.333   7.080  10.230 -0.5784  0.9859  0.7811
  461MOL0     C62133   3.305   6.985  10.318  0.2262  0.2639  0.0141
  461MOL0     C62134   3.188   6.997  10.403  0.0868  0.1654  0.6936
  461MOL0     C62135   3.102   7.112  10.397 -0.9315  0.6403 -0.2282
  461MOL0     O62136   3.000   7.103  10.479 -0.6702  0.1891 -0.1224
  461MOL0     C62137   2.943   7.227  10.513 -0.2263  0.1157 -0.2505
  461MOL0     C62138   2.818   7.213  10.604  0.9215  0.2582 -0.3953
  461MOL0     C62139   2.694   7.173  10.514  0.0968 -0.3111 -0.0251
  461MOL0     C62140   2.559   7.164  10.593  0.5010 -0.4627 -0.3025
  461MOL0     C62141   2.440   7.111  10.509 -0.1698 -0.7495  0.5003
  461MOL0     C62142   2.302   7.164  10.550 -0.2230 -0.9674 -0.1377
  461MOL0     C62143   2.244   7.117  10.691 -0.5048  0.1848 -0.0751
  461MOL0     C62144   2.309   7.187  10.811 -1.1587  0.0359  0.0613
  461MOL0    Cl62145   2.232   7.124  10.967  0.3644  0.2854 -0.4664
  461MOL0     C62146   3.130   7.205  10.300 -1.2846  0.3364  0.4090
  461MOL0     C62147   3.246   7.193  10.224  0.7126  0.3907 -0.7232
  461MOL0     O62148   3.574   7.176  10.305 -0.5534 -0.6052  0.1477
  461MOL0     C62149   3.797   7.174  10.165  0.5706 -0.9584  1.2709
  461MOL0     C62150   3.911   7.181  10.084 -0.2022 -0.6506  0.4297
  461MOL0     N62151   4.530   7.085  10.277  0.1381 -0.4850  0.0773
  461MOL0     N62152   4.541   7.164  10.374  0.4742  0.1084  0.1694
  461MOL0     C62153   4.871   8.315  10.184  0.7342 -0.3496 -0.2371
  461MOL0     C62154   4.906   8.403  10.083  0.6953 -0.0884  0.2452
  461MOL0     C62155   5.100   8.648   9.761 -0.9779  0.6886 -0.8841
  461MOL0     C62156   5.198   8.725   9.824  0.2712 -0.2039  0.1179
  461MOL0     C62157   5.248   8.835   9.758 -0.0961 -0.9630  0.3713
  461MOL0     C62158   5.201   8.880   9.634 -0.4337  0.4295 -0.5511
  461MOL0     O62159   5.255   8.992   9.577 -0.8362 -0.1096 -0.2197
  461MOL0     C62160   5.235   8.999   9.439 -0.8187  0.3787  0.8879
  461MOL0     C62161   5.292   9.131   9.388 -0.3142  1.0313 -0.0761
  461MOL0     C62162   5.453   9.138   9.390  0.0497  0.4825  0.0627
  461MOL0     C62163   5.501   9.254   9.300 -0.4161 -0.5749  0.1020
  461MOL0     C62164   5.502   9.192   9.171  0.6744  1.2600  0.1238
  461MOL0     C62165   5.523   9.135   9.067  1.2426 -0.2627 -0.3257
  461MOL0     C62166   5.107   8.787   9.569  0.1974 -0.5219  0.1905
  461MOL0     C62167   5.053   8.678   9.638  0.0745 -1.0517  0.7465
  461MOL0     H62168   5.235   8.351  10.065  0.3766 -3.2765 -2.6890
  461MOL0     H62169   5.185   8.192  10.238  1.4436  1.1738 -0.3491
  461MOL0     H62170   5.096   8.023  10.319  0.7539 -0.8062  1.6839
  461MOL0     H62171   5.013   8.027  10.473  1.5904  1.3113  0.2682
  461MOL0     H62172   4.910   7.889  10.222 -1.2475 -1.0564 -0.6994
  461MOL0     H62173   5.004   7.807  10.357  1.1770  1.3780  0.1654
  461MOL0     H62174   4.817   7.881  10.510  1.1754  1.1785 -0.1048
  461MOL0     H62175   4.740   7.953  10.360  0.1481 -0.4036 -2.2265
  461MOL0     H62176   4.698   7.752  10.273 -0.0102  2.6378  0.0037
  461MOL0     H62177   4.798   7.672  10.400  1.2543  0.9714  0.2702
  461MOL0     H62178   4.598   7.831  10.530  1.1439  0.8667  0.1011
  461MOL0     H62179   4.518   7.772  10.395 -0.8284 -1.3476 -0.4493
  461MOL0     H62180   4.653   7.562  10.578 -1.1314  0.2353  0.1621
  461MOL0     H62181   4.483   7.590  10.568  0.3104 -1.2166 -0.2689
  461MOL0     H62182   4.510   7.565  10.313 -1.5333 -2.0410  0.0573
  461MOL0     H62183   4.661   7.483  10.361  1.1692  1.9490  0.7336
  461MOL0     H62184   4.368   7.420  10.425 -0.5924  0.0912  2.6633
  461MOL0     H62185   4.490   7.355  10.523 -2.0516 -0.5276 -0.5468
  461MOL0     H62186   4.394   7.357  10.159 -1.1121  1.4646  2.8376
  461MOL0     H62187   4.451   7.152   9.958 -3.7500 -2.4689 -4.4155
  461MOL0     H62188   4.483   6.992  10.021 -0.9107 -0.2564  1.7025
  461MOL0     H62189   4.221   7.141  10.080  0.4442 -0.1961  1.4535
  461MOL0     H62190   4.271   6.967  10.098  2.3712 -0.8232 -1.4017
  461MOL0     H62191   4.288   6.933   9.854  1.9890  0.5618  0.3451
  461MOL0     H62192   4.255   7.107   9.833 -0.2369  0.8673  1.7118
  461MOL0     H62193   4.045   6.923   9.963 -1.6641 -3.2344 -3.2817
  461MOL0     H62194   4.063   6.949   9.788  2.0607 -5.0946  1.1884
  461MOL0     H62195   3.821   7.010   9.822  1.2951 -0.2540  0.5927
  461MOL0     H62196   3.512   7.003   9.865 -2.6003 -0.5062  2.3599
  461MOL0     H62197   3.637   6.874   9.867  2.9931  2.9585 -0.7475
  461MOL0     H62198   3.511   6.900   9.997  1.0257  0.6596  1.1312
  461MOL0     H62199   3.377   6.903  10.320  0.4986  0.5089  0.3400
  461MOL0     H62200   3.161   6.935  10.488  1.3382  0.4750  1.3411
  461MOL0     H62201   3.009   7.296  10.566 -0.5030 -0.9985  1.6366
  461MOL0     H62202   2.917   7.279  10.420 -1.2705  2.3379  1.2028
  461MOL0     H62203   2.841   7.147  10.688  0.8403  0.7939  0.0491
  461MOL0     H62204   2.810   7.307  10.658  2.2946  1.1058 -1.5801
  461MOL0     H62205   2.729   7.088  10.455 -0.3304  1.5489 -3.1934
  461MOL0     H62206   2.686   7.253  10.440 -0.5297 -1.4449 -1.2047
  461MOL0     H62207   2.578   7.098  10.679  0.8532 -0.1118 -0.1074
  461MOL0     H62208   2.540   7.267  10.623  2.3938 -0.0503 -0.4008
  461MOL0     H62209   2.448   7.002  10.501  1.0638 -0.6534  0.2094
  461MOL0     H62210   2.468   7.158  10.414  4.6907 -0.4671  1.7864
  461MOL0     H62211   2.318   7.272  10.554 -0.0455 -1.0375  2.4222
  461MOL0     H62212   2.236   7.159  10.463  0.7134  0.7811 -0.9952
  461MOL0     H62213   2.260   7.009  10.701 -0.5121  0.2796  1.1072
  461MOL0     H62214   2.139   7.146  10.681  0.0010  2.6414  1.0797
  461MOL0     H62215   2.293   7.295  10.805 -1.5554  0.0291  0.8444
  461MOL0     H62216   2.418   7.182  10.810 -0.7992  4.3056  0.5465
  461MOL0     H62217   3.070   7.294  10.284  0.4546  1.3993 -0.4935
  461MOL0     H62218   3.276   7.279  10.165 -1.2372  2.4936  1.1454
  461MOL0     H62219   3.792   7.237  10.253 -0.1007 -0.3313  0.7939
  461MOL0     H62220   3.998   7.229  10.125  0.8510 -1.0383 -1.2469
  461MOL0     H62221   4.769   8.293  10.216  0.6170  0.3028 -0.1519
  461MOL0     H62222   4.821   8.455  10.040  2.0884 -1.5134 -4.9844
  461MOL0     H62223   5.237   8.706   9.924  0.9494  0.9201  0.0818
  461MOL0     H62224   5.336   8.882   9.800  0.5643 -2.9707  1.3596
  461MOL0     H62225   5.286   8.916   9.391 -0.3567  0.4099  1.3149
  461MOL0     H62226   5.129   8.997   9.412 -1.1616 -0.9414  2.1960
  461MOL0     H62227   5.248   9.214   9.443 -1.3935 -0.6619  1.7550
  461MOL0     H62228   5.252   9.136   9.286 -3.3602 -3.3917  0.6046
  461MOL0     H62229   5.508   9.045   9.376  0.0290  0.6956 -1.5575
  461MOL0     H62230   5.474   9.160   9.496  0.3482 -2.2978  0.6528
  461MOL0     H62231   5.601   9.281   9.333 -0.3409  0.1689 -0.7089
  461MOL0     H62232   5.437   9.342   9.298 -0.3872 -0.5600 -0.3543
  461MOL0     H62233   5.545   9.077   8.980 -0.8605 -0.6044 -0.7011
  461MOL0     H62234   5.066   8.788   9.469  0.8569 -0.9938 -0.0915
  461MOL0     H62235   4.978   8.616   9.590 -0.2645  1.5087 -2.3681
  462MOL0     O62236   8.591  10.245   5.728 -0.0204 -0.0034 -0.1439
  462MOL0     C62237   8.605  10.366   5.755  0.1876 -0.0615  0.1609
  462MOL0     O62238   8.555  10.429   5.863  0.4233  0.1496  0.3368
  462MOL0     C62239   8.470  10.352   5.939  0.0581  0.0530 -0.1165
  462MOL0     C62240   8.345  10.415   5.968 -0.8096 -0.6809  0.5815
  462MOL0     C62241   8.255  10.361   6.061 -0.2081  0.0688  0.6832
  462MOL0     C62242   8.293  10.244   6.127 -0.9523 -0.0390  0.9897
  462MOL0     O62243   8.213  10.191   6.229 -0.4503  0.6958  0.3292
  462MOL0     C62244   8.149  10.269   6.336 -0.1874 -0.0929 -0.5769
  462MOL0     C62245   8.098  10.184   6.448 -0.1881 -0.7278 -1.0374
  462MOL0     C62246   8.193  10.076   6.471 -0.0714 -0.7018  0.0093
  462MOL0     C62247   8.178  10.036   6.621  0.4801  0.2513  0.1999
  462MOL0     C62248   8.262   9.911   6.671  0.3912  0.3559 -0.8294
  462MOL0     C62249   8.216   9.898   6.814 -0.7459  0.7324  0.2642
  462MOL0     C62250   8.298   9.797   6.897 -0.3987  0.3635  0.5177
  462MOL0     C62251   8.245   9.773   7.040  0.9199 -0.1521  0.8088
  462MOL0     N62252   8.333   9.698   7.124  0.2390  0.0951  0.4471
  462MOL0     C62253   8.378   9.733   7.245 -0.2558  0.3410 -0.1782
  462MOL0     C62254   8.402   9.617   7.309  0.0459  0.3408 -0.1655
  462MOL0     C62255   8.440   9.610   7.455  0.0421  0.0363 -0.3749
  462MOL0     C62256   8.368   9.490   7.523  0.7403 -0.4538 -0.4511
  462MOL0     C62257   8.438   9.358   7.497 -0.1857 -0.0178  0.4815
  462MOL0     C62258   8.371   9.242   7.581  0.2915 -0.4322  0.2205
  462MOL0     O62259   8.407   9.103   7.541 -0.0339 -0.6038  0.4466
  462MOL0     C62260   8.486   9.020   7.610  0.2157  1.0216  0.3820
  462MOL0     C62261   8.494   8.887   7.557  0.2602  0.1466 -0.5283
  462MOL0     C62262   8.572   8.792   7.630  0.5335 -0.2755 -0.6411
  462MOL0     C62263   8.564   8.658   7.583  0.4645  0.3745 -0.5476
  462MOL0     C62264   8.643   8.824   7.740 -0.7863 -0.8730  0.0023
  462MOL0     C62265   8.730   8.744   7.825  0.3527  1.3067  1.1839
  462MOL0     O62266   8.835   8.792   7.894  0.2259 -0.1112  1.3868
  462MOL0     C62267   8.882   8.726   8.007 -0.6961 -0.3819  0.0220
  462MOL0     C62268   8.810   8.682   8.115 -0.1237 -0.2564  0.6043
  462MOL0     C62269   8.875   8.658   8.238 -0.3176 -0.0217 -0.7461
  462MOL0     C62270   9.012   8.656   8.251 -0.5194 -0.2688  0.1226
  462MOL0     O62271   9.064   8.614   8.371 -0.5281  0.0897 -0.7486
  462MOL0     C62272   9.198   8.565   8.380 -0.2784  0.8273  0.3228
  462MOL0     C62273   9.220   8.421   8.309 -0.1967  0.3314 -0.2107
  462MOL0     C62274   9.371   8.381   8.293  0.4300  0.3240  0.9780
  462MOL0     C62275   9.418   8.431   8.152  0.0475  0.0711 -0.4816
  462MOL0     C62276   9.552   8.359   8.132  0.3126  0.0150  0.0655
  462MOL0     C62277   9.602   8.370   7.984  0.4188 -0.6477  0.0145
  462MOL0     C62278   9.719   8.289   7.948  0.3913  0.2756  0.4790
  462MOL0     C62279   9.746   8.317   7.798  1.0484 -0.0040  0.1574
  462MOL0    Cl62280   9.616   8.246   7.706  0.6616 -0.1394 -0.2639
  462MOL0     C62281   9.086   8.683   8.143  0.3274 -0.4583 -0.5667
  462MOL0     C62282   9.022   8.730   8.020 -0.7339 -0.0638  0.2784
  462MOL0     O62283   8.679   8.630   7.840 -1.3969 -0.3339  0.0610
  462MOL0     C62284   8.632   8.957   7.786  0.6545  0.6843 -0.1470
  462MOL0     C62285   8.561   9.048   7.721  0.3453 -0.3892 -0.1006
  462MOL0     N62286   8.375   9.508   7.221  0.2491  0.5115  0.1752
  462MOL0     N62287   8.332   9.561   7.106 -0.5981 -0.1049 -1.2311
  462MOL0     C62288   8.415  10.181   6.093  0.0034  0.1363  0.5458
  462MOL0     C62289   8.506  10.237   6.012 -0.6934 -0.1466 -0.4098
  462MOL0     C62290   8.684  10.443   5.654 -0.0033 -0.0589 -0.7676
  462MOL0     C62291   8.699  10.395   5.520 -0.3595 -0.0352 -0.7237
  462MOL0     C62292   8.760  10.467   5.422  0.3185 -0.4707  0.2010
  462MOL0     C62293   8.829  10.590   5.455  0.5882  0.5779 -0.4216
  462MOL0     O62294   8.901  10.663   5.375 -0.7758  0.6183  0.5659
  462MOL0     C62295   9.042  10.641   5.384 -0.1451 -0.3183  0.6407
  462MOL0     C62296   9.116  10.654   5.253  0.2812 -0.5802  0.6045
  462MOL0     C62297   9.044  10.596   5.133  0.1751  0.5943 -0.4519
  462MOL0     C62298   9.127  10.595   5.012  0.6611  0.5733 -0.1987
  462MOL0     C62299   9.150  10.720   4.954 -0.1618  0.5978  0.2299
  462MOL0     C62300   9.187  10.832   4.925 -0.7148 -0.5993 -0.4119
  462MOL0     C62301   8.826  10.630   5.592  1.4960 -0.0595 -0.5302
  462MOL0     C62302   8.744  10.557   5.687 -0.2202 -0.0288 -0.2480
  462MOL0     H62303   8.322  10.509   5.920 -2.5477 -0.1062  2.4310
  462MOL0     H62304   8.164  10.410   6.092 -0.6241 -0.1577 -0.1481
  462MOL0     H62305   8.228  10.334   6.376  1.7018 -2.1874 -0.6739
  462MOL0     H62306   8.074  10.338   6.296  1.2064  2.8215  1.4637
  462MOL0     H62307   8.088  10.240   6.542  1.5737 -1.3379 -0.4401
  462MOL0     H62308   8.007  10.128   6.429  1.0251 -2.0919 -3.1821
  462MOL0     H62309   8.186   9.987   6.408  1.0827 -0.3709 -0.6198
  462MOL0     H62310   8.296  10.112   6.462 -0.6829  0.9902 -0.6918
  462MOL0     H62311   8.219  10.123   6.673 -0.5701 -0.3145  2.0315
  462MOL0     H62312   8.074  10.025   6.653  0.5393  1.4584  0.8736
  462MOL0     H62313   8.240   9.813   6.627  3.3683 -0.7998 -0.0163
  462MOL0     H62314   8.370   9.917   6.657  0.9411 -0.2328  2.2563
  462MOL0     H62315   8.214   9.991   6.871 -0.9442  1.3980 -0.8131
  462MOL0     H62316   8.123   9.839   6.816 -0.4508  0.1561 -1.4753
  462MOL0     H62317   8.312   9.700   6.848  0.6138  0.2664  0.9684
  462MOL0     H62318   8.404   9.825   6.909  0.3646 -2.1186  0.1712
  462MOL0     H62319   8.154   9.715   7.020  0.6912  0.9565 -1.9115
  462MOL0     H62320   8.212   9.863   7.093 -0.6344 -1.6058  2.4310
  462MOL0     H62321   8.393   9.831   7.290  0.3604  1.1075 -1.9811
  462MOL0     H62322   8.544   9.595   7.486 -0.1614 -1.9359 -0.5203
  462MOL0     H62323   8.420   9.712   7.489  2.3260 -0.5542  3.2960
  462MOL0     H62324   8.262   9.495   7.497  0.9009 -1.3589 -1.3355
  462MOL0     H62325   8.379   9.514   7.629 -3.1735 -0.2805  0.0598
  462MOL0     H62326   8.545   9.364   7.521  0.3363 -1.8643 -1.1147
  462MOL0     H62327   8.444   9.341   7.389  4.4348 -2.7710  0.8765
  462MOL0     H62328   8.262   9.252   7.579  0.4468  2.3102 -3.4534
  462MOL0     H62329   8.401   9.258   7.685  0.2114 -2.2134  0.5473
  462MOL0     H62330   8.430   8.868   7.472 -3.4993 -0.6146  2.1685
  462MOL0     H62331   8.483   8.648   7.510 -2.3991 -2.3401  2.6603
  462MOL0     H62332   8.659   8.626   7.538 -0.4055  0.0917 -2.3024
  462MOL0     H62333   8.527   8.586   7.656  2.2654  0.7184  0.7678
  462MOL0     H62334   8.705   8.659   8.101  0.1613 -3.0435  2.2798
  462MOL0     H62335   8.814   8.612   8.317 -0.9758 -0.7561 -1.6529
  462MOL0     H62336   9.265   8.637   8.333 -1.1539 -0.6307 -3.4563
  462MOL0     H62337   9.231   8.547   8.483  2.8048 -0.3356 -0.7548
  462MOL0     H62338   9.169   8.340   8.363 -4.0563 -1.0690 -5.1128
  462MOL0     H62339   9.175   8.421   8.209 -1.5210 -0.3325  0.3568
  462MOL0     H62340   9.376   8.272   8.283 -0.4947  0.4547 -1.8745
  462MOL0     H62341   9.418   8.411   8.386  1.3370  0.1627  0.5817
  462MOL0     H62342   9.356   8.386   8.074  1.0414 -1.9411 -0.1746
  462MOL0     H62343   9.433   8.539   8.138  1.2140  0.2041  1.3768
  462MOL0     H62344   9.542   8.251   8.145 -0.9550  0.0964 -0.1278
  462MOL0     H62345   9.629   8.384   8.206 -0.5358  1.3280  0.5367
  462MOL0     H62346   9.512   8.363   7.922  1.3236  3.8007 -2.2141
  462MOL0     H62347   9.636   8.474   7.989 -1.4644  0.0173 -0.1478
  462MOL0     H62348   9.683   8.188   7.970 -3.1280  1.5276  1.2248
  462MOL0     H62349   9.817   8.299   7.995  1.0615 -0.5359 -0.7009
  462MOL0     H62350   9.838   8.272   7.758  1.5544  0.3999  0.8551
  462MOL0     H62351   9.744   8.425   7.780 -0.6642  0.0717  0.6170
  462MOL0     H62352   9.192   8.695   8.160  0.1147 -0.6587  1.0616
  462MOL0     H62353   9.102   8.759   7.953  1.4287  0.1393  2.8306
  462MOL0     H62354   8.684   8.989   7.875  1.0877  0.4318 -0.3036
  462MOL0     H62355   8.569   9.150   7.756  2.4945 -1.5302  3.1078
  462MOL0     H62356   8.442  10.090   6.146 -0.9265 -1.5023 -1.6685
  462MOL0     H62357   8.610  10.206   6.008 -0.3685  0.2974  2.7115
  462MOL0     H62358   8.651  10.304   5.485 -0.8791  0.2260 -0.6969
  462MOL0     H62359   8.774  10.424   5.324  0.4863 -3.2584  1.3478
  462MOL0     H62360   9.079  10.710   5.461  2.6097 -0.9750 -0.0154
  462MOL0     H62361   9.068  10.543   5.423  3.1511 -0.4839 -1.6013
  462MOL0     H62362   9.198  10.587   5.280  1.6986  0.0990 -1.7807
  462MOL0     H62363   9.163  10.750   5.228  2.6634 -2.5025 -3.1303
  462MOL0     H62364   8.956  10.659   5.116  1.5859  2.6073 -0.7187
  462MOL0     H62365   9.009  10.493   5.142  1.6575  0.0766 -0.3974
  462MOL0     H62366   9.080  10.545   4.927 -0.6138  1.4578 -0.0331
  462MOL0     H62367   9.216  10.541   5.046 -0.4554 -0.0219  1.8740
  462MOL0     H62368   9.236  10.918   4.884 -2.0302 -0.4919 -1.8456
  462MOL0     H62369   8.891  10.707   5.631 -0.7286  0.0118  3.5785
  462MOL0     H62370   8.739  10.607   5.783 -0.8555 -0.3826 -0.0925
  463MOL0     O62371  10.845   2.223   8.136  0.3347 -0.2313 -0.3801
  463MOL0     C62372  10.809   2.229   8.255 -0.4716 -0.2787 -0.3263
  463MOL0     O62373  10.894   2.211   8.366  0.1703  0.2734  0.1586
  463MOL0     C62374  11.021   2.171   8.346 -0.8051 -0.2063 -0.1536
  463MOL0     C62375  11.129   2.256   8.346 -0.4977  0.5215  0.1973
  463MOL0     C62376  11.254   2.197   8.341 -1.4089  0.7824 -0.2785
  463MOL0     C62377  11.285   2.064   8.320  0.9172  0.7151  0.7707
  463MOL0     O62378  11.419   2.033   8.300  0.5652  0.1033 -0.0928
  463MOL0     C62379  11.479   1.894   8.288  0.6178  0.2501 -0.8389
  463MOL0     C62380  11.635   1.871   8.274  0.5490  0.2479  0.0215
  463MOL0     C62381  11.701   1.876   8.411 -0.2302 -0.7987 -0.4983
  463MOL0     C62382  11.848   1.930   8.430 -0.1391  0.0274 -0.3313
  463MOL0     C62383  11.909   1.873   8.572  1.6323 -0.2853  0.2899
  463MOL0     C62384  12.057   1.862   8.571  0.0352 -0.4708  0.3741
  463MOL0     C62385  12.113   2.004   8.591  0.0389  0.6365  0.5470
  463MOL0     C62386  12.261   2.000   8.604  0.0199 -0.5520 -0.0406
  463MOL0     N62387  12.300   2.139   8.622 -1.0478  1.0015  0.1208
  463MOL0     C62388  12.369   2.182   8.728 -0.1273 -0.8536 -0.1140
  463MOL0     C62389  12.419   2.290   8.681 -0.2782 -0.1729 -0.3835
  463MOL0     C62390  12.505   2.389   8.752  0.1949  1.9294 -0.2241
  463MOL0     C62391  12.634   2.332   8.806 -0.3045  0.4457 -0.1585
  463MOL0     C62392  12.735   2.288   8.694  0.6234 -0.1013  0.1077
  463MOL0     C62393  12.707   2.145   8.643 -0.4645  0.0094  0.1767
  463MOL0     O62394  12.655   2.042   8.734 -0.6266  0.5903 -0.3280
  463MOL0     C62395  12.607   1.922   8.673  0.1437 -0.0012  0.3530
  463MOL0     C62396  12.528   1.841   8.749 -1.0985  0.0378  0.5954
  463MOL0     C62397  12.467   1.725   8.711 -0.7395  0.1308 -0.5347
  463MOL0     C62398  12.378   1.652   8.809 -0.8385  0.3186  0.7937
  463MOL0     C62399  12.457   1.686   8.573 -0.1282  0.5443 -0.1483
  463MOL0     C62400  12.391   1.569   8.533 -1.1882 -0.0131  0.2466
  463MOL0     O62401  12.472   1.462   8.484  0.4708 -0.3558 -0.1121
  463MOL0     C62402  12.408   1.365   8.425  0.5139  0.3440  0.5453
  463MOL0     C62403  12.335   1.261   8.485  0.1338  0.5333 -0.2315
  463MOL0     C62404  12.288   1.155   8.404 -0.8458 -0.2844  0.1760
  463MOL0     C62405  12.302   1.154   8.265 -0.3241  0.9205 -0.3527
  463MOL0     O62406  12.258   1.067   8.171 -0.1131  0.8506  0.1450
  463MOL0     C62407  12.251   0.930   8.223  0.2358  0.1523  1.1603
  463MOL0     C62408  12.183   0.847   8.120  0.4661  0.6979  1.0033
  463MOL0     C62409  12.258   0.837   7.979  0.6715 -1.1855  0.0015
  463MOL0     C62410  12.147   0.794   7.875 -0.9510  0.6165  0.3562
  463MOL0     C62411  12.179   0.787   7.724  0.9830 -0.5337  0.3744
  463MOL0     C62412  12.074   0.715   7.642 -1.1850 -0.4603  0.9223
  463MOL0     C62413  11.965   0.799   7.597 -0.0248 -0.0233  0.2453
  463MOL0     C62414  11.894   0.733   7.469 -0.2342  0.6274 -1.0581
  463MOL0    Cl62415  11.817   0.583   7.507 -0.2686  0.0062  0.2099
  463MOL0     C62416  12.367   1.268   8.213 -0.0315  0.8624 -0.0771
  463MOL0     C62417  12.424   1.365   8.290 -0.6272  1.2837  0.1009
  463MOL0     O62418  12.269   1.565   8.562 -0.3578 -0.0765 -0.1467
  463MOL0     C62419  12.546   1.757   8.489 -0.4054  0.4438 -0.0802
  463MOL0     C62420  12.617   1.875   8.539 -0.0698  0.2372  0.1612
  463MOL0     N62421  12.373   2.317   8.556 -0.6333 -0.6744 -0.6336
  463MOL0     N62422  12.299   2.223   8.519 -0.3969  0.1151 -0.7650
  463MOL0     C62423  11.171   1.983   8.310  0.2393 -0.2030  0.7114
  463MOL0     C62424  11.043   2.035   8.332 -0.1323 -0.2275  0.4515
  463MOL0     C62425  10.670   2.274   8.291 -0.0480  0.6662  0.6297
  463MOL0     C62426  10.580   2.317   8.191  0.2997  0.1346 -0.2654
  463MOL0     C62427  10.447   2.351   8.222  1.0006  0.2912  0.1367
  463MOL0     C62428  10.392   2.323   8.354  0.4937  0.4958  0.1668
  463MOL0     O62429  10.257   2.320   8.370  0.0566  0.6085 -0.1513
  463MOL0     C62430  10.197   2.447   8.373  0.2992  0.2173 -0.0096
  463MOL0     C62431  10.039   2.453   8.376  0.3441 -0.3461 -0.7570
  463MOL0     C62432   9.978   2.393   8.247 -0.6590 -0.3466  1.0114
  463MOL0     C62433   9.917   2.501   8.153 -0.5785  1.3050 -0.9386
  463MOL0     C62434   9.877   2.453   8.021  0.4873 -0.5027  0.1583
  463MOL0     C62435   9.874   2.413   7.906 -0.0444  0.0812  0.7517
  463MOL0     C62436  10.481   2.290   8.453  0.2594 -0.2658  0.5191
  463MOL0     C62437  10.617   2.261   8.425 -0.0666  0.5019 -0.1517
  463MOL0     H62438  11.124   2.364   8.355  4.5095  1.1340 -1.5252
  463MOL0     H62439  11.344   2.258   8.345  0.1750 -1.4072 -0.3974
  463MOL0     H62440  11.438   1.818   8.355 -0.2416 -0.4330 -2.1010
  463MOL0     H62441  11.437   1.872   8.189  0.6652 -2.2529 -0.3508
  463MOL0     H62442  11.657   1.782   8.215 -3.8125 -1.4939  0.6260
  463MOL0     H62443  11.671   1.955   8.214  0.3784 -0.4573 -1.0924
  463MOL0     H62444  11.642   1.944   8.473 -0.7272  0.8732 -2.6857
  463MOL0     H62445  11.700   1.777   8.459 -0.3133 -0.4697  0.1953
  463MOL0     H62446  11.903   1.875   8.353  0.9643 -0.9194  1.0707
  463MOL0     H62447  11.844   2.036   8.403 -1.1218  0.6119  1.8605
  463MOL0     H62448  11.880   1.932   8.659  3.0802 -0.0579  0.6448
  463MOL0     H62449  11.867   1.773   8.587 -1.4128  0.4983 -2.0176
  463MOL0     H62450  12.085   1.806   8.661  2.3724  2.5997  1.7901
  463MOL0     H62451  12.080   1.815   8.476 -2.7005 -1.1899 -0.0024
  463MOL0     H62452  12.083   2.074   8.513 -0.8114  3.8810  3.5752
  463MOL0     H62453  12.082   2.049   8.685  3.0104  1.7561  1.1153
  463MOL0     H62454  12.309   1.959   8.515  0.5724 -2.2250  0.9841
  463MOL0     H62455  12.294   1.948   8.695 -0.5882  1.9293  1.6864
  463MOL0     H62456  12.395   2.141   8.825 -0.8610  0.3409  0.6210
  463MOL0     H62457  12.522   2.468   8.678  2.2536  1.0480 -0.7710
  463MOL0     H62458  12.440   2.442   8.823  0.1393  0.4205  0.9049
  463MOL0     H62459  12.612   2.255   8.879 -1.6881  0.9216 -0.0404
  463MOL0     H62460  12.680   2.415   8.861  0.2118 -0.5605  0.9637
  463MOL0     H62461  12.827   2.288   8.753 -0.1812 -4.5519  1.7717
  463MOL0     H62462  12.750   2.347   8.604 -2.4721  0.1023 -0.3694
  463MOL0     H62463  12.803   2.108   8.605 -0.2467  2.3223 -1.7579
  463MOL0     H62464  12.640   2.161   8.558 -1.5413 -1.0481  0.7899
  463MOL0     H62465  12.503   1.886   8.845  2.9951 -0.4509  2.1115
  463MOL0     H62466  12.408   1.547   8.804 -0.2951  0.4892  0.4830
  463MOL0     H62467  12.387   1.702   8.906  1.6876 -3.4046  2.7328
  463MOL0     H62468  12.275   1.666   8.774  0.1346  4.0181 -1.2155
  463MOL0     H62469  12.299   1.268   8.587 -1.1402  2.2274 -0.7376
  463MOL0     H62470  12.228   1.079   8.454  2.5998 -2.4178  1.4293
  463MOL0     H62471  12.356   0.905   8.243  1.4195  1.2607 -2.7508
  463MOL0     H62472  12.190   0.926   8.314 -4.5342 -0.0171 -1.7364
  463MOL0     H62473  12.182   0.753   8.177  1.5495 -0.3393 -0.6032
  463MOL0     H62474  12.077   0.868   8.106 -0.7358 -4.4828  0.2570
  463MOL0     H62475  12.343   0.768   7.985  1.9592  0.2598 -0.9006
  463MOL0     H62476  12.309   0.930   7.954  1.2834 -1.3334  0.6529
  463MOL0     H62477  12.125   0.690   7.903 -2.7872  0.2590 -2.0946
  463MOL0     H62478  12.054   0.848   7.894 -0.5147  1.0208  1.4315
  463MOL0     H62479  12.279   0.746   7.710  1.4294  0.9111 -0.9840
  463MOL0     H62480  12.182   0.890   7.688  1.4884  0.1194  2.1767
  463MOL0     H62481  12.132   0.665   7.564  0.9615 -0.0929  2.2248
  463MOL0     H62482  12.026   0.625   7.682 -0.0304 -2.0623 -1.1229
  463MOL0     H62483  11.997   0.900   7.568  0.1154 -0.9180 -3.1907
  463MOL0     H62484  11.887   0.798   7.673 -0.2168 -1.2234  0.0501
  463MOL0     H62485  11.971   0.723   7.392  0.4622 -1.0876 -0.1934
  463MOL0     H62486  11.817   0.802   7.433 -0.9860 -0.4027 -1.4814
  463MOL0     H62487  12.396   1.269   8.108  2.0175 -0.5850  0.4016
  463MOL0     H62488  12.492   1.433   8.240  0.6687 -1.2717 -1.8172
  463MOL0     H62489  12.565   1.746   8.383  2.1044  3.4298 -0.0918
  463MOL0     H62490  12.687   1.933   8.479 -0.8824  2.3072  1.1465
  463MOL0     H62491  11.188   1.878   8.290 -1.8111 -0.7225  1.4742
  463MOL0     H62492  10.949   1.981   8.342 -0.7792  1.1246  2.1081
  463MOL0     H62493  10.614   2.333   8.089  2.1307  5.0820  0.8596
  463MOL0     H62494  10.385   2.381   8.138 -0.2640  0.4875  1.1231
  463MOL0     H62495  10.232   2.493   8.466 -0.2564 -0.5546  0.5955
  463MOL0     H62496  10.220   2.509   8.286  3.2417  2.7964  2.3506
  463MOL0     H62497  10.011   2.558   8.387  2.1180  0.0789  0.1443
  463MOL0     H62498  10.002   2.401   8.465  0.7665 -2.1136 -1.5623
  463MOL0     H62499   9.913   2.313   8.283 -1.9608 -0.6145 -1.7306
  463MOL0     H62500  10.065   2.366   8.186 -0.8580  0.6934  0.2415
  463MOL0     H62501   9.988   2.584   8.142  0.7905  0.9443  3.2795
  463MOL0     H62502   9.835   2.559   8.197  0.2881  3.2378 -1.7301
  463MOL0     H62503   9.880   2.381   7.804 -0.2587  3.6641 -0.5333
  463MOL0     H62504  10.453   2.268   8.556  0.4116  0.5405  0.7403
  463MOL0     H62505  10.674   2.212   8.503  0.8145 -2.5624 -2.5311
  464MOL0     O62506   5.912   0.922   2.342  0.5060  0.2264 -0.0680
  464MOL0     C62507   5.824   0.999   2.373 -0.2164  0.2056  0.5292
  464MOL0     O62508   5.844   1.132   2.396  0.2233  0.0399 -0.4582
  464MOL0     C62509   5.956   1.189   2.338  0.5011 -0.2813  1.3089
  464MOL0     C62510   5.948   1.217   2.197  0.0992 -0.3299  0.7950
  464MOL0     C62511   6.060   1.275   2.142 -0.5341 -0.5547  1.0278
  464MOL0     C62512   6.180   1.308   2.207  0.3505  0.4407 -0.6735
  464MOL0     O62513   6.294   1.365   2.147 -0.3019 -0.1663 -0.3335
  464MOL0     C62514   6.307   1.398   2.009  0.1426  0.1448 -0.0730
  464MOL0     C62515   6.234   1.528   1.967  0.1465 -0.3779  0.8111
  464MOL0     C62516   6.335   1.649   1.986 -0.4258  0.9425 -0.0593
  464MOL0     C62517   6.339   1.761   1.877 -1.3749  1.0528 -0.8148
  464MOL0     C62518   6.229   1.855   1.881 -0.6840 -0.2646 -0.2403
  464MOL0     C62519   6.262   1.986   1.794  0.2422 -0.7102 -0.4154
  464MOL0     C62520   6.141   2.091   1.793  0.7804 -0.0465  0.0227
  464MOL0     C62521   6.158   2.172   1.923 -0.5835 -0.1371  0.6052
  464MOL0     N62522   6.056   2.285   1.933  0.2436  0.2723 -0.9458
  464MOL0     C62523   6.066   2.402   1.870  0.3148 -0.4197  0.9004
  464MOL0     C62524   5.951   2.465   1.895  1.1626 -1.5448  0.3299
  464MOL0     C62525   5.900   2.595   1.823 -0.4730  0.7553 -0.9249
  464MOL0     C62526   5.869   2.569   1.682  0.2244  0.5941  0.8748
  464MOL0     C62527   5.753   2.468   1.663 -0.8495  1.0723 -0.0539
  464MOL0     C62528   5.801   2.337   1.613  1.1341 -0.1416 -0.2170
  464MOL0     O62529   5.700   2.249   1.568 -0.5611  0.1085 -0.8038
  464MOL0     C62530   5.738   2.117   1.545 -0.7640 -0.0993 -0.1504
  464MOL0     C62531   5.872   2.072   1.549 -0.0358 -0.0201  0.0103
  464MOL0     C62532   5.911   1.944   1.520  0.5268  0.6659 -0.1884
  464MOL0     C62533   6.061   1.899   1.525  0.6350 -0.1065 -0.5550
  464MOL0     C62534   5.807   1.853   1.471  0.0681 -0.3726 -0.0856
  464MOL0     C62535   5.835   1.710   1.445 -0.5165 -0.5140  0.1574
  464MOL0     O62536   5.762   1.656   1.344 -0.2158  0.4874  0.2328
  464MOL0     C62537   5.822   1.540   1.297  0.5750 -0.5731  0.2673
  464MOL0     C62538   5.729   1.438   1.267 -0.2931 -0.1118 -0.0394
  464MOL0     C62539   5.769   1.325   1.207  0.8161 -0.3264 -0.7073
  464MOL0     C62540   5.899   1.300   1.170  0.3168  1.3497  0.1732
  464MOL0     O62541   5.937   1.176   1.108 -0.2652 -1.1132 -0.2575
  464MOL0     C62542   5.867   1.065   1.168  0.3837  0.3426  0.3851
  464MOL0     C62543   5.951   0.937   1.143  0.5995  0.2914  0.2465
  464MOL0     C62544   5.913   0.826   1.246  0.3643  0.4989  0.2625
  464MOL0     C62545   5.770   0.751   1.230  0.0844  0.8153 -0.0921
  464MOL0     C62546   5.747   0.652   1.349  0.3493 -0.0285  0.3469
  464MOL0     C62547   5.676   0.727   1.461  0.1101 -0.1346  0.3665
  464MOL0     C62548   5.654   0.634   1.579  0.9645 -0.4226 -0.0404
  464MOL0     C62549   5.613   0.708   1.704 -0.0556 -0.2634  0.5537
  464MOL0    Cl62550   5.441   0.771   1.670  0.5137  0.2787  0.2095
  464MOL0     C62551   5.992   1.395   1.205 -0.3660  1.0811 -0.3639
  464MOL0     C62552   5.955   1.525   1.257  0.5572 -0.7848  1.3479
  464MOL0     O62553   5.905   1.645   1.524 -0.9735 -0.4503 -0.1355
  464MOL0     C62554   5.677   1.898   1.459 -0.7546 -0.5677  0.1852
  464MOL0     C62555   5.640   2.025   1.505 -0.0644 -0.0720 -0.7792
  464MOL0     N62556   5.866   2.385   1.967 -0.0819  0.0222 -0.1502
  464MOL0     N62557   5.942   2.284   1.997  0.5176  0.3738  0.0299
  464MOL0     C62558   6.179   1.283   2.347  0.1876  0.5800 -0.0195
  464MOL0     C62559   6.070   1.228   2.404 -0.2853  0.0276 -0.1245
  464MOL0     C62560   5.694   0.953   2.428  0.2707  1.0748  0.7188
  464MOL0     C62561   5.595   1.048   2.456 -0.1032 -0.4149  0.5836
  464MOL0     C62562   5.472   1.000   2.509 -0.4669 -0.1571 -0.6728
  464MOL0     C62563   5.451   0.860   2.530  0.1387  0.8266  0.1276
  464MOL0     O62564   5.339   0.785   2.566 -0.1481  0.1533 -0.2563
  464MOL0     C62565   5.243   0.846   2.654  0.3146 -0.2560 -0.1793
  464MOL0     C62566   5.100   0.793   2.646 -0.1028 -0.5337 -0.7134
  464MOL0     C62567   5.103   0.645   2.665 -0.3095 -0.0825 -0.3081
  464MOL0     C62568   4.963   0.600   2.639  0.5705  0.2788 -0.1486
  464MOL0     C62569   4.956   0.461   2.696  0.3692 -0.7343 -0.1172
  464MOL0     C62570   4.969   0.349   2.745  0.4507 -0.9460  0.2010
  464MOL0     C62571   5.559   0.773   2.514  0.9528 -0.3790 -0.0671
  464MOL0     C62572   5.685   0.819   2.458  0.7766 -1.1181  0.1416
  464MOL0     H62573   5.861   1.185   2.141  2.1758 -0.1562 -2.7758
  464MOL0     H62574   6.035   1.298   2.038 -0.4749  1.2714  1.3933
  464MOL0     H62575   6.414   1.398   1.988  0.9642 -0.2947  3.5038
  464MOL0     H62576   6.263   1.305   1.970 -3.2026  0.5400  2.3464
  464MOL0     H62577   6.203   1.527   1.862 -0.2265 -0.6896  0.9264
  464MOL0     H62578   6.144   1.540   2.028 -0.3826 -1.2537  0.2197
  464MOL0     H62579   6.311   1.690   2.084  1.3016 -1.0540  1.3021
  464MOL0     H62580   6.435   1.606   2.000  0.3103  0.9625 -4.1078
  464MOL0     H62581   6.441   1.801   1.885 -1.6360  1.4286  0.7996
  464MOL0     H62582   6.336   1.718   1.776  0.4992 -0.6292 -0.2251
  464MOL0     H62583   6.147   1.799   1.835  0.7856 -1.2281 -1.7891
  464MOL0     H62584   6.207   1.873   1.987  2.0258  0.2366  0.3107
  464MOL0     H62585   6.352   2.036   1.830 -0.0791 -1.2681  1.2957
  464MOL0     H62586   6.280   1.955   1.691 -3.7910 -5.7853  0.0241
  464MOL0     H62587   6.134   2.153   1.704  0.5681 -3.1150 -2.2697
  464MOL0     H62588   6.050   2.031   1.799  0.8107 -0.4176 -2.2240
  464MOL0     H62589   6.256   2.222   1.925  0.6695 -2.3820 -0.7510
  464MOL0     H62590   6.160   2.106   2.010  4.5683 -1.4405 -0.1463
  464MOL0     H62591   6.142   2.438   1.802  2.4479 -0.7130  3.0189
  464MOL0     H62592   5.814   2.619   1.885 -0.5342  0.0097 -0.7039
  464MOL0     H62593   5.976   2.673   1.831  0.1928  0.2567 -2.0897
  464MOL0     H62594   5.960   2.532   1.633 -1.1403  1.8369 -2.9086
  464MOL0     H62595   5.849   2.667   1.638 -0.3472 -0.1722 -0.6599
  464MOL0     H62596   5.688   2.511   1.585  0.2135 -0.1395 -1.6917
  464MOL0     H62597   5.687   2.455   1.749  0.1394  1.0944  0.7220
  464MOL0     H62598   5.864   2.280   1.682 -1.0469  0.4808  2.4985
  464MOL0     H62599   5.865   2.364   1.529  1.8228 -1.5975 -0.1863
  464MOL0     H62600   5.952   2.139   1.579 -1.3006  0.3296  2.9041
  464MOL0     H62601   6.119   1.986   1.492 -1.5495  1.0416 -1.5989
  464MOL0     H62602   6.085   1.858   1.623 -3.6516 -0.0114  0.7695
  464MOL0     H62603   6.085   1.822   1.451 -1.1602 -0.4125 -0.8753
  464MOL0     H62604   5.626   1.448   1.298 -0.4840 -1.5563 -0.1542
  464MOL0     H62605   5.691   1.250   1.193  1.5811 -0.8590 -2.4359
  464MOL0     H62606   5.838   1.078   1.273 -3.1388 -1.4520 -0.2045
  464MOL0     H62607   5.779   1.062   1.102  1.4512 -1.4132 -1.0660
  464MOL0     H62608   5.944   0.915   1.036  1.3132 -1.2655  0.4921
  464MOL0     H62609   6.056   0.960   1.164  0.5951 -0.9107  1.7698
  464MOL0     H62610   5.916   0.873   1.345 -0.5346 -1.9165  1.4966
  464MOL0     H62611   5.987   0.746   1.249 -0.0722  0.1027  3.3087
  464MOL0     H62612   5.683   0.817   1.218  0.4990  0.9046 -3.9788
  464MOL0     H62613   5.779   0.697   1.135  2.6962  0.4329  0.3127
  464MOL0     H62614   5.842   0.604   1.374 -0.5349 -1.0206  2.0071
  464MOL0     H62615   5.679   0.571   1.320 -2.0662  1.5887  1.1136
  464MOL0     H62616   5.738   0.806   1.504  1.3695 -0.6253 -0.4950
  464MOL0     H62617   5.578   0.763   1.428 -0.7236 -0.2798  2.5162
  464MOL0     H62618   5.746   0.575   1.587  0.1671 -1.7047  0.0105
  464MOL0     H62619   5.578   0.560   1.554 -0.0307 -0.1543  1.9508
  464MOL0     H62620   5.671   0.800   1.714 -2.3541  1.3971 -0.3189
  464MOL0     H62621   5.629   0.635   1.784 -3.3554 -2.3103 -0.4325
  464MOL0     H62622   6.093   1.364   1.182 -0.6861 -1.3103  1.1909
  464MOL0     H62623   6.033   1.601   1.250 -2.0366  1.9473 -0.3815
  464MOL0     H62624   5.599   1.838   1.413 -0.7927 -0.3628 -0.0209
  464MOL0     H62625   5.535   2.047   1.491 -1.2737 -2.8839  2.5328
  464MOL0     H62626   6.270   1.317   2.396 -0.6121  0.8750  1.3186
  464MOL0     H62627   6.078   1.215   2.512 -0.0736  0.1625 -0.1245
  464MOL0     H62628   5.601   1.156   2.449 -1.3434 -0.1739  2.4418
  464MOL0     H62629   5.395   1.076   2.522  1.9444  2.2001  0.7280
  464MOL0     H62630   5.283   0.806   2.748  1.3790  0.2762 -0.3998
  464MOL0     H62631   5.239   0.955   2.654  0.0067 -0.2655 -0.1844
  464MOL0     H62632   5.077   0.820   2.543  1.3234  2.6817 -0.2905
  464MOL0     H62633   5.023   0.842   2.706 -0.3058 -1.7036  0.0308
  464MOL0     H62634   5.134   0.625   2.768 -0.0024  3.2391  0.3632
  464MOL0     H62635   5.174   0.594   2.599 -0.4634 -1.1987  0.3501
  464MOL0     H62636   4.940   0.591   2.532 -0.6992  0.8777  0.0620
  464MOL0     H62637   4.884   0.660   2.684  0.4695  0.8231 -1.0258
  464MOL0     H62638   4.978   0.249   2.783  1.4258 -1.3708 -1.0937
  464MOL0     H62639   5.547   0.666   2.528 -1.1270 -0.3833 -1.5081
  464MOL0     H62640   5.761   0.744   2.439  1.2120 -0.3850 -1.1768
  465MOL0     O62641   0.583  10.009   1.992  0.3696 -1.2262 -0.8534
  465MOL0     C62642   0.607  10.111   2.067 -0.4589 -0.3382  0.8060
  465MOL0     O62643   0.708  10.112   2.156  0.2020 -0.6135 -0.0016
  465MOL0     C62644   0.764   9.992   2.181  0.5476  1.6446  0.3092
  465MOL0     C62645   0.854   9.923   2.095 -0.5960 -0.4492  0.2023
  465MOL0     C62646   0.904   9.799   2.133 -1.3628 -0.4389  0.9268
  465MOL0     C62647   0.836   9.716   2.226 -0.2160  0.8337  0.0456
  465MOL0     O62648   0.873   9.584   2.256 -0.3430  0.3369 -0.3325
  465MOL0     C62649   0.774   9.481   2.284  0.3567  0.1898 -0.6249
  465MOL0     C62650   0.812   9.342   2.250 -0.0644  0.4493  0.7475
  465MOL0     C62651   0.866   9.320   2.108  0.0064  0.2459  0.0085
  465MOL0     C62652   0.878   9.168   2.093 -0.3843 -0.0781  0.2281
  465MOL0     C62653   0.886   9.115   1.940  0.0780 -0.3492 -0.2567
  465MOL0     C62654   1.007   9.183   1.872 -0.2748  0.1881 -0.5131
  465MOL0     C62655   1.026   9.131   1.726 -0.3236  0.8339 -0.4714
  465MOL0     C62656   1.139   9.206   1.648 -0.0343  0.1010 -0.0311
  465MOL0     N62657   1.091   9.330   1.578 -0.9316  0.1681 -0.9186
  465MOL0     C62658   1.049   9.342   1.447 -0.0665  0.9578 -1.3151
  465MOL0     C62659   1.027   9.469   1.422 -0.2533  0.2123  0.1267
  465MOL0     C62660   0.999   9.516   1.287  0.3209 -1.1184  1.5989
  465MOL0     C62661   0.873   9.454   1.237  0.1132 -0.6650  0.8209
  465MOL0     C62662   0.781   9.563   1.169 -0.2089 -0.6663 -0.2635
  465MOL0     C62663   0.733   9.675   1.254 -0.6652  0.4015 -2.0469
  465MOL0     O62664   0.642   9.751   1.179  0.0215 -0.2886 -0.6113
  465MOL0     C62665   0.569   9.849   1.249  0.2627  0.1499  0.7006
  465MOL0     C62666   0.491   9.811   1.356  0.2986 -1.3637 -1.0148
  465MOL0     C62667   0.430   9.909   1.443 -0.1463  0.1820 -0.3684
  465MOL0     C62668   0.359   9.845   1.559  0.1319 -0.3328 -0.4822
  465MOL0     C62669   0.455  10.054   1.424  0.1450  0.9090  0.0008
  465MOL0     C62670   0.384  10.155   1.501 -0.8840  0.8465  0.6630
  465MOL0     O62671   0.368  10.278   1.435 -0.5688  0.1423  0.4182
  465MOL0     C62672   0.313  10.394   1.480 -0.7055 -0.1672 -0.2349
  465MOL0     C62673   0.273  10.482   1.383  1.2842 -0.1367 -0.1968
  465MOL0     C62674   0.224  10.603   1.411  1.0851 -1.1779  0.4403
  465MOL0     C62675   0.199  10.639   1.543  0.5523  0.3474 -0.0862
  465MOL0     O62676   0.128  10.755   1.591 -0.4029 -0.2478 -0.6767
  465MOL0     C62677   0.154  10.882   1.520  0.4650  0.3219  0.3902
  465MOL0     C62678   0.280  10.945   1.574  0.0307  0.4912 -1.7948
  465MOL0     C62679   0.315  11.092   1.515 -0.2500 -0.7526  0.2212
  465MOL0     C62680   0.435  11.166   1.573  0.3643 -0.1370  0.3076
  465MOL0     C62681   0.458  11.319   1.524 -0.5731 -0.1492 -0.7178
  465MOL0     C62682   0.350  11.428   1.573 -0.5153 -0.2390 -0.3697
  465MOL0     C62683   0.326  11.438   1.724 -0.1070 -0.1005  1.1998
  465MOL0     C62684   0.259  11.569   1.765 -0.2003 -0.9568  0.4172
  465MOL0    Cl62685   0.243  11.556   1.939  0.3090 -0.2831  0.2924
  465MOL0     C62686   0.236  10.553   1.645  0.5676 -0.6294 -1.1870
  465MOL0     C62687   0.297  10.436   1.612  0.6117 -0.2533 -0.7545
  465MOL0     O62688   0.320  10.126   1.602 -0.6706  0.3825 -0.2438
  465MOL0     C62689   0.541  10.081   1.318 -0.2401 -0.4049 -0.1402
  465MOL0     C62690   0.595   9.986   1.229 -0.5859 -1.1790 -0.0062
  465MOL0     N62691   1.041   9.537   1.548 -0.8008 -0.2726  0.1456
  465MOL0     N62692   1.067   9.452   1.634 -0.5675  0.6607  0.3455
  465MOL0     C62693   0.742   9.786   2.307 -1.0340 -0.1983  0.0361
  465MOL0     C62694   0.705   9.918   2.285  0.9313  0.6244  0.7376
  465MOL0     C62695   0.537  10.237   2.051  0.2654  0.6688 -0.3633
  465MOL0     C62696   0.565  10.347   2.132 -0.2236  0.8350 -0.4625
  465MOL0     C62697   0.477  10.455   2.144  0.8936  0.2204  0.3983
  465MOL0     C62698   0.371  10.468   2.067 -0.0816  0.2474  0.8734
  465MOL0     O62699   0.292  10.582   2.064 -0.9485  0.2989  0.3323
  465MOL0     C62700   0.323  10.691   2.150  0.6152  0.0134  0.4358
  465MOL0     C62701   0.244  10.823   2.105 -0.4030  0.3350 -0.3214
  465MOL0     C62702   0.302  10.948   2.178 -0.1534 -0.2663 -0.8559
  465MOL0     C62703   0.259  10.956   2.325  0.5726 -0.4119  0.0079
  465MOL0     C62704   0.118  10.932   2.355  0.0796  0.3377 -0.2305
  465MOL0     C62705   0.004  10.908   2.350  0.7794  0.0078  0.6060
  465MOL0     C62706   0.327  10.363   1.977  0.2001 -0.0674 -0.6308
  465MOL0     C62707   0.421  10.250   1.971  0.4010 -0.7272  0.1066
  465MOL0     H62708   0.885   9.978   2.006 -1.0342 -0.8655 -0.2060
  465MOL0     H62709   0.985   9.751   2.079  0.0519 -0.3556  2.8500
  465MOL0     H62710   0.750   9.498   2.389 -0.6823 -1.4032 -0.5824
  465MOL0     H62711   0.674   9.502   2.244  0.3257  2.6449  0.5627
  465MOL0     H62712   0.879   9.299   2.324 -1.3637 -3.1964 -0.0017
  465MOL0     H62713   0.718   9.287   2.264 -1.1834  2.1735  0.4142
  465MOL0     H62714   0.808   9.349   2.020 -0.5793 -2.2600 -0.5200
  465MOL0     H62715   0.963   9.370   2.105 -0.8764  2.4508  3.0962
  465MOL0     H62716   0.970   9.133   2.141  0.3503  0.5935 -0.6610
  465MOL0     H62717   0.787   9.120   2.130 -0.4556  0.1378  0.3319
  465MOL0     H62718   0.917   9.010   1.944  1.6702  0.1292  1.1418
  465MOL0     H62719   0.802   9.132   1.873  1.0264  3.5511 -0.6871
  465MOL0     H62720   0.994   9.291   1.864  0.5579  0.3625  0.2564
  465MOL0     H62721   1.098   9.162   1.930 -1.2389  0.3470  1.1017
  465MOL0     H62722   1.068   9.030   1.731  0.3881  1.1348 -0.2222
  465MOL0     H62723   0.935   9.121   1.665 -1.4615  0.7984  1.1754
  465MOL0     H62724   1.190   9.136   1.582  0.1754 -2.3754  2.5729
  465MOL0     H62725   1.215   9.239   1.719  0.7243 -1.3112 -0.1471
  465MOL0     H62726   1.045   9.264   1.371 -2.4067  1.4749 -1.7834
  465MOL0     H62727   1.004   9.625   1.278 -0.6631 -1.1855 -0.1153
  465MOL0     H62728   1.076   9.474   1.223 -0.9028  0.5332 -1.1453
  465MOL0     H62729   0.814   9.420   1.323 -2.0127  1.5323  0.3321
  465MOL0     H62730   0.898   9.372   1.170  1.0885  0.4202 -0.1953
  465MOL0     H62731   0.694   9.507   1.132  0.6120 -1.4588 -1.0377
  465MOL0     H62732   0.826   9.612   1.083 -2.1077  2.1134  0.2035
  465MOL0     H62733   0.817   9.734   1.291 -1.6849  2.3718 -2.7349
  465MOL0     H62734   0.682   9.625   1.337 -1.5127 -1.6355 -3.6860
  465MOL0     H62735   0.481   9.704   1.368 -1.6328 -1.0951  0.1148
  465MOL0     H62736   0.381   9.880   1.660  0.4508  1.9752 -1.2779
  465MOL0     H62737   0.252   9.854   1.540 -0.1844  0.6235  1.4977
  465MOL0     H62738   0.383   9.739   1.568  1.3677  0.1454  4.4666
  465MOL0     H62739   0.274  10.445   1.281 -0.3913 -2.8764  0.6841
  465MOL0     H62740   0.191  10.670   1.332  1.5591 -0.1219  1.1077
  465MOL0     H62741   0.159  10.870   1.411 -0.3181 -0.0373  0.3858
  465MOL0     H62742   0.072  10.955   1.526  3.2402  3.6635  0.5160
  465MOL0     H62743   0.264  10.961   1.681  2.6015 -2.6138 -0.7860
  465MOL0     H62744   0.363  10.874   1.570 -0.9171 -0.6580 -1.3914
  465MOL0     H62745   0.227  11.155   1.530 -0.6645 -0.9033 -1.3277
  465MOL0     H62746   0.332  11.087   1.407  0.7156  0.5057  0.2931
  465MOL0     H62747   0.421  11.173   1.682 -1.4562 -0.4123  0.1174
  465MOL0     H62748   0.527  11.117   1.541  1.3586  3.0748 -2.2212
  465MOL0     H62749   0.471  11.330   1.416  0.1699  1.9124 -0.4594
  465MOL0     H62750   0.557  11.352   1.556 -1.2213  3.6416 -2.0735
  465MOL0     H62751   0.395  11.521   1.536  0.0227 -1.4427 -3.0338
  465MOL0     H62752   0.255  11.419   1.519 -1.2136  1.7894  0.4236
  465MOL0     H62753   0.423  11.432   1.773  2.3723  0.9427 -3.0523
  465MOL0     H62754   0.266  11.354   1.761  1.4403 -0.8694  2.0780
  465MOL0     H62755   0.163  11.601   1.722 -0.5300  0.6102  2.1429
  465MOL0     H62756   0.323  11.652   1.735 -0.3901 -0.3997  1.5077
  465MOL0     H62757   0.225  10.574   1.750 -0.1321  0.4886 -1.4655
  465MOL0     H62758   0.336  10.386   1.700 -1.9912  1.0365  1.2667
  465MOL0     H62759   0.576  10.183   1.306  1.5777 -0.9769 -0.0147
  465MOL0     H62760   0.669  10.023   1.158 -1.8964  1.0461 -0.3074
  465MOL0     H62761   0.700   9.748   2.399  1.2531  1.1522  1.7365
  465MOL0     H62762   0.622   9.951   2.347 -1.8772 -0.7575 -2.0415
  465MOL0     H62763   0.644  10.346   2.207 -3.0016 -3.7337  2.9360
  465MOL0     H62764   0.516  10.540   2.199  0.2741  1.1365 -0.5521
  465MOL0     H62765   0.289  10.657   2.248  1.5489 -1.1422  0.3850
  465MOL0     H62766   0.431  10.709   2.140  0.2252  1.7851 -1.1281
  465MOL0     H62767   0.140  10.805   2.132  0.7950 -2.2228  3.4513
  465MOL0     H62768   0.247  10.835   1.997  1.5410 -0.8117 -0.4444
  465MOL0     H62769   0.253  11.032   2.130 -0.2369 -1.4400 -2.9347
  465MOL0     H62770   0.409  10.964   2.160 -0.7186  1.9474 -2.7332
  465MOL0     H62771   0.290  11.047   2.376 -0.7971 -1.6631  3.4238
  465MOL0     H62772   0.323  10.881   2.373  0.1870 -1.0936 -0.5291
  465MOL0     H62773  -0.099  10.882   2.339  1.1652 -0.8958 -1.2459
  465MOL0     H62774   0.228  10.360   1.931 -0.2375  1.2610  0.1755
  465MOL0     H62775   0.394  10.159   1.918  1.2572 -1.3964  0.7894
  466MOL0     O62776   6.882   1.740  10.072  0.1024  0.2230 -0.1356
  466MOL0     C62777   7.003   1.757  10.065 -0.0932 -0.0223 -0.8069
  466MOL0     O62778   7.105   1.736  10.168 -0.5508 -0.0917 -0.0731
  466MOL0     C62779   7.055   1.701  10.290  0.3335 -0.5764 -0.5743
  466MOL0     C62780   6.946   1.768  10.359 -0.6790  0.3299  0.2082
  466MOL0     C62781   6.890   1.722  10.480 -0.1509  0.8935  0.0274
  466MOL0     C62782   6.947   1.608  10.551  0.2371  0.4048  0.1446
  466MOL0     O62783   6.896   1.548  10.667 -0.3650  0.0548  0.1526
  466MOL0     C62784   6.787   1.608  10.731 -0.0777 -1.2029  0.1608
  466MOL0     C62785   6.703   1.503  10.802  0.0977  0.2222 -0.0607
  466MOL0     C62786   6.570   1.556  10.856 -0.6555 -0.5160 -0.7584
  466MOL0     C62787   6.461   1.567  10.754  0.0756 -0.8544 -0.0315
  466MOL0     C62788   6.336   1.653  10.800 -0.3056 -0.2871  0.0883
  466MOL0     C62789   6.366   1.792  10.853  0.7988 -0.2963  0.5815
  466MOL0     C62790   6.246   1.893  10.840 -0.5694 -0.0922  0.1312
  466MOL0     C62791   6.264   2.035  10.882 -0.1965  0.4169 -1.0071
  466MOL0     N62792   6.140   2.112  10.897 -0.5205  1.2492  0.3402
  466MOL0     C62793   6.095   2.193  10.803 -0.7222  0.6584 -0.1260
  466MOL0     C62794   5.972   2.245  10.844 -0.1014  1.0829 -0.5052
  466MOL0     C62795   5.886   2.349  10.772  0.4456  0.8792 -0.0219
  466MOL0     C62796   5.864   2.315  10.620  0.0250  1.2074  0.0868
  466MOL0     C62797   5.761   2.416  10.554 -0.1260 -0.5591 -0.5667
  466MOL0     C62798   5.797   2.567  10.550 -0.0243 -0.6913 -0.8561
  466MOL0     O62799   5.703   2.638  10.473  0.1422  0.4336 -0.2183
  466MOL0     C62800   5.740   2.696  10.350  0.4327 -0.3176 -0.6991
  466MOL0     C62801   5.671   2.809  10.315 -0.2800 -0.4140 -0.0207
  466MOL0     C62802   5.695   2.866  10.196  0.4093 -0.4278 -1.0695
  466MOL0     C62803   5.610   2.983  10.152 -0.4901  0.2043  0.2123
  466MOL0     C62804   5.786   2.806  10.103  0.4285  0.2451 -0.2366
  466MOL0     C62805   5.799   2.854   9.962 -0.6327  1.0691  0.3778
  466MOL0     O62806   5.935   2.868   9.914  0.7767 -0.3214 -0.2729
  466MOL0     C62807   5.976   2.913   9.790 -0.0344 -0.1332 -0.5549
  466MOL0     C62808   6.096   2.983   9.788  0.3653  0.4807 -0.2773
  466MOL0     C62809   6.159   3.009   9.671  0.6422  1.5149 -0.5262
  466MOL0     C62810   6.094   2.973   9.554  0.0641 -0.5862  0.3710
  466MOL0     O62811   6.141   3.010   9.425 -0.0040 -0.1764 -0.1262
  466MOL0     C62812   6.247   3.105   9.429 -1.0797  0.5020  0.3950
  466MOL0     C62813   6.211   3.249   9.475  0.3014  0.2258  0.5544
  466MOL0     C62814   6.204   3.342   9.348  0.8769  0.9229 -0.7574
  466MOL0     C62815   6.167   3.479   9.395 -0.4173  0.1384 -0.6457
  466MOL0     C62816   6.274   3.543   9.495  0.6783  0.2857 -0.1870
  466MOL0     C62817   6.419   3.533   9.445 -0.6824  0.9826  1.2226
  466MOL0     C62818   6.511   3.582   9.557 -0.5481 -0.3838  0.7973
  466MOL0     C62819   6.660   3.621   9.519  0.3527 -0.1765  0.0692
  466MOL0    Cl62820   6.707   3.473   9.432  0.1948 -0.1665 -0.0267
  466MOL0     C62821   5.972   2.905   9.556  0.3085 -0.4993  0.6201
  466MOL0     C62822   5.903   2.893   9.676 -0.5944  0.0613  0.5809
  466MOL0     O62823   5.694   2.873   9.899  0.1131  0.3703  0.2913
  466MOL0     C62824   5.862   2.701  10.140  0.0385 -0.2609 -0.0906
  466MOL0     C62825   5.833   2.645  10.265  0.1807 -0.4177  0.5782
  466MOL0     N62826   5.956   2.184  10.968 -0.2067  0.0605 -0.4085
  466MOL0     N62827   6.052   2.095  10.985 -0.3891 -0.2569 -0.4430
  466MOL0     C62828   7.064   1.545  10.485 -0.0942 -0.2505 -1.1514
  466MOL0     C62829   7.117   1.589  10.359 -0.1615  0.2739  0.2643
  466MOL0     C62830   7.050   1.820   9.947  0.9724 -1.0032  0.1402
  466MOL0     C62831   7.169   1.885   9.935 -1.0236 -0.0924 -1.1072
  466MOL0     C62832   7.221   1.948   9.822  1.1462 -0.1039  0.4811
  466MOL0     C62833   7.147   1.947   9.702 -0.4273 -0.6120  0.6072
  466MOL0     O62834   7.197   2.014   9.591  0.4981  0.4081 -0.0022
  466MOL0     C62835   7.125   2.020   9.468 -0.5183  0.4151 -0.1918
  466MOL0     C62836   7.155   1.909   9.371 -0.6963 -0.1831 -0.2194
  466MOL0     C62837   7.311   1.888   9.367 -0.5607  0.7146 -0.7812
  466MOL0     C62838   7.386   2.003   9.298 -0.9787 -0.0382  0.4471
  466MOL0     C62839   7.499   1.966   9.215  0.8151  0.5983 -0.0327
  466MOL0     C62840   7.597   1.944   9.149  0.7675  0.2676 -0.1290
  466MOL0     C62841   7.032   1.879   9.707  1.4957  0.0867 -0.8057
  466MOL0     C62842   6.982   1.829   9.829  0.0604 -0.0940 -0.2210
  466MOL0     H62843   6.901   1.845  10.297 -0.1049 -2.3762 -3.9720
  466MOL0     H62844   6.813   1.789  10.518 -0.1241  0.0758  1.6095
  466MOL0     H62845   6.811   1.681  10.809  0.5645 -2.4606  1.1816
  466MOL0     H62846   6.722   1.653  10.656  0.9905 -1.2340 -0.8168
  466MOL0     H62847   6.679   1.425  10.728  0.6184 -0.3665  0.3771
  466MOL0     H62848   6.754   1.446  10.880 -0.0305  2.2824  1.5840
  466MOL0     H62849   6.531   1.490  10.934  1.5527  0.5639  1.3757
  466MOL0     H62850   6.583   1.654  10.904 -2.9416  0.5645 -2.1865
  466MOL0     H62851   6.499   1.622  10.668 -3.8549  1.9166 -0.2950
  466MOL0     H62852   6.424   1.470  10.722 -0.7975 -0.2931 -0.7826
  466MOL0     H62853   6.264   1.653  10.717 -0.7448  0.2371  0.4586
  466MOL0     H62854   6.295   1.598  10.885  0.2102 -2.7109 -1.1550
  466MOL0     H62855   6.394   1.796  10.959  0.2174  1.7924  0.7082
  466MOL0     H62856   6.459   1.824  10.805  0.3277  1.3093  0.6657
  466MOL0     H62857   6.217   1.886  10.735 -1.4311  0.0623  0.3514
  466MOL0     H62858   6.169   1.846  10.903 -1.9319  0.0331 -1.3714
  466MOL0     H62859   6.324   2.095  10.813  1.5128 -0.9375 -0.7605
  466MOL0     H62860   6.321   2.035  10.976  0.8966 -2.3582 -1.5747
  466MOL0     H62861   6.145   2.210  10.708  0.7292 -1.1374  0.2710
  466MOL0     H62862   5.793   2.348  10.831  1.0818 -3.3289  1.2557
  466MOL0     H62863   5.934   2.447  10.770  1.4114  0.4084 -2.4079
  466MOL0     H62864   5.837   2.212  10.596  0.7891  0.5715  1.8350
  466MOL0     H62865   5.963   2.326  10.575  1.3924 -3.3878  1.4949
  466MOL0     H62866   5.662   2.405  10.597 -0.9241  0.2313 -2.1236
  466MOL0     H62867   5.751   2.372  10.454 -1.7838 -2.6193  0.4255
  466MOL0     H62868   5.902   2.591  10.530  0.8936 -1.0668  2.6740
  466MOL0     H62869   5.792   2.605  10.653 -0.2270 -2.5357 -0.1393
  466MOL0     H62870   5.598   2.845  10.388  1.8134  1.4628  1.3098
  466MOL0     H62871   5.518   2.951  10.103  0.8230 -1.1225 -1.5074
  466MOL0     H62872   5.586   3.052  10.234  0.3503  0.7317  0.0256
  466MOL0     H62873   5.668   3.052  10.090 -2.1617  0.7129 -0.8239
  466MOL0     H62874   6.147   2.993   9.883 -1.2661 -2.0770  0.9860
  466MOL0     H62875   6.253   3.062   9.682  0.4920  1.4867  1.0265
  466MOL0     H62876   6.324   3.068   9.496 -1.5956  1.4563  1.5441
  466MOL0     H62877   6.288   3.109   9.327 -1.4464 -0.5975  0.1937
  466MOL0     H62878   6.115   3.252   9.528 -0.2076 -0.7259 -0.2745
  466MOL0     H62879   6.294   3.276   9.541 -1.4943 -0.1302  3.1402
  466MOL0     H62880   6.117   3.297   9.299  0.8847 -0.8076  0.7112
  466MOL0     H62881   6.298   3.324   9.295  2.1251 -1.8735  2.0228
  466MOL0     H62882   6.166   3.552   9.313  0.6809  1.0098  0.0870
  466MOL0     H62883   6.072   3.469   9.448 -0.5681 -2.1189 -1.2197
  466MOL0     H62884   6.264   3.485   9.587  2.9671  0.9210  0.5231
  466MOL0     H62885   6.252   3.648   9.515 -0.0288  0.2768 -0.8508
  466MOL0     H62886   6.439   3.427   9.425 -2.9995  0.6693  0.2204
  466MOL0     H62887   6.440   3.604   9.365 -0.4276  1.2652  1.5353
  466MOL0     H62888   6.508   3.516   9.644  0.4969  0.4709  1.5082
  466MOL0     H62889   6.468   3.680   9.584 -0.7106 -0.2645  0.1145
  466MOL0     H62890   6.720   3.633   9.609  0.3274  1.9560 -0.1389
  466MOL0     H62891   6.664   3.713   9.460 -1.7501  1.0130  1.6348
  466MOL0     H62892   5.927   2.876   9.462  0.2901  0.2756  0.3883
  466MOL0     H62893   5.802   2.852   9.675 -1.4756  2.1392  0.5874
  466MOL0     H62894   5.944   2.662  10.081 -0.2267 -1.7967  0.4855
  466MOL0     H62895   5.888   2.556  10.292  1.0033 -0.4441 -1.0337
  466MOL0     H62896   7.119   1.457  10.517  3.4535  0.9537 -3.3366
  466MOL0     H62897   7.186   1.528  10.302 -1.7761 -4.0262  2.3967
  466MOL0     H62898   7.219   1.903  10.030 -1.2321  1.5195 -1.2742
  466MOL0     H62899   7.322   1.985   9.808  0.9131  0.2625 -0.2961
  466MOL0     H62900   7.019   2.025   9.496  0.3533  0.9257  3.4608
  466MOL0     H62901   7.137   2.119   9.421 -3.9707  0.2672 -1.7418
  466MOL0     H62902   7.117   1.938   9.273 -0.4801  0.6773 -0.0641
  466MOL0     H62903   7.115   1.813   9.404  3.2104 -2.5771 -1.6623
  466MOL0     H62904   7.331   1.801   9.304  0.9438  3.1019 -3.8488
  466MOL0     H62905   7.349   1.857   9.465  0.2297  1.1496 -0.9420
  466MOL0     H62906   7.422   2.061   9.383  1.1417 -2.7212  1.5360
  466MOL0     H62907   7.313   2.066   9.248  0.1365  1.7910  1.0473
  466MOL0     H62908   7.687   1.934   9.092  0.5647 -2.1957 -0.1347
  466MOL0     H62909   6.962   1.873   9.625 -0.1540  1.4884  0.4365
  466MOL0     H62910   6.890   1.772   9.823 -0.5492  0.6463  1.5547
  467MOL0     O62911   8.477   5.810   3.354 -0.1680 -0.1059 -0.7141
  467MOL0     C62912   8.598   5.793   3.356 -0.4900 -0.0103  0.0917
  467MOL0     O62913   8.687   5.821   3.260 -0.4062 -0.2879 -0.5206
  467MOL0     C62914   8.632   5.889   3.155  0.3625  0.9274 -0.2668
  467MOL0     C62915   8.627   6.025   3.163 -0.1110  0.0633  1.0697
  467MOL0     C62916   8.583   6.102   3.056  0.5056 -0.5557  0.4055
  467MOL0     C62917   8.551   6.045   2.933  0.1667  0.1685  0.4622
  467MOL0     O62918   8.513   6.131   2.837  0.5192 -1.3648 -0.4105
  467MOL0     C62919   8.525   6.075   2.703  0.3395  0.1702 -0.3331
  467MOL0     C62920   8.553   6.184   2.595 -0.0520  0.2493  0.8832
  467MOL0     C62921   8.434   6.283   2.575 -1.7687  0.1671  0.6739
  467MOL0     C62922   8.497   6.423   2.533  0.4767  0.2027 -0.0851
  467MOL0     C62923   8.388   6.532   2.498 -0.4171  0.3697 -0.7893
  467MOL0     C62924   8.439   6.669   2.465  0.0439  0.2270 -0.2650
  467MOL0     C62925   8.328   6.784   2.448 -0.0143  0.0574  0.1447
  467MOL0     C62926   8.406   6.902   2.406  0.2063 -0.7131 -0.5862
  467MOL0     N62927   8.468   6.886   2.275 -0.6397 -0.3359  0.2734
  467MOL0     C62928   8.395   6.858   2.166  0.0884  0.1488 -0.1230
  467MOL0     C62929   8.491   6.851   2.069  0.7973 -0.2668 -0.1025
  467MOL0     C62930   8.449   6.815   1.926  0.0020 -0.6833 -0.3363
  467MOL0     C62931   8.413   6.941   1.835  0.2155  0.0600  0.1364
  467MOL0     C62932   8.531   7.038   1.826  0.8091 -0.4255 -0.1929
  467MOL0     C62933   8.545   7.104   1.687  0.3829 -0.6143 -0.4730
  467MOL0     O62934   8.457   7.211   1.675  0.1352 -0.3656 -0.0909
  467MOL0     C62935   8.441   7.263   1.549  1.1909 -0.4891  0.7209
  467MOL0     C62936   8.312   7.310   1.504 -0.6328 -0.4283 -0.1654
  467MOL0     C62937   8.302   7.375   1.378 -0.2653  0.0740 -0.7835
  467MOL0     C62938   8.160   7.395   1.326  0.1579 -0.0047 -0.0741
  467MOL0     C62939   8.416   7.383   1.298  0.2410 -0.2405  0.9057
  467MOL0     C62940   8.409   7.410   1.158  0.5855  0.1088 -0.5215
  467MOL0     O62941   8.507   7.357   1.074 -0.9305 -0.6849  0.1092
  467MOL0     C62942   8.484   7.365   0.938 -0.0662  0.2004  0.1370
  467MOL0     C62943   8.380   7.318   0.872  1.0341  0.6950 -1.1427
  467MOL0     C62944   8.378   7.310   0.735 -0.1583  0.0856  0.3833
  467MOL0     C62945   8.490   7.336   0.659  0.3656 -0.3118 -0.3139
  467MOL0     O62946   8.475   7.301   0.527 -0.0489 -0.0337 -0.0623
  467MOL0     C62947   8.587   7.331   0.446 -0.0283 -0.8648  0.9138
  467MOL0     C62948   8.562   7.284   0.305 -0.4830 -0.3561  0.9875
  467MOL0     C62949   8.565   7.133   0.290  0.2079 -0.2445  0.2297
  467MOL0     C62950   8.698   7.072   0.316  0.2340  0.4992  0.2439
  467MOL0     C62951   8.702   6.918   0.282  1.0326  0.4770  0.1201
  467MOL0     C62952   8.744   6.892   0.135  0.0968 -0.3142  0.3307
  467MOL0     C62953   8.867   6.969   0.085  0.3934  0.3894  0.4447
  467MOL0     C62954   8.893   6.943  -0.067  0.3517  0.2457 -1.1282
  467MOL0    Cl62955   9.030   7.052  -0.118 -0.3912 -0.6781  0.2655
  467MOL0     C62956   8.598   7.393   0.721  0.0971 -0.1387 -0.4562
  467MOL0     C62957   8.595   7.414   0.859 -0.1570  0.4937 -1.0250
  467MOL0     O62958   8.315   7.482   1.119 -0.3964 -0.3680 -0.6658
  467MOL0     C62959   8.545   7.344   1.348  0.0728 -0.0051 -0.5365
  467MOL0     C62960   8.551   7.288   1.473  0.0644 -0.1786 -0.1475
  467MOL0     N62961   8.621   6.872   2.123  0.9710 -0.1432 -0.7750
  467MOL0     N62962   8.606   6.884   2.247  0.5942 -0.3471  0.3605
  467MOL0     C62963   8.556   5.905   2.926 -0.9211 -0.2877  0.5624
  467MOL0     C62964   8.612   5.833   3.034  0.0309 -0.2434  0.0122
  467MOL0     C62965   8.645   5.706   3.473 -0.3923 -0.4986  0.0033
  467MOL0     C62966   8.784   5.687   3.503  0.5473  0.4971  0.1594
  467MOL0     C62967   8.831   5.607   3.606 -0.3159  1.0657 -0.6823
  467MOL0     C62968   8.733   5.559   3.695  0.3911  0.0552  0.0555
  467MOL0     O62969   8.762   5.484   3.806  0.2236 -0.1365 -0.0079
  467MOL0     C62970   8.883   5.401   3.815  1.0279 -0.2401 -1.0831
  467MOL0     C62971   8.855   5.307   3.927  0.8438 -0.6779  0.2482
  467MOL0     C62972   8.795   5.176   3.878 -0.8223  0.0702  0.2026
  467MOL0     C62973   8.829   5.064   3.985  0.9994  0.5951  0.3632
  467MOL0     C62974   8.729   4.954   3.986 -0.6275  0.1048  0.2977
  467MOL0     C62975   8.645   4.870   3.979  0.3037  0.2114 -0.2756
  467MOL0     C62976   8.600   5.585   3.678  0.0866 -0.0032 -0.1090
  467MOL0     C62977   8.551   5.652   3.564  1.1548 -0.3081 -0.5725
  467MOL0     H62978   8.641   6.061   3.264  3.2605  1.1179  0.3519
  467MOL0     H62979   8.564   6.208   3.068 -0.0369 -0.5825 -0.1541
  467MOL0     H62980   8.615   6.013   2.692 -0.3591 -1.8349  3.5659
  467MOL0     H62981   8.439   6.015   2.674 -0.9672  1.4770  0.7185
  467MOL0     H62982   8.635   6.249   2.627  0.4149 -0.8989  2.1296
  467MOL0     H62983   8.581   6.126   2.507  0.1937  2.8677 -0.8961
  467MOL0     H62984   8.362   6.254   2.497  0.0696  0.0057 -1.0544
  467MOL0     H62985   8.387   6.281   2.674 -0.6669 -1.0121  1.1992
  467MOL0     H62986   8.552   6.464   2.618  1.8562  0.2125 -0.9580
  467MOL0     H62987   8.565   6.405   2.449  0.2479 -0.1483 -0.1966
  467MOL0     H62988   8.318   6.498   2.421 -0.7724  0.9568 -0.7349
  467MOL0     H62989   8.327   6.550   2.587  1.6960  1.4472  0.5131
  467MOL0     H62990   8.518   6.690   2.538 -0.3167 -3.3093  1.3422
  467MOL0     H62991   8.489   6.664   2.367  2.4301  2.0692  0.7383
  467MOL0     H62992   8.248   6.758   2.378 -0.2442 -1.1524  0.8202
  467MOL0     H62993   8.280   6.791   2.546  1.0926 -1.7266  0.8758
  467MOL0     H62994   8.484   6.913   2.482 -1.4262 -2.3749  1.4312
  467MOL0     H62995   8.350   6.996   2.400 -1.8434 -1.8423  0.1409
  467MOL0     H62996   8.287   6.857   2.163 -0.1558 -2.2535  3.4758
  467MOL0     H62997   8.530   6.768   1.869  1.9286  3.8150 -1.7510
  467MOL0     H62998   8.371   6.738   1.930 -2.5347  1.7727  1.7626
  467MOL0     H62999   8.317   6.983   1.868 -0.4255 -1.4331  0.2571
  467MOL0     H63000   8.406   6.881   1.744  6.1230  0.0524 -0.6883
  467MOL0     H63001   8.625   6.984   1.845  0.4061 -0.8129  0.7681
  467MOL0     H63002   8.516   7.116   1.901 -0.0186  1.3596 -2.1353
  467MOL0     H63003   8.523   7.025   1.615 -1.5780 -0.9394  0.4194
  467MOL0     H63004   8.650   7.136   1.684  0.1237  0.1716 -2.2960
  467MOL0     H63005   8.237   7.311   1.583 -0.7217  1.1241 -0.2518
  467MOL0     H63006   8.136   7.499   1.300 -1.6064 -0.7781 -1.8101
  467MOL0     H63007   8.143   7.324   1.245 -0.2941  1.8549 -1.7108
  467MOL0     H63008   8.092   7.374   1.409  1.7466  0.6595  1.4802
  467MOL0     H63009   8.296   7.287   0.933  2.0862  2.8373  1.6208
  467MOL0     H63010   8.289   7.264   0.692 -0.3157  2.0852 -1.6609
  467MOL0     H63011   8.610   7.438   0.445  0.3574 -0.9393  1.4678
  467MOL0     H63012   8.679   7.291   0.489  0.8672 -0.5573 -0.5996
  467MOL0     H63013   8.480   7.334   0.252  0.7570  0.7115  0.0033
  467MOL0     H63014   8.641   7.327   0.242 -2.3974 -0.1638 -1.4247
  467MOL0     H63015   8.543   7.111   0.185  0.9167  2.0059 -0.4538
  467MOL0     H63016   8.487   7.087   0.352 -1.1084  5.2332  3.3500
  467MOL0     H63017   8.773   7.142   0.280 -1.2677  1.3492 -1.4076
  467MOL0     H63018   8.718   7.076   0.423  0.4160 -0.8182  0.2814
  467MOL0     H63019   8.611   6.864   0.309  1.1303  0.7578  1.0433
  467MOL0     H63020   8.785   6.878   0.342  1.5124  0.7017 -0.3841
  467MOL0     H63021   8.758   6.785   0.116  0.0803 -0.5353  1.5333
  467MOL0     H63022   8.652   6.905   0.076  1.3189  0.0736 -1.5632
  467MOL0     H63023   8.946   6.915   0.137 -0.7417 -3.5847 -1.6017
  467MOL0     H63024   8.857   7.076   0.107  0.1414  0.3397  0.5697
  467MOL0     H63025   8.795   6.946  -0.115  0.6040 -0.4664 -1.7084
  467MOL0     H63026   8.916   6.837  -0.086 -3.6524 -0.9872 -0.0752
  467MOL0     H63027   8.689   7.422   0.669  0.5094 -2.1220 -0.9071
  467MOL0     H63028   8.687   7.459   0.896 -1.3446  1.4321  0.9549
  467MOL0     H63029   8.638   7.356   1.293 -1.3864  3.2585 -2.6108
  467MOL0     H63030   8.649   7.273   1.519 -0.9043  0.8931  2.4347
  467MOL0     H63031   8.548   5.855   2.830 -2.8954  0.1464  0.4648
  467MOL0     H63032   8.642   5.729   3.025  0.2056 -0.4047  2.0628
  467MOL0     H63033   8.855   5.738   3.438  0.5219  0.4630  0.1059
  467MOL0     H63034   8.939   5.600   3.617 -0.4710 -1.2637 -0.0612
  467MOL0     H63035   8.908   5.348   3.722 -0.6377  0.6805 -2.1111
  467MOL0     H63036   8.961   5.473   3.841  1.3107 -1.6762  2.5587
  467MOL0     H63037   8.789   5.359   3.997 -0.1969  0.1171 -1.2545
  467MOL0     H63038   8.953   5.296   3.975  1.0365  2.5763  0.8375
  467MOL0     H63039   8.841   5.147   3.783 -1.0633  0.9605 -0.1886
  467MOL0     H63040   8.687   5.180   3.862 -0.8755  1.8390  0.8075
  467MOL0     H63041   8.825   5.102   4.087 -1.2104 -1.0728  1.0011
  467MOL0     H63042   8.926   5.018   3.964  1.2620  1.7495 -1.1066
  467MOL0     H63043   8.581   4.785   3.974 -0.2011  0.4876  1.1868
  467MOL0     H63044   8.526   5.557   3.753 -0.5952  2.0400  0.0386
  467MOL0     H63045   8.445   5.677   3.565  0.7842 -1.4516  3.3805
  468MOL0     O63046   7.224   0.371  10.084  0.6322  0.1168 -0.0348
  468MOL0     C63047   7.264   0.307  10.180 -0.2791 -0.2300  0.1090
  468MOL0     O63048   7.194   0.231  10.264  0.5431 -0.3646 -0.2095
  468MOL0     C63049   7.062   0.247  10.255  0.2571 -0.2750  0.4926
  468MOL0     C63050   6.996   0.377  10.259 -1.1345  0.7099 -0.0444
  468MOL0     C63051   6.860   0.388  10.264  0.6316 -1.3966 -0.1864
  468MOL0     C63052   6.779   0.278  10.266  0.2713  1.0647  0.1387
  468MOL0     O63053   6.641   0.276  10.252  0.0579 -1.2174  0.0167
  468MOL0     C63054   6.598   0.291  10.111 -0.6655 -0.4840 -0.5730
  468MOL0     C63055   6.444   0.286  10.119  0.0754 -0.2761 -0.6565
  468MOL0     C63056   6.387   0.352   9.995  0.7724  0.1215 -0.4757
  468MOL0     C63057   6.237   0.303   9.976  0.6902 -0.0511  0.0720
  468MOL0     C63058   6.170   0.341   9.847  0.0454  0.1651 -0.0101
  468MOL0     C63059   6.020   0.340   9.851  0.0020 -0.4563  0.2588
  468MOL0     C63060   5.953   0.480   9.872  0.5320  0.9933 -0.5866
  468MOL0     C63061   5.802   0.449   9.882 -0.8495  0.4628 -0.6196
  468MOL0     N63062   5.748   0.383   9.765  0.3951 -0.0296  0.0062
  468MOL0     C63063   5.711   0.443   9.652 -0.1929 -0.0319  0.2523
  468MOL0     C63064   5.657   0.349   9.569  0.6469  0.2992  1.2036
  468MOL0     C63065   5.584   0.380   9.432 -0.3332  0.4765 -0.8424
  468MOL0     C63066   5.627   0.270   9.335  0.4857 -0.5275  0.4624
  468MOL0     C63067   5.539   0.264   9.210 -0.1076 -0.4690  1.0143
  468MOL0     C63068   5.561   0.132   9.143 -0.0320  0.4649  0.4344
  468MOL0     O63069   5.683   0.129   9.068  0.3657  0.9292  0.0505
  468MOL0     C63070   5.682   0.163   8.932  0.2513 -0.3771  0.5260
  468MOL0     C63071   5.575   0.207   8.857 -0.6021 -0.1781 -0.2149
  468MOL0     C63072   5.601   0.259   8.726  0.2023 -0.0373  0.7772
  468MOL0     C63073   5.482   0.291   8.643  0.4754  0.2102  0.8986
  468MOL0     C63074   5.733   0.280   8.668 -0.7627  0.2040  0.1961
  468MOL0     C63075   5.774   0.346   8.533 -0.1948 -1.0150 -0.3727
  468MOL0     O63076   5.885   0.298   8.476 -0.2946  0.1438  0.3967
  468MOL0     C63077   5.956   0.362   8.369  0.0194  0.4798 -0.8040
  468MOL0     C63078   5.954   0.494   8.342  0.1718  1.1750  0.1166
  468MOL0     C63079   6.025   0.550   8.235  0.2174  0.4488 -0.2394
  468MOL0     C63080   6.105   0.467   8.155 -0.7266  1.3561 -0.6128
  468MOL0     O63081   6.196   0.513   8.057  0.1830  0.2977 -0.1212
  468MOL0     C63082   6.151   0.539   7.919 -0.1465 -0.1008 -0.3631
  468MOL0     C63083   6.192   0.416   7.852  0.3271  0.0417 -0.1194
  468MOL0     C63084   6.112   0.368   7.729 -0.2262 -0.2495  0.0782
  468MOL0     C63085   6.096   0.471   7.616  0.5517 -0.3023 -0.4893
  468MOL0     C63086   5.963   0.447   7.535  0.7526  0.0417 -0.1207
  468MOL0     C63087   5.968   0.323   7.444 -0.4695 -0.0582 -0.6054
  468MOL0     C63088   5.835   0.294   7.385  0.7298 -0.1401  0.0118
  468MOL0     C63089   5.818   0.147   7.335 -0.6513  0.2276 -0.2630
  468MOL0    Cl63090   5.666   0.134   7.245 -0.3525 -0.3018 -0.5754
  468MOL0     C63091   6.116   0.330   8.197  0.0208 -0.9147 -0.1693
  468MOL0     C63092   6.040   0.280   8.294 -0.1966  0.9834 -0.5223
  468MOL0     O63093   5.719   0.450   8.492  0.2206 -0.5364  0.0308
  468MOL0     C63094   5.838   0.230   8.755  0.4419 -0.6173 -0.1867
  468MOL0     C63095   5.812   0.171   8.881 -1.0004 -0.4926 -0.5159
  468MOL0     N63096   5.656   0.229   9.641 -0.1962 -0.1567 -1.3656
  468MOL0     N63097   5.714   0.257   9.758  0.9108  0.0098 -0.8414
  468MOL0     C63098   6.833   0.157  10.291 -0.0362  0.9100  0.9546
  468MOL0     C63099   6.973   0.141  10.284  0.6847  0.6785 -0.2515
  468MOL0     C63100   7.416   0.286  10.176  0.2646 -0.0691 -1.3846
  468MOL0     C63101   7.497   0.387  10.110  1.0863 -0.1857  0.2140
  468MOL0     C63102   7.634   0.390  10.101 -0.7306  0.2919 -0.0461
  468MOL0     C63103   7.704   0.274  10.160  0.4931 -0.6997  0.5320
  468MOL0     O63104   7.837   0.280  10.176 -1.4360  0.1269  0.2078
  468MOL0     C63105   7.885   0.215  10.298 -1.0639  0.7548  0.6408
  468MOL0     C63106   8.024   0.267  10.335  0.2952 -0.1644  0.0026
  468MOL0     C63107   8.142   0.228  10.239 -0.9913  0.3276  0.4426
  468MOL0     C63108   8.129   0.237  10.092 -0.1025 -0.0589  0.3051
  468MOL0     C63109   8.260   0.227  10.027 -0.6631 -0.4720  0.2419
  468MOL0     C63110   8.381   0.226   9.986  0.1362  0.3291  0.2692
  468MOL0     C63111   7.625   0.172  10.220  1.0157  0.3350  0.0674
  468MOL0     C63112   7.483   0.181  10.234  0.6516 -0.4178 -0.4439
  468MOL0     H63113   7.056   0.467  10.269 -3.3272  3.1266 -5.0716
  468MOL0     H63114   6.815   0.485  10.245  1.2040 -1.6080 -3.0465
  468MOL0     H63115   6.633   0.390  10.079 -0.0985  0.0847  1.6496
  468MOL0     H63116   6.638   0.224  10.034 -0.6592  0.0939 -1.0735
  468MOL0     H63117   6.412   0.182  10.117 -1.7731  0.2700 -1.7540
  468MOL0     H63118   6.401   0.338  10.205 -3.4255 -2.1533 -1.1116
  468MOL0     H63119   6.395   0.459  10.011  0.1172  0.1027  0.0122
  468MOL0     H63120   6.444   0.344   9.901  0.0197  2.4975 -1.1938
  468MOL0     H63121   6.230   0.196   9.997 -0.4089 -0.0030 -0.0140
  468MOL0     H63122   6.182   0.353  10.057  1.7763 -1.1452  1.5480
  468MOL0     H63123   6.207   0.430   9.795 -1.7704  0.5255 -0.7868
  468MOL0     H63124   6.189   0.259   9.777 -1.0627 -2.0922  2.2168
  468MOL0     H63125   5.992   0.302   9.752 -0.8001  0.7231  0.0111
  468MOL0     H63126   5.982   0.267   9.924 -1.3632  0.6000  0.6616
  468MOL0     H63127   5.995   0.519   9.965  3.1656  1.2700 -1.7914
  468MOL0     H63128   5.967   0.540   9.781  0.0085 -1.0304 -2.0791
  468MOL0     H63129   5.745   0.541   9.898  0.6732  1.6816 -1.8186
  468MOL0     H63130   5.787   0.380   9.966  3.4087 -0.1927 -0.1694
  468MOL0     H63131   5.698   0.550   9.642 -4.6485 -0.1995  1.8111
  468MOL0     H63132   5.475   0.372   9.433 -0.3869  1.1331 -1.1085
  468MOL0     H63133   5.615   0.475   9.387 -3.1022  1.0987 -1.6202
  468MOL0     H63134   5.616   0.173   9.384 -1.3341 -0.2874  0.6018
  468MOL0     H63135   5.730   0.291   9.304 -0.2028  1.0292 -0.9203
  468MOL0     H63136   5.551   0.336   9.128 -2.5841  1.1871  1.9814
  468MOL0     H63137   5.432   0.275   9.226 -1.0473  0.6655 -4.2988
  468MOL0     H63138   5.473   0.104   9.083 -0.1219  1.8766 -0.1230
  468MOL0     H63139   5.574   0.046   9.210 -4.7205 -0.5176  0.4457
  468MOL0     H63140   5.475   0.189   8.894 -0.1245 -0.4136  0.9966
  468MOL0     H63141   5.387   0.254   8.684 -0.5418  2.9902  1.2430
  468MOL0     H63142   5.475   0.399   8.626 -1.6079 -0.3311 -2.6985
  468MOL0     H63143   5.496   0.248   8.544  1.8035 -2.3528  2.0948
  468MOL0     H63144   5.898   0.569   8.398 -0.8586  2.4408 -2.4529
  468MOL0     H63145   6.013   0.653   8.202 -0.2167  0.6371  0.4805
  468MOL0     H63146   6.042   0.538   7.917 -0.3074  2.4612  1.7567
  468MOL0     H63147   6.194   0.629   7.872 -0.7535 -1.2726 -3.4076
  468MOL0     H63148   6.290   0.441   7.810 -0.3200 -0.5110 -2.0776
  468MOL0     H63149   6.196   0.331   7.921 -5.1879 -0.1532  0.3837
  468MOL0     H63150   6.018   0.319   7.757 -0.8849 -1.3670 -3.5720
  468MOL0     H63151   6.175   0.292   7.681  2.0042  0.8414  1.1059
  468MOL0     H63152   6.095   0.567   7.668 -0.5906  0.1567 -1.3097
  468MOL0     H63153   6.180   0.480   7.547  1.9718 -2.3795  0.8652
  468MOL0     H63154   5.947   0.539   7.477  0.0511  0.4646  0.7231
  468MOL0     H63155   5.882   0.432   7.607 -0.9171 -1.1851 -2.1599
  468MOL0     H63156   6.037   0.351   7.364  2.1443  0.6900  1.7330
  468MOL0     H63157   6.022   0.242   7.495  1.0925 -0.2035 -2.3880
  468MOL0     H63158   5.809   0.368   7.309  0.4884  0.0205  0.2475
  468MOL0     H63159   5.757   0.316   7.459  1.2635  0.4660  0.4009
  468MOL0     H63160   5.820   0.069   7.412 -1.2603 -1.9244 -2.2858
  468MOL0     H63161   5.910   0.129   7.279 -0.3792 -2.2572  0.8429
  468MOL0     H63162   6.192   0.266   8.153 -0.4171 -0.7221 -1.2155
  468MOL0     H63163   6.058   0.184   8.342  0.5289  0.7328 -1.2539
  468MOL0     H63164   5.938   0.244   8.717 -0.4866 -1.7772 -3.4240
  468MOL0     H63165   5.889   0.140   8.951 -2.3537  2.9973  2.9261
  468MOL0     H63166   6.768   0.070  10.294  1.3492 -0.4103 -2.3651
  468MOL0     H63167   7.011   0.040  10.295 -0.6069  0.3213  1.4143
  468MOL0     H63168   7.446   0.481  10.089 -0.7546 -1.0976  0.3187
  468MOL0     H63169   7.699   0.467  10.061  0.2782  0.8055  2.3863
  468MOL0     H63170   7.829   0.227  10.391 -0.9314  1.2017  0.6662
  468MOL0     H63171   7.880   0.109  10.272 -0.5890  0.7645  0.4894
  468MOL0     H63172   8.032   0.240  10.441 -4.6859  3.6761  1.7353
  468MOL0     H63173   8.027   0.376  10.326 -1.5582 -0.0065  0.8985
  468MOL0     H63174   8.186   0.138  10.284 -0.6087 -0.1168 -0.7860
  468MOL0     H63175   8.219   0.301  10.268  0.1292 -2.0887  4.4745
  468MOL0     H63176   8.092   0.339  10.074 -1.2592 -0.6150 -0.6141
  468MOL0     H63177   8.065   0.155  10.058 -1.0912 -0.0416  2.0172
  468MOL0     H63178   8.477   0.201   9.947 -0.4375 -2.4744  0.3952
  468MOL0     H63179   7.659   0.084  10.274  2.3721 -0.5031 -2.0130
  468MOL0     H63180   7.435   0.095  10.281  0.6861  0.0607  0.4839
  469MOL0     O63181   7.865   7.892   6.402  0.1684  0.4362  0.2938
  469MOL0     C63182   7.844   7.917   6.284 -0.0628  0.9686  0.3110
  469MOL0     O63183   7.748   7.866   6.200  0.4303  0.1776 -0.0582
  469MOL0     C63184   7.652   7.777   6.240 -0.1089 -0.4881 -0.4466
  469MOL0     C63185   7.581   7.796   6.366 -0.0605  0.1976 -1.0217
  469MOL0     C63186   7.493   7.706   6.406 -0.0257  0.2756 -0.1807
  469MOL0     C63187   7.447   7.603   6.316 -0.3110 -1.1449  0.1312
  469MOL0     O63188   7.367   7.509   6.367  0.3518 -0.4816 -0.0383
  469MOL0     C63189   7.444   7.384   6.375 -0.0425 -0.3796 -0.0766
  469MOL0     C63190   7.429   7.324   6.516 -0.5939 -0.5603 -0.0291
  469MOL0     C63191   7.355   7.411   6.616 -0.9081 -1.0960  1.3783
  469MOL0     C63192   7.343   7.355   6.756 -0.1201 -0.3702  0.1125
  469MOL0     C63193   7.260   7.454   6.833 -0.2950 -0.3856  0.3898
  469MOL0     C63194   7.251   7.420   6.985 -0.2462 -0.8982 -0.5470
  469MOL0     C63195   7.178   7.533   7.064 -0.0014 -0.0821  0.3023
  469MOL0     C63196   7.027   7.543   7.014 -0.6672  0.3153 -0.6443
  469MOL0     N63197   6.945   7.626   7.109 -0.4194  0.0172  0.4650
  469MOL0     C63198   6.975   7.759   7.110 -0.4219  0.5643 -0.4268
  469MOL0     C63199   6.899   7.809   7.205  0.0494  0.4515 -0.4642
  469MOL0     C63200   6.891   7.947   7.256  0.4420  0.2543  0.0517
  469MOL0     C63201   7.025   8.004   7.306  0.4438  0.4642 -0.1919
  469MOL0     C63202   6.995   8.144   7.366  0.0631  0.7610  0.3851
  469MOL0     C63203   7.106   8.178   7.460  0.6422  0.5430  0.0073
  469MOL0     O63204   7.109   8.315   7.517  0.3800  0.6444 -0.3978
  469MOL0     C63205   7.000   8.336   7.605 -0.2944 -0.1634  0.2080
  469MOL0     C63206   6.894   8.405   7.570  0.5924  0.6146 -0.3712
  469MOL0     C63207   6.784   8.441   7.654 -1.0005 -0.4859  0.0680
  469MOL0     C63208   6.680   8.522   7.593  0.3119 -1.0531 -0.8912
  469MOL0     C63209   6.777   8.387   7.784  0.3427 -0.4343  0.8608
  469MOL0     C63210   6.655   8.385   7.857  0.0277 -0.2160 -0.1363
  469MOL0     O63211   6.645   8.279   7.940 -0.0773  0.3318 -0.0632
  469MOL0     C63212   6.560   8.284   8.046  0.9978 -0.5627 -0.3995
  469MOL0     C63213   6.457   8.183   8.067  0.7787 -0.1813 -0.8749
  469MOL0     C63214   6.376   8.176   8.178 -0.2689  1.3939 -0.3283
  469MOL0     C63215   6.381   8.283   8.271 -0.4704  0.7572  0.0827
  469MOL0     O63216   6.294   8.288   8.381 -0.8889 -0.7542  0.2352
  469MOL0     C63217   6.212   8.176   8.415  0.1684  0.4337  0.7253
  469MOL0     C63218   6.154   8.208   8.549  0.2693  0.5574  0.6865
  469MOL0     C63219   6.061   8.094   8.608  0.2595  0.6388  0.4880
  469MOL0     C63220   6.049   8.111   8.756 -0.2433 -0.4678 -0.3516
  469MOL0     C63221   6.040   7.978   8.831  0.3278  0.0906 -0.4109
  469MOL0     C63222   6.059   8.005   8.978  0.5020  0.9776 -0.0906
  469MOL0     C63223   6.069   7.865   9.054  0.0765  0.2500 -0.1931
  469MOL0     C63224   6.092   7.894   9.206  0.0828  0.8044  0.5993
  469MOL0    Cl63225   6.110   7.727   9.280  0.2289 -0.3220 -0.2522
  469MOL0     C63226   6.473   8.384   8.254  0.5869  0.8707 -0.0954
  469MOL0     C63227   6.557   8.388   8.145  0.7538 -0.1740  0.1626
  469MOL0     O63228   6.585   8.487   7.866  0.3528  0.2869 -0.2623
  469MOL0     C63229   6.893   8.320   7.828  0.1412 -0.5306 -0.7881
  469MOL0     C63230   6.999   8.300   7.744 -0.5804 -0.1342  0.3983
  469MOL0     N63231   6.813   7.707   7.248  0.5082 -0.9942  0.6413
  469MOL0     N63232   6.846   7.589   7.195 -0.1276 -0.5222  0.1143
  469MOL0     C63233   7.508   7.593   6.189  0.0259  0.2341  0.2773
  469MOL0     C63234   7.599   7.686   6.149 -0.1565 -0.4587  0.2203
  469MOL0     C63235   7.949   7.997   6.215 -0.5817  0.2991 -0.7184
  469MOL0     C63236   7.929   8.041   6.087 -0.4092 -1.5149 -0.1527
  469MOL0     C63237   8.010   8.140   6.032  0.2536 -1.7021 -0.8054
  469MOL0     C63238   8.121   8.200   6.106  0.2843 -0.1226  1.0025
  469MOL0     O63239   8.208   8.286   6.044  0.4102 -0.1289 -0.5382
  469MOL0     C63240   8.338   8.241   6.024 -0.1466  0.1173 -0.2985
  469MOL0     C63241   8.389   8.294   5.895 -0.1166  0.1813 -0.8181
  469MOL0     C63242   8.533   8.358   5.911 -0.6221  0.2535  0.5058
  469MOL0     C63243   8.631   8.243   5.934  0.1442 -1.0726 -0.2968
  469MOL0     C63244   8.673   8.187   5.806 -0.1923 -1.2952 -0.3217
  469MOL0     C63245   8.704   8.131   5.704  0.6922 -0.0276  0.6550
  469MOL0     C63246   8.139   8.158   6.238  0.4948 -0.0693  0.1338
  469MOL0     C63247   8.052   8.057   6.296  0.3018  0.4661 -0.6098
  469MOL0     H63248   7.616   7.865   6.443  0.3933 -0.1151 -0.9394
  469MOL0     H63249   7.446   7.702   6.504  1.1874  0.5967  0.4332
  469MOL0     H63250   7.401   7.315   6.301 -3.1673  5.0292 -4.1030
  469MOL0     H63251   7.551   7.390   6.352  0.2616 -1.8406  0.9020
  469MOL0     H63252   7.387   7.223   6.520 -0.8809 -0.4133  3.2792
  469MOL0     H63253   7.533   7.308   6.547  0.5654  2.6067 -1.7762
  469MOL0     H63254   7.394   7.513   6.617  0.0927 -1.4015 -0.6633
  469MOL0     H63255   7.257   7.425   6.569 -0.5532  2.6193  1.4936
  469MOL0     H63256   7.299   7.257   6.776 -1.2834  0.4417  1.7673
  469MOL0     H63257   7.444   7.334   6.790 -0.9974 -4.1930  0.8483
  469MOL0     H63258   7.300   7.556   6.830 -1.4426  0.0896  0.5878
  469MOL0     H63259   7.164   7.448   6.780  0.7426 -0.4393 -1.5751
  469MOL0     H63260   7.209   7.321   7.008  0.2299 -0.9662  0.0603
  469MOL0     H63261   7.346   7.416   7.038  1.0874 -0.4244 -2.7934
  469MOL0     H63262   7.199   7.512   7.170  3.6531 -0.5810 -0.3856
  469MOL0     H63263   7.234   7.625   7.046  0.4409 -0.4186 -0.0597
  469MOL0     H63264   6.984   7.442   7.019 -1.1919  0.5752  2.5495
  469MOL0     H63265   7.038   7.589   6.916  1.9799  1.3379  0.0528
  469MOL0     H63266   7.038   7.822   7.048  0.7736  0.4148  0.6174
  469MOL0     H63267   6.841   8.008   7.181 -1.4389  0.0849  1.0935
  469MOL0     H63268   6.816   7.941   7.335  1.0185 -0.8541  0.5447
  469MOL0     H63269   7.100   8.003   7.227  1.4090  2.1579  0.6313
  469MOL0     H63270   7.051   7.937   7.389  2.4484  0.7238 -0.5468
  469MOL0     H63271   6.900   8.147   7.420  1.4552 -0.1473  3.1180
  469MOL0     H63272   6.987   8.209   7.279 -4.8384  1.6079  1.1701
  469MOL0     H63273   7.200   8.154   7.410 -1.6419 -3.8890 -2.8151
  469MOL0     H63274   7.111   8.117   7.551 -0.0401 -0.4811 -0.6258
  469MOL0     H63275   6.889   8.429   7.464  2.3662  3.7867  0.1472
  469MOL0     H63276   6.683   8.628   7.623  2.0631 -1.0043 -1.1145
  469MOL0     H63277   6.680   8.515   7.484 -0.4174 -0.1412 -0.9602
  469MOL0     H63278   6.581   8.485   7.623  0.9042 -1.6233  0.4350
  469MOL0     H63279   6.462   8.102   7.996  1.2177 -0.7669 -0.1902
  469MOL0     H63280   6.315   8.087   8.189  1.3722  0.4594  2.0300
  469MOL0     H63281   6.134   8.165   8.339  0.4703 -0.3567  0.5167
  469MOL0     H63282   6.281   8.091   8.420  1.4036  1.2582 -1.1913
  469MOL0     H63283   6.247   8.210   8.606  0.2975  2.2326  0.6259
  469MOL0     H63284   6.110   8.308   8.554 -2.7415 -0.5316 -0.9047
  469MOL0     H63285   6.118   8.004   8.585 -0.6454  0.1872 -0.0121
  469MOL0     H63286   5.964   8.101   8.558  1.7350 -0.1251 -2.6988
  469MOL0     H63287   6.140   8.157   8.797 -0.6403  0.4677 -0.4982
  469MOL0     H63288   5.964   8.174   8.785  1.7930  2.5011 -0.3542
  469MOL0     H63289   6.111   7.900   8.800  0.1626 -0.8723  1.4712
  469MOL0     H63290   5.943   7.937   8.801  1.4107 -1.6167 -1.7777
  469MOL0     H63291   6.153   8.060   8.989  1.2895 -0.3836  0.1423
  469MOL0     H63292   5.983   8.070   9.024  0.2492  1.5218 -1.2554
  469MOL0     H63293   6.148   7.809   9.003 -1.4792 -2.8616  0.5370
  469MOL0     H63294   5.988   7.796   9.029 -1.2322  1.7500 -0.2328
  469MOL0     H63295   6.007   7.950   9.245 -0.8995  0.6796 -1.2477
  469MOL0     H63296   6.183   7.950   9.227  0.0074  0.7858  0.9797
  469MOL0     H63297   6.468   8.471   8.319  1.2796  1.5852 -0.9753
  469MOL0     H63298   6.631   8.467   8.137  1.3245 -0.5717  1.3345
  469MOL0     H63299   6.899   8.297   7.935  0.6583  2.9681  0.0438
  469MOL0     H63300   7.093   8.266   7.788  0.0122  4.0662  2.9095
  469MOL0     H63301   7.490   7.501   6.134  1.8474 -0.3926  0.6397
  469MOL0     H63302   7.643   7.665   6.052 -1.0143  0.3893 -0.3682
  469MOL0     H63303   7.849   8.001   6.026  2.4002 -2.0654 -3.7905
  469MOL0     H63304   7.994   8.167   5.928  0.3215 -1.3703 -0.7317
  469MOL0     H63305   8.390   8.281   6.112  0.4253 -0.7635 -0.2221
  469MOL0     H63306   8.359   8.134   6.027  0.4547  0.2338 -0.1783
  469MOL0     H63307   8.333   8.375   5.847  1.4025 -0.1201 -3.2989
  469MOL0     H63308   8.387   8.216   5.819 -1.3927 -0.2714 -0.3505
  469MOL0     H63309   8.541   8.437   5.986 -1.3987  0.1121  0.7446
  469MOL0     H63310   8.559   8.411   5.819  0.2674  0.3383  0.8008
  469MOL0     H63311   8.590   8.164   5.997  1.9420 -1.1570  0.8274
  469MOL0     H63312   8.723   8.274   5.985 -0.2644  1.7749 -1.1114
  469MOL0     H63313   8.730   8.067   5.622  0.6794  1.8971 -0.9158
  469MOL0     H63314   8.218   8.203   6.297 -0.7007  0.8261  1.1234
  469MOL0     H63315   8.057   8.031   6.402  2.1776  1.6104 -0.3606
  470MOL0     O63316   4.567   5.444   7.103  0.5962 -0.3281  0.3923
  470MOL0     C63317   4.443   5.434   7.099 -0.5186  0.3712  0.4650
  470MOL0     O63318   4.375   5.323   7.057 -0.2855  0.1538 -0.4802
  470MOL0     C63319   4.446   5.200   7.060 -0.2263 -0.1923 -0.6351
  470MOL0     C63320   4.508   5.152   6.945  0.6488  0.4971  0.1459
  470MOL0     C63321   4.546   5.010   6.944 -0.4782 -0.4376  1.3338
  470MOL0     C63322   4.561   4.939   7.068  0.5051  0.4285  0.4714
  470MOL0     O63323   4.613   4.815   7.080 -0.5975  0.5016  0.1620
  470MOL0     C63324   4.572   4.707   7.174  0.3702 -0.0114  0.7583
  470MOL0     C63325   4.458   4.620   7.099 -0.7528 -0.4419  1.1525
  470MOL0     C63326   4.420   4.499   7.184  0.5018  0.3550 -0.6274
  470MOL0     C63327   4.350   4.381   7.109 -0.1557 -0.3688 -0.8073
  470MOL0     C63328   4.335   4.251   7.192  0.1036  0.1582  0.0771
  470MOL0     C63329   4.227   4.152   7.134  0.0961  0.1357  0.2634
  470MOL0     C63330   4.191   4.044   7.242 -0.4262 -0.7141  0.0800
  470MOL0     C63331   4.090   3.926   7.205  0.5856 -0.6645  0.3935
  470MOL0     N63332   3.956   3.979   7.167  0.1796  0.8051  0.0609
  470MOL0     C63333   3.838   3.994   7.235 -0.4454 -0.1623 -0.5576
  470MOL0     C63334   3.749   4.024   7.143  0.1923 -0.7157 -0.5851
  470MOL0     C63335   3.600   4.047   7.179  0.2243 -0.7514 -0.4663
  470MOL0     C63336   3.564   4.180   7.245 -0.8022 -0.9800  0.1433
  470MOL0     C63337   3.502   4.276   7.137 -0.0286  1.0534  0.5729
  470MOL0     C63338   3.614   4.330   7.043  0.9386  0.0452 -0.0555
  470MOL0     O63339   3.550   4.393   6.931 -0.0126 -0.1525  0.4021
  470MOL0     C63340   3.621   4.381   6.817  0.3120  0.4903 -0.0374
  470MOL0     C63341   3.703   4.491   6.788 -0.3059 -0.1060 -0.2941
  470MOL0     C63342   3.774   4.499   6.664 -0.4073 -0.1242  1.0433
  470MOL0     C63343   3.862   4.622   6.652  1.3336 -0.1208  0.2041
  470MOL0     C63344   3.794   4.384   6.586  0.3745  0.7032  0.3344
  470MOL0     C63345   3.879   4.377   6.459 -0.1188  0.1117  0.7825
  470MOL0     O63346   3.872   4.266   6.389  0.6797 -0.1391  0.5189
  470MOL0     C63347   3.950   4.252   6.281 -0.1387 -0.8937 -0.8119
  470MOL0     C63348   3.934   4.325   6.160  1.3317 -0.5653  0.5338
  470MOL0     C63349   4.027   4.318   6.052  0.3919  0.0982 -0.0017
  470MOL0     C63350   4.131   4.228   6.055  0.0299 -0.6189 -0.4984
  470MOL0     O63351   4.198   4.225   5.939  0.5730  0.5668 -0.0071
  470MOL0     C63352   4.254   4.101   5.894  0.1073  0.5739  0.4058
  470MOL0     C63353   4.336   4.128   5.773 -0.6674  0.2105  0.5269
  470MOL0     C63354   4.255   4.167   5.652  0.0207  0.2731  0.3386
  470MOL0     C63355   4.300   4.313   5.620 -0.4604  0.8549 -0.1443
  470MOL0     C63356   4.204   4.393   5.519 -0.5325 -0.8790 -0.3435
  470MOL0     C63357   4.213   4.347   5.374  0.2248 -0.7398  0.5037
  470MOL0     C63358   4.125   4.430   5.281  0.3911 -0.2840 -0.3863
  470MOL0     C63359   3.980   4.387   5.271 -0.3262 -0.1586  1.1408
  470MOL0    Cl63360   3.958   4.216   5.203 -0.3498 -0.2650  0.0667
  470MOL0     C63361   4.147   4.146   6.168  0.3197  0.2207 -0.4708
  470MOL0     C63362   4.062   4.160   6.289 -0.1042 -0.5985  0.0300
  470MOL0     O63363   3.966   4.464   6.443  0.9041  0.3122  0.6856
  470MOL0     C63364   3.719   4.273   6.620 -0.4522 -0.8520 -0.1429
  470MOL0     C63365   3.628   4.277   6.726 -0.3424  0.5091 -0.2705
  470MOL0     N63366   3.807   4.025   7.016 -0.7245  1.5706  0.2380
  470MOL0     N63367   3.931   4.002   7.037 -0.6637  0.2019  0.0035
  470MOL0     C63368   4.495   4.995   7.182  0.4917 -0.2824  0.7644
  470MOL0     C63369   4.433   5.117   7.175 -0.1705 -0.5284 -0.8628
  470MOL0     C63370   4.364   5.548   7.149 -0.0946 -0.3070 -0.1830
  470MOL0     C63371   4.427   5.678   7.172 -0.3738 -0.0045  1.0565
  470MOL0     C63372   4.344   5.789   7.210 -0.4347  1.0265 -0.4992
  470MOL0     C63373   4.208   5.776   7.242 -0.3858 -0.5398  0.7532
  470MOL0     O63374   4.136   5.882   7.286  0.4153  0.1193 -0.4009
  470MOL0     C63375   4.210   5.974   7.372  0.2555  0.2886  0.0531
  470MOL0     C63376   4.112   6.067   7.442 -0.3955  0.2744 -0.9136
  470MOL0     C63377   4.043   6.168   7.342 -0.1154 -0.0598 -0.3142
  470MOL0     C63378   4.053   6.302   7.400 -0.8987  0.0368  0.1045
  470MOL0     C63379   4.045   6.414   7.307 -0.7703  0.1205  0.8346
  470MOL0     C63380   4.048   6.518   7.249 -0.8271  0.3196  0.4805
  470MOL0     C63381   4.149   5.646   7.215  0.6251 -0.8870 -0.2266
  470MOL0     C63382   4.225   5.535   7.173 -0.5236 -0.1131 -0.7587
  470MOL0     H63383   4.499   5.218   6.859 -1.3969 -0.2840 -0.3111
  470MOL0     H63384   4.581   4.976   6.847  0.4424  3.8135 -0.0334
  470MOL0     H63385   4.658   4.640   7.182 -0.1907 -0.8574 -0.0360
  470MOL0     H63386   4.546   4.742   7.275  3.8586  0.5663  1.5908
  470MOL0     H63387   4.371   4.681   7.072 -1.9322 -2.0877  1.0985
  470MOL0     H63388   4.501   4.588   7.004  2.4383  0.8662  1.9865
  470MOL0     H63389   4.509   4.461   7.236  0.0885 -1.4585 -1.1466
  470MOL0     H63390   4.352   4.524   7.266  1.1939  0.5111 -0.1011
  470MOL0     H63391   4.253   4.411   7.070 -1.2163 -0.2428  1.6883
  470MOL0     H63392   4.412   4.353   7.024 -2.7849 -3.2323 -1.9991
  470MOL0     H63393   4.420   4.182   7.196 -2.7102 -3.6683 -0.3598
  470MOL0     H63394   4.289   4.283   7.286 -3.9017 -0.6384 -1.4602
  470MOL0     H63395   4.146   4.216   7.099 -1.1270 -2.1945 -1.5213
  470MOL0     H63396   4.265   4.102   7.044 -0.0739 -0.1333  0.3398
  470MOL0     H63397   4.292   4.007   7.264 -0.1521  0.8111  1.5968
  470MOL0     H63398   4.149   4.088   7.332  1.2189 -0.1174  0.5997
  470MOL0     H63399   4.078   3.854   7.287 -4.1501 -0.3414  0.2193
  470MOL0     H63400   4.139   3.871   7.124 -1.7936 -2.0465 -0.2068
  470MOL0     H63401   3.820   3.975   7.341 -0.7274 -0.0607 -0.5858
  470MOL0     H63402   3.544   4.037   7.086 -0.2985  4.4283 -0.9865
  470MOL0     H63403   3.576   3.965   7.247 -1.1124  2.2134  2.9435
  470MOL0     H63404   3.651   4.222   7.298 -1.0598  1.9665 -1.5366
  470MOL0     H63405   3.487   4.170   7.322 -1.1318 -0.3350 -0.0908
  470MOL0     H63406   3.451   4.363   7.179 -0.7485  0.0857  1.7377
  470MOL0     H63407   3.434   4.226   7.068 -0.0746  2.8242 -0.7605
  470MOL0     H63408   3.677   4.250   7.003  0.4387 -1.1650  1.4497
  470MOL0     H63409   3.676   4.395   7.104  0.3621  0.4526  0.0998
  470MOL0     H63410   3.713   4.585   6.841 -0.5969 -1.3184  2.0436
  470MOL0     H63411   3.869   4.646   6.546 -0.4477  0.6183  0.2364
  470MOL0     H63412   3.816   4.702   6.710 -1.0849 -0.6083 -0.9214
  470MOL0     H63413   3.964   4.597   6.686  2.5169 -0.9846 -3.5381
  470MOL0     H63414   3.844   4.381   6.139  1.8210  0.2129  0.5001
  470MOL0     H63415   4.004   4.377   5.964 -0.2372  0.5933  0.4789
  470MOL0     H63416   4.324   4.061   5.967 -2.8630 -4.9532  0.7865
  470MOL0     H63417   4.168   4.034   5.884 -0.4940  0.3731  4.8890
  470MOL0     H63418   4.408   4.205   5.800 -0.2543  0.9741 -2.3613
  470MOL0     H63419   4.394   4.036   5.759  0.6376  0.7329  2.2472
  470MOL0     H63420   4.147   4.162   5.664 -0.6729  1.6491 -3.6776
  470MOL0     H63421   4.271   4.101   5.566 -0.3727  1.1781 -0.4456
  470MOL0     H63422   4.305   4.380   5.707 -2.9386  0.0197  0.7406
  470MOL0     H63423   4.397   4.302   5.571  1.0573  0.8970  2.6098
  470MOL0     H63424   4.231   4.499   5.514  1.6077 -1.4456 -2.1083
  470MOL0     H63425   4.100   4.380   5.554 -0.4895  1.0258  0.6106
  470MOL0     H63426   4.321   4.342   5.357  0.5706 -1.0653  2.5407
  470MOL0     H63427   4.178   4.243   5.375 -1.3370 -0.2589 -0.5986
  470MOL0     H63428   4.165   4.441   5.180 -3.1442 -0.3839 -1.9351
  470MOL0     H63429   4.117   4.532   5.321 -1.5224 -0.5162 -0.0695
  470MOL0     H63430   3.927   4.469   5.222 -1.6812 -1.0737  1.0056
  470MOL0     H63431   3.936   4.384   5.371  0.4011 -0.2232  1.4676
  470MOL0     H63432   4.211   4.059   6.158  0.5583  0.5009 -1.6382
  470MOL0     H63433   4.067   4.100   6.380 -1.8935 -1.4462 -0.3917
  470MOL0     H63434   3.695   4.182   6.567 -1.1368  1.0203 -3.3164
  470MOL0     H63435   3.558   4.198   6.752 -0.0476  0.7362  1.3415
  470MOL0     H63436   4.487   4.945   7.278 -0.3216 -1.5003  0.0924
  470MOL0     H63437   4.372   5.161   7.254 -0.7280 -2.3530 -0.2233
  470MOL0     H63438   4.526   5.675   7.127  0.4420  0.7104  2.7341
  470MOL0     H63439   4.395   5.884   7.211 -1.6266  1.6812  0.0527
  470MOL0     H63440   4.267   5.922   7.449  0.6357  0.7975  0.1230
  470MOL0     H63441   4.277   6.030   7.305  2.1208 -0.9935  0.7630
  470MOL0     H63442   4.169   6.120   7.519 -1.1212 -0.3918  0.1166
  470MOL0     H63443   4.039   6.012   7.504  0.9147 -0.8569 -0.3203
  470MOL0     H63444   3.936   6.150   7.331  0.2351 -0.6630 -3.5929
  470MOL0     H63445   4.089   6.165   7.243 -0.0052  1.8220 -0.3559
  470MOL0     H63446   4.141   6.324   7.461 -1.3226 -0.7388  1.0136
  470MOL0     H63447   3.966   6.303   7.467 -0.6415 -0.0841  0.4433
  470MOL0     H63448   4.050   6.615   7.203 -2.5800  1.9166  3.4986
  470MOL0     H63449   4.042   5.653   7.232  1.0827  2.2583  2.2883
  470MOL0     H63450   4.163   5.446   7.168 -3.1604  1.5756 -0.2458
  471MOL0     O63451   8.365   4.002   5.212 -0.3278 -0.4503 -0.0397
  471MOL0     C63452   8.377   3.886   5.232 -0.2020  0.1954  0.1341
  471MOL0     O63453   8.294   3.790   5.172  0.4898  0.9963 -0.3927
  471MOL0     C63454   8.181   3.825   5.104  0.1704  0.0625  0.6658
  471MOL0     C63455   8.168   3.782   4.976 -0.4253  0.2419 -0.0353
  471MOL0     C63456   8.050   3.813   4.900  1.2339  0.3521  0.3085
  471MOL0     C63457   7.944   3.892   4.957 -0.2502 -0.5337 -0.7650
  471MOL0     O63458   7.813   3.910   4.906 -0.3121 -0.6413  0.2245
  471MOL0     C63459   7.805   3.919   4.761 -1.3605 -0.0139  0.0492
  471MOL0     C63460   7.687   3.999   4.707 -0.4582 -0.1454 -0.4575
  471MOL0     C63461   7.703   4.151   4.726  0.0835  0.8795 -1.0098
  471MOL0     C63462   7.787   4.215   4.617 -0.8381  0.2979  0.2653
  471MOL0     C63463   7.795   4.370   4.627 -0.5137  0.7790 -0.4958
  471MOL0     C63464   7.852   4.440   4.503 -1.0487 -0.4086 -0.9759
  471MOL0     C63465   7.769   4.415   4.380  0.4240  0.9590  0.1425
  471MOL0     C63466   7.774   4.527   4.278 -0.4412  0.0537  0.0479
  471MOL0     N63467   7.799   4.489   4.136  1.3160 -1.0561  0.4050
  471MOL0     C63468   7.727   4.428   4.046 -0.1135  0.3897  0.1575
  471MOL0     C63469   7.801   4.413   3.929 -0.4771 -0.2398  0.3192
  471MOL0     C63470   7.768   4.357   3.795 -0.2162  0.1537 -0.0292
  471MOL0     C63471   7.881   4.292   3.720  0.1523 -0.2112 -0.0135
  471MOL0     C63472   7.833   4.229   3.590 -0.1297 -0.4053 -0.6057
  471MOL0     C63473   7.941   4.235   3.487  0.1051  0.2891 -0.1776
  471MOL0     O63474   7.967   4.367   3.444 -0.0499 -0.6177 -0.1160
  471MOL0     C63475   8.073   4.374   3.351 -0.4525 -0.1571 -1.0069
  471MOL0     C63476   8.060   4.336   3.222  0.2883 -0.1298  0.8977
  471MOL0     C63477   8.146   4.361   3.122 -0.6314 -0.0655 -0.2801
  471MOL0     C63478   8.115   4.334   2.986  0.9255  0.4915  0.2724
  471MOL0     C63479   8.266   4.434   3.151 -0.2107  0.6479  0.3205
  471MOL0     C63480   8.379   4.470   3.052  0.5342 -0.2494 -0.6943
  471MOL0     O63481   8.361   4.474   2.925  0.4331  0.2168 -0.0822
  471MOL0     C63482   8.466   4.510   2.845 -0.0733 -0.4416 -0.8144
  471MOL0     C63483   8.517   4.411   2.757  1.0233 -0.9234 -0.1402
  471MOL0     C63484   8.630   4.437   2.685 -1.5820  0.3790 -1.0484
  471MOL0     C63485   8.709   4.553   2.708 -0.2075 -0.7448 -0.3119
  471MOL0     O63486   8.821   4.583   2.636 -0.9916 -0.5194 -0.1871
  471MOL0     C63487   8.806   4.600   2.492 -0.3907  0.0925  0.1557
  471MOL0     C63488   8.948   4.598   2.429 -0.3521  0.1886 -0.7703
  471MOL0     C63489   9.026   4.474   2.444 -0.1290 -0.1208  0.3509
  471MOL0     C63490   8.959   4.344   2.403 -0.2674  0.0652 -0.9856
  471MOL0     C63491   9.061   4.234   2.396 -0.1456  0.3624  0.2660
  471MOL0     C63492   9.166   4.211   2.523 -0.4540  0.1562  0.5036
  471MOL0     C63493   9.235   4.068   2.492 -0.3366  0.3051 -0.0697
  471MOL0     C63494   9.389   4.075   2.499 -0.1863  1.1927  0.3639
  471MOL0    Cl63495   9.450   4.201   2.611 -0.5268 -0.1777 -0.2130
  471MOL0     C63496   8.667   4.647   2.812  0.1689  0.1511  0.2469
  471MOL0     C63497   8.545   4.623   2.874 -0.0452  0.2292 -0.0390
  471MOL0     O63498   8.488   4.489   3.108  0.8560  0.6422  0.7432
  471MOL0     C63499   8.291   4.473   3.285 -0.6155  0.1981  0.3073
  471MOL0     C63500   8.198   4.441   3.383  0.5663 -0.1924 -0.5213
  471MOL0     N63501   7.924   4.477   3.962  0.0853 -0.0355 -0.7418
  471MOL0     N63502   7.917   4.514   4.083  0.1093  0.1603 -0.1874
  471MOL0     C63503   7.962   3.921   5.097  0.7516 -0.2253 -0.9427
  471MOL0     C63504   8.080   3.899   5.167  0.3333 -0.0308  1.0137
  471MOL0     C63505   8.491   3.837   5.310 -0.5079  0.3168 -0.2398
  471MOL0     C63506   8.582   3.925   5.378 -0.1139  0.2425  0.4340
  471MOL0     C63507   8.683   3.881   5.464  0.1980  0.5617  0.1646
  471MOL0     C63508   8.713   3.746   5.470 -0.1213  0.4731 -0.2542
  471MOL0     O63509   8.822   3.710   5.559 -1.1463 -0.2409  0.4107
  471MOL0     C63510   8.847   3.581   5.615 -0.3378  0.0800 -0.9615
  471MOL0     C63511   8.898   3.604   5.765  0.4906 -0.0754  0.2094
  471MOL0     C63512   9.042   3.673   5.782  0.7640  0.0259 -0.5840
  471MOL0     C63513   9.144   3.569   5.731 -0.2086 -0.4938  0.2189
  471MOL0     C63514   9.163   3.456   5.821 -0.0397  0.6275  0.1479
  471MOL0     C63515   9.178   3.351   5.879  0.2216  0.1775 -0.1233
  471MOL0     C63516   8.632   3.652   5.399  0.1398 -0.2216 -0.9901
  471MOL0     C63517   8.524   3.706   5.328 -0.0273  0.2029  0.3145
  471MOL0     H63518   8.243   3.715   4.936 -1.1640 -0.7172  0.1478
  471MOL0     H63519   8.038   3.784   4.795 -0.6361 -1.6969  0.9973
  471MOL0     H63520   7.893   3.977   4.730 -2.0776  1.1875  0.2381
  471MOL0     H63521   7.816   3.823   4.710  1.6787 -0.7352  1.7932
  471MOL0     H63522   7.666   3.988   4.601 -0.7785 -2.2589 -0.2192
  471MOL0     H63523   7.593   3.966   4.753 -0.9576 -0.4217 -1.6417
  471MOL0     H63524   7.606   4.202   4.718 -0.4495  0.2916  1.0158
  471MOL0     H63525   7.742   4.170   4.827 -0.3275  1.1291 -0.8950
  471MOL0     H63526   7.891   4.182   4.624 -0.5477  0.8879 -1.0013
  471MOL0     H63527   7.753   4.176   4.520  1.5382 -2.2412  0.3270
  471MOL0     H63528   7.691   4.399   4.649 -1.0198  0.4902 -2.3490
  471MOL0     H63529   7.851   4.395   4.718 -0.3826 -0.5811 -0.1869
  471MOL0     H63530   7.869   4.545   4.530  4.2902 -1.1280 -0.5293
  471MOL0     H63531   7.956   4.415   4.479 -0.7698 -0.3010  0.0588
  471MOL0     H63532   7.804   4.328   4.323 -1.8701 -0.7520  1.1641
  471MOL0     H63533   7.664   4.392   4.400  0.1160 -0.1247 -2.2602
  471MOL0     H63534   7.845   4.602   4.315  1.9516 -0.7026 -2.6192
  471MOL0     H63535   7.678   4.580   4.276  0.0373  0.9384 -1.8425
  471MOL0     H63536   7.622   4.402   4.054 -0.0476  0.2609  0.6419
  471MOL0     H63537   7.672   4.303   3.797  0.7071 -1.5370  2.1178
  471MOL0     H63538   7.748   4.448   3.737 -0.5605  0.1068  0.0100
  471MOL0     H63539   7.922   4.208   3.777  1.2592 -1.0312 -1.9134
  471MOL0     H63540   7.961   4.363   3.700  0.8699 -0.5016  1.6152
  471MOL0     H63541   7.746   4.282   3.551  1.4232  3.8751  1.1957
  471MOL0     H63542   7.809   4.124   3.613  1.2479 -0.0267  3.0938
  471MOL0     H63543   7.917   4.177   3.398  1.2548 -0.3742 -0.0849
  471MOL0     H63544   8.035   4.189   3.520 -0.1144  1.1041  1.7447
  471MOL0     H63545   7.971   4.280   3.197  1.7085 -2.8992  1.6694
  471MOL0     H63546   8.195   4.278   2.936  0.1582  0.3644 -0.8568
  471MOL0     H63547   8.018   4.284   2.994 -2.3906  6.1414  0.5935
  471MOL0     H63548   8.089   4.427   2.935  0.7749  1.3235  1.8049
  471MOL0     H63549   8.457   4.323   2.739 -0.9946  0.3957 -0.1115
  471MOL0     H63550   8.681   4.360   2.627 -0.3789 -0.4830  1.0282
  471MOL0     H63551   8.755   4.510   2.457 -0.3703  0.6151 -1.2647
  471MOL0     H63552   8.740   4.679   2.456  2.0450  0.6735 -3.6675
  471MOL0     H63553   8.936   4.624   2.323  2.5156 -0.0792 -1.2133
  471MOL0     H63554   9.002   4.673   2.488 -0.7114 -0.4625  0.4251
  471MOL0     H63555   9.066   4.459   2.545 -0.7984 -0.7512  0.5344
  471MOL0     H63556   9.112   4.471   2.377  1.3840 -0.0505  2.1994
  471MOL0     H63557   8.892   4.321   2.486 -0.3685  2.5784 -0.2844
  471MOL0     H63558   8.905   4.372   2.312  0.9570 -1.3945 -2.2165
  471MOL0     H63559   9.121   4.256   2.307  0.2814 -0.9391  0.2044
  471MOL0     H63560   9.004   4.142   2.383 -2.1636  1.0826  3.0863
  471MOL0     H63561   9.239   4.292   2.530 -1.0981  0.5838  3.0230
  471MOL0     H63562   9.113   4.209   2.618 -0.2657 -1.1500  0.5993
  471MOL0     H63563   9.205   4.023   2.397 -0.1513 -0.6890  0.3293
  471MOL0     H63564   9.197   4.006   2.573  2.1077 -1.5788 -0.2662
  471MOL0     H63565   9.408   4.091   2.392  0.3569  4.2696  0.8162
  471MOL0     H63566   9.430   3.976   2.520 -0.3994  0.2513 -3.0503
  471MOL0     H63567   8.721   4.740   2.821 -1.5292  0.9864  4.3927
  471MOL0     H63568   8.521   4.685   2.960  1.2063 -1.9697  2.0058
  471MOL0     H63569   8.380   4.524   3.317  1.7123 -2.4201 -1.4672
  471MOL0     H63570   8.204   4.463   3.489 -1.7541 -2.2814  0.1316
  471MOL0     H63571   7.877   3.970   5.145  1.3941  0.7544 -0.7772
  471MOL0     H63572   8.089   3.918   5.273  1.1115 -2.1272  1.3758
  471MOL0     H63573   8.554   4.029   5.367  1.9641  0.6785 -1.3341
  471MOL0     H63574   8.730   3.949   5.535 -2.2903  0.9243  1.5817
  471MOL0     H63575   8.757   3.520   5.610 -0.9976  1.1140 -3.1944
  471MOL0     H63576   8.928   3.528   5.564  1.3108  0.9981  0.5803
  471MOL0     H63577   8.898   3.504   5.809  0.6400  0.1501  0.7300
  471MOL0     H63578   8.830   3.663   5.828 -1.7024 -2.7433  0.5568
  471MOL0     H63579   9.048   3.696   5.889 -0.3584 -1.5062 -0.1678
  471MOL0     H63580   9.050   3.764   5.721  0.3165 -0.9280 -2.1387
  471MOL0     H63581   9.240   3.621   5.722 -1.5107  2.0396 -0.0695
  471MOL0     H63582   9.126   3.532   5.629  1.2013  2.1980 -1.1211
  471MOL0     H63583   9.186   3.256   5.927 -2.2234  0.2205  0.5382
  471MOL0     H63584   8.643   3.544   5.401 -3.0243 -0.6911 -2.2170
  471MOL0     H63585   8.455   3.632   5.289 -1.2078  0.7464  1.3103
  472MOL0     O63586   5.331  11.159   4.277 -0.0103  0.0562 -0.1811
  472MOL0     C63587   5.246  11.220   4.206 -0.2189 -0.2918 -0.5911
  472MOL0     O63588   5.136  11.276   4.260 -0.5834 -0.7133  0.1361
  472MOL0     C63589   5.111  11.255   4.393  0.6855  0.1992  1.2985
  472MOL0     C63590   5.177  11.317   4.495 -0.5281  0.3984 -0.4047
  472MOL0     C63591   5.164  11.287   4.632  0.4594  0.7255  0.2371
  472MOL0     C63592   5.067  11.180   4.670 -0.8572 -0.3750  0.2716
  472MOL0     O63593   5.040  11.120   4.792  0.2100  0.8610 -0.7131
  472MOL0     C63594   5.149  11.089   4.867 -0.7755 -1.3890 -0.2946
  472MOL0     C63595   5.125  10.975   4.969 -0.1175 -0.0518 -0.0065
  472MOL0     C63596   5.052  11.026   5.100 -0.9402  0.4180 -0.4385
  472MOL0     C63597   4.894  11.048   5.102 -0.6311 -0.6781 -0.0039
  472MOL0     C63598   4.810  10.919   5.145 -0.3292  0.4219 -0.1524
  472MOL0     C63599   4.837  10.803   5.043 -0.4405  0.7382 -0.2956
  472MOL0     C63600   4.772  10.824   4.909  0.0433 -1.1654  0.7637
  472MOL0     C63601   4.639  10.752   4.870  1.4601 -0.1349  0.8288
  472MOL0     N63602   4.523  10.758   4.969  0.0322 -0.3272 -0.5206
  472MOL0     C63603   4.476  10.666   5.053  0.2742 -0.2489  0.6823
  472MOL0     C63604   4.408  10.731   5.148  0.1502  0.1050 -0.2307
  472MOL0     C63605   4.345  10.671   5.262 -0.6141  1.1540 -0.6533
  472MOL0     C63606   4.203  10.617   5.223 -0.6143  0.1483 -0.2573
  472MOL0     C63607   4.133  10.532   5.332 -0.7624  0.2752  0.2477
  472MOL0     C63608   4.101  10.584   5.471  0.5451 -0.3691  0.4672
  472MOL0     O63609   4.089  10.471   5.552 -0.1110 -0.3279  0.3722
  472MOL0     C63610   4.049  10.472   5.685  0.3236 -0.1547 -1.0244
  472MOL0     C63611   4.049  10.355   5.756 -0.8537  0.0661  0.5274
  472MOL0     C63612   4.007  10.350   5.890 -0.1154  0.9260  0.8158
  472MOL0     C63613   4.021  10.203   5.944 -0.6576  0.7824 -0.9795
  472MOL0     C63614   3.981  10.465   5.967 -0.5302 -1.2152  0.9538
  472MOL0     C63615   3.938  10.462   6.109  0.3171  0.4656 -0.1292
  472MOL0     O63616   3.935  10.576   6.181 -0.0032  0.2113 -0.6587
  472MOL0     C63617   3.874  10.569   6.301  0.7948  0.4062  0.9656
  472MOL0     C63618   3.750  10.634   6.308 -0.1812  0.5164  1.5098
  472MOL0     C63619   3.682  10.635   6.425 -0.6689 -0.2571  0.9354
  472MOL0     C63620   3.730  10.557   6.533 -0.6552 -0.4241  0.1326
  472MOL0     O63621   3.648  10.541   6.642 -0.1601 -0.3898 -0.4263
  472MOL0     C63622   3.503  10.580   6.637 -0.7807  0.9420 -1.5822
  472MOL0     C63623   3.435  10.523   6.755 -0.1058  0.4596 -0.8106
  472MOL0     C63624   3.317  10.611   6.803 -0.6624 -0.4607 -0.2826
  472MOL0     C63625   3.196  10.530   6.840 -0.1896  0.2036 -0.9529
  472MOL0     C63626   3.087  10.604   6.915 -0.5380 -0.5917 -0.2486
  472MOL0     C63627   2.975  10.502   6.951  1.2564  0.3653  0.7119
  472MOL0     C63628   2.832  10.553   6.965  0.4001 -1.1960  0.0186
  472MOL0     C63629   2.757  10.478   7.071 -0.0666  0.0629  0.6076
  472MOL0    Cl63630   2.592  10.494   7.032 -0.4122  0.1728  0.1653
  472MOL0     C63631   3.852  10.489   6.528 -0.0019  0.8426 -0.2589
  472MOL0     C63632   3.932  10.496   6.411 -1.1223  0.7175 -0.1356
  472MOL0     O63633   3.896  10.358   6.148  0.3408  0.0093  1.4156
  472MOL0     C63634   3.992  10.589   5.897  0.6673  0.5510  0.6560
  472MOL0     C63635   4.028  10.584   5.762  0.2090  0.1565 -0.6004
  472MOL0     N63636   4.398  10.862   5.116 -0.2673  0.7916  0.1073
  472MOL0     N63637   4.473  10.883   5.003  0.0936 -0.7746  0.2046
  472MOL0     C63638   5.002  11.119   4.563  0.0740  0.5791  0.7446
  472MOL0     C63639   5.021  11.153   4.430  0.5214 -0.0664 -0.2731
  472MOL0     C63640   5.267  11.239   4.055 -0.3683  0.6948 -1.2081
  472MOL0     C63641   5.341  11.143   3.990  0.9627 -0.6394  0.0285
  472MOL0     C63642   5.366  11.170   3.850 -0.9219  0.2614 -0.2359
  472MOL0     C63643   5.296  11.275   3.779 -0.8383  0.1095  0.0079
  472MOL0     O63644   5.306  11.297   3.638  0.3439  0.5827  0.7937
  472MOL0     C63645   5.391  11.214   3.561  0.3659 -0.3903 -0.8454
  472MOL0     C63646   5.339  11.072   3.532 -0.4515  0.3889  1.2104
  472MOL0     C63647   5.281  11.061   3.389 -0.4228  0.2317 -0.0074
  472MOL0     C63648   5.211  10.925   3.369 -0.4820  0.5208  0.5246
  472MOL0     C63649   5.155  10.915   3.232 -0.2932 -0.5706 -0.2376
  472MOL0     C63650   5.144  10.927   3.115 -2.1720 -0.3878 -0.3344
  472MOL0     C63651   5.224  11.372   3.855 -0.0638 -0.0549  0.2162
  472MOL0     C63652   5.207  11.345   3.989 -0.2383 -0.4572  1.0755
  472MOL0     H63653   5.245  11.396   4.465 -3.3182  2.8605 -0.6047
  472MOL0     H63654   5.226  11.327   4.712 -0.3947  2.4884  0.0705
  472MOL0     H63655   5.230  11.056   4.801 -1.5835  1.3109 -2.8821
  472MOL0     H63656   5.174  11.183   4.918 -1.7823 -0.8408 -0.7700
  472MOL0     H63657   5.078  10.894   4.912 -0.1573  0.3054 -0.4897
  472MOL0     H63658   5.216  10.931   5.010  1.4826 -0.7525 -3.8702
  472MOL0     H63659   5.066  10.947   5.175  1.1391  1.1586  0.0041
  472MOL0     H63660   5.097  11.113   5.148 -4.5406  1.1157  2.0039
  472MOL0     H63661   4.876  11.124   5.179 -2.0442 -1.3186  0.3229
  472MOL0     H63662   4.864  11.085   5.003  1.6479 -0.3944 -0.6486
  472MOL0     H63663   4.848  10.879   5.240 -0.7286 -1.7974 -0.8646
  472MOL0     H63664   4.708  10.947   5.174  0.1090  1.3120  0.5905
  472MOL0     H63665   4.943  10.776   5.037 -0.6127 -1.4550  3.1951
  472MOL0     H63666   4.792  10.710   5.081 -1.1012  1.2711  0.2520
  472MOL0     H63667   4.747  10.931   4.904 -1.6139 -1.5173  1.1072
  472MOL0     H63668   4.850  10.801   4.835  1.0461  0.0775  1.3824
  472MOL0     H63669   4.670  10.648   4.851  2.5822 -0.1513  2.5326
  472MOL0     H63670   4.600  10.792   4.776  0.3321 -0.3074  1.1995
  472MOL0     H63671   4.484  10.558   5.062 -2.9528 -0.8063 -1.6777
  472MOL0     H63672   4.399  10.583   5.299 -1.2683  1.5793  1.5066
  472MOL0     H63673   4.330  10.747   5.339 -0.8292  1.6515 -1.1814
  472MOL0     H63674   4.220  10.550   5.138  2.2402 -0.3050  0.5737
  472MOL0     H63675   4.134  10.701   5.206 -3.3351 -1.8578  0.2346
  472MOL0     H63676   4.195  10.443   5.343 -1.7016 -0.6101 -1.2423
  472MOL0     H63677   4.038  10.500   5.287 -0.6554 -2.0488  1.4894
  472MOL0     H63678   4.015  10.652   5.468 -0.1428 -1.2612 -1.7464
  472MOL0     H63679   4.194  10.637   5.493  0.7354 -0.6364  0.3106
  472MOL0     H63680   4.083  10.266   5.703  2.0901  2.1347 -1.3248
  472MOL0     H63681   4.079  10.145   5.872  2.6724  2.6550 -0.0225
  472MOL0     H63682   4.069  10.205   6.043 -2.1766 -0.6481 -0.1771
  472MOL0     H63683   3.925  10.150   5.948 -0.4550  0.4709  1.5378
  472MOL0     H63684   3.707  10.683   6.220 -0.5126  0.2742  1.5345
  472MOL0     H63685   3.589  10.690   6.432 -0.4354  0.4738 -1.0029
  472MOL0     H63686   3.510  10.689   6.644 -1.1266  0.9738 -1.7428
  472MOL0     H63687   3.448  10.544   6.551 -1.3248  2.4751 -1.9112
  472MOL0     H63688   3.407  10.421   6.731  0.7586 -0.4199  1.6146
  472MOL0     H63689   3.508  10.521   6.837 -1.0401  1.3155  0.0730
  472MOL0     H63690   3.284  10.677   6.723 -0.5777 -0.7273 -0.5360
  472MOL0     H63691   3.361  10.676   6.880  3.0756  1.1365 -3.4116
  472MOL0     H63692   3.155  10.481   6.751  0.2756  0.7054 -1.4536
  472MOL0     H63693   3.223  10.451   6.911  0.7315  0.5346 -0.9232
  472MOL0     H63694   3.047  10.679   6.847 -0.5330 -1.2604 -0.9994
  472MOL0     H63695   3.118  10.653   7.008  0.8611  1.9584 -1.9480
  472MOL0     H63696   2.970  10.428   6.871  0.8317 -0.1281  1.1891
  472MOL0     H63697   3.011  10.446   7.038  5.9567 -3.2536 -2.9636
  472MOL0     H63698   2.795  10.518   6.868  2.0598  0.9280 -1.4673
  472MOL0     H63699   2.827  10.662   6.974  2.0173 -0.9897 -1.0598
  472MOL0     H63700   2.791  10.515   7.168  2.7198  1.8399 -0.8995
  472MOL0     H63701   2.783  10.373   7.060 -0.2766  0.0012  0.6787
  472MOL0     H63702   3.889  10.427   6.609 -0.3729  2.2814  1.0589
  472MOL0     H63703   4.026  10.442   6.402 -0.1076  2.0855  1.7022
  472MOL0     H63704   3.962  10.671   5.962  1.0794  1.2512 -0.0316
  472MOL0     H63705   4.048  10.681   5.717  5.8490 -0.3859  0.1231
  472MOL0     H63706   4.943  11.031   4.585  2.0001 -2.2307 -3.8722
  472MOL0     H63707   4.976  11.104   4.343  0.0841 -0.4832  0.1825
  472MOL0     H63708   5.383  11.059   4.043  1.9049  0.2401  0.7146
  472MOL0     H63709   5.438  11.098   3.811 -1.2108 -1.3825  2.0875
  472MOL0     H63710   5.427  11.275   3.478  2.3535 -0.1013  0.1643
  472MOL0     H63711   5.484  11.199   3.616 -1.3184 -4.3873  1.3721
  472MOL0     H63712   5.263  11.036   3.602 -0.1951  1.3787  2.0219
  472MOL0     H63713   5.428  11.009   3.537  2.6223  3.9855 -2.0906
  472MOL0     H63714   5.361  11.067   3.314 -0.3561  2.4238  0.1676
  472MOL0     H63715   5.205  11.138   3.376 -1.0350 -0.2663  0.5677
  472MOL0     H63716   5.135  10.914   3.448 -0.7680  2.4716  0.5564
  472MOL0     H63717   5.289  10.848   3.371 -0.6100  0.3861  2.2540
  472MOL0     H63718   5.152  10.932   3.008  3.5918  1.0473 -0.1179
  472MOL0     H63719   5.179  11.443   3.786 -1.0571 -0.9258 -0.0577
  472MOL0     H63720   5.146  11.409   4.053  2.3942  2.8553  0.5778
  473MOL0     O63721   2.430   3.176   1.184  0.0652 -1.0243 -1.2230
  473MOL0     C63722   2.458   3.066   1.138  0.0377 -0.6046 -0.2778
  473MOL0     O63723   2.534   3.042   1.020 -0.6637 -0.2846 -0.2957
  473MOL0     C63724   2.536   3.151   0.926  1.1465  0.7516  0.6406
  473MOL0     C63725   2.649   3.234   0.910 -0.3617 -0.7099 -0.6651
  473MOL0     C63726   2.644   3.351   0.824 -0.4400  0.2703  0.4683
  473MOL0     C63727   2.525   3.375   0.758  0.4551 -0.3928 -0.9860
  473MOL0     O63728   2.512   3.485   0.675 -0.1681  0.1824 -0.0663
  473MOL0     C63729   2.618   3.534   0.600  0.2146  0.4125  1.2537
  473MOL0     C63730   2.567   3.596   0.470  0.2212 -0.3011 -0.4138
  473MOL0     C63731   2.680   3.649   0.385 -0.0527  0.3960 -0.7399
  473MOL0     C63732   2.624   3.774   0.294 -0.0060  0.4114  0.3170
  473MOL0     C63733   2.737   3.843   0.226  0.0217 -0.0876 -0.0226
  473MOL0     C63734   2.700   3.974   0.175 -0.4222  0.3777  0.0836
  473MOL0     C63735   2.819   4.045   0.097 -0.1518  0.2759 -0.0762
  473MOL0     C63736   2.766   4.163   0.019 -0.1132 -0.5336 -0.0808
  473MOL0     N63737   2.874   4.226  -0.060  0.0910  1.0890  0.1328
  473MOL0     C63738   2.877   4.205  -0.197 -0.5797  0.7031  0.4200
  473MOL0     C63739   2.971   4.289  -0.237  0.7638  0.4185  0.1287
  473MOL0     C63740   3.018   4.298  -0.379 -0.1340  0.7115  0.0312
  473MOL0     C63741   2.905   4.311  -0.484 -0.7444  0.0991  0.1509
  473MOL0     C63742   2.954   4.333  -0.625  0.6865  0.5941 -0.6565
  473MOL0     C63743   3.035   4.208  -0.684  0.0653  0.2013 -1.0393
  473MOL0     O63744   2.966   4.085  -0.675 -0.2002 -0.1839  0.1737
  473MOL0     C63745   2.923   4.032  -0.799  0.1067 -0.3647  0.5681
  473MOL0     C63746   3.003   3.950  -0.879  0.5557  0.7135 -0.4745
  473MOL0     C63747   2.966   3.896  -1.002  0.6758 -0.3674  0.2041
  473MOL0     C63748   3.065   3.798  -1.065  0.6078  0.2432 -0.2786
  473MOL0     C63749   2.844   3.938  -1.057 -0.7120 -0.7223 -0.2501
  473MOL0     C63750   2.778   3.889  -1.191 -0.4759 -0.8810  0.3145
  473MOL0     O63751   2.858   3.808  -1.265  0.0035  0.8140 -0.8263
  473MOL0     C63752   2.805   3.689  -1.316 -0.2497  0.8535 -0.5526
  473MOL0     C63753   2.675   3.641  -1.324 -0.7885  0.1374  0.5691
  473MOL0     C63754   2.637   3.515  -1.384 -0.0682 -0.6492  0.1084
  473MOL0     C63755   2.737   3.437  -1.442 -0.7112  0.2976  0.1148
  473MOL0     O63756   2.723   3.315  -1.500 -0.1927 -0.6970  0.6799
  473MOL0     C63757   2.653   3.223  -1.419 -0.5942 -0.1545  0.8640
  473MOL0     C63758   2.664   3.085  -1.491 -0.3079 -0.0406 -0.3501
  473MOL0     C63759   2.581   2.979  -1.418 -0.4552 -0.0918 -0.7680
  473MOL0     C63760   2.631   2.836  -1.451 -0.2603 -0.1723  0.5318
  473MOL0     C63761   2.539   2.724  -1.397 -0.0170 -0.4280 -0.2205
  473MOL0     C63762   2.573   2.600  -1.470 -0.4375 -0.4882 -0.0198
  473MOL0     C63763   2.480   2.478  -1.438 -0.0255 -0.1640 -0.6000
  473MOL0     C63764   2.400   2.447  -1.303  0.4626  0.8472  0.6918
  473MOL0    Cl63765   2.303   2.300  -1.335  0.3112 -0.5981  0.4934
  473MOL0     C63766   2.871   3.486  -1.436  1.1044 -0.7353  0.1109
  473MOL0     C63767   2.904   3.601  -1.368 -0.5134  0.1955 -0.5979
  473MOL0     O63768   2.668   3.937  -1.224  0.1346  0.3967 -0.3342
  473MOL0     C63769   2.761   4.027  -0.987 -0.8628  0.9364  0.4618
  473MOL0     C63770   2.797   4.068  -0.859 -0.4449 -0.0650 -0.5065
  473MOL0     N63771   3.027   4.362  -0.135 -0.1227  0.4343  0.1993
  473MOL0     N63772   2.977   4.307  -0.025  0.0450 -0.0693  0.5336
  473MOL0     C63773   2.417   3.287   0.774  0.2953 -1.2039  0.1565
  473MOL0     C63774   2.421   3.182   0.856 -0.1468  0.3574 -0.2862
  473MOL0     C63775   2.424   2.951   1.212 -0.3701  0.5259 -0.7468
  473MOL0     C63776   2.355   2.960   1.337 -0.8965 -0.2810  0.4359
  473MOL0     C63777   2.321   2.840   1.416 -0.0257 -0.4199 -0.7163
  473MOL0     C63778   2.358   2.719   1.369 -0.1536 -0.3453  0.0138
  473MOL0     O63779   2.288   2.625   1.443 -0.0859  0.1369 -0.2178
  473MOL0     C63780   2.291   2.487   1.396 -0.0650  0.3941 -0.1633
  473MOL0     C63781   2.204   2.393   1.476 -0.2253  0.2522  0.3766
  473MOL0     C63782   2.049   2.388   1.456 -0.0543  0.4179  0.0711
  473MOL0     C63783   1.982   2.501   1.530 -1.1036 -0.9089  0.4015
  473MOL0     C63784   1.841   2.469   1.538  0.2591 -0.1069 -0.4114
  473MOL0     C63785   1.722   2.448   1.563 -0.7759 -0.1428 -0.1823
  473MOL0     C63786   2.420   2.707   1.247  0.2751  0.1156  0.8193
  473MOL0     C63787   2.457   2.819   1.171 -0.1066  0.6858  0.3894
  473MOL0     H63788   2.739   3.207   0.965  0.1618 -0.9389 -1.6096
  473MOL0     H63789   2.738   3.402   0.810 -0.6197  0.1708 -1.4315
  473MOL0     H63790   2.674   3.611   0.652  1.1607  0.1175  0.6997
  473MOL0     H63791   2.684   3.451   0.575 -1.3151 -0.6246  0.4337
  473MOL0     H63792   2.510   3.528   0.406 -0.9887 -1.5511  1.8534
  473MOL0     H63793   2.501   3.681   0.492 -4.0310 -2.3148 -3.8024
  473MOL0     H63794   2.761   3.674   0.453 -0.8905  0.3764  0.2934
  473MOL0     H63795   2.715   3.571   0.316  2.1964 -0.3883  1.1525
  473MOL0     H63796   2.544   3.734   0.232 -2.2658  2.1286  1.9642
  473MOL0     H63797   2.584   3.850   0.362 -1.6973 -0.0637 -0.1254
  473MOL0     H63798   2.824   3.860   0.290 -0.2096  1.2985 -0.0342
  473MOL0     H63799   2.757   3.776   0.142 -1.1163  0.5662 -0.8387
  473MOL0     H63800   2.622   3.968   0.098  0.4278 -2.5674 -0.6753
  473MOL0     H63801   2.659   4.034   0.257  1.2693 -0.8675  1.9222
  473MOL0     H63802   2.884   4.082   0.177  1.7900 -1.6220 -0.6937
  473MOL0     H63803   2.876   3.983   0.028 -0.0746  2.3675 -2.0053
  473MOL0     H63804   2.732   4.236   0.092  0.5671 -2.2357  2.0388
  473MOL0     H63805   2.680   4.124  -0.037  0.0179  2.4846 -2.6681
  473MOL0     H63806   2.809   4.137  -0.247  1.1965 -1.0515  0.2583
  473MOL0     H63807   3.105   4.363  -0.389  2.2543 -2.0133  1.6008
  473MOL0     H63808   3.053   4.198  -0.409 -0.3163  0.4192  0.7631
  473MOL0     H63809   2.836   4.388  -0.448  0.8091  0.9162  1.5049
  473MOL0     H63810   2.853   4.215  -0.497 -1.0868  0.2206  0.6018
  473MOL0     H63811   3.021   4.419  -0.629  0.5181  0.7002 -1.5890
  473MOL0     H63812   2.869   4.352  -0.691  2.8472  4.0651 -2.7842
  473MOL0     H63813   3.125   4.192  -0.625 -2.0284 -2.5315  1.6994
  473MOL0     H63814   3.056   4.239  -0.787 -1.2606  0.9184 -1.1258
  473MOL0     H63815   3.099   3.928  -0.833 -0.2026 -1.2034  0.3106
  473MOL0     H63816   3.024   3.697  -1.067 -0.2973  0.5976 -1.4065
  473MOL0     H63817   3.097   3.828  -1.165  0.4331 -2.2430 -1.1422
  473MOL0     H63818   3.142   3.796  -0.988  0.5721  3.8928  0.0508
  473MOL0     H63819   2.591   3.699  -1.287 -0.9808  1.0104 -1.1534
  473MOL0     H63820   2.540   3.475  -1.409 -0.4907 -0.1008  0.8252
  473MOL0     H63821   2.697   3.223  -1.319  0.5526 -0.5938  0.3701
  473MOL0     H63822   2.548   3.253  -1.410 -0.9462 -1.4899  1.4838
  473MOL0     H63823   2.622   3.092  -1.591 -2.2536  1.7311  0.5199
  473MOL0     H63824   2.770   3.059  -1.499 -1.0701 -4.3364  0.4788
  473MOL0     H63825   2.481   3.004  -1.455 -0.0664  0.1405 -1.7016
  473MOL0     H63826   2.585   2.991  -1.310 -2.1856 -3.2522 -0.2322
  473MOL0     H63827   2.646   2.833  -1.559 -0.2294  4.0715  0.2569
  473MOL0     H63828   2.729   2.826  -1.403  0.3659 -1.4030 -0.9121
  473MOL0     H63829   2.438   2.747  -1.433  0.3455  0.4271 -0.7337
  473MOL0     H63830   2.547   2.734  -1.289 -5.3081  0.5593  0.3609
  473MOL0     H63831   2.549   2.610  -1.576 -4.6242  3.3822  0.9563
  473MOL0     H63832   2.678   2.587  -1.443  0.3528  1.1714 -2.0555
  473MOL0     H63833   2.545   2.394  -1.464  0.7299  0.2248  0.0169
  473MOL0     H63834   2.409   2.463  -1.520  0.6622 -0.4756 -1.1456
  473MOL0     H63835   2.331   2.528  -1.276 -3.8631 -1.7726 -1.3537
  473MOL0     H63836   2.468   2.425  -1.220 -2.2593  0.4770  2.9632
  473MOL0     H63837   2.951   3.433  -1.487 -0.3837  0.3756 -3.7031
  473MOL0     H63838   3.004   3.640  -1.351 -0.5520  0.2159 -0.4136
  473MOL0     H63839   2.665   4.059  -1.027 -0.1100  0.4293 -1.9358
  473MOL0     H63840   2.725   4.123  -0.798 -0.4792 -0.3240 -0.3130
  473MOL0     H63841   2.318   3.304   0.734 -1.2739 -2.3702  3.1859
  473MOL0     H63842   2.332   3.127   0.884  1.3868 -1.6903  0.8197
  473MOL0     H63843   2.321   3.059   1.369  2.4214  1.7540 -1.6842
  473MOL0     H63844   2.263   2.852   1.508 -0.2773 -0.4600 -0.8677
  473MOL0     H63845   2.261   2.493   1.291 -0.9489  0.6673  0.0971
  473MOL0     H63846   2.394   2.450   1.402 -0.1791 -0.0851 -0.9180
  473MOL0     H63847   2.229   2.397   1.582  0.0348 -1.2352  0.3817
  473MOL0     H63848   2.233   2.300   1.427  3.2238  1.7639 -0.7625
  473MOL0     H63849   2.008   2.297   1.502 -2.2865  1.0436 -0.5659
  473MOL0     H63850   2.024   2.381   1.349 -2.8835 -1.7860  0.7333
  473MOL0     H63851   2.001   2.587   1.465  4.2491 -3.1352 -1.6105
  473MOL0     H63852   2.017   2.513   1.633  2.8750  1.9268 -0.9977
  473MOL0     H63853   1.623   2.411   1.581 -0.1707 -1.0621  1.4316
  473MOL0     H63854   2.442   2.614   1.194  0.2245  1.8108 -2.4237
  473MOL0     H63855   2.500   2.809   1.072 -1.3639  3.3901 -0.5239
  474MOL0     O63856   6.212   9.987   3.417  1.3069 -0.1718  0.2423
  474MOL0     C63857   6.303  10.010   3.488 -1.2234 -0.5821  0.0259
  474MOL0     O63858   6.349  10.136   3.530 -0.0015 -0.5188 -0.0698
  474MOL0     C63859   6.279  10.250   3.493  0.3537  0.0741  0.1147
  474MOL0     C63860   6.245  10.341   3.590  0.1740  0.4093  0.7609
  474MOL0     C63861   6.190  10.467   3.558 -0.4174  0.1960 -0.3522
  474MOL0     C63862   6.179  10.511   3.424 -1.1472 -0.4389 -0.0250
  474MOL0     O63863   6.127  10.639   3.402 -0.1332  0.4146  0.0863
  474MOL0     C63864   6.132  10.689   3.264 -0.3076  0.2810 -0.4483
  474MOL0     C63865   6.273  10.745   3.241 -0.1467  1.4757  0.0757
  474MOL0     C63866   6.269  10.858   3.138 -0.3938 -0.6566 -0.7608
  474MOL0     C63867   6.241  10.997   3.216  0.9011  0.4373  0.6221
  474MOL0     C63868   6.185  11.106   3.132 -0.0562 -0.0846 -0.3984
  474MOL0     C63869   6.293  11.147   3.028  0.6529  0.2310 -0.7453
  474MOL0     C63870   6.412  11.236   3.082  0.4422  0.6224  0.2325
  474MOL0     C63871   6.463  11.335   2.974 -0.2044  0.0859 -0.1211
  474MOL0     N63872   6.538  11.275   2.860  0.0936 -0.6243 -0.0042
  474MOL0     C63873   6.545  11.327   2.729 -0.2649  0.3087 -0.4191
  474MOL0     C63874   6.674  11.312   2.683  0.4062  0.0067  0.3812
  474MOL0     C63875   6.712  11.361   2.545 -0.3321  1.5294 -0.5860
  474MOL0     C63876   6.784  11.489   2.521 -0.1473  0.2085  0.0753
  474MOL0     C63877   6.897  11.507   2.627 -0.4857  0.0769 -0.0005
  474MOL0     C63878   7.007  11.604   2.571  0.5299 -0.4013  0.4012
  474MOL0     O63879   6.939  11.726   2.581  0.1072 -0.0590 -0.0004
  474MOL0     C63880   6.991  11.835   2.529 -0.0074 -0.0017 -0.1619
  474MOL0     C63881   7.114  11.856   2.460  0.5887 -0.4209 -0.4936
  474MOL0     C63882   7.150  11.986   2.423 -0.4191 -0.0137 -0.6215
  474MOL0     C63883   7.281  11.986   2.353  0.1364 -0.0771  0.7064
  474MOL0     C63884   7.079  12.099   2.463 -0.2990  0.1487 -0.6608
  474MOL0     C63885   7.130  12.236   2.459  0.9283 -0.3947  0.1403
  474MOL0     O63886   7.041  12.332   2.508 -0.6449  0.1069 -0.4505
  474MOL0     C63887   7.071  12.461   2.545  1.1126 -0.2133 -0.4608
  474MOL0     C63888   6.960  12.556   2.531 -0.2994 -0.1139 -0.5668
  474MOL0     C63889   6.968  12.693   2.564  0.0845 -1.0039  0.0086
  474MOL0     C63890   7.087  12.739   2.631 -0.0541  0.7165 -0.3719
  474MOL0     O63891   7.086  12.871   2.663 -0.2737 -0.5504  0.7890
  474MOL0     C63892   7.156  12.926   2.769 -1.2594  1.1070  0.7075
  474MOL0     C63893   7.112  12.888   2.911  0.6148  0.7318 -0.0032
  474MOL0     C63894   6.988  12.967   2.959  0.2419  0.3275 -0.6294
  474MOL0     C63895   6.870  12.949   2.858  0.7316 -0.0580 -0.2474
  474MOL0     C63896   6.728  12.972   2.911  0.0502  0.2689 -0.2463
  474MOL0     C63897   6.615  12.917   2.824 -0.4782  0.2829  0.8334
  474MOL0     C63898   6.615  12.991   2.689  1.1763  0.0261  0.0005
  474MOL0     C63899   6.481  12.963   2.615 -0.3432 -0.8686  0.5554
  474MOL0    Cl63900   6.344  13.051   2.675  0.0265 -0.7569  0.2588
  474MOL0     C63901   7.190  12.640   2.664  0.1079 -0.5941 -0.8005
  474MOL0     C63902   7.179  12.509   2.619 -0.1851  0.3861  0.6054
  474MOL0     O63903   7.249  12.258   2.431  0.7987  0.9799  0.3808
  474MOL0     C63904   6.950  12.075   2.518 -0.4567  0.0895 -0.6795
  474MOL0     C63905   6.912  11.948   2.557  0.3281  0.7980  0.3226
  474MOL0     N63906   6.739  11.228   2.773 -0.1013 -0.0459  0.3079
  474MOL0     N63907   6.663  11.219   2.877  0.5936 -0.2133  0.1483
  474MOL0     C63908   6.219  10.417   3.324  0.7398 -0.1035 -0.4108
  474MOL0     C63909   6.270  10.290   3.358 -0.2322 -0.7702  0.1892
  474MOL0     C63910   6.377   9.901   3.557  0.1671  0.1311 -0.4815
  474MOL0     C63911   6.438   9.930   3.679  0.1935 -0.9034  0.1136
  474MOL0     C63912   6.499   9.818   3.745 -1.4658  0.1095 -0.3667
  474MOL0     C63913   6.501   9.682   3.704 -0.5252  0.1782  0.4311
  474MOL0     O63914   6.548   9.571   3.772  0.7706 -0.7206 -0.2195
  474MOL0     C63915   6.640   9.581   3.880 -0.8138  0.7711 -0.3438
  474MOL0     C63916   6.763   9.488   3.869 -1.1352  0.5635  0.8577
  474MOL0     C63917   6.717   9.343   3.854 -0.4364 -0.1165 -0.8324
  474MOL0     C63918   6.662   9.277   3.978  0.6716  0.1492  0.5229
  474MOL0     C63919   6.764   9.263   4.083  0.5300 -0.2256  0.9183
  474MOL0     C63920   6.861   9.239   4.149  0.3694 -0.0391  0.1259
  474MOL0     C63921   6.427   9.662   3.589  0.8999  0.0632 -0.7467
  474MOL0     C63922   6.361   9.769   3.520  0.3808  1.4155 -0.2633
  474MOL0     H63923   6.264  10.306   3.691  1.9338  0.5903  0.5285
  474MOL0     H63924   6.155  10.527   3.641 -2.3852 -2.6919  1.1032
  474MOL0     H63925   6.099  10.613   3.193  1.5291 -0.1162 -0.9237
  474MOL0     H63926   6.058  10.769   3.256 -0.8757 -0.3965 -2.3088
  474MOL0     H63927   6.318  10.792   3.329  1.5176  1.2379 -0.6027
  474MOL0     H63928   6.331  10.654   3.218 -1.1003  0.8114  0.2426
  474MOL0     H63929   6.372  10.859   3.099 -1.1599 -2.0036 -3.0081
  474MOL0     H63930   6.195  10.843   3.060 -2.3494  0.0783  0.8708
  474MOL0     H63931   6.161  10.989   3.291  0.6655 -2.7528  0.1848
  474MOL0     H63932   6.338  11.025   3.258 -0.0269  4.1114  0.6115
  474MOL0     H63933   6.083  11.086   3.099 -0.9087  0.3122  1.7799
  474MOL0     H63934   6.168  11.190   3.201 -0.0018  1.1482 -1.8321
  474MOL0     H63935   6.331  11.057   2.979 -2.6334 -1.2438 -0.8695
  474MOL0     H63936   6.239  11.213   2.958 -0.0870  2.5435  1.8200
  474MOL0     H63937   6.387  11.299   3.168  3.3676  1.6709  0.4235
  474MOL0     H63938   6.485  11.171   3.130 -0.5750 -0.6928  0.0654
  474MOL0     H63939   6.524  11.414   3.018  2.4248 -1.6053 -0.5026
  474MOL0     H63940   6.374  11.382   2.931  0.8376  0.5763 -1.8228
  474MOL0     H63941   6.482  11.388   2.665  1.2463  0.3576 -1.9430
  474MOL0     H63942   6.790  11.296   2.503 -0.2614  2.5378 -2.1104
  474MOL0     H63943   6.626  11.346   2.480 -1.4347  1.1469  0.9289
  474MOL0     H63944   6.710  11.567   2.540  0.8397  0.8744  1.2506
  474MOL0     H63945   6.801  11.503   2.413 -0.2635 -2.7088 -0.4159
  474MOL0     H63946   6.933  11.409   2.660 -2.5496 -1.0444 -0.8276
  474MOL0     H63947   6.858  11.545   2.722 -0.2378  2.7062 -0.8834
  474MOL0     H63948   7.023  11.577   2.467 -1.8016  1.3607 -0.5116
  474MOL0     H63949   7.097  11.599   2.633 -0.9074  0.4518  2.6861
  474MOL0     H63950   7.175  11.766   2.459  2.0567  0.5219 -0.0625
  474MOL0     H63951   7.325  11.887   2.344  1.4683  0.5983 -0.8098
  474MOL0     H63952   7.256  12.035   2.258 -1.9559  2.0600  2.2405
  474MOL0     H63953   7.359  12.043   2.405 -0.5433  0.5650  1.0407
  474MOL0     H63954   6.865  12.513   2.501 -1.6183  1.2028  1.4349
  474MOL0     H63955   6.889  12.765   2.545  2.0365  1.1085 -0.4568
  474MOL0     H63956   7.262  12.903   2.760 -1.6276 -0.5633  0.3706
  474MOL0     H63957   7.153  13.035   2.765  1.8102  1.4911  3.9889
  474MOL0     H63958   7.096  12.780   2.917  0.6310  0.5777 -2.1232
  474MOL0     H63959   7.205  12.899   2.968  2.0365 -1.9681 -1.6164
  474MOL0     H63960   7.025  13.070   2.967  2.9809 -0.6498  0.1087
  474MOL0     H63961   6.954  12.944   3.060  1.1333 -0.9051 -0.5930
  474MOL0     H63962   6.886  13.008   2.766  1.2458  0.5634  0.2278
  474MOL0     H63963   6.869  12.848   2.816  0.9648  0.0905 -0.6264
  474MOL0     H63964   6.718  13.080   2.925 -0.0673  0.8000 -3.6203
  474MOL0     H63965   6.729  12.930   3.012 -2.0611 -0.9703 -0.6760
  474MOL0     H63966   6.623  12.812   2.796  2.2786  0.6842 -0.1200
  474MOL0     H63967   6.518  12.919   2.875 -1.0137 -0.1454 -0.1517
  474MOL0     H63968   6.699  12.955   2.628  0.5560 -0.7338 -0.4324
  474MOL0     H63969   6.621  13.100   2.686  0.6129  0.0587  0.0245
  474MOL0     H63970   6.453  12.857   2.611  0.4252 -1.2660  3.3394
  474MOL0     H63971   6.496  12.997   2.513  1.2722 -2.7412  0.0988
  474MOL0     H63972   7.277  12.668   2.723 -1.2997  2.2627  0.0685
  474MOL0     H63973   7.251  12.436   2.656  0.8375  1.9301  1.8180
  474MOL0     H63974   6.877  12.153   2.535 -0.7981 -0.6501  1.5777
  474MOL0     H63975   6.818  11.947   2.611  1.0557  0.8240  1.6162
  474MOL0     H63976   6.188  10.438   3.222 -2.6417 -0.7980  0.3628
  474MOL0     H63977   6.292  10.219   3.279 -1.3547 -1.3446  0.3734
  474MOL0     H63978   6.449  10.030   3.718  0.1242 -1.7465  2.4694
  474MOL0     H63979   6.544   9.845   3.840 -1.4264  2.2017 -0.9483
  474MOL0     H63980   6.686   9.679   3.892  1.3432 -0.0686 -1.2505
  474MOL0     H63981   6.596   9.550   3.976  0.5970  2.5865  0.9521
  474MOL0     H63982   6.827   9.496   3.958 -1.0776 -0.2585  0.8986
  474MOL0     H63983   6.818   9.529   3.784 -2.4834  0.8994  0.1283
  474MOL0     H63984   6.795   9.278   3.812  1.2020  0.2327  1.4940
  474MOL0     H63985   6.633   9.341   3.784 -1.4433  0.8034  0.3072
  474MOL0     H63986   6.632   9.177   3.946 -1.4653  0.6906  0.7124
  474MOL0     H63987   6.565   9.321   4.000  1.3760  1.9110  0.2981
  474MOL0     H63988   6.939   9.220   4.220 -2.0379 -2.1240  2.4276
  474MOL0     H63989   6.403   9.561   3.558  2.7037  0.2269 -2.9260
  474MOL0     H63990   6.289   9.751   3.441 -0.7581  1.3705  0.7655
  475MOL0     O63991   8.009   1.791   4.354  0.0592  0.0957 -0.3017
  475MOL0     C63992   8.125   1.770   4.376 -0.3921  1.0646 -0.5713
  475MOL0     O63993   8.166   1.665   4.463 -0.3284 -0.3793  0.4388
  475MOL0     C63994   8.120   1.534   4.465  0.1479 -0.3919  0.5359
  475MOL0     C63995   8.049   1.475   4.356  0.2789  0.1626  0.5975
  475MOL0     C63996   8.010   1.332   4.360  0.6579 -0.9885  0.3239
  475MOL0     C63997   8.044   1.263   4.474  0.6584 -0.2701  0.6276
  475MOL0     O63998   8.004   1.134   4.488  0.6061  0.5611 -0.1592
  475MOL0     C63999   7.856   1.118   4.486 -0.5370  1.0281 -0.1147
  475MOL0     C64000   7.821   0.978   4.537  0.0999 -0.2469  0.2333
  475MOL0     C64001   7.829   0.952   4.684 -0.0168 -0.6600  0.0621
  475MOL0     C64002   7.831   0.801   4.717  0.2958 -0.0537 -0.0419
  475MOL0     C64003   7.695   0.731   4.673  0.1482 -0.7776 -0.0450
  475MOL0     C64004   7.557   0.773   4.728 -0.1947 -0.8954  0.4320
  475MOL0     C64005   7.442   0.670   4.689  0.0144 -0.2888 -0.9373
  475MOL0     C64006   7.329   0.692   4.791  0.2420  0.2738  0.3062
  475MOL0     N64007   7.238   0.810   4.764  0.9820 -0.4478 -0.4509
  475MOL0     C64008   7.137   0.809   4.667  0.4692 -0.6144 -0.4981
  475MOL0     C64009   7.070   0.933   4.684  1.0183 -0.5983  1.5674
  475MOL0     C64010   6.939   0.976   4.619 -1.0272  0.7502  0.1940
  475MOL0     C64011   6.957   1.115   4.565 -0.7158  0.0310  0.9391
  475MOL0     C64012   6.939   1.232   4.671  0.3090  0.0660 -1.6409
  475MOL0     C64013   7.027   1.347   4.644  0.4698  0.4839 -0.5673
  475MOL0     O64014   6.974   1.421   4.532 -0.0656  0.6639  0.4643
  475MOL0     C64015   6.861   1.497   4.537  0.5082  0.0880  0.1121
  475MOL0     C64016   6.789   1.520   4.421 -1.4142  0.0020  0.2385
  475MOL0     C64017   6.680   1.609   4.410  0.1690 -0.9556  0.0762
  475MOL0     C64018   6.615   1.636   4.269 -0.0806 -0.4397 -0.8830
  475MOL0     C64019   6.614   1.654   4.529 -0.0816 -0.6013 -0.3823
  475MOL0     C64020   6.485   1.731   4.538  0.5928 -0.2174  0.1971
  475MOL0     O64021   6.374   1.711   4.448 -0.2704  1.3206  0.8373
  475MOL0     C64022   6.294   1.816   4.409  1.0735  0.0531  0.0717
  475MOL0     C64023   6.178   1.781   4.353 -0.1248  0.3808  0.6923
  475MOL0     C64024   6.088   1.883   4.309 -0.5389  0.2138 -1.1960
  475MOL0     C64025   6.121   2.020   4.328  0.4995  0.7598  0.3599
  475MOL0     O64026   6.039   2.115   4.267  0.0183 -0.5236 -0.5326
  475MOL0     C64027   6.031   2.254   4.321 -0.3611  0.0950  0.5763
  475MOL0     C64028   5.898   2.311   4.273 -0.0777  0.0955 -0.8950
  475MOL0     C64029   5.879   2.461   4.314 -0.8238 -0.1522 -0.6626
  475MOL0     C64030   5.739   2.499   4.277  1.3132 -0.0830  0.7088
  475MOL0     C64031   5.721   2.655   4.285 -0.0742  0.3746  0.5647
  475MOL0     C64032   5.587   2.704   4.223  0.3607 -0.5630 -0.0873
  475MOL0     C64033   5.468   2.656   4.303  0.7089 -0.2262 -0.4728
  475MOL0     C64034   5.328   2.714   4.251 -0.6981  0.0632  1.0252
  475MOL0    Cl64035   5.184   2.685   4.348 -0.2397  0.1196  0.0766
  475MOL0     C64036   6.241   2.056   4.378  0.1375  0.4818  0.1676
  475MOL0     C64037   6.327   1.954   4.424  0.3669  0.0734 -0.3734
  475MOL0     O64038   6.483   1.826   4.628  0.0391  0.1717 -0.0994
  475MOL0     C64039   6.694   1.633   4.649  0.2432 -0.0055  0.4526
  475MOL0     C64040   6.809   1.559   4.655  0.4116  0.4385  0.1303
  475MOL0     N64041   7.126   0.993   4.794 -0.5235 -0.7638  0.3744
  475MOL0     N64042   7.223   0.925   4.838 -0.5185  0.0290  0.8704
  475MOL0     C64043   8.119   1.315   4.578  0.3822  0.2247  0.5251
  475MOL0     C64044   8.167   1.455   4.574  0.4049  0.0279  0.1772
  475MOL0     C64045   8.235   1.836   4.311 -0.9135  0.5552  0.3258
  475MOL0     C64046   8.370   1.836   4.365  0.3369 -0.1544  0.0572
  475MOL0     C64047   8.469   1.917   4.310 -0.5577  0.3737  1.4105
  475MOL0     C64048   8.437   2.002   4.205 -0.6127 -0.3875  0.0699
  475MOL0     O64049   8.542   2.088   4.167  1.0393  0.5507 -0.6036
  475MOL0     C64050   8.564   2.139   4.032  0.5397 -0.0571 -0.1494
  475MOL0     C64051   8.623   2.288   4.029 -0.3179 -0.0361 -0.3593
  475MOL0     C64052   8.602   2.347   3.889  0.4637  0.9212 -0.3274
  475MOL0     C64053   8.652   2.486   3.860  0.2464 -0.0182  0.0327
  475MOL0     C64054   8.794   2.502   3.906 -0.2630  0.7636 -0.2538
  475MOL0     C64055   8.901   2.529   3.974 -0.2255  0.6859  1.7098
  475MOL0     C64056   8.309   1.998   4.147 -0.2405  0.6343  0.0582
  475MOL0     C64057   8.210   1.914   4.202  0.8778  0.0195 -0.5097
  475MOL0     H64058   8.029   1.525   4.262 -0.2513  1.0720  1.1825
  475MOL0     H64059   7.966   1.299   4.266  1.6369  0.5823 -0.7341
  475MOL0     H64060   7.815   1.187   4.561 -0.4330  0.0891  0.8242
  475MOL0     H64061   7.821   1.155   4.389 -0.5125  2.1049  0.2657
  475MOL0     H64062   7.715   0.978   4.511  0.0318  0.0466  0.5005
  475MOL0     H64063   7.870   0.896   4.484 -2.2962  0.0800 -2.7224
  475MOL0     H64064   7.922   0.990   4.728 -1.6529  2.1735  1.4009
  475MOL0     H64065   7.744   0.999   4.734 -0.8664 -2.8563  0.8032
  475MOL0     H64066   7.915   0.759   4.663 -0.3357  0.3936 -1.4036
  475MOL0     H64067   7.850   0.794   4.825  2.5363 -0.6790 -0.4418
  475MOL0     H64068   7.700   0.735   4.563  1.2309  0.4345  0.0116
  475MOL0     H64069   7.703   0.626   4.701 -0.3406 -0.7132  0.3376
  475MOL0     H64070   7.570   0.787   4.836  0.9196 -2.1852  0.4890
  475MOL0     H64071   7.529   0.862   4.671 -2.7905 -0.5460  2.0802
  475MOL0     H64072   7.416   0.673   4.583  2.8683  1.0111 -1.7122
  475MOL0     H64073   7.479   0.568   4.703  1.9181  0.0974 -2.6181
  475MOL0     H64074   7.374   0.700   4.890  2.3870  0.7793 -0.6552
  475MOL0     H64075   7.268   0.601   4.799  1.4643 -0.5565  0.4832
  475MOL0     H64076   7.095   0.729   4.606 -0.3253  0.5593 -1.5138
  475MOL0     H64077   6.926   0.900   4.542  1.5681 -1.7203  1.9966
  475MOL0     H64078   6.850   0.969   4.682 -1.4719 -0.8456 -0.5567
  475MOL0     H64079   6.895   1.135   4.477  0.4199 -0.3034  0.0367
  475MOL0     H64080   7.059   1.114   4.527 -0.6632 -1.8804  1.0602
  475MOL0     H64081   6.970   1.199   4.770 -3.9714  2.5349  0.8386
  475MOL0     H64082   6.836   1.270   4.679  0.1880 -0.0545 -2.5235
  475MOL0     H64083   7.132   1.320   4.629  0.8488  1.5320  0.1280
  475MOL0     H64084   7.038   1.410   4.732 -0.3356  0.8369 -0.7083
  475MOL0     H64085   6.821   1.469   4.330 -1.3895  0.2118  0.1279
  475MOL0     H64086   6.544   1.555   4.251  0.7281 -1.5787  0.7324
  475MOL0     H64087   6.567   1.733   4.257  0.4945  0.0039  0.2036
  475MOL0     H64088   6.701   1.644   4.202 -0.2820 -1.1136 -1.2286
  475MOL0     H64089   6.168   1.676   4.330 -0.1612  0.4568  0.3559
  475MOL0     H64090   5.996   1.860   4.256 -1.1521 -0.2159  0.0034
  475MOL0     H64091   6.029   2.248   4.430  0.4958  0.2267  0.6055
  475MOL0     H64092   6.109   2.324   4.292  1.9326 -1.5203  2.5056
  475MOL0     H64093   5.905   2.298   4.165 -0.3085 -3.1162 -0.6194
  475MOL0     H64094   5.818   2.248   4.314  0.9316 -1.3333 -1.0084
  475MOL0     H64095   5.948   2.527   4.260  0.0743 -0.0328  0.5782
  475MOL0     H64096   5.899   2.479   4.420 -1.4972  1.3478 -0.7670
  475MOL0     H64097   5.722   2.468   4.173  2.2153  1.8110 -0.0476
  475MOL0     H64098   5.667   2.445   4.339 -0.7336  0.4212 -1.0973
  475MOL0     H64099   5.797   2.716   4.236 -0.4525 -1.1212 -2.0412
  475MOL0     H64100   5.737   2.671   4.392  0.9853 -2.8050  1.0134
  475MOL0     H64101   5.585   2.813   4.228  1.2620 -0.5149 -0.5115
  475MOL0     H64102   5.586   2.679   4.117  0.3991 -0.0526 -0.2106
  475MOL0     H64103   5.468   2.687   4.408 -3.5368 -1.4352  0.0995
  475MOL0     H64104   5.461   2.546   4.306  2.8420 -0.4627 -1.7760
  475MOL0     H64105   5.307   2.659   4.159  0.4618  2.1340 -0.5564
  475MOL0     H64106   5.337   2.820   4.228 -0.5727 -0.1495  0.0727
  475MOL0     H64107   6.271   2.161   4.385 -1.5557  0.9917  0.1222
  475MOL0     H64108   6.425   1.978   4.465  1.0057 -3.2941  0.3729
  475MOL0     H64109   6.661   1.673   4.745 -0.2240  2.1057 -0.5441
  475MOL0     H64110   6.871   1.544   4.743  1.3443  1.4787 -0.3417
  475MOL0     H64111   8.155   1.262   4.665 -1.8067  0.5015  1.6894
  475MOL0     H64112   8.226   1.506   4.649 -0.9114  2.9896 -0.6635
  475MOL0     H64113   8.397   1.779   4.454  0.6867 -1.8501 -1.0975
  475MOL0     H64114   8.557   1.933   4.371  0.7659  0.8257 -0.5496
  475MOL0     H64115   8.634   2.074   3.978  1.4751  1.1065 -0.3633
  475MOL0     H64116   8.470   2.142   3.976  0.7696 -1.6117 -0.6750
  475MOL0     H64117   8.728   2.274   4.057 -0.8282 -2.2112  0.7444
  475MOL0     H64118   8.569   2.351   4.100  2.7497  2.7039 -0.2527
  475MOL0     H64119   8.495   2.345   3.865  0.8670 -3.2773 -2.7705
  475MOL0     H64120   8.644   2.279   3.815 -0.4720 -0.7022  0.5765
  475MOL0     H64121   8.590   2.552   3.921  1.7028  0.9689  0.5000
  475MOL0     H64122   8.634   2.512   3.755  1.7627  0.3042 -0.1769
  475MOL0     H64123   8.972   2.555   4.050 -1.4309 -0.8389  3.4315
  475MOL0     H64124   8.290   2.069   4.067  1.5888  2.2190  0.9325
  475MOL0     H64125   8.112   1.924   4.156 -1.2544 -0.2019  3.5837
  476MOL0     O64126   9.769   5.686   4.765 -0.0210 -0.7349  0.2492
  476MOL0     C64127   9.871   5.745   4.766  0.0185 -0.0858 -0.2914
  476MOL0     O64128   9.878   5.887   4.779 -0.0926  0.7354 -0.4925
  476MOL0     C64129   9.769   5.946   4.849  0.0229 -0.5148  0.1059
  476MOL0     C64130   9.674   6.012   4.774 -0.4948  0.6397 -0.8077
  476MOL0     C64131   9.548   6.058   4.833 -0.7906  1.2334  0.3383
  476MOL0     C64132   9.529   6.030   4.964  0.4635  0.5521 -0.5289
  476MOL0     O64133   9.418   6.082   5.023 -0.2845 -0.1059 -0.9836
  476MOL0     C64134   9.333   6.191   4.978 -0.1330 -0.0637  0.0223
  476MOL0     C64135   9.252   6.258   5.090 -0.1957 -0.7474  0.3199
  476MOL0     C64136   9.343   6.327   5.204  0.3950  0.2890  0.1728
  476MOL0     C64137   9.391   6.232   5.319  0.4129  0.7123 -0.0095
  476MOL0     C64138   9.475   6.319   5.416  0.0278 -0.5317 -0.1572
  476MOL0     C64139   9.578   6.235   5.482 -0.6096 -0.1485 -0.4402
  476MOL0     C64140   9.681   6.310   5.562 -0.6809 -0.3191  0.1012
  476MOL0     C64141   9.769   6.405   5.470 -0.0206  1.1740  0.0833
  476MOL0     N64142   9.842   6.325   5.372  0.0668 -0.2953  0.6670
  476MOL0     C64143   9.807   6.291   5.237  0.0132  0.4650  0.3904
  476MOL0     C64144   9.917   6.258   5.174  0.6665 -0.0360  0.2019
  476MOL0     C64145   9.929   6.236   5.024  0.4974 -0.8075  0.0894
  476MOL0     C64146   9.917   6.364   4.936  0.5186  0.6813  0.9335
  476MOL0     C64147   9.854   6.330   4.797 -0.0992  0.6004 -0.0079
  476MOL0     C64148   9.847   6.456   4.707  0.0932  0.2353  0.0905
  476MOL0     O64149   9.756   6.560   4.757  0.5866  0.6241 -0.1359
  476MOL0     C64150   9.628   6.535   4.757  0.5995 -0.3352  0.7090
  476MOL0     C64151   9.545   6.618   4.834 -1.0502 -0.3435 -0.8389
  476MOL0     C64152   9.405   6.603   4.839 -0.2342 -0.1070  0.0119
  476MOL0     C64153   9.331   6.671   4.955 -0.0468 -0.2574 -0.0712
  476MOL0     C64154   9.341   6.504   4.759  0.1868 -0.4081  0.3855
  476MOL0     C64155   9.195   6.482   4.764 -0.7080 -0.1931 -0.8587
  476MOL0     O64156   9.126   6.599   4.765 -0.2896  0.1546  0.2108
  476MOL0     C64157   9.003   6.590   4.818  1.7700  0.2863 -0.2856
  476MOL0     C64158   8.981   6.591   4.959  0.5630 -0.2273  0.5362
  476MOL0     C64159   8.856   6.549   4.998  0.4697  0.1019  0.0333
  476MOL0     C64160   8.747   6.522   4.916 -0.8393 -0.9957  0.0950
  476MOL0     O64161   8.627   6.496   4.975 -0.4134 -0.6062 -0.9084
  476MOL0     C64162   8.524   6.450   4.885  0.0934 -0.3041  1.0155
  476MOL0     C64163   8.411   6.360   4.946 -0.0086 -1.3059 -0.5575
  476MOL0     C64164   8.330   6.446   5.049  0.4264 -0.2336  0.1361
  476MOL0     C64165   8.230   6.530   4.975 -0.3438 -0.8007  0.2053
  476MOL0     C64166   8.166   6.630   5.068  1.7665 -0.8925 -0.4895
  476MOL0     C64167   8.134   6.755   4.993  0.3267 -0.2822  0.4687
  476MOL0     C64168   8.010   6.726   4.898  0.1002 -0.7401 -0.5879
  476MOL0     C64169   7.954   6.854   4.838 -0.0662 -0.1497 -0.1091
  476MOL0    Cl64170   7.794   6.785   4.770 -0.5439 -0.1197  0.1182
  476MOL0     C64171   8.767   6.535   4.777 -0.1347  0.0620  0.5468
  476MOL0     C64172   8.894   6.568   4.735 -0.1263  0.7393 -0.3052
  476MOL0     O64173   9.151   6.373   4.737  0.2242  0.7692 -0.2999
  476MOL0     C64174   9.424   6.419   4.686  0.0404  0.6009  0.4152
  476MOL0     C64175   9.565   6.426   4.689  0.4891  0.4511  0.0773
  476MOL0     N64176  10.015   6.254   5.267 -0.3968  0.5546 -0.7105
  476MOL0     N64177   9.976   6.289   5.377  0.8019  0.6756  0.3288
  476MOL0     C64178   9.629   5.964   5.039 -0.4685  0.7341 -1.3003
  476MOL0     C64179   9.747   5.922   4.983 -0.3772  0.2352 -0.2418
  476MOL0     C64180   9.998   5.671   4.771 -0.0780  0.1563 -0.0118
  476MOL0     C64181  10.115   5.723   4.835 -0.0651 -0.8901  0.8407
  476MOL0     C64182  10.236   5.662   4.808  0.2737  0.3509 -0.0077
  476MOL0     C64183  10.252   5.546   4.728  0.1445  0.1941 -1.0993
  476MOL0     O64184  10.369   5.481   4.705  0.6587 -0.6035 -0.2286
  476MOL0     C64185  10.473   5.559   4.663 -0.3048  0.0906 -0.3672
  476MOL0     C64186  10.476   5.588   4.511 -0.5417 -0.0053 -0.2770
  476MOL0     C64187  10.595   5.676   4.471  0.8612 -0.5020  0.5463
  476MOL0     C64188  10.587   5.712   4.316 -0.1566  0.6161 -0.1229
  476MOL0     C64189  10.639   5.595   4.239  0.6845 -1.0536  1.1273
  476MOL0     C64190  10.675   5.492   4.184  0.8428 -0.5761 -0.6872
  476MOL0     C64191  10.135   5.494   4.671  0.0181 -0.0502  0.7846
  476MOL0     C64192  10.016   5.565   4.689 -0.3473  0.9420 -0.9238
  476MOL0     H64193   9.692   6.040   4.671 -1.8374  0.8747 -0.9952
  476MOL0     H64194   9.476   6.095   4.762 -1.5493  1.9124  1.4290
  476MOL0     H64195   9.391   6.270   4.928 -1.1508  1.3070  0.9374
  476MOL0     H64196   9.254   6.160   4.909  0.3832  0.9596 -1.0750
  476MOL0     H64197   9.205   6.350   5.052  0.8402 -0.4146 -0.1977
  476MOL0     H64198   9.181   6.192   5.139 -0.7035 -0.2472  0.2732
  476MOL0     H64199   9.431   6.371   5.156 -0.8216  3.3088  0.4352
  476MOL0     H64200   9.282   6.415   5.230 -1.5712 -1.2098  0.8657
  476MOL0     H64201   9.317   6.184   5.383 -0.8006 -0.8474 -2.4260
  476MOL0     H64202   9.442   6.153   5.264  2.3816  0.2654  2.3141
  476MOL0     H64203   9.533   6.395   5.362 -1.3202  2.0856  1.8809
  476MOL0     H64204   9.416   6.377   5.487  0.6740  1.0974 -0.9024
  476MOL0     H64205   9.529   6.160   5.545  2.0554 -2.1552 -0.5539
  476MOL0     H64206   9.638   6.181   5.408  0.7363  1.2008 -0.3783
  476MOL0     H64207   9.615   6.362   5.633 -1.4206 -3.6998  2.1236
  476MOL0     H64208   9.755   6.266   5.629  1.0481  4.3369  1.6924
  476MOL0     H64209   9.850   6.457   5.523  0.4916  1.1061 -0.6224
  476MOL0     H64210   9.720   6.483   5.411  0.8184  1.0536 -0.7881
  476MOL0     H64211   9.704   6.308   5.205 -0.5622 -1.9904  0.7387
  476MOL0     H64212  10.025   6.189   4.998  1.7254  0.7682  1.5202
  476MOL0     H64213   9.856   6.159   4.999  1.5991 -1.1369 -2.4424
  476MOL0     H64214  10.008   6.424   4.937 -1.3521  3.7807  2.2548
  476MOL0     H64215   9.840   6.420   4.991 -2.8072 -1.9300 -0.7018
  476MOL0     H64216   9.766   6.275   4.830  1.6169 -1.8721  0.7580
  476MOL0     H64217   9.926   6.255   4.763  1.4888  1.7639  0.6421
  476MOL0     H64218   9.818   6.420   4.607 -0.7686 -1.2615  0.8417
  476MOL0     H64219   9.949   6.494   4.698  0.1343  0.0941 -0.0565
  476MOL0     H64220   9.598   6.680   4.904 -3.7125 -3.6573  4.8318
  476MOL0     H64221   9.393   6.703   5.040  1.6596  3.0968 -2.3316
  476MOL0     H64222   9.271   6.756   4.920 -1.0702 -1.6129 -1.7353
  476MOL0     H64223   9.261   6.598   4.996  2.1083 -1.0588  2.4691
  476MOL0     H64224   9.057   6.604   5.034  2.8077 -1.7794 -1.3280
  476MOL0     H64225   8.837   6.535   5.104 -2.3050 -1.2011 -0.5305
  476MOL0     H64226   8.476   6.532   4.831  1.4363  1.2187  2.0237
  476MOL0     H64227   8.567   6.387   4.807  1.0319  0.6157  0.7615
  476MOL0     H64228   8.352   6.307   4.870 -1.5375 -0.6507  0.1339
  476MOL0     H64229   8.461   6.273   4.988  0.4111 -1.8571 -2.1085
  476MOL0     H64230   8.400   6.496   5.117  0.5808 -1.9356  1.2718
  476MOL0     H64231   8.265   6.376   5.102  0.9712 -1.2624 -0.5319
  476MOL0     H64232   8.280   6.568   4.885  0.5743  0.0509  1.0404
  476MOL0     H64233   8.151   6.468   4.932 -0.1439 -2.6065  2.2679
  476MOL0     H64234   8.219   6.668   5.156 -0.9744  0.1471  0.8449
  476MOL0     H64235   8.080   6.579   5.114  1.9244 -0.8371 -0.1259
  476MOL0     H64236   8.115   6.840   5.059 -2.3562  0.0636 -0.6524
  476MOL0     H64237   8.229   6.787   4.947  0.2512  0.2859  0.7056
  476MOL0     H64238   7.933   6.692   4.967 -0.6234 -1.0704 -1.5406
  476MOL0     H64239   8.050   6.653   4.827  3.5506  0.6780 -0.3495
  476MOL0     H64240   8.012   6.902   4.759 -1.3859  0.4808 -0.7411
  476MOL0     H64241   7.948   6.926   4.920 -0.3759  1.4093 -1.4369
  476MOL0     H64242   8.690   6.541   4.701 -1.3506 -0.8416  1.6732
  476MOL0     H64243   8.912   6.599   4.632 -2.0559  1.9983 -0.3183
  476MOL0     H64244   9.375   6.344   4.626  1.0950  2.3055 -2.8547
  476MOL0     H64245   9.620   6.360   4.624  1.7827  0.6335  0.9596
  476MOL0     H64246   9.622   5.963   5.147 -0.4071  3.3972 -1.2098
  476MOL0     H64247   9.831   5.869   5.029  1.1865 -0.6059 -3.7592
  476MOL0     H64248  10.113   5.807   4.904  0.9882 -2.3291  2.7253
  476MOL0     H64249  10.322   5.698   4.864 -0.1646  1.8538 -0.2561
  476MOL0     H64250  10.471   5.658   4.709 -3.8151  0.7347 -1.6362
  476MOL0     H64251  10.563   5.508   4.699 -0.4758  2.0259  3.2211
  476MOL0     H64252  10.382   5.637   4.480  0.3668  1.0136 -1.5267
  476MOL0     H64253  10.491   5.494   4.458  0.7923 -0.2782  0.5673
  476MOL0     H64254  10.690   5.628   4.499  0.8692 -0.2780  0.9114
  476MOL0     H64255  10.593   5.770   4.526  2.2240  0.0982 -0.3785
  476MOL0     H64256  10.654   5.795   4.295  1.8252 -0.8203  0.2258
  476MOL0     H64257  10.483   5.731   4.289 -0.5102 -0.0195  0.7239
  476MOL0     H64258  10.704   5.399   4.140  1.3570 -1.5930  1.6223
  476MOL0     H64259  10.129   5.399   4.619  0.1758  0.6471 -0.5332
  476MOL0     H64260   9.934   5.524   4.632  0.6838  0.7468 -2.3254
  477MOL0     O64261  10.493   1.167   6.671  0.4310  0.7009  0.3118
  477MOL0     C64262  10.448   1.087   6.591  0.5990 -0.1757  0.4286
  477MOL0     O64263  10.397   1.117   6.466  0.5111 -0.2028 -0.0918
  477MOL0     C64264  10.363   1.249   6.442  0.8085 -1.1410 -0.4558
  477MOL0     C64265  10.357   1.301   6.310  0.5646 -0.7893 -0.1177
  477MOL0     C64266  10.309   1.428   6.275 -0.4627 -1.1658 -0.5817
  477MOL0     C64267  10.253   1.511   6.374  0.0195 -0.1210 -1.3899
  477MOL0     O64268  10.197   1.626   6.342 -0.2156  0.4425  0.7628
  477MOL0     C64269  10.271   1.742   6.373  0.2557 -0.5514 -0.2075
  477MOL0     C64270  10.184   1.811   6.482 -0.0899 -0.2575 -1.1766
  477MOL0     C64271  10.196   1.963   6.491 -0.0566 -0.8166  0.1732
  477MOL0     C64272  10.128   2.039   6.373 -0.4101 -0.0191 -0.5883
  477MOL0     C64273  10.158   2.185   6.402  0.3871  0.2918 -0.3493
  477MOL0     C64274  10.158   2.254   6.267 -0.0336 -0.5533  0.5239
  477MOL0     C64275  10.033   2.257   6.195  0.9996  0.4455 -0.1130
  477MOL0     C64276  10.020   2.362   6.088  0.5818 -0.2467  0.7772
  477MOL0     N64277   9.964   2.489   6.133 -0.9033 -0.9036 -0.2291
  477MOL0     C64278  10.034   2.590   6.208  0.2669  1.1245 -0.3655
  477MOL0     C64279   9.951   2.701   6.195 -0.3987 -0.3539  0.1252
  477MOL0     C64280   9.980   2.826   6.278  0.3512 -0.6540  0.8045
  477MOL0     C64281  10.034   2.943   6.186 -1.1221  0.3849 -0.2739
  477MOL0     C64282   9.951   2.982   6.064  0.9701 -0.1473  0.4441
  477MOL0     C64283   9.813   3.027   6.106  0.7939  0.2488 -0.0066
  477MOL0     O64284   9.815   3.156   6.175  0.1525 -0.5269  0.3543
  477MOL0     C64285   9.755   3.258   6.114  0.8147 -0.2274  0.6883
  477MOL0     C64286   9.763   3.283   5.976  0.3622 -0.1901  0.9839
  477MOL0     C64287   9.707   3.396   5.924 -1.0079 -0.2613 -1.0765
  477MOL0     C64288   9.742   3.407   5.784  1.1330  1.0166 -0.0113
  477MOL0     C64289   9.637   3.496   5.995  0.3799  0.1928  0.0844
  477MOL0     C64290   9.555   3.608   5.932  0.3701  0.9184 -0.5524
  477MOL0     O64291   9.505   3.690   6.025 -0.4137  0.2383  0.1400
  477MOL0     C64292   9.442   3.807   5.986  0.2802  0.6360 -0.5072
  477MOL0     C64293   9.296   3.813   5.973  0.3223  0.2779  0.8369
  477MOL0     C64294   9.240   3.927   5.907 -0.1848  0.1389  0.1063
  477MOL0     C64295   9.321   4.033   5.877 -0.7244 -0.1042 -0.1213
  477MOL0     O64296   9.264   4.153   5.852  0.1635 -0.6012  0.0551
  477MOL0     C64297   9.200   4.192   5.736  0.3149  0.6517  0.2749
  477MOL0     C64298   9.295   4.270   5.653 -0.5515  0.1575 -1.0463
  477MOL0     C64299   9.242   4.299   5.513  0.3342  0.6062 -0.1632
  477MOL0     C64300   9.347   4.347   5.413 -0.0246 -0.1919  0.0140
  477MOL0     C64301   9.317   4.490   5.373  1.3554  0.4641  0.7335
  477MOL0     C64302   9.336   4.601   5.475 -0.3239  0.1396 -0.1972
  477MOL0     C64303   9.475   4.661   5.452  0.4393  0.2128 -0.6482
  477MOL0     C64304   9.526   4.713   5.580  0.7426 -0.4251  0.3669
  477MOL0    Cl64305   9.402   4.793   5.676 -0.0801 -0.3858 -0.4768
  477MOL0     C64306   9.462   4.029   5.906  0.1648 -0.0781 -0.6611
  477MOL0     C64307   9.520   3.916   5.951 -0.2010 -0.6338 -0.2129
  477MOL0     O64308   9.523   3.609   5.813  0.1280  0.3632  0.0675
  477MOL0     C64309   9.616   3.456   6.136  0.0459  0.3377 -1.3457
  477MOL0     C64310   9.673   3.335   6.188 -0.4252 -0.5013 -0.8921
  477MOL0     N64311   9.839   2.665   6.119 -0.2347 -0.9619 -1.0065
  477MOL0     N64312   9.844   2.540   6.086 -0.3009 -0.4990  0.0832
  477MOL0     C64313  10.252   1.467   6.506  0.5484 -0.0334  0.4767
  477MOL0     C64314  10.313   1.343   6.538  1.0679 -0.4917  0.6936
  477MOL0     C64315  10.420   0.945   6.628 -0.4576  0.8570 -0.2184
  477MOL0     C64316  10.466   0.881   6.749  0.4725  0.5181  0.5231
  477MOL0     C64317  10.448   0.740   6.755  1.0307  1.3761 -0.1437
  477MOL0     C64318  10.380   0.670   6.653 -0.0589  0.5795 -0.3241
  477MOL0     O64319  10.377   0.530   6.657 -0.1994 -0.1481 -0.4235
  477MOL0     C64320  10.251   0.465   6.648 -0.3951 -0.0495 -0.0875
  477MOL0     C64321  10.270   0.334   6.725  0.4724  0.1866  1.0668
  477MOL0     C64322  10.133   0.269   6.704 -0.1490  0.3407  0.3911
  477MOL0     C64323  10.122   0.157   6.809  0.3347 -0.1986  0.8375
  477MOL0     C64324  10.028   0.051   6.765  0.5252  0.2683  1.6468
  477MOL0     C64325   9.940  -0.021   6.733  0.0176 -0.2836  0.8368
  477MOL0     C64326  10.337   0.732   6.544 -0.5890 -0.6918  0.0619
  477MOL0     C64327  10.361   0.861   6.521 -0.4084 -0.3377 -0.6899
  477MOL0     H64328  10.390   1.236   6.230  1.2071 -1.9562  1.0565
  477MOL0     H64329  10.301   1.453   6.169 -0.6272 -0.3572 -0.3847
  477MOL0     H64330  10.377   1.730   6.400  0.0209  1.5853  1.9701
  477MOL0     H64331  10.273   1.803   6.282 -4.2796  1.1889  0.6132
  477MOL0     H64332  10.082   1.774   6.469  0.2438 -1.5269 -0.3828
  477MOL0     H64333  10.223   1.775   6.577  2.2436  2.8268 -0.8131
  477MOL0     H64334  10.152   2.001   6.584 -1.2567  4.5654 -2.2115
  477MOL0     H64335  10.298   2.003   6.490 -1.5844  3.9871 -3.1047
  477MOL0     H64336  10.165   2.005   6.276  0.0985  1.3941 -0.9037
  477MOL0     H64337  10.019   2.040   6.375 -0.6753  6.1677  0.8999
  477MOL0     H64338  10.081   2.226   6.468  0.9877  0.6530  0.1397
  477MOL0     H64339  10.252   2.198   6.456  1.4586 -0.9225 -1.8241
  477MOL0     H64340  10.195   2.356   6.283  3.8175 -0.8236 -4.4883
  477MOL0     H64341  10.241   2.217   6.207 -1.0988  0.7641 -1.9340
  477MOL0     H64342  10.022   2.160   6.145 -1.2561  0.2513  0.6629
  477MOL0     H64343   9.954   2.261   6.270  1.3436 -4.9375  1.0019
  477MOL0     H64344   9.946   2.318   6.021  0.2337  3.5169 -1.5717
  477MOL0     H64345  10.119   2.379   6.044 -0.0525  1.0784 -0.1862
  477MOL0     H64346  10.126   2.592   6.266 -1.3117 -2.4474  2.5993
  477MOL0     H64347   9.883   2.852   6.321  0.0385 -1.4835  0.6174
  477MOL0     H64348  10.058   2.819   6.354  0.8401  2.5256  0.7347
  477MOL0     H64349  10.134   2.912   6.153 -0.2964  2.7440 -0.2127
  477MOL0     H64350  10.045   3.035   6.245 -1.1622  0.3440 -0.2030
  477MOL0     H64351   9.937   2.898   5.996  0.7484  1.8945 -2.2223
  477MOL0     H64352   9.993   3.065   6.006 -2.6602  0.5238 -1.5627
  477MOL0     H64353   9.764   2.959   6.176 -0.3744  0.8861 -0.1709
  477MOL0     H64354   9.745   3.037   6.020  0.6129  1.8815  0.2912
  477MOL0     H64355   9.825   3.221   5.913  1.8363  1.2702  0.9251
  477MOL0     H64356   9.671   3.334   5.744  0.8226 -0.4355  2.9745
  477MOL0     H64357   9.723   3.512   5.760 -1.0476  0.4570 -1.0407
  477MOL0     H64358   9.844   3.376   5.759  0.4172 -2.1593  0.5727
  477MOL0     H64359   9.238   3.724   5.996  1.1022 -0.9344 -1.6181
  477MOL0     H64360   9.134   3.946   5.890  0.0895  0.2432 -1.6785
  477MOL0     H64361   9.164   4.112   5.669  2.0537 -0.7009  0.8807
  477MOL0     H64362   9.110   4.253   5.751 -0.2826 -0.0732 -0.2271
  477MOL0     H64363   9.324   4.364   5.701 -1.5704  0.9275 -1.8934
  477MOL0     H64364   9.386   4.211   5.640 -0.3790  0.3214 -0.6105
  477MOL0     H64365   9.161   4.372   5.518  1.9419  2.4720 -0.0968
  477MOL0     H64366   9.198   4.204   5.482 -0.1715  1.0921 -0.9651
  477MOL0     H64367   9.444   4.359   5.462  0.1678  1.4325 -0.6937
  477MOL0     H64368   9.343   4.285   5.323  0.4582  1.1010 -0.9388
  477MOL0     H64369   9.211   4.490   5.347  1.5490 -1.6216 -0.2546
  477MOL0     H64370   9.362   4.501   5.274 -0.8399 -0.4549 -0.4454
  477MOL0     H64371   9.258   4.678   5.470 -1.9192 -1.3644  0.3956
  477MOL0     H64372   9.330   4.549   5.571  3.1782  0.9777  0.6189
  477MOL0     H64373   9.456   4.740   5.379 -0.7466 -0.0053 -0.6041
  477MOL0     H64374   9.546   4.592   5.405 -0.2474 -1.0405  0.0986
  477MOL0     H64375   9.612   4.774   5.550  0.6702 -0.9776 -1.0346
  477MOL0     H64376   9.558   4.631   5.645  0.3504 -0.0923  0.9881
  477MOL0     H64377   9.515   4.124   5.908 -1.0427  0.6342  2.0662
  477MOL0     H64378   9.627   3.914   5.966  0.1779 -0.7870 -2.5860
  477MOL0     H64379   9.541   3.509   6.193  0.4470  1.1577 -1.5692
  477MOL0     H64380   9.649   3.296   6.286  0.3503 -2.2020 -1.3282
  477MOL0     H64381  10.198   1.527   6.578  0.3345  1.8532 -1.1698
  477MOL0     H64382  10.302   1.305   6.640 -1.5103 -2.3737 -0.1706
  477MOL0     H64383  10.508   0.938   6.830  0.7837  0.3404  0.4876
  477MOL0     H64384  10.469   0.706   6.856  1.0830 -1.5799 -1.0725
  477MOL0     H64385  10.159   0.503   6.693 -2.0412 -1.7283 -1.8332
  477MOL0     H64386  10.224   0.442   6.545 -2.9533  0.5639  0.3815
  477MOL0     H64387  10.309   0.351   6.825 -3.3391  2.5605  2.3887
  477MOL0     H64388  10.338   0.269   6.669 -0.5642  1.8220 -2.3810
  477MOL0     H64389  10.127   0.221   6.606 -0.1261 -1.5882  1.2923
  477MOL0     H64390  10.044   0.334   6.708 -3.1067 -3.3923  0.5474
  477MOL0     H64391  10.096   0.192   6.909 -0.9578 -1.5585  1.0166
  477MOL0     H64392  10.221   0.113   6.816  1.2878  1.3402 -1.5883
  477MOL0     H64393   9.862  -0.090   6.710  1.1301 -1.8594  1.5882
  477MOL0     H64394  10.287   0.682   6.461  2.8354 -0.0604 -2.6109
  477MOL0     H64395  10.346   0.896   6.419  2.7808 -0.6772 -1.3767
  478MOL0     O64396   0.147   5.322  10.303 -0.4444  0.3060 -0.3269
  478MOL0     C64397   0.206   5.328  10.412  0.6648 -0.1534  0.1048
  478MOL0     O64398   0.340   5.300  10.438  0.0684 -0.4279  0.3192
  478MOL0     C64399   0.389   5.181  10.395  0.6539 -0.9000  0.5324
  478MOL0     C64400   0.333   5.061  10.430  1.0220  1.0351 -0.3523
  478MOL0     C64401   0.384   4.941  10.393  0.7817  0.1530  0.2297
  478MOL0     C64402   0.484   4.934  10.298 -0.1603 -0.0219  0.4583
  478MOL0     O64403   0.552   4.825  10.248 -1.2979  0.1319 -0.4661
  478MOL0     C64404   0.549   4.718  10.337 -0.5515 -0.0765  0.1255
  478MOL0     C64405   0.612   4.603  10.269 -0.7747  0.3311 -0.2910
  478MOL0     C64406   0.611   4.472  10.343 -0.2048  1.4591  0.3331
  478MOL0     C64407   0.692   4.483  10.477  0.1902 -0.8907 -0.4516
  478MOL0     C64408   0.725   4.343  10.532 -0.4279 -0.2653 -0.3056
  478MOL0     C64409   0.778   4.348  10.680  0.3541 -0.3421  0.4538
  478MOL0     C64410   0.847   4.211  10.722 -0.6156  0.3948  0.8279
  478MOL0     C64411   0.863   4.199  10.873 -0.6935 -0.1429 -0.0127
  478MOL0     N64412   0.969   4.109  10.913  0.1041  0.0709 -0.0249
  478MOL0     C64413   0.952   3.978  10.966 -0.0069 -0.9544  0.7469
  478MOL0     C64414   1.081   3.941  10.994  0.1692  0.7371 -0.8642
  478MOL0     C64415   1.107   3.805  11.050 -0.1242 -0.3158  0.4710
  478MOL0     C64416   1.247   3.754  11.011 -0.9835  0.2112 -0.2991
  478MOL0     C64417   1.270   3.634  11.102  0.3518 -0.7420 -0.4662
  478MOL0     C64418   1.396   3.545  11.072  0.3641  0.0870 -0.8367
  478MOL0     O64419   1.511   3.618  11.115 -0.2243  0.6209 -0.8443
  478MOL0     C64420   1.619   3.540  11.086  0.6334  0.3412  0.5063
  478MOL0     C64421   1.665   3.448  11.176  1.0036 -1.3165  0.1791
  478MOL0     C64422   1.777   3.379  11.154  1.0787  0.2305 -0.1625
  478MOL0     C64423   1.832   3.296  11.267  0.2450  0.5039  0.8252
  478MOL0     C64424   1.827   3.367  11.022  0.4291  0.4105  0.2925
  478MOL0     C64425   1.947   3.287  10.985  0.6101 -0.0476 -0.1896
  478MOL0     O64426   2.004   3.320  10.859 -0.1348  0.3338 -0.7263
  478MOL0     C64427   2.099   3.232  10.812 -0.0006  0.2825  0.0446
  478MOL0     C64428   2.059   3.118  10.737  0.7575  0.4985 -1.1104
  478MOL0     C64429   2.148   3.018  10.712  1.5139 -0.5646  0.1568
  478MOL0     C64430   2.285   3.032  10.735 -0.2159  0.0761  0.9172
  478MOL0     O64431   2.375   2.933  10.680  0.1486  0.4201  0.2003
  478MOL0     C64432   2.487   2.993  10.611 -0.0013  0.9728  0.0237
  478MOL0     C64433   2.609   2.985  10.693  0.5878  0.1354 -0.4964
  478MOL0     C64434   2.739   3.001  10.623 -0.5606  0.6029  0.6308
  478MOL0     C64435   2.738   3.105  10.512  0.4210  1.2149  0.7113
  478MOL0     C64436   2.678   3.251  10.530 -0.9996 -0.6651 -0.9485
  478MOL0     C64437   2.745   3.309  10.656  0.6763 -0.6309 -1.4780
  478MOL0     C64438   2.678   3.447  10.678  0.6959 -0.1599 -1.1854
  478MOL0     C64439   2.728   3.529  10.799 -0.0759  0.1903 -1.2918
  478MOL0    Cl64440   2.910   3.539  10.800  0.1646  0.3879  0.2250
  478MOL0     C64441   2.321   3.143  10.816 -0.3923 -0.5948  0.7732
  478MOL0     C64442   2.234   3.244  10.854 -0.0557 -0.5143  0.8239
  478MOL0     O64443   1.997   3.207  11.062  0.4071  0.0075  0.4521
  478MOL0     C64444   1.766   3.449  10.928 -0.1359  0.0163  0.6708
  478MOL0     C64445   1.678   3.542  10.968  0.1233 -0.4911 -1.0678
  478MOL0     N64446   1.165   4.049  10.982 -0.1247  0.0999  0.8660
  478MOL0     N64447   1.096   4.152  10.941  0.5549  0.5019 -0.8875
  478MOL0     C64448   0.545   5.050  10.261  0.1926 -1.4127 -0.7644
  478MOL0     C64449   0.494   5.176  10.308  0.3646  0.3710 -0.9029
  478MOL0     C64450   0.129   5.387  10.523  0.5293 -0.0270  1.5377
  478MOL0     C64451   0.182   5.382  10.652 -0.1941 -0.4854 -0.0020
  478MOL0     C64452   0.110   5.441  10.762  0.1810  0.4352 -0.6046
  478MOL0     C64453  -0.022   5.498  10.747 -0.5130  0.6349  0.8056
  478MOL0     O64454  -0.081   5.549  10.858  0.4836 -0.2430 -0.6178
  478MOL0     C64455  -0.196   5.627  10.831 -0.2360  0.6453 -0.5697
  478MOL0     C64456  -0.236   5.682  10.967  0.4372  0.9308 -0.0963
  478MOL0     C64457  -0.277   5.575  11.072 -0.5998 -0.3067 -1.2755
  478MOL0     C64458  -0.158   5.560  11.183  0.5758  0.7530  1.0745
  478MOL0     C64459  -0.133   5.674  11.268  0.3715 -0.3434 -0.5269
  478MOL0     C64460  -0.101   5.768  11.343  0.5443  1.2728 -0.1262
  478MOL0     C64461  -0.082   5.483  10.621 -0.0662 -0.5621  0.9965
  478MOL0     C64462  -0.008   5.435  10.509 -0.1627 -0.4548  0.0479
  478MOL0     H64463   0.248   5.065  10.497 -0.5657  0.7286 -2.2520
  478MOL0     H64464   0.332   4.860  10.444  0.0623  1.0794  1.0075
  478MOL0     H64465   0.603   4.757  10.424 -0.9137 -1.0999  0.8250
  478MOL0     H64466   0.449   4.695  10.376  0.0033  0.2125  1.7996
  478MOL0     H64467   0.568   4.578  10.172  1.0665 -0.3049 -1.0124
  478MOL0     H64468   0.717   4.631  10.255  0.0566 -2.5061 -0.4455
  478MOL0     H64469   0.506   4.442  10.354  0.6675 -2.5943 -0.9286
  478MOL0     H64470   0.663   4.395  10.286 -0.6036  0.8836  0.7283
  478MOL0     H64471   0.779   4.545  10.457  1.1654 -2.7742 -2.4455
  478MOL0     H64472   0.628   4.533  10.550 -2.1259 -1.1679 -2.1841
  478MOL0     H64473   0.636   4.280  10.523 -0.6502 -0.4113  2.1710
  478MOL0     H64474   0.808   4.292  10.483  0.4469  0.5863  0.2458
  478MOL0     H64475   0.859   4.421  10.688  0.4634  0.4328 -4.6091
  478MOL0     H64476   0.709   4.370  10.761 -0.2915 -2.2627  0.4860
  478MOL0     H64477   0.785   4.125  10.695  0.7063  0.0032 -1.2729
  478MOL0     H64478   0.934   4.187  10.660 -3.8819 -2.3983 -3.2111
  478MOL0     H64479   0.763   4.170  10.908 -1.2195  2.9354  1.3833
  478MOL0     H64480   0.879   4.302  10.906 -3.9282 -0.2555  2.4048
  478MOL0     H64481   0.860   3.923  10.982 -0.5103 -0.6857 -1.0145
  478MOL0     H64482   1.109   3.798  11.159  0.6151 -5.2598  0.3838
  478MOL0     H64483   1.027   3.736  11.023  1.3519 -0.2205 -5.6128
  478MOL0     H64484   1.331   3.823  11.017 -0.7142 -0.2028  1.0084
  478MOL0     H64485   1.243   3.725  10.905  0.4962 -0.4427 -0.1921
  478MOL0     H64486   1.187   3.565  11.080 -2.4966  3.0208 -2.7369
  478MOL0     H64487   1.252   3.657  11.208 -2.7771 -0.0066 -1.0433
  478MOL0     H64488   1.413   3.519  10.967  2.9455 -1.3145 -0.1746
  478MOL0     H64489   1.385   3.455  11.134 -1.1718 -1.4350 -3.1660
  478MOL0     H64490   1.613   3.469  11.269  1.4395  1.9963 -0.1936
  478MOL0     H64491   1.803   3.193  11.243  2.2443 -0.2070  1.2731
  478MOL0     H64492   1.941   3.296  11.270  0.3897 -0.6138 -1.8739
  478MOL0     H64493   1.785   3.330  11.360  0.6386  0.9927  0.8492
  478MOL0     H64494   1.958   3.098  10.703 -0.1748  1.6243  0.8830
  478MOL0     H64495   2.122   2.925  10.662  3.8482 -1.3587  0.2871
  478MOL0     H64496   2.488   2.946  10.512 -0.6707 -1.8246  1.2672
  478MOL0     H64497   2.468   3.100  10.595  1.1516  0.9744 -1.6088
  478MOL0     H64498   2.603   3.051  10.780 -1.0540  0.0746 -0.5392
  478MOL0     H64499   2.613   2.886  10.740  3.2503  0.7041  0.6851
  478MOL0     H64500   2.762   2.906  10.574 -1.8144  0.8925 -0.5796
  478MOL0     H64501   2.812   3.020  10.703  1.9267  2.1803 -1.8262
  478MOL0     H64502   2.844   3.120  10.491  0.1004  0.9986 -1.2591
  478MOL0     H64503   2.685   3.069  10.423 -1.1402  2.4637  1.1046
  478MOL0     H64504   2.571   3.258  10.552 -0.3895  1.5203  2.0205
  478MOL0     H64505   2.690   3.316  10.442 -2.8046  1.5801  0.3447
  478MOL0     H64506   2.727   3.249  10.746  0.4342  1.0115 -0.3905
  478MOL0     H64507   2.854   3.318  10.654  0.8341 -1.1270  1.1790
  478MOL0     H64508   2.569   3.450  10.670  0.6605  1.9772 -0.6098
  478MOL0     H64509   2.702   3.512  10.594  0.6959  1.6954  0.1846
  478MOL0     H64510   2.690   3.481  10.889  2.5646 -0.8366 -0.6305
  478MOL0     H64511   2.688   3.631  10.803  4.2715  2.1021 -0.6992
  478MOL0     H64512   2.426   3.158  10.839 -0.3953  0.4919  0.1399
  478MOL0     H64513   2.254   3.321  10.928 -5.1322  1.2340  0.7615
  478MOL0     H64514   1.809   3.463  10.828  1.4102  1.9660  1.5222
  478MOL0     H64515   1.624   3.606  10.899 -0.0451 -0.6444 -1.0810
  478MOL0     H64516   0.634   5.034  10.201  0.4242 -0.1171 -0.8016
  478MOL0     H64517   0.524   5.274  10.273 -2.0627  1.0902 -1.1801
  478MOL0     H64518   0.281   5.343  10.670  0.2313 -0.7369 -2.5776
  478MOL0     H64519   0.160   5.465  10.855 -1.3432 -1.2934  0.7450
  478MOL0     H64520  -0.179   5.713  10.765 -0.5602  2.5240  1.6494
  478MOL0     H64521  -0.279   5.563  10.799 -2.0016  1.7634  1.4811
  478MOL0     H64522  -0.323   5.747  10.954  0.9858  1.8766  0.8154
  478MOL0     H64523  -0.153   5.740  11.010  1.6035 -1.1651  0.6360
  478MOL0     H64524  -0.299   5.475  11.034  1.6245 -0.6806 -1.7476
  478MOL0     H64525  -0.368   5.614  11.118  2.5515  5.7729  0.8962
  478MOL0     H64526  -0.069   5.535  11.125  1.0749  0.3530  1.9840
  478MOL0     H64527  -0.194   5.475  11.242  2.4907 -1.0094 -0.1791
  478MOL0     H64528  -0.078   5.860  11.392  0.2574  2.8294 -2.6920
  478MOL0     H64529  -0.183   5.512  10.597  0.5116  0.3836 -0.4155
  478MOL0     H64530  -0.052   5.428  10.410  1.9529  1.9848 -1.2205
  479MOL0     O64531   9.634   9.256   9.182 -0.3089 -0.0290 -0.2904
  479MOL0     C64532   9.527   9.195   9.208  0.4611 -0.8899 -0.0319
  479MOL0     O64533   9.415   9.213   9.135  0.6412 -0.6199 -0.0100
  479MOL0     C64534   9.425   9.244   9.001 -0.0857 -0.2129 -0.1493
  479MOL0     C64535   9.374   9.369   8.966  0.0517 -0.4309  0.0513
  479MOL0     C64536   9.394   9.429   8.840 -0.0503  0.7132 -0.3823
  479MOL0     C64537   9.460   9.346   8.746  0.5287  0.6063  0.7719
  479MOL0     O64538   9.480   9.394   8.615  0.4137 -0.4948 -0.1874
  479MOL0     C64539   9.612   9.366   8.559  0.0294 -0.0504  0.4451
  479MOL0     C64540   9.664   9.468   8.466  0.8423 -1.2012 -0.2233
  479MOL0     C64541   9.776   9.424   8.371  0.5177  0.1141 -0.5003
  479MOL0     C64542   9.833   9.536   8.276  0.5936  0.2697 -0.2877
  479MOL0     C64543   9.938   9.498   8.183 -1.0336  0.1425  0.0706
  479MOL0     C64544  10.076   9.523   8.250  0.0193 -0.7165  0.9656
  479MOL0     C64545  10.189   9.499   8.156 -0.4511 -0.0235  0.5914
  479MOL0     C64546  10.208   9.356   8.115  0.7035  0.4041  1.1304
  479MOL0     N64547  10.307   9.278   8.196 -0.1481  0.0690 -0.5269
  479MOL0     C64548  10.310   9.262   8.339 -0.3439 -0.7161  0.2796
  479MOL0     C64549  10.442   9.242   8.365  0.3201  0.0776  0.1679
  479MOL0     C64550  10.500   9.240   8.505 -0.9936 -0.7876  0.2888
  479MOL0     C64551  10.404   9.201   8.620  0.3032 -0.4897 -1.2063
  479MOL0     C64552  10.464   9.241   8.760  0.2990 -0.0688  0.2884
  479MOL0     C64553  10.614   9.200   8.761  0.3601  0.2094 -0.9800
  479MOL0     O64554  10.641   9.207   8.904  0.5486  0.3304 -0.0477
  479MOL0     C64555  10.598   9.110   8.982 -0.0822  1.1936  0.1184
  479MOL0     C64556  10.551   8.986   8.941  0.9661 -0.1808 -0.2241
  479MOL0     C64557  10.504   8.897   9.044 -0.6043 -0.3377  0.0039
  479MOL0     C64558  10.458   8.767   8.996 -0.9960 -0.9968 -0.0087
  479MOL0     C64559  10.515   8.924   9.187  0.7549  0.4499  0.0878
  479MOL0     C64560  10.461   8.839   9.292 -0.3429 -0.4216 -0.7941
  479MOL0     O64561  10.380   8.739   9.266  0.3277  0.6340  0.2412
  479MOL0     C64562  10.306   8.683   9.360  0.6458 -0.3748 -0.3247
  479MOL0     C64563  10.215   8.760   9.439 -0.0272 -0.7607 -0.1757
  479MOL0     C64564  10.155   8.689   9.544  0.1933  0.4477  0.1884
  479MOL0     C64565  10.173   8.554   9.576 -0.5794  0.1919 -0.4094
  479MOL0     O64566  10.115   8.488   9.679  0.0482  0.0767 -0.2298
  479MOL0     C64567  10.037   8.563   9.769  0.1366 -0.8034 -0.1997
  479MOL0     C64568   9.963   8.483   9.874  0.5003 -0.3214  0.1204
  479MOL0     C64569  10.052   8.384   9.947 -0.3092  0.6160 -0.2752
  479MOL0     C64570   9.982   8.318  10.069  0.5590  0.5496  1.6177
  479MOL0     C64571  10.088   8.241  10.128  0.7491  0.4358 -0.5020
  479MOL0     C64572  10.055   8.159  10.256 -0.2384 -1.4952 -0.3886
  479MOL0     C64573  10.175   8.074  10.305 -0.1503  0.3193  0.1880
  479MOL0     C64574  10.238   7.982  10.189 -0.3184 -0.2694 -0.9553
  479MOL0    Cl64575  10.113   7.887  10.122 -0.6181 -0.3234  0.2627
  479MOL0     C64576  10.254   8.482   9.488  0.2909 -0.2275  0.2603
  479MOL0     C64577  10.315   8.543   9.379 -0.6785 -0.2335  0.7257
  479MOL0     O64578  10.489   8.884   9.410  0.5778 -0.7437 -0.1129
  479MOL0     C64579  10.555   9.055   9.216 -0.6177  0.0343 -0.2787
  479MOL0     C64580  10.595   9.143   9.118  0.0272  0.2611 -0.3245
  479MOL0     N64581  10.517   9.241   8.246  0.8655 -1.3453 -0.7077
  479MOL0     N64582  10.431   9.264   8.153 -0.2555  0.1558  0.4887
  479MOL0     C64583   9.520   9.219   8.783  0.3490 -0.2252 -0.1941
  479MOL0     C64584   9.490   9.163   8.911 -0.0740 -0.7132 -0.0047
  479MOL0     C64585   9.510   9.124   9.341  0.0017  0.2387  0.4790
  479MOL0     C64586   9.384   9.106   9.398  0.3305 -0.1212  0.5348
  479MOL0     C64587   9.383   9.031   9.523 -0.2476  0.4284  0.1321
  479MOL0     C64588   9.502   8.982   9.578 -0.6959  0.6219  0.6583
  479MOL0     O64589   9.486   8.899   9.687  0.0035  1.0624  0.6979
  479MOL0     C64590   9.596   8.842   9.762  0.4579 -0.4103  0.4551
  479MOL0     C64591   9.529   8.779   9.889  0.1715 -0.5591  0.8463
  479MOL0     C64592   9.471   8.885   9.989  0.2310  0.7891 -0.1163
  479MOL0     C64593   9.319   8.917   9.966 -0.2087 -0.0788  0.2341
  479MOL0     C64594   9.215   8.829  10.014  0.8891 -0.2715 -0.2018
  479MOL0     C64595   9.130   8.757  10.056 -0.4164 -0.5421  0.2071
  479MOL0     C64596   9.618   8.993   9.510  0.4691  0.6750 -0.8003
  479MOL0     C64597   9.627   9.064   9.396 -1.8258 -1.0280  0.9993
  479MOL0     H64598   9.331   9.442   9.033 -1.4382 -0.9203 -0.3296
  479MOL0     H64599   9.347   9.522   8.811  0.2805  1.6476  1.8237
  479MOL0     H64600   9.699   9.343   8.622  0.0835 -0.2687  0.2891
  479MOL0     H64601   9.574   9.283   8.500  1.4693 -0.0483 -0.5551
  479MOL0     H64602   9.585   9.513   8.406  0.4525 -2.5988 -0.8007
  479MOL0     H64603   9.708   9.544   8.531  1.9255 -1.0733 -1.0710
  479MOL0     H64604   9.863   9.379   8.418  1.7654  0.1802 -2.6136
  479MOL0     H64605   9.722   9.349   8.312 -0.0913  0.0590  0.1065
  479MOL0     H64606   9.754   9.580   8.214  0.4366  0.9492  0.3814
  479MOL0     H64607   9.854   9.622   8.339 -3.7226  0.3951  1.2953
  479MOL0     H64608   9.934   9.399   8.135  0.7092  0.8292 -1.6277
  479MOL0     H64609   9.939   9.575   8.106 -0.6861  0.6553  0.5840
  479MOL0     H64610  10.085   9.631   8.264  0.4345 -0.2538 -2.2447
  479MOL0     H64611  10.094   9.478   8.349 -0.4473  1.9308  2.3607
  479MOL0     H64612  10.167   9.555   8.065  0.8754  1.5072  1.1500
  479MOL0     H64613  10.285   9.539   8.191 -1.0395  0.4791  1.6678
  479MOL0     H64614  10.245   9.344   8.012  0.1306 -3.0613  1.2238
  479MOL0     H64615  10.112   9.305   8.126  1.6930 -1.1169  3.3706
  479MOL0     H64616  10.229   9.260   8.411 -0.4215 -0.0043  0.2259
  479MOL0     H64617  10.592   9.181   8.505 -0.9313 -0.7989 -2.0337
  479MOL0     H64618  10.534   9.344   8.516  2.4064 -1.6994 -0.3200
  479MOL0     H64619  10.383   9.093   8.614  2.1835 -1.0020  0.4356
  479MOL0     H64620  10.308   9.253   8.615 -0.4956 -1.5234  1.3883
  479MOL0     H64621  10.398   9.197   8.836 -2.3658  0.5199 -1.5342
  479MOL0     H64622  10.457   9.349   8.775  0.7578  0.0046 -0.0159
  479MOL0     H64623  10.687   9.270   8.718 -0.0589  0.8220 -0.7197
  479MOL0     H64624  10.626   9.105   8.710  2.6992  0.1655 -0.4923
  479MOL0     H64625  10.560   8.958   8.837 -1.9942  0.9683 -0.8955
  479MOL0     H64626  10.484   8.759   8.890 -0.3726 -1.1629  0.1512
  479MOL0     H64627  10.511   8.688   9.050  0.4930  0.9673  1.5685
  479MOL0     H64628  10.350   8.761   9.007 -1.0095 -0.1149  0.4409
  479MOL0     H64629  10.202   8.866   9.420 -1.4987 -0.1553  3.4622
  479MOL0     H64630  10.105   8.757   9.612  1.0189  0.8253  0.4333
  479MOL0     H64631  10.107   8.622   9.828 -0.4426  0.0877 -0.3920
  479MOL0     H64632   9.964   8.628   9.719  0.2647 -0.1708  0.4325
  479MOL0     H64633   9.936   8.560   9.948  1.1588  0.0820 -0.0481
  479MOL0     H64634   9.873   8.438   9.834  0.9878 -0.5309 -0.7502
  479MOL0     H64635  10.132   8.451   9.982 -0.5952  2.1036 -2.3221
  479MOL0     H64636  10.087   8.305   9.879  2.2393 -2.3770  3.9987
  479MOL0     H64637   9.942   8.397  10.134  0.4979  0.5754  1.5497
  479MOL0     H64638   9.900   8.247  10.052  1.8129 -1.1603  2.4841
  479MOL0     H64639  10.160   8.318  10.159 -0.0457  0.9169  0.1788
  479MOL0     H64640  10.127   8.170  10.054  0.2123  1.0020 -1.3447
  479MOL0     H64641  10.036   8.232  10.336  1.2526 -2.3291  0.7802
  479MOL0     H64642   9.968   8.095  10.243 -0.3647 -1.5222  0.5232
  479MOL0     H64643  10.147   8.001  10.382  2.7276 -1.3108 -0.1602
  479MOL0     H64644  10.249   8.147  10.339 -0.5226  0.8843 -0.2167
  479MOL0     H64645  10.305   7.910  10.238 -1.7047  0.2061  1.8334
  479MOL0     H64646  10.298   8.039  10.118 -0.8692  1.9897  0.2814
  479MOL0     H64647  10.249   8.375   9.502  1.2767 -0.2881  0.2418
  479MOL0     H64648  10.356   8.475   9.305 -1.0114 -0.5251  0.8078
  479MOL0     H64649  10.575   9.087   9.318  2.8958 -1.1144 -0.4460
  479MOL0     H64650  10.618   9.244   9.151 -0.4042 -0.0735  1.0371
  479MOL0     H64651   9.576   9.159   8.712  2.0386  2.4440 -1.2139
  479MOL0     H64652   9.518   9.065   8.949 -2.1336 -0.2890  2.9458
  479MOL0     H64653   9.297   9.151   9.353 -1.7303 -2.8848  1.5145
  479MOL0     H64654   9.290   9.022   9.578 -0.7271  2.6239 -0.1935
  479MOL0     H64655   9.642   8.772   9.691  0.4139  0.8357 -0.8573
  479MOL0     H64656   9.664   8.925   9.782 -1.7211  0.6566  4.5288
  479MOL0     H64657   9.597   8.708   9.936 -1.5922 -2.2452  1.0054
  479MOL0     H64658   9.440   8.719   9.867 -0.9371  0.3163  2.6445
  479MOL0     H64659   9.534   8.972   9.968  0.6932  0.8180  1.3030
  479MOL0     H64660   9.480   8.848  10.091 -2.7534  1.3400  0.4516
  479MOL0     H64661   9.310   8.924   9.858 -1.0478 -1.3739  0.2058
  479MOL0     H64662   9.311   9.019  10.004  0.9973  0.7235 -1.5137
  479MOL0     H64663   9.059   8.695  10.107 -0.6142 -0.3972  0.1087
  479MOL0     H64664   9.715   8.961   9.548 -0.1171  0.8235  0.8579
  479MOL0     H64665   9.721   9.084   9.346 -2.0980  1.7119  1.3910
  480MOL0     O64666   3.478   5.662   2.199  0.1026 -0.2920  0.0389
  480MOL0     C64667   3.523   5.770   2.235 -0.3390 -0.1912  0.0559
  480MOL0     O64668   3.649   5.787   2.273  0.4272 -0.8695  0.7284
  480MOL0     C64669   3.746   5.693   2.243  0.0486  0.2464 -0.5301
  480MOL0     C64670   3.840   5.684   2.341 -0.1795 -1.4101  0.0117
  480MOL0     C64671   3.965   5.620   2.320 -0.0043 -0.2652 -0.9367
  480MOL0     C64672   3.984   5.547   2.203  0.4518  0.0613  0.5843
  480MOL0     O64673   4.113   5.496   2.175  0.1046  0.1080 -0.1114
  480MOL0     C64674   4.106   5.361   2.128 -0.8944  0.4556 -0.0678
  480MOL0     C64675   4.251   5.316   2.119 -0.1900 -0.0904  0.5708
  480MOL0     C64676   4.258   5.169   2.064  0.0519 -1.6941 -0.7526
  480MOL0     C64677   4.405   5.120   2.067 -0.4535  0.7978 -0.0285
  480MOL0     C64678   4.407   4.974   2.024  0.0780 -0.1680  1.1888
  480MOL0     C64679   4.541   4.919   2.029 -0.7421  0.1077 -0.0061
  480MOL0     C64680   4.560   4.777   1.981  0.0979  0.3007  0.2267
  480MOL0     C64681   4.677   4.715   2.051 -0.6527 -0.0066 -0.2270
  480MOL0     N64682   4.673   4.572   2.028  0.5383 -0.1853 -0.2956
  480MOL0     C64683   4.734   4.505   1.923 -0.5854 -0.6874 -0.0673
  480MOL0     C64684   4.743   4.379   1.966 -0.0844  0.1644 -1.3312
  480MOL0     C64685   4.793   4.261   1.893 -0.1575 -0.0519  0.3844
  480MOL0     C64686   4.945   4.266   1.880  0.3861  0.6384  0.3995
  480MOL0     C64687   5.000   4.149   1.797  0.2318 -0.2024 -0.7104
  480MOL0     C64688   5.007   4.024   1.875 -0.8517  0.5984  0.4407
  480MOL0     O64689   5.087   4.045   1.996  0.4282  0.8860  0.3056
  480MOL0     C64690   5.128   3.929   2.074 -0.7632  0.4492  0.0493
  480MOL0     C64691   5.151   3.935   2.211 -0.3587 -0.7260  0.8225
  480MOL0     C64692   5.204   3.833   2.294 -1.2621  0.5628  0.7669
  480MOL0     C64693   5.226   3.852   2.444  0.2570 -0.5647  0.8486
  480MOL0     C64694   5.228   3.706   2.238 -0.4344 -0.3369  0.0486
  480MOL0     C64695   5.278   3.588   2.310 -0.2817 -0.8429 -0.2841
  480MOL0     O64696   5.194   3.551   2.418  0.5730 -0.4900 -0.8717
  480MOL0     C64697   5.248   3.459   2.504 -0.3518 -1.1457  0.3936
  480MOL0     C64698   5.385   3.442   2.535 -0.5828 -0.5839 -0.5456
  480MOL0     C64699   5.429   3.345   2.627  0.6913  0.1388 -0.1218
  480MOL0     C64700   5.339   3.266   2.702 -0.5559 -0.7936  0.4466
  480MOL0     O64701   5.382   3.191   2.809 -0.1363 -0.4913 -0.0389
  480MOL0     C64702   5.513   3.192   2.861 -0.5741  0.6368  0.8018
  480MOL0     C64703   5.516   3.126   2.996 -0.2645 -0.0387  0.6277
  480MOL0     C64704   5.631   3.183   3.087 -0.8075  1.0756 -0.9612
  480MOL0     C64705   5.628   3.125   3.238 -1.5549 -0.3160  1.1531
  480MOL0     C64706   5.764   3.155   3.314 -0.5482  0.8475  0.1044
  480MOL0     C64707   5.779   3.077   3.448 -1.2047  0.2735  0.4767
  480MOL0     C64708   5.893   3.151   3.535 -0.6182 -0.2563 -0.6290
  480MOL0     C64709   5.846   3.266   3.639  0.4196  0.1462  0.2135
  480MOL0    Cl64710   5.832   3.423   3.532 -0.0997 -0.0225  0.5791
  480MOL0     C64711   5.202   3.290   2.674 -1.1319  0.2572 -0.3831
  480MOL0     C64712   5.154   3.383   2.579  0.7927 -0.2084 -0.0681
  480MOL0     O64713   5.355   3.516   2.244  0.3788 -0.4604  0.1766
  480MOL0     C64714   5.197   3.696   2.098  0.4282  0.3112  0.1612
  480MOL0     C64715   5.161   3.802   2.018  0.3304  0.7132  0.4548
  480MOL0     N64716   4.694   4.367   2.094  0.1273 -0.2925 -0.3822
  480MOL0     N64717   4.662   4.485   2.133 -0.1103  0.3134  0.5371
  480MOL0     C64718   3.879   5.540   2.108  0.9740 -0.8512  0.9763
  480MOL0     C64719   3.766   5.619   2.121  0.4649 -0.5924  0.1597
  480MOL0     C64720   3.445   5.889   2.209 -0.1700 -0.1421 -0.3386
  480MOL0     C64721   3.510   6.020   2.212  0.4426  0.5586 -1.4193
  480MOL0     C64722   3.433   6.132   2.191  0.3079 -0.5707  0.6601
  480MOL0     C64723   3.291   6.124   2.190 -0.0717 -0.4946 -1.0161
  480MOL0     O64724   3.203   6.229   2.191 -0.3002  0.8963  0.6272
  480MOL0     C64725   3.257   6.362   2.162  0.9928 -1.2144  0.1713
  480MOL0     C64726   3.149   6.466   2.109 -0.2472 -0.5555 -0.6226
  480MOL0     C64727   3.208   6.604   2.100  1.2133  0.7123 -0.3814
  480MOL0     C64728   3.115   6.674   1.991  0.0475  0.4599 -0.5577
  480MOL0     C64729   3.170   6.798   1.946  0.2571  0.2331 -0.5680
  480MOL0     C64730   3.219   6.903   1.912 -0.1043  0.6728  0.1870
  480MOL0     C64731   3.236   5.995   2.182 -0.9006 -0.1723  0.5294
  480MOL0     C64732   3.313   5.875   2.189  0.6588  0.6580 -0.1339
  480MOL0     H64733   3.840   5.743   2.432  1.6508 -3.1611  1.2135
  480MOL0     H64734   4.041   5.606   2.397  0.1965  3.3711 -0.2659
  480MOL0     H64735   4.047   5.295   2.193 -0.6968 -1.5738 -1.8623
  480MOL0     H64736   4.064   5.352   2.028  1.4503  2.1459 -1.2860
  480MOL0     H64737   4.302   5.379   2.046 -1.9050  0.0515 -0.5877
  480MOL0     H64738   4.299   5.323   2.216 -0.3115 -0.4288  0.6585
  480MOL0     H64739   4.185   5.106   2.116 -1.7111  0.2032 -0.8019
  480MOL0     H64740   4.234   5.183   1.958  2.2912 -1.0761 -1.2250
  480MOL0     H64741   4.476   5.181   2.012 -0.2389 -1.5155 -2.4908
  480MOL0     H64742   4.428   5.115   2.174  1.1470 -3.0306 -0.4050
  480MOL0     H64743   4.333   4.919   2.083 -1.2966 -0.2415 -0.5305
  480MOL0     H64744   4.364   4.982   1.924  0.8240  0.4339  0.9082
  480MOL0     H64745   4.608   4.981   1.968 -0.3096 -1.5762 -1.2877
  480MOL0     H64746   4.570   4.931   2.134 -3.1551 -1.3195  0.9042
  480MOL0     H64747   4.472   4.716   2.001  0.0568 -1.7894 -4.8191
  480MOL0     H64748   4.569   4.783   1.872 -0.2365  1.6647  0.2462
  480MOL0     H64749   4.675   4.733   2.159  3.3299  2.6604 -0.3832
  480MOL0     H64750   4.769   4.764   2.018 -0.5292 -0.2587 -0.2608
  480MOL0     H64751   4.767   4.557   1.833  0.3996  0.9840  1.1920
  480MOL0     H64752   4.751   4.173   1.942 -1.4731 -0.2364 -1.0320
  480MOL0     H64753   4.754   4.273   1.792  1.5590 -1.3186 -0.4803
  480MOL0     H64754   4.987   4.270   1.980  0.3332  1.2820  0.4055
  480MOL0     H64755   4.964   4.356   1.819 -1.2956  2.2714  2.1378
  480MOL0     H64756   5.100   4.191   1.781  0.1257  0.5176  0.4062
  480MOL0     H64757   4.943   4.127   1.706  0.3427 -0.7509 -0.6483
  480MOL0     H64758   5.056   3.959   1.802  1.8538  2.0994  0.7991
  480MOL0     H64759   4.913   3.984   1.915 -1.4841  3.5076  2.1466
  480MOL0     H64760   5.136   4.035   2.248  2.2080  0.9137 -2.0942
  480MOL0     H64761   5.335   3.863   2.454  0.3135  2.1590 -1.4192
  480MOL0     H64762   5.195   3.953   2.472 -1.7375 -1.3580  1.6455
  480MOL0     H64763   5.175   3.785   2.513 -0.0242  2.2631  3.6451
  480MOL0     H64764   5.457   3.509   2.489 -3.0435  3.2744  0.7897
  480MOL0     H64765   5.535   3.346   2.649  1.3335  1.1871 -2.9414
  480MOL0     H64766   5.582   3.136   2.796 -2.1961 -0.4948  0.0003
  480MOL0     H64767   5.549   3.295   2.866 -1.3658  0.9399  0.3651
  480MOL0     H64768   5.428   3.157   3.055 -1.5562 -0.5759 -0.9472
  480MOL0     H64769   5.516   3.018   2.979 -1.2568  0.2548 -1.5246
  480MOL0     H64770   5.633   3.290   3.107 -0.4886  0.9524 -0.2930
  480MOL0     H64771   5.723   3.145   3.040 -0.1763 -3.2841  3.0153
  480MOL0     H64772   5.546   3.154   3.303 -3.4798  0.6811 -1.5202
  480MOL0     H64773   5.610   3.017   3.234 -0.9778 -0.3921 -0.6619
  480MOL0     H64774   5.760   3.263   3.333  0.9380  0.7730  0.9917
  480MOL0     H64775   5.851   3.123   3.255 -0.2565 -1.8442  1.8473
  480MOL0     H64776   5.682   3.067   3.498 -0.9143 -0.6861  0.8744
  480MOL0     H64777   5.799   2.971   3.431 -0.2451  0.7483 -1.5763
  480MOL0     H64778   5.982   3.182   3.479 -0.6142  1.9891  0.5303
  480MOL0     H64779   5.922   3.072   3.605 -1.3530  0.7069  0.8200
  480MOL0     H64780   5.918   3.274   3.721 -0.0099 -1.3429  0.7676
  480MOL0     H64781   5.755   3.260   3.699  0.3220  2.1838  0.3347
  480MOL0     H64782   5.134   3.244   2.746 -1.1742  4.2099  2.4546
  480MOL0     H64783   5.047   3.401   2.585  0.5346 -1.8748  1.1839
  480MOL0     H64784   5.219   3.603   2.047  1.6685  0.9796 -0.5869
  480MOL0     H64785   5.152   3.795   1.910  1.1953  0.5016  0.3830
  480MOL0     H64786   3.893   5.479   2.020  0.5722  0.1941  0.1710
  480MOL0     H64787   3.706   5.604   2.032  1.3195 -1.6504 -0.2535
  480MOL0     H64788   3.618   6.029   2.217  0.5949 -1.3825  0.9436
  480MOL0     H64789   3.477   6.230   2.207 -0.2924 -0.4971  2.0291
  480MOL0     H64790   3.282   6.409   2.258 -0.9524  5.0353 -1.8983
  480MOL0     H64791   3.338   6.370   2.089 -0.9841  1.1549 -1.9733
  480MOL0     H64792   3.064   6.481   2.176 -2.2800 -2.1863 -2.6973
  480MOL0     H64793   3.107   6.425   2.017  1.7976  0.7294 -2.2221
  480MOL0     H64794   3.307   6.597   2.055  0.5749 -2.1916 -1.5676
  480MOL0     H64795   3.201   6.647   2.200 -0.0522 -1.0497  0.3402
  480MOL0     H64796   3.017   6.691   2.036  0.8424  1.5743  0.8393
  480MOL0     H64797   3.103   6.614   1.900  0.1665 -1.6394  0.7297
  480MOL0     H64798   3.278   6.991   1.894 -0.3424  0.6337 -0.8630
  480MOL0     H64799   3.127   5.995   2.173 -0.8978  1.8805  0.0234
  480MOL0     H64800   3.267   5.777   2.187 -3.2733  2.2935  1.0857
  481MOL0     O64801   8.078   7.373   6.084  0.2814  0.6728  0.0094
  481MOL0     C64802   7.984   7.406   6.160 -0.5277 -1.3007  0.6748
  481MOL0     O64803   7.903   7.509   6.136 -0.2742  0.7212 -0.0752
  481MOL0     C64804   7.894   7.557   6.009 -0.2672 -0.8654  0.7186
  481MOL0     C64805   7.935   7.693   5.988 -0.3470 -0.2541  0.3203
  481MOL0     C64806   7.933   7.751   5.864 -0.0089 -0.4931 -0.1354
  481MOL0     C64807   7.890   7.671   5.756  0.2141 -0.2543 -0.6826
  481MOL0     O64808   7.880   7.730   5.631 -0.2981  0.2825 -0.4471
  481MOL0     C64809   7.947   7.670   5.516  0.7798 -0.3949  0.2513
  481MOL0     C64810   7.883   7.698   5.378  0.4419 -1.5652 -0.6647
  481MOL0     C64811   7.833   7.849   5.380  0.7355  0.5061  0.5244
  481MOL0     C64812   7.805   7.904   5.243  0.0142 -0.4178 -0.4582
  481MOL0     C64813   7.911   7.889   5.135  0.0859  0.1261 -0.7494
  481MOL0     C64814   8.043   7.952   5.174 -0.3347 -0.3398 -1.2795
  481MOL0     C64815   8.109   8.020   5.051 -0.0405  0.8176  0.3108
  481MOL0     C64816   8.029   8.146   4.993 -1.1193  0.0602 -0.7972
  481MOL0     N64817   8.026   8.245   5.105  0.5469 -0.2699  0.3646
  481MOL0     C64818   8.134   8.314   5.147  0.0887  0.3537  1.2806
  481MOL0     C64819   8.083   8.414   5.227 -0.2424 -0.2424 -0.8151
  481MOL0     C64820   8.155   8.527   5.295 -0.2024  0.2585  0.6633
  481MOL0     C64821   8.244   8.603   5.190  0.5143  0.5957 -0.1371
  481MOL0     C64822   8.389   8.556   5.163  0.2614 -0.2842 -0.0641
  481MOL0     C64823   8.452   8.663   5.078 -0.1679  0.8984 -0.5039
  481MOL0     O64824   8.501   8.761   5.174 -0.4412 -0.0904 -0.2795
  481MOL0     C64825   8.522   8.886   5.125 -0.0640 -0.2809 -0.1388
  481MOL0     C64826   8.461   9.002   5.186  0.9871  0.0982 -0.2099
  481MOL0     C64827   8.476   9.128   5.131 -0.7433  0.1543  0.2838
  481MOL0     C64828   8.386   9.235   5.181 -0.1061  0.5306 -0.2191
  481MOL0     C64829   8.564   9.148   5.019 -0.0826 -0.6529  0.2349
  481MOL0     C64830   8.589   9.281   4.950  1.0196  0.7921  0.5720
  481MOL0     O64831   8.616   9.393   5.023 -0.0517  0.2091  0.2497
  481MOL0     C64832   8.636   9.516   4.963  0.2783  0.3588  0.1692
  481MOL0     C64833   8.741   9.548   4.876 -0.4578 -0.0097  0.8786
  481MOL0     C64834   8.737   9.664   4.792 -1.8567 -0.1377  0.6077
  481MOL0     C64835   8.644   9.760   4.824  0.2179  0.4522  0.0818
  481MOL0     O64836   8.633   9.878   4.764  0.1728 -0.0507  0.8795
  481MOL0     C64837   8.761   9.952   4.749 -0.2049  0.5307 -0.5964
  481MOL0     C64838   8.738  10.086   4.677 -0.4644 -0.4048  0.2898
  481MOL0     C64839   8.865  10.180   4.680 -1.2773 -0.0152  0.7896
  481MOL0     C64840   8.832  10.307   4.605  0.7542  0.4983  0.3959
  481MOL0     C64841   8.951  10.382   4.545 -0.2635  1.1044  0.1881
  481MOL0     C64842   9.054  10.426   4.659  0.8152  0.7398 -0.0922
  481MOL0     C64843   9.182  10.343   4.659 -0.7562  0.5315  0.4564
  481MOL0     C64844   9.286  10.398   4.763 -0.4776  0.2283  0.3199
  481MOL0    Cl64845   9.316  10.570   4.717 -0.4520  0.0355 -0.1503
  481MOL0     C64846   8.543   9.730   4.919 -0.0057  0.5177  1.0561
  481MOL0     C64847   8.538   9.608   4.987  0.3733  0.7851 -0.4554
  481MOL0     O64848   8.599   9.274   4.832  0.4870  0.7876  1.0212
  481MOL0     C64849   8.613   9.026   4.963 -0.1445 -0.7982  0.3376
  481MOL0     C64850   8.591   8.903   5.012 -0.5868  0.1416  1.1348
  481MOL0     N64851   7.945   8.400   5.240  0.4186 -0.0347  0.3805
  481MOL0     N64852   7.909   8.299   5.165  0.1252  0.0138  0.8016
  481MOL0     C64853   7.858   7.540   5.770 -0.1148 -0.3565 -1.0771
  481MOL0     C64854   7.853   7.482   5.893  0.2680  0.9741 -0.9298
  481MOL0     C64855   7.970   7.343   6.288  0.1821 -0.1829 -0.1360
  481MOL0     C64856   7.883   7.394   6.387  0.4236 -0.2675  0.5843
  481MOL0     C64857   7.858   7.337   6.504 -0.3198 -0.5601  0.0966
  481MOL0     C64858   7.938   7.228   6.537  0.1009  0.2664 -0.2233
  481MOL0     O64859   7.908   7.169   6.655 -0.5213 -0.2628 -0.3856
  481MOL0     C64860   7.813   7.057   6.638 -0.5091 -0.2712  0.2603
  481MOL0     C64861   7.857   6.939   6.717 -0.7189  0.6745 -0.7803
  481MOL0     C64862   7.981   6.871   6.654 -0.6785  0.0317  0.2057
  481MOL0     C64863   7.994   6.722   6.693 -0.2726  0.0562 -0.2334
  481MOL0     C64864   8.021   6.706   6.838 -0.0922  0.3750 -0.6714
  481MOL0     C64865   8.039   6.675   6.958 -0.0046 -0.0102  0.0754
  481MOL0     C64866   8.029   7.171   6.446  0.3747 -0.7034 -0.4361
  481MOL0     C64867   8.046   7.227   6.320  0.4761  0.0110 -0.2385
  481MOL0     H64868   7.961   7.753   6.074 -1.0379 -0.5185  0.7169
  481MOL0     H64869   7.947   7.856   5.838 -0.2412 -1.0661 -2.9282
  481MOL0     H64870   8.047   7.712   5.499 -0.3183  2.6144  0.7160
  481MOL0     H64871   7.958   7.561   5.524  0.8202 -0.3954  0.1911
  481MOL0     H64872   7.959   7.684   5.301 -1.8049 -0.6988 -3.1688
  481MOL0     H64873   7.794   7.647   5.339 -1.7166  3.1931 -2.6966
  481MOL0     H64874   7.752   7.871   5.450  0.2872 -3.2516  1.4251
  481MOL0     H64875   7.920   7.894   5.429  2.0203 -1.1608 -0.1023
  481MOL0     H64876   7.719   7.844   5.213  2.1511 -3.8456 -0.3351
  481MOL0     H64877   7.787   8.012   5.247  2.2053  0.0102 -0.6589
  481MOL0     H64878   7.915   7.786   5.100  0.6707  0.9806 -3.4418
  481MOL0     H64879   7.865   7.934   5.046  2.0112  0.8454 -1.4221
  481MOL0     H64880   8.025   8.022   5.256 -2.6183 -2.4072  0.1361
  481MOL0     H64881   8.105   7.873   5.219 -2.6065 -1.0729  0.8194
  481MOL0     H64882   8.215   8.038   5.073  0.7814 -2.0276 -0.9412
  481MOL0     H64883   8.110   7.947   4.970  1.2549  0.4886  0.6088
  481MOL0     H64884   7.930   8.127   4.950 -2.0595  1.0881  0.8211
  481MOL0     H64885   8.099   8.201   4.929  2.0524  1.0100  3.1452
  481MOL0     H64886   8.237   8.296   5.116  0.0514  0.1361  1.2797
  481MOL0     H64887   8.076   8.593   5.332 -0.4468  1.3014 -1.5103
  481MOL0     H64888   8.219   8.486   5.373  0.1400 -3.4247 -1.3333
  481MOL0     H64889   8.243   8.709   5.217  0.7528  1.0764 -1.8876
  481MOL0     H64890   8.188   8.599   5.097 -1.7280  0.8560  1.1255
  481MOL0     H64891   8.399   8.464   5.104 -0.2734 -1.4228  1.5453
  481MOL0     H64892   8.438   8.552   5.261 -1.8967  4.9659  1.5858
  481MOL0     H64893   8.373   8.687   5.006 -0.4767 -2.5792 -1.5125
  481MOL0     H64894   8.540   8.621   5.028 -0.3920  0.1884 -0.3128
  481MOL0     H64895   8.402   8.981   5.275  0.6633 -2.3215 -0.9053
  481MOL0     H64896   8.313   9.257   5.103 -0.1692 -0.2109 -0.3669
  481MOL0     H64897   8.329   9.198   5.267 -2.6717  1.6247 -1.3561
  481MOL0     H64898   8.444   9.321   5.218 -1.0215  0.7540  0.7531
  481MOL0     H64899   8.817   9.471   4.864 -2.9306 -2.3311 -1.0193
  481MOL0     H64900   8.823   9.667   4.725 -2.3295  1.3372  0.0171
  481MOL0     H64901   8.797   9.965   4.851 -1.5565 -1.9499  0.2701
  481MOL0     H64902   8.842   9.901   4.695 -0.6485 -2.2175  1.1349
  481MOL0     H64903   8.696  10.077   4.576 -3.2381 -0.2053  1.3530
  481MOL0     H64904   8.659  10.141   4.728  0.7540  0.1524  1.6126
  481MOL0     H64905   8.956  10.127   4.650 -1.6749  0.4436 -1.4170
  481MOL0     H64906   8.886  10.211   4.783 -1.4122 -3.0639  1.8341
  481MOL0     H64907   8.769  10.288   4.518  2.3760 -0.4702 -0.6044
  481MOL0     H64908   8.779  10.373   4.675  0.9668 -0.8840  1.9267
  481MOL0     H64909   8.917  10.472   4.493  0.3619 -0.4011 -3.1114
  481MOL0     H64910   9.009  10.315   4.481  0.9649 -0.3577  2.6580
  481MOL0     H64911   9.056  10.535   4.651  1.5998  0.6008 -2.7297
  481MOL0     H64912   9.000  10.422   4.754 -2.1332 -1.0414 -1.7127
  481MOL0     H64913   9.231  10.354   4.562 -0.9566 -0.3984  0.2381
  481MOL0     H64914   9.157  10.240   4.686 -0.1180  0.6439  1.5408
  481MOL0     H64915   9.381  10.346   4.750 -1.5357 -2.1024  1.4564
  481MOL0     H64916   9.256  10.383   4.867  1.4664 -0.5689  0.8049
  481MOL0     H64917   8.449   9.780   4.938  0.4051  0.9280  2.1078
  481MOL0     H64918   8.453   9.596   5.053 -0.5885 -1.3642 -1.9679
  481MOL0     H64919   8.672   9.008   4.874 -1.4564 -4.1457  0.0067
  481MOL0     H64920   8.639   8.822   4.958  0.6281  2.1350 -0.9258
  481MOL0     H64921   7.811   7.485   5.689 -0.1699 -3.4028  0.8540
  481MOL0     H64922   7.806   7.384   5.895  0.3577  0.9362 -0.5996
  481MOL0     H64923   7.823   7.480   6.359  1.4336  0.0715 -0.6430
  481MOL0     H64924   7.793   7.381   6.579 -1.3384  0.5360 -1.3920
  481MOL0     H64925   7.715   7.088   6.678 -1.1953 -0.0485 -1.5012
  481MOL0     H64926   7.807   7.028   6.533  1.7868  0.0869 -0.0116
  481MOL0     H64927   7.775   6.868   6.720 -1.8194  1.8466  3.3106
  481MOL0     H64928   7.887   6.970   6.818  0.8029 -2.4526 -0.1651
  481MOL0     H64929   8.066   6.926   6.697 -2.7679  2.8933  1.0548
  481MOL0     H64930   7.985   6.888   6.547  1.3127  3.9426  0.7166
  481MOL0     H64931   8.079   6.686   6.635 -0.5541  1.2923 -1.4690
  481MOL0     H64932   7.910   6.659   6.665 -0.3494  0.5842 -1.2124
  481MOL0     H64933   8.053   6.650   7.061  1.8813 -0.7180 -0.3035
  481MOL0     H64934   8.086   7.086   6.481  0.4131 -0.1998  0.7952
  481MOL0     H64935   8.120   7.190   6.250 -2.2069 -0.1802 -3.2224
  482MOL0     O64936   4.906   3.461   7.282  0.1621  0.3494  0.2041
  482MOL0     C64937   4.875   3.551   7.368 -0.1159 -0.2699 -0.4608
  482MOL0     O64938   4.853   3.525   7.499  0.0853  0.9696  0.3072
  482MOL0     C64939   4.859   3.397   7.547 -0.5269  0.3650  0.1051
  482MOL0     C64940   4.937   3.366   7.657  0.6327  0.0059 -0.5462
  482MOL0     C64941   4.936   3.237   7.712  0.6143  0.1241  0.0663
  482MOL0     C64942   4.869   3.130   7.652 -1.0508  0.1235 -0.3448
  482MOL0     O64943   4.864   2.996   7.695  0.0114  0.4462 -0.2102
  482MOL0     C64944   4.952   2.959   7.803 -0.2573  0.3612 -0.5653
  482MOL0     C64945   4.924   2.815   7.858 -1.0152 -0.0354 -0.1419
  482MOL0     C64946   4.956   2.785   8.006 -0.0431 -0.0380 -0.0130
  482MOL0     C64947   5.101   2.808   8.050 -0.2978 -0.0878  0.2641
  482MOL0     C64948   5.110   2.832   8.206  0.4446  0.6847  0.0616
  482MOL0     C64949   5.260   2.837   8.246  0.9712  0.5483  0.3307
  482MOL0     C64950   5.270   2.883   8.402 -0.0346  0.1115  1.2196
  482MOL0     C64951   5.406   2.942   8.444 -0.5970 -0.0991 -1.1896
  482MOL0     N64952   5.410   2.997   8.584  0.2779  0.6696 -0.2666
  482MOL0     C64953   5.372   2.945   8.705 -0.4795  0.9633 -0.3776
  482MOL0     C64954   5.428   3.035   8.799  0.3777  0.8243  0.0573
  482MOL0     C64955   5.421   3.016   8.954  0.2502  0.4319  0.2429
  482MOL0     C64956   5.561   3.003   9.005  0.3957  0.6113 -0.4397
  482MOL0     C64957   5.645   2.876   8.966 -0.0023 -0.4784  0.1837
  482MOL0     C64958   5.580   2.744   8.942  0.8397 -0.5188 -0.3532
  482MOL0     O64959   5.678   2.651   8.883  0.3686  0.3524  0.5048
  482MOL0     C64960   5.708   2.659   8.743  0.1864  0.3093 -0.3365
  482MOL0     C64961   5.623   2.579   8.656 -0.1703  0.1822  0.0349
  482MOL0     C64962   5.646   2.575   8.516 -0.7385 -0.1530 -0.5845
  482MOL0     C64963   5.561   2.477   8.442  0.1803  0.6045  1.1249
  482MOL0     C64964   5.721   2.676   8.463  0.1015  0.6275  0.6721
  482MOL0     C64965   5.727   2.715   8.317 -0.5773 -1.0496 -0.2739
  482MOL0     O64966   5.773   2.831   8.274  0.0514  0.4725 -0.0300
  482MOL0     C64967   5.911   2.856   8.255 -0.6660  0.3297 -0.4900
  482MOL0     C64968   6.006   2.742   8.249  0.2407 -0.4111  0.7432
  482MOL0     C64969   6.135   2.778   8.226 -0.3442 -1.0809  0.9486
  482MOL0     C64970   6.188   2.914   8.221 -0.7621  1.1027  0.5073
  482MOL0     O64971   6.329   2.932   8.193 -0.1136 -0.2735 -0.2761
  482MOL0     C64972   6.387   3.058   8.181  0.1729  0.0102  0.1924
  482MOL0     C64973   6.356   3.113   8.042  0.5887  0.5262 -1.3429
  482MOL0     C64974   6.393   3.009   7.929  0.3633  0.3122  1.0792
  482MOL0     C64975   6.532   2.946   7.932  0.2245 -0.5019 -0.0825
  482MOL0     C64976   6.571   2.865   7.817 -2.0540  0.8657  0.4136
  482MOL0     C64977   6.576   2.915   7.671  0.1498  0.3446  1.4152
  482MOL0     C64978   6.652   3.043   7.649 -0.4631 -0.6156 -0.5590
  482MOL0     C64979   6.744   3.029   7.521 -0.9197  0.2106 -0.1486
  482MOL0    Cl64980   6.800   3.205   7.485  0.4474  0.1336 -0.3462
  482MOL0     C64981   6.100   3.020   8.242 -0.2058  1.4162  0.3474
  482MOL0     C64982   5.957   2.992   8.252  0.6475  0.2878 -0.2923
  482MOL0     O64983   5.703   2.626   8.237 -0.4776 -0.4545 -0.6645
  482MOL0     C64984   5.793   2.764   8.551  0.8515  0.4235  0.5394
  482MOL0     C64985   5.790   2.756   8.690 -0.1765 -0.0500 -0.2881
  482MOL0     N64986   5.493   3.137   8.736 -0.2363 -0.1711  0.2286
  482MOL0     N64987   5.478   3.107   8.609  0.3676 -0.8176 -0.4071
  482MOL0     C64988   4.792   3.166   7.546  0.8031  1.3728  0.4952
  482MOL0     C64989   4.794   3.287   7.486  0.2644  0.4560 -0.6252
  482MOL0     C64990   4.865   3.685   7.313  0.1206 -0.8202 -1.0647
  482MOL0     C64991   4.869   3.784   7.406 -0.5076 -0.6688  0.8257
  482MOL0     C64992   4.845   3.909   7.354  0.8448 -0.9043  0.1951
  482MOL0     C64993   4.805   3.939   7.217 -0.7235  0.0772 -0.4721
  482MOL0     O64994   4.776   4.065   7.171 -0.7490  0.1504 -0.2092
  482MOL0     C64995   4.803   4.172   7.257 -0.7142 -0.6502  0.3112
  482MOL0     C64996   4.802   4.301   7.171  0.9996  0.3478 -0.7984
  482MOL0     C64997   4.941   4.325   7.102 -0.2447  0.8581 -0.0684
  482MOL0     C64998   4.952   4.469   7.037 -0.6841 -0.0078 -0.4843
  482MOL0     C64999   4.831   4.490   6.956 -0.6749  0.1416 -0.0993
  482MOL0     C65000   4.728   4.507   6.891 -0.2561  0.1023 -0.4646
  482MOL0     C65001   4.811   3.834   7.131 -0.4180  0.9339 -0.2634
  482MOL0     C65002   4.837   3.704   7.176 -0.5362 -0.3509  0.5850
  482MOL0     H65003   5.000   3.440   7.706  2.0789 -2.5450  1.7432
  482MOL0     H65004   5.001   3.201   7.791  0.0641 -3.3626 -0.8924
  482MOL0     H65005   5.057   2.974   7.774 -0.0797  0.2857  0.0222
  482MOL0     H65006   4.942   3.023   7.891 -2.6530  0.9287 -1.1885
  482MOL0     H65007   4.819   2.791   7.845 -0.6128 -1.6594 -0.6729
  482MOL0     H65008   4.979   2.747   7.792 -2.7321  1.2117 -3.0350
  482MOL0     H65009   4.887   2.853   8.056 -0.7086  0.2729 -1.3185
  482MOL0     H65010   4.923   2.682   8.027 -0.4830  0.3040  1.0443
  482MOL0     H65011   5.159   2.722   8.016  2.2170  1.4670  0.2946
  482MOL0     H65012   5.156   2.894   8.010 -1.1898  1.3906  2.0747
  482MOL0     H65013   5.068   2.930   8.231  1.4944  1.2855 -0.4355
  482MOL0     H65014   5.076   2.744   8.261  3.4933  0.7117  2.2570
  482MOL0     H65015   5.304   2.737   8.244  0.5344  0.1523  3.6093
  482MOL0     H65016   5.313   2.900   8.175 -0.4661 -3.8241 -5.3516
  482MOL0     H65017   5.197   2.961   8.425 -1.3993  0.2471 -2.7447
  482MOL0     H65018   5.248   2.803   8.474 -2.1765  1.8749  2.6648
  482MOL0     H65019   5.434   3.028   8.382  0.7340 -1.2398 -2.2450
  482MOL0     H65020   5.482   2.866   8.421  0.8409  1.2707 -1.1427
  482MOL0     H65021   5.308   2.862   8.731  0.4960  0.4707  0.4922
  482MOL0     H65022   5.346   3.082   8.999 -1.4840 -0.8452 -0.6800
  482MOL0     H65023   5.369   2.924   8.979  0.4647  0.8794  2.5607
  482MOL0     H65024   5.561   3.001   9.115  0.4441  3.0413 -0.3385
  482MOL0     H65025   5.627   3.090   8.995  2.5723 -1.0599 -1.5390
  482MOL0     H65026   5.726   2.868   9.039 -0.7695  2.3658  1.4612
  482MOL0     H65027   5.704   2.901   8.877 -0.3676 -0.3689 -0.0277
  482MOL0     H65028   5.495   2.752   8.874  1.1281  0.7628 -0.5822
  482MOL0     H65029   5.538   2.708   9.037  0.1234  1.8634  0.2892
  482MOL0     H65030   5.550   2.513   8.702 -1.0508  1.0342 -0.1352
  482MOL0     H65031   5.499   2.416   8.508  3.1323 -2.4466  1.3433
  482MOL0     H65032   5.504   2.534   8.368 -0.2579 -3.0528 -1.6544
  482MOL0     H65033   5.636   2.413   8.394 -0.4647  0.1074  0.7497
  482MOL0     H65034   5.978   2.638   8.265  0.9598 -0.2536  3.6677
  482MOL0     H65035   6.217   2.709   8.208 -0.1909 -1.5118  2.9839
  482MOL0     H65036   6.362   3.132   8.258 -0.1743  4.3594 -3.6283
  482MOL0     H65037   6.496   3.054   8.187  0.1534  0.4539  0.9563
  482MOL0     H65038   6.257   3.158   8.031  1.2937  2.7375  0.4508
  482MOL0     H65039   6.417   3.198   8.010 -2.4332  2.8893 -1.2246
  482MOL0     H65040   6.380   3.057   7.831 -0.4706 -1.7516  0.1172
  482MOL0     H65041   6.318   2.929   7.925  0.8772 -0.1129 -1.2434
  482MOL0     H65042   6.607   3.025   7.936  2.7025 -2.7607  1.2913
  482MOL0     H65043   6.542   2.883   8.021 -1.2686  0.7032  0.9850
  482MOL0     H65044   6.498   2.784   7.824  0.4493 -1.6337 -0.3053
  482MOL0     H65045   6.664   2.810   7.834 -2.6885 -1.8597 -3.5170
  482MOL0     H65046   6.634   2.837   7.621  2.0994  2.3038  0.4411
  482MOL0     H65047   6.480   2.922   7.618  1.8008  1.2338 -1.7055
  482MOL0     H65048   6.720   3.058   7.733 -2.2539 -1.5496  1.1352
  482MOL0     H65049   6.584   3.128   7.646 -1.4410 -1.3556  0.3292
  482MOL0     H65050   6.688   2.986   7.438  0.2401  0.3700 -1.0388
  482MOL0     H65051   6.828   2.961   7.536 -0.9581 -0.8351 -3.7214
  482MOL0     H65052   6.132   3.123   8.233 -2.2107  1.9134 -2.9617
  482MOL0     H65053   5.896   3.080   8.237 -0.4737 -0.7410 -2.0916
  482MOL0     H65054   5.867   2.830   8.506  0.0563  0.9059 -0.0803
  482MOL0     H65055   5.853   2.811   8.760  0.2741 -1.5064  0.4997
  482MOL0     H65056   4.733   3.089   7.497  1.9695 -0.4663  1.8644
  482MOL0     H65057   4.741   3.293   7.391  1.0222  0.1369 -1.0799
  482MOL0     H65058   4.887   3.785   7.513  1.5175  3.3750  0.6511
  482MOL0     H65059   4.850   3.989   7.427  1.6237 -1.0214  0.2813
  482MOL0     H65060   4.725   4.167   7.334 -1.7740 -1.6031 -0.7944
  482MOL0     H65061   4.901   4.162   7.306  0.3928  0.0905 -1.6438
  482MOL0     H65062   4.776   4.382   7.239 -2.3637 -1.1833 -0.0679
  482MOL0     H65063   4.724   4.289   7.095  0.2053  4.4464 -0.8849
  482MOL0     H65064   4.946   4.252   7.020 -0.1619 -1.5099  1.9122
  482MOL0     H65065   5.029   4.322   7.166 -0.1022  2.6515 -0.1405
  482MOL0     H65066   5.047   4.495   6.990  0.6338 -0.4076  1.8049
  482MOL0     H65067   4.943   4.540   7.120  1.1158  0.0802 -0.3189
  482MOL0     H65068   4.632   4.530   6.848 -0.3973 -0.4431 -0.4532
  482MOL0     H65069   4.782   3.857   7.029 -2.4846  0.9155  0.2700
  482MOL0     H65070   4.837   3.620   7.108  3.8974 -1.2502  1.4009
  483MOL0     O65071   0.455   4.023   3.203 -0.4296  0.2508 -0.2331
  483MOL0     C65072   0.510   4.120   3.148  0.5535 -1.0695  0.3996
  483MOL0     O65073   0.562   4.233   3.206  0.0642  0.1639  0.6038
  483MOL0     C65074   0.548   4.255   3.340  0.0897 -0.1712 -0.4562
  483MOL0     C65075   0.642   4.353   3.377 -0.4916 -0.1836  1.8421
  483MOL0     C65076   0.652   4.381   3.508 -0.7909 -0.0227 -0.6619
  483MOL0     C65077   0.553   4.346   3.601 -0.3304  1.7809 -0.8760
  483MOL0     O65078   0.557   4.386   3.734  0.0592  1.3348 -0.2309
  483MOL0     C65079   0.445   4.366   3.819  0.3967 -0.4934 -0.1417
  483MOL0     C65080   0.463   4.440   3.946 -0.5870 -1.1001  0.1634
  483MOL0     C65081   0.443   4.584   3.924  0.0922 -0.3200 -1.0406
  483MOL0     C65082   0.437   4.667   4.063  0.1107  0.3096  0.2788
  483MOL0     C65083   0.358   4.804   4.055 -0.0210  0.1022  0.9508
  483MOL0     C65084   0.414   4.909   3.957  0.4773 -0.1378  0.4312
  483MOL0     C65085   0.313   5.021   3.926  0.0151  0.8910 -1.0370
  483MOL0     C65086   0.194   4.978   3.833  0.5314 -0.1100 -0.9564
  483MOL0     N65087   0.225   4.956   3.690  0.2152  0.0487 -0.3069
  483MOL0     C65088   0.223   5.057   3.602  0.6989  0.1885  0.5557
  483MOL0     C65089   0.220   5.000   3.475  0.2321  0.0847 -0.2207
  483MOL0     C65090   0.222   5.081   3.346  0.2245  0.5552  0.7460
  483MOL0     C65091   0.263   5.227   3.366 -0.2608 -0.3349 -0.1267
  483MOL0     C65092   0.289   5.294   3.235 -0.3665 -0.3997  0.8468
  483MOL0     C65093   0.322   5.444   3.236  0.2292 -0.0184  0.7757
  483MOL0     O65094   0.432   5.468   3.322  0.0840  0.0906  0.9928
  483MOL0     C65095   0.488   5.594   3.318 -0.1327  0.5019  1.2287
  483MOL0     C65096   0.616   5.599   3.352  0.1686  0.5717 -0.2038
  483MOL0     C65097   0.681   5.722   3.360 -0.0594  0.3177  0.8551
  483MOL0     C65098   0.832   5.715   3.373 -0.0937  0.3791  0.8422
  483MOL0     C65099   0.621   5.849   3.332 -0.2705 -0.3723 -0.4187
  483MOL0     C65100   0.687   5.980   3.342 -0.6573  0.3768 -0.1816
  483MOL0     O65101   0.822   5.994   3.373 -0.1036 -0.1812 -0.7249
  483MOL0     C65102   0.870   6.121   3.394 -0.4063  0.2164 -0.6412
  483MOL0     C65103   0.831   6.194   3.507 -0.2105  0.6206  0.8362
  483MOL0     C65104   0.890   6.317   3.534 -0.5073 -0.9489  1.1319
  483MOL0     C65105   0.992   6.372   3.445 -1.0171 -0.0803 -0.2719
  483MOL0     O65106   1.062   6.488   3.476  0.0375  0.3830  0.4144
  483MOL0     C65107   1.037   6.562   3.596  0.1875  0.1990  0.2034
  483MOL0     C65108   1.096   6.697   3.578 -0.4777 -0.9400  0.8633
  483MOL0     C65109   1.174   6.754   3.703  0.3284 -1.2146  1.2937
  483MOL0     C65110   1.237   6.889   3.659 -0.2925 -0.0617 -0.5026
  483MOL0     C65111   1.284   6.963   3.781  0.7201 -0.8584  0.3223
  483MOL0     C65112   1.326   7.108   3.735 -0.8631  0.1577  1.1963
  483MOL0     C65113   1.426   7.184   3.826  0.0056  0.3009 -0.6485
  483MOL0     C65114   1.368   7.222   3.963  0.7574  0.8237  0.7707
  483MOL0    Cl65115   1.194   7.293   3.951  0.0295  0.1229 -0.2965
  483MOL0     C65116   1.026   6.300   3.329 -0.3161 -0.4554 -0.1540
  483MOL0     C65117   0.962   6.180   3.308  0.2878  0.7748 -0.9966
  483MOL0     O65118   0.611   6.072   3.334  0.2990 -0.1922 -0.4310
  483MOL0     C65119   0.484   5.834   3.297 -0.4329  0.7489  0.6007
  483MOL0     C65120   0.423   5.710   3.285  0.6842  0.2923 -0.2288
  483MOL0     N65121   0.227   4.865   3.496 -0.1216 -0.4448 -0.4271
  483MOL0     N65122   0.229   4.838   3.620 -0.3870  0.2464  0.0440
  483MOL0     C65123   0.456   4.251   3.557 -0.4372 -0.1806 -0.8855
  483MOL0     C65124   0.448   4.211   3.422  0.5304 -0.7941 -0.0800
  483MOL0     C65125   0.523   4.125   3.006  0.0262  0.7405 -0.0265
  483MOL0     C65126   0.519   3.998   2.929 -0.3814  0.3113  0.4397
  483MOL0     C65127   0.512   4.008   2.785 -0.3384  0.4563 -0.3966
  483MOL0     C65128   0.515   4.135   2.720  0.6674  0.2736  0.0318
  483MOL0     O65129   0.513   4.131   2.579  0.4338  0.1624 -0.5091
  483MOL0     C65130   0.484   4.258   2.513 -0.1153  0.2001  0.1886
  483MOL0     C65131   0.501   4.221   2.359  0.0669 -0.0797  0.2015
  483MOL0     C65132   0.440   4.333   2.274 -0.2129 -0.0630  1.0394
  483MOL0     C65133   0.514   4.472   2.280 -0.9539  0.1812  0.4006
  483MOL0     C65134   0.521   4.540   2.148  1.0975 -0.1670  1.1812
  483MOL0     C65135   0.526   4.609   2.039  0.2695  0.3919  0.4059
  483MOL0     C65136   0.503   4.248   2.800 -0.0607 -1.3855  0.3272
  483MOL0     C65137   0.505   4.244   2.938 -0.2768  0.2718  1.1312
  483MOL0     H65138   0.701   4.396   3.296 -2.4315 -3.3897 -1.6153
  483MOL0     H65139   0.735   4.446   3.534  2.6297 -1.8883 -5.3479
  483MOL0     H65140   0.351   4.406   3.779  0.3877  1.6617  1.7979
  483MOL0     H65141   0.426   4.261   3.844  0.5726 -0.3074  0.8180
  483MOL0     H65142   0.391   4.401   4.020 -2.6883  0.6735 -0.8508
  483MOL0     H65143   0.563   4.421   3.986 -0.5092 -1.8257 -0.3602
  483MOL0     H65144   0.531   4.618   3.867  2.6531 -0.9167  2.2346
  483MOL0     H65145   0.348   4.590   3.870 -1.7469 -0.9874  1.9027
  483MOL0     H65146   0.381   4.600   4.128  1.1254 -1.7203 -0.8365
  483MOL0     H65147   0.528   4.689   4.120 -1.4572 -0.4433  3.2761
  483MOL0     H65148   0.252   4.793   4.031 -0.8363  3.6795  2.1814
  483MOL0     H65149   0.351   4.843   4.157 -0.7528  3.0811 -0.1357
  483MOL0     H65150   0.503   4.954   4.002  0.3584 -1.4551  2.0740
  483MOL0     H65151   0.441   4.863   3.861 -2.1151 -1.2711  0.1505
  483MOL0     H65152   0.265   5.047   4.021  0.3683 -0.9455 -0.2975
  483MOL0     H65153   0.375   5.099   3.883  1.5013  2.1007  2.8481
  483MOL0     H65154   0.114   5.051   3.822  0.1697 -0.2828  0.3530
  483MOL0     H65155   0.140   4.886   3.861  1.7678 -0.8563 -0.9483
  483MOL0     H65156   0.210   5.162   3.629 -2.7740 -0.2286  0.9210
  483MOL0     H65157   0.294   5.032   3.280 -0.6318 -0.1439  0.3167
  483MOL0     H65158   0.124   5.070   3.300 -0.1575  0.9770  1.4377
  483MOL0     H65159   0.360   5.237   3.414 -0.3053 -0.7456  0.0551
  483MOL0     H65160   0.186   5.284   3.420 -0.9182  3.6265 -4.5484
  483MOL0     H65161   0.201   5.267   3.175 -2.6079  0.6406  3.4448
  483MOL0     H65162   0.383   5.254   3.197  0.3113 -0.3428  2.4164
  483MOL0     H65163   0.228   5.493   3.260 -1.7682 -3.6483  1.0047
  483MOL0     H65164   0.344   5.474   3.133 -3.2038 -0.6383 -0.2423
  483MOL0     H65165   0.669   5.506   3.369  1.7014  1.4889  0.2815
  483MOL0     H65166   0.875   5.776   3.454  0.8379  1.3712 -0.3628
  483MOL0     H65167   0.876   5.616   3.382 -0.6521 -0.4283 -3.4706
  483MOL0     H65168   0.871   5.759   3.281 -1.0028  0.8251  0.6640
  483MOL0     H65169   0.755   6.142   3.565 -2.3535  0.0395 -2.2153
  483MOL0     H65170   0.866   6.371   3.626  1.8682 -1.4023  2.0794
  483MOL0     H65171   0.929   6.570   3.610  0.3534  0.9214  1.1081
  483MOL0     H65172   1.085   6.505   3.676 -0.1427 -1.9361 -1.0267
  483MOL0     H65173   1.161   6.682   3.492 -2.1457 -1.9585 -0.2672
  483MOL0     H65174   1.028   6.779   3.549  1.3605  1.1268  2.0861
  483MOL0     H65175   1.243   6.679   3.742 -0.2481 -1.9142  0.9985
  483MOL0     H65176   1.093   6.772   3.775 -0.9786  1.2249 -0.6054
  483MOL0     H65177   1.318   6.878   3.586 -0.8376  0.1945 -1.1585
  483MOL0     H65178   1.174   6.948   3.591 -1.2165  0.6177  0.9074
  483MOL0     H65179   1.372   6.907   3.813  2.0591  0.2285 -1.3276
  483MOL0     H65180   1.205   6.975   3.855 -1.5719  1.6518 -2.2869
  483MOL0     H65181   1.381   7.096   3.641  0.7390 -1.2708  2.2489
  483MOL0     H65182   1.231   7.159   3.720 -0.5494  0.0035 -2.0676
  483MOL0     H65183   1.462   7.273   3.774  1.6965 -1.0390 -1.8827
  483MOL0     H65184   1.523   7.134   3.838  1.4613  3.0482 -0.0550
  483MOL0     H65185   1.439   7.289   4.012 -0.4465  0.3890  3.3188
  483MOL0     H65186   1.366   7.134   4.028  1.7618  1.2546  1.3998
  483MOL0     H65187   1.101   6.343   3.264 -2.4741  1.6991 -1.3673
  483MOL0     H65188   0.996   6.118   3.226  0.9374 -0.9559  0.5127
  483MOL0     H65189   0.434   5.924   3.263  1.1366  1.3308 -0.3082
  483MOL0     H65190   0.322   5.720   3.247  0.3709  1.1289  0.7800
  483MOL0     H65191   0.382   4.226   3.632 -0.6100  6.5507  1.9048
  483MOL0     H65192   0.356   4.164   3.391  0.6019 -0.6604 -0.5031
  483MOL0     H65193   0.534   3.901   2.975  0.6555  1.9076  3.7447
  483MOL0     H65194   0.506   3.920   2.721  0.4180 -0.0631  0.2265
  483MOL0     H65195   0.385   4.293   2.542 -0.5404 -1.3999  0.7398
  483MOL0     H65196   0.555   4.338   2.536  0.9357 -0.8797  0.8287
  483MOL0     H65197   0.443   4.132   2.335 -1.8485  0.9567  0.7423
  483MOL0     H65198   0.599   4.206   2.312 -1.0075 -0.4190 -2.0959
  483MOL0     H65199   0.339   4.354   2.311 -0.4705 -2.2418  1.7458
  483MOL0     H65200   0.437   4.304   2.168  0.6479  2.4851  0.2451
  483MOL0     H65201   0.610   4.471   2.332  0.7090  3.7751 -2.2300
  483MOL0     H65202   0.449   4.532   2.344  0.9941  0.8628  1.8181
  483MOL0     H65203   0.531   4.673   1.953 -0.7543  1.0826  0.8335
  483MOL0     H65204   0.503   4.348   2.756  1.3795 -1.1026  0.8910
  483MOL0     H65205   0.479   4.326   3.004  1.3977  0.6020  1.4151
  484MOL0     O65206   3.259   6.043   5.686 -0.2106  1.7022  1.0882
  484MOL0     C65207   3.212   6.081   5.576  0.1078  0.2040  0.3796
  484MOL0     O65208   3.075   6.066   5.547  0.6770 -0.1920  0.4184
  484MOL0     C65209   2.995   6.011   5.641 -0.4457 -0.2729 -0.9233
  484MOL0     C65210   2.956   5.884   5.618  0.2809  0.9025 -0.1293
  484MOL0     C65211   2.872   5.817   5.704  0.1264 -0.0605 -0.5516
  484MOL0     C65212   2.839   5.869   5.830  0.1243 -0.5936 -0.0852
  484MOL0     O65213   2.746   5.814   5.916  0.2360 -0.0174  0.5169
  484MOL0     C65214   2.782   5.679   5.959  0.0638 -0.0970 -0.4782
  484MOL0     C65215   2.872   5.676   6.079 -0.2599  0.4543 -0.1887
  484MOL0     C65216   2.881   5.548   6.153  0.9192 -0.0567 -0.0651
  484MOL0     C65217   3.022   5.513   6.200 -0.7629 -0.7361 -0.6024
  484MOL0     C65218   3.033   5.381   6.277 -0.3074 -0.7563  0.0372
  484MOL0     C65219   3.165   5.399   6.352  0.7467  0.8562  0.2521
  484MOL0     C65220   3.199   5.273   6.424  0.0430 -0.7958  0.0165
  484MOL0     C65221   3.280   5.308   6.547 -0.0565  0.6156 -0.0922
  484MOL0     N65222   3.207   5.375   6.659  0.1369  0.5370  0.6083
  484MOL0     C65223   3.257   5.479   6.727 -0.4580 -0.0242  0.4794
  484MOL0     C65224   3.150   5.520   6.805  0.0188 -0.1020  0.2465
  484MOL0     C65225   3.146   5.633   6.894 -1.2683  0.3993  0.4863
  484MOL0     C65226   3.189   5.587   7.036  0.9206  0.9390  0.1838
  484MOL0     C65227   3.177   5.692   7.149  0.1401 -0.6091 -1.4265
  484MOL0     C65228   3.236   5.644   7.284  0.9829  0.4504  0.9079
  484MOL0     O65229   3.279   5.738   7.368 -0.1093 -0.0045  0.1610
  484MOL0     C65230   3.412   5.723   7.394 -0.0186 -1.0551  0.4504
  484MOL0     C65231   3.506   5.749   7.301 -0.9648  0.7146 -0.5034
  484MOL0     C65232   3.643   5.755   7.345  0.9491 -0.0096  0.3644
  484MOL0     C65233   3.740   5.808   7.250 -0.2171  0.1868  0.1892
  484MOL0     C65234   3.689   5.734   7.473 -0.7053 -0.2428 -0.6769
  484MOL0     C65235   3.835   5.738   7.527  0.1030  0.7929 -0.2287
  484MOL0     O65236   3.843   5.785   7.655 -0.6452 -0.0948  0.4455
  484MOL0     C65237   3.961   5.763   7.718  0.8051  1.4088  0.1575
  484MOL0     C65238   4.026   5.636   7.722  0.5908 -0.3974 -0.7104
  484MOL0     C65239   4.139   5.615   7.804  0.2630 -0.2943  1.1795
  484MOL0     C65240   4.198   5.727   7.871  0.2246  0.2083  0.2980
  484MOL0     O65241   4.302   5.689   7.946 -0.0215 -0.1098  0.1094
  484MOL0     C65242   4.329   5.744   8.080 -0.8293 -0.0415  0.4903
  484MOL0     C65243   4.468   5.720   8.135  0.2761  0.6380  0.6279
  484MOL0     C65244   4.576   5.789   8.042 -0.1902  0.3678 -0.4424
  484MOL0     C65245   4.720   5.774   8.104 -0.4874 -0.2880  0.5036
  484MOL0     C65246   4.822   5.768   7.989  0.0385 -0.1928 -1.5214
  484MOL0     C65247   4.835   5.901   7.906 -0.4638  0.6624 -0.0796
  484MOL0     C65248   4.941   5.902   7.786 -0.5063 -0.5892  0.8132
  484MOL0     C65249   5.088   5.883   7.838 -0.6092  0.5783  0.2729
  484MOL0    Cl65250   5.111   5.895   8.009 -0.0196 -0.2488 -0.7560
  484MOL0     C65251   4.136   5.847   7.868 -0.3001 -0.3913  0.5818
  484MOL0     C65252   4.023   5.861   7.792 -0.3760 -0.4020  0.1624
  484MOL0     O65253   3.925   5.698   7.447  0.0750  0.4606  0.6119
  484MOL0     C65254   3.582   5.719   7.569 -0.0207  0.1897 -0.1790
  484MOL0     C65255   3.443   5.702   7.529 -0.5469 -0.1103 -0.0648
  484MOL0     N65256   3.046   5.426   6.778  0.1678  0.4121  0.5892
  484MOL0     N65257   3.086   5.341   6.694  0.3748 -0.0105  0.2832
  484MOL0     C65258   2.886   6.000   5.856  1.3395 -0.1841 -0.5449
  484MOL0     C65259   2.963   6.066   5.767 -0.1322 -0.0141 -0.2482
  484MOL0     C65260   3.312   6.131   5.478 -0.7840  0.2468  0.5574
  484MOL0     C65261   3.274   6.162   5.348  0.3340 -0.1494 -0.6020
  484MOL0     C65262   3.367   6.212   5.256 -0.4259 -0.3145 -0.3896
  484MOL0     C65263   3.499   6.220   5.292 -1.2251  0.0700  0.1408
  484MOL0     O65264   3.582   6.285   5.200  0.2270  0.0847  1.0596
  484MOL0     C65265   3.714   6.234   5.175  0.5170 -0.4509 -0.0818
  484MOL0     C65266   3.712   6.147   5.039 -1.0163  0.9263 -0.5207
  484MOL0     C65267   3.583   6.077   5.016  0.1962  0.7216  0.2440
  484MOL0     C65268   3.586   5.979   4.899  0.0817  0.0823 -0.3220
  484MOL0     C65269   3.510   6.033   4.783  0.4565  0.7571 -0.5777
  484MOL0     C65270   3.467   6.069   4.679  0.3780 -1.3160  0.1254
  484MOL0     C65271   3.536   6.195   5.426 -0.4690 -0.7907 -0.9803
  484MOL0     C65272   3.444   6.158   5.522  0.0835 -0.5715 -0.2277
  484MOL0     H65273   2.983   5.833   5.526  0.3573 -2.1073  1.4250
  484MOL0     H65274   2.846   5.715   5.677 -0.2961  0.3782 -1.8341
  484MOL0     H65275   2.696   5.621   5.992  1.4928 -1.8162  0.3621
  484MOL0     H65276   2.828   5.613   5.884  1.6687 -0.9096  1.1461
  484MOL0     H65277   2.972   5.710   6.050  1.2620 -1.2676  2.5640
  484MOL0     H65278   2.825   5.745   6.150 -3.9910 -0.2661 -1.7660
  484MOL0     H65279   2.833   5.557   6.251  1.4464 -0.8532  0.2764
  484MOL0     H65280   2.833   5.465   6.100  0.7050  1.9562 -3.3295
  484MOL0     H65281   3.085   5.508   6.111 -1.0653 -2.1325 -0.7620
  484MOL0     H65282   3.053   5.601   6.257 -2.1728  2.4330 -4.3290
  484MOL0     H65283   2.956   5.339   6.343  1.6272 -2.7705  1.1951
  484MOL0     H65284   3.048   5.311   6.195  1.7208  1.4575 -1.6266
  484MOL0     H65285   3.235   5.407   6.269  1.2124 -0.0546  0.5442
  484MOL0     H65286   3.159   5.473   6.431  3.5758  2.1245 -0.5999
  484MOL0     H65287   3.114   5.214   6.460  1.0198 -0.8122  2.5098
  484MOL0     H65288   3.254   5.201   6.362  0.7109 -0.7259  0.5181
  484MOL0     H65289   3.370   5.364   6.519  2.7710 -1.9419  3.0622
  484MOL0     H65290   3.321   5.213   6.584  1.0973  0.7858 -0.8780
  484MOL0     H65291   3.356   5.523   6.724 -0.8661  0.8680 -0.2812
  484MOL0     H65292   3.199   5.723   6.860 -1.3354  0.7314  1.2504
  484MOL0     H65293   3.043   5.666   6.883 -1.1531  0.4631 -0.5690
  484MOL0     H65294   3.295   5.561   7.041  0.7434  0.0713 -0.3533
  484MOL0     H65295   3.123   5.501   7.053  0.5860  1.1624  0.0072
  484MOL0     H65296   3.075   5.718   7.178  2.2765  3.2460  4.4441
  484MOL0     H65297   3.228   5.782   7.114 -2.0967 -0.2907 -4.2034
  484MOL0     H65298   3.313   5.570   7.262 -0.9520 -1.2486 -0.5686
  484MOL0     H65299   3.164   5.576   7.329  3.4667 -2.1591  1.2492
  484MOL0     H65300   3.483   5.759   7.196  0.9624 -1.2907 -1.1826
  484MOL0     H65301   3.813   5.732   7.220 -0.5545  0.1664 -0.6071
  484MOL0     H65302   3.679   5.841   7.165 -0.8541  1.9317  1.2888
  484MOL0     H65303   3.795   5.896   7.283  1.0092 -0.5937  0.2780
  484MOL0     H65304   3.986   5.546   7.677 -1.4903 -0.2316  0.6769
  484MOL0     H65305   4.182   5.517   7.824 -2.6901 -1.4462  2.4672
  484MOL0     H65306   4.299   5.848   8.099 -1.4093 -0.7763  4.5542
  484MOL0     H65307   4.263   5.694   8.152 -1.4182 -0.1278 -0.0907
  484MOL0     H65308   4.469   5.753   8.239  0.9997  0.5700  0.6515
  484MOL0     H65309   4.486   5.612   8.134 -2.3218  0.0342 -3.5481
  484MOL0     H65310   4.543   5.893   8.032  0.9679  0.7161 -0.7685
  484MOL0     H65311   4.565   5.743   7.943  1.4445 -0.0853 -0.4486
  484MOL0     H65312   4.723   5.862   8.169  1.3565 -0.5379  0.8159
  484MOL0     H65313   4.737   5.690   8.172  2.5533  0.4072  0.7198
  484MOL0     H65314   4.795   5.688   7.919 -0.3129  0.2057 -1.8488
  484MOL0     H65315   4.915   5.741   8.040 -1.3846  0.2621  1.5404
  484MOL0     H65316   4.738   5.945   7.879 -0.6227  1.1140  1.1439
  484MOL0     H65317   4.873   5.974   7.979 -0.5579 -0.5104  1.1807
  484MOL0     H65318   4.927   6.005   7.752 -0.7134 -0.3315  1.6400
  484MOL0     H65319   4.927   5.833   7.703 -0.9044  0.6104 -0.1445
  484MOL0     H65320   5.164   5.946   7.791  1.0822 -2.1540 -0.9104
  484MOL0     H65321   5.123   5.786   7.801 -0.5573  0.7533 -0.1419
  484MOL0     H65322   4.175   5.932   7.922  3.0690 -0.8594 -0.8867
  484MOL0     H65323   3.987   5.962   7.777  0.3212 -0.4176 -2.0974
  484MOL0     H65324   3.615   5.703   7.671  1.6609 -2.3441 -1.0302
  484MOL0     H65325   3.364   5.671   7.597  1.3743 -2.0454  1.4472
  484MOL0     H65326   2.861   6.035   5.956 -3.6849 -4.2911  0.0316
  484MOL0     H65327   2.987   6.170   5.789  0.8868 -0.4186  0.6414
  484MOL0     H65328   3.169   6.158   5.322 -0.4630 -3.5487  2.4018
  484MOL0     H65329   3.330   6.241   5.159  1.4456  1.3980 -0.6609
  484MOL0     H65330   3.778   6.319   5.149  0.2822 -0.3761 -0.4342
  484MOL0     H65331   3.755   6.180   5.260  3.1460 -0.3952 -1.2132
  484MOL0     H65332   3.788   6.069   5.046  0.6458  2.4375 -0.9009
  484MOL0     H65333   3.749   6.213   4.960 -0.3978  0.8565 -0.2988
  484MOL0     H65334   3.506   6.154   5.008  1.7093  2.3250  0.3397
  484MOL0     H65335   3.562   6.018   5.106 -0.3924 -3.4472 -2.4080
  484MOL0     H65336   3.522   5.897   4.932  1.1174  0.3391  2.6350
  484MOL0     H65337   3.688   5.951   4.870  1.1435  2.3878  0.8884
  484MOL0     H65338   3.444   6.104   4.580  1.2629 -2.9657 -0.7161
  484MOL0     H65339   3.641   6.212   5.451 -1.5601  4.7101  1.3588
  484MOL0     H65340   3.488   6.159   5.621 -1.6251 -2.3070  0.6255
  485MOL0     O65341   1.825   9.704  10.848  0.1996 -0.1447  0.2722
  485MOL0     C65342   1.924   9.706  10.774 -0.1656 -0.1892 -0.3944
  485MOL0     O65343   2.000   9.590  10.749  0.3011  0.2977  0.6976
  485MOL0     C65344   1.962   9.481  10.819 -0.5502 -0.0277 -0.1445
  485MOL0     C65345   2.032   9.448  10.936  0.0553  0.5414  0.1201
  485MOL0     C65346   1.997   9.329  11.010  0.0942  0.5669  0.0917
  485MOL0     C65347   1.895   9.243  10.958 -0.4302 -0.2637 -1.4359
  485MOL0     O65348   1.872   9.128  11.029  0.1471  1.2739  0.5123
  485MOL0     C65349   1.778   9.035  10.979  0.4621  0.4633 -0.2602
  485MOL0     C65350   1.818   8.915  11.063 -0.0811  0.1342  0.0952
  485MOL0     C65351   1.728   8.798  11.039  0.7328  0.2633  0.5211
  485MOL0     C65352   1.782   8.679  11.108 -0.4459  0.4477  0.2770
  485MOL0     C65353   1.685   8.557  11.119 -0.0781  0.2366 -0.1645
  485MOL0     C65354   1.648   8.512  10.976  0.4919  0.8480 -0.5972
  485MOL0     C65355   1.589   8.374  10.981  0.9433 -0.3398 -0.7612
  485MOL0     C65356   1.456   8.355  11.049  0.2900 -0.7661  0.0839
  485MOL0     N65357   1.353   8.435  10.976 -0.1647 -0.3077  0.9776
  485MOL0     C65358   1.262   8.524  11.033 -0.1260  0.6776 -0.6907
  485MOL0     C65359   1.187   8.579  10.938 -0.2287 -0.4978 -0.4936
  485MOL0     C65360   1.071   8.683  10.948 -1.2583 -0.2600 -0.0320
  485MOL0     C65361   1.074   8.781  10.834  0.2459 -0.1753 -1.2408
  485MOL0     C65362   1.195   8.880  10.845 -0.3009 -0.4219  0.2451
  485MOL0     C65363   1.172   9.006  10.755  0.0166  1.4448 -0.8796
  485MOL0     O65364   1.054   9.082  10.781 -1.2715  0.5918 -0.4755
  485MOL0     C65365   1.017   9.195  10.704 -0.7176 -0.4942  0.3993
  485MOL0     C65366   1.104   9.253  10.605 -0.3807  0.2382  0.6551
  485MOL0     C65367   1.063   9.358  10.523 -0.5060 -0.9859  0.4206
  485MOL0     C65368   1.153   9.407  10.415  0.0536  0.3645 -1.0644
  485MOL0     C65369   0.932   9.414  10.549  0.5693 -0.6534  1.1207
  485MOL0     C65370   0.888   9.539  10.469 -0.7120  1.0713 -0.5083
  485MOL0     O65371   0.748   9.552  10.452 -0.7557  0.2508  0.4326
  485MOL0     C65372   0.710   9.660  10.393  0.7757  0.1699  0.5827
  485MOL0     C65373   0.706   9.790  10.456 -0.2043  0.5804  0.1955
  485MOL0     C65374   0.658   9.900  10.379  0.6954 -0.5723 -0.7075
  485MOL0     C65375   0.646   9.882  10.243  0.2770 -0.3508  0.0819
  485MOL0     O65376   0.620   9.996  10.165  0.0512  0.7133 -0.7857
  485MOL0     C65377   0.724  10.091  10.166  0.7084 -0.3531 -0.6811
  485MOL0     C65378   0.730  10.179  10.044 -0.1913 -0.1173 -0.4987
  485MOL0     C65379   0.867  10.245  10.015  0.2266 -0.4562  0.0010
  485MOL0     C65380   0.863  10.314   9.877  0.5245  0.0892 -0.6372
  485MOL0     C65381   1.001  10.347   9.833  1.0778 -0.4912 -0.9857
  485MOL0     C65382   1.078  10.229   9.779 -1.4605 -0.5349  0.1210
  485MOL0     C65383   1.225  10.267   9.743 -0.5242  0.3286 -1.1130
  485MOL0     C65384   1.273  10.202   9.614 -0.6186 -0.5599 -0.2137
  485MOL0    Cl65385   1.430  10.249   9.589 -0.4286  0.1069 -0.0444
  485MOL0     C65386   0.659   9.760  10.178  0.7219 -1.0804  0.3156
  485MOL0     C65387   0.685   9.645  10.252 -0.0531  0.5804 -0.9429
  485MOL0     O65388   0.972   9.624  10.438  0.4628  0.0163  0.1450
  485MOL0     C65389   0.846   9.361  10.640  0.5043 -0.7800  0.1075
  485MOL0     C65390   0.889   9.255  10.719 -0.6033  0.7517 -0.3582
  485MOL0     N65391   1.209   8.507  10.824 -0.2986  0.0518 -0.1245
  485MOL0     N65392   1.309   8.419  10.844 -0.2364  0.1049  0.5725
  485MOL0     C65393   1.821   9.281  10.838 -0.0476 -0.5453 -0.7623
  485MOL0     C65394   1.860   9.401  10.765 -0.1959 -0.1969 -0.2482
  485MOL0     C65395   1.955   9.835  10.698  0.5682  0.4412 -0.8390
  485MOL0     C65396   2.061   9.852  10.601 -0.1885  0.9248 -0.4324
  485MOL0     C65397   2.075   9.974  10.546 -0.3508  0.8981  0.0637
  485MOL0     C65398   1.987  10.082  10.552  1.0441  1.0164  0.2064
  485MOL0     O65399   1.987  10.198  10.476  0.2628  1.1025 -0.7562
  485MOL0     C65400   2.079  10.218  10.373 -0.6771  0.7803 -0.7563
  485MOL0     C65401   2.118  10.364  10.369 -0.5010  0.6540  0.6567
  485MOL0     C65402   2.007  10.445  10.309  0.8144  1.3628 -0.5670
  485MOL0     C65403   2.042  10.596  10.313 -0.6490 -0.7735 -0.7540
  485MOL0     C65404   1.996  10.657  10.441  0.0184 -0.7870 -0.0319
  485MOL0     C65405   1.986  10.707  10.550  0.1432 -0.4105  0.0419
  485MOL0     C65406   1.890  10.069  10.647 -0.2751  0.5153  0.3367
  485MOL0     C65407   1.870   9.948  10.716  0.6462 -0.1253 -0.9218
  485MOL0     H65408   2.112   9.511  10.975  3.4683 -2.2638 -1.7538
  485MOL0     H65409   2.044   9.295  11.102  1.8777 -0.2257 -1.0494
  485MOL0     H65410   1.672   9.052  11.001  0.4374  0.0032 -0.0226
  485MOL0     H65411   1.786   9.001  10.876  0.9928  0.4339 -0.2101
  485MOL0     H65412   1.919   8.881  11.039 -0.4025  0.2499 -1.5640
  485MOL0     H65413   1.808   8.950  11.166 -0.2827 -1.3699  0.6105
  485MOL0     H65414   1.628   8.819  11.077  0.5818 -1.5071  1.1949
  485MOL0     H65415   1.716   8.769  10.934 -1.5310  0.8058  0.5865
  485MOL0     H65416   1.861   8.643  11.041 -0.7443  3.0974 -1.6666
  485MOL0     H65417   1.833   8.696  11.204 -0.8726 -0.0645  0.5966
  485MOL0     H65418   1.723   8.476  11.183  1.6861 -1.3574 -3.0352
  485MOL0     H65419   1.593   8.598  11.163  0.1027  1.1184 -0.5815
  485MOL0     H65420   1.579   8.581  10.925 -0.3204 -0.5711 -1.4828
  485MOL0     H65421   1.741   8.501  10.919  0.4015 -0.5095 -0.5036
  485MOL0     H65422   1.595   8.318  10.888  1.9286 -4.6237  1.5852
  485MOL0     H65423   1.660   8.307  11.031  0.2292  0.0889  0.9145
  485MOL0     H65424   1.464   8.386  11.153  1.5243  0.8456 -0.4549
  485MOL0     H65425   1.440   8.247  11.043  0.9179 -0.9792  1.8418
  485MOL0     H65426   1.257   8.546  11.139  1.7749 -2.8067  0.2784
  485MOL0     H65427   0.982   8.619  10.944 -0.0625 -2.6638  4.6969
  485MOL0     H65428   1.067   8.739  11.042  2.5398  1.2831 -0.6382
  485MOL0     H65429   0.979   8.834  10.849 -0.6772 -1.4610 -2.2180
  485MOL0     H65430   1.071   8.733  10.736  0.3696 -0.8599 -0.9188
  485MOL0     H65431   1.289   8.831  10.819  1.0406 -0.5855  4.5628
  485MOL0     H65432   1.223   8.914  10.945  0.6621 -1.8726  0.4999
  485MOL0     H65433   1.167   8.970  10.651 -1.2068  0.8034 -0.6186
  485MOL0     H65434   1.258   9.072  10.758  0.5693  0.8786 -2.7174
  485MOL0     H65435   1.198   9.204  10.582 -1.2544 -0.5819 -1.4341
  485MOL0     H65436   1.238   9.338  10.406  1.6809  2.4063 -2.3997
  485MOL0     H65437   1.094   9.410  10.323 -0.9380 -4.1591 -0.7914
  485MOL0     H65438   1.208   9.501  10.427  0.6160 -0.1371  0.5723
  485MOL0     H65439   0.749   9.797  10.555  2.9898 -1.3882 -0.9341
  485MOL0     H65440   0.629   9.993  10.428 -2.0550 -1.7572  0.1295
  485MOL0     H65441   0.713  10.152  10.256 -0.5576 -0.8236 -0.4936
  485MOL0     H65442   0.822  10.047  10.186  1.1765  1.5521  1.8080
  485MOL0     H65443   0.690  10.108   9.971 -2.2169 -0.0629  0.4866
  485MOL0     H65444   0.649  10.249  10.061 -1.3157 -1.4727 -0.0534
  485MOL0     H65445   0.944  10.167  10.015  1.4548  0.7086  0.8475
  485MOL0     H65446   0.895  10.311  10.098  1.8248 -1.1590  0.0651
  485MOL0     H65447   0.807  10.247   9.811 -1.7134  3.7978 -2.8815
  485MOL0     H65448   0.794  10.399   9.881  0.3156 -0.1070  1.0747
  485MOL0     H65449   1.059  10.384   9.917  0.0617 -1.2236  0.0667
  485MOL0     H65450   1.001  10.432   9.763 -1.7005 -0.6447 -1.3115
  485MOL0     H65451   1.087  10.146   9.851 -0.0288  0.3448  1.0141
  485MOL0     H65452   1.023  10.181   9.698  0.1143 -1.8070 -0.2644
  485MOL0     H65453   1.296  10.244   9.823 -0.0517  4.1856 -0.2018
  485MOL0     H65454   1.210  10.375   9.751 -2.4710 -0.0755  2.4957
  485MOL0     H65455   1.224  10.253   9.530  2.2979  2.0717 -0.5411
  485MOL0     H65456   1.272  10.093   9.615 -0.7935 -0.6349 -2.6756
  485MOL0     H65457   0.646   9.768  10.070 -0.2741  2.0292  0.5757
  485MOL0     H65458   0.695   9.551  10.199  1.0886  2.0446 -3.4998
  485MOL0     H65459   0.743   9.393  10.655  0.3447 -2.2468  2.6599
  485MOL0     H65460   0.829   9.197  10.789  1.5716 -2.9935 -1.3019
  485MOL0     H65461   1.735   9.222  10.810  0.2121 -1.3102  0.0050
  485MOL0     H65462   1.790   9.433  10.688  1.3148  1.7112 -0.8949
  485MOL0     H65463   2.119   9.762  10.586 -0.2830  0.9746 -1.1390
  485MOL0     H65464   2.159   9.975  10.478  0.6853  2.8583  1.2764
  485MOL0     H65465   2.176  10.177  10.402 -0.7056  1.9896  1.1627
  485MOL0     H65466   2.048  10.171  10.279  0.2311  2.0200 -1.6989
  485MOL0     H65467   2.209  10.353  10.308 -2.7232  0.9774 -3.0160
  485MOL0     H65468   2.142  10.406  10.467 -2.1687 -0.5992  1.6447
  485MOL0     H65469   1.921  10.432  10.376  0.3860  0.3975 -1.2778
  485MOL0     H65470   1.972  10.422  10.208 -0.1188  1.2654 -0.2295
  485MOL0     H65471   1.995  10.645  10.228 -0.8460  2.0940  0.8808
  485MOL0     H65472   2.148  10.619  10.313 -0.5230 -1.3077  0.2470
  485MOL0     H65473   1.991  10.755  10.646  2.9672  2.0507 -1.1614
  485MOL0     H65474   1.827  10.157  10.663  1.1719  1.8918 -1.1267
  485MOL0     H65475   1.785   9.948  10.783  3.9779  0.4433  3.7881
  486MOL0     O65476   2.173   5.877   3.457 -0.1291  0.1089 -0.5495
  486MOL0     C65477   2.174   5.753   3.422  0.3074 -0.2225  0.6276
  486MOL0     O65478   2.276   5.695   3.351 -0.5385 -0.7227 -0.4370
  486MOL0     C65479   2.384   5.773   3.324  0.0417 -0.7245  0.4974
  486MOL0     C65480   2.485   5.790   3.421 -0.3741 -0.2754  0.8876
  486MOL0     C65481   2.588   5.884   3.404 -0.3126  0.8591  0.2660
  486MOL0     C65482   2.597   5.960   3.287 -0.1006  0.5585  0.1887
  486MOL0     O65483   2.714   6.039   3.274 -0.0583 -0.3353  0.5939
  486MOL0     C65484   2.764   6.046   3.139 -0.2068 -0.1257  0.0547
  486MOL0     C65485   2.917   6.084   3.148  0.5663  0.2361 -0.4189
  486MOL0     C65486   2.960   6.154   3.022 -1.4220 -0.2134  0.0169
  486MOL0     C65487   2.964   6.058   2.893 -0.8064  0.0622 -0.0794
  486MOL0     C65488   3.073   5.947   2.914  0.9590 -0.6587 -0.2651
  486MOL0     C65489   3.090   5.858   2.790  0.0343  0.7658  0.3468
  486MOL0     C65490   3.118   5.704   2.806 -0.8119 -0.6307 -0.3564
  486MOL0     C65491   2.986   5.628   2.859 -0.6219  0.6260 -1.4857
  486MOL0     N65492   3.022   5.487   2.881 -0.2598 -0.4131  0.4974
  486MOL0     C65493   3.074   5.431   2.998  0.0015 -0.1186  0.2829
  486MOL0     C65494   3.122   5.303   2.966  0.5032  0.8076  0.2658
  486MOL0     C65495   3.168   5.196   3.066 -0.2252  0.0637 -0.0871
  486MOL0     C65496   3.090   5.073   3.064  1.0820  0.7774 -1.1279
  486MOL0     C65497   2.980   5.090   3.177 -0.3338  0.3383  0.5229
  486MOL0     C65498   2.858   4.997   3.143 -0.0670  0.0537 -0.8536
  486MOL0     O65499   2.876   4.860   3.165  0.0036  0.4800  0.4537
  486MOL0     C65500   2.849   4.814   3.290 -0.0497 -0.7198 -0.1754
  486MOL0     C65501   2.943   4.797   3.385 -0.4986  0.3526  0.1953
  486MOL0     C65502   2.906   4.736   3.504 -0.4499  0.4848  0.0730
  486MOL0     C65503   3.015   4.724   3.603 -0.7518 -0.5593  0.0208
  486MOL0     C65504   2.770   4.714   3.533 -0.1770  0.2329 -1.1917
  486MOL0     C65505   2.726   4.624   3.642  0.8002  0.4315 -0.4135
  486MOL0     O65506   2.608   4.556   3.630 -0.0488 -0.2172 -0.9812
  486MOL0     C65507   2.554   4.472   3.725 -0.6045 -0.0817 -0.8871
  486MOL0     C65508   2.580   4.479   3.865 -0.3563 -0.4639 -0.1755
  486MOL0     C65509   2.517   4.385   3.947  0.4855 -0.1453 -0.1069
  486MOL0     C65510   2.430   4.286   3.903 -0.9681  0.7819 -0.0039
  486MOL0     O65511   2.393   4.198   4.001  0.0245  1.4533  1.1957
  486MOL0     C65512   2.263   4.139   3.963  0.9449  0.7547 -0.3564
  486MOL0     C65513   2.221   4.047   4.082  0.0068  0.3318 -0.5559
  486MOL0     C65514   2.067   4.014   4.070 -0.1810 -0.6235 -0.4183
  486MOL0     C65515   2.043   3.871   4.120  0.0593 -0.5229  0.6454
  486MOL0     C65516   1.987   3.854   4.264  0.2873  0.5912 -0.9126
  486MOL0     C65517   2.090   3.894   4.373  0.6006  0.0827 -0.4368
  486MOL0     C65518   2.028   3.907   4.515  0.3238  0.2957 -0.9639
  486MOL0     C65519   2.132   3.936   4.628 -0.4089 -0.8892  0.4587
  486MOL0    Cl65520   2.252   3.816   4.649 -0.1812 -0.4584  0.2906
  486MOL0     C65521   2.406   4.283   3.763  0.7163  0.1512 -0.2242
  486MOL0     C65522   2.470   4.371   3.676  0.4435  0.2585 -0.2918
  486MOL0     O65523   2.795   4.626   3.742 -0.2675  0.1427 -0.4709
  486MOL0     C65524   2.673   4.738   3.437  0.1985  0.1452 -1.2642
  486MOL0     C65525   2.714   4.790   3.322 -0.7304  0.3534  1.1777
  486MOL0     N65526   3.083   5.286   2.826 -0.7959  0.7202 -0.0704
  486MOL0     N65527   3.022   5.393   2.788  0.4375 -0.2119 -0.6652
  486MOL0     C65528   2.492   5.952   3.195  0.2067 -0.2936 -0.5304
  486MOL0     C65529   2.391   5.861   3.214  0.9581 -0.8550  0.0877
  486MOL0     C65530   2.060   5.669   3.463 -0.0776  0.8586  0.6387
  486MOL0     C65531   1.940   5.719   3.510 -0.3798 -1.0829  0.8685
  486MOL0     C65532   1.823   5.645   3.541 -0.7190  0.4114 -1.1385
  486MOL0     C65533   1.840   5.508   3.547  0.0701  0.6120  0.2551
  486MOL0     O65534   1.725   5.437   3.571 -0.1738  0.5187 -0.2184
  486MOL0     C65535   1.732   5.291   3.566 -0.3596 -0.7178 -0.2662
  486MOL0     C65536   1.598   5.227   3.605 -0.4026 -0.5813 -0.6519
  486MOL0     C65537   1.567   5.100   3.520  0.1864 -0.1980 -0.1881
  486MOL0     C65538   1.432   5.019   3.542 -0.4131  1.0954  0.1852
  486MOL0     C65539   1.369   5.028   3.671 -1.0384  0.1769  0.4403
  486MOL0     C65540   1.341   5.025   3.789 -0.4494  0.1793 -0.5827
  486MOL0     C65541   1.965   5.452   3.513 -0.4124 -0.8109  0.4065
  486MOL0     C65542   2.076   5.528   3.472  0.0466 -0.2796  0.6658
  486MOL0     H65543   2.495   5.721   3.505  2.1721  2.1605  2.8008
  486MOL0     H65544   2.664   5.884   3.481  1.7199 -1.1945 -1.6073
  486MOL0     H65545   2.754   5.952   3.084 -1.7050 -0.6174  1.1216
  486MOL0     H65546   2.725   6.132   3.084  0.2124  1.7405  2.4835
  486MOL0     H65547   2.926   6.147   3.238  0.7260 -1.8407  1.0873
  486MOL0     H65548   2.967   5.988   3.162 -1.1451 -0.7106 -0.5000
  486MOL0     H65549   2.900   6.243   2.998 -1.9240 -1.1917 -2.8045
  486MOL0     H65550   3.058   6.200   3.037 -0.5843 -1.0258 -2.3739
  486MOL0     H65551   2.864   6.015   2.886 -0.2369 -1.4938  0.9662
  486MOL0     H65552   2.990   6.112   2.801  0.6041 -1.9873 -0.9678
  486MOL0     H65553   3.171   5.991   2.939  0.6616  0.2134 -0.6035
  486MOL0     H65554   3.038   5.886   2.998  1.8831  2.6882  2.8359
  486MOL0     H65555   3.007   5.878   2.721 -0.8489  1.2301  1.5015
  486MOL0     H65556   3.172   5.899   2.729 -1.9860  2.6820 -1.2700
  486MOL0     H65557   3.150   5.657   2.712  0.6732 -1.6493  0.6091
  486MOL0     H65558   3.201   5.691   2.876 -3.3595  1.0681  3.2769
  486MOL0     H65559   2.913   5.648   2.780 -0.7077  0.3445 -1.4780
  486MOL0     H65560   2.952   5.672   2.953 -1.2797 -1.7945 -0.5265
  486MOL0     H65561   3.091   5.489   3.088  2.3447 -0.3255  0.0566
  486MOL0     H65562   3.272   5.173   3.043  0.6996 -1.0672  4.3240
  486MOL0     H65563   3.190   5.243   3.162  1.3453  2.4064 -1.4990
  486MOL0     H65564   3.158   4.991   3.091 -0.1859 -0.0756 -0.4192
  486MOL0     H65565   3.050   5.055   2.964 -0.8693 -3.2955  0.1477
  486MOL0     H65566   2.949   5.195   3.175  0.9288  0.9082  3.6979
  486MOL0     H65567   3.005   5.064   3.281 -0.5943  0.1881  0.5510
  486MOL0     H65568   2.821   5.023   3.043 -0.7272  2.3063 -0.0962
  486MOL0     H65569   2.783   5.027   3.217  0.9743  1.3200 -0.2745
  486MOL0     H65570   3.045   4.830   3.365  0.2094 -2.4370 -1.2457
  486MOL0     H65571   3.017   4.619   3.633 -1.3926 -1.7567 -3.6226
  486MOL0     H65572   3.110   4.755   3.559  0.0740 -2.5378  0.3046
  486MOL0     H65573   2.980   4.777   3.693 -4.2057  0.6650 -1.8519
  486MOL0     H65574   2.617   4.574   3.903 -1.7725 -0.0090  0.1102
  486MOL0     H65575   2.533   4.389   4.054 -0.5959 -0.4833  0.0760
  486MOL0     H65576   2.188   4.217   3.950  0.9807  0.6223 -1.4633
  486MOL0     H65577   2.261   4.068   3.879 -2.6831 -2.3825  2.0111
  486MOL0     H65578   2.278   3.953   4.079  0.1031  0.2982  1.1269
  486MOL0     H65579   2.260   4.071   4.182  3.1276 -0.1468 -1.5418
  486MOL0     H65580   2.034   4.010   3.966  0.1146  1.7878 -0.6512
  486MOL0     H65581   2.013   4.087   4.130 -0.2896 -1.4550  0.5302
  486MOL0     H65582   1.966   3.829   4.055 -2.7362  1.7095  2.2756
  486MOL0     H65583   2.132   3.808   4.121  0.8681  0.5022 -1.5079
  486MOL0     H65584   1.955   3.749   4.271 -1.6383  1.2406  1.9727
  486MOL0     H65585   1.890   3.904   4.271 -1.6179 -2.9171  0.2724
  486MOL0     H65586   2.174   3.826   4.358  1.6680  1.8643 -3.3444
  486MOL0     H65587   2.146   3.986   4.352  1.8634 -0.6511 -0.3951
  486MOL0     H65588   1.974   3.815   4.539 -1.7612  1.9560  1.2450
  486MOL0     H65589   1.944   3.976   4.531  0.0514  0.0010 -1.1108
  486MOL0     H65590   2.070   3.947   4.718 -0.1133  0.0676  0.5588
  486MOL0     H65591   2.186   4.029   4.611 -0.7136 -1.0751 -1.8361
  486MOL0     H65592   2.344   4.211   3.712 -0.3983  0.0978  1.1341
  486MOL0     H65593   2.452   4.372   3.569  0.7199  1.4206 -0.3398
  486MOL0     H65594   2.567   4.716   3.448 -0.2916  2.9850  1.3579
  486MOL0     H65595   2.642   4.797   3.242 -0.3814 -1.3169  0.6724
  486MOL0     H65596   2.500   6.017   3.108  0.1283 -1.2325 -1.2670
  486MOL0     H65597   2.314   5.851   3.138  0.0125  1.1463  0.7161
  486MOL0     H65598   1.928   5.827   3.514 -4.4003 -1.2542 -1.1628
  486MOL0     H65599   1.727   5.681   3.577 -0.6009 -1.5848  1.3689
  486MOL0     H65600   1.750   5.266   3.461 -2.1261 -0.5074 -0.6486
  486MOL0     H65601   1.808   5.248   3.632 -1.5665 -0.0972  1.6040
  486MOL0     H65602   1.515   5.297   3.594  0.7756  0.8565 -0.7673
  486MOL0     H65603   1.602   5.191   3.709  0.0869 -2.0878 -1.1630
  486MOL0     H65604   1.649   5.032   3.541  0.4620  0.5625  1.2811
  486MOL0     H65605   1.571   5.121   3.412  1.4460  0.2300 -0.0734
  486MOL0     H65606   1.430   4.912   3.519  0.0684  0.3225  3.2244
  486MOL0     H65607   1.359   5.064   3.475 -0.5721 -0.7713 -0.9655
  486MOL0     H65608   1.326   5.010   3.894 -0.7434  3.1885 -0.1232
  486MOL0     H65609   1.992   5.351   3.542  0.8897  0.2714  3.4397
  486MOL0     H65610   2.166   5.475   3.442  0.7917  0.1653  2.0097
  487MOL0     O65611   4.836   1.594   6.096  0.2511 -0.2595  0.0576
  487MOL0     C65612   4.774   1.659   6.176 -0.0868 -0.4325 -0.9520
  487MOL0     O65613   4.818   1.780   6.239  0.9381 -0.8194 -0.0658
  487MOL0     C65614   4.920   1.849   6.176  0.4479  0.2371 -0.3450
  487MOL0     C65615   4.907   1.891   6.042 -0.4162 -0.2141  1.0685
  487MOL0     C65616   5.020   1.953   5.986 -0.2319 -1.1010  0.5431
  487MOL0     C65617   5.132   1.990   6.062  0.6206 -0.3049 -0.4644
  487MOL0     O65618   5.229   2.048   5.988 -0.7671  0.0537 -0.8105
  487MOL0     C65619   5.363   2.057   6.043 -0.7664 -0.6849 -0.8198
  487MOL0     C65620   5.453   2.164   5.967  0.0795 -0.2464 -0.2685
  487MOL0     C65621   5.430   2.167   5.814  0.5420  0.5725 -0.1093
  487MOL0     C65622   5.433   2.031   5.746  0.4321 -0.4236 -1.2793
  487MOL0     C65623   5.575   1.984   5.730 -0.8328  0.6108  0.2708
  487MOL0     C65624   5.577   1.836   5.757  0.5079  0.3439  0.3870
  487MOL0     C65625   5.700   1.754   5.707  0.1174 -0.1126  1.2283
  487MOL0     C65626   5.693   1.753   5.558  0.6877 -0.0007  0.4087
  487MOL0     N65627   5.804   1.679   5.488  0.1217  0.0570 -0.3910
  487MOL0     C65628   5.884   1.710   5.388 -0.7023  0.3133 -0.1671
  487MOL0     C65629   5.945   1.598   5.340  0.4066 -0.0058 -0.6883
  487MOL0     C65630   6.007   1.616   5.207  0.7006  0.6446  0.1947
  487MOL0     C65631   6.129   1.527   5.167  0.0343 -0.3366  1.3056
  487MOL0     C65632   6.208   1.622   5.070  0.2377  0.0818 -0.6362
  487MOL0     C65633   6.305   1.546   4.972  0.0297 -0.1512 -0.0252
  487MOL0     O65634   6.239   1.447   4.891  0.0723  0.3883 -0.4021
  487MOL0     C65635   6.156   1.461   4.789 -0.0347  1.0254  0.7568
  487MOL0     C65636   6.066   1.359   4.763  0.0004  0.2115 -0.9193
  487MOL0     C65637   5.985   1.362   4.648  0.7699 -0.1854  1.6756
  487MOL0     C65638   5.915   1.233   4.622  0.8811 -0.7033  0.1512
  487MOL0     C65639   5.975   1.478   4.574 -0.4148  0.1460  0.1124
  487MOL0     C65640   5.884   1.491   4.450  0.4214  0.3517 -0.5165
  487MOL0     O65641   5.855   1.368   4.399  0.5718  0.0090  0.0864
  487MOL0     C65642   5.811   1.356   4.267 -0.3722  0.5357 -0.4856
  487MOL0     C65643   5.862   1.438   4.163  0.9996 -0.5745  0.2648
  487MOL0     C65644   5.822   1.420   4.032  0.7289 -0.6825 -0.3135
  487MOL0     C65645   5.747   1.309   3.992 -0.4860  0.6145 -0.7732
  487MOL0     O65646   5.731   1.295   3.860 -0.2948  0.1804  0.1032
  487MOL0     C65647   5.623   1.203   3.812 -0.0244 -0.9521 -0.0524
  487MOL0     C65648   5.577   1.234   3.671  0.6609  0.3357  0.6709
  487MOL0     C65649   5.684   1.262   3.562 -0.4460  0.2366  0.5332
  487MOL0     C65650   5.715   1.133   3.477 -0.1201 -0.8884  0.2323
  487MOL0     C65651   5.825   1.149   3.375 -0.9103 -0.2453  0.0038
  487MOL0     C65652   5.842   1.044   3.270 -0.0214 -0.2604  0.8310
  487MOL0     C65653   5.955   1.057   3.175  0.0364  0.7026  0.3382
  487MOL0     C65654   5.947   1.182   3.088 -0.1417 -0.6109 -0.5382
  487MOL0    Cl65655   6.081   1.202   2.965  0.2653  0.1510  0.6279
  487MOL0     C65656   5.701   1.225   4.096 -0.5620  0.1640 -0.0465
  487MOL0     C65657   5.740   1.245   4.227 -0.1189  0.7762 -0.5929
  487MOL0     O65658   5.838   1.603   4.422  1.0238  0.2374 -0.2790
  487MOL0     C65659   6.064   1.581   4.599 -0.9115 -1.0249 -0.1811
  487MOL0     C65660   6.162   1.568   4.699  0.0816 -0.0467 -0.0758
  487MOL0     N65661   5.891   1.488   5.410  0.2956  0.1999 -0.5642
  487MOL0     N65662   5.823   1.544   5.503 -0.1203 -0.7218 -0.0117
  487MOL0     C65663   5.136   1.952   6.196  0.6063  0.0117 -1.1226
  487MOL0     C65664   5.036   1.865   6.250  0.1335 -0.6280  0.8286
  487MOL0     C65665   4.634   1.612   6.209 -0.7179  0.5758 -0.9548
  487MOL0     C65666   4.555   1.652   6.317 -0.1576  0.4401  0.2410
  487MOL0     C65667   4.437   1.602   6.352 -0.1926 -0.1392  0.8347
  487MOL0     C65668   4.380   1.508   6.265  0.0942 -0.4927 -0.5486
  487MOL0     O65669   4.251   1.476   6.293  0.7309  0.9160 -0.8668
  487MOL0     C65670   4.146   1.550   6.231 -0.7928  0.5630 -0.1946
  487MOL0     C65671   4.053   1.443   6.173  0.4002  0.8021  0.3017
  487MOL0     C65672   4.111   1.346   6.065  0.9988  0.1297 -0.4945
  487MOL0     C65673   3.999   1.250   6.004 -0.4864 -0.1188 -0.8338
  487MOL0     C65674   4.072   1.160   5.913  0.8237 -0.4274 -1.8081
  487MOL0     C65675   4.141   1.105   5.823 -0.9845  0.0332  0.2761
  487MOL0     C65676   4.442   1.468   6.149 -0.0187 -0.0989  0.9549
  487MOL0     C65677   4.573   1.523   6.118  0.7852  0.1078 -0.9222
  487MOL0     H65678   4.812   1.873   5.993  0.3740  0.9110 -0.9719
  487MOL0     H65679   5.021   1.988   5.883  3.0620 -1.0737  0.4934
  487MOL0     H65680   5.355   2.106   6.141 -1.1230  0.2209 -1.2931
  487MOL0     H65681   5.413   1.960   6.044 -0.5174 -0.5568 -0.2714
  487MOL0     H65682   5.443   2.266   6.004  2.5370  0.4980 -1.4396
  487MOL0     H65683   5.556   2.137   5.992  1.2466  1.9612 -2.3067
  487MOL0     H65684   5.332   2.213   5.801  0.8625  1.8475  1.6998
  487MOL0     H65685   5.501   2.242   5.779 -0.8113  1.5119 -0.9398
  487MOL0     H65686   5.371   1.961   5.803  0.8822 -0.7114 -1.1303
  487MOL0     H65687   5.383   2.036   5.649 -2.0524  0.6976 -0.0169
  487MOL0     H65688   5.603   1.993   5.624 -1.8896  0.1900 -0.0624
  487MOL0     H65689   5.651   2.030   5.794  2.5579 -3.4343 -0.4042
  487MOL0     H65690   5.575   1.824   5.866 -1.5039 -6.2410  0.0222
  487MOL0     H65691   5.488   1.786   5.719  0.9658  0.0097 -0.2599
  487MOL0     H65692   5.793   1.806   5.729 -1.4939  2.0820  3.2522
  487MOL0     H65693   5.692   1.650   5.741  1.5880 -1.2656 -1.5180
  487MOL0     H65694   5.683   1.852   5.512  1.9225  0.4031  0.9784
  487MOL0     H65695   5.595   1.709   5.537 -0.3817  2.1089  0.6661
  487MOL0     H65696   5.905   1.809   5.349  3.3676  0.2852  1.4247
  487MOL0     H65697   5.923   1.614   5.138  3.3188 -3.0869 -3.4199
  487MOL0     H65698   6.035   1.721   5.211 -1.4386  1.6471 -4.2876
  487MOL0     H65699   6.088   1.447   5.105  0.1374  1.3286 -1.0416
  487MOL0     H65700   6.191   1.495   5.251  2.0053  1.5858  0.6657
  487MOL0     H65701   6.271   1.685   5.134 -1.2658  2.6095 -1.4818
  487MOL0     H65702   6.140   1.687   5.015  1.0073  2.1965  0.7653
  487MOL0     H65703   6.383   1.493   5.028  1.4234 -0.9160 -2.5395
  487MOL0     H65704   6.368   1.616   4.915 -1.1695  0.8952 -0.1077
  487MOL0     H65705   6.047   1.278   4.832 -2.4524  1.2109 -0.3362
  487MOL0     H65706   5.946   1.151   4.687 -0.0615 -0.5550  0.8093
  487MOL0     H65707   5.808   1.254   4.631  1.1781  1.0604 -0.0809
  487MOL0     H65708   5.944   1.197   4.523  1.0241 -2.2823  0.7422
  487MOL0     H65709   5.928   1.523   4.177  1.0188 -0.6122  0.4025
  487MOL0     H65710   5.873   1.484   3.961 -4.2185  2.5784 -1.3550
  487MOL0     H65711   5.654   1.098   3.812  1.4079 -0.5463 -0.3625
  487MOL0     H65712   5.536   1.209   3.877 -0.3393 -1.4622 -0.4108
  487MOL0     H65713   5.519   1.147   3.640 -0.9658  1.7017 -0.2995
  487MOL0     H65714   5.508   1.318   3.676 -0.2737 -0.4506  1.3762
  487MOL0     H65715   5.773   1.309   3.605 -0.8225 -1.0590  2.8561
  487MOL0     H65716   5.651   1.333   3.485  0.0299  0.7111  0.7574
  487MOL0     H65717   5.758   1.067   3.553 -0.3627  1.4021  2.4902
  487MOL0     H65718   5.629   1.073   3.446  0.3559 -1.9919  0.9679
  487MOL0     H65719   5.921   1.168   3.422  0.0186  0.6328 -2.0868
  487MOL0     H65720   5.799   1.242   3.322 -3.5777 -2.1958 -2.4300
  487MOL0     H65721   5.862   0.942   3.305  0.3366 -2.3015 -4.4328
  487MOL0     H65722   5.749   1.046   3.214 -0.3129  3.7281  1.1314
  487MOL0     H65723   5.962   0.969   3.110 -1.3003 -0.8616  2.2172
  487MOL0     H65724   6.053   1.053   3.224  0.4812  0.3643 -0.5576
  487MOL0     H65725   5.945   1.264   3.161 -0.8021  0.5101 -1.7904
  487MOL0     H65726   5.855   1.180   3.030  1.5470  2.2397 -3.6639
  487MOL0     H65727   5.641   1.139   4.068 -1.5224  0.0317  2.1825
  487MOL0     H65728   5.711   1.162   4.291 -4.3295 -1.2462 -4.5213
  487MOL0     H65729   6.065   1.679   4.552  2.8616 -0.7284  0.2150
  487MOL0     H65730   6.224   1.653   4.727 -0.1319 -0.5458  2.0611
  487MOL0     H65731   5.223   1.954   6.261  1.9888 -2.8963 -2.6717
  487MOL0     H65732   5.052   1.840   6.355 -0.1296 -1.1630  0.7418
  487MOL0     H65733   4.613   1.709   6.388  1.4139 -0.0757 -0.5768
  487MOL0     H65734   4.394   1.634   6.447  3.3053  4.6458  1.1620
  487MOL0     H65735   4.104   1.631   6.292 -0.8511  1.8090 -1.8253
  487MOL0     H65736   4.184   1.601   6.142  1.4568  0.8990  0.8885
  487MOL0     H65737   3.967   1.498   6.133 -0.3987 -1.1989 -0.8446
  487MOL0     H65738   4.027   1.384   6.261  1.2291 -0.4320 -0.2504
  487MOL0     H65739   4.193   1.294   6.116  1.2907  0.0063 -1.0772
  487MOL0     H65740   4.157   1.412   5.990 -1.8222  0.9209 -1.6649
  487MOL0     H65741   3.917   1.307   5.958  0.3605  1.7728 -0.1139
  487MOL0     H65742   3.963   1.205   6.096  0.4678 -1.5884 -1.1567
  487MOL0     H65743   4.210   1.058   5.756  0.5571  0.6032  1.4076
  487MOL0     H65744   4.406   1.386   6.088  2.3178 -2.9131  3.0546
  487MOL0     H65745   4.617   1.505   6.020  1.2765  1.6851 -1.0239
  488MOL0     O65746   5.523   0.519   5.444  0.0508 -0.1635 -0.1987
  488MOL0     C65747   5.493   0.414   5.491  1.0680 -0.8222 -0.3431
  488MOL0     O65748   5.560   0.351   5.589 -0.1212 -0.1991  0.2356
  488MOL0     C65749   5.688   0.378   5.621  0.3119 -0.2568  0.5869
  488MOL0     C65750   5.736   0.496   5.677  0.2940  0.7456  0.8298
  488MOL0     C65751   5.869   0.518   5.725  0.4998 -0.7105  0.4354
  488MOL0     C65752   5.963   0.417   5.712 -0.0276  0.0390  0.1327
  488MOL0     O65753   6.101   0.424   5.732  0.6363 -0.0708  0.5568
  488MOL0     C65754   6.140   0.554   5.785 -0.0296  0.3031 -0.6190
  488MOL0     C65755   6.292   0.574   5.778 -0.2647 -0.5013 -0.1205
  488MOL0     C65756   6.334   0.710   5.718 -0.0104 -0.2812 -0.5765
  488MOL0     C65757   6.484   0.735   5.715  0.2601  0.3089  0.9697
  488MOL0     C65758   6.551   0.861   5.777 -0.2397  0.6466  0.0639
  488MOL0     C65759   6.687   0.892   5.721  0.2827 -0.5232 -0.3845
  488MOL0     C65760   6.767   0.759   5.734 -0.1105 -1.1668  0.4036
  488MOL0     C65761   6.915   0.806   5.712 -0.2176 -0.6753 -0.4029
  488MOL0     N65762   7.009   0.689   5.732 -0.3156 -0.0073 -0.0055
  488MOL0     C65763   7.076   0.629   5.837  0.4385 -0.4648 -0.5524
  488MOL0     C65764   7.103   0.496   5.803  0.3837 -1.1316 -0.4592
  488MOL0     C65765   7.175   0.401   5.894  0.1442  0.5388  0.8328
  488MOL0     C65766   7.222   0.274   5.818 -0.1135 -0.6369  0.5171
  488MOL0     C65767   7.296   0.173   5.898  0.1277 -0.2366  0.7489
  488MOL0     C65768   7.320   0.041   5.825 -0.3537  0.1601 -1.4375
  488MOL0     O65769   7.411  -0.028   5.919 -0.6204 -0.0473  0.2185
  488MOL0     C65770   7.496  -0.125   5.868  0.7099 -0.4588 -0.0271
  488MOL0     C65771   7.557  -0.203   5.958  0.9224 -0.3455 -1.0913
  488MOL0     C65772   7.630  -0.314   5.920 -0.7123 -0.7959 -0.3718
  488MOL0     C65773   7.687  -0.390   6.037 -0.1284 -0.1470  0.2436
  488MOL0     C65774   7.661  -0.343   5.783 -0.2997 -0.3907 -0.2494
  488MOL0     C65775   7.745  -0.460   5.730  0.0547  0.1305 -0.8087
  488MOL0     O65776   7.874  -0.466   5.778  0.3856 -0.6577  0.6895
  488MOL0     C65777   7.977  -0.545   5.722  1.3129  0.6064  0.8319
  488MOL0     C65778   8.100  -0.501   5.757 -0.0645 -1.1388  0.1312
  488MOL0     C65779   8.210  -0.564   5.697 -0.5138 -0.2655  0.5039
  488MOL0     C65780   8.203  -0.663   5.604  0.6226 -0.2877 -0.5828
  488MOL0     O65781   8.312  -0.719   5.547 -0.0658 -0.2876  0.3220
  488MOL0     C65782   8.366  -0.828   5.617  0.2958  0.2520 -1.7391
  488MOL0     C65783   8.322  -0.966   5.567 -0.4127  0.6409 -0.4292
  488MOL0     C65784   8.303  -0.971   5.412  0.3638  0.2587 -0.3926
  488MOL0     C65785   8.421  -1.037   5.338 -1.1699 -0.4328 -0.8060
  488MOL0     C65786   8.404  -1.076   5.196 -0.1467  0.8646  0.9777
  488MOL0     C65787   8.534  -1.069   5.109  0.0982 -0.0236  0.5076
  488MOL0     C65788   8.498  -1.114   4.963 -0.5672 -0.3791  0.4141
  488MOL0     C65789   8.382  -1.038   4.893  0.2880 -0.2698  0.9847
  488MOL0    Cl65790   8.413  -1.051   4.718  0.1496  0.4594  0.3553
  488MOL0     C65791   8.076  -0.708   5.567 -0.4092  0.2494  0.1450
  488MOL0     C65792   7.961  -0.661   5.641 -0.5402 -0.6644  0.0119
  488MOL0     O65793   7.700  -0.530   5.640 -0.3080 -0.2881 -0.5209
  488MOL0     C65794   7.593  -0.264   5.688 -0.0595 -0.4562 -0.0468
  488MOL0     C65795   7.509  -0.163   5.730  0.2435  0.3487 -0.5608
  488MOL0     N65796   7.063   0.489   5.679  0.4840  0.5484  0.7234
  488MOL0     N65797   7.009   0.599   5.634 -0.0591  0.2352 -0.3709
  488MOL0     C65798   5.914   0.298   5.655 -0.4779 -0.6880  0.1385
  488MOL0     C65799   5.782   0.276   5.609  0.0466  0.0545 -0.3483
  488MOL0     C65800   5.358   0.371   5.458  0.3112  0.8565 -0.2456
  488MOL0     C65801   5.292   0.264   5.517  0.2331  0.3411  0.0619
  488MOL0     C65802   5.163   0.231   5.496 -0.3490 -0.6465  0.3312
  488MOL0     C65803   5.088   0.312   5.408 -0.2097 -0.0052 -0.8725
  488MOL0     O65804   4.959   0.275   5.401  0.8411  0.8361  0.3099
  488MOL0     C65805   4.871   0.339   5.308 -0.9928 -0.3669  0.4221
  488MOL0     C65806   4.834   0.248   5.182 -0.7948 -0.4693  0.3947
  488MOL0     C65807   4.762   0.117   5.234 -0.7538  0.6205  0.9620
  488MOL0     C65808   4.843  -0.005   5.282 -0.2650  0.4882 -0.7817
  488MOL0     C65809   4.929  -0.060   5.179  0.6546  0.2351 -0.0736
  488MOL0     C65810   5.000  -0.109   5.101 -0.3023  0.1596  0.5537
  488MOL0     C65811   5.146   0.419   5.341  0.6622  0.7268  0.0648
  488MOL0     C65812   5.279   0.443   5.370 -0.4300  1.1288  0.1111
  488MOL0     H65813   5.674   0.583   5.694 -0.2991  0.1746  1.6723
  488MOL0     H65814   5.902   0.604   5.783 -0.5147 -1.1431  1.6944
  488MOL0     H65815   6.100   0.622   5.709  0.9474  2.6206  0.8263
  488MOL0     H65816   6.099   0.588   5.881  1.5863 -0.3215  0.3316
  488MOL0     H65817   6.311   0.569   5.886 -1.7041  3.4842  0.4913
  488MOL0     H65818   6.337   0.487   5.730  1.0331  0.2603 -0.3257
  488MOL0     H65819   6.289   0.732   5.621 -1.3829  1.5973  0.4142
  488MOL0     H65820   6.301   0.789   5.786  4.1702  0.1238  1.2995
  488MOL0     H65821   6.535   0.650   5.761  2.0569  0.4441 -0.6864
  488MOL0     H65822   6.507   0.735   5.608  0.4003 -2.0167  0.9430
  488MOL0     H65823   6.491   0.953   5.774  0.0076  0.8626  1.3570
  488MOL0     H65824   6.567   0.847   5.884  1.9898  1.2373 -0.1274
  488MOL0     H65825   6.685   0.938   5.621  1.5249  1.8377  0.5900
  488MOL0     H65826   6.732   0.966   5.788  1.8829 -1.5344 -0.2892
  488MOL0     H65827   6.757   0.707   5.830 -1.4883  1.2794  1.6991
  488MOL0     H65828   6.737   0.696   5.651 -0.2715  0.9599 -1.2358
  488MOL0     H65829   6.941   0.893   5.773  0.4219 -1.1255 -0.0163
  488MOL0     H65830   6.938   0.844   5.612  4.0982  1.3723  1.0920
  488MOL0     H65831   7.100   0.670   5.934  1.1686  0.4443 -1.0991
  488MOL0     H65832   7.262   0.454   5.932  0.6385  3.6133 -3.7650
  488MOL0     H65833   7.108   0.366   5.973  0.2571 -1.2323  0.1920
  488MOL0     H65834   7.294   0.320   5.751 -0.8553 -1.0012 -0.5562
  488MOL0     H65835   7.140   0.222   5.766 -0.5537  1.0010 -0.4787
  488MOL0     H65836   7.237   0.164   5.990 -0.6685  0.6929  0.3470
  488MOL0     H65837   7.390   0.225   5.919  1.7050 -1.4835 -2.5558
  488MOL0     H65838   7.364   0.054   5.726  1.2676  1.7885 -0.5673
  488MOL0     H65839   7.224  -0.010   5.808  0.6981 -2.1780 -0.8049
  488MOL0     H65840   7.543  -0.188   6.065  1.2297  2.3494 -1.3575
  488MOL0     H65841   7.602  -0.421   6.099  0.8261  1.4581  2.4934
  488MOL0     H65842   7.751  -0.473   6.007  2.7291  1.5544  1.1487
  488MOL0     H65843   7.746  -0.339   6.114 -0.2142  0.2811  0.0282
  488MOL0     H65844   8.113  -0.421   5.829  2.6585 -1.9229  0.6347
  488MOL0     H65845   8.311  -0.537   5.728 -1.0940  1.8029  0.7374
  488MOL0     H65846   8.474  -0.818   5.609  0.3081  1.6385 -0.3835
  488MOL0     H65847   8.350  -0.832   5.726  1.5932 -4.4214 -1.5124
  488MOL0     H65848   8.393  -1.041   5.604  2.1642  3.5795  1.1844
  488MOL0     H65849   8.222  -0.984   5.607 -0.9372  0.5966 -1.7119
  488MOL0     H65850   8.275  -0.876   5.367  0.2739 -0.7827 -2.7014
  488MOL0     H65851   8.221  -1.039   5.387  1.0822 -0.7831 -0.0022
  488MOL0     H65852   8.502  -0.964   5.339 -0.5027 -1.0246 -3.4957
  488MOL0     H65853   8.455  -1.134   5.376 -2.2956 -1.8215 -3.1261
  488MOL0     H65854   8.333  -1.011   5.144 -0.9904 -0.1400  0.8540
  488MOL0     H65855   8.361  -1.176   5.207  2.3956 -0.1040  3.1784
  488MOL0     H65856   8.574  -0.967   5.118  2.0745 -0.6346 -0.6030
  488MOL0     H65857   8.597  -1.150   5.147 -1.5445 -2.3056 -1.3139
  488MOL0     H65858   8.478  -1.222   4.957 -2.3535 -0.0669  0.4351
  488MOL0     H65859   8.591  -1.095   4.907 -1.0245  2.1281  0.4335
  488MOL0     H65860   8.365  -0.936   4.928  1.5699  0.1073  0.5541
  488MOL0     H65861   8.290  -1.095   4.910 -0.6359  0.6911 -0.5456
  488MOL0     H65862   8.060  -0.779   5.486  1.0184 -0.0134  0.0719
  488MOL0     H65863   7.862  -0.702   5.622 -0.4858 -1.3075  1.0160
  488MOL0     H65864   7.612  -0.281   5.583  0.7346  1.9683 -0.3611
  488MOL0     H65865   7.465  -0.099   5.654 -2.3034 -4.2793 -3.4278
  488MOL0     H65866   5.980   0.211   5.652  0.4849 -0.0741  1.9545
  488MOL0     H65867   5.754   0.173   5.588 -3.2655  0.2515  2.3557
  488MOL0     H65868   5.346   0.210   5.594  1.3926  1.6964  0.2399
  488MOL0     H65869   5.107   0.153   5.546  1.1860 -2.6362 -0.9462
  488MOL0     H65870   4.779   0.359   5.363 -1.0449 -0.3725  0.3373
  488MOL0     H65871   4.898   0.440   5.277 -0.8987 -0.2177  0.9920
  488MOL0     H65872   4.926   0.218   5.132 -0.9289 -2.6201  1.3345
  488MOL0     H65873   4.767   0.301   5.114 -0.6125 -0.2380  0.3918
  488MOL0     H65874   4.711   0.068   5.151 -0.4849  1.9251 -0.0035
  488MOL0     H65875   4.688   0.156   5.304  1.9973  2.3891  3.1203
  488MOL0     H65876   4.767  -0.072   5.323 -2.1231  3.1333  0.3674
  488MOL0     H65877   4.912   0.028   5.360  0.5399 -0.6900 -0.9610
  488MOL0     H65878   5.059  -0.164   5.032  0.3241 -1.3920  2.2392
  488MOL0     H65879   5.109   0.479   5.259  3.5947 -0.7696 -2.5659
  488MOL0     H65880   5.327   0.529   5.324 -0.0083  1.2779  0.8089
  489MOL0     O65881   2.965   5.777   6.552 -0.8126  0.3437 -0.9720
  489MOL0     C65882   3.043   5.849   6.622 -0.5336 -0.8649  0.2356
  489MOL0     O65883   3.170   5.884   6.592 -0.8995 -0.0498 -0.3252
  489MOL0     C65884   3.213   5.877   6.463 -0.4984  0.2491 -0.0387
  489MOL0     C65885   3.274   5.767   6.426 -0.0368  0.2984 -0.1552
  489MOL0     C65886   3.317   5.753   6.294 -0.6642  0.0200  1.4727
  489MOL0     C65887   3.303   5.858   6.202 -0.0827 -0.7463 -0.8330
  489MOL0     O65888   3.351   5.849   6.078 -0.4065  0.0125  1.1229
  489MOL0     C65889   3.268   5.852   5.965 -0.2229 -0.0366  0.5178
  489MOL0     C65890   3.236   5.708   5.924  0.4607  0.6540  0.1298
  489MOL0     C65891   3.329   5.661   5.813 -1.2665 -0.5385  0.1223
  489MOL0     C65892   3.302   5.717   5.672  0.0931 -0.6385 -1.2174
  489MOL0     C65893   3.320   5.605   5.559  0.5657 -0.8161  0.2143
  489MOL0     C65894   3.335   5.684   5.431  0.9193  0.3048 -0.3051
  489MOL0     C65895   3.434   5.610   5.333 -0.0703 -0.1411  0.5756
  489MOL0     C65896   3.492   5.672   5.208  0.4592 -0.3125  0.7851
  489MOL0     N65897   3.381   5.704   5.118  0.8115 -0.1560  0.6572
  489MOL0     C65898   3.324   5.831   5.135  0.3799  0.5891  0.3066
  489MOL0     C65899   3.235   5.848   5.029 -0.2145 -0.1612 -0.6767
  489MOL0     C65900   3.131   5.957   5.000  0.5385  0.0571  0.2484
  489MOL0     C65901   3.012   5.937   5.097 -0.5473 -0.0873 -0.0181
  489MOL0     C65902   2.944   5.805   5.088 -0.0477  0.0213 -0.7261
  489MOL0     C65903   2.809   5.808   5.001  0.3525  0.1119 -0.2257
  489MOL0     O65904   2.751   5.686   5.034  0.1570  0.0645  0.2651
  489MOL0     C65905   2.782   5.569   4.980 -0.1542  0.3779  0.2887
  489MOL0     C65906   2.846   5.548   4.856  0.0802  0.8498  0.4042
  489MOL0     C65907   2.871   5.424   4.799  0.2455 -0.1818 -0.2826
  489MOL0     C65908   2.942   5.419   4.665  0.1827  0.6580  0.4947
  489MOL0     C65909   2.840   5.315   4.877  0.2476 -0.0405 -1.2363
  489MOL0     C65910   2.883   5.176   4.852 -0.4289  0.2155 -0.5433
  489MOL0     O65911   2.847   5.084   4.940 -1.1596 -0.5278 -0.8050
  489MOL0     C65912   2.893   4.951   4.926 -0.2986  0.5665  1.4384
  489MOL0     C65913   2.884   4.859   4.817 -0.4725 -0.2187 -0.3503
  489MOL0     C65914   2.919   4.723   4.826  0.5862  0.6912  0.5965
  489MOL0     C65915   2.952   4.671   4.957  0.2436  0.3867 -0.3277
  489MOL0     O65916   2.984   4.541   4.979  0.2017  0.1618  0.2673
  489MOL0     C65917   2.942   4.440   4.877  0.3391 -0.3126 -0.4602
  489MOL0     C65918   2.799   4.424   4.857  1.3640 -0.6067  0.0612
  489MOL0     C65919   2.736   4.394   4.989 -0.1957  1.0389 -0.5617
  489MOL0     C65920   2.594   4.353   4.961  0.7223  0.1679 -0.1325
  489MOL0     C65921   2.500   4.346   5.074  0.4916 -0.3643 -0.2274
  489MOL0     C65922   2.350   4.351   5.030  0.1116 -0.3991  0.1327
  489MOL0     C65923   2.252   4.330   5.148 -0.1982  0.8501 -0.4995
  489MOL0     C65924   2.269   4.417   5.275 -0.1399 -0.3066  0.1442
  489MOL0    Cl65925   2.141   4.381   5.399  0.0418 -0.5848  0.0496
  489MOL0     C65926   2.962   4.753   5.063 -1.2406 -0.4879 -0.1844
  489MOL0     C65927   2.931   4.893   5.051 -0.0008  1.1563 -0.6355
  489MOL0     O65928   2.947   5.151   4.753  0.6596 -0.3584 -0.4350
  489MOL0     C65929   2.760   5.335   4.993  0.5050  0.6678  1.3818
  489MOL0     C65930   2.733   5.463   5.037 -0.2470  0.9004  0.7228
  489MOL0     N65931   3.247   5.737   4.949 -0.6066 -0.0427  0.0712
  489MOL0     N65932   3.337   5.652   5.000  0.3007 -0.3415 -0.5679
  489MOL0     C65933   3.254   5.973   6.254  0.6303 -0.6711  0.2259
  489MOL0     C65934   3.201   5.978   6.378  0.3527  0.8620  0.0859
  489MOL0     C65935   2.996   5.904   6.748  0.0809 -0.2122  0.5313
  489MOL0     C65936   3.090   5.969   6.826 -0.0666  0.0807  0.1153
  489MOL0     C65937   3.046   6.033   6.939  0.4566 -0.3623  1.0919
  489MOL0     C65938   2.909   6.029   6.975 -0.4542  0.3574  0.4964
  489MOL0     O65939   2.890   6.090   7.093  0.3966 -0.5938 -0.4293
  489MOL0     C65940   2.859   5.997   7.199  0.0168  0.4284  1.3045
  489MOL0     C65941   2.925   6.024   7.333 -0.3615 -0.6641  0.5179
  489MOL0     C65942   3.084   6.013   7.348 -0.2165  0.2210  1.2825
  489MOL0     C65943   3.150   6.151   7.368  0.2950 -0.9368 -0.6882
  489MOL0     C65944   3.099   6.212   7.493 -0.2793  0.0732  0.1075
  489MOL0     C65945   3.060   6.266   7.592 -0.1840 -0.7293 -0.5905
  489MOL0     C65946   2.814   5.971   6.895  0.2764  0.2703  0.4704
  489MOL0     C65947   2.855   5.898   6.777 -0.2685  0.0972 -0.7483
  489MOL0     H65948   3.286   5.694   6.505 -1.2758 -0.7265 -0.8718
  489MOL0     H65949   3.362   5.662   6.256 -0.3123  0.5012  0.6901
  489MOL0     H65950   3.172   5.898   5.990 -1.6942 -1.1967 -2.5722
  489MOL0     H65951   3.317   5.894   5.877 -1.7589 -1.6051 -1.1606
  489MOL0     H65952   3.237   5.641   6.010 -1.0020 -1.6758 -1.5576
  489MOL0     H65953   3.135   5.688   5.887 -0.1339 -2.8758  3.0451
  489MOL0     H65954   3.432   5.684   5.843 -1.9986 -1.7302  4.2058
  489MOL0     H65955   3.325   5.551   5.808  0.2537 -0.7015  1.5169
  489MOL0     H65956   3.200   5.754   5.669 -0.5068 -1.4496  2.9094
  489MOL0     H65957   3.370   5.801   5.653  1.7893 -1.7750 -0.4373
  489MOL0     H65958   3.417   5.561   5.585 -0.5477 -2.3493  2.0356
  489MOL0     H65959   3.244   5.527   5.568 -1.1849  0.8370  0.4078
  489MOL0     H65960   3.235   5.695   5.388 -0.7377  3.0857  3.5921
  489MOL0     H65961   3.380   5.782   5.451  2.1652 -0.3918  0.4332
  489MOL0     H65962   3.521   5.608   5.400 -1.0516 -0.1702  1.9005
  489MOL0     H65963   3.396   5.509   5.313 -0.9991  0.0844  1.1241
  489MOL0     H65964   3.565   5.609   5.157 -0.1705  0.1880 -0.8206
  489MOL0     H65965   3.554   5.757   5.239  1.8004 -1.3579  1.0114
  489MOL0     H65966   3.344   5.891   5.223 -0.0121 -0.7258  1.3314
  489MOL0     H65967   3.169   6.056   5.026  1.4527 -0.3341  0.4129
  489MOL0     H65968   3.100   5.946   4.896  0.9839 -0.3194  0.1575
  489MOL0     H65969   2.952   6.028   5.086  1.4594  1.2749 -0.2694
  489MOL0     H65970   3.053   5.942   5.199 -1.9009  3.2390  0.5101
  489MOL0     H65971   2.905   5.773   5.185  1.8981 -3.7032 -1.0181
  489MOL0     H65972   3.020   5.730   5.064 -0.7432 -0.4807 -1.3898
  489MOL0     H65973   2.836   5.808   4.895  1.0854  0.8376 -0.0517
  489MOL0     H65974   2.740   5.890   5.022  0.0346 -0.1227 -0.3421
  489MOL0     H65975   2.874   5.634   4.796 -0.1428  1.0644  0.6014
  489MOL0     H65976   2.874   5.374   4.592 -1.6454  2.4797  0.9603
  489MOL0     H65977   2.960   5.521   4.628  2.4191  0.0176 -0.3418
  489MOL0     H65978   3.041   5.374   4.661 -0.4578 -0.7282 -1.0751
  489MOL0     H65979   2.853   4.901   4.721  2.0017 -2.8649 -2.4984
  489MOL0     H65980   2.922   4.659   4.739  2.4072  0.6872  0.6340
  489MOL0     H65981   3.001   4.447   4.785  1.6793 -1.4940  0.2630
  489MOL0     H65982   2.988   4.351   4.921 -1.3531 -1.0109 -0.0268
  489MOL0     H65983   2.742   4.512   4.825  1.5659 -0.3268  0.4514
  489MOL0     H65984   2.793   4.346   4.781  3.8209 -2.1333  1.3100
  489MOL0     H65985   2.742   4.487   5.045  1.5616  1.7754 -1.8818
  489MOL0     H65986   2.785   4.313   5.044  0.4746  1.2547 -0.8341
  489MOL0     H65987   2.551   4.425   4.891 -2.8808 -1.8097 -0.1987
  489MOL0     H65988   2.570   4.262   4.905 -4.6859 -0.3812  2.4560
  489MOL0     H65989   2.517   4.432   5.140 -1.1489 -1.0521  1.1642
  489MOL0     H65990   2.524   4.252   5.124  1.3824  0.1058  0.2563
  489MOL0     H65991   2.333   4.454   4.997  1.3415 -0.4037 -0.6071
  489MOL0     H65992   2.330   4.286   4.944 -2.1606  1.0522 -0.5159
  489MOL0     H65993   2.249   4.221   5.162 -1.0576  0.7886 -1.1016
  489MOL0     H65994   2.153   4.347   5.106 -2.2466 -1.9336  2.7128
  489MOL0     H65995   2.252   4.521   5.244 -2.0909 -0.4553  0.6267
  489MOL0     H65996   2.372   4.405   5.311 -0.1880 -0.4926  0.2178
  489MOL0     H65997   2.987   4.704   5.157  1.1973 -0.6408 -0.8365
  489MOL0     H65998   2.920   4.942   5.147 -2.7979  0.8712 -0.7310
  489MOL0     H65999   2.714   5.251   5.043  2.5713 -0.8342  0.9002
  489MOL0     H66000   2.671   5.482   5.124 -0.4957  4.4635 -0.0507
  489MOL0     H66001   3.235   6.057   6.188 -0.4686  0.3594  1.8108
  489MOL0     H66002   3.156   6.071   6.411  1.1056  1.1841  0.2372
  489MOL0     H66003   3.195   5.991   6.810 -0.0142 -0.0653  0.2541
  489MOL0     H66004   3.116   6.089   7.000  1.2283 -1.8085  1.5870
  489MOL0     H66005   2.750   5.991   7.208  0.0428  0.0553  1.3506
  489MOL0     H66006   2.899   5.898   7.177 -1.6021  0.3161 -1.6051
  489MOL0     H66007   2.881   5.965   7.414  1.1184 -1.6655  0.6176
  489MOL0     H66008   2.888   6.124   7.358  2.3066  0.1284  1.5663
  489MOL0     H66009   3.114   5.973   7.251 -5.5988  0.4201 -0.8344
  489MOL0     H66010   3.113   5.946   7.429  1.7483  1.2987  1.5234
  489MOL0     H66011   3.115   6.219   7.290 -0.1842  0.9876  1.1110
  489MOL0     H66012   3.259   6.146   7.369  0.4155  0.3687 -2.4791
  489MOL0     H66013   3.012   6.299   7.682 -1.6183  0.4007 -1.7324
  489MOL0     H66014   2.709   5.992   6.913  0.1971 -1.6073  2.6987
  489MOL0     H66015   2.775   5.862   6.713 -2.7439  1.0067  1.6765
  490MOL0     O66016   9.408   1.156   2.202 -0.3378  0.5406 -0.6731
  490MOL0     C66017   9.498   1.099   2.137  0.9856 -1.9609 -0.5201
  490MOL0     O66018   9.514   1.125   1.998 -0.7829  0.5200 -0.3835
  490MOL0     C66019   9.423   1.202   1.934 -0.3827  0.3319  0.8300
  490MOL0     C66020   9.368   1.141   1.815  0.2070  0.6088 -1.1812
  490MOL0     C66021   9.266   1.206   1.750 -0.5692  0.3829  0.2441
  490MOL0     C66022   9.222   1.334   1.783  0.1772  0.5158  0.0905
  490MOL0     O66023   9.133   1.415   1.722 -0.2775  0.0872  0.2326
  490MOL0     C66024   9.089   1.388   1.590  0.1029  0.7515  0.4485
  490MOL0     C66025   8.974   1.480   1.557 -0.0111 -1.1577  0.1599
  490MOL0     C66026   9.028   1.619   1.515  0.1406 -0.5255 -0.0672
  490MOL0     C66027   8.920   1.728   1.535  0.5276  0.2859 -0.5163
  490MOL0     C66028   8.799   1.704   1.447  0.8924  0.1596  0.1373
  490MOL0     C66029   8.699   1.824   1.430 -0.1554  0.5782 -1.2918
  490MOL0     C66030   8.682   1.892   1.573 -0.0812 -0.0173 -1.1389
  490MOL0     C66031   8.570   1.994   1.612 -0.3460  0.6839 -0.6209
  490MOL0     N66032   8.581   2.134   1.565 -0.2850 -1.3807  0.6716
  490MOL0     C66033   8.667   2.235   1.602  0.9459 -0.4245 -0.3601
  490MOL0     C66034   8.672   2.328   1.507 -0.5277  0.1479  0.1027
  490MOL0     C66035   8.745   2.458   1.512  0.4737 -0.6181  1.0923
  490MOL0     C66036   8.900   2.449   1.522 -0.5327  1.3262 -0.8900
  490MOL0     C66037   8.956   2.578   1.595 -0.4354 -0.7241  0.2469
  490MOL0     C66038   8.973   2.690   1.488 -0.2622 -0.9710 -0.3795
  490MOL0     O66039   9.001   2.809   1.572 -0.1620  0.9816 -0.7189
  490MOL0     C66040   9.018   2.930   1.518  0.3003 -0.1935  0.1374
  490MOL0     C66041   9.027   2.944   1.380  1.1498  0.1745 -0.5044
  490MOL0     C66042   9.049   3.063   1.313 -0.1266  1.1465  0.7356
  490MOL0     C66043   9.036   3.065   1.163  1.1041  1.3054  1.2624
  490MOL0     C66044   9.065   3.176   1.396  0.1939 -0.4773  0.3976
  490MOL0     C66045   9.103   3.312   1.339 -0.0897  0.1377 -1.3149
  490MOL0     O66046   9.193   3.312   1.236  0.5804 -0.3048 -0.3458
  490MOL0     C66047   9.227   3.429   1.182 -0.2850 -0.0338 -0.3018
  490MOL0     C66048   9.131   3.534   1.150  0.1877  0.7596 -0.7813
  490MOL0     C66049   9.165   3.630   1.051  0.8628 -0.5666  0.1335
  490MOL0     C66050   9.283   3.634   0.980 -0.4187 -0.1770 -0.8311
  490MOL0     O66051   9.317   3.717   0.885 -0.0789 -0.7067  0.1800
  490MOL0     C66052   9.242   3.687   0.764  0.1218  0.1167  0.1410
  490MOL0     C66053   9.246   3.805   0.671 -0.1028 -0.1739 -0.6999
  490MOL0     C66054   9.386   3.830   0.639 -1.0594 -0.1737 -0.5293
  490MOL0     C66055   9.407   3.947   0.548 -0.2727  0.0240 -0.3574
  490MOL0     C66056   9.375   3.918   0.398  0.0260 -0.1695 -0.0476
  490MOL0     C66057   9.381   4.055   0.325  0.2713  0.8228 -0.1159
  490MOL0     C66058   9.362   4.049   0.171 -0.1997 -0.3198  0.8325
  490MOL0     C66059   9.427   4.162   0.108 -0.1839  0.0112 -0.7942
  490MOL0    Cl66060   9.440   4.145  -0.075  0.1579 -0.0731 -0.0976
  490MOL0     C66061   9.384   3.557   1.040 -0.3609  0.6755 -0.5838
  490MOL0     C66062   9.357   3.451   1.134  1.4076  0.0727  0.4193
  490MOL0     O66063   9.062   3.410   1.402 -0.1926 -0.5226  0.1250
  490MOL0     C66064   9.053   3.160   1.537 -0.1277  0.8725 -0.7246
  490MOL0     C66065   9.025   3.038   1.604  0.0751 -0.2883 -0.5006
  490MOL0     N66066   8.591   2.287   1.397 -0.4385 -0.7466 -1.0504
  490MOL0     N66067   8.527   2.176   1.442  0.2336 -1.6556 -0.3394
  490MOL0     C66068   9.280   1.383   1.898 -0.4259 -0.4665 -0.5735
  490MOL0     C66069   9.381   1.329   1.962  0.1941 -0.6098  0.0078
  490MOL0     C66070   9.603   1.037   2.209  0.5151 -0.3912 -0.6252
  490MOL0     C66071   9.644   0.911   2.164  0.3468 -0.0479  0.2738
  490MOL0     C66072   9.766   0.862   2.214  0.1773  0.2783 -0.1092
  490MOL0     C66073   9.841   0.931   2.308  0.0599 -0.8937  0.0001
  490MOL0     O66074   9.960   0.885   2.358  0.5895  0.4082  0.5980
  490MOL0     C66075   9.995   0.751   2.314 -0.4213  0.3934 -0.3384
  490MOL0     C66076  10.140   0.746   2.365  0.4188  0.5757  0.0254
  490MOL0     C66077  10.187   0.610   2.404  0.2742  0.4221 -0.5382
  490MOL0     C66078  10.215   0.506   2.294 -0.0902 -0.4356 -0.3741
  490MOL0     C66079  10.344   0.506   2.226  0.1308  0.8275 -1.5966
  490MOL0     C66080  10.457   0.491   2.191 -0.5806 -0.5100  0.1258
  490MOL0     C66081   9.796   1.048   2.358  0.6700 -0.2097  0.3799
  490MOL0     C66082   9.681   1.104   2.304 -0.5938 -0.2124 -1.2088
  490MOL0     H66083   9.389   1.038   1.789 -1.8325 -0.7780  2.0418
  490MOL0     H66084   9.240   1.147   1.663  3.6099  0.4390 -1.2843
  490MOL0     H66085   9.172   1.397   1.520  0.7918 -2.7141  0.6009
  490MOL0     H66086   9.038   1.292   1.576 -0.1682  1.2036 -2.0467
  490MOL0     H66087   8.929   1.438   1.466  0.6020  0.5952 -0.9972
  490MOL0     H66088   8.916   1.490   1.649 -0.1332  1.7579 -0.1482
  490MOL0     H66089   9.116   1.636   1.578  0.8652  1.5636 -1.5169
  490MOL0     H66090   9.064   1.626   1.412 -2.7773  3.0617 -1.0880
  490MOL0     H66091   8.887   1.718   1.639 -0.5280  3.6271 -0.4061
  490MOL0     H66092   8.948   1.833   1.534  1.3170  0.2293  2.9815
  490MOL0     H66093   8.824   1.665   1.348 -1.2277  0.0226 -0.3961
  490MOL0     H66094   8.743   1.624   1.496 -1.5818  1.3138 -0.6177
  490MOL0     H66095   8.730   1.899   1.356  2.0847  0.9796 -0.0388
  490MOL0     H66096   8.600   1.784   1.406  0.7690 -2.0451 -1.0086
  490MOL0     H66097   8.662   1.807   1.639  0.3462  0.7935  0.0642
  490MOL0     H66098   8.769   1.949   1.605 -1.3375  0.4572  1.7684
  490MOL0     H66099   8.559   1.996   1.721 -0.0808  1.9473 -0.6068
  490MOL0     H66100   8.485   1.945   1.564  1.5294 -3.1965 -0.3839
  490MOL0     H66101   8.728   2.227   1.691 -0.4655  1.1212  0.7992
  490MOL0     H66102   8.715   2.516   1.424  2.7052 -3.1406 -1.5301
  490MOL0     H66103   8.711   2.520   1.595  3.4094  0.8029  1.3674
  490MOL0     H66104   8.949   2.432   1.425 -1.4023  0.8144 -1.2492
  490MOL0     H66105   8.925   2.359   1.579 -3.0207  0.5241 -0.9397
  490MOL0     H66106   9.055   2.559   1.637  0.9309  0.6402 -2.1722
  490MOL0     H66107   8.893   2.617   1.675  0.8057  0.0289  0.8875
  490MOL0     H66108   8.887   2.707   1.423  0.4222  1.7786 -0.7247
  490MOL0     H66109   9.061   2.657   1.432 -1.2265 -3.1015 -0.7337
  490MOL0     H66110   9.022   2.848   1.330 -3.8303 -1.3224  2.1449
  490MOL0     H66111   9.125   3.091   1.105 -0.5237  0.6785 -1.7749
  490MOL0     H66112   9.021   2.960   1.135  2.0690  1.8327 -1.6029
  490MOL0     H66113   8.945   3.115   1.127  0.3201 -0.5314  0.5422
  490MOL0     H66114   9.028   3.526   1.184  0.6504 -1.5269  0.2578
  490MOL0     H66115   9.079   3.689   1.021 -0.7963 -1.4218  2.9018
  490MOL0     H66116   9.270   3.590   0.722  0.3505  1.0772 -2.0807
  490MOL0     H66117   9.137   3.670   0.789  0.1580  2.4640  2.2190
  490MOL0     H66118   9.179   3.790   0.585 -0.6037 -0.5184 -0.2521
  490MOL0     H66119   9.216   3.890   0.733 -1.5672 -0.6886 -0.6507
  490MOL0     H66120   9.432   3.733   0.617 -0.0747 -0.0175  0.7218
  490MOL0     H66121   9.427   3.858   0.736  0.6987  0.5155 -1.4299
  490MOL0     H66122   9.358   4.040   0.578  0.1342  0.9021 -2.2863
  490MOL0     H66123   9.517   3.950   0.551  0.1051 -4.7740  3.0103
  490MOL0     H66124   9.273   3.883   0.381 -0.4428 -0.6661  3.1963
  490MOL0     H66125   9.446   3.850   0.350 -0.5270  0.2333 -1.4938
  490MOL0     H66126   9.308   4.124   0.370 -0.7468  0.3575 -1.0078
  490MOL0     H66127   9.480   4.100   0.339 -0.2086  2.1030 -0.6740
  490MOL0     H66128   9.256   4.056   0.145  0.3854  1.2819 -1.4371
  490MOL0     H66129   9.414   3.960   0.135 -4.5267 -2.8810  0.2026
  490MOL0     H66130   9.528   4.176   0.149 -1.1179 -0.9491  2.0822
  490MOL0     H66131   9.377   4.253   0.144 -0.1542 -1.3728  3.2488
  490MOL0     H66132   9.489   3.568   1.015  0.3807 -1.7545  1.0915
  490MOL0     H66133   9.438   3.384   1.162  1.4978 -1.4193 -2.9227
  490MOL0     H66134   9.055   3.237   1.614 -1.6602 -0.2035  0.4635
  490MOL0     H66135   9.015   3.023   1.710 -2.2500 -3.4892 -1.0261
  490MOL0     H66136   9.261   1.487   1.926  1.5544  0.1470 -1.3168
  490MOL0     H66137   9.415   1.373   2.055 -2.2773 -0.3685  0.8810
  490MOL0     H66138   9.609   0.864   2.072 -0.8606  2.1119 -0.4403
  490MOL0     H66139   9.801   0.769   2.171 -0.5837 -0.2394  0.3792
  490MOL0     H66140   9.932   0.675   2.358 -0.7150  0.5699 -0.4509
  490MOL0     H66141   9.997   0.745   2.205 -1.4749 -1.3494 -0.2971
  490MOL0     H66142  10.136   0.804   2.458 -1.5696 -0.4293  0.6281
  490MOL0     H66143  10.210   0.792   2.295 -3.0319  0.6677 -3.7936
  490MOL0     H66144  10.107   0.557   2.457 -0.3446  3.0647  1.3951
  490MOL0     H66145  10.261   0.614   2.484  0.8949 -2.6537 -0.8327
  490MOL0     H66146  10.136   0.513   2.218 -1.6629 -4.0393  0.7205
  490MOL0     H66147  10.219   0.405   2.335  1.1317 -1.1464 -2.1276
  490MOL0     H66148  10.552   0.484   2.142 -1.7708 -1.8502 -2.2051
  490MOL0     H66149   9.858   1.102   2.429  1.6600  0.5252 -1.0046
  490MOL0     H66150   9.642   1.196   2.347  1.1590  1.4607 -2.9909
  491MOL0     O66151   4.338  10.676   4.546 -0.1647 -0.3470  0.8784
  491MOL0     C66152   4.289  10.780   4.581  0.3986 -0.0276  0.0319
  491MOL0     O66153   4.162  10.807   4.628  0.6471  0.0425  0.0024
  491MOL0     C66154   4.081  10.698   4.652 -0.2755  0.1239 -0.8275
  491MOL0     C66155   4.091  10.639   4.772  0.8980 -0.4935 -0.0778
  491MOL0     C66156   4.041  10.505   4.785  0.1715  0.0412 -0.1247
  491MOL0     C66157   3.971  10.450   4.687  0.0758  0.6774 -0.0747
  491MOL0     O66158   3.919  10.331   4.721  0.8395  0.0935 -0.1897
  491MOL0     C66159   3.817  10.278   4.632 -0.4590  0.1986 -0.0599
  491MOL0     C66160   3.770  10.144   4.693 -0.3754 -0.5306  0.5360
  491MOL0     C66161   3.654  10.172   4.796  0.0663 -0.9265  0.4208
  491MOL0     C66162   3.650  10.079   4.915 -0.1607  0.3441 -0.4531
  491MOL0     C66163   3.529  10.110   5.010 -0.7498  0.8267  0.4893
  491MOL0     C66164   3.574  10.158   5.154  1.2830 -0.2273 -0.4511
  491MOL0     C66165   3.439  10.182   5.228  0.3673 -0.9561  0.1072
  491MOL0     C66166   3.470  10.233   5.366 -0.5057 -0.3920 -0.4261
  491MOL0     N66167   3.344  10.263   5.433  0.0287 -0.0370  0.2794
  491MOL0     C66168   3.283  10.188   5.529  1.0887 -0.9828 -0.6439
  491MOL0     C66169   3.171  10.260   5.565 -0.1579  0.1167 -0.2733
  491MOL0     C66170   3.066  10.221   5.669 -0.5135 -0.2210 -0.2887
  491MOL0     C66171   3.080  10.301   5.800  0.5931  0.0003 -0.5919
  491MOL0     C66172   3.019  10.446   5.792 -0.2033  0.3965 -0.9798
  491MOL0     C66173   3.065  10.537   5.896  0.6347 -0.5742  0.3252
  491MOL0     O66174   3.003  10.502   6.020 -0.0144 -0.8375  0.2143
  491MOL0     C66175   2.879  10.545   6.053 -0.0910 -0.2536  0.6715
  491MOL0     C66176   2.828  10.445   6.131 -0.3132  0.0860 -0.7187
  491MOL0     C66177   2.691  10.436   6.163  0.7396  0.8105  0.2028
  491MOL0     C66178   2.651  10.330   6.265  0.1685 -0.3265 -0.7454
  491MOL0     C66179   2.605  10.542   6.115  0.9979  0.1546  0.3837
  491MOL0     C66180   2.462  10.540   6.149 -0.4421 -0.6495 -0.3936
  491MOL0     O66181   2.382  10.604   6.051 -0.7143  0.7313 -0.0422
  491MOL0     C66182   2.253  10.617   6.097  0.1753 -1.1991  0.0063
  491MOL0     C66183   2.137  10.574   6.032 -0.5714 -0.1820  0.6633
  491MOL0     C66184   2.015  10.580   6.093  0.3876  0.2365 -0.8393
  491MOL0     C66185   1.998  10.639   6.219 -0.4421  0.5014  1.0583
  491MOL0     O66186   1.882  10.641   6.291 -0.2192 -0.4323  0.5342
  491MOL0     C66187   1.762  10.603   6.220 -0.3442 -0.1060  0.4058
  491MOL0     C66188   1.643  10.640   6.298 -0.1033  0.1351  0.1443
  491MOL0     C66189   1.520  10.616   6.214  0.0003 -0.1582 -0.6464
  491MOL0     C66190   1.389  10.640   6.297  0.4063  0.6788 -0.1238
  491MOL0     C66191   1.253  10.664   6.227 -0.3420  0.2559  0.2053
  491MOL0     C66192   1.240  10.583   6.088  0.3155  0.0606 -0.4929
  491MOL0     C66193   1.100  10.559   6.039 -1.2631  0.1083  0.5358
  491MOL0     C66194   1.036  10.702   5.999 -0.5362 -0.2445  0.0894
  491MOL0    Cl66195   0.856  10.692   5.993 -0.1425  0.1311 -0.0780
  491MOL0     C66196   2.114  10.688   6.282  0.2501 -0.7120 -0.0799
  491MOL0     C66197   2.229  10.683   6.221 -0.9174 -0.4857 -0.0715
  491MOL0     O66198   2.417  10.495   6.252  0.2857  0.1649 -0.6240
  491MOL0     C66199   2.663  10.642   6.035  0.0622 -0.6913  0.2064
  491MOL0     C66200   2.799  10.642   5.996 -1.0132 -0.3723  0.6625
  491MOL0     N66201   3.165  10.365   5.487 -0.0435 -0.9454 -0.1527
  491MOL0     N66202   3.275  10.375   5.415 -0.3950  0.2129  0.2444
  491MOL0     C66203   3.947  10.516   4.564 -1.0276  0.1464 -0.0789
  491MOL0     C66204   4.002  10.645   4.552  0.4182 -0.6462  0.3168
  491MOL0     C66205   4.381  10.890   4.595  0.0046 -0.6050  0.5428
  491MOL0     C66206   4.358  10.994   4.686  0.5687 -0.0536  0.8984
  491MOL0     C66207   4.460  11.087   4.703  0.3939 -0.6182 -1.0950
  491MOL0     C66208   4.575  11.089   4.631 -0.4181  0.3699  0.2333
  491MOL0     O66209   4.674  11.181   4.646 -0.1881  0.0446  0.2995
  491MOL0     C66210   4.630  11.309   4.707 -0.3685  0.1909  0.3030
  491MOL0     C66211   4.702  11.435   4.646 -1.2692  0.3339 -0.6323
  491MOL0     C66212   4.680  11.566   4.710  0.1027  0.3272  0.6011
  491MOL0     C66213   4.760  11.594   4.833 -0.9538  0.4558  0.7353
  491MOL0     C66214   4.912  11.602   4.804  1.1846  0.1726  0.0107
  491MOL0     C66215   5.032  11.586   4.795  0.3087 -0.1956 -0.4114
  491MOL0     C66216   4.605  10.976   4.558 -0.6970 -0.5526 -0.3566
  491MOL0     C66217   4.511  10.878   4.537  0.2857 -0.6234 -0.4182
  491MOL0     H66218   4.143  10.674   4.861 -0.3288  0.6479  0.2317
  491MOL0     H66219   4.050  10.452   4.879  0.2550  2.1080  1.1026
  491MOL0     H66220   3.728  10.341   4.633 -1.8636 -1.6635  2.0983
  491MOL0     H66221   3.854  10.253   4.532 -3.0017 -1.7363 -0.6303
  491MOL0     H66222   3.727  10.087   4.610  0.0222  4.7299 -3.8131
  491MOL0     H66223   3.860  10.089   4.722  0.9729 -0.1939 -2.5839
  491MOL0     H66224   3.670  10.269   4.842  1.1842 -0.5018 -0.7979
  491MOL0     H66225   3.560  10.175   4.740  0.1719 -4.4155 -0.1572
  491MOL0     H66226   3.646   9.978   4.873  0.3581 -0.4763  1.3847
  491MOL0     H66227   3.743  10.072   4.971  0.9186 -0.6032 -2.2784
  491MOL0     H66228   3.455  10.174   4.960 -1.0532  0.2252  0.1461
  491MOL0     H66229   3.464  10.023   5.028  0.4662 -0.6660 -1.8120
  491MOL0     H66230   3.632  10.080   5.203  1.9798 -0.7396 -2.0216
  491MOL0     H66231   3.625  10.255   5.142 -0.5110  0.9636  1.1057
  491MOL0     H66232   3.391  10.263   5.173  4.9171  0.4682 -2.3021
  491MOL0     H66233   3.377  10.092   5.235  2.9633 -2.7165  2.5107
  491MOL0     H66234   3.542  10.315   5.375  0.0350 -1.0787  3.6162
  491MOL0     H66235   3.527  10.152   5.413 -2.0128 -2.0483 -1.3121
  491MOL0     H66236   3.328  10.097   5.568  0.6059 -0.1531  2.0132
  491MOL0     H66237   2.970  10.222   5.616 -0.3973 -0.2837 -0.4998
  491MOL0     H66238   3.077  10.117   5.704 -2.2364  0.2711  1.9918
  491MOL0     H66239   3.180  10.313   5.842 -0.4103  0.7766  1.7534
  491MOL0     H66240   3.027  10.245   5.878  0.4499  2.5093  1.2382
  491MOL0     H66241   2.910  10.452   5.787 -0.2024  3.9975  0.1020
  491MOL0     H66242   3.047  10.485   5.694 -1.9950  0.1685 -1.6145
  491MOL0     H66243   3.044  10.643   5.877  2.2338  0.6027  4.0390
  491MOL0     H66244   3.173  10.544   5.913  0.6800  2.6572 -0.6200
  491MOL0     H66245   2.897  10.362   6.141 -1.1366 -0.6611 -1.1084
  491MOL0     H66246   2.731  10.274   6.313  0.6531  1.6144  0.8729
  491MOL0     H66247   2.591  10.364   6.350  1.5064  0.6983 -0.1760
  491MOL0     H66248   2.597  10.258   6.203  0.7195 -0.6424 -0.8651
  491MOL0     H66249   2.155  10.530   5.935  1.4746 -3.2692  2.2789
  491MOL0     H66250   1.938  10.532   6.033  2.4527 -1.4422 -2.3129
  491MOL0     H66251   1.750  10.649   6.122 -1.8726  3.5151  2.0750
  491MOL0     H66252   1.767  10.495   6.204  1.5699  0.0489 -0.2761
  491MOL0     H66253   1.639  10.570   6.381  1.7319  2.0538  1.9712
  491MOL0     H66254   1.645  10.739   6.344  0.4993  1.0432 -1.7166
  491MOL0     H66255   1.527  10.512   6.179  0.8963 -0.8120  1.3283
  491MOL0     H66256   1.522  10.700   6.144 -1.5017  1.6558  1.3832
  491MOL0     H66257   1.374  10.545   6.350  0.0201  0.0792 -1.2698
  491MOL0     H66258   1.407  10.724   6.364  0.1589 -1.3070  2.6019
  491MOL0     H66259   1.228  10.769   6.207 -0.6625  0.0300 -0.6207
  491MOL0     H66260   1.177  10.623   6.293  0.0538 -0.2689  0.3406
  491MOL0     H66261   1.304  10.641   6.020 -0.5901  3.1696  1.0807
  491MOL0     H66262   1.280  10.483   6.107  1.2259  0.2363 -1.3622
  491MOL0     H66263   1.044  10.498   6.110 -0.7046  0.1787  1.0420
  491MOL0     H66264   1.104  10.497   5.949  2.2347 -1.8260  1.8528
  491MOL0     H66265   1.085  10.735   5.907  3.5148  0.8785  2.4325
  491MOL0     H66266   1.077  10.779   6.064  2.1498  1.3499 -3.1977
  491MOL0     H66267   2.111  10.730   6.382  1.6786 -1.4687  0.3008
  491MOL0     H66268   2.318  10.732   6.257 -2.3226  0.3874  2.4640
  491MOL0     H66269   2.593  10.713   5.992  0.7182 -0.9162 -1.3291
  491MOL0     H66270   2.832  10.711   5.919 -1.5635 -1.8265 -0.9433
  491MOL0     H66271   3.895  10.480   4.476 -2.6030 -3.0129  1.9433
  491MOL0     H66272   3.978  10.701   4.462 -0.6126  0.3886  1.1998
  491MOL0     H66273   4.263  11.011   4.736  0.7096 -1.4492  1.6911
  491MOL0     H66274   4.457  11.157   4.786 -0.1401 -1.8685 -0.0102
  491MOL0     H66275   4.524  11.326   4.689 -1.2531 -2.8493  2.0193
  491MOL0     H66276   4.643  11.316   4.815  1.0568 -1.4410  0.2856
  491MOL0     H66277   4.672  11.452   4.542  1.0176 -0.5884 -1.5134
  491MOL0     H66278   4.809  11.411   4.643 -1.5541 -0.9850 -0.5131
  491MOL0     H66279   4.574  11.582   4.730  0.8007  1.9229  3.5746
  491MOL0     H66280   4.696  11.651   4.643  1.3712  0.1378  0.6436
  491MOL0     H66281   4.740  11.509   4.899 -1.4602 -0.8702 -1.0451
  491MOL0     H66282   4.735  11.690   4.879  1.3888  0.7643  1.5038
  491MOL0     H66283   5.137  11.565   4.789  0.6627  1.5445 -0.9755
  491MOL0     H66284   4.708  10.971   4.524 -0.4157 -1.0127  0.5335
  491MOL0     H66285   4.543  10.799   4.469 -0.0098 -0.3636 -0.8721
  492MOL0     O66286   6.515   9.749   6.946 -0.6086 -0.2361 -0.2326
  492MOL0     C66287   6.507   9.727   7.071  0.8712  0.3991 -0.4403
  492MOL0     O66288   6.612   9.721   7.158 -0.1804 -0.5594 -0.1698
  492MOL0     C66289   6.744   9.729   7.116 -0.8302 -1.0832  0.5919
  492MOL0     C66290   6.840   9.705   7.216 -1.0413 -0.0672 -0.2534
  492MOL0     C66291   6.978   9.737   7.192  1.1311  0.6735  0.7949
  492MOL0     C66292   7.016   9.782   7.070 -0.3592  1.5748  0.1339
  492MOL0     O66293   7.151   9.803   7.058 -0.5008 -0.0509 -0.2802
  492MOL0     C66294   7.197   9.884   6.941 -0.1095  0.1411  0.2279
  492MOL0     C66295   7.334   9.958   6.972 -0.7036  0.6293 -0.7936
  492MOL0     C66296   7.321  10.049   7.097  0.2738  0.6497 -0.2550
  492MOL0     C66297   7.455  10.110   7.128  0.0297  0.1590 -0.2830
  492MOL0     C66298   7.435  10.193   7.260  0.0221  0.3099  0.7012
  492MOL0     C66299   7.535  10.303   7.293  0.1929 -0.3500 -0.0424
  492MOL0     C66300   7.669  10.230   7.332  1.0814  0.2381  0.4544
  492MOL0     C66301   7.763  10.338   7.375 -0.8856 -0.1590 -0.5507
  492MOL0     N66302   7.830  10.416   7.268  0.9710 -0.2559 -0.2640
  492MOL0     C66303   7.969  10.435   7.262  1.4600 -0.0630  0.1053
  492MOL0     C66304   7.998  10.481   7.137 -0.3077 -0.0329 -0.5811
  492MOL0     C66305   8.139  10.503   7.101 -0.1514 -0.7720 -0.4479
  492MOL0     C66306   8.178  10.378   7.015  0.2029  0.6786 -0.0240
  492MOL0     C66307   8.178  10.234   7.067 -0.2018 -0.6600 -0.5151
  492MOL0     C66308   8.281  10.209   7.184 -0.3663  0.3234 -0.7793
  492MOL0     O66309   8.203  10.255   7.301 -1.0331 -0.1853  0.1331
  492MOL0     C66310   8.247  10.198   7.423 -0.7553  0.4444  1.0490
  492MOL0     C66311   8.376  10.160   7.453 -0.8723 -0.0442 -0.7857
  492MOL0     C66312   8.410  10.086   7.571  0.8729  0.8285  0.8490
  492MOL0     C66313   8.562  10.042   7.574 -0.1718  0.9036  0.3232
  492MOL0     C66314   8.304  10.053   7.663 -0.4763  0.1381 -0.0350
  492MOL0     C66315   8.325   9.959   7.781 -0.0107 -0.4951  0.3263
  492MOL0     O66316   8.244   9.984   7.890 -0.5880  0.7853  0.5135
  492MOL0     C66317   8.241   9.884   7.987 -0.2742  0.1284  0.3220
  492MOL0     C66318   8.354   9.835   8.054 -0.3972  0.2167  0.0438
  492MOL0     C66319   8.340   9.739   8.154  0.4185 -0.6349 -0.8003
  492MOL0     C66320   8.217   9.676   8.180  0.6593 -0.4496  0.1783
  492MOL0     O66321   8.207   9.572   8.268 -0.6070  0.0152 -0.5582
  492MOL0     C66322   8.088   9.491   8.270 -0.1739  0.0117 -0.4561
  492MOL0     C66323   8.137   9.358   8.316  0.5333  0.8289 -0.1013
  492MOL0     C66324   8.017   9.269   8.332 -0.7578  0.6725 -0.8363
  492MOL0     C66325   8.055   9.133   8.379  0.3872 -0.1636  0.7169
  492MOL0     C66326   7.946   9.055   8.453 -0.0865 -0.1472 -0.5843
  492MOL0     C66327   7.801   9.044   8.381  0.2031 -0.1851 -0.1605
  492MOL0     C66328   7.707   8.930   8.415 -0.6928  0.7595  0.4574
  492MOL0     C66329   7.744   8.787   8.372  0.5870 -0.2270 -0.1481
  492MOL0    Cl66330   7.870   8.711   8.478  0.4122 -0.2681  0.3373
  492MOL0     C66331   8.106   9.728   8.109  0.4758  0.4936  1.0375
  492MOL0     C66332   8.124   9.833   8.021 -0.6962  0.2687  0.3539
  492MOL0     O66333   8.403   9.869   7.768 -0.0820  0.1579 -0.4354
  492MOL0     C66334   8.181  10.126   7.644 -0.4769 -1.1959  0.7896
  492MOL0     C66335   8.164  10.202   7.530  0.9443  0.1596 -0.5334
  492MOL0     N66336   7.870  10.467   7.073 -1.5479  0.2326  0.6335
  492MOL0     N66337   7.774  10.430   7.144 -0.0792  1.0538 -0.1917
  492MOL0     C66338   6.918   9.814   6.969  0.3757 -0.4315 -0.5526
  492MOL0     C66339   6.781   9.784   6.993 -0.3789  0.4805 -0.7960
  492MOL0     C66340   6.367   9.717   7.113 -0.9940 -0.0342 -0.1728
  492MOL0     C66341   6.257   9.701   7.025  0.3268 -0.7805 -0.2262
  492MOL0     C66342   6.122   9.701   7.079  0.4305  0.2809 -0.3136
  492MOL0     C66343   6.102   9.697   7.218 -0.0086 -0.4483 -1.0960
  492MOL0     O66344   5.973   9.698   7.276 -1.0970  0.2563  0.8056
  492MOL0     C66345   5.851   9.741   7.211  0.0132  0.6739 -0.0109
  492MOL0     C66346   5.764   9.613   7.201  0.5427 -0.0876  0.1662
  492MOL0     C66347   5.821   9.508   7.100  1.2943  0.6626  0.9363
  492MOL0     C66348   5.726   9.380   7.104  0.0173 -0.8460  0.0065
  492MOL0     C66349   5.616   9.381   7.002 -0.2142  0.0011  0.6001
  492MOL0     C66350   5.534   9.387   6.910  0.1841  0.2810  0.6861
  492MOL0     C66351   6.209   9.709   7.302 -0.6860  0.1901  0.7375
  492MOL0     C66352   6.340   9.719   7.247  0.5441 -0.3599  0.3767
  492MOL0     H66353   6.806   9.677   7.315  2.4173 -3.6645  0.1556
  492MOL0     H66354   7.048   9.725   7.274 -0.3981 -3.7592  1.7609
  492MOL0     H66355   7.208   9.823   6.851 -0.8223  1.8378 -1.0567
  492MOL0     H66356   7.126   9.967   6.931  0.2112  0.7177  2.2214
  492MOL0     H66357   7.414   9.886   6.992 -1.5379 -0.2447 -0.5106
  492MOL0     H66358   7.368  10.016   6.886  2.2313  0.9650  0.4701
  492MOL0     H66359   7.254  10.132   7.072 -1.1815 -1.0293 -2.2922
  492MOL0     H66360   7.276   9.990   7.178  1.3037 -0.1711 -0.2673
  492MOL0     H66361   7.531  10.037   7.160 -0.2671  0.1656  0.4471
  492MOL0     H66362   7.481  10.174   7.043 -0.5567 -1.2960 -1.5992
  492MOL0     H66363   7.341  10.248   7.255  0.2420  0.7189  0.9960
  492MOL0     H66364   7.431  10.121   7.343  1.2987 -0.9857 -0.2885
  492MOL0     H66365   7.548  10.374   7.210  0.5853  1.9129  1.8621
  492MOL0     H66366   7.494  10.371   7.367 -3.4268  0.0555 -2.1814
  492MOL0     H66367   7.648  10.151   7.404 -0.1456  0.7865  0.7297
  492MOL0     H66368   7.704  10.187   7.238 -0.9121  2.2945 -1.3636
  492MOL0     H66369   7.838  10.286   7.435 -0.0500  3.8338  2.3054
  492MOL0     H66370   7.730  10.406   7.454  3.6103  2.1959 -0.3635
  492MOL0     H66371   8.039  10.421   7.343 -0.0170  1.1655  1.6669
  492MOL0     H66372   8.136  10.590   7.035 -1.9544 -1.1059 -0.8442
  492MOL0     H66373   8.202  10.527   7.187 -0.4474 -0.7873 -0.2243
  492MOL0     H66374   8.277  10.406   6.979 -0.5081  0.0538 -2.7191
  492MOL0     H66375   8.115  10.378   6.925  1.2839  0.5390 -0.8042
  492MOL0     H66376   8.192  10.156   6.992  2.5565 -1.6303  0.8962
  492MOL0     H66377   8.075  10.222   7.102 -0.9899  1.6445 -1.8223
  492MOL0     H66378   8.374  10.267   7.181  0.0290 -0.3018 -1.0129
  492MOL0     H66379   8.308  10.104   7.202 -0.0287  0.5824  0.2435
  492MOL0     H66380   8.467  10.180   7.398 -0.8461 -2.5819 -1.8264
  492MOL0     H66381   8.629  10.110   7.520  0.4158 -0.7687 -1.1390
  492MOL0     H66382   8.600  10.016   7.673 -0.6853 -3.7544 -0.4614
  492MOL0     H66383   8.562   9.947   7.520 -2.1042  1.2725 -0.4091
  492MOL0     H66384   8.455   9.872   8.040  0.9419 -3.2147 -0.4101
  492MOL0     H66385   8.432   9.712   8.206  0.9873  0.8431 -0.9709
  492MOL0     H66386   8.016   9.540   8.337  2.0450  1.8270  0.7192
  492MOL0     H66387   8.044   9.489   8.169  0.8924  3.0458 -1.0872
  492MOL0     H66388   8.188   9.325   8.225  0.6818 -0.4179  0.4165
  492MOL0     H66389   8.191   9.357   8.410  0.0626  1.0360  0.1738
  492MOL0     H66390   7.964   9.273   8.236  0.3763 -0.4313 -1.5357
  492MOL0     H66391   7.944   9.309   8.402  0.8101 -1.2682  2.1280
  492MOL0     H66392   8.065   9.079   8.284  0.3236 -1.6117  1.5078
  492MOL0     H66393   8.153   9.139   8.426  0.8742  3.7272 -0.4439
  492MOL0     H66394   7.918   9.109   8.544  0.0405 -0.7736 -0.1713
  492MOL0     H66395   7.993   8.963   8.488 -0.6446 -0.5504 -0.8677
  492MOL0     H66396   7.751   9.137   8.410 -0.0769 -1.3165  3.5174
  492MOL0     H66397   7.810   9.051   8.272 -1.5529  0.2953 -0.3071
  492MOL0     H66398   7.602   8.947   8.391 -0.5377 -0.8802 -1.7984
  492MOL0     H66399   7.705   8.905   8.521 -3.9005 -0.0227  0.3318
  492MOL0     H66400   7.776   8.777   8.268 -1.1076 -0.3251 -0.6923
  492MOL0     H66401   7.651   8.730   8.385  0.3158  0.3310  0.4271
  492MOL0     H66402   8.003   9.694   8.120 -0.0503  1.3049 -0.9555
  492MOL0     H66403   8.047   9.881   7.962  2.1635  1.8635 -2.3823
  492MOL0     H66404   8.103  10.133   7.719 -0.4809  1.9018  0.6268
  492MOL0     H66405   8.062  10.238   7.524 -0.2381 -2.8385 -0.2644
  492MOL0     H66406   6.946   9.863   6.877 -1.6695  1.1217 -0.4202
  492MOL0     H66407   6.721   9.820   6.910  0.4000 -0.9388 -2.0168
  492MOL0     H66408   6.259   9.693   6.916  0.0269 -1.8951 -0.1527
  492MOL0     H66409   6.036   9.698   7.012 -1.2167  1.3592  1.6211
  492MOL0     H66410   5.795   9.811   7.275  1.6174  1.9241  0.0812
  492MOL0     H66411   5.856   9.786   7.111 -0.8894 -1.0005 -0.8562
  492MOL0     H66412   5.662   9.640   7.170  0.7881  1.3674  0.5300
  492MOL0     H66413   5.764   9.564   7.299 -0.7928 -2.4877 -0.9541
  492MOL0     H66414   5.929   9.489   7.104  1.4959  1.2319 -0.8514
  492MOL0     H66415   5.828   9.561   7.005 -0.6788 -1.8998 -0.7533
  492MOL0     H66416   5.681   9.361   7.202 -0.4264  1.8688  0.4187
  492MOL0     H66417   5.779   9.291   7.070  1.0666 -0.1143 -0.3343
  492MOL0     H66418   5.447   9.385   6.846  0.3476 -4.0185  0.2947
  492MOL0     H66419   6.188   9.697   7.408  3.5482 -1.1334  1.6017
  492MOL0     H66420   6.418   9.720   7.323 -1.7717  0.3241  2.9343
  493MOL0     O66421   1.794   9.468   4.371  0.1173  0.5585 -0.2526
  493MOL0     C66422   1.735   9.362   4.364 -0.2324  0.5845  0.0714
  493MOL0     O66423   1.623   9.326   4.430  0.4806  0.0723  1.1098
  493MOL0     C66424   1.580   9.397   4.531  0.1039  0.5525  0.3185
  493MOL0     C66425   1.647   9.381   4.655  0.3268 -0.0496  0.2261
  493MOL0     C66426   1.642   9.480   4.748  1.1473  0.0011 -0.3989
  493MOL0     C66427   1.555   9.595   4.728 -0.5107  0.8215 -0.6972
  493MOL0     O66428   1.531   9.700   4.814 -0.5679  0.1403  0.6918
  493MOL0     C66429   1.609   9.694   4.940 -0.0290  1.0434  0.1062
  493MOL0     C66430   1.532   9.784   5.028 -1.0883  0.1404  0.0143
  493MOL0     C66431   1.612   9.812   5.161 -0.7364 -0.0921 -0.2817
  493MOL0     C66432   1.536   9.829   5.291  0.5512  1.3404 -0.9993
  493MOL0     C66433   1.632   9.817   5.411 -0.3827  0.3883  0.0368
  493MOL0     C66434   1.580   9.727   5.523 -0.8400  0.8163  0.3261
  493MOL0     C66435   1.487   9.811   5.615 -0.2779 -0.5230  0.3419
  493MOL0     C66436   1.446   9.755   5.757  0.1718  0.1646  0.8388
  493MOL0     N66437   1.363   9.634   5.738 -0.7601 -0.7260 -0.2557
  493MOL0     C66438   1.391   9.500   5.715  0.0267  0.4455 -0.0569
  493MOL0     C66439   1.270   9.447   5.686  0.0943  0.1170  0.1690
  493MOL0     C66440   1.247   9.307   5.635 -0.3228 -0.3981  0.2104
  493MOL0     C66441   1.144   9.240   5.702  0.9543 -0.3486  0.3200
  493MOL0     C66442   1.131   9.246   5.857  0.0868  0.3289 -0.2200
  493MOL0     C66443   1.264   9.218   5.934  0.5913  0.5732  0.4937
  493MOL0     O66444   1.238   9.210   6.077 -0.1453  0.3486 -0.1883
  493MOL0     C66445   1.170   9.308   6.138  0.4213 -0.0160  0.7997
  493MOL0     C66446   1.181   9.441   6.121 -0.3739 -0.2687  0.1093
  493MOL0     C66447   1.105   9.542   6.198  0.0221  0.6043  0.6700
  493MOL0     C66448   1.121   9.678   6.144  0.0284  0.0678 -0.0237
  493MOL0     C66449   1.023   9.492   6.298  0.3365  0.0199 -0.4044
  493MOL0     C66450   0.953   9.585   6.393  0.5008 -0.1498  0.8473
  493MOL0     O66451   1.022   9.692   6.440 -0.3739  0.6799 -0.6942
  493MOL0     C66452   0.970   9.812   6.474  0.4983 -0.5920 -0.5792
  493MOL0     C66453   1.024   9.859   6.595 -0.7456  0.4210 -0.2843
  493MOL0     C66454   0.976   9.985   6.646  1.0108 -0.1203 -0.4314
  493MOL0     C66455   0.860  10.044   6.595 -0.0059 -0.0795  0.3081
  493MOL0     O66456   0.808  10.153   6.664  0.0393 -0.2371 -0.9315
  493MOL0     C66457   0.768  10.270   6.586  0.3501 -0.4236  0.2577
  493MOL0     C66458   0.823  10.404   6.634  1.0362  0.1132 -0.0133
  493MOL0     C66459   0.785  10.429   6.783 -0.1375  0.5261  0.1819
  493MOL0     C66460   0.863  10.552   6.840 -0.0971 -0.7480  1.1007
  493MOL0     C66461   0.811  10.573   6.992 -0.2974  0.7857  0.2786
  493MOL0     C66462   0.910  10.653   7.085  0.2708 -0.2094  0.3293
  493MOL0     C66463   0.847  10.688   7.212 -0.1419  0.8177  0.0265
  493MOL0     C66464   0.825  10.564   7.298 -0.5915  0.1405  0.6565
  493MOL0    Cl66465   0.964  10.471   7.341 -0.2368 -0.6716 -0.1207
  493MOL0     C66466   0.814   9.985   6.473  0.0599 -0.3269 -0.1256
  493MOL0     C66467   0.872   9.870   6.415 -0.0177 -0.7391 -0.2224
  493MOL0     O66468   0.837   9.549   6.425  0.0639  0.0232 -0.0936
  493MOL0     C66469   1.014   9.360   6.319 -0.7630  0.6752  0.1265
  493MOL0     C66470   1.092   9.269   6.246  0.0941 -0.5004 -0.2638
  493MOL0     N66471   1.173   9.546   5.697  0.0103  0.0455  0.1266
  493MOL0     N66472   1.228   9.652   5.722  0.0517 -0.8696  0.8320
  493MOL0     C66473   1.477   9.595   4.614  0.4637  0.2226 -0.2834
  493MOL0     C66474   1.488   9.502   4.508 -0.5787  1.7798  0.2253
  493MOL0     C66475   1.807   9.248   4.297  0.7903 -0.6556  0.3294
  493MOL0     C66476   1.757   9.118   4.293  0.4814 -0.6069 -0.4822
  493MOL0     C66477   1.826   9.013   4.231 -0.3942  0.2213 -0.4626
  493MOL0     C66478   1.963   9.030   4.196  0.9678  1.1773 -0.7858
  493MOL0     O66479   2.041   8.915   4.162  0.2030  0.8699 -0.3003
  493MOL0     C66480   2.183   8.917   4.132 -0.2114  0.1906 -0.1159
  493MOL0     C66481   2.252   8.782   4.119 -0.3917  0.2547  0.0783
  493MOL0     C66482   2.402   8.771   4.073  0.2964 -0.1483  0.2261
  493MOL0     C66483   2.422   8.831   3.929 -0.5042  0.2166  0.5217
  493MOL0     C66484   2.475   8.968   3.927  0.0229 -0.9512 -0.3917
  493MOL0     C66485   2.493   9.091   3.907  0.1843 -0.0205 -0.7229
  493MOL0     C66486   2.014   9.162   4.208  0.3401  0.2219 -0.5826
  493MOL0     C66487   1.940   9.264   4.254 -0.3744  0.0987 -0.8869
  493MOL0     H66488   1.714   9.296   4.666  1.0092  0.1903 -1.6726
  493MOL0     H66489   1.711   9.483   4.832  0.8375 -2.6074  0.0260
  493MOL0     H66490   1.614   9.593   4.981  3.5941  0.4900 -1.3176
  493MOL0     H66491   1.706   9.734   4.909 -0.4417 -0.4682 -3.6633
  493MOL0     H66492   1.531   9.880   4.975 -1.4707  0.5684  0.7689
  493MOL0     H66493   1.430   9.748   5.045 -2.3037  1.7851 -3.0471
  493MOL0     H66494   1.658   9.715   5.185 -0.6489  0.1367  0.5030
  493MOL0     H66495   1.697   9.879   5.144  0.4178 -1.5005 -0.2803
  493MOL0     H66496   1.469   9.916   5.294 -1.5181 -0.1784 -0.3015
  493MOL0     H66497   1.456   9.756   5.306  1.4616  0.5828  0.4156
  493MOL0     H66498   1.733   9.794   5.374  0.2173 -0.4227  2.0154
  493MOL0     H66499   1.647   9.917   5.453 -1.8965  0.7042 -0.1285
  493MOL0     H66500   1.525   9.647   5.471 -1.3371  1.7781 -0.6640
  493MOL0     H66501   1.663   9.679   5.575 -0.9525 -1.2712 -1.2889
  493MOL0     H66502   1.541   9.906   5.618  1.2131 -1.2478 -1.4425
  493MOL0     H66503   1.396   9.827   5.557  0.2146  0.7890 -0.1077
  493MOL0     H66504   1.404   9.840   5.812  0.2449  1.2736 -0.7577
  493MOL0     H66505   1.544   9.727   5.798  0.7228  0.4714 -0.2310
  493MOL0     H66506   1.483   9.443   5.710  0.0011  0.4802 -1.3887
  493MOL0     H66507   1.226   9.302   5.528  3.7147 -1.3910 -0.7182
  493MOL0     H66508   1.338   9.250   5.657  0.8075  1.6713  1.2003
  493MOL0     H66509   1.152   9.133   5.678  1.7702 -0.9289  2.8022
  493MOL0     H66510   1.053   9.282   5.659  2.4882  0.8965 -1.8904
  493MOL0     H66511   1.062   9.167   5.891 -0.8968  1.1493 -0.2783
  493MOL0     H66512   1.093   9.343   5.890  1.4299 -0.3250  3.8510
  493MOL0     H66513   1.329   9.303   5.913  0.9700 -0.0077 -0.7846
  493MOL0     H66514   1.317   9.127   5.902 -1.0665 -1.2812  2.6944
  493MOL0     H66515   1.255   9.470   6.046  1.5265 -1.6753  1.3432
  493MOL0     H66516   1.215   9.722   6.178 -0.6870  1.4063  0.2851
  493MOL0     H66517   1.124   9.673   6.034 -1.9950 -2.4969 -0.0374
  493MOL0     H66518   1.046   9.749   6.180  0.7091  1.6027 -1.4782
  493MOL0     H66519   1.110   9.816   6.646 -0.5021  3.5725  2.3741
  493MOL0     H66520   1.036  10.024   6.728  3.4193  0.6015 -2.3936
  493MOL0     H66521   0.816  10.266   6.488  2.6662  0.2770  1.2947
  493MOL0     H66522   0.660  10.279   6.575  0.5022  1.1174 -0.2968
  493MOL0     H66523   0.932  10.413   6.630  1.3705 -1.8330  2.6007
  493MOL0     H66524   0.782  10.490   6.580 -2.0276  0.7707  3.0626
  493MOL0     H66525   0.828  10.352   6.847 -0.2367 -0.0050 -0.3785
  493MOL0     H66526   0.678  10.446   6.801  0.4091  1.7619  2.6484
  493MOL0     H66527   0.970  10.526   6.845  0.0926 -0.1681  0.3100
  493MOL0     H66528   0.849  10.634   6.769 -3.1309 -4.6906 -3.5671
  493MOL0     H66529   0.790  10.476   7.039  2.0949 -0.8147 -1.6876
  493MOL0     H66530   0.714  10.624   6.995 -2.2941 -2.7282  1.3128
  493MOL0     H66531   1.004  10.598   7.091  0.5104  0.2604  1.0505
  493MOL0     H66532   0.930  10.742   7.025  0.2643 -0.1115  0.4714
  493MOL0     H66533   0.749  10.730   7.188 -0.5664 -0.7323 -1.0955
  493MOL0     H66534   0.899  10.773   7.258  0.7654  0.4596 -0.3268
  493MOL0     H66535   0.756  10.500   7.242 -1.8275  1.4041  0.6600
  493MOL0     H66536   0.787  10.594   7.396 -0.4129 -0.4143  0.8961
  493MOL0     H66537   0.736  10.039   6.420 -0.7109 -0.0072  1.2782
  493MOL0     H66538   0.824   9.823   6.329  0.5062  1.0009 -1.5216
  493MOL0     H66539   0.961   9.310   6.399  1.5815 -1.8406  0.2838
  493MOL0     H66540   1.097   9.165   6.279 -2.7187 -1.3225 -2.0366
  493MOL0     H66541   1.417   9.685   4.606  0.3665  0.3261  1.2169
  493MOL0     H66542   1.434   9.519   4.415 -0.6919  0.4419  0.0245
  493MOL0     H66543   1.656   9.101   4.329  0.0563  1.8723 -0.3249
  493MOL0     H66544   1.794   8.910   4.226  0.7747 -0.1827  0.0693
  493MOL0     H66545   2.201   8.978   4.043  2.3775 -0.5210 -0.1488
  493MOL0     H66546   2.232   8.961   4.219  4.7446  0.5630 -2.7154
  493MOL0     H66547   2.181   8.730   4.054 -0.3174  0.6849 -0.3500
  493MOL0     H66548   2.242   8.718   4.207 -1.2665  0.6173  0.2620
  493MOL0     H66549   2.431   8.666   4.090  1.2202 -0.3286 -2.0706
  493MOL0     H66550   2.465   8.823   4.146 -1.7116  0.7432  1.3861
  493MOL0     H66551   2.325   8.834   3.876  0.8450  0.2316 -2.1242
  493MOL0     H66552   2.492   8.767   3.874  2.1341  4.6014 -1.8279
  493MOL0     H66553   2.520   9.194   3.897  1.1755 -0.0598  1.0340
  493MOL0     H66554   2.101   9.194   4.152 -0.3637  2.3820 -0.5392
  493MOL0     H66555   1.983   9.363   4.245 -2.7246  1.1029 -1.6145
  494MOL0     O66556   3.884   2.515   9.284 -0.4794 -0.1169  0.8543
  494MOL0     C66557   3.889   2.582   9.386 -0.4163  0.1826 -0.0623
  494MOL0     O66558   3.907   2.529   9.515  0.8070  0.1049  0.2693
  494MOL0     C66559   3.947   2.399   9.523  0.5661 -0.2776  0.6457
  494MOL0     C66560   4.074   2.392   9.471 -0.0811  0.0788  1.6848
  494MOL0     C66561   4.149   2.277   9.485 -0.8186  0.9225 -0.0629
  494MOL0     C66562   4.089   2.166   9.550  0.1127 -0.6527  0.2946
  494MOL0     O66563   4.153   2.050   9.583  0.4268  0.6379 -0.8278
  494MOL0     C66564   4.081   1.925   9.557  0.2012  0.4810  1.0256
  494MOL0     C66565   4.179   1.830   9.488 -0.0432 -0.1615 -0.7079
  494MOL0     C66566   4.248   1.897   9.369 -0.4328  0.4214 -0.0214
  494MOL0     C66567   4.343   1.799   9.316 -0.5878  0.3327 -0.1330
  494MOL0     C66568   4.432   1.843   9.188  0.5806 -0.7325  1.0814
  494MOL0     C66569   4.534   1.950   9.208  0.2073  0.5664  0.1248
  494MOL0     C66570   4.647   1.925   9.308 -0.8002  0.4300  0.6008
  494MOL0     C66571   4.755   2.035   9.324  0.0125  0.0857 -0.1826
  494MOL0     N66572   4.678   2.139   9.395 -0.6249  0.7999 -0.7878
  494MOL0     C66573   4.645   2.128   9.527  0.5543  0.2233  0.2400
  494MOL0     C66574   4.564   2.235   9.547 -0.2272 -0.3378  0.0522
  494MOL0     C66575   4.480   2.248   9.679 -0.2235 -0.1943  0.1874
  494MOL0     C66576   4.530   2.353   9.771  0.1543 -1.0466 -0.4448
  494MOL0     C66577   4.436   2.401   9.879 -0.3069 -0.7986  0.2563
  494MOL0     C66578   4.506   2.518   9.957  0.3597 -0.3781 -0.2331
  494MOL0     O66579   4.622   2.476  10.032 -0.2291  0.4752 -0.0646
  494MOL0     C66580   4.602   2.417  10.154  0.4083  0.4380  0.3883
  494MOL0     C66581   4.724   2.390  10.222  0.0101 -0.0549 -0.6732
  494MOL0     C66582   4.719   2.336  10.352 -0.6293  1.2565  0.7554
  494MOL0     C66583   4.848   2.322  10.423  1.2029 -0.4260 -0.7101
  494MOL0     C66584   4.588   2.304  10.408  0.4768 -0.3144 -0.3699
  494MOL0     C66585   4.560   2.245  10.540 -0.4150  0.6384 -0.1525
  494MOL0     O66586   4.666   2.190  10.605  0.2251  1.1369  0.1260
  494MOL0     C66587   4.637   2.112  10.710  0.2941 -0.3223 -0.0536
  494MOL0     C66588   4.626   1.974  10.688  0.2941  0.6629 -0.7336
  494MOL0     C66589   4.611   1.883  10.797  0.0234 -0.2944 -0.6655
  494MOL0     C66590   4.609   1.932  10.926  0.3486  0.6140  0.7250
  494MOL0     O66591   4.584   1.842  11.025  0.4670  0.2662  0.3440
  494MOL0     C66592   4.534   1.898  11.153  0.5994 -0.3306 -1.3778
  494MOL0     C66593   4.478   1.783  11.232  0.9785 -0.3473  0.5937
  494MOL0     C66594   4.469   1.808  11.383 -0.0794  0.5534  0.0400
  494MOL0     C66595   4.427   1.684  11.469  0.8544 -0.6243  0.1544
  494MOL0     C66596   4.424   1.728  11.620 -0.4920 -0.1173 -1.0334
  494MOL0     C66597   4.368   1.870  11.645 -0.7486 -0.1167 -0.0552
  494MOL0     C66598   4.362   1.889  11.798  0.3733 -0.3050  0.2431
  494MOL0     C66599   4.221   1.861  11.848 -0.1669  0.1558 -0.8074
  494MOL0    Cl66600   4.232   1.863  12.025 -0.1188  0.6783  0.0305
  494MOL0     C66601   4.625   2.073  10.951  1.0601 -0.0585 -0.5709
  494MOL0     C66602   4.637   2.159  10.838  0.7613 -0.4511 -0.3514
  494MOL0     O66603   4.446   2.248  10.583  0.1962 -0.1584 -0.5680
  494MOL0     C66604   4.471   2.324  10.333 -1.1598 -0.9565  0.5762
  494MOL0     C66605   4.478   2.382  10.209 -0.0703  0.0045  0.4933
  494MOL0     N66606   4.563   2.319   9.440  0.1834 -0.4420  0.0742
  494MOL0     N66607   4.616   2.250   9.347 -0.2039 -0.1765  0.4812
  494MOL0     C66608   3.967   2.187   9.610  0.0077  1.2029  0.6935
  494MOL0     C66609   3.885   2.296   9.593  0.2465 -0.7824 -0.0718
  494MOL0     C66610   3.873   2.731   9.369 -0.5097  1.4684 -0.3268
  494MOL0     C66611   3.924   2.818   9.460 -0.3098  0.4367 -0.8599
  494MOL0     C66612   3.898   2.954   9.452 -0.0025 -0.6762  1.2232
  494MOL0     C66613   3.825   3.007   9.347  0.9849  0.1067  0.4234
  494MOL0     O66614   3.788   3.132   9.370  0.0166 -0.3978  0.8619
  494MOL0     C66615   3.712   3.208   9.273 -0.1747  0.5521 -0.9577
  494MOL0     C66616   3.565   3.185   9.289  0.7270 -0.4889  0.5350
  494MOL0     C66617   3.521   3.233   9.435 -0.1350  0.0631  0.5879
  494MOL0     C66618   3.373   3.222   9.460  0.5987  0.4698 -0.0531
  494MOL0     C66619   3.328   3.088   9.489 -1.0880  1.5842 -1.3002
  494MOL0     C66620   3.287   2.973   9.495  0.2313  0.4387 -0.0856
  494MOL0     C66621   3.768   2.915   9.252 -0.2468 -0.6139 -0.6958
  494MOL0     C66622   3.804   2.780   9.259 -0.1596  0.4463  0.4515
  494MOL0     H66623   4.104   2.475   9.408  1.3878 -1.9380 -0.4351
  494MOL0     H66624   4.247   2.260   9.442 -1.1516 -0.3435 -0.3666
  494MOL0     H66625   4.030   1.883   9.643  0.8500 -0.0759  1.1528
  494MOL0     H66626   3.997   1.948   9.492  0.4692 -1.7906 -0.2289
  494MOL0     H66627   4.246   1.795   9.566 -0.4253  0.9990  0.1789
  494MOL0     H66628   4.129   1.745   9.442 -1.5817  1.3579 -2.0114
  494MOL0     H66629   4.186   1.938   9.288  0.2069 -0.4038 -0.9632
  494MOL0     H66630   4.307   1.979   9.410  1.2099 -2.6911  4.6757
  494MOL0     H66631   4.412   1.778   9.398 -0.0528  1.4257 -0.2832
  494MOL0     H66632   4.296   1.702   9.299  3.8071 -2.0447 -0.1675
  494MOL0     H66633   4.495   1.758   9.160 -0.7547 -1.2678 -0.4656
  494MOL0     H66634   4.368   1.871   9.104  2.5032 -3.9078 -1.7145
  494MOL0     H66635   4.580   1.967   9.110  0.3834 -3.7428 -0.7039
  494MOL0     H66636   4.477   2.038   9.240  1.4022  0.9502  1.3302
  494MOL0     H66637   4.613   1.898   9.408  0.0089  1.0648  1.0638
  494MOL0     H66638   4.694   1.831   9.275 -2.5406 -0.7977  1.4693
  494MOL0     H66639   4.797   2.074   9.231 -0.0491  0.3851 -0.0856
  494MOL0     H66640   4.835   1.987   9.381 -0.1932 -2.4081 -1.8470
  494MOL0     H66641   4.653   2.042   9.592 -0.7053  0.5451  0.8407
  494MOL0     H66642   4.379   2.264   9.640  1.4194  0.0690 -4.5445
  494MOL0     H66643   4.472   2.153   9.733  1.4303 -0.9414 -0.8013
  494MOL0     H66644   4.550   2.438   9.705 -1.1680 -0.4780 -0.1497
  494MOL0     H66645   4.624   2.326   9.820  1.3289 -0.6152 -2.3331
  494MOL0     H66646   4.398   2.318   9.939 -1.5241  0.0256  0.6671
  494MOL0     H66647   4.345   2.448   9.841 -0.7248 -1.0237  0.9481
  494MOL0     H66648   4.436   2.565  10.026  0.6801  2.0538 -1.4479
  494MOL0     H66649   4.541   2.602   9.896  1.1390 -1.7199 -1.7452
  494MOL0     H66650   4.823   2.402  10.181  0.5059  1.9072  0.9340
  494MOL0     H66651   4.893   2.226  10.396 -2.2517 -2.0954 -1.1431
  494MOL0     H66652   4.907   2.413  10.407 -0.3923  1.4510  2.7214
  494MOL0     H66653   4.820   2.337  10.528 -3.1920 -1.5776 -1.5055
  494MOL0     H66654   4.622   1.925  10.592 -4.0015 -1.9073  0.4311
  494MOL0     H66655   4.624   1.777  10.780 -0.3164 -0.3815 -0.4048
  494MOL0     H66656   4.611   1.943  11.216 -1.5365  1.2840  0.1901
  494MOL0     H66657   4.454   1.968  11.130  0.9602 -0.3754 -2.9291
  494MOL0     H66658   4.384   1.757  11.181  0.5733  1.1575  0.5255
  494MOL0     H66659   4.550   1.703  11.215  1.2032 -0.4779  2.0499
  494MOL0     H66660   4.380   1.871  11.390 -0.8325 -0.5556  0.8284
  494MOL0     H66661   4.562   1.852  11.422 -0.0795 -1.0350  1.9907
  494MOL0     H66662   4.331   1.642  11.438  1.0188 -0.9242  0.0575
  494MOL0     H66663   4.500   1.603  11.469 -0.6070 -2.0205 -1.2084
  494MOL0     H66664   4.529   1.734  11.650 -0.9822  2.9123  0.4490
  494MOL0     H66665   4.366   1.656  11.678 -0.6090  1.3382  0.7766
  494MOL0     H66666   4.444   1.934  11.600 -0.7554 -1.6286 -2.3644
  494MOL0     H66667   4.270   1.885  11.599 -0.4103  0.4436 -0.6019
  494MOL0     H66668   4.381   1.994  11.822 -3.6749  0.6444 -0.0024
  494MOL0     H66669   4.437   1.827  11.848 -0.5320 -1.0549  0.7086
  494MOL0     H66670   4.192   1.759  11.821 -2.4275  0.2499  0.9045
  494MOL0     H66671   4.141   1.926  11.811 -1.5148 -1.0821 -0.1823
  494MOL0     H66672   4.631   2.119  11.049 -0.7661  1.1244 -0.9738
  494MOL0     H66673   4.649   2.266  10.848  1.3919 -0.5974  0.5407
  494MOL0     H66674   4.373   2.299  10.374 -2.6476  2.2100 -0.7422
  494MOL0     H66675   4.384   2.392  10.156 -0.2166 -0.9671  0.5473
  494MOL0     H66676   3.936   2.112   9.683  3.2168 -2.1539 -1.0084
  494MOL0     H66677   3.788   2.313   9.639  1.2844  4.1278  0.8024
  494MOL0     H66678   3.985   2.790   9.545  0.7248  0.7166 -1.4875
  494MOL0     H66679   3.926   3.026   9.528  3.5584 -0.3023 -0.2379
  494MOL0     H66680   3.750   3.309   9.285 -1.8220  0.9296  2.7359
  494MOL0     H66681   3.733   3.176   9.171  0.8123  1.1876 -0.9628
  494MOL0     H66682   3.537   3.080   9.277  0.7752 -0.6294  1.5354
  494MOL0     H66683   3.513   3.243   9.212  1.5791  1.1686  1.1641
  494MOL0     H66684   3.535   3.341   9.438  1.8138 -0.0263 -2.0523
  494MOL0     H66685   3.578   3.177   9.510 -2.3038 -5.2934 -1.2706
  494MOL0     H66686   3.317   3.256   9.372  0.5100 -1.2103 -0.6767
  494MOL0     H66687   3.354   3.291   9.543  0.2327 -0.8654  1.0069
  494MOL0     H66688   3.244   2.875   9.504  2.9702 -0.9151 -0.6523
  494MOL0     H66689   3.695   2.949   9.179  1.3517  2.2435 -1.1026
  494MOL0     H66690   3.774   2.717   9.175  0.5370 -1.0731  1.2895
  495MOL0     O66691   9.421   0.053   3.318  0.2539  0.8122  0.5730
  495MOL0     C66692   9.460   0.166   3.292  0.0690  0.3735  0.0105
  495MOL0     O66693   9.495   0.263   3.377 -0.4953 -0.0815  0.0248
  495MOL0     C66694   9.454   0.238   3.513 -0.5100  0.8421 -0.5443
  495MOL0     C66695   9.344   0.307   3.550 -0.6402  0.0356  0.6273
  495MOL0     C66696   9.294   0.293   3.683 -0.3695  0.2072  0.3044
  495MOL0     C66697   9.356   0.205   3.778  0.2815  0.7476 -0.1573
  495MOL0     O66698   9.302   0.191   3.905  0.2966 -0.3730 -0.0153
  495MOL0     C66699   9.387   0.127   4.010 -0.2783  0.8034  0.2198
  495MOL0     C66700   9.306   0.132   4.148 -0.4698  0.2067 -0.0464
  495MOL0     C66701   9.234   0.017   4.205  0.8284 -0.7039 -0.2341
  495MOL0     C66702   9.316  -0.098   4.276 -0.1925 -0.9388 -0.5175
  495MOL0     C66703   9.370  -0.216   4.199  0.0638  0.1328  0.2531
  495MOL0     C66704   9.265  -0.269   4.105  0.2216 -1.2551 -0.5722
  495MOL0     C66705   9.311  -0.391   4.034 -0.3741  0.9556  0.7113
  495MOL0     C66706   9.339  -0.521   4.111 -0.1098  0.1958 -0.8402
  495MOL0     N66707   9.413  -0.630   4.042  0.1256  0.3503  0.2430
  495MOL0     C66708   9.408  -0.692   3.914 -0.8679  0.4609  0.2416
  495MOL0     C66709   9.491  -0.792   3.924  0.2151  0.5364  0.1659
  495MOL0     C66710   9.514  -0.899   3.824  0.3665  0.2774 -0.1834
  495MOL0     C66711   9.585  -0.848   3.703 -0.9595  0.4274 -0.7931
  495MOL0     C66712   9.734  -0.801   3.741 -0.1185 -0.3825  0.2222
  495MOL0     C66713   9.767  -0.676   3.660  0.5987 -0.3716  0.0822
  495MOL0     O66714   9.680  -0.568   3.687 -0.1874  0.1389 -0.4660
  495MOL0     C66715   9.677  -0.465   3.594  0.7176 -0.0767 -0.4350
  495MOL0     C66716   9.758  -0.458   3.475 -0.3342 -0.4994 -0.1064
  495MOL0     C66717   9.768  -0.346   3.400  0.3789 -0.7823  0.4665
  495MOL0     C66718   9.874  -0.335   3.292  0.5732  0.6577 -0.4217
  495MOL0     C66719   9.699  -0.223   3.438  1.0469 -0.8434  0.3058
  495MOL0     C66720   9.719  -0.095   3.372  0.9005  0.0638  0.1111
  495MOL0     O66721   9.720  -0.099   3.239 -0.5364 -0.4190  0.1451
  495MOL0     C66722   9.797  -0.013   3.159 -0.7827  0.1194 -0.4557
  495MOL0     C66723   9.748   0.016   3.035 -0.7672 -0.0752 -0.2178
  495MOL0     C66724   9.816   0.104   2.951 -0.7344 -0.8285  0.2968
  495MOL0     C66725   9.939   0.162   2.986  0.8181  0.5212  0.0121
  495MOL0     O66726  10.000   0.259   2.905  0.7155 -0.1586  0.0884
  495MOL0     C66727  10.114   0.322   2.969  0.9302 -0.2436 -0.4083
  495MOL0     C66728  10.136   0.457   2.902  0.0318 -1.2020 -0.1946
  495MOL0     C66729  10.008   0.549   2.912  0.6905  1.1734  0.1953
  495MOL0     C66730  10.006   0.665   2.819 -0.8508 -0.8927 -0.3004
  495MOL0     C66731  10.007   0.794   2.899  0.8315  1.1075 -0.1976
  495MOL0     C66732   9.999   0.909   2.785 -0.0064  0.6188 -1.0262
  495MOL0     C66733  10.017   1.044   2.843  0.4103  0.7723 -0.9090
  495MOL0     C66734   9.941   1.155   2.768 -0.0533 -0.3501  0.2851
  495MOL0    Cl66735   9.976   1.298   2.869  0.0644 -0.0668 -0.6380
  495MOL0     C66736   9.998   0.107   3.103  0.5649  0.4005  0.7291
  495MOL0     C66737   9.932   0.026   3.189  0.6732 -0.0575 -0.2415
  495MOL0     O66738   9.766  -0.004   3.439 -0.2614  0.8105 -0.8559
  495MOL0     C66739   9.624  -0.233   3.549  0.0167  0.2073 -0.2558
  495MOL0     C66740   9.610  -0.347   3.630 -0.9463 -0.1514 -0.0482
  495MOL0     N66741   9.560  -0.776   4.042 -1.0471  0.4905  0.7405
  495MOL0     N66742   9.506  -0.695   4.113  0.0795 -0.1148  0.4705
  495MOL0     C66743   9.472   0.140   3.739  0.4566  0.0909  0.2352
  495MOL0     C66744   9.520   0.151   3.604 -0.3903 -0.4087 -0.7832
  495MOL0     C66745   9.469   0.207   3.155  0.0933 -0.6331  1.2350
  495MOL0     C66746   9.394   0.142   3.051  0.0528  0.1459 -0.4739
  495MOL0     C66747   9.405   0.175   2.914  0.1426  0.1333 -0.0994
  495MOL0     C66748   9.496   0.269   2.876  0.6407 -0.0267  0.1469
  495MOL0     O66749   9.523   0.300   2.745  0.1399 -0.2399 -0.0003
  495MOL0     C66750   9.659   0.275   2.688 -0.2745  0.3194 -0.3727
  495MOL0     C66751   9.664   0.318   2.543 -0.1197  0.4330  0.3491
  495MOL0     C66752   9.788   0.259   2.471 -0.1821  0.2856 -1.2611
  495MOL0     C66753   9.844   0.366   2.364  0.1821  0.2572 -0.5883
  495MOL0     C66754   9.750   0.421   2.270 -0.0862 -0.2873  0.8869
  495MOL0     C66755   9.667   0.454   2.185  0.0147  0.2743  0.4942
  495MOL0     C66756   9.557   0.340   2.975 -0.5666 -0.1465  1.2205
  495MOL0     C66757   9.542   0.321   3.113 -0.9208 -0.6204  0.9102
  495MOL0     H66758   9.303   0.377   3.477  0.5416 -0.1235 -0.2138
  495MOL0     H66759   9.202   0.345   3.706  0.2171  1.8447 -0.8236
  495MOL0     H66760   9.401   0.022   3.983 -1.3891  1.3037 -2.5633
  495MOL0     H66761   9.485   0.175   4.017  0.4775 -0.7886  1.1213
  495MOL0     H66762   9.388   0.152   4.217 -0.2680 -1.1653  0.1379
  495MOL0     H66763   9.241   0.220   4.146  1.6541  1.9273  1.2091
  495MOL0     H66764   9.166   0.059   4.280  1.5514 -1.2371  0.7565
  495MOL0     H66765   9.164  -0.012   4.127 -0.6753 -1.3272  1.2869
  495MOL0     H66766   9.394  -0.054   4.339  2.1520 -2.2395 -2.3696
  495MOL0     H66767   9.244  -0.138   4.348  0.0005 -0.9886 -0.3528
  495MOL0     H66768   9.459  -0.188   4.143 -1.2164  0.7422 -1.5638
  495MOL0     H66769   9.395  -0.289   4.276  2.7243 -0.0288 -0.6643
  495MOL0     H66770   9.172  -0.287   4.160 -0.2619  0.2718 -0.8503
  495MOL0     H66771   9.235  -0.194   4.031 -0.0141  0.2751  1.0306
  495MOL0     H66772   9.236  -0.408   3.957  2.7327  1.6796 -2.7700
  495MOL0     H66773   9.400  -0.372   3.973 -2.1479 -1.7048 -3.0519
  495MOL0     H66774   9.242  -0.561   4.141 -1.0197  1.4614 -1.9344
  495MOL0     H66775   9.410  -0.494   4.190 -0.6365  0.9435 -0.6126
  495MOL0     H66776   9.351  -0.669   3.825 -0.3023 -1.1838 -0.5849
  495MOL0     H66777   9.567  -0.982   3.872 -2.4175 -0.0690  2.6193
  495MOL0     H66778   9.416  -0.939   3.801 -0.1159  0.6059  1.1729
  495MOL0     H66779   9.522  -0.768   3.664 -0.9233  0.2984 -1.1147
  495MOL0     H66780   9.599  -0.921   3.623 -1.1691 -0.7167  0.1709
  495MOL0     H66781   9.802  -0.881   3.708 -1.5485 -0.9639 -1.5100
  495MOL0     H66782   9.735  -0.775   3.847  0.6805  0.7596 -0.0533
  495MOL0     H66783   9.761  -0.704   3.554  2.9488 -2.5827  0.4406
  495MOL0     H66784   9.872  -0.646   3.669  0.9955 -1.2098 -1.3471
  495MOL0     H66785   9.819  -0.541   3.440  0.0692  0.1322 -0.9481
  495MOL0     H66786   9.823  -0.314   3.198 -1.0897  0.4510  0.3954
  495MOL0     H66787   9.939  -0.255   3.328 -0.0016  0.0522  2.1895
  495MOL0     H66788   9.919  -0.435   3.288 -1.8054 -0.8275  3.6206
  495MOL0     H66789   9.645  -0.014   3.020 -2.1771  2.8969  2.4357
  495MOL0     H66790   9.773   0.140   2.858 -0.2037  0.2743  0.4705
  495MOL0     H66791  10.083   0.348   3.071  0.9399  0.5947 -0.6126
  495MOL0     H66792  10.200   0.255   2.961  0.2473 -1.6935  2.5795
  495MOL0     H66793  10.225   0.503   2.944  1.1891 -1.6231 -2.0534
  495MOL0     H66794  10.169   0.434   2.800  0.8239 -0.2856 -0.1553
  495MOL0     H66795  10.002   0.580   3.017  2.0708  2.2400 -0.0121
  495MOL0     H66796   9.925   0.488   2.874  1.8424  0.6815 -1.6231
  495MOL0     H66797  10.093   0.667   2.754 -1.2268  0.2666 -0.7776
  495MOL0     H66798   9.917   0.659   2.755  1.3650  1.6792 -3.9472
  495MOL0     H66799  10.103   0.802   2.951 -0.3193 -1.8243  2.7407
  495MOL0     H66800   9.929   0.808   2.975  0.5923  0.2587 -0.2771
  495MOL0     H66801  10.069   0.892   2.703  0.1670  2.3934 -1.2839
  495MOL0     H66802   9.898   0.893   2.745 -0.5850 -0.4155  0.7236
  495MOL0     H66803  10.123   1.069   2.839  0.8172 -0.9554 -2.2199
  495MOL0     H66804   9.984   1.042   2.947  1.2166  0.0416 -0.6567
  495MOL0     H66805   9.833   1.137   2.757  0.0463 -0.2782 -0.9654
  495MOL0     H66806   9.985   1.164   2.669 -0.1125 -0.7476  0.2209
  495MOL0     H66807  10.100   0.131   3.128  0.2180  1.0273  1.6201
  495MOL0     H66808   9.971  -0.007   3.285 -0.6450 -1.4646 -0.1488
  495MOL0     H66809   9.563  -0.148   3.580  1.3195  0.4164  1.9636
  495MOL0     H66810   9.556  -0.347   3.724  1.7366 -0.9604  1.5914
  495MOL0     H66811   9.521   0.070   3.806 -1.1353 -0.0005  1.3806
  495MOL0     H66812   9.610   0.096   3.581  0.3499  0.3832  0.1116
  495MOL0     H66813   9.332   0.059   3.084 -2.1063  2.0274  0.5048
  495MOL0     H66814   9.344   0.123   2.841 -0.2239 -1.3801  1.2247
  495MOL0     H66815   9.741   0.324   2.742  0.5165 -1.8124  0.4647
  495MOL0     H66816   9.680   0.169   2.677 -0.7476  0.0839  0.9033
  495MOL0     H66817   9.668   0.426   2.529 -0.8846  0.2998 -1.1310
  495MOL0     H66818   9.569   0.290   2.496 -0.1536  1.5754 -0.3047
  495MOL0     H66819   9.768   0.159   2.430 -0.8080 -0.2003  0.1423
  495MOL0     H66820   9.875   0.256   2.537 -0.1390  2.1411 -1.1975
  495MOL0     H66821   9.923   0.322   2.303  1.0573  2.3969 -1.0917
  495MOL0     H66822   9.891   0.448   2.420  0.9640 -0.8014  0.3479
  495MOL0     H66823   9.591   0.494   2.120 -2.7690  0.3482  3.5107
  495MOL0     H66824   9.623   0.417   2.938 -0.2227 -2.0124 -2.4993
  495MOL0     H66825   9.613   0.376   3.175 -0.4419  1.2435 -1.1527
  496MOL0     O66826   3.639   3.620   1.381 -0.2967  0.4162 -0.3670
  496MOL0     C66827   3.731   3.584   1.452  0.9258  1.2389 -0.7343
  496MOL0     O66828   3.735   3.577   1.586  0.1547 -0.2628  0.6255
  496MOL0     C66829   3.633   3.632   1.659  0.9804 -0.2785 -0.1557
  496MOL0     C66830   3.660   3.660   1.798  0.3250 -0.4090  1.4042
  496MOL0     C66831   3.553   3.695   1.883 -0.2341 -0.1766  0.4541
  496MOL0     C66832   3.424   3.703   1.832 -0.1496 -0.1636  0.2897
  496MOL0     O66833   3.314   3.754   1.909 -1.0621  0.7515  0.2736
  496MOL0     C66834   3.288   3.704   2.042 -0.1376  0.0028 -0.8892
  496MOL0     C66835   3.237   3.563   2.032  0.0239 -0.2691 -1.3704
  496MOL0     C66836   3.310   3.463   2.123 -0.0261 -0.0265 -0.4803
  496MOL0     C66837   3.305   3.510   2.272 -0.0966 -0.3312  0.0734
  496MOL0     C66838   3.367   3.404   2.366  0.2484 -0.2096  0.7472
  496MOL0     C66839   3.459   3.462   2.475 -0.2713 -0.3194 -0.3893
  496MOL0     C66840   3.505   3.344   2.564 -0.7353  0.3907 -0.5496
  496MOL0     C66841   3.610   3.240   2.525 -0.2277  0.1092  0.1393
  496MOL0     N66842   3.645   3.153   2.645  0.6185  0.0648  0.9602
  496MOL0     C66843   3.760   3.159   2.710 -0.2433  0.1922 -0.6646
  496MOL0     C66844   3.758   3.052   2.790  0.7567 -0.0502  0.9694
  496MOL0     C66845   3.856   3.024   2.895  0.0553  0.1108 -0.1847
  496MOL0     C66846   3.876   2.870   2.922 -0.0172  0.5097  0.2474
  496MOL0     C66847   3.959   2.848   3.046 -0.5138  0.4746 -0.1499
  496MOL0     C66848   3.986   2.704   3.067 -0.5265 -0.4288  0.3663
  496MOL0     O66849   4.048   2.686   3.192  0.4089  0.0601  1.0655
  496MOL0     C66850   4.182   2.686   3.199 -0.9134 -0.8115  0.2969
  496MOL0     C66851   4.276   2.739   3.115  0.4409  1.4828  0.4445
  496MOL0     C66852   4.414   2.728   3.149  0.0323  0.9452  0.2688
  496MOL0     C66853   4.515   2.773   3.044  0.8636 -0.1263  0.0917
  496MOL0     C66854   4.450   2.659   3.268  0.5087 -0.4318  0.0769
  496MOL0     C66855   4.589   2.632   3.303 -1.3956 -0.1575  0.3349
  496MOL0     O66856   4.682   2.612   3.210  1.2045  0.4153  1.0441
  496MOL0     C66857   4.813   2.570   3.225 -0.6881 -0.0079  0.4624
  496MOL0     C66858   4.859   2.493   3.329 -0.0585 -0.1029  0.2856
  496MOL0     C66859   4.997   2.471   3.329  0.7325  0.7673 -0.2178
  496MOL0     C66860   5.088   2.522   3.234 -0.0376  0.0057 -0.2812
  496MOL0     O66861   5.218   2.487   3.250  0.1300  0.5242 -0.4753
  496MOL0     C66862   5.318   2.570   3.201  0.5705 -0.2553 -0.2765
  496MOL0     C66863   5.448   2.500   3.229  0.2325 -0.0081  0.9294
  496MOL0     C66864   5.567   2.590   3.267 -0.7740 -0.0484  0.3746
  496MOL0     C66865   5.695   2.500   3.266 -0.8605 -1.0685 -0.1847
  496MOL0     C66866   5.794   2.561   3.355 -0.3071 -0.8919  0.0508
  496MOL0     C66867   5.936   2.503   3.342 -0.3624 -0.3338  0.5817
  496MOL0     C66868   6.015   2.531   3.208  0.4211 -0.2196  0.0306
  496MOL0     C66869   6.168   2.561   3.225 -0.2382 -0.0434  0.4841
  496MOL0    Cl66870   6.252   2.423   3.298 -0.2145 -0.3279  0.0690
  496MOL0     C66871   5.035   2.580   3.123  1.0522 -0.2925  0.0991
  496MOL0     C66872   4.901   2.611   3.121  0.2722  0.3565 -0.2953
  496MOL0     O66873   4.619   2.631   3.432 -0.6339 -0.6518 -0.4644
  496MOL0     C66874   4.349   2.621   3.359 -0.5036 -0.3659 -0.6907
  496MOL0     C66875   4.217   2.631   3.317  0.6334  0.0122 -0.1003
  496MOL0     N66876   3.638   2.984   2.776  0.3777  0.5747 -0.8621
  496MOL0     N66877   3.570   3.043   2.683 -0.3308  0.6039 -0.2887
  496MOL0     C66878   3.406   3.689   1.692  0.0955  0.7020  0.0779
  496MOL0     C66879   3.500   3.637   1.612 -0.2390 -0.9999 -0.0940
  496MOL0     C66880   3.849   3.541   1.380  0.8381  0.2184  0.5160
  496MOL0     C66881   3.944   3.458   1.433  0.0776  0.3030 -0.1259
  496MOL0     C66882   4.049   3.398   1.347 -0.1760 -0.1121 -0.1880
  496MOL0     C66883   4.051   3.421   1.205 -0.1663 -0.1703 -0.8856
  496MOL0     O66884   4.127   3.370   1.113  0.8750 -0.6797  0.5118
  496MOL0     C66885   4.221   3.263   1.131  0.2635 -0.5325 -0.0218
  496MOL0     C66886   4.276   3.203   1.000  0.1879 -0.6149 -0.0089
  496MOL0     C66887   4.294   3.303   0.886 -0.3752 -0.6837  0.2034
  496MOL0     C66888   4.443   3.332   0.850  0.4138 -0.8196 -0.1504
  496MOL0     C66889   4.462   3.447   0.764  0.6237 -0.0784 -0.4385
  496MOL0     C66890   4.452   3.533   0.690 -0.1195  0.8310  0.7369
  496MOL0     C66891   3.958   3.513   1.162  0.9467 -0.6427  0.0365
  496MOL0     C66892   3.864   3.579   1.243 -0.4372  0.1342 -0.1867
  496MOL0     H66893   3.764   3.641   1.821  0.5919  1.6216  2.1101
  496MOL0     H66894   3.564   3.723   1.987 -1.5173  0.1363  0.5193
  496MOL0     H66895   3.378   3.709   2.104  0.2261  1.1191 -1.4940
  496MOL0     H66896   3.213   3.768   2.090  1.3674  1.7293 -0.7682
  496MOL0     H66897   3.130   3.574   2.056  0.0599  5.0907 -2.5234
  496MOL0     H66898   3.242   3.526   1.929  0.9556 -1.0268 -1.0658
  496MOL0     H66899   3.268   3.362   2.111 -4.4905  1.3125  1.7342
  496MOL0     H66900   3.413   3.450   2.090  1.3427 -0.8470  3.5105
  496MOL0     H66901   3.347   3.610   2.286 -0.6221 -0.0795 -0.1376
  496MOL0     H66902   3.200   3.531   2.293 -0.6263 -1.7885 -0.9713
  496MOL0     H66903   3.295   3.335   2.410 -0.2719  1.1129  2.0446
  496MOL0     H66904   3.436   3.353   2.297  1.7587 -1.0327  2.7746
  496MOL0     H66905   3.544   3.508   2.423 -0.9317 -0.9715 -2.1423
  496MOL0     H66906   3.390   3.524   2.532 -0.5447 -1.5755  0.6857
  496MOL0     H66907   3.531   3.389   2.661 -2.1067  1.4662 -0.6426
  496MOL0     H66908   3.412   3.295   2.594 -1.0464  2.9611  3.6131
  496MOL0     H66909   3.705   3.287   2.497  0.0231  0.8692  2.0793
  496MOL0     H66910   3.566   3.187   2.440 -2.9573  0.3236  1.3202
  496MOL0     H66911   3.832   3.240   2.712  1.0793 -0.9525  0.3867
  496MOL0     H66912   3.954   3.070   2.885  1.1321 -0.2436  5.5084
  496MOL0     H66913   3.811   3.063   2.987 -1.6407  1.9600 -1.6971
  496MOL0     H66914   3.924   2.822   2.836  2.6381  0.6942  1.5247
  496MOL0     H66915   3.785   2.813   2.941  1.4782 -1.9823  0.5026
  496MOL0     H66916   3.913   2.884   3.138 -0.7778  2.3160 -0.9648
  496MOL0     H66917   4.056   2.897   3.033  0.4292 -1.4755 -0.9076
  496MOL0     H66918   4.040   2.665   2.980 -1.8937 -0.4294 -0.5108
  496MOL0     H66919   3.892   2.650   3.060 -1.8945  1.7459  1.0208
  496MOL0     H66920   4.249   2.778   3.017  1.6387 -1.0248 -0.9800
  496MOL0     H66921   4.544   2.686   2.985 -0.6284 -1.0812  0.7234
  496MOL0     H66922   4.470   2.840   2.971 -1.1731 -1.4887  0.0274
  496MOL0     H66923   4.603   2.819   3.091  1.6856 -3.0770  1.7085
  496MOL0     H66924   4.797   2.459   3.411 -1.4959  0.3456 -0.5747
  496MOL0     H66925   5.053   2.422   3.408  1.3738  3.1112  0.8557
  496MOL0     H66926   5.312   2.576   3.092  3.7470  1.8008 -0.4931
  496MOL0     H66927   5.313   2.673   3.238  0.2352 -0.6804  0.9168
  496MOL0     H66928   5.431   2.416   3.298  3.1478 -1.4244  0.0881
  496MOL0     H66929   5.482   2.455   3.135 -1.8799 -2.3040  1.1575
  496MOL0     H66930   5.548   2.634   3.365 -0.3200  2.0741 -0.4370
  496MOL0     H66931   5.590   2.667   3.192 -1.4904 -0.4083 -0.2238
  496MOL0     H66932   5.670   2.405   3.313  0.4286 -0.8973  0.8977
  496MOL0     H66933   5.733   2.497   3.163 -1.3386  0.4475 -0.4374
  496MOL0     H66934   5.751   2.549   3.455 -0.5507  0.3890  0.1243
  496MOL0     H66935   5.800   2.669   3.338  1.3980 -1.1117 -0.9402
  496MOL0     H66936   5.993   2.543   3.426 -0.3505 -2.4503  1.6376
  496MOL0     H66937   5.942   2.396   3.360 -1.3694 -0.6912 -0.9634
  496MOL0     H66938   5.962   2.609   3.152  0.0393 -0.2601  0.3326
  496MOL0     H66939   6.007   2.436   3.154  0.5309  0.1707 -0.6972
  496MOL0     H66940   6.158   2.653   3.284 -3.0713 -0.0775  0.2149
  496MOL0     H66941   6.216   2.594   3.133 -1.9353  2.2601  0.3408
  496MOL0     H66942   5.095   2.622   3.043  1.1896 -3.2736 -1.5094
  496MOL0     H66943   4.859   2.664   3.036 -1.1762  4.2700  2.5735
  496MOL0     H66944   4.367   2.566   3.450 -0.6344  2.2507  1.0318
  496MOL0     H66945   4.131   2.597   3.374 -1.4938  3.5277 -0.8747
  496MOL0     H66946   3.307   3.708   1.653 -0.2852  0.8773  1.0969
  496MOL0     H66947   3.464   3.603   1.515  0.0674 -3.2398  0.5452
  496MOL0     H66948   3.943   3.432   1.539 -0.1839  0.8477  0.0040
  496MOL0     H66949   4.121   3.328   1.385  0.1649  0.4805  0.2807
  496MOL0     H66950   4.302   3.300   1.194  0.1638 -3.7689  2.2242
  496MOL0     H66951   4.178   3.186   1.195  1.8534  1.4714  3.8085
  496MOL0     H66952   4.200   3.137   0.955  2.0796 -0.3606 -3.9584
  496MOL0     H66953   4.358   3.133   1.015 -1.7828 -3.9857 -3.0435
  496MOL0     H66954   4.244   3.397   0.912 -1.4763 -1.8667  2.6763
  496MOL0     H66955   4.246   3.268   0.794 -2.4885  4.4656 -1.0365
  496MOL0     H66956   4.480   3.248   0.791  1.5576 -0.0647 -0.5428
  496MOL0     H66957   4.502   3.350   0.940  2.4988  2.7703 -1.9861
  496MOL0     H66958   4.444   3.611   0.618  0.4302  1.4184  1.3018
  496MOL0     H66959   3.945   3.535   1.056  0.9913  0.1691  0.1888
  496MOL0     H66960   3.796   3.653   1.201 -3.4846 -0.6651  2.9444
  497MOL0     O66961   3.404   2.041  10.178  0.6360 -0.7826 -0.9460
  497MOL0     C66962   3.438   2.143  10.243 -0.8783  0.3176 -0.3756
  497MOL0     O66963   3.564   2.193  10.247 -0.1449  0.8318 -0.2513
  497MOL0     C66964   3.664   2.120  10.188  1.1677  0.5895 -0.0767
  497MOL0     C66965   3.665   2.093  10.052  0.6859 -1.0891  0.6827
  497MOL0     C66966   3.765   2.010  10.000 -0.1561  0.3693 -0.0635
  497MOL0     C66967   3.853   1.941  10.087 -0.9748 -0.8095  0.2671
  497MOL0     O66968   3.949   1.861  10.038  0.1919 -0.2117 -0.1131
  497MOL0     C66969   3.933   1.779   9.925 -0.4960 -0.0769  0.8152
  497MOL0     C66970   4.041   1.671   9.944  0.9009 -0.5989  0.1866
  497MOL0     C66971   3.992   1.533   9.894  0.5688  0.0054  0.5040
  497MOL0     C66972   3.977   1.520   9.745  0.2222  0.3072  0.5369
  497MOL0     C66973   3.939   1.385   9.701  0.2062  0.8065  0.9194
  497MOL0     C66974   3.796   1.343   9.736 -0.2362 -0.6237 -0.0638
  497MOL0     C66975   3.777   1.195   9.714  0.3497 -0.7880  0.1170
  497MOL0     C66976   3.774   1.134   9.581 -0.2454 -0.3039  0.1275
  497MOL0     N66977   3.682   1.209   9.492 -0.6310  0.6013 -0.6051
  497MOL0     C66978   3.713   1.313   9.402  0.1869  0.0514 -0.4504
  497MOL0     C66979   3.592   1.357   9.368 -0.1438  0.2862  0.2621
  497MOL0     C66980   3.568   1.469   9.271  0.2586  0.0820 -0.4586
  497MOL0     C66981   3.495   1.592   9.330  0.0635  0.4910 -0.0558
  497MOL0     C66982   3.578   1.672   9.423  0.4127  0.7182  0.2218
  497MOL0     C66983   3.699   1.731   9.357  0.0059 -0.3515 -0.3979
  497MOL0     O66984   3.812   1.636   9.342  0.6138 -0.6028  0.1413
  497MOL0     C66985   3.901   1.666   9.244  0.0443 -0.3694  0.1308
  497MOL0     C66986   3.929   1.792   9.189 -0.8465 -0.6294  0.1573
  497MOL0     C66987   4.014   1.818   9.074 -0.1254  0.5034 -0.1685
  497MOL0     C66988   4.029   1.963   9.031  0.5105 -0.8150 -0.2057
  497MOL0     C66989   4.086   1.706   9.022  0.4648  0.2823 -0.7340
  497MOL0     C66990   4.184   1.717   8.915  0.0109 -0.7291  0.2777
  497MOL0     O66991   4.212   1.833   8.856  0.2335 -0.4154  0.4820
  497MOL0     C66992   4.323   1.850   8.783  0.2333  0.1314  0.4598
  497MOL0     C66993   4.440   1.774   8.784 -0.6278  0.0975 -0.9122
  497MOL0     C66994   4.545   1.795   8.695  0.1445 -0.3238 -1.4973
  497MOL0     C66995   4.554   1.926   8.636  0.3357  0.2387 -0.2929
  497MOL0     O66996   4.618   1.959   8.531 -0.3810 -0.8151  0.4042
  497MOL0     C66997   4.750   1.911   8.534  0.3115 -0.2172 -0.2582
  497MOL0     C66998   4.845   2.007   8.465  0.0658 -0.0386  0.3842
  497MOL0     C66999   4.772   2.061   8.336  0.3895 -0.0998 -0.3942
  497MOL0     C67000   4.737   2.205   8.360  0.4086 -0.1166 -0.1669
  497MOL0     C67001   4.743   2.281   8.231  0.0238  0.4454 -0.4386
  497MOL0     C67002   4.642   2.231   8.128 -0.2119 -0.5225 -0.3517
  497MOL0     C67003   4.640   2.313   8.005 -0.6132  0.4655  0.6142
  497MOL0     C67004   4.766   2.296   7.916 -0.8714 -0.6589 -0.0170
  497MOL0    Cl67005   4.743   2.182   7.778 -0.2660  0.1549 -0.1027
  497MOL0     C67006   4.449   2.016   8.649  0.2685  0.2122  0.0373
  497MOL0     C67007   4.332   1.975   8.721  0.3396 -0.6300  0.2379
  497MOL0     O67008   4.237   1.609   8.887  0.0210 -0.1958  0.1061
  497MOL0     C67009   4.059   1.576   9.078 -0.3160 -0.3214 -0.7173
  497MOL0     C67010   3.969   1.561   9.187  0.0335 -0.5144 -0.3791
  497MOL0     N67011   3.496   1.272   9.407  0.3248 -0.1643 -1.2628
  497MOL0     N67012   3.554   1.178   9.485 -0.2858 -0.5553  0.1760
  497MOL0     C67013   3.844   1.955  10.225 -0.5662 -1.2800  0.7226
  497MOL0     C67014   3.747   2.042  10.274  0.4955  0.7286 -0.0143
  497MOL0     C67015   3.345   2.219  10.323  1.3479 -1.2112 -0.1817
  497MOL0     C67016   3.375   2.350  10.368  0.3313 -0.1021 -0.1672
  497MOL0     C67017   3.292   2.423  10.458  0.6076  0.1277  0.0808
  497MOL0     C67018   3.187   2.358  10.512  0.3147 -0.1532 -0.5213
  497MOL0     O67019   3.127   2.432  10.613  0.3303 -0.0713  0.4442
  497MOL0     C67020   3.038   2.362  10.702  0.7727 -0.0610  1.0579
  497MOL0     C67021   2.888   2.402  10.674 -0.6428 -0.0836 -0.0775
  497MOL0     C67022   2.865   2.547  10.722 -2.2607  0.0274 -0.1439
  497MOL0     C67023   2.738   2.613  10.656 -0.7399  0.7838 -0.6254
  497MOL0     C67024   2.751   2.610  10.510  1.2129  0.4369 -0.9259
  497MOL0     C67025   2.778   2.590  10.395  0.8584  0.6230 -0.2155
  497MOL0     C67026   3.138   2.240  10.445  0.2141  0.7974 -0.9833
  497MOL0     C67027   3.215   2.168  10.353  0.2711  0.4289 -0.1825
  497MOL0     H67028   3.595   2.144   9.987  0.5961 -2.5588 -0.4438
  497MOL0     H67029   3.772   1.987   9.895 -3.3395 -1.5053 -0.0025
  497MOL0     H67030   3.827   1.755   9.913 -1.9652  5.0053  1.4505
  497MOL0     H67031   3.959   1.837   9.836  3.9975 -1.0451  1.2696
  497MOL0     H67032   4.126   1.699   9.880  0.1791 -0.2334 -0.6305
  497MOL0     H67033   4.062   1.673  10.051  0.9500 -0.4140  0.1737
  497MOL0     H67034   4.062   1.454   9.924 -2.4829 -2.8410  0.8145
  497MOL0     H67035   3.902   1.511   9.953  3.1273 -1.5010  4.2723
  497MOL0     H67036   3.909   1.596   9.705 -0.0672 -1.7685 -3.3381
  497MOL0     H67037   4.072   1.534   9.693  0.1720 -1.5686 -0.1181
  497MOL0     H67038   3.953   1.382   9.593  3.9779  2.6858  1.1696
  497MOL0     H67039   4.012   1.314   9.742 -1.7143 -0.6093  2.0584
  497MOL0     H67040   3.784   1.357   9.844 -0.4600  0.2949 -0.1976
  497MOL0     H67041   3.728   1.401   9.673  1.6737  1.5615 -0.2778
  497MOL0     H67042   3.856   1.143   9.769  2.0578  1.3218 -0.2366
  497MOL0     H67043   3.680   1.167   9.757 -0.5484 -0.0794 -1.3653
  497MOL0     H67044   3.746   1.030   9.597 -0.9700 -0.1807 -0.2996
  497MOL0     H67045   3.875   1.137   9.539 -0.2626  0.4047  0.1285
  497MOL0     H67046   3.804   1.372   9.389  1.0755 -0.2229  3.3087
  497MOL0     H67047   3.665   1.498   9.230  0.6863  2.1202  1.7490
  497MOL0     H67048   3.504   1.428   9.192  1.0045 -1.3632 -0.3481
  497MOL0     H67049   3.400   1.558   9.373  0.0854 -1.9331 -1.7370
  497MOL0     H67050   3.468   1.646   9.239 -0.7902  1.6061  0.8380
  497MOL0     H67051   3.616   1.621   9.512  0.9594 -0.4308 -0.6321
  497MOL0     H67052   3.510   1.752   9.454 -1.0950 -0.8029  1.0057
  497MOL0     H67053   3.735   1.815   9.417  0.2022 -0.0662 -0.9066
  497MOL0     H67054   3.676   1.762   9.254  1.3809 -1.4530 -1.0716
  497MOL0     H67055   3.873   1.872   9.235  0.3757  0.9669 -1.0233
  497MOL0     H67056   3.953   1.979   8.954 -0.8082 -0.5625  1.1007
  497MOL0     H67057   4.005   2.026   9.117  2.0444  1.1766 -1.1698
  497MOL0     H67058   4.129   2.005   9.020  1.3052 -2.1142  1.4934
  497MOL0     H67059   4.449   1.686   8.846 -2.5124  0.5759  0.1262
  497MOL0     H67060   4.627   1.725   8.685 -0.1115 -1.2023  1.4018
  497MOL0     H67061   4.794   1.890   8.632 -1.9633  0.0633  0.8928
  497MOL0     H67062   4.755   1.816   8.480 -0.1698  1.0677 -2.7388
  497MOL0     H67063   4.884   2.087   8.529 -1.0112 -0.3308  1.4501
  497MOL0     H67064   4.932   1.951   8.428  0.1921 -0.3364  1.1078
  497MOL0     H67065   4.680   2.008   8.312  0.3527 -0.3973  0.3777
  497MOL0     H67066   4.845   2.072   8.255 -0.0166  4.2991 -0.4470
  497MOL0     H67067   4.643   2.205   8.416  2.1648 -0.0994  2.9878
  497MOL0     H67068   4.803   2.259   8.428 -0.8237 -0.8109  1.6646
  497MOL0     H67069   4.840   2.299   8.184 -1.4873  1.6887 -3.3622
  497MOL0     H67070   4.715   2.381   8.264 -0.7071 -0.4254  1.7621
  497MOL0     H67071   4.678   2.131   8.103 -1.1897 -1.3923  1.4868
  497MOL0     H67072   4.541   2.241   8.168 -0.2553 -1.0622 -0.3195
  497MOL0     H67073   4.647   2.415   8.042  2.6169  0.9394 -0.9930
  497MOL0     H67074   4.547   2.287   7.953 -1.1901  1.9413  0.8700
  497MOL0     H67075   4.851   2.262   7.976 -0.9921 -0.0963  0.4855
  497MOL0     H67076   4.774   2.394   7.868  0.0410 -1.5831 -1.8651
  497MOL0     H67077   4.453   2.108   8.591  2.5328 -0.1227 -0.4366
  497MOL0     H67078   4.250   2.046   8.728  0.4576 -0.4569 -0.0945
  497MOL0     H67079   4.100   1.481   9.046  0.9061 -0.2824  0.6379
  497MOL0     H67080   3.943   1.475   9.248 -0.6915 -1.7191 -2.2818
  497MOL0     H67081   3.921   1.916  10.292  0.7317  1.5008  0.9891
  497MOL0     H67082   3.734   2.067  10.378  2.4959  1.2039  0.1572
  497MOL0     H67083   3.472   2.389  10.341  0.7492 -1.0700 -0.1038
  497MOL0     H67084   3.318   2.522  10.496 -1.4352  1.3566 -1.5021
  497MOL0     H67085   3.046   2.254  10.685  1.8361  0.0280  0.9502
  497MOL0     H67086   3.070   2.383  10.805 -0.6628  1.3040  1.2530
  497MOL0     H67087   2.827   2.326  10.724  1.3797 -3.6740 -2.5371
  497MOL0     H67088   2.871   2.399  10.566 -1.7745  1.5802  0.0309
  497MOL0     H67089   2.946   2.612  10.688 -1.5419 -1.3732 -1.2113
  497MOL0     H67090   2.865   2.559  10.831 -3.6622 -0.0951 -0.1136
  497MOL0     H67091   2.732   2.714  10.698  0.7186  0.6457 -0.0044
  497MOL0     H67092   2.653   2.550  10.682  1.2663 -1.7868  0.2252
  497MOL0     H67093   2.784   2.552  10.296 -0.0057 -0.7974  0.2575
  497MOL0     H67094   3.035   2.217  10.470  0.1266 -0.3931 -2.3035
  497MOL0     H67095   3.185   2.068  10.323 -0.9875  0.6683  0.1927
  498MOL0     O67096   3.823   8.673   1.921 -0.3837  0.1725  0.2441
  498MOL0     C67097   3.774   8.781   1.946 -1.0860  0.2193 -0.0311
  498MOL0     O67098   3.829   8.878   2.021  0.0581  0.2433 -0.4835
  498MOL0     C67099   3.938   8.841   2.090 -0.5064 -1.3426 -0.5398
  498MOL0     C67100   3.941   8.742   2.190  0.5498 -0.0223  0.8377
  498MOL0     C67101   4.058   8.718   2.255  0.3267 -0.5231  0.7413
  498MOL0     C67102   4.183   8.782   2.221  0.3035 -0.3389  0.2455
  498MOL0     O67103   4.297   8.764   2.295  0.2102 -0.3503  0.1627
  498MOL0     C67104   4.283   8.779   2.434 -0.1220 -0.6435 -0.2295
  498MOL0     C67105   4.257   8.920   2.486 -0.1905  0.3930  0.5399
  498MOL0     C67106   4.389   8.996   2.492  0.4653 -2.1920  0.2677
  498MOL0     C67107   4.414   9.090   2.610 -0.1288  0.1004 -0.4401
  498MOL0     C67108   4.545   9.181   2.616  0.3188 -0.5626  0.2443
  498MOL0     C67109   4.608   9.196   2.750  0.2883 -0.6095 -1.1343
  498MOL0     C67110   4.501   9.224   2.866  0.1246  0.2025 -0.3960
  498MOL0     C67111   4.443   9.366   2.859 -0.0639 -0.0706  0.9336
  498MOL0     N67112   4.541   9.477   2.857  0.7831 -0.2055 -0.0680
  498MOL0     C67113   4.655   9.478   2.932 -0.3935  0.0755 -0.1167
  498MOL0     C67114   4.733   9.574   2.871  0.2567  0.5625 -0.6381
  498MOL0     C67115   4.858   9.617   2.926 -0.3500 -0.5373  0.1072
  498MOL0     C67116   4.853   9.713   3.048  0.2080 -0.6617  0.0047
  498MOL0     C67117   4.823   9.653   3.187  0.4004 -0.1116  0.1869
  498MOL0     C67118   4.930   9.556   3.227 -0.5162 -0.4423 -0.0368
  498MOL0     O67119   4.913   9.506   3.357 -0.6101  0.8139 -0.0243
  498MOL0     C67120   4.941   9.574   3.472  1.6127  0.0414 -0.6545
  498MOL0     C67121   4.894   9.509   3.586 -0.1411  0.5087  0.5219
  498MOL0     C67122   4.886   9.575   3.704 -0.3481  0.3241  0.4392
  498MOL0     C67123   4.810   9.504   3.807 -0.6169  0.1606  0.5483
  498MOL0     C67124   4.949   9.705   3.709  0.0613 -0.3744 -0.0986
  498MOL0     C67125   4.971   9.786   3.842  0.5601  0.2210 -0.2902
  498MOL0     O67126   5.074   9.879   3.828 -0.0445  0.0114 -0.5747
  498MOL0     C67127   5.106   9.958   3.935  0.0729 -0.2837  0.1880
  498MOL0     C67128   5.188   9.920   4.042 -0.1848  0.5767 -0.5560
  498MOL0     C67129   5.205  10.015   4.141 -0.3506  0.1904  0.5793
  498MOL0     C67130   5.148  10.138   4.145  0.3415 -0.2026 -0.5495
  498MOL0     O67131   5.163  10.213   4.263  0.1275  0.0339 -0.0625
  498MOL0     C67132   5.173  10.356   4.249 -0.2751  0.2841 -0.3188
  498MOL0     C67133   5.306  10.421   4.205 -0.4088  0.9417 -0.6343
  498MOL0     C67134   5.388  10.459   4.329  0.0689 -0.0032 -1.5518
  498MOL0     C67135   5.416  10.331   4.423 -0.0798 -0.1736 -0.5943
  498MOL0     C67136   5.522  10.366   4.536  0.1197 -0.3958  0.8540
  498MOL0     C67137   5.490  10.476   4.641  0.2400  0.3285  0.2946
  498MOL0     C67138   5.336  10.499   4.677  0.1673  1.0976  0.4760
  498MOL0     C67139   5.322  10.595   4.795  0.0338  0.7509 -0.3412
  498MOL0    Cl67140   5.308  10.766   4.734 -0.2236 -0.1445 -0.3195
  498MOL0     C67141   5.071  10.170   4.039 -0.1799 -0.6354  0.3197
  498MOL0     C67142   5.041  10.078   3.940 -0.0509  0.3461 -0.2796
  498MOL0     O67143   4.918   9.752   3.947  0.8140 -0.5269 -0.6295
  498MOL0     C67144   5.002   9.762   3.594  0.1617 -0.3162  0.1339
  498MOL0     C67145   4.992   9.693   3.475 -0.5625  0.0848 -0.4133
  498MOL0     N67146   4.658   9.635   2.769  0.0890  1.0655 -0.2718
  498MOL0     N67147   4.541   9.566   2.757 -0.4552 -0.6954 -0.2872
  498MOL0     C67148   4.168   8.874   2.119 -0.4425 -0.1445 -0.9222
  498MOL0     C67149   4.054   8.907   2.053 -1.0430  0.2387  0.4296
  498MOL0     C67150   3.626   8.789   1.910  0.9520 -0.3621 -1.7972
  498MOL0     C67151   3.561   8.701   1.813 -0.3528  0.0026 -0.5510
  498MOL0     C67152   3.418   8.716   1.800 -0.5812  0.4747 -0.1112
  498MOL0     C67153   3.348   8.798   1.879  0.1004  0.3083  1.2492
  498MOL0     O67154   3.225   8.833   1.840  0.5172  0.1518  0.2511
  498MOL0     C67155   3.115   8.802   1.933 -0.1131 -0.3917  0.0164
  498MOL0     C67156   3.065   8.661   1.929 -0.7264  0.2816  0.2234
  498MOL0     C67157   3.085   8.563   2.046 -0.0055 -1.0350 -0.4776
  498MOL0     C67158   3.230   8.546   2.085 -0.0882  0.6545  0.2814
  498MOL0     C67159   3.258   8.430   2.174 -0.4370  0.0623  0.1136
  498MOL0     C67160   3.310   8.350   2.252  0.3150 -0.0648 -0.4646
  498MOL0     C67161   3.409   8.862   1.987 -0.5499  0.3285  0.1647
  498MOL0     C67162   3.547   8.865   1.999 -0.1501 -0.2102  0.0265
  498MOL0     H67163   3.852   8.680   2.203  0.7350 -0.2072  1.2227
  498MOL0     H67164   4.054   8.646   2.336 -0.6987 -3.8415 -2.0375
  498MOL0     H67165   4.204   8.718   2.479 -1.0556  0.9894  0.4153
  498MOL0     H67166   4.385   8.756   2.464 -0.0896 -2.3058 -1.4521
  498MOL0     H67167   4.178   8.965   2.425 -1.3933 -0.2448  1.5837
  498MOL0     H67168   4.216   8.919   2.587 -1.5030 -0.6162  0.0182
  498MOL0     H67169   4.477   8.933   2.479  0.9822 -1.0978 -2.2990
  498MOL0     H67170   4.389   9.064   2.406 -0.0397 -0.3886  1.6118
  498MOL0     H67171   4.327   9.151   2.636  1.3894  1.1649  2.6922
  498MOL0     H67172   4.418   9.012   2.687  2.8543  1.3774  0.8765
  498MOL0     H67173   4.628   9.148   2.552  1.5825  2.0144  0.4257
  498MOL0     H67174   4.510   9.279   2.580  0.3997 -0.0733  1.4487
  498MOL0     H67175   4.655   9.097   2.756  0.7044 -0.3177  1.1788
  498MOL0     H67176   4.681   9.277   2.761  1.2605 -1.0943 -3.3993
  498MOL0     H67177   4.414   9.158   2.856 -0.1902  0.1320  2.1083
  498MOL0     H67178   4.539   9.233   2.968  0.8911 -3.8192 -0.1794
  498MOL0     H67179   4.368   9.373   2.938 -2.1228 -2.4077 -0.6964
  498MOL0     H67180   4.394   9.372   2.762  0.8138 -1.7766  0.3607
  498MOL0     H67181   4.692   9.407   3.006  0.1017  0.0572 -0.3783
  498MOL0     H67182   4.914   9.529   2.960 -2.1771 -1.0598  2.0163
  498MOL0     H67183   4.919   9.661   2.847 -0.4503  0.5672  0.6141
  498MOL0     H67184   4.774   9.789   3.043  1.2369  0.5089  1.0182
  498MOL0     H67185   4.948   9.762   3.066  0.1938 -0.5469 -0.2313
  498MOL0     H67186   4.731   9.593   3.194 -1.0633  2.1480  1.6751
  498MOL0     H67187   4.814   9.744   3.247 -0.2212  0.9401 -1.4358
  498MOL0     H67188   5.027   9.605   3.209 -1.0927 -0.1197 -2.7799
  498MOL0     H67189   4.942   9.466   3.166  2.2853 -1.1859  1.4410
  498MOL0     H67190   4.836   9.418   3.576 -1.0153  1.3039 -2.4493
  498MOL0     H67191   4.748   9.426   3.761  1.2172  1.1943 -4.2813
  498MOL0     H67192   4.887   9.454   3.865 -3.0341 -2.3842  1.8186
  498MOL0     H67193   4.747   9.571   3.866 -5.4772 -1.1329 -2.5551
  498MOL0     H67194   5.232   9.821   4.042 -1.8656 -0.3329  2.8165
  498MOL0     H67195   5.251   9.990   4.237 -2.0647  1.7222  1.8865
  498MOL0     H67196   5.098  10.395   4.180 -2.4284 -2.7283  0.1435
  498MOL0     H67197   5.159  10.391   4.352  3.2806  0.1228  0.3474
  498MOL0     H67198   5.371  10.367   4.136  0.0825  1.5785 -0.6757
  498MOL0     H67199   5.268  10.509   4.151 -0.1782  0.6463 -1.2936
  498MOL0     H67200   5.328  10.536   4.380 -0.0507 -0.4219 -1.0475
  498MOL0     H67201   5.474  10.509   4.286 -0.7021  2.6687 -0.2317
  498MOL0     H67202   5.328  10.298   4.479  0.2104  1.9741  1.2628
  498MOL0     H67203   5.458  10.250   4.362 -0.9201 -0.5029 -0.7471
  498MOL0     H67204   5.605  10.403   4.476 -0.1332  0.4406  1.0064
  498MOL0     H67205   5.549  10.278   4.595 -0.4153 -0.7876  0.5303
  498MOL0     H67206   5.528  10.449   4.739 -2.2835  0.4795  1.3883
  498MOL0     H67207   5.537  10.569   4.608 -2.5393  1.2211 -1.4557
  498MOL0     H67208   5.295  10.402   4.708  1.8512  1.4168  4.1928
  498MOL0     H67209   5.279  10.533   4.590 -0.6072  2.4945  1.5138
  498MOL0     H67210   5.405  10.577   4.864  1.0759 -1.4064 -2.0292
  498MOL0     H67211   5.225  10.568   4.838  0.6000 -1.9852 -0.6125
  498MOL0     H67212   5.026  10.268   4.027 -1.1679 -1.2587 -1.3698
  498MOL0     H67213   4.973  10.099   3.858  0.8999  3.1538 -0.4577
  498MOL0     H67214   5.058   9.855   3.593  2.4649 -1.6244  0.5328
  498MOL0     H67215   5.030   9.752   3.392  2.3531 -0.9860  0.0111
  498MOL0     H67216   4.263   8.920   2.092 -1.4393  2.1230 -0.8219
  498MOL0     H67217   4.062   8.981   1.975 -1.9157 -0.4834 -0.3694
  498MOL0     H67218   3.619   8.635   1.750  0.2917  0.4250 -0.4116
  498MOL0     H67219   3.357   8.680   1.718 -0.6522  0.6547 -0.1377
  498MOL0     H67220   3.142   8.827   2.036  1.3602 -0.2999 -0.3686
  498MOL0     H67221   3.036   8.871   1.902  0.2154 -1.0160 -2.4707
  498MOL0     H67222   3.106   8.606   1.844 -1.1140  0.2372  0.0662
  498MOL0     H67223   2.958   8.669   1.909 -0.4146  0.7943 -1.3145
  498MOL0     H67224   3.047   8.466   2.014 -0.8232 -0.7056 -0.5590
  498MOL0     H67225   3.015   8.604   2.120 -2.0949 -2.6954 -1.4190
  498MOL0     H67226   3.260   8.640   2.133  1.5148  0.1088  0.4051
  498MOL0     H67227   3.286   8.533   1.992 -0.9492 -1.7176  0.0224
  498MOL0     H67228   3.357   8.293   2.330  1.4983 -1.0229 -1.8416
  498MOL0     H67229   3.353   8.941   2.037 -0.7380  0.7678 -0.7155
  498MOL0     H67230   3.598   8.928   2.071 -1.0301 -1.2747  1.6701
  499MOL0     O67231   8.564   5.871   0.036  0.4339  0.5548 -0.7311
  499MOL0     C67232   8.495   5.815   0.128  0.8065 -0.4148  0.6823
  499MOL0     O67233   8.479   5.865   0.266 -0.1881 -0.0104 -0.0441
  499MOL0     C67234   8.589   5.942   0.300  1.1050 -0.3372 -0.5518
  499MOL0     C67235   8.608   6.068   0.244  0.2149 -0.4373 -0.2526
  499MOL0     C67236   8.740   6.133   0.273  0.0801 -0.0408 -0.2829
  499MOL0     C67237   8.834   6.068   0.359 -0.0687 -0.2957 -0.4150
  499MOL0     O67238   8.964   6.116   0.390  0.2686  0.1244 -0.2113
  499MOL0     C67239   9.031   6.199   0.299 -0.2157 -0.3971  0.0604
  499MOL0     C67240   9.176   6.155   0.284 -0.3719 -0.0914  0.3837
  499MOL0     C67241   9.260   6.154   0.414  0.0048 -0.9990  0.4877
  499MOL0     C67242   9.382   6.062   0.412 -1.0835  1.0964 -1.0037
  499MOL0     C67243   9.456   6.068   0.547  0.7714 -0.4526 -0.4813
  499MOL0     C67244   9.591   5.993   0.559 -0.3329 -0.0405  0.0890
  499MOL0     C67245   9.645   5.995   0.701  0.2842 -0.1109  0.5515
  499MOL0     C67246   9.771   5.911   0.732  0.3034  0.6761 -0.2473
  499MOL0     N67247   9.895   5.976   0.692 -0.7388 -0.7291  0.9722
  499MOL0     C67248   9.954   5.978   0.565 -0.2730  0.0304  0.1396
  499MOL0     C67249  10.050   6.075   0.568 -0.0914 -0.1988 -0.0300
  499MOL0     C67250  10.137   6.135   0.458  0.6834  0.5177 -0.0416
  499MOL0     C67251  10.082   6.262   0.383  0.5587  0.6881  0.6955
  499MOL0     C67252  10.162   6.341   0.285  0.7137 -0.9943 -0.7396
  499MOL0     C67253  10.086   6.480   0.265  0.0649  0.7822  0.2314
  499MOL0     O67254   9.967   6.473   0.178  0.0649  0.3601  0.6489
  499MOL0     C67255   9.910   6.583   0.131  0.4809 -0.8044  0.9310
  499MOL0     C67256   9.815   6.570   0.029 -0.3190  0.0136 -0.3240
  499MOL0     C67257   9.747   6.678  -0.025 -0.6136 -0.2426 -1.1050
  499MOL0     C67258   9.637   6.641  -0.115  0.0742  0.2151 -0.4764
  499MOL0     C67259   9.780   6.810   0.001  0.4152  0.4449 -0.8949
  499MOL0     C67260   9.731   6.928  -0.077 -0.0421  1.0227  1.0407
  499MOL0     O67261   9.659   6.900  -0.197 -0.8154 -0.7953  0.5158
  499MOL0     C67262   9.590   7.004  -0.252 -0.8686 -0.6262  0.4373
  499MOL0     C67263   9.599   7.023  -0.394  0.0880 -1.1627  0.6957
  499MOL0     C67264   9.514   7.115  -0.456  0.3225  0.2076 -0.1124
  499MOL0     C67265   9.416   7.184  -0.393 -0.0216  0.4665 -1.2563
  499MOL0     O67266   9.347   7.283  -0.460 -0.2556 -0.2140 -0.9305
  499MOL0     C67267   9.421   7.375  -0.540  0.2162 -0.1880 -0.7515
  499MOL0     C67268   9.350   7.509  -0.586  0.2402  0.2141  0.3180
  499MOL0     C67269   9.211   7.499  -0.644 -0.0421 -0.5653  0.0170
  499MOL0     C67270   9.098   7.498  -0.532 -0.4988  0.5538 -0.7029
  499MOL0     C67271   8.956   7.510  -0.575  1.4074 -0.1493 -0.1925
  499MOL0     C67272   8.857   7.528  -0.448  0.4669 -0.5777 -0.4209
  499MOL0     C67273   8.709   7.487  -0.488  0.1054 -0.8246  0.0934
  499MOL0     C67274   8.637   7.463  -0.365  0.6361  0.8633  0.1767
  499MOL0    Cl67275   8.469   7.437  -0.393  0.5108  0.5928 -0.2708
  499MOL0     C67276   9.401   7.177  -0.253  0.3275 -0.0995  0.2344
  499MOL0     C67277   9.497   7.089  -0.191 -0.3367 -0.2724 -0.1350
  499MOL0     O67278   9.754   7.040  -0.028 -1.1556 -0.0057 -0.3956
  499MOL0     C67279   9.875   6.824   0.108 -0.7805  0.0240 -0.2124
  499MOL0     C67280   9.956   6.713   0.164  0.1286 -0.0505 -0.1355
  499MOL0     N67281  10.047   6.120   0.689  1.0885 -0.8290  0.0506
  499MOL0     N67282   9.957   6.064   0.765  0.0125  0.0108 -0.1723
  499MOL0     C67283   8.806   5.942   0.406 -0.9885 -0.6302  0.6755
  499MOL0     C67284   8.677   5.884   0.386 -0.6593 -0.2581  0.8679
  499MOL0     C67285   8.413   5.710   0.075  0.1341  0.6422 -0.8878
  499MOL0     C67286   8.340   5.635   0.165 -0.5480 -0.3560  0.2742
  499MOL0     C67287   8.262   5.527   0.135 -0.0593  0.0391  0.2679
  499MOL0     C67288   8.243   5.499  -0.006  0.1018  0.0393  0.0185
  499MOL0     O67289   8.163   5.396  -0.049  1.0282  0.7933  0.7048
  499MOL0     C67290   8.152   5.374  -0.197 -0.4173  0.0379  0.0607
  499MOL0     C67291   8.070   5.243  -0.244 -0.5715  1.1347  0.3680
  499MOL0     C67292   8.098   5.199  -0.388 -0.3397 -0.4801  0.3670
  499MOL0     C67293   7.990   5.086  -0.436  0.0058 -1.0466  0.6272
  499MOL0     C67294   8.047   4.953  -0.404 -0.3038  0.5526  0.1867
  499MOL0     C67295   8.118   4.859  -0.373  0.3381  0.1263  0.1709
  499MOL0     C67296   8.321   5.575  -0.104 -0.5168  0.4227  1.0179
  499MOL0     C67297   8.402   5.673  -0.056  0.0339  0.5265  0.1432
  499MOL0     H67298   8.525   6.109   0.187  1.4749  1.8910 -0.5047
  499MOL0     H67299   8.749   6.237   0.245 -1.0341  0.7601  2.0674
  499MOL0     H67300   8.979   6.206   0.202 -0.0320  1.9670  0.0761
  499MOL0     H67301   9.026   6.304   0.329  0.6408  0.7118 -3.2421
  499MOL0     H67302   9.170   6.056   0.238 -1.1288  0.5988 -1.0608
  499MOL0     H67303   9.226   6.225   0.217  2.6400 -2.5469 -0.1844
  499MOL0     H67304   9.301   6.255   0.417  1.8514 -1.4758 -2.9976
  499MOL0     H67305   9.202   6.133   0.504 -0.0870 -2.3535  0.1413
  499MOL0     H67306   9.345   5.960   0.396  0.0967  0.1318  1.7854
  499MOL0     H67307   9.454   6.092   0.335 -0.1140  2.8420  0.4928
  499MOL0     H67308   9.461   6.170   0.585 -1.2734  0.0842 -1.5071
  499MOL0     H67309   9.388   6.026   0.621 -1.4506 -0.7098 -2.5448
  499MOL0     H67310   9.586   5.894   0.513 -0.7135  0.5687 -1.2459
  499MOL0     H67311   9.661   6.052   0.499 -0.7819  0.6826  0.2603
  499MOL0     H67312   9.667   6.098   0.729  2.4449 -0.6562  1.1050
  499MOL0     H67313   9.562   5.955   0.761 -1.9970  2.8441 -0.4023
  499MOL0     H67314   9.765   5.811   0.686  1.1080  0.1649  0.7114
  499MOL0     H67315   9.772   5.888   0.839 -1.9510 -2.2562 -0.7067
  499MOL0     H67316   9.924   5.911   0.486  0.5916  3.5781 -3.5197
  499MOL0     H67317  10.230   6.154   0.512  0.4257  0.5860  0.3819
  499MOL0     H67318  10.139   6.053   0.386 -2.4048 -1.0234  1.4592
  499MOL0     H67319  10.053   6.330   0.464  0.4191  1.3420  0.1098
  499MOL0     H67320   9.985   6.244   0.336  0.2299  0.8058  1.3220
  499MOL0     H67321  10.183   6.306   0.184  0.2965 -0.0417 -1.1716
  499MOL0     H67322  10.258   6.356   0.336 -0.6476 -0.5893  1.8818
  499MOL0     H67323  10.162   6.552   0.233  0.9127  2.5318  5.3513
  499MOL0     H67324  10.065   6.507   0.369  3.6679 -2.2101  1.9549
  499MOL0     H67325   9.780   6.468   0.017  1.3268 -0.4617 -1.2765
  499MOL0     H67326   9.644   6.660  -0.223 -1.3250 -3.5091 -1.3886
  499MOL0     H67327   9.614   6.535  -0.103 -1.4246  0.5100 -0.5661
  499MOL0     H67328   9.556   6.696  -0.066  1.0075  0.3940  0.9396
  499MOL0     H67329   9.679   6.968  -0.442  0.5123 -3.0101  3.3292
  499MOL0     H67330   9.525   7.123  -0.564 -1.3126  4.0020 -0.1600
  499MOL0     H67331   9.500   7.405  -0.471 -1.5372 -0.5292  1.5238
  499MOL0     H67332   9.468   7.326  -0.626 -1.5352 -0.1043 -1.8026
  499MOL0     H67333   9.350   7.584  -0.506  0.0834  0.9906 -0.3879
  499MOL0     H67334   9.424   7.544  -0.659 -0.8589 -2.2240 -2.1365
  499MOL0     H67335   9.194   7.410  -0.705 -2.6115 -0.6682  0.7451
  499MOL0     H67336   9.199   7.589  -0.705 -0.4902 -0.7836 -0.2224
  499MOL0     H67337   9.105   7.408  -0.470 -0.2816  0.6850 -0.5348
  499MOL0     H67338   9.123   7.580  -0.463  0.6347 -3.0666  3.6448
  499MOL0     H67339   8.917   7.415  -0.611 -2.9363  0.2766  2.6237
  499MOL0     H67340   8.946   7.584  -0.655  4.6135  2.1027  1.2498
  499MOL0     H67341   8.887   7.461  -0.367 -0.6169  0.5528  0.9650
  499MOL0     H67342   8.856   7.629  -0.406  3.4941  0.4616 -2.5099
  499MOL0     H67343   8.710   7.400  -0.554  0.1473 -2.1180  1.7336
  499MOL0     H67344   8.663   7.567  -0.547  0.2445 -0.9418 -0.1776
  499MOL0     H67345   8.646   7.551  -0.300  0.1330  2.4438 -1.7760
  499MOL0     H67346   8.691   7.380  -0.318  0.5820  0.9912  0.4641
  499MOL0     H67347   9.342   7.240  -0.186  0.4667 -0.0309  0.2926
  499MOL0     H67348   9.488   7.069  -0.084 -0.0817  1.8389  0.3107
  499MOL0     H67349   9.898   6.923   0.146  0.2231 -0.1254 -0.3962
  499MOL0     H67350  10.031   6.736   0.239  0.7309 -0.2376 -0.6740
  499MOL0     H67351   8.876   5.905   0.480 -0.1334  0.2499  0.3125
  499MOL0     H67352   8.655   5.781   0.411  1.5136 -1.9696 -3.2866
  499MOL0     H67353   8.357   5.658   0.270  0.7565 -0.3337  0.0816
  499MOL0     H67354   8.223   5.466   0.215  1.0254  0.9075  1.4998
  499MOL0     H67355   8.098   5.462  -0.234  0.8618 -0.4037 -3.1774
  499MOL0     H67356   8.247   5.375  -0.250 -1.0022  2.5261 -1.0704
  499MOL0     H67357   7.966   5.244  -0.211 -0.2619 -0.7938  1.5226
  499MOL0     H67358   8.103   5.159  -0.183 -0.5187  2.1507  1.7877
  499MOL0     H67359   8.199   5.163  -0.409 -0.8835 -0.5998 -2.4821
  499MOL0     H67360   8.089   5.277  -0.464  2.0797  0.2218  0.7352
  499MOL0     H67361   7.980   5.102  -0.543  0.5332 -0.8735  0.5968
  499MOL0     H67362   7.901   5.107  -0.376 -0.3019 -0.7748  0.0777
  499MOL0     H67363   8.189   4.783  -0.347  1.2632  1.9120  3.5396
  499MOL0     H67364   8.333   5.566  -0.212  5.4116 -2.4163  1.4820
  499MOL0     H67365   8.457   5.733  -0.127 -0.9629 -3.5097 -4.5902
  500MOL0     O67366   4.643   6.580   8.721  0.3038 -0.4821  0.3139
  500MOL0     C67367   4.731   6.509   8.691 -0.7140 -0.9097 -0.1975
  500MOL0     O67368   4.756   6.384   8.739  0.2186  0.2718  0.8530
  500MOL0     C67369   4.688   6.310   8.832 -0.1763 -0.5664 -0.6598
  500MOL0     C67370   4.601   6.363   8.924  0.1433  0.6876 -0.0494
  500MOL0     C67371   4.557   6.275   9.026 -0.9920  0.6782 -0.3729
  500MOL0     C67372   4.602   6.149   9.050 -0.1617 -0.4196  1.0618
  500MOL0     O67373   4.578   6.097   9.167  0.3996  0.0098  0.3348
  500MOL0     C67374   4.643   5.983   9.214  0.6994  0.2805 -0.0161
  500MOL0     C67375   4.622   5.969   9.368 -0.5309 -0.4364  0.3371
  500MOL0     C67376   4.478   5.919   9.395 -0.5093 -0.2831 -0.3960
  500MOL0     C67377   4.460   5.861   9.544  0.1741  0.1495 -0.0610
  500MOL0     C67378   4.512   5.952   9.654  0.1008 -0.3504 -0.4791
  500MOL0     C67379   4.519   5.882   9.793  0.0843  1.1839 -0.6559
  500MOL0     C67380   4.639   5.778   9.812 -0.1234  0.2475 -0.1564
  500MOL0     C67381   4.610   5.659   9.920  0.8356 -0.2125  0.1819
  500MOL0     N67382   4.606   5.729  10.049 -0.7656  0.3428  0.3714
  500MOL0     C67383   4.702   5.805  10.114 -1.3168  0.4642  0.1213
  500MOL0     C67384   4.644   5.861  10.218  0.7870  0.0727  0.2663
  500MOL0     C67385   4.709   5.930  10.332  0.2132 -0.2224 -1.3225
  500MOL0     C67386   4.864   5.945  10.316 -0.0297  0.5188  0.1264
  500MOL0     C67387   4.908   6.040  10.436  0.1008 -0.8819  1.2941
  500MOL0     C67388   5.057   6.045  10.461 -0.5513 -0.5707 -0.5258
  500MOL0     O67389   5.141   6.113  10.356 -0.9059 -0.2121  0.0829
  500MOL0     C67390   5.193   6.034  10.245 -0.3183 -0.4364 -0.4047
  500MOL0     C67391   5.266   5.917  10.273  0.2350 -0.9701 -0.4710
  500MOL0     C67392   5.327   5.841  10.172  0.4674 -0.4306 -0.2515
  500MOL0     C67393   5.429   5.744  10.224  0.1816  0.9277 -0.1963
  500MOL0     C67394   5.297   5.869  10.031 -0.6749 -1.3084 -0.4271
  500MOL0     C67395   5.351   5.795   9.909  0.5671  0.2631 -0.0684
  500MOL0     O67396   5.341   5.856   9.785 -0.2755 -0.2167  0.3901
  500MOL0     C67397   5.338   5.785   9.658 -0.1408  0.1373  0.1603
  500MOL0     C67398   5.335   5.648   9.638 -0.3517 -0.0580 -0.0309
  500MOL0     C67399   5.351   5.600   9.508  0.3681  0.5011  0.9718
  500MOL0     C67400   5.375   5.678   9.391  0.3388 -0.6649 -0.0147
  500MOL0     O67401   5.390   5.618   9.265 -0.4724 -0.4295 -0.8961
  500MOL0     C67402   5.414   5.711   9.159 -0.3688  0.6996 -0.6521
  500MOL0     C67403   5.467   5.619   9.048 -0.3547  0.3854 -0.3769
  500MOL0     C67404   5.467   5.686   8.914  0.1228 -0.2519  1.3878
  500MOL0     C67405   5.490   5.580   8.807 -0.4679  0.7590 -0.1274
  500MOL0     C67406   5.452   5.625   8.664 -0.0167  0.9309  0.8194
  500MOL0     C67407   5.516   5.754   8.611  0.2652 -0.0258  0.5574
  500MOL0     C67408   5.477   5.785   8.465  0.2507  0.2951 -0.2453
  500MOL0     C67409   5.564   5.720   8.353  0.0975 -0.6803 -0.8098
  500MOL0    Cl67410   5.552   5.837   8.222 -0.1982 -0.0338 -0.0846
  500MOL0     C67411   5.357   5.816   9.416  0.4570 -0.6946  0.5625
  500MOL0     C67412   5.323   5.870   9.542  0.8940  0.1254 -0.3893
  500MOL0     O67413   5.386   5.683   9.928 -0.4360  0.5662  0.5725
  500MOL0     C67414   5.211   5.972  10.007  0.2361  0.4767  0.6498
  500MOL0     C67415   5.158   6.054  10.113 -0.3491  0.4072 -0.7975
  500MOL0     N67416   4.512   5.811  10.221 -0.8593 -0.4132 -0.2651
  500MOL0     N67417   4.497   5.733  10.124  0.0496 -0.1132 -0.4255
  500MOL0     C67418   4.690   6.096   8.950 -0.2106 -0.3129  0.0990
  500MOL0     C67419   4.725   6.174   8.849  0.9647 -0.2925  0.5760
  500MOL0     C67420   4.827   6.570   8.587 -1.6417 -0.6605 -1.0847
  500MOL0     C67421   4.826   6.705   8.544  0.2844  0.9366  0.8367
  500MOL0     C67422   4.912   6.744   8.439  0.6356 -0.7367 -0.2205
  500MOL0     C67423   4.991   6.643   8.375  0.5264 -0.0486  0.5710
  500MOL0     O67424   5.057   6.651   8.254 -0.1767 -0.5061  0.9963
  500MOL0     C67425   5.043   6.776   8.176  0.5308  0.9198 -0.2914
  500MOL0     C67426   5.081   6.742   8.029  0.7889 -0.7581 -0.8679
  500MOL0     C67427   5.021   6.608   7.973 -0.5602 -0.4700  0.5893
  500MOL0     C67428   5.050   6.611   7.817  0.1789 -0.2662 -0.4184
  500MOL0     C67429   4.963   6.504   7.758 -0.4696  0.2869 -0.1357
  500MOL0     C67430   4.900   6.407   7.724 -0.2202  0.3470 -1.1741
  500MOL0     C67431   4.996   6.518   8.435 -0.5657 -0.5211  0.6977
  500MOL0     C67432   4.923   6.481   8.539  0.3022  0.4404 -0.7026
  500MOL0     H67433   4.573   6.467   8.912  1.9842  1.0119 -2.3017
  500MOL0     H67434   4.502   6.324   9.104 -1.6340 -0.2673 -0.2107
  500MOL0     H67435   4.592   5.893   9.178 -1.5288  0.2816  2.8323
  500MOL0     H67436   4.749   5.994   9.186  0.0368  0.5651 -2.7162
  500MOL0     H67437   4.697   5.904   9.413 -0.5729 -2.0123 -1.7138
  500MOL0     H67438   4.632   6.064   9.421 -1.6184 -0.6191  0.9118
  500MOL0     H67439   4.420   6.010   9.376  1.2309  0.9651  0.0486
  500MOL0     H67440   4.456   5.850   9.313 -1.5461  1.5598 -1.7303
  500MOL0     H67441   4.352   5.849   9.559  0.2988 -0.9621  0.0266
  500MOL0     H67442   4.506   5.762   9.544 -0.8998 -0.3738 -1.1960
  500MOL0     H67443   4.612   5.990   9.631  0.4244  0.7216  2.2509
  500MOL0     H67444   4.451   6.043   9.662  1.8340  0.8277  0.1542
  500MOL0     H67445   4.537   5.956   9.872  1.6946 -0.0531  0.2092
  500MOL0     H67446   4.423   5.840   9.823 -0.9246  3.3110 -0.6988
  500MOL0     H67447   4.670   5.732   9.718  3.1254  2.0094 -0.1066
  500MOL0     H67448   4.729   5.835   9.836  0.5902 -1.1168  0.5410
  500MOL0     H67449   4.680   5.575   9.925 -2.7035 -3.3972 -0.2791
  500MOL0     H67450   4.512   5.614   9.906  0.1933  0.6635  1.6118
  500MOL0     H67451   4.805   5.819  10.082 -0.4999  2.3503  3.1409
  500MOL0     H67452   4.666   6.025  10.362  2.3917 -0.1524  2.0331
  500MOL0     H67453   4.698   5.856  10.412  2.5488 -0.7593 -1.4062
  500MOL0     H67454   4.901   5.987  10.222 -1.1062 -0.0786 -0.5786
  500MOL0     H67455   4.910   5.849  10.340 -2.2889 -0.3775  1.1111
  500MOL0     H67456   4.861   6.003  10.527 -1.7750 -2.3516 -0.1820
  500MOL0     H67457   4.891   6.146  10.415  0.4652 -1.2865 -1.4772
  500MOL0     H67458   5.097   5.944  10.466 -1.3153 -1.0011 -2.2267
  500MOL0     H67459   5.070   6.096  10.557 -0.1800 -2.4422  0.4715
  500MOL0     H67460   5.285   5.890  10.376  0.0067 -1.2281 -0.4939
  500MOL0     H67461   5.410   5.645  10.180  1.4082 -0.0324  1.3283
  500MOL0     H67462   5.526   5.778  10.187  0.9271 -3.2422 -2.8135
  500MOL0     H67463   5.419   5.750  10.333 -0.1851  2.8795 -0.3002
  500MOL0     H67464   5.341   5.580   9.722  1.5903  0.8574  0.6389
  500MOL0     H67465   5.353   5.492   9.498  0.9157  0.4335  1.7206
  500MOL0     H67466   5.317   5.749   9.125 -0.9982  0.0001  0.3137
  500MOL0     H67467   5.464   5.806   9.178 -3.8187  2.3996  0.7555
  500MOL0     H67468   5.571   5.598   9.073 -0.2462  3.8173  2.7598
  500MOL0     H67469   5.400   5.534   9.064 -1.1978  1.1366  0.1565
  500MOL0     H67470   5.545   5.761   8.899  0.6927 -1.3922 -2.6541
  500MOL0     H67471   5.366   5.729   8.906  0.8670  1.2525 -0.9379
  500MOL0     H67472   5.597   5.557   8.801 -0.7858 -0.9963  0.4156
  500MOL0     H67473   5.443   5.484   8.832  0.2941  0.0127 -1.4703
  500MOL0     H67474   5.343   5.634   8.660 -0.0996 -0.3368 -1.6814
  500MOL0     H67475   5.489   5.537   8.610 -1.0012  0.6932  0.5076
  500MOL0     H67476   5.491   5.849   8.660 -0.4859 -1.0496  2.1985
  500MOL0     H67477   5.624   5.739   8.614  0.1823 -0.6764  0.3365
  500MOL0     H67478   5.495   5.892   8.452  0.8368  0.9961  4.4770
  500MOL0     H67479   5.370   5.765   8.451 -0.1081  1.2485  0.9642
  500MOL0     H67480   5.528   5.620   8.324 -1.2428  0.0219 -1.6926
  500MOL0     H67481   5.666   5.718   8.391 -1.2679  0.4738  3.5461
  500MOL0     H67482   5.357   5.891   9.338  1.8583 -1.4002 -0.1507
  500MOL0     H67483   5.313   5.976   9.558 -3.3753 -0.2274  0.3437
  500MOL0     H67484   5.183   5.995   9.904 -0.3164 -1.1846  0.3845
  500MOL0     H67485   5.085   6.131  10.093 -2.0802  0.1050  3.3472
  500MOL0     H67486   4.735   5.999   8.969  1.5061  0.2286 -0.9455
  500MOL0     H67487   4.804   6.138   8.784  1.3790 -0.1365  0.9859
  500MOL0     H67488   4.751   6.775   8.578 -1.4698 -0.3405 -0.2765
  500MOL0     H67489   4.909   6.847   8.407  0.5062 -0.5594  0.3649
  500MOL0     H67490   4.940   6.812   8.186  0.0565 -0.2989 -0.5546
  500MOL0     H67491   5.109   6.856   8.211  2.3353 -1.1599  1.4181
  500MOL0     H67492   5.190   6.737   8.025  0.7437 -1.0975 -2.7413
  500MOL0     H67493   5.047   6.828   7.971  1.6467 -0.3338 -0.7572
  500MOL0     H67494   4.912   6.605   7.980 -0.5981 -0.2529  0.1492
  500MOL0     H67495   5.069   6.516   8.006  1.7323  0.4588  0.0228
  500MOL0     H67496   5.155   6.587   7.795 -0.5545 -3.3198 -1.1139
  500MOL0     H67497   5.017   6.707   7.777 -3.2889 -2.1393 -2.4497
  500MOL0     H67498   4.865   6.311   7.690  2.4291 -1.6294  1.1430
  500MOL0     H67499   5.079   6.456   8.404  1.9085  1.8828  2.1073
  500MOL0     H67500   4.934   6.380   8.577  3.1655  0.5337 -1.1023
  501MOL0     O67501   3.140   9.920   0.471 -0.0847  0.4495 -0.2503
  501MOL0     C67502   3.087   9.832   0.398  0.5989  0.4193 -0.3639
  501MOL0     O67503   3.138   9.710   0.374  0.6777  0.1772 -0.1179
  501MOL0     C67504   3.264   9.689   0.414  0.2770  1.3375 -0.0494
  501MOL0     C67505   3.296   9.587   0.508 -0.4585 -0.3231  0.4116
  501MOL0     C67506   3.424   9.564   0.544  0.3392  0.1635 -0.1739
  501MOL0     C67507   3.530   9.647   0.486 -0.0392 -0.7249  0.2132
  501MOL0     O67508   3.665   9.633   0.516  0.1377 -0.6589  0.5001
  501MOL0     C67509   3.768   9.711   0.449  0.4163 -0.2305  1.1582
  501MOL0     C67510   3.906   9.642   0.473 -0.8217 -0.7057  0.0154
  501MOL0     C67511   3.947   9.648   0.619 -0.3407  0.8536 -0.1308
  501MOL0     C67512   4.098   9.645   0.643  0.1600  1.2320 -0.7419
  501MOL0     C67513   4.125   9.643   0.795 -0.4176 -0.3642 -0.7931
  501MOL0     C67514   4.279   9.634   0.840  0.0045 -0.3066 -0.2114
  501MOL0     C67515   4.379   9.714   0.761  0.0069  0.7661  0.0693
  501MOL0     C67516   4.527   9.714   0.819  0.3932  0.6089 -0.2719
  501MOL0     N67517   4.601   9.590   0.783  0.2389  0.4829 -0.4812
  501MOL0     C67518   4.667   9.559   0.669  0.2474  0.0649  0.0128
  501MOL0     C67519   4.746   9.447   0.691 -0.6882 -0.1369 -0.0135
  501MOL0     C67520   4.840   9.384   0.598 -0.2337 -0.4467  1.0438
  501MOL0     C67521   4.978   9.439   0.588 -0.7911 -0.9220 -0.5615
  501MOL0     C67522   5.085   9.331   0.551 -1.4067  0.6801 -0.4334
  501MOL0     C67523   5.211   9.403   0.505 -0.4735  1.0741 -0.0301
  501MOL0     O67524   5.188   9.480   0.393  0.3785  0.5972  0.1618
  501MOL0     C67525   5.183   9.421   0.268  0.4796 -0.0634 -0.5625
  501MOL0     C67526   5.133   9.505   0.168 -0.4860  0.9711  0.1854
  501MOL0     C67527   5.125   9.468   0.031  0.8466 -0.8931  0.5640
  501MOL0     C67528   5.062   9.569  -0.052  0.4541 -0.5216 -0.0909
  501MOL0     C67529   5.183   9.344  -0.008  0.8413 -0.3920 -0.1023
  501MOL0     C67530   5.203   9.307  -0.146 -0.3763 -0.5743 -0.4556
  501MOL0     O67531   5.234   9.180  -0.175  0.3542  0.0652 -1.5979
  501MOL0     C67532   5.213   9.121  -0.299 -0.0334  0.1205 -0.5662
  501MOL0     C67533   5.124   9.156  -0.400  0.4493 -0.0492  1.4519
  501MOL0     C67534   5.124   9.096  -0.529  0.3557  0.2224 -0.7074
  501MOL0     C67535   5.227   9.003  -0.562  0.3279 -0.4841  1.2686
  501MOL0     O67536   5.249   8.956  -0.687  0.0864 -0.1420  0.1050
  501MOL0     C67537   5.267   9.050  -0.797 -0.7481  1.0042 -0.5029
  501MOL0     C67538   5.265   8.978  -0.938  0.0258 -1.2889 -0.1450
  501MOL0     C67539   5.373   8.854  -0.937  0.7654  0.1987  0.5640
  501MOL0     C67540   5.342   8.724  -0.862 -0.8573 -0.1185 -0.2856
  501MOL0     C67541   5.468   8.642  -0.867 -0.2835  0.2056 -0.3220
  501MOL0     C67542   5.456   8.506  -0.793 -0.3103 -0.1099  0.3620
  501MOL0     C67543   5.594   8.437  -0.773 -0.0142 -0.1356  0.4182
  501MOL0     C67544   5.588   8.315  -0.685 -0.8978 -0.1166 -0.1672
  501MOL0    Cl67545   5.526   8.346  -0.519  0.3730  0.1910  0.2301
  501MOL0     C67546   5.313   8.959  -0.463  1.4667  0.5914 -0.2939
  501MOL0     C67547   5.295   9.014  -0.331 -0.3279 -1.1444  0.8093
  501MOL0     O67548   5.179   9.394  -0.231 -0.0977  0.4216  0.5140
  501MOL0     C67549   5.222   9.251   0.098 -0.2440  0.9244 -0.8813
  501MOL0     C67550   5.217   9.292   0.232 -0.7413  0.9967 -0.1764
  501MOL0     N67551   4.715   9.417   0.823 -0.1869 -0.4174 -0.0395
  501MOL0     N67552   4.613   9.486   0.865 -0.2665  0.2030 -0.3355
  501MOL0     C67553   3.484   9.763   0.407 -0.2454  0.5999 -0.2156
  501MOL0     C67554   3.361   9.765   0.356  1.3849 -0.9143 -0.8435
  501MOL0     C67555   2.950   9.854   0.332 -0.5399 -0.5855  1.1728
  501MOL0     C67556   2.889   9.750   0.259 -0.2373 -0.5915 -0.2926
  501MOL0     C67557   2.762   9.769   0.208 -0.1129  0.1104  0.5091
  501MOL0     C67558   2.691   9.889   0.227  0.0977  0.7516  0.5341
  501MOL0     O67559   2.564   9.906   0.180 -0.6825  0.1405 -0.5937
  501MOL0     C67560   2.525  10.036   0.143  1.0779 -0.4522 -0.2687
  501MOL0     C67561   2.399  10.040   0.040 -0.5227  0.3012  0.0346
  501MOL0     C67562   2.444  10.013  -0.112 -0.4381 -0.1821 -1.5307
  501MOL0     C67563   2.331  10.017  -0.210  0.0779 -0.2599 -0.0226
  501MOL0     C67564   2.270  10.151  -0.214 -0.5186  0.4504  0.2519
  501MOL0     C67565   2.208  10.255  -0.198 -0.7208 -0.2299 -0.7822
  501MOL0     C67566   2.746   9.993   0.302 -0.2152  0.3988 -1.1577
  501MOL0     C67567   2.877   9.977   0.348 -0.0128  0.3957 -0.6282
  501MOL0     H67568   3.213   9.521   0.534 -0.0057 -0.4563  1.5843
  501MOL0     H67569   3.444   9.485   0.616  3.4207  0.0760 -0.9588
  501MOL0     H67570   3.750   9.718   0.342  1.3047 -1.4845  0.9038
  501MOL0     H67571   3.779   9.813   0.488  0.4846 -0.5201  1.9211
  501MOL0     H67572   3.899   9.534   0.453  0.6935 -0.5579 -1.5513
  501MOL0     H67573   3.982   9.688   0.409  1.8159 -0.8416  2.8148
  501MOL0     H67574   3.890   9.725   0.673 -1.3740  1.4889 -2.0377
  501MOL0     H67575   3.913   9.552   0.661  2.2572 -0.5193 -0.9724
  501MOL0     H67576   4.147   9.561   0.594 -1.0565  1.8545 -3.1919
  501MOL0     H67577   4.130   9.736   0.591 -0.4516  1.4839 -0.6854
  501MOL0     H67578   4.089   9.734   0.843 -0.6142 -2.0086  2.4539
  501MOL0     H67579   4.081   9.562   0.854 -2.2460  0.0480 -1.5216
  501MOL0     H67580   4.291   9.658   0.946 -0.0061 -1.6845  0.1208
  501MOL0     H67581   4.319   9.534   0.822 -0.1962  0.0596 -3.1068
  501MOL0     H67582   4.373   9.671   0.660  4.9728  2.7273 -1.4031
  501MOL0     H67583   4.348   9.818   0.745  1.0323  1.2180  0.8874
  501MOL0     H67584   4.535   9.723   0.927  0.2035 -0.8262 -0.1186
  501MOL0     H67585   4.582   9.797   0.775 -1.0859  1.8067  0.0598
  501MOL0     H67586   4.673   9.615   0.575 -4.3830  0.1384 -0.4548
  501MOL0     H67587   4.848   9.278   0.625  1.6000 -0.0831  2.0300
  501MOL0     H67588   4.793   9.382   0.499  1.1072 -1.0635  0.3976
  501MOL0     H67589   5.009   9.498   0.675  3.2668 -1.7899 -1.2104
  501MOL0     H67590   4.976   9.517   0.511  2.1105 -0.6406 -0.4907
  501MOL0     H67591   5.041   9.278   0.466  0.6984  0.3083 -1.3364
  501MOL0     H67592   5.113   9.266   0.635  2.0154  3.0662  0.4802
  501MOL0     H67593   5.284   9.325   0.481 -0.0738  1.1103  0.9720
  501MOL0     H67594   5.258   9.456   0.589 -0.8064  1.7315 -0.2548
  501MOL0     H67595   5.101   9.599   0.211 -0.6208  0.5942  0.9225
  501MOL0     H67596   5.142   9.605  -0.117 -0.0116 -2.3980 -1.8070
  501MOL0     H67597   4.981   9.532  -0.115 -1.0417  3.6556 -0.9512
  501MOL0     H67598   5.012   9.651   0.001 -2.1071  0.1301 -3.2028
  501MOL0     H67599   5.052   9.233  -0.377  0.9206  1.7582 -2.3623
  501MOL0     H67600   5.060   9.143  -0.602  1.4752  3.7081  0.3555
  501MOL0     H67601   5.189   9.126  -0.810  0.7991  2.2668 -3.3351
  501MOL0     H67602   5.367   9.091  -0.787 -0.9908  2.3031 -2.7842
  501MOL0     H67603   5.168   8.951  -0.982 -0.0662 -0.3814 -0.5226
  501MOL0     H67604   5.315   9.054  -0.999  3.2891 -1.4102  2.1494
  501MOL0     H67605   5.468   8.891  -0.897 -0.3082  3.1839  0.5855
  501MOL0     H67606   5.397   8.826  -1.040  0.0098 -0.3159  0.5184
  501MOL0     H67607   5.297   8.738  -0.763 -1.0479 -3.6983  0.2858
  501MOL0     H67608   5.267   8.668  -0.920 -1.1806  2.5303 -2.6408
  501MOL0     H67609   5.540   8.704  -0.813 -1.2510  1.4368 -0.3953
  501MOL0     H67610   5.512   8.609  -0.961  4.1347 -1.0850  1.9225
  501MOL0     H67611   5.424   8.525  -0.690 -1.8155 -0.9957  0.0733
  501MOL0     H67612   5.387   8.447  -0.853  0.9508  1.8844 -3.3757
  501MOL0     H67613   5.667   8.508  -0.734 -0.2264 -0.2794  1.0802
  501MOL0     H67614   5.636   8.406  -0.870  0.2564  0.0779  0.4674
  501MOL0     H67615   5.687   8.275  -0.663 -2.2414 -1.2806  5.3148
  501MOL0     H67616   5.536   8.235  -0.738 -0.1132  1.5307 -3.7450
  501MOL0     H67617   5.392   8.892  -0.494  0.9638  0.8053 -2.1739
  501MOL0     H67618   5.386   8.991  -0.276  2.4913 -1.4008 -3.4681
  501MOL0     H67619   5.252   9.149   0.076 -3.2860  0.2816 -2.6354
  501MOL0     H67620   5.240   9.217   0.307  0.8951  0.6009 -1.0239
  501MOL0     H67621   3.558   9.838   0.380 -2.0468  1.9130 -1.7071
  501MOL0     H67622   3.339   9.839   0.280  1.5320  0.4969  0.4264
  501MOL0     H67623   2.953   9.665   0.234  0.8303 -0.7485  2.5841
  501MOL0     H67624   2.718   9.690   0.149 -0.3609  0.4031  0.2948
  501MOL0     H67625   2.482  10.083   0.231  2.9462 -1.8968  1.4965
  501MOL0     H67626   2.612  10.095   0.113  1.1895 -0.7168 -0.4736
  501MOL0     H67627   2.356  10.139   0.052  0.9610  0.7028  2.8580
  501MOL0     H67628   2.324   9.964   0.064 -0.4174 -0.1650 -1.0406
  501MOL0     H67629   2.501   9.920  -0.121 -1.0587 -0.4749 -2.6688
  501MOL0     H67630   2.516  10.093  -0.127 -1.2916  2.4460  5.0126
  501MOL0     H67631   2.257   9.940  -0.188  0.9512 -0.6186  1.8303
  501MOL0     H67632   2.380   9.994  -0.306 -0.5021 -2.5615  0.1704
  501MOL0     H67633   2.139  10.337  -0.196  1.9564  2.1744 -0.3165
  501MOL0     H67634   2.700  10.087   0.331  1.1887  0.4548  1.1954
  501MOL0     H67635   2.911  10.067   0.398 -0.8967  0.4702 -0.1368
  502MOL0     O67636  10.376   7.778   7.765  0.7287 -1.0482  0.6434
  502MOL0     C67637  10.426   7.665   7.738  0.3312 -0.0400 -0.1334
  502MOL0     O67638  10.558   7.617   7.733  0.4054  0.1572  0.5638
  502MOL0     C67639  10.659   7.709   7.736  0.6037  0.7264 -0.7086
  502MOL0     C67640  10.655   7.847   7.692  0.4445  0.8271 -0.8089
  502MOL0     C67641  10.767   7.925   7.683  0.5040 -0.8898  0.4379
  502MOL0     C67642  10.894   7.883   7.721  0.3584  0.4337 -0.9797
  502MOL0     O67643  10.985   7.979   7.719 -1.1686  1.1572 -0.1691
  502MOL0     C67644  11.112   7.953   7.789  0.2551  0.3959 -0.3516
  502MOL0     C67645  11.170   8.081   7.835  0.7569 -0.0261  0.1872
  502MOL0     C67646  11.213   8.168   7.712  0.3595 -0.6326 -0.6841
  502MOL0     C67647  11.269   8.314   7.761  1.2978 -0.3677 -0.4227
  502MOL0     C67648  11.296   8.405   7.647 -0.6462  0.4208 -0.1052
  502MOL0     C67649  11.411   8.351   7.566 -0.1473  0.0078  0.1031
  502MOL0     C67650  11.418   8.418   7.432  0.3491 -0.4862  0.1314
  502MOL0     C67651  11.559   8.422   7.381  0.4362  0.2768  0.9670
  502MOL0     N67652  11.557   8.464   7.235  0.2938  0.7778  0.8144
  502MOL0     C67653  11.506   8.587   7.183 -0.1029  0.8294 -0.8065
  502MOL0     C67654  11.497   8.563   7.052 -0.3990 -0.2380  0.0062
  502MOL0     C67655  11.467   8.675   6.949 -0.2191 -0.3269 -0.5464
  502MOL0     C67656  11.548   8.794   6.952 -0.4007 -0.2620  0.0699
  502MOL0     C67657  11.491   8.897   6.845 -0.0063 -0.5936  0.8819
  502MOL0     C67658  11.568   9.030   6.863  0.0631  0.1918  0.2998
  502MOL0     O67659  11.707   9.023   6.853 -0.3715 -0.3310 -0.4068
  502MOL0     C67660  11.757   8.959   6.741 -0.1771  0.2579 -0.2088
  502MOL0     C67661  11.708   8.990   6.614  0.6766 -0.2038 -0.3330
  502MOL0     C67662  11.752   8.921   6.494  0.6115 -1.3677 -0.0436
  502MOL0     C67663  11.688   8.960   6.370 -0.7577 -0.8325  0.0408
  502MOL0     C67664  11.855   8.818   6.500  0.4101  1.0928 -0.5748
  502MOL0     C67665  11.906   8.729   6.385 -0.1548 -0.3221 -0.4464
  502MOL0     O67666  12.024   8.675   6.403  0.5933  0.1781 -0.2142
  502MOL0     C67667  12.111   8.637   6.306 -2.3750  0.0052  0.2097
  502MOL0     C67668  12.236   8.571   6.347 -0.8173 -0.5181  0.0281
  502MOL0     C67669  12.335   8.521   6.251  1.1663 -0.0349  0.1599
  502MOL0     C67670  12.315   8.523   6.125  0.8689 -0.6048  0.1323
  502MOL0     O67671  12.422   8.495   6.042 -0.4896 -0.1553 -0.3755
  502MOL0     C67672  12.393   8.471   5.912  0.8109  0.1252  0.8888
  502MOL0     C67673  12.509   8.412   5.837  0.0877 -0.4677  0.8425
  502MOL0     C67674  12.491   8.427   5.682 -0.9701  0.3298 -0.7276
  502MOL0     C67675  12.634   8.386   5.622  0.6042 -0.0402 -0.4655
  502MOL0     C67676  12.628   8.363   5.469 -0.5133  0.4902 -0.5213
  502MOL0     C67677  12.764   8.354   5.409 -0.0504  0.2528  0.4855
  502MOL0     C67678  12.761   8.307   5.266 -0.2325  1.0019 -0.1178
  502MOL0     C67679  12.906   8.279   5.232 -0.3358  0.6718 -0.7500
  502MOL0    Cl67680  12.989   8.420   5.157 -0.2173  0.2919  0.2951
  502MOL0     C67681  12.192   8.593   6.080  0.7174  0.1526 -1.6092
  502MOL0     C67682  12.087   8.642   6.164  0.1289 -0.0172 -0.1754
  502MOL0     O67683  11.827   8.709   6.291 -0.3159 -0.4978  0.3443
  502MOL0     C67684  11.913   8.797   6.629 -0.6175  0.3261  0.4135
  502MOL0     C67685  11.867   8.864   6.743 -0.5140 -0.2081 -0.4465
  502MOL0     N67686  11.545   8.443   7.018  0.4723 -0.5784 -0.0702
  502MOL0     N67687  11.567   8.376   7.131  0.0343  0.2696 -0.4028
  502MOL0     C67688  10.899   7.746   7.753 -1.0852  1.2400  0.0108
  502MOL0     C67689  10.786   7.663   7.764  0.1255  0.1120  0.3811
  502MOL0     C67690  10.322   7.566   7.714 -0.1046  0.1089 -0.7881
  502MOL0     C67691  10.187   7.613   7.715 -0.1925  0.1565  0.1665
  502MOL0     C67692  10.086   7.525   7.667 -0.5881  0.4379 -0.6302
  502MOL0     C67693  10.104   7.387   7.646 -0.7600  0.6491  0.5517
  502MOL0     O67694   9.996   7.306   7.623  0.1990 -0.4270 -0.0429
  502MOL0     C67695  10.013   7.165   7.636 -0.4549 -0.2545 -0.4356
  502MOL0     C67696  10.063   7.097   7.517 -0.7843 -0.1381 -0.1072
  502MOL0     C67697  10.036   6.941   7.529  1.1457 -0.7689 -0.1229
  502MOL0     C67698  10.082   6.867   7.403 -1.1978  0.2540 -2.0988
  502MOL0     C67699  10.226   6.889   7.377  0.2225 -0.2477 -0.8014
  502MOL0     C67700  10.345   6.894   7.368  0.8084 -0.6491 -0.1667
  502MOL0     C67701  10.239   7.346   7.642  1.1642  0.0728  0.3197
  502MOL0     C67702  10.341   7.431   7.675 -0.2597 -0.7159 -0.0721
  502MOL0     H67703  10.559   7.888   7.663  0.4679  1.6818  0.2842
  502MOL0     H67704  10.749   8.022   7.637 -2.7935 -1.3787  0.4937
  502MOL0     H67705  11.082   7.899   7.880 -0.7489  2.9106  0.8906
  502MOL0     H67706  11.185   7.894   7.732  0.1759  0.9529 -1.0361
  502MOL0     H67707  11.092   8.128   7.895 -0.2920 -2.6214  1.0230
  502MOL0     H67708  11.260   8.074   7.897  0.1951  3.0897  1.5277
  502MOL0     H67709  11.302   8.123   7.669  2.1911  2.3167 -0.2830
  502MOL0     H67710  11.141   8.178   7.630  2.0405 -0.6731 -2.2124
  502MOL0     H67711  11.199   8.354   7.835  0.8334 -2.0104  0.0782
  502MOL0     H67712  11.353   8.288   7.826  0.0195 -3.1193  0.2784
  502MOL0     H67713  11.208   8.411   7.582  0.2159 -1.4588 -1.5398
  502MOL0     H67714  11.325   8.503   7.686  1.8361 -0.6103  0.8140
  502MOL0     H67715  11.507   8.359   7.618  0.0161 -0.2491 -0.1554
  502MOL0     H67716  11.397   8.245   7.543 -1.7388  0.3006 -0.3557
  502MOL0     H67717  11.358   8.361   7.361 -1.2753  1.2055  0.0797
  502MOL0     H67718  11.384   8.522   7.426  1.5444 -0.1364 -1.3699
  502MOL0     H67719  11.613   8.328   7.396 -1.6489 -0.7840  2.1929
  502MOL0     H67720  11.613   8.500   7.435  3.7959 -1.7731  0.8567
  502MOL0     H67721  11.511   8.682   7.235  4.4224  0.8552 -0.8431
  502MOL0     H67722  11.467   8.637   6.846  2.7630 -0.9300 -0.4256
  502MOL0     H67723  11.366   8.710   6.971  0.1803  0.8248 -0.5149
  502MOL0     H67724  11.646   8.757   6.920 -0.8786 -0.6588 -0.9775
  502MOL0     H67725  11.555   8.837   7.052  0.3873  0.3787 -0.2554
  502MOL0     H67726  11.384   8.901   6.865 -0.3541  0.9767 -1.0640
  502MOL0     H67727  11.510   8.852   6.747  1.1420 -1.1540  1.3373
  502MOL0     H67728  11.548   9.078   6.960  4.5267  4.6018 -0.5708
  502MOL0     H67729  11.528   9.110   6.799  0.2475 -1.2029 -1.6459
  502MOL0     H67730  11.642   9.076   6.607 -1.1806 -1.1065  3.2931
  502MOL0     H67731  11.599   9.024   6.369  0.4128  0.9000 -2.0607
  502MOL0     H67732  11.762   9.013   6.310 -2.4322  0.6529 -0.8003
  502MOL0     H67733  11.654   8.872   6.314 -1.7966 -1.8390  2.1272
  502MOL0     H67734  12.248   8.562   6.454 -4.3660 -0.6050  0.5215
  502MOL0     H67735  12.418   8.468   6.296 -1.1772 -1.8454  2.6915
  502MOL0     H67736  12.311   8.399   5.915 -1.0008  1.5444 -4.3923
  502MOL0     H67737  12.365   8.563   5.861  0.8520 -0.5836 -0.4515
  502MOL0     H67738  12.599   8.464   5.870  0.0878 -0.2741  0.5421
  502MOL0     H67739  12.510   8.305   5.862 -1.6740 -0.5633  0.6255
  502MOL0     H67740  12.472   8.532   5.656 -0.0856  0.0828 -2.5095
  502MOL0     H67741  12.411   8.362   5.647  0.7205 -1.8409 -0.7963
  502MOL0     H67742  12.717   8.447   5.657  1.1932 -1.2088  0.2395
  502MOL0     H67743  12.643   8.288   5.669 -1.7945  0.3867  1.0629
  502MOL0     H67744  12.580   8.445   5.416 -1.2693  1.3607  1.4086
  502MOL0     H67745  12.569   8.272   5.454  2.7416 -1.6456 -1.4005
  502MOL0     H67746  12.815   8.451   5.404  2.4729 -1.0248  0.1950
  502MOL0     H67747  12.814   8.279   5.471 -0.7672 -1.3389 -0.7838
  502MOL0     H67748  12.713   8.383   5.205  1.2838  1.3746 -0.9148
  502MOL0     H67749  12.701   8.216   5.253  1.6655  0.0263 -3.2364
  502MOL0     H67750  12.892   8.218   5.142 -3.5096 -0.4021  0.3371
  502MOL0     H67751  12.964   8.216   5.300  0.5338 -0.3154 -2.3240
  502MOL0     H67752  12.175   8.605   5.973 -2.4556  1.0510 -1.1122
  502MOL0     H67753  11.997   8.682   6.118 -0.4553 -2.7789 -1.6591
  502MOL0     H67754  11.993   8.726   6.647 -0.4765  0.3487 -0.1001
  502MOL0     H67755  11.910   8.849   6.841 -0.6198  1.2145 -0.1586
  502MOL0     H67756  10.998   7.712   7.781 -1.9039 -0.8424  0.5037
  502MOL0     H67757  10.795   7.558   7.788  0.6250  0.2846  0.9728
  502MOL0     H67758  10.168   7.716   7.742  3.8438  0.3719  3.1944
  502MOL0     H67759   9.985   7.565   7.673  0.3661  2.9868 -0.2791
  502MOL0     H67760  10.067   7.151   7.730  0.2668  0.6541 -0.7063
  502MOL0     H67761   9.917   7.114   7.647  0.1127 -0.6636  4.4731
  502MOL0     H67762  10.170   7.119   7.508 -0.4898 -2.1633 -4.9966
  502MOL0     H67763  10.007   7.140   7.434 -1.1247  0.2547  0.3248
  502MOL0     H67764   9.929   6.918   7.530  0.8934  0.3975  0.7627
  502MOL0     H67765  10.089   6.901   7.615  2.8687  1.8052  0.1081
  502MOL0     H67766  10.017   6.899   7.320  0.5574  1.8186 -2.9622
  502MOL0     H67767  10.064   6.760   7.416 -0.3015  0.3949  0.9695
  502MOL0     H67768  10.450   6.915   7.363  0.6096  0.1263 -2.0443
  502MOL0     H67769  10.267   7.243   7.621 -1.0491 -0.2693 -1.3443
  502MOL0     H67770  10.443   7.403   7.655 -0.9691 -0.6716 -4.8288
  503MOL0     O67771   9.460   3.931   3.878 -0.8583  0.9562 -0.0201
  503MOL0     C67772   9.387   4.001   3.809 -0.3009 -0.1875  0.9025
  503MOL0     O67773   9.272   4.068   3.856 -1.4231 -0.2436 -0.5249
  503MOL0     C67774   9.247   4.056   3.988  0.0841  0.1063 -0.3152
  503MOL0     C67775   9.287   4.167   4.058 -0.1271 -0.6688 -0.3470
  503MOL0     C67776   9.253   4.176   4.201  0.1493 -0.8391  0.6739
  503MOL0     C67777   9.186   4.072   4.261  0.6849  0.1978  0.0100
  503MOL0     O67778   9.165   4.058   4.397 -0.0596  0.6334 -0.2410
  503MOL0     C67779   9.219   4.167   4.476 -0.1226 -0.1790 -0.5899
  503MOL0     C67780   9.223   4.141   4.619  1.0214 -1.3199  0.5722
  503MOL0     C67781   9.223   4.257   4.725 -0.2528  0.1273 -0.0165
  503MOL0     C67782   9.359   4.326   4.736 -0.2601 -0.2411  0.3344
  503MOL0     C67783   9.350   4.424   4.855 -0.6889 -0.1716  0.4454
  503MOL0     C67784   9.477   4.494   4.904 -0.3425 -0.0875 -0.1316
  503MOL0     C67785   9.544   4.412   5.018  0.0378  0.3716 -0.0140
  503MOL0     C67786   9.681   4.478   5.038 -0.5991  0.5488 -0.4299
  503MOL0     N67787   9.767   4.450   4.920 -0.2596  0.2228  0.4578
  503MOL0     C67788   9.829   4.547   4.838  0.9096  0.3851  0.9178
  503MOL0     C67789   9.903   4.470   4.748 -0.3822 -0.5544  0.3071
  503MOL0     C67790   9.992   4.528   4.634  0.4447  0.0527 -0.4521
  503MOL0     C67791  10.126   4.586   4.667  0.0360 -0.0614 -1.1926
  503MOL0     C67792  10.113   4.729   4.724  0.2885  0.1377 -0.2791
  503MOL0     C67793  10.233   4.824   4.711  0.7767 -0.1809 -0.8331
  503MOL0     O67794  10.194   4.939   4.799 -0.5382  0.4765 -0.9734
  503MOL0     C67795  10.287   5.036   4.831  0.0593  0.5823  0.9216
  503MOL0     C67796  10.424   5.037   4.811  0.1374 -0.4763  0.5871
  503MOL0     C67797  10.519   5.132   4.862 -0.7151  0.5977 -0.4832
  503MOL0     C67798  10.654   5.132   4.791  0.1105  0.7892 -0.5197
  503MOL0     C67799  10.465   5.229   4.951  0.2594 -0.7447 -0.4921
  503MOL0     C67800  10.545   5.337   5.027  0.0995  0.3626 -0.0631
  503MOL0     O67801  10.574   5.309   5.158 -0.4765 -0.2398  0.7161
  503MOL0     C67802  10.700   5.361   5.196 -0.4116  0.7148  0.0009
  503MOL0     C67803  10.814   5.319   5.126  1.0095 -0.1235  0.3892
  503MOL0     C67804  10.948   5.355   5.158  0.1404 -1.0862 -0.5053
  503MOL0     C67805  10.963   5.450   5.265  0.1457 -0.4030  0.5054
  503MOL0     O67806  11.086   5.497   5.292 -0.4890  0.0656  0.4975
  503MOL0     C67807  11.102   5.571   5.409 -0.0471  0.1709 -0.0332
  503MOL0     C67808  11.249   5.572   5.453  0.2492  0.3630 -0.9964
  503MOL0     C67809  11.268   5.636   5.583  0.2972  0.3154  0.1246
  503MOL0     C67810  11.404   5.703   5.589 -0.0499 -0.1046 -1.1031
  503MOL0     C67811  11.445   5.788   5.705  1.0389  0.3229  0.3754
  503MOL0     C67812  11.361   5.923   5.692 -0.1659  0.1343  0.9960
  503MOL0     C67813  11.414   6.055   5.761  0.6272 -0.2940 -1.6601
  503MOL0     C67814  11.334   6.187   5.755 -0.0138 -0.0051 -0.4433
  503MOL0    Cl67815  11.196   6.155   5.875 -0.1573 -0.0518 -0.0407
  503MOL0     C67816  10.843   5.502   5.326 -0.1648  0.0014  0.7924
  503MOL0     C67817  10.716   5.447   5.294  0.2733  0.2548  0.2713
  503MOL0     O67818  10.580   5.439   4.968 -0.1818 -0.6068 -0.7415
  503MOL0     C67819  10.322   5.235   4.970 -0.9437  0.1540 -0.6651
  503MOL0     C67820  10.242   5.138   4.912 -0.4541  0.5033 -0.2116
  503MOL0     N67821   9.894   4.341   4.775  0.4017 -0.0217  0.6929
  503MOL0     N67822   9.810   4.321   4.884 -0.7150 -0.5108  0.0781
  503MOL0     C67823   9.144   3.968   4.178 -0.1258 -0.2694 -0.3169
  503MOL0     C67824   9.172   3.958   4.046 -0.1318  0.2049  0.3711
  503MOL0     C67825   9.420   4.025   3.658 -0.5850  0.1853  0.6547
  503MOL0     C67826   9.332   4.092   3.571 -0.4417  0.0184  0.7381
  503MOL0     C67827   9.341   4.091   3.433  0.5112 -0.1047 -0.1465
  503MOL0     C67828   9.454   4.034   3.368  0.1530  0.2849 -0.4086
  503MOL0     O67829   9.472   4.019   3.231  0.1568  0.4837  0.1681
  503MOL0     C67830   9.424   4.124   3.148 -0.2677 -0.4046 -0.9479
  503MOL0     C67831   9.342   4.057   3.038  1.0348  0.0916 -0.7434
  503MOL0     C67832   9.193   4.023   3.060 -0.5545  0.3891 -1.2313
  503MOL0     C67833   9.111   3.958   2.947 -0.2502 -0.3040 -0.0216
  503MOL0     C67834   9.132   3.814   2.943 -0.7579  0.0156  0.9510
  503MOL0     C67835   9.144   3.693   2.939  0.1540 -0.9675  0.3677
  503MOL0     C67836   9.550   3.973   3.451  0.2054  0.0166  0.0895
  503MOL0     C67837   9.536   3.975   3.593 -0.3729 -0.4190 -0.6011
  503MOL0     H67838   9.332   4.253   4.009  0.0462  0.5118  1.7775
  503MOL0     H67839   9.284   4.263   4.258  0.5783  0.2077 -1.1030
  503MOL0     H67840   9.318   4.202   4.445  0.8024 -1.8319  0.3661
  503MOL0     H67841   9.144   4.245   4.457  0.3733  1.4865  3.3403
  503MOL0     H67842   9.138   4.077   4.643  1.8200 -1.6943  2.6409
  503MOL0     H67843   9.301   4.068   4.642 -0.9181 -3.4909  0.6077
  503MOL0     H67844   9.158   4.332   4.680 -0.2968 -0.5076 -1.0330
  503MOL0     H67845   9.188   4.227   4.824 -0.9459  2.3767  0.4802
  503MOL0     H67846   9.436   4.252   4.756 -0.2444 -0.2196  0.3547
  503MOL0     H67847   9.390   4.385   4.649  0.6393  1.7828  1.9285
  503MOL0     H67848   9.280   4.504   4.830  0.5554  1.6707  2.5377
  503MOL0     H67849   9.306   4.364   4.935 -1.6855 -0.9192 -0.6329
  503MOL0     H67850   9.541   4.522   4.820  1.1754 -1.8019  0.4038
  503MOL0     H67851   9.453   4.590   4.952 -0.5168  0.1306 -0.6453
  503MOL0     H67852   9.469   4.422   5.097 -0.3775  1.1152 -0.4885
  503MOL0     H67853   9.552   4.304   4.998  2.3101  0.1228  1.8358
  503MOL0     H67854   9.713   4.432   5.131 -3.8814  0.9911  1.0797
  503MOL0     H67855   9.671   4.586   5.050 -1.1843  0.3533  0.9553
  503MOL0     H67856   9.830   4.655   4.842  4.1156  0.5375 -0.9583
  503MOL0     H67857   9.990   4.446   4.562  0.8311 -0.5424  0.2034
  503MOL0     H67858   9.937   4.600   4.572  0.2372 -1.2326 -1.8142
  503MOL0     H67859  10.189   4.591   4.577  0.6017  0.8647 -0.7531
  503MOL0     H67860  10.169   4.521   4.743 -1.7535  2.4577  2.2177
  503MOL0     H67861  10.091   4.728   4.832  0.3459  2.7556 -0.1711
  503MOL0     H67862  10.040   4.784   4.665  0.2752 -2.2604 -2.6513
  503MOL0     H67863  10.239   4.864   4.610  1.5894  5.5321  1.1227
  503MOL0     H67864  10.324   4.770   4.740 -0.3890 -1.3384  0.8688
  503MOL0     H67865  10.470   4.957   4.754  1.0416 -1.6676  2.8693
  503MOL0     H67866  10.634   5.160   4.687 -0.2818 -2.4821 -1.4380
  503MOL0     H67867  10.728   5.194   4.842  0.4778 -0.0562 -0.0064
  503MOL0     H67868  10.692   5.030   4.800  0.2073  0.7441 -1.3788
  503MOL0     H67869  10.803   5.245   5.047  0.9888 -0.5494  0.7897
  503MOL0     H67870  11.037   5.308   5.119 -0.0565 -2.0768  0.2200
  503MOL0     H67871  11.059   5.670   5.393 -0.3247  0.1407  0.4975
  503MOL0     H67872  11.057   5.529   5.500  0.7018  1.2406  0.8605
  503MOL0     H67873  11.279   5.467   5.462  1.7558  0.3605 -4.3781
  503MOL0     H67874  11.317   5.613   5.378  0.2667  0.1483 -1.1001
  503MOL0     H67875  11.268   5.565   5.666  1.2234  0.0849 -0.0536
  503MOL0     H67876  11.190   5.712   5.587  0.8888  1.0190 -0.9295
  503MOL0     H67877  11.477   5.624   5.573  1.6160  1.4000 -1.2830
  503MOL0     H67878  11.416   5.761   5.496  0.6664 -1.2296 -1.7374
  503MOL0     H67879  11.553   5.798   5.690  1.0487  0.0587  0.2694
  503MOL0     H67880  11.427   5.732   5.798 -0.6156  0.0251 -0.0883
  503MOL0     H67881  11.359   5.946   5.585  0.0487 -1.8365  0.5221
  503MOL0     H67882  11.255   5.908   5.713 -0.1267  0.0527  1.1405
  503MOL0     H67883  11.516   6.079   5.729  1.2858  3.0651  2.1862
  503MOL0     H67884  11.438   6.031   5.865 -0.7031  0.5512 -1.1464
  503MOL0     H67885  11.291   6.211   5.657 -3.9566  5.5129  2.1046
  503MOL0     H67886  11.389   6.275   5.789 -1.4341  0.6127  0.3575
  503MOL0     H67887  10.840   5.592   5.387 -1.9439  1.7093 -1.6423
  503MOL0     H67888  10.622   5.481   5.336 -1.4960  1.3262 -4.0379
  503MOL0     H67889  10.273   5.318   5.020  1.2362 -0.3326  2.5954
  503MOL0     H67890  10.134   5.124   4.913 -0.3661 -0.2887 -0.5792
  503MOL0     H67891   9.074   3.901   4.228  0.1815  1.6401  2.9744
  503MOL0     H67892   9.137   3.872   3.992 -1.5388  1.8993 -1.5564
  503MOL0     H67893   9.247   4.139   3.621 -2.9336 -1.4215 -1.8749
  503MOL0     H67894   9.266   4.128   3.364  1.1540 -2.0880 -2.0206
  503MOL0     H67895   9.370   4.204   3.198 -1.7594 -1.0998 -1.3738
  503MOL0     H67896   9.506   4.174   3.096 -2.0024  2.8159 -0.8287
  503MOL0     H67897   9.387   3.958   3.026  0.6948 -0.0766 -0.6546
  503MOL0     H67898   9.363   4.111   2.945 -1.7244  1.8572 -0.4489
  503MOL0     H67899   9.136   4.108   3.098 -0.6950  1.0643 -2.8636
  503MOL0     H67900   9.193   3.961   3.150  3.2443 -2.9707 -3.2166
  503MOL0     H67901   9.129   4.005   2.849 -0.6918 -1.3871 -0.6350
  503MOL0     H67902   9.007   3.980   2.972 -0.5984 -0.2654 -1.3974
  503MOL0     H67903   9.142   3.586   2.931  0.2408 -0.8035 -3.3103
  503MOL0     H67904   9.622   3.912   3.397 -0.7828 -0.1600 -1.0676
  503MOL0     H67905   9.608   3.927   3.658  1.5173  2.1241 -0.6217
  504MOL0     O67906   0.088   3.171   2.174  0.6821 -0.4800  0.7083
  504MOL0     C67907   0.128   3.279   2.136  0.2409  0.5987  0.6860
  504MOL0     O67908   0.108   3.334   2.013 -0.0666 -0.1945 -0.3664
  504MOL0     C67909   0.046   3.269   1.914 -0.8368  0.2484  0.6466
  504MOL0     C67910  -0.072   3.324   1.861  0.4815  0.0834 -0.2496
  504MOL0     C67911  -0.138   3.255   1.753  0.0016 -0.3545 -1.4245
  504MOL0     C67912  -0.094   3.139   1.708 -0.3317 -0.3091 -0.0183
  504MOL0     O67913  -0.180   3.072   1.621 -0.0364 -0.5003 -0.3909
  504MOL0     C67914  -0.152   2.943   1.579  0.0885  0.3219 -0.1588
  504MOL0     C67915  -0.236   2.920   1.455  0.2619 -0.4086  0.1850
  504MOL0     C67916  -0.219   3.023   1.340 -0.1851  0.0897  0.7020
  504MOL0     C67917  -0.256   3.170   1.349 -0.1090 -0.4035 -1.2601
  504MOL0     C67918  -0.398   3.183   1.391 -0.6211  0.7643  0.4759
  504MOL0     C67919  -0.451   3.327   1.386  0.8320 -0.5682 -0.6364
  504MOL0     C67920  -0.377   3.421   1.469  0.0437 -0.9351  0.0332
  504MOL0     C67921  -0.426   3.566   1.430 -0.5184  0.8035 -0.0078
  504MOL0     N67922  -0.365   3.660   1.530 -0.3795  0.1606 -0.0833
  504MOL0     C67923  -0.233   3.647   1.571  1.0169 -0.4606 -0.5407
  504MOL0     C67924  -0.211   3.734   1.675  0.5909 -0.2047 -0.5954
  504MOL0     C67925  -0.085   3.771   1.756 -0.2759  0.5488 -0.2015
  504MOL0     C67926  -0.035   3.900   1.699 -1.1892  0.4744  0.3460
  504MOL0     C67927  -0.127   4.017   1.743 -0.5637  0.1407 -0.5897
  504MOL0     C67928  -0.044   4.144   1.759  0.6167  0.1685 -0.1848
  504MOL0     O67929  -0.065   4.229   1.645  1.2099 -0.5343  0.2385
  504MOL0     C67930  -0.006   4.185   1.525  0.0386 -1.5928 -0.2330
  504MOL0     C67931  -0.088   4.173   1.416 -0.4643  0.2279 -0.1508
  504MOL0     C67932  -0.043   4.128   1.285 -0.3679  1.2722 -0.2026
  504MOL0     C67933  -0.141   4.132   1.174 -0.1532 -0.6417 -0.0792
  504MOL0     C67934   0.087   4.082   1.270  1.3328  0.6494 -0.9346
  504MOL0     C67935   0.150   4.022   1.147 -1.2412  0.1966 -1.0465
  504MOL0     O67936   0.074   3.944   1.069 -0.0208 -0.0024 -1.2072
  504MOL0     C67937   0.119   3.909   0.947  0.7751  0.2968  0.6481
  504MOL0     C67938   0.138   4.005   0.844 -0.5584 -1.2002 -0.4148
  504MOL0     C67939   0.196   3.972   0.723 -0.3676 -0.0657 -0.0843
  504MOL0     C67940   0.208   3.832   0.682  0.4648 -0.5353  0.6562
  504MOL0     O67941   0.256   3.779   0.567 -0.7722  1.0568 -0.3641
  504MOL0     C67942   0.394   3.796   0.527  0.0329 -0.4088 -0.0992
  504MOL0     C67943   0.432   3.668   0.471 -0.5753 -0.1730 -0.6958
  504MOL0     C67944   0.584   3.652   0.423 -0.6762  0.4253 -0.0198
  504MOL0     C67945   0.641   3.526   0.497  0.1867 -1.0804  1.2823
  504MOL0     C67946   0.796   3.539   0.509  0.6975 -0.4058  0.3408
  504MOL0     C67947   0.843   3.451   0.626 -0.1227 -0.3413 -0.1098
  504MOL0     C67948   0.984   3.414   0.589  0.0817 -1.6101 -0.3283
  504MOL0     C67949   1.043   3.292   0.676  1.6600  0.7446 -0.0933
  504MOL0    Cl67950   1.047   3.338   0.839 -0.0794 -0.0735 -0.5663
  504MOL0     C67951   0.184   3.738   0.782  0.8387 -0.6626  1.0479
  504MOL0     C67952   0.127   3.773   0.908 -0.9884  0.6894 -0.5135
  504MOL0     O67953   0.268   4.045   1.131  0.3929 -0.2209  0.4070
  504MOL0     C67954   0.170   4.087   1.377  0.1022 -0.5834  0.8850
  504MOL0     C67955   0.129   4.140   1.511  0.3218 -0.8990  0.2587
  504MOL0     N67956  -0.341   3.779   1.712  0.2252 -0.5747 -0.4247
  504MOL0     N67957  -0.428   3.744   1.618 -0.2151  0.5022  0.2490
  504MOL0     C67958   0.033   3.089   1.756 -0.0228 -0.6320 -0.1149
  504MOL0     C67959   0.106   3.155   1.861  0.7460  0.5926  0.4053
  504MOL0     C67960   0.215   3.362   2.225 -0.4741 -0.1985 -1.1976
  504MOL0     C67961   0.241   3.328   2.360 -0.0651 -0.1376  0.3597
  504MOL0     C67962   0.322   3.396   2.444  0.1100  0.0299  0.6382
  504MOL0     C67963   0.378   3.512   2.394  0.8125 -0.0469 -0.2718
  504MOL0     O67964   0.463   3.591   2.464  0.9262  0.6251  0.2503
  504MOL0     C67965   0.518   3.549   2.583 -0.3122  0.6032  0.0207
  504MOL0     C67966   0.635   3.451   2.558 -0.6709  0.5952  0.2193
  504MOL0     C67967   0.747   3.435   2.667  1.1963  0.4223  0.9612
  504MOL0     C67968   0.856   3.334   2.636 -0.6352  0.1865 -0.6020
  504MOL0     C67969   0.815   3.197   2.689 -0.2513 -0.3023  0.0389
  504MOL0     C67970   0.780   3.093   2.743 -0.2468  0.7546  0.5350
  504MOL0     C67971   0.346   3.554   2.269 -0.4485  0.1474  0.7369
  504MOL0     C67972   0.268   3.483   2.181 -1.0464 -0.0720 -0.4915
  504MOL0     H67973  -0.109   3.400   1.929  1.2431 -0.6905  1.0982
  504MOL0     H67974  -0.230   3.283   1.702 -0.5488 -0.2673 -0.4134
  504MOL0     H67975  -0.047   2.937   1.546 -0.5975  0.3091 -2.5206
  504MOL0     H67976  -0.174   2.870   1.657 -3.6214  0.8504 -0.5293
  504MOL0     H67977  -0.200   2.831   1.404  1.4745  1.2393 -1.9668
  504MOL0     H67978  -0.338   2.893   1.486  0.4599 -0.3087  0.9541
  504MOL0     H67979  -0.118   3.008   1.300 -0.8874 -1.3536 -0.6446
  504MOL0     H67980  -0.285   2.986   1.261 -1.9938  2.8169  0.7973
  504MOL0     H67981  -0.185   3.230   1.407 -1.6554  0.8177 -0.5558
  504MOL0     H67982  -0.258   3.203   1.245 -3.4483  0.5888 -1.0131
  504MOL0     H67983  -0.463   3.131   1.319 -0.1541  0.3052  0.3847
  504MOL0     H67984  -0.421   3.142   1.489 -0.1501  0.4167  0.4461
  504MOL0     H67985  -0.452   3.357   1.281 -0.7253 -4.3666 -1.8978
  504MOL0     H67986  -0.554   3.334   1.422  0.9386  0.6620 -0.5403
  504MOL0     H67987  -0.393   3.413   1.577 -1.0359 -0.9829 -0.1257
  504MOL0     H67988  -0.270   3.414   1.446 -0.3043  1.8106 -3.3632
  504MOL0     H67989  -0.535   3.575   1.439 -0.7137  0.0036 -1.2728
  504MOL0     H67990  -0.382   3.580   1.331 -0.0291  0.0907  0.1038
  504MOL0     H67991  -0.151   3.582   1.541  1.6397 -0.2863  0.6875
  504MOL0     H67992  -0.085   3.772   1.866 -0.6106  1.7231 -0.2019
  504MOL0     H67993  -0.004   3.701   1.733 -0.4893  0.6069 -1.1389
  504MOL0     H67994  -0.035   3.895   1.590 -1.4294  0.9381  0.3222
  504MOL0     H67995   0.068   3.920   1.729  0.1159 -1.9649 -2.0418
  504MOL0     H67996  -0.176   3.988   1.836 -0.7768 -0.6169 -0.9304
  504MOL0     H67997  -0.208   4.013   1.670 -2.5270  2.1369  1.3545
  504MOL0     H67998   0.062   4.127   1.780  0.8495  2.1755  0.5464
  504MOL0     H67999  -0.075   4.196   1.850 -0.3817 -3.2620  1.6136
  504MOL0     H68000  -0.191   4.200   1.437 -0.3296 -1.5698  3.6339
  504MOL0     H68001  -0.104   4.186   1.087 -0.3588  0.4080  0.4564
  504MOL0     H68002  -0.179   4.034   1.145 -0.4943 -0.8498  1.0155
  504MOL0     H68003  -0.224   4.192   1.211  1.8552  1.2361  1.7013
  504MOL0     H68004   0.123   4.108   0.874 -2.2566 -0.7187 -2.6271
  504MOL0     H68005   0.220   4.049   0.649 -0.8899  1.9979  1.7714
  504MOL0     H68006   0.407   3.866   0.444  4.2724 -1.8827 -0.9574
  504MOL0     H68007   0.468   3.822   0.604 -0.0890  0.5607 -0.3051
  504MOL0     H68008   0.401   3.590   0.543  0.3113  1.3120  1.4023
  504MOL0     H68009   0.374   3.662   0.378 -0.0089  2.4150 -1.2822
  504MOL0     H68010   0.631   3.748   0.444 -1.2801  0.9075 -0.8050
  504MOL0     H68011   0.589   3.628   0.316  0.4497  0.1664  0.0878
  504MOL0     H68012   0.599   3.512   0.598  2.0720 -4.5014  1.7589
  504MOL0     H68013   0.617   3.431   0.448  4.1026 -2.1385  1.1023
  504MOL0     H68014   0.849   3.635   0.499  4.6225 -2.5072 -1.3117
  504MOL0     H68015   0.820   3.478   0.421 -0.8316 -0.4718 -0.0538
  504MOL0     H68016   0.825   3.500   0.722 -0.8946  2.5531 -1.6067
  504MOL0     H68017   0.789   3.356   0.631 -2.0770  0.6867 -0.6232
  504MOL0     H68018   1.047   3.501   0.612  0.0942 -1.0313 -2.3779
  504MOL0     H68019   0.996   3.392   0.482 -3.1773  0.6743 -1.3159
  504MOL0     H68020   1.139   3.273   0.626 -0.3334 -2.8511 -3.1207
  504MOL0     H68021   0.991   3.199   0.649  2.7250 -0.6332  2.2943
  504MOL0     H68022   0.225   3.638   0.773 -1.0630 -1.3006 -4.8399
  504MOL0     H68023   0.106   3.697   0.983  0.6796  0.9212  0.2399
  504MOL0     H68024   0.272   4.050   1.371  0.9306  1.4508  1.6570
  504MOL0     H68025   0.206   4.145   1.588  0.8114 -1.2529 -0.2034
  504MOL0     H68026   0.084   3.002   1.715 -2.4039 -2.9900  1.5908
  504MOL0     H68027   0.190   3.103   1.906  2.5220  3.4946  0.7587
  504MOL0     H68028   0.180   3.247   2.399 -1.9655  0.0799 -1.9061
  504MOL0     H68029   0.315   3.372   2.549 -1.3758 -1.6115  0.2316
  504MOL0     H68030   0.557   3.641   2.628 -1.1855  0.2113  1.6797
  504MOL0     H68031   0.452   3.505   2.659 -2.1659  1.2598 -1.1563
  504MOL0     H68032   0.688   3.470   2.465 -0.6940  0.5130  0.1890
  504MOL0     H68033   0.590   3.351   2.557  0.1366  0.2116  0.8567
  504MOL0     H68034   0.690   3.401   2.754  1.2334 -1.4761  0.2925
  504MOL0     H68035   0.781   3.536   2.691 -1.0217  0.8692  2.5424
  504MOL0     H68036   0.941   3.368   2.696 -0.1424  1.1961 -1.8366
  504MOL0     H68037   0.875   3.339   2.528 -0.5705 -0.3678 -0.6181
  504MOL0     H68038   0.748   2.993   2.767  1.7580  0.1168  0.7611
  504MOL0     H68039   0.382   3.651   2.236 -0.9071  0.0321 -0.1088
  504MOL0     H68040   0.240   3.522   2.084  2.1359  1.7302 -0.8420
  505MOL0     O68041   9.395  11.333   6.059 -0.3767 -0.6773 -0.5366
  505MOL0     C68042   9.404  11.287   6.173 -0.6466 -0.0104  0.3816
  505MOL0     O68043   9.301  11.268   6.254  0.1155 -0.1050 -0.4869
  505MOL0     C68044   9.175  11.314   6.230 -0.9715 -0.0796  0.4396
  505MOL0     C68045   9.152  11.433   6.157  0.2665  0.9575 -0.1294
  505MOL0     C68046   9.029  11.491   6.151  0.1695  0.9239  0.7745
  505MOL0     C68047   8.921  11.423   6.206 -0.2453  1.3049  0.0688
  505MOL0     O68048   8.790  11.466   6.172 -0.5312 -0.8021  0.1441
  505MOL0     C68049   8.681  11.476   6.272 -0.1405  0.1309 -0.7596
  505MOL0     C68050   8.556  11.396   6.223  0.0550  0.2422 -0.1722
  505MOL0     C68051   8.450  11.357   6.326 -0.4879 -0.5855 -0.4828
  505MOL0     C68052   8.410  11.483   6.420  1.0931  0.7716  0.2017
  505MOL0     C68053   8.285  11.447   6.515 -1.6922  0.0486 -0.4356
  505MOL0     C68054   8.207  11.564   6.575 -0.0856  0.0530 -0.0268
  505MOL0     C68055   8.080  11.506   6.651 -0.2686 -0.4480  0.8006
  505MOL0     C68056   7.999  11.609   6.733 -0.4107 -0.0840  0.9590
  505MOL0     N68057   7.895  11.670   6.648 -0.2332 -0.7199  0.3986
  505MOL0     C68058   7.760  11.671   6.642 -0.3419 -0.1058  0.3189
  505MOL0     C68059   7.720  11.732   6.535 -0.3829  0.2689  0.0208
  505MOL0     C68060   7.578  11.749   6.496 -0.8082  0.1304  0.0002
  505MOL0     C68061   7.550  11.825   6.361  0.7576  0.6965  0.4004
  505MOL0     C68062   7.397  11.848   6.342  0.7860 -0.5269 -0.0696
  505MOL0     C68063   7.308  11.739   6.383  0.8576  0.3913 -0.3263
  505MOL0     O68064   7.353  11.629   6.307  0.3991 -0.1117  0.2612
  505MOL0     C68065   7.282  11.510   6.329 -0.1444 -0.2059  0.1890
  505MOL0     C68066   7.334  11.390   6.280  0.4097 -0.2290 -0.8103
  505MOL0     C68067   7.268  11.268   6.294  0.6844 -0.1003  1.3262
  505MOL0     C68068   7.348  11.152   6.241  0.0839  0.0671  0.6039
  505MOL0     C68069   7.140  11.267   6.334 -0.0622  0.0771  0.2545
  505MOL0     C68070   7.063  11.137   6.363  0.1597 -0.4349 -0.5357
  505MOL0     O68071   7.113  11.012   6.360  0.5974  0.8145 -0.5224
  505MOL0     C68072   7.016  10.916   6.368 -0.8698  0.7387 -0.5123
  505MOL0     C68073   6.991  10.865   6.494 -0.0339 -0.1687  1.0233
  505MOL0     C68074   6.909  10.754   6.507 -1.5119 -0.1087  0.8428
  505MOL0     C68075   6.832  10.709   6.396  0.2570  0.6659  0.3078
  505MOL0     O68076   6.731  10.605   6.404 -0.1535 -0.3076 -0.1498
  505MOL0     C68077   6.688  10.545   6.527 -0.6984 -0.7298 -0.8368
  505MOL0     C68078   6.626  10.641   6.638  0.3196 -0.0263 -0.2687
  505MOL0     C68079   6.612  10.569   6.776  0.0637 -0.5977  0.5776
  505MOL0     C68080   6.559  10.661   6.883  0.4059  0.2221 -0.7787
  505MOL0     C68081   6.494  10.603   7.009 -0.0290  0.3007  0.2332
  505MOL0     C68082   6.426  10.715   7.099 -0.0910  0.1217 -0.1756
  505MOL0     C68083   6.377  10.654   7.229 -0.3380  0.2485  0.4211
  505MOL0     C68084   6.382  10.747   7.343 -0.6492  0.5339 -0.1592
  505MOL0    Cl68085   6.264  10.876   7.302  0.3923  0.5170 -0.2579
  505MOL0     C68086   6.846  10.775   6.274  0.0051 -0.5223 -0.5149
  505MOL0     C68087   6.945  10.873   6.257 -0.0440 -0.7576  0.5769
  505MOL0     O68088   6.942  11.160   6.391 -0.7311 -0.9280  0.5160
  505MOL0     C68089   7.090  11.383   6.392 -0.1251  0.1340 -0.4724
  505MOL0     C68090   7.156  11.503   6.386 -0.9525  0.7344 -0.0215
  505MOL0     N68091   7.825  11.801   6.484 -0.7319 -0.7958 -0.0680
  505MOL0     N68092   7.929  11.748   6.541 -0.5946  0.8142 -0.5754
  505MOL0     C68093   8.938  11.304   6.281 -0.2024  0.5318  0.3489
  505MOL0     C68094   9.067  11.244   6.286 -0.5121  0.6712  0.4143
  505MOL0     C68095   9.530  11.235   6.208 -0.1555 -0.2144 -0.9353
  505MOL0     C68096   9.648  11.299   6.171  0.5273 -1.7557 -0.1633
  505MOL0     C68097   9.773  11.252   6.219  0.1959  0.2562  0.7963
  505MOL0     C68098   9.768  11.146   6.315 -0.2637  0.1820 -0.4949
  505MOL0     O68099   9.877  11.113   6.386 -0.2153 -0.7533 -1.2529
  505MOL0     C68100   9.890  11.188   6.503 -0.2698  0.3368  0.3596
  505MOL0     C68101   9.921  11.071   6.602  0.3371 -0.7875 -0.6645
  505MOL0     C68102   9.986  11.134   6.729  0.8829 -0.3517  1.0075
  505MOL0     C68103  10.017  11.008   6.824  0.3319  0.5644 -0.9018
  505MOL0     C68104  10.102  11.048   6.937  1.1691 -0.7173 -0.0788
  505MOL0     C68105  10.182  11.090   7.021 -0.0523  0.8939  1.0895
  505MOL0     C68106   9.659  11.066   6.333 -0.0774  0.0871 -0.1816
  505MOL0     C68107   9.539  11.115   6.285 -0.3634  0.7379  0.3419
  505MOL0     H68108   9.241  11.487   6.125 -0.2320  0.8289 -1.8529
  505MOL0     H68109   9.009  11.580   6.093 -1.6877  0.0466 -0.0474
  505MOL0     H68110   8.719  11.442   6.369 -2.7320  1.1786  0.7152
  505MOL0     H68111   8.651  11.581   6.284 -3.8554 -0.8289 -0.5003
  505MOL0     H68112   8.512  11.461   6.146 -1.1812  0.0515  0.3441
  505MOL0     H68113   8.585  11.303   6.173  0.3381  0.7962 -1.0761
  505MOL0     H68114   8.359  11.320   6.277 -0.9490 -0.6630  0.4072
  505MOL0     H68115   8.493  11.282   6.393 -0.5674 -0.7856 -0.6513
  505MOL0     H68116   8.486  11.517   6.491  0.1714  1.2876  0.9710
  505MOL0     H68117   8.398  11.560   6.343  1.3815  0.7696  0.1568
  505MOL0     H68118   8.221  11.386   6.450 -1.3914  1.7738 -2.4642
  505MOL0     H68119   8.316  11.379   6.595  0.6685 -0.0981 -1.4087
  505MOL0     H68120   8.275  11.613   6.645 -0.6025  0.2968  0.3136
  505MOL0     H68121   8.175  11.630   6.495 -2.2611 -1.5772 -0.5794
  505MOL0     H68122   8.013  11.469   6.573  0.2808  0.3137 -0.0544
  505MOL0     H68123   8.092  11.415   6.710 -5.9573 -2.6794 -0.8543
  505MOL0     H68124   8.059  11.694   6.768  0.4973  0.0561 -0.8462
  505MOL0     H68125   7.951  11.566   6.821 -1.1658 -0.3880  0.4094
  505MOL0     H68126   7.688  11.619   6.704 -0.9778  1.7914  1.2280
  505MOL0     H68127   7.534  11.649   6.504  0.5891 -0.3525  3.4854
  505MOL0     H68128   7.527  11.804   6.576  0.6077 -0.8517  1.6625
  505MOL0     H68129   7.579  11.756   6.281  2.6174 -2.2440  3.3452
  505MOL0     H68130   7.602  11.921   6.366  1.7398  0.1413  1.3581
  505MOL0     H68131   7.372  11.864   6.237  0.1870 -2.3452 -0.2373
  505MOL0     H68132   7.375  11.945   6.386  4.0082  0.5580 -0.5817
  505MOL0     H68133   7.205  11.765   6.360  0.8084  1.2790  0.8207
  505MOL0     H68134   7.296  11.718   6.490 -1.4480 -2.1095 -0.9713
  505MOL0     H68135   7.441  11.393   6.263  1.9253 -1.4299  5.6079
  505MOL0     H68136   7.330  11.058   6.293 -1.8603  0.0366 -0.0348
  505MOL0     H68137   7.324  11.121   6.139  0.6720  0.2961  0.3945
  505MOL0     H68138   7.454  11.172   6.258  0.2111  1.1323 -1.2447
  505MOL0     H68139   7.037  10.911   6.581  3.3396 -0.8902 -0.1991
  505MOL0     H68140   6.903  10.702   6.601 -2.7828  0.6422  1.2022
  505MOL0     H68141   6.605  10.480   6.496 -0.0707 -1.0363 -1.9339
  505MOL0     H68142   6.762  10.473   6.561 -0.7048 -1.1201 -1.6137
  505MOL0     H68143   6.700  10.721   6.649  0.5312  0.0458 -2.0662
  505MOL0     H68144   6.533  10.686   6.603 -1.1754 -3.5672 -1.2269
  505MOL0     H68145   6.712  10.540   6.807  1.2403 -0.8782 -3.0295
  505MOL0     H68146   6.539  10.487   6.771 -1.3232  0.6509 -0.9137
  505MOL0     H68147   6.649  10.712   6.919  0.4654  0.1152 -0.7781
  505MOL0     H68148   6.488  10.737   6.848 -0.3247  0.6627  1.4400
  505MOL0     H68149   6.562  10.552   7.076 -1.8509 -1.0587  1.1345
  505MOL0     H68150   6.417  10.528   6.986  0.8212 -1.2185  2.0935
  505MOL0     H68151   6.492  10.801   7.119  0.4022 -0.3846  0.3935
  505MOL0     H68152   6.341  10.765   7.052 -0.9494 -0.4194  0.7640
  505MOL0     H68153   6.436  10.566   7.255  0.1545 -0.2284 -2.0452
  505MOL0     H68154   6.272  10.629   7.210 -0.7952  2.0258  0.4845
  505MOL0     H68155   6.487  10.778   7.352 -0.2047 -0.7687 -0.5602
  505MOL0     H68156   6.347  10.700   7.435  1.3592  0.1276  0.4420
  505MOL0     H68157   6.786  10.755   6.186  0.2025  2.3151 -1.3977
  505MOL0     H68158   6.966  10.908   6.157  1.3572 -2.2737  0.3078
  505MOL0     H68159   6.996  11.392   6.445 -0.6279  1.6148 -1.5552
  505MOL0     H68160   7.107  11.589   6.430 -0.3718  1.1739 -0.2260
  505MOL0     H68161   8.847  11.253   6.313 -0.9100 -0.9285 -3.5127
  505MOL0     H68162   9.082  11.161   6.354  2.2820  0.4637 -0.3152
  505MOL0     H68163   9.641  11.389   6.110  0.3013 -0.0804  2.2005
  505MOL0     H68164   9.868  11.304   6.207  0.2398  0.1213  0.5595
  505MOL0     H68165   9.979  11.252   6.499 -0.4801  1.0671  3.8912
  505MOL0     H68166   9.804  11.243   6.540 -1.4103 -1.0014 -0.2218
  505MOL0     H68167   9.980  10.991   6.557  0.2740 -1.1728 -0.0698
  505MOL0     H68168   9.823  11.029   6.627 -1.5975  3.3870 -0.4157
  505MOL0     H68169   9.913  11.202   6.774  0.4484  0.8460 -1.3555
  505MOL0     H68170  10.074  11.184   6.689 -0.5169 -1.5116 -4.2219
  505MOL0     H68171  10.063  10.922   6.776 -2.3021 -1.4495 -0.1002
  505MOL0     H68172   9.922  10.975   6.869  1.6110 -2.0907  0.0575
  505MOL0     H68173  10.264  11.120   7.083 -0.8686  1.2158  2.0398
  505MOL0     H68174   9.654  10.991   6.411 -3.0122  0.7199  0.3852
  505MOL0     H68175   9.454  11.062   6.326  0.6390 -0.6372  0.7194
  506MOL0     O68176   3.736  11.162   7.476 -0.3664 -0.5314 -0.0558
  506MOL0     C68177   3.787  11.087   7.561 -0.1204 -0.0619  1.5023
  506MOL0     O68178   3.874  11.129   7.652 -0.2188 -0.0543  0.0052
  506MOL0     C68179   3.887  11.267   7.680  0.1149  0.3121 -0.3611
  506MOL0     C68180   3.784  11.333   7.750  0.5529  0.1496  0.0173
  506MOL0     C68181   3.795  11.465   7.782 -0.0767  0.3292 -0.5730
  506MOL0     C68182   3.908  11.536   7.776 -0.9537  0.1325 -0.2818
  506MOL0     O68183   3.913  11.668   7.819  0.4559 -0.6817  0.3220
  506MOL0     C68184   3.958  11.755   7.713  0.2207 -0.3918  0.2505
  506MOL0     C68185   3.940  11.899   7.733  0.1438 -0.2136 -0.8641
  506MOL0     C68186   3.792  11.951   7.763 -0.7832  0.2999  0.1272
  506MOL0     C68187   3.686  11.914   7.657  0.0834  1.2403  0.4934
  506MOL0     C68188   3.567  12.009   7.676  0.3953  0.4762  0.5469
  506MOL0     C68189   3.479  11.984   7.794 -0.0858 -0.5073 -0.5999
  506MOL0     C68190   3.379  12.105   7.821 -0.4515  0.7487 -0.0665
  506MOL0     C68191   3.282  12.136   7.715  0.1869  0.1063 -0.4668
  506MOL0     N68192   3.201  12.015   7.677  0.0656  0.1857  0.7520
  506MOL0     C68193   3.104  11.954   7.761 -0.8279 -0.2676 -0.3629
  506MOL0     C68194   3.080  11.841   7.692  0.1149 -0.2906 -0.3985
  506MOL0     C68195   2.985  11.729   7.738  0.4132 -0.0025  0.3913
  506MOL0     C68196   2.838  11.773   7.762  0.6068 -0.7397 -0.2784
  506MOL0     C68197   2.753  11.665   7.833  0.2907 -0.8732 -0.2315
  506MOL0     C68198   2.735  11.532   7.753  0.1078 -0.4100 -0.0123
  506MOL0     O68199   2.628  11.453   7.811  1.5241  0.0381 -0.1167
  506MOL0     C68200   2.650  11.420   7.939 -0.6947  0.8166  0.2249
  506MOL0     C68201   2.761  11.349   7.979 -0.1449  0.3461  0.2612
  506MOL0     C68202   2.791  11.304   8.112  0.2449 -0.4293  0.7151
  506MOL0     C68203   2.921  11.220   8.123  0.6915 -0.3667  0.1133
  506MOL0     C68204   2.696  11.334   8.218  0.5803 -1.2809 -0.3973
  506MOL0     C68205   2.717  11.310   8.361  0.1643  0.2274 -0.8901
  506MOL0     O68206   2.638  11.381   8.440 -0.0690 -0.6872 -0.3613
  506MOL0     C68207   2.655  11.350   8.568 -0.0929 -0.2210 -0.5339
  506MOL0     C68208   2.709  11.451   8.649 -0.0281  0.1421  0.0171
  506MOL0     C68209   2.712  11.419   8.794  0.0953  1.3555  0.7338
  506MOL0     C68210   2.661  11.294   8.848 -0.3002  0.6173  0.2273
  506MOL0     O68211   2.680  11.274   8.980 -0.1269 -0.3161 -1.0502
  506MOL0     C68212   2.619  11.160   9.034  0.0389  0.3701 -0.5593
  506MOL0     C68213   2.635  11.173   9.193  1.0294 -0.1367 -0.1432
  506MOL0     C68214   2.521  11.230   9.274 -0.1160  1.3725 -0.0735
  506MOL0     C68215   2.403  11.137   9.293 -0.2926 -0.2061 -0.4406
  506MOL0     C68216   2.269  11.208   9.283  0.6303  0.3178  0.8550
  506MOL0     C68217   2.235  11.249   9.140  0.6410  0.0343 -0.3527
  506MOL0     C68218   2.189  11.392   9.120  0.2041 -0.5301  1.2828
  506MOL0     C68219   2.115  11.402   8.980 -0.8663 -0.6690 -0.0897
  506MOL0    Cl68220   2.030  11.576   8.967 -0.1035 -0.1349  0.3629
  506MOL0     C68221   2.618  11.197   8.758  0.3706  0.7952 -0.6725
  506MOL0     C68222   2.605  11.227   8.623  0.5677 -0.8424  0.1102
  506MOL0     O68223   2.802  11.233   8.394  0.3508  0.3095 -0.4118
  506MOL0     C68224   2.581  11.406   8.169  0.9494  0.9644  0.7763
  506MOL0     C68225   2.556  11.439   8.039 -0.7673 -0.0019 -0.4229
  506MOL0     N68226   3.163  11.826   7.582  0.1080 -0.1130  1.1763
  506MOL0     N68227   3.234  11.930   7.571  0.0357  0.5578  0.4358
  506MOL0     C68228   4.020  11.470   7.723  1.1047  0.5326 -0.1103
  506MOL0     C68229   4.010  11.332   7.666  0.1319  0.5050 -0.8691
  506MOL0     C68230   3.756  10.936   7.558 -0.3434 -1.2752 -0.6686
  506MOL0     C68231   3.799  10.856   7.667 -0.4845  0.8156  0.5977
  506MOL0     C68232   3.771  10.714   7.666 -0.5988 -0.1576 -0.3857
  506MOL0     C68233   3.705  10.657   7.558  0.5791 -0.8960  0.0683
  506MOL0     O68234   3.674  10.528   7.551  0.5669 -0.0737  0.7204
  506MOL0     C68235   3.738  10.433   7.642 -0.6785 -0.8922 -0.1870
  506MOL0     C68236   3.693  10.282   7.640  0.5736 -0.3829  0.2396
  506MOL0     C68237   3.782  10.190   7.724  0.5194 -0.7949  0.0662
  506MOL0     C68238   3.787  10.048   7.660  1.2069  0.0059 -1.3661
  506MOL0     C68239   3.886  10.068   7.554 -0.1125  0.8289  0.4523
  506MOL0     C68240   3.957  10.087   7.458 -0.0319  0.2168  0.0358
  506MOL0     C68241   3.653  10.741   7.462  0.3541 -0.3885  0.8048
  506MOL0     C68242   3.675  10.889   7.463 -0.3588 -0.5172  0.7973
  506MOL0     H68243   3.698  11.274   7.780 -1.7340  3.7078  1.1145
  506MOL0     H68244   3.709  11.516   7.823  0.5314  2.9517 -2.3521
  506MOL0     H68245   4.064  11.736   7.695  0.4276 -0.7180  1.7086
  506MOL0     H68246   3.895  11.735   7.625 -2.5746  0.8007  1.8530
  506MOL0     H68247   4.004  11.919   7.819  1.6995 -0.2540 -1.9615
  506MOL0     H68248   3.979  11.955   7.647  1.6926  0.8487  0.4644
  506MOL0     H68249   3.750  11.899   7.849 -0.9148 -2.2885 -1.3771
  506MOL0     H68250   3.788  12.059   7.779  1.3164  0.7350 -1.7053
  506MOL0     H68251   3.715  11.932   7.553 -1.3287 -1.9041 -0.5469
  506MOL0     H68252   3.657  11.809   7.668 -0.3164  1.1085 -1.5161
  506MOL0     H68253   3.596  12.114   7.680 -2.1012  1.1648  1.8981
  506MOL0     H68254   3.503  12.002   7.587 -1.0380  1.4848  1.4594
  506MOL0     H68255   3.421  11.892   7.800  1.6586 -1.5516  1.7564
  506MOL0     H68256   3.538  11.988   7.886 -0.5069  2.0935 -0.3674
  506MOL0     H68257   3.320  12.085   7.910 -0.8256  0.3828 -0.3912
  506MOL0     H68258   3.436  12.198   7.830 -1.6072  1.4345  0.2947
  506MOL0     H68259   3.330  12.175   7.624 -0.5159  0.7664 -0.5581
  506MOL0     H68260   3.221  12.220   7.749  0.4922  1.0253 -2.0612
  506MOL0     H68261   3.062  11.992   7.854 -0.6553 -0.3066 -0.2675
  506MOL0     H68262   2.996  11.655   7.659  1.2087 -2.4274  2.6053
  506MOL0     H68263   3.032  11.681   7.826 -1.6504 -1.2878  0.8654
  506MOL0     H68264   2.787  11.801   7.670 -0.4695  2.4072  1.1533
  506MOL0     H68265   2.839  11.868   7.816 -0.2232 -1.3840  0.9162
  506MOL0     H68266   2.656  11.707   7.860 -0.6103 -2.7224 -0.4015
  506MOL0     H68267   2.795  11.636   7.930 -0.8850  1.3706  1.0224
  506MOL0     H68268   2.824  11.471   7.734  2.0433  2.3350 -0.4213
  506MOL0     H68269   2.703  11.561   7.652 -0.0784 -1.7182 -0.3434
  506MOL0     H68270   2.838  11.346   7.903 -1.4070  3.0786 -1.2555
  506MOL0     H68271   2.998  11.292   8.154  0.6667 -0.7703  1.1478
  506MOL0     H68272   2.901  11.144   8.199 -1.1339  1.7753  1.9396
  506MOL0     H68273   2.955  11.168   8.033 -0.3674 -4.2158  1.7689
  506MOL0     H68274   2.736  11.545   8.603 -0.0609 -0.4003 -1.1336
  506MOL0     H68275   2.730  11.500   8.864 -2.1056  2.6190 -0.0762
  506MOL0     H68276   2.513  11.151   9.009 -0.0297 -1.3832  0.1891
  506MOL0     H68277   2.664  11.064   9.007  1.5676  0.7988  0.3436
  506MOL0     H68278   2.634  11.068   9.223  2.7686 -0.1976 -0.2038
  506MOL0     H68279   2.727  11.224   9.225  1.0935  0.5783 -1.4067
  506MOL0     H68280   2.484  11.322   9.228 -1.1351  1.0677  0.1134
  506MOL0     H68281   2.556  11.245   9.376 -0.1420  1.9987 -0.1548
  506MOL0     H68282   2.405  11.051   9.226 -0.2594  0.8142 -1.7847
  506MOL0     H68283   2.399  11.102   9.397 -2.7462 -0.3024 -0.5039
  506MOL0     H68284   2.280  11.294   9.350 -1.7206  1.8959 -0.6527
  506MOL0     H68285   2.202  11.143   9.340  2.1774 -1.3199  0.9092
  506MOL0     H68286   2.326  11.244   9.079 -0.2505  1.1674 -1.8515
  506MOL0     H68287   2.168  11.173   9.098 -1.0158  2.7422 -2.9711
  506MOL0     H68288   2.269  11.466   9.118  0.7222 -1.1028 -0.9646
  506MOL0     H68289   2.116  11.423   9.196 -0.1426  3.0668 -0.2979
  506MOL0     H68290   2.038  11.325   8.980 -0.9755 -0.5595  0.0642
  506MOL0     H68291   2.184  11.379   8.897  0.2547 -2.3021  1.2141
  506MOL0     H68292   2.595  11.095   8.787  1.2335  0.7637 -0.0548
  506MOL0     H68293   2.560  11.156   8.554 -1.2374  1.1631 -0.9134
  506MOL0     H68294   2.501  11.440   8.234 -0.6379  0.3712 -0.7909
  506MOL0     H68295   2.465  11.497   8.024 -0.0150  1.8273  1.5271
  506MOL0     H68296   4.112  11.525   7.706  0.5909  2.3877  2.4362
  506MOL0     H68297   4.101  11.290   7.625  0.6183  0.1415  0.5543
  506MOL0     H68298   3.845  10.911   7.748 -3.1143  0.6356  2.3171
  506MOL0     H68299   3.799  10.659   7.755  1.3865 -1.0652 -1.4835
  506MOL0     H68300   3.844  10.438   7.617 -0.6961  3.9566 -0.2151
  506MOL0     H68301   3.726  10.471   7.743  0.3001 -0.6857 -0.1364
  506MOL0     H68302   3.695  10.245   7.537  2.5826  0.0537  0.0803
  506MOL0     H68303   3.589  10.280   7.674  0.7255  2.1482  1.1085
  506MOL0     H68304   3.737  10.185   7.823  1.2469  2.9333  0.7436
  506MOL0     H68305   3.885  10.223   7.737  0.9473 -1.6225 -0.9905
  506MOL0     H68306   3.684  10.027   7.630 -0.0050  3.0543  0.2136
  506MOL0     H68307   3.796   9.971   7.738 -3.2197  0.4520 -0.1365
  506MOL0     H68308   4.033  10.106   7.385  1.4181 -1.7832  0.9199
  506MOL0     H68309   3.595  10.712   7.375  0.6567 -2.1024  1.1371
  506MOL0     H68310   3.647  10.954   7.380  1.2865 -1.9212 -0.9627
  507MOL0     O68311   4.156   2.511   1.332  0.4040 -0.5976 -0.2659
  507MOL0     C68312   4.126   2.414   1.403  0.7426  0.6296 -0.9169
  507MOL0     O68313   4.081   2.297   1.366  0.4115  0.8367 -0.6165
  507MOL0     C68314   4.069   2.286   1.228  0.6472 -0.6044 -0.7643
  507MOL0     C68315   4.186   2.296   1.143 -0.5464  0.3210  0.0671
  507MOL0     C68316   4.170   2.287   1.004 -0.4019 -0.4559  0.2678
  507MOL0     C68317   4.046   2.268   0.945  1.1570 -0.8439  1.6043
  507MOL0     O68318   4.018   2.245   0.805  0.5047  0.2321 -0.5153
  507MOL0     C68319   4.101   2.309   0.713  0.0078  0.2534  0.0861
  507MOL0     C68320   4.152   2.218   0.607 -0.0396 -0.3367 -0.1223
  507MOL0     C68321   4.201   2.297   0.484  0.1672  0.6718  0.7002
  507MOL0     C68322   4.223   2.223   0.350 -0.2540 -0.5334  0.0427
  507MOL0     C68323   4.204   2.331   0.234  0.3023 -0.3695  0.6814
  507MOL0     C68324   4.205   2.261   0.098 -0.2487 -0.1083 -0.7816
  507MOL0     C68325   4.342   2.260   0.023  1.1737 -0.0652  0.0276
  507MOL0     C68326   4.320   2.229  -0.125  0.4556 -0.5475 -0.3382
  507MOL0     N68327   4.454   2.252  -0.188  0.2863 -0.1109 -0.7923
  507MOL0     C68328   4.481   2.348  -0.280  0.0996 -0.4890  0.0601
  507MOL0     C68329   4.603   2.307  -0.326  0.1482  0.3220 -0.8380
  507MOL0     C68330   4.689   2.385  -0.422  0.1195  0.0543  1.2946
  507MOL0     C68331   4.734   2.516  -0.355 -0.5087  0.3475  0.5740
  507MOL0     C68332   4.823   2.620  -0.417  0.3700  0.0928  0.2914
  507MOL0     C68333   4.966   2.566  -0.465  0.1989  0.2424 -0.4362
  507MOL0     O68334   4.951   2.472  -0.570 -0.6934  0.6652  0.4635
  507MOL0     C68335   5.060   2.418  -0.639 -0.9644  0.4035  0.4311
  507MOL0     C68336   5.198   2.444  -0.617  0.1605  0.1409  0.1174
  507MOL0     C68337   5.300   2.380  -0.680 -0.4555 -0.0634  0.5449
  507MOL0     C68338   5.439   2.411  -0.629 -0.7311  0.3718 -0.8773
  507MOL0     C68339   5.280   2.279  -0.776  1.1575 -0.3193  0.0881
  507MOL0     C68340   5.378   2.195  -0.845  0.3958  0.2730 -0.0898
  507MOL0     O68341   5.331   2.094  -0.924  0.3371 -0.7836  0.3356
  507MOL0     C68342   5.398   1.973  -0.940 -0.8126  0.1629 -0.6901
  507MOL0     C68343   5.374   1.895  -1.059 -0.1658  0.4750  0.8350
  507MOL0     C68344   5.435   1.766  -1.087 -0.0870  0.1194 -0.3799
  507MOL0     C68345   5.517   1.708  -0.989 -0.2854 -0.0559  0.2739
  507MOL0     O68346   5.600   1.600  -1.011  0.5915  0.4664 -0.3979
  507MOL0     C68347   5.618   1.525  -1.126  0.7741  0.3742 -0.0841
  507MOL0     C68348   5.637   1.373  -1.092 -0.9545 -0.2330  0.1762
  507MOL0     C68349   5.772   1.356  -1.033  0.6311  0.3938 -0.0299
  507MOL0     C68350   5.792   1.360  -0.877 -0.5489 -0.4501 -0.4986
  507MOL0     C68351   5.944   1.351  -0.831  1.0084  0.1097  0.6865
  507MOL0     C68352   5.955   1.357  -0.676  0.1450 -0.2694 -0.0137
  507MOL0     C68353   6.110   1.363  -0.647 -0.4313 -0.7389 -0.6253
  507MOL0     C68354   6.169   1.242  -0.573  0.1871 -0.2329  0.1015
  507MOL0    Cl68355   6.338   1.292  -0.535  0.3408  0.7109 -0.1547
  507MOL0     C68356   5.530   1.776  -0.871  0.2326 -0.1687 -0.1770
  507MOL0     C68357   5.480   1.904  -0.841 -0.4386  1.0560  0.6701
  507MOL0     O68358   5.495   2.221  -0.833  0.0576 -0.6863 -0.0476
  507MOL0     C68359   5.142   2.266  -0.809 -0.0950  0.9611  1.1472
  507MOL0     C68360   5.038   2.323  -0.741  0.0680  0.2096 -0.7432
  507MOL0     N68361   4.654   2.198  -0.262  0.1099  1.4150  0.0355
  507MOL0     N68362   4.555   2.158  -0.182 -0.8886  0.7135 -0.5214
  507MOL0     C68363   3.933   2.247   1.034 -0.5125  0.5742 -0.0604
  507MOL0     C68364   3.942   2.259   1.176  0.8143  0.1353  0.7433
  507MOL0     C68365   4.164   2.425   1.545  0.5919 -0.3462  0.1652
  507MOL0     C68366   4.142   2.326   1.642  0.5725  0.4734 -0.1884
  507MOL0     C68367   4.182   2.338   1.773  0.0496 -1.1705  0.0057
  507MOL0     C68368   4.245   2.460   1.818  0.0735  0.0496  0.0636
  507MOL0     O68369   4.264   2.482   1.955 -0.8667 -0.3617  0.7757
  507MOL0     C68370   4.366   2.578   1.997  0.2074  0.4235 -0.3956
  507MOL0     C68371   4.430   2.533   2.134 -0.0715 -0.3727 -0.0692
  507MOL0     C68372   4.561   2.612   2.160  0.0461 -0.1128  0.0869
  507MOL0     C68373   4.620   2.564   2.287 -0.2467 -0.8237 -0.9822
  507MOL0     C68374   4.744   2.640   2.312 -0.6230  0.1819  0.4389
  507MOL0     C68375   4.859   2.692   2.332 -0.0190 -0.3583 -0.6018
  507MOL0     C68376   4.259   2.559   1.724 -0.3947 -0.8702  0.3704
  507MOL0     C68377   4.239   2.536   1.583 -0.4225  0.1054 -0.0738
  507MOL0     H68378   4.283   2.313   1.188  0.6127  0.9360 -2.5039
  507MOL0     H68379   4.260   2.271   0.946 -1.4372 -1.8578 -1.0545
  507MOL0     H68380   4.032   2.385   0.675 -1.5053 -1.1495 -0.0870
  507MOL0     H68381   4.183   2.371   0.749 -2.3857  3.8138 -0.1858
  507MOL0     H68382   4.229   2.151   0.647  0.9776  1.3865  0.9450
  507MOL0     H68383   4.080   2.144   0.571  0.0559 -1.6970  2.2119
  507MOL0     H68384   4.125   2.371   0.460  1.0067  0.8815 -1.5464
  507MOL0     H68385   4.301   2.329   0.515  0.3954 -2.1551  3.4187
  507MOL0     H68386   4.320   2.172   0.347  0.7902  1.4078 -1.4800
  507MOL0     H68387   4.145   2.149   0.331 -1.9632  1.6440 -2.0515
  507MOL0     H68388   4.102   2.370   0.243  0.7035  0.9920 -0.3622
  507MOL0     H68389   4.278   2.411   0.233  0.5519 -0.5957 -0.4605
  507MOL0     H68390   4.157   2.163   0.113  0.2147 -0.1403  0.5945
  507MOL0     H68391   4.131   2.314   0.038 -1.3472  1.1747  1.5552
  507MOL0     H68392   4.375   2.364   0.019 -2.3395  1.2078  0.3886
  507MOL0     H68393   4.419   2.212   0.084 -1.8851 -1.6184  2.9878
  507MOL0     H68394   4.250   2.295  -0.179  1.0997 -0.0458 -0.5690
  507MOL0     H68395   4.276   2.129  -0.135 -2.5055  0.4246  1.5160
  507MOL0     H68396   4.426   2.437  -0.311 -0.6186 -0.1704  2.0784
  507MOL0     H68397   4.774   2.329  -0.462 -0.5277 -1.1734  1.5847
  507MOL0     H68398   4.627   2.409  -0.510  0.1009  0.4017  1.4002
  507MOL0     H68399   4.781   2.484  -0.261 -1.3802  0.2990  1.0153
  507MOL0     H68400   4.643   2.568  -0.323  1.2125  2.4333  2.4073
  507MOL0     H68401   4.842   2.698  -0.343  3.2434 -1.3576  1.2591
  507MOL0     H68402   4.765   2.647  -0.506  1.5037  1.0918 -0.1758
  507MOL0     H68403   5.029   2.521  -0.387 -0.4687  0.1791  0.0746
  507MOL0     H68404   5.025   2.653  -0.495  0.0961  0.8498  1.0128
  507MOL0     H68405   5.230   2.514  -0.541  2.2916 -3.2574  2.6414
  507MOL0     H68406   5.438   2.472  -0.538  1.4474 -2.0846  0.9520
  507MOL0     H68407   5.486   2.320  -0.591 -0.4924  1.0484  0.5238
  507MOL0     H68408   5.490   2.458  -0.713 -0.2498 -0.5835 -1.1249
  507MOL0     H68409   5.309   1.930  -1.138 -2.4078 -2.8399  0.9932
  507MOL0     H68410   5.420   1.702  -1.174 -2.8715  0.9831 -0.6346
  507MOL0     H68411   5.536   1.548  -1.195  3.2232  0.5127 -3.1693
  507MOL0     H68412   5.712   1.567  -1.164  0.4842  0.9954 -0.1274
  507MOL0     H68413   5.567   1.332  -1.018  0.3656  1.2035  2.3217
  507MOL0     H68414   5.634   1.307  -1.179  1.4396  0.6821 -0.6836
  507MOL0     H68415   5.846   1.426  -1.076  1.6400 -1.8396 -2.1974
  507MOL0     H68416   5.800   1.259  -1.074 -1.6048 -0.9798  1.5319
  507MOL0     H68417   5.752   1.442  -0.818  1.5869 -0.9335  1.7903
  507MOL0     H68418   5.736   1.274  -0.841  0.2942 -1.6891 -1.9830
  507MOL0     H68419   5.983   1.444  -0.872 -1.2667  2.3471  3.2218
  507MOL0     H68420   5.982   1.259  -0.877  1.4590  0.2207  0.8340
  507MOL0     H68421   5.905   1.450  -0.647 -0.4281  0.1692 -2.2082
  507MOL0     H68422   5.918   1.267  -0.626 -1.5746  0.3284 -0.1605
  507MOL0     H68423   6.124   1.454  -0.588 -5.1011 -1.0605  1.4558
  507MOL0     H68424   6.178   1.391  -0.728 -0.8702 -0.4043 -0.8840
  507MOL0     H68425   6.165   1.152  -0.635 -0.8072  0.4469 -0.8699
  507MOL0     H68426   6.115   1.228  -0.479 -0.4450  4.6771  0.7471
  507MOL0     H68427   5.595   1.730  -0.797  2.1245  1.5655 -0.6481
  507MOL0     H68428   5.518   1.962  -0.757 -0.2059  1.3054  0.3929
  507MOL0     H68429   5.113   2.191  -0.881  1.0749  1.0258  0.5887
  507MOL0     H68430   4.936   2.293  -0.763 -0.1437  0.3677 -0.0044
  507MOL0     H68431   3.846   2.207   0.983 -0.1729  1.5951 -1.5175
  507MOL0     H68432   3.853   2.254   1.237 -0.0290  0.0931 -0.4489
  507MOL0     H68433   4.087   2.237   1.614  2.2940 -1.3767  1.9247
  507MOL0     H68434   4.165   2.261   1.847  2.4465 -0.8185  1.0159
  507MOL0     H68435   4.445   2.581   1.921  2.0285  3.3330  1.3884
  507MOL0     H68436   4.341   2.684   2.009  1.4548  0.6221  0.6456
  507MOL0     H68437   4.451   2.426   2.133  0.8746 -0.2655  2.3457
  507MOL0     H68438   4.351   2.546   2.209 -0.5096 -0.2582 -0.5382
  507MOL0     H68439   4.523   2.715   2.166  0.7433  0.1805 -0.3903
  507MOL0     H68440   4.626   2.591   2.074  0.6871 -2.8028  1.1422
  507MOL0     H68441   4.649   2.458   2.282 -0.7428 -0.9979 -0.3283
  507MOL0     H68442   4.551   2.587   2.369  3.5955  1.6747  1.8811
  507MOL0     H68443   4.956   2.714   2.374  0.2318 -0.1935 -1.2508
  507MOL0     H68444   4.298   2.658   1.746  0.3293 -1.0500 -0.0678
  507MOL0     H68445   4.264   2.611   1.509  0.1022 -1.1162 -1.1752
  508MOL0     O68446   4.296   0.977   6.097  0.6349 -0.8166  0.7131
  508MOL0     C68447   4.371   1.037   6.174 -0.2881  1.2836  0.3815
  508MOL0     O68448   4.361   1.049   6.313  0.7655 -0.0929  0.0402
  508MOL0     C68449   4.236   1.025   6.368 -0.8416  0.1652  1.1932
  508MOL0     C68450   4.186   0.898   6.392 -0.1197  0.1338 -0.1770
  508MOL0     C68451   4.051   0.869   6.438 -0.6512  0.9087  0.3031
  508MOL0     C68452   3.964   0.969   6.479  0.1849 -0.4747 -0.8384
  508MOL0     O68453   3.837   0.955   6.534 -0.1833 -0.2658  1.3598
  508MOL0     C68454   3.792   0.821   6.574 -0.1856  0.1279  0.6833
  508MOL0     C68455   3.862   0.783   6.705  1.4720  0.4335  0.2385
  508MOL0     C68456   3.854   0.633   6.735 -0.1240  0.7974 -0.5197
  508MOL0     C68457   3.995   0.588   6.787  0.6807  0.0167  0.2678
  508MOL0     C68458   3.965   0.437   6.840 -0.5697 -0.5513  0.1078
  508MOL0     C68459   3.958   0.460   6.995  0.2529 -0.7111  0.1098
  508MOL0     C68460   3.950   0.322   7.051 -0.5162 -0.1193  0.8765
  508MOL0     C68461   3.925   0.340   7.198  0.9786  0.4291  0.3382
  508MOL0     N68462   3.955   0.216   7.261  0.2063  0.1330  0.0773
  508MOL0     C68463   3.910   0.089   7.227  0.3439 -0.2294  0.4420
  508MOL0     C68464   3.994   0.012   7.300  0.1562  0.3818  0.5162
  508MOL0     C68465   3.985  -0.139   7.295 -0.6912 -0.1439  0.3164
  508MOL0     C68466   4.006  -0.220   7.162 -0.3965 -0.1378  0.6958
  508MOL0     C68467   3.978  -0.374   7.188  0.0542 -1.0047 -0.2727
  508MOL0     C68468   3.974  -0.460   7.059  0.0103  0.3775 -0.1598
  508MOL0     O68469   4.091  -0.444   6.970  0.6718 -0.3425 -0.4091
  508MOL0     C68470   4.071  -0.424   6.834  0.5913 -0.9496 -0.2540
  508MOL0     C68471   4.186  -0.399   6.766 -0.0525  0.6967 -0.8136
  508MOL0     C68472   4.191  -0.394   6.628  0.8417 -0.3261  0.6186
  508MOL0     C68473   4.330  -0.397   6.574  0.0927 -0.3141  0.7906
  508MOL0     C68474   4.069  -0.391   6.550 -1.1172  0.9942  0.2694
  508MOL0     C68475   4.057  -0.391   6.407 -0.2596  0.6593 -0.0629
  508MOL0     O68476   3.968  -0.484   6.354  0.0347 -0.3825  0.1037
  508MOL0     C68477   3.978  -0.508   6.215 -0.0412  0.8604 -0.5629
  508MOL0     C68478   3.886  -0.448   6.123  0.3317 -0.2457  0.1039
  508MOL0     C68479   3.882  -0.487   5.991 -0.5711 -0.4036  0.6887
  508MOL0     C68480   3.961  -0.589   5.939  0.4370 -0.4466  0.3842
  508MOL0     O68481   3.962  -0.632   5.803  0.1070  0.4445  0.8504
  508MOL0     C68482   3.905  -0.549   5.698  0.5449 -0.5016 -0.0110
  508MOL0     C68483   3.891  -0.633   5.560 -0.1959 -0.1229  0.5875
  508MOL0     C68484   3.877  -0.548   5.423  0.4519 -0.8348  0.1113
  508MOL0     C68485   3.967  -0.598   5.315 -0.2657  1.0193  0.1921
  508MOL0     C68486   3.972  -0.516   5.189  0.1547  0.1384  0.2173
  508MOL0     C68487   4.068  -0.574   5.085 -0.8008 -0.7380  0.6574
  508MOL0     C68488   4.099  -0.458   4.983  0.1011  0.1620 -0.2051
  508MOL0     C68489   3.979  -0.402   4.892  0.6023 -0.1390  0.2173
  508MOL0    Cl68490   4.023  -0.265   4.780 -0.3233 -0.2280 -0.0876
  508MOL0     C68491   4.049  -0.647   6.017 -1.1571  0.9537 -0.4641
  508MOL0     C68492   4.061  -0.602   6.153  0.1502  0.1574  0.1478
  508MOL0     O68493   4.124  -0.313   6.347 -0.0506 -0.2894  0.6023
  508MOL0     C68494   3.948  -0.393   6.623 -0.4677  0.4335  0.1339
  508MOL0     C68495   3.950  -0.409   6.765  0.9074  0.5275 -0.0767
  508MOL0     N68496   4.089   0.087   7.368  0.2057 -0.6725  1.2681
  508MOL0     N68497   4.057   0.205   7.341 -1.1645 -0.1277  0.2410
  508MOL0     C68498   4.012   1.098   6.457 -0.7796  0.5564 -0.7512
  508MOL0     C68499   4.143   1.130   6.406  0.2759  0.9208  0.8458
  508MOL0     C68500   4.493   1.086   6.101  0.1477 -0.2632  0.5061
  508MOL0     C68501   4.615   1.103   6.157  0.1310  0.3285  0.7552
  508MOL0     C68502   4.730   1.140   6.089 -0.3946  1.1807  0.2849
  508MOL0     C68503   4.721   1.180   5.954  0.8748 -0.7381  1.0386
  508MOL0     O68504   4.835   1.208   5.890  0.0897 -0.1960 -0.5155
  508MOL0     C68505   4.827   1.205   5.745 -0.5049 -0.3441 -0.0571
  508MOL0     C68506   4.963   1.211   5.670  0.1001  0.5752  0.4581
  508MOL0     C68507   4.956   1.221   5.520 -0.7316 -1.2012 -0.3389
  508MOL0     C68508   5.107   1.216   5.466  0.3319 -0.2010 -0.5161
  508MOL0     C68509   5.161   1.088   5.470 -0.2451 -0.3384 -0.5280
  508MOL0     C68510   5.199   0.976   5.469  0.2674  0.2409  0.0408
  508MOL0     C68511   4.599   1.163   5.892  0.2850  1.1704 -0.3402
  508MOL0     C68512   4.489   1.114   5.961 -0.7380 -0.1680  0.4167
  508MOL0     H68513   4.254   0.824   6.351  0.8261  2.2582 -2.7677
  508MOL0     H68514   4.024   0.764   6.450 -1.2955  0.9002 -1.0786
  508MOL0     H68515   3.684   0.838   6.581 -0.8439  0.2020 -4.9410
  508MOL0     H68516   3.815   0.740   6.505  1.6652 -1.1287  2.6415
  508MOL0     H68517   3.965   0.820   6.708  1.4414  0.5273  0.1194
  508MOL0     H68518   3.797   0.831   6.778  1.1465 -1.5848  1.3697
  508MOL0     H68519   3.770   0.610   6.801 -2.0714  0.3543 -2.9719
  508MOL0     H68520   3.831   0.566   6.651 -0.2454  0.1719  0.0072
  508MOL0     H68521   4.059   0.578   6.699 -1.0771 -2.6428 -0.8263
  508MOL0     H68522   4.044   0.650   6.862  0.3955 -1.8170  2.0495
  508MOL0     H68523   3.877   0.384   6.803  0.3211 -3.9504  2.3803
  508MOL0     H68524   4.050   0.373   6.811  1.5049  1.2944  1.7357
  508MOL0     H68525   4.043   0.519   7.032 -1.7640  2.9723 -0.6450
  508MOL0     H68526   3.868   0.518   7.018 -0.6817 -1.0243 -2.4197
  508MOL0     H68527   3.866   0.266   7.009  0.5624 -2.1397  1.3091
  508MOL0     H68528   4.037   0.257   7.041 -0.9269 -0.8670  1.9617
  508MOL0     H68529   3.823   0.369   7.224  0.9231 -1.5157  2.5476
  508MOL0     H68530   3.986   0.421   7.239 -0.5677  1.8372 -0.0251
  508MOL0     H68531   3.827   0.054   7.167 -0.0633  1.8753 -0.2722
  508MOL0     H68532   4.051  -0.184   7.369  0.0907  1.1916  0.4598
  508MOL0     H68533   3.890  -0.166   7.342  0.6821 -1.7444  2.3211
  508MOL0     H68534   4.110  -0.209   7.129 -0.0467 -1.1621  1.4125
  508MOL0     H68535   3.939  -0.169   7.092  1.3328 -0.7841 -1.5575
  508MOL0     H68536   3.882  -0.389   7.237  0.5567 -2.7480  0.2660
  508MOL0     H68537   4.061  -0.416   7.247 -0.3777 -1.9183 -0.2940
  508MOL0     H68538   3.875  -0.444   7.014 -1.1699  1.6866  2.6103
  508MOL0     H68539   3.974  -0.565   7.092  2.2288  0.1591 -0.7084
  508MOL0     H68540   4.279  -0.398   6.822 -0.0982 -1.8225 -0.5682
  508MOL0     H68541   4.403  -0.448   6.637  0.1033 -0.5707  0.5749
  508MOL0     H68542   4.335  -0.448   6.478 -4.4081 -2.8285  1.5999
  508MOL0     H68543   4.378  -0.302   6.549  1.9824 -1.6050 -0.8212
  508MOL0     H68544   3.834  -0.360   6.159  1.9765  0.9862 -0.4124
  508MOL0     H68545   3.816  -0.431   5.925  0.9937 -1.5913 -2.0937
  508MOL0     H68546   3.812  -0.498   5.722 -0.2392 -2.6726  1.8821
  508MOL0     H68547   3.978  -0.470   5.678 -0.1635 -0.4932 -3.0400
  508MOL0     H68548   3.987  -0.686   5.559 -0.7876 -1.2154  0.5781
  508MOL0     H68549   3.812  -0.708   5.559  0.6771 -1.0725  0.4308
  508MOL0     H68550   3.897  -0.440   5.431 -3.8837  0.0844  1.2483
  508MOL0     H68551   3.777  -0.559   5.381 -0.0088 -4.5006  1.8131
  508MOL0     H68552   4.065  -0.618   5.359 -1.1687 -2.5629  0.9222
  508MOL0     H68553   3.927  -0.698   5.296  2.3901 -0.0607 -0.0564
  508MOL0     H68554   4.009  -0.418   5.221  2.3231 -1.1724  2.0426
  508MOL0     H68555   3.878  -0.510   5.133  0.5429  0.9116 -0.3697
  508MOL0     H68556   4.155  -0.617   5.137 -1.8522 -1.5325  1.8117
  508MOL0     H68557   4.030  -0.659   5.027  0.4338 -0.0113 -1.3134
  508MOL0     H68558   4.175  -0.494   4.913  1.5769  2.4884  0.0990
  508MOL0     H68559   4.153  -0.379   5.035  1.6248  0.5463 -2.2471
  508MOL0     H68560   3.903  -0.365   4.961  1.8376  2.7396  0.1951
  508MOL0     H68561   3.924  -0.479   4.836  1.8631 -0.6936 -0.2892
  508MOL0     H68562   4.108  -0.721   5.963 -1.7006  0.9369 -1.0422
  508MOL0     H68563   4.132  -0.654   6.216  1.4362  2.0586  0.3511
  508MOL0     H68564   3.860  -0.387   6.560 -0.6816  0.3291  0.4225
  508MOL0     H68565   3.854  -0.410   6.816 -0.5662  2.0137 -2.6392
  508MOL0     H68566   3.933   1.163   6.491  1.6824  2.7952  1.0850
  508MOL0     H68567   4.177   1.231   6.386  0.6730  0.4270 -1.3214
  508MOL0     H68568   4.617   1.083   6.264  0.4846 -0.9111  0.5400
  508MOL0     H68569   4.821   1.153   6.147  0.4215 -1.1126 -0.4058
  508MOL0     H68570   4.768   1.119   5.710  1.6021 -2.6041  1.6239
  508MOL0     H68571   4.780   1.301   5.719  0.7383 -0.1760 -1.8391
  508MOL0     H68572   5.030   1.130   5.702 -0.5611  0.9323  2.9595
  508MOL0     H68573   5.011   1.302   5.707 -0.7349  1.4089 -0.4499
  508MOL0     H68574   4.925   1.317   5.479  0.2813  0.3698  2.2997
  508MOL0     H68575   4.899   1.136   5.482 -0.4289 -1.5157 -0.1018
  508MOL0     H68576   5.182   1.276   5.517  1.9125 -1.7171 -0.9682
  508MOL0     H68577   5.113   1.254   5.364  0.8566 -1.1783 -0.8613
  508MOL0     H68578   5.234   0.875   5.459  0.4826  0.3225 -0.0320
  508MOL0     H68579   4.568   1.187   5.791 -0.8993  1.6685  0.1301
  508MOL0     H68580   4.395   1.110   5.905 -0.6556 -0.5101  0.3015
  509MOL0     O68581   0.618   4.467   9.012 -0.2158  0.1901  0.2700
  509MOL0     C68582   0.563   4.466   9.120  1.6451 -0.0086 -1.4317
  509MOL0     O68583   0.615   4.416   9.235 -0.6893  0.1600  0.2930
  509MOL0     C68584   0.735   4.338   9.204 -0.1710  0.9324  0.5922
  509MOL0     C68585   0.857   4.375   9.259 -0.1609  0.6796 -0.1335
  509MOL0     C68586   0.984   4.307   9.232  0.2198 -0.3355  1.1978
  509MOL0     C68587   0.968   4.194   9.151  0.7733 -0.2307 -0.2882
  509MOL0     O68588   1.080   4.121   9.113  0.6900  0.5586  0.6490
  509MOL0     C68589   1.179   4.194   9.052 -0.3423  0.3162  0.6549
  509MOL0     C68590   1.325   4.160   9.059  0.5121 -0.1428 -0.2245
  509MOL0     C68591   1.374   4.191   9.200 -0.7014  0.1303 -0.2807
  509MOL0     C68592   1.524   4.132   9.218  0.7401  0.4941  0.7088
  509MOL0     C68593   1.607   4.192   9.341 -0.4705  0.5801  0.4105
  509MOL0     C68594   1.726   4.098   9.362 -0.3341  0.2249  1.3994
  509MOL0     C68595   1.827   4.106   9.241 -0.2291 -0.3667  0.0090
  509MOL0     C68596   1.890   4.243   9.207  0.3211 -0.4874 -0.4596
  509MOL0     N68597   1.948   4.304   9.325  0.4130 -0.2433 -0.0137
  509MOL0     C68598   2.023   4.250   9.424 -0.8656 -0.5013 -0.6710
  509MOL0     C68599   2.042   4.353   9.511 -0.0358  0.6021  0.4638
  509MOL0     C68600   2.125   4.326   9.638  0.5983  0.8778 -0.0947
  509MOL0     C68601   2.253   4.409   9.648 -0.2086  0.6427 -1.3782
  509MOL0     C68602   2.338   4.368   9.769 -1.4059 -0.1462 -0.2663
  509MOL0     C68603   2.301   4.423   9.899 -0.4901  0.0627 -0.5698
  509MOL0     O68604   2.344   4.343  10.012 -0.1792 -0.3270  0.1800
  509MOL0     C68605   2.297   4.367  10.142  0.1355 -0.2757 -0.7262
  509MOL0     C68606   2.298   4.254  10.229 -0.7961 -0.6475 -0.6201
  509MOL0     C68607   2.257   4.264  10.355  0.8099 -0.6539  0.1277
  509MOL0     C68608   2.263   4.141  10.440  0.2673 -0.0938 -0.4185
  509MOL0     C68609   2.195   4.389  10.402  0.6747  0.1694  0.2195
  509MOL0     C68610   2.132   4.414  10.539  0.6012 -0.4420  0.3740
  509MOL0     O68611   2.036   4.516  10.546  0.0263 -0.0964  0.1139
  509MOL0     C68612   1.954   4.504  10.655  0.2607 -0.0826  0.0824
  509MOL0     C68613   1.926   4.621  10.726  0.1609 -0.1403 -0.0090
  509MOL0     C68614   1.832   4.621  10.828 -0.5771 -0.1872  0.2885
  509MOL0     C68615   1.770   4.502  10.867 -0.2559  0.3445 -0.4812
  509MOL0     O68616   1.678   4.502  10.966  0.2498  0.2889  0.1625
  509MOL0     C68617   1.546   4.460  10.924  0.9285 -0.2951 -0.2349
  509MOL0     C68618   1.476   4.424  11.064  0.3302 -0.0177  0.5085
  509MOL0     C68619   1.548   4.311  11.128 -0.1920  0.2461 -0.4575
  509MOL0     C68620   1.459   4.246  11.233  0.2745 -0.5519  0.1973
  509MOL0     C68621   1.535   4.128  11.303  0.0983  0.0588 -0.0200
  509MOL0     C68622   1.452   4.054  11.411 -1.1306 -0.6573 -0.3618
  509MOL0     C68623   1.325   3.980  11.355 -0.1495  0.3290 -0.5165
  509MOL0     C68624   1.261   3.897  11.468 -0.4933  0.3583 -0.2926
  509MOL0    Cl68625   1.208   4.000  11.606  0.6987  0.3979 -0.2550
  509MOL0     C68626   1.802   4.380  10.803 -0.1976 -0.0776  0.4766
  509MOL0     C68627   1.893   4.388  10.693 -1.1967 -0.0052  0.0118
  509MOL0     O68628   2.188   4.361  10.638  0.1012 -0.0933  0.1167
  509MOL0     C68629   2.171   4.494  10.308 -0.0709 -1.1438  0.3785
  509MOL0     C68630   2.228   4.486  10.186 -0.2583  0.2635  0.4512
  509MOL0     N68631   1.969   4.464   9.485  0.2660  0.8835 -0.6617
  509MOL0     N68632   1.917   4.433   9.370  0.2597  0.8139 -0.4822
  509MOL0     C68633   0.844   4.151   9.101  0.5319 -0.3828 -0.6499
  509MOL0     C68634   0.733   4.227   9.127  0.0222  0.8934 -0.4252
  509MOL0     C68635   0.436   4.546   9.145  0.2670 -0.1086  0.2999
  509MOL0     C68636   0.381   4.619   9.036 -1.3301  1.0001 -0.9805
  509MOL0     C68637   0.272   4.695   9.059  0.4291 -0.1413 -0.1447
  509MOL0     C68638   0.201   4.687   9.174 -0.2910 -0.5819 -0.1588
  509MOL0     O68639   0.088   4.756   9.191 -0.4654 -0.5809  0.4734
  509MOL0     C68640  -0.011   4.734   9.099 -0.0500 -0.1438 -0.6206
  509MOL0     C68641  -0.135   4.702   9.188 -0.0330  0.0791 -0.2269
  509MOL0     C68642  -0.181   4.812   9.284 -0.9145  0.3725  0.1176
  509MOL0     C68643  -0.274   4.771   9.396 -0.3614 -0.0639 -0.0335
  509MOL0     C68644  -0.396   4.700   9.340 -0.4146 -0.5928 -0.1148
  509MOL0     C68645  -0.498   4.644   9.302  0.2726 -0.2749  0.0240
  509MOL0     C68646   0.245   4.606   9.280  0.5881  0.2159  0.0370
  509MOL0     C68647   0.369   4.538   9.264 -0.6150 -0.1482 -0.7030
  509MOL0     H68648   0.863   4.464   9.322 -3.2714  0.5467  0.5462
  509MOL0     H68649   1.078   4.340   9.275 -0.0395  0.6307  1.0447
  509MOL0     H68650   1.154   4.192   8.945 -2.0217 -3.7195  0.9368
  509MOL0     H68651   1.171   4.299   9.083  0.1243 -0.3547  3.2614
  509MOL0     H68652   1.339   4.056   9.029  0.8978 -0.8228  2.0648
  509MOL0     H68653   1.385   4.227   8.997  1.0896 -0.5512 -0.1171
  509MOL0     H68654   1.358   4.292   9.239  2.1541  0.2116  0.9258
  509MOL0     H68655   1.313   4.138   9.275  1.8623 -1.4218  0.8739
  509MOL0     H68656   1.507   4.024   9.216  0.4931  0.5331  0.6421
  509MOL0     H68657   1.586   4.154   9.131  4.9529 -3.0115  2.4792
  509MOL0     H68658   1.635   4.295   9.316 -2.1621  0.7636 -0.9749
  509MOL0     H68659   1.559   4.192   9.439  0.0931 -1.7004  0.7486
  509MOL0     H68660   1.777   4.143   9.448 -1.0410  0.4891  1.6965
  509MOL0     H68661   1.696   3.993   9.374  0.2183 -0.6248 -2.9252
  509MOL0     H68662   1.909   4.038   9.268 -0.4847  0.0024  1.8695
  509MOL0     H68663   1.785   4.070   9.147 -0.1059 -0.3741 -0.0438
  509MOL0     H68664   1.827   4.316   9.157  1.0111  0.9214  0.6327
  509MOL0     H68665   1.972   4.215   9.140  5.0642  0.6722  4.1372
  509MOL0     H68666   2.083   4.159   9.420  0.3575  0.1162  1.5288
  509MOL0     H68667   2.057   4.346   9.722 -0.3324 -1.2347 -0.2806
  509MOL0     H68668   2.146   4.219   9.650 -2.5659  0.4041  3.1937
  509MOL0     H68669   2.211   4.510   9.661 -2.2887 -0.3433  0.3724
  509MOL0     H68670   2.303   4.396   9.552  2.1153  1.2885 -0.3243
  509MOL0     H68671   2.440   4.401   9.749 -1.8033  2.6922  1.8563
  509MOL0     H68672   2.337   4.258   9.773 -2.8195 -0.1246  0.9825
  509MOL0     H68673   2.191   4.425   9.902 -0.5200 -1.3844  1.5037
  509MOL0     H68674   2.341   4.525   9.903 -0.5036  0.0416  0.3832
  509MOL0     H68675   2.336   4.162  10.185 -3.3678  0.0704 -4.9274
  509MOL0     H68676   2.170   4.119  10.494  0.6361 -0.3848  0.1078
  509MOL0     H68677   2.308   4.052  10.395  1.1853 -0.5732  1.3582
  509MOL0     H68678   2.335   4.170  10.517 -0.5604 -0.3668  0.4746
  509MOL0     H68679   1.967   4.715  10.690  1.5931 -0.6198  0.2948
  509MOL0     H68680   1.809   4.715  10.877  1.3718 -1.0322  3.0540
  509MOL0     H68681   1.499   4.541  10.866 -2.1101 -2.0239 -0.4213
  509MOL0     H68682   1.543   4.368  10.865 -0.6960 -0.9685  0.8167
  509MOL0     H68683   1.478   4.510  11.133  1.9481  1.8222 -1.6925
  509MOL0     H68684   1.375   4.392  11.036 -0.2235  1.5373  0.6037
  509MOL0     H68685   1.642   4.338  11.177 -0.0962 -1.6428  0.5110
  509MOL0     H68686   1.579   4.233  11.057  2.0585  1.1324 -0.5429
  509MOL0     H68687   1.431   4.324  11.305  0.1902 -1.8032  1.5616
  509MOL0     H68688   1.366   4.216  11.183  0.4267  0.3918 -0.7022
  509MOL0     H68689   1.622   4.171  11.355 -1.4256  0.8669  1.9814
  509MOL0     H68690   1.560   4.044  11.238 -0.6506 -1.1663  1.2073
  509MOL0     H68691   1.508   3.980  11.469 -2.1220 -1.3145 -0.2144
  509MOL0     H68692   1.422   4.130  11.483  1.4343  2.5613 -2.4164
  509MOL0     H68693   1.339   3.920  11.264  2.8678 -0.9583  0.6685
  509MOL0     H68694   1.245   4.051  11.332 -0.5151  0.2803  0.5754
  509MOL0     H68695   1.324   3.813  11.499  1.0048  1.9337  1.2396
  509MOL0     H68696   1.176   3.845  11.424 -0.5780 -0.1267  0.4209
  509MOL0     H68697   1.752   4.287  10.828 -1.2726  0.6077  0.9567
  509MOL0     H68698   1.898   4.298  10.633 -0.0966 -3.4567  4.6761
  509MOL0     H68699   2.103   4.576  10.327  1.9817  0.8372 -0.3448
  509MOL0     H68700   2.188   4.545  10.104 -0.3294 -3.5077 -2.5266
  509MOL0     H68701   0.836   4.064   9.037 -0.8495 -0.0958 -0.8954
  509MOL0     H68702   0.635   4.193   9.097 -0.1308 -1.3821  2.2534
  509MOL0     H68703   0.437   4.642   8.946 -1.5028  1.2678 -1.0200
  509MOL0     H68704   0.224   4.754   8.982 -1.4247  2.0287  2.5224
  509MOL0     H68705  -0.012   4.824   9.037 -0.6515  2.1362  2.4375
  509MOL0     H68706   0.015   4.645   9.042  0.0505 -0.9917  0.7193
  509MOL0     H68707  -0.118   4.610   9.244 -1.0248  1.2454  2.1530
  509MOL0     H68708  -0.218   4.682   9.121  0.3092  1.7334 -1.2189
  509MOL0     H68709  -0.219   4.898   9.229 -0.0538 -0.6420 -2.2166
  509MOL0     H68710  -0.091   4.842   9.338 -1.6658  2.5771  0.2588
  509MOL0     H68711  -0.308   4.863   9.444 -0.6273 -1.0198  1.7061
  509MOL0     H68712  -0.209   4.706   9.455 -0.5109  0.5397  0.8116
  509MOL0     H68713  -0.594   4.605   9.275 -0.5811 -0.0064  2.4037
  509MOL0     H68714   0.187   4.600   9.372 -2.1056  1.2057 -1.4960
  509MOL0     H68715   0.414   4.482   9.345 -2.5356 -1.0833 -0.2241
  510MOL0     O68716   7.663   0.813   6.952  0.0518  0.1914  0.0396
  510MOL0     C68717   7.724   0.765   7.050 -0.3876  0.1832 -0.1307
  510MOL0     O68718   7.762   0.832   7.157  0.0332  0.9683 -0.4754
  510MOL0     C68719   7.712   0.955   7.179  0.2046  0.3844  0.2259
  510MOL0     C68720   7.682   0.984   7.311  0.1629  1.4957  0.0461
  510MOL0     C68721   7.648   1.111   7.356 -0.0746  0.0615 -0.0494
  510MOL0     C68722   7.635   1.213   7.264  0.2387  0.1550  0.7230
  510MOL0     O68723   7.602   1.335   7.315 -0.0280 -1.4345  0.5764
  510MOL0     C68724   7.506   1.417   7.243 -0.2205 -0.1061  0.4171
  510MOL0     C68725   7.413   1.493   7.355 -0.5168 -0.1424 -0.1397
  510MOL0     C68726   7.311   1.409   7.423 -0.6064 -1.3692  0.6463
  510MOL0     C68727   7.366   1.289   7.496 -0.4182 -0.2365  0.0660
  510MOL0     C68728   7.259   1.240   7.592  0.5341  0.3973 -0.0035
  510MOL0     C68729   7.329   1.166   7.706  1.1381 -0.1441  0.4492
  510MOL0     C68730   7.390   1.030   7.667  0.8107 -0.5142  0.9141
  510MOL0     C68731   7.479   0.967   7.763 -0.0604  0.6579  0.7453
  510MOL0     N68732   7.529   0.835   7.723  0.8271 -0.2188 -0.2138
  510MOL0     C68733   7.456   0.710   7.716 -0.2165 -0.5284 -1.2792
  510MOL0     C68734   7.529   0.628   7.646  0.3374  1.1056  0.2981
  510MOL0     C68735   7.486   0.491   7.586 -0.1943 -0.8242 -0.3240
  510MOL0     C68736   7.401   0.505   7.457  0.4208  0.2606  1.1106
  510MOL0     C68737   7.487   0.527   7.327  0.4097 -0.8998 -0.6214
  510MOL0     C68738   7.424   0.469   7.206  0.3922 -0.1304  0.5768
  510MOL0     O68739   7.286   0.502   7.202 -0.2650 -0.3005 -0.8254
  510MOL0     C68740   7.211   0.464   7.091 -0.1319  0.3695 -0.5344
  510MOL0     C68741   7.088   0.520   7.080  0.0621  0.2153  0.0847
  510MOL0     C68742   7.004   0.505   6.966 -0.1655  0.4465 -0.5216
  510MOL0     C68743   6.883   0.588   6.968 -0.5066 -0.0288  1.0217
  510MOL0     C68744   7.045   0.405   6.866  0.4954  0.3626  0.4569
  510MOL0     C68745   6.965   0.368   6.741 -0.5360  0.3034 -0.4661
  510MOL0     O68746   7.029   0.278   6.662  0.4788 -0.2531 -0.0613
  510MOL0     C68747   6.942   0.221   6.565 -0.4304  0.9413 -1.1571
  510MOL0     C68748   6.900   0.301   6.461  0.9362  0.1278 -0.4100
  510MOL0     C68749   6.803   0.246   6.373 -0.1659 -0.2738  0.1143
  510MOL0     C68750   6.746   0.118   6.396 -0.8330 -0.9894  0.4146
  510MOL0     O68751   6.666   0.053   6.306 -0.3148 -0.4906  0.5199
  510MOL0     C68752   6.588   0.135   6.218 -0.2581 -0.4185 -0.5141
  510MOL0     C68753   6.486   0.065   6.139 -0.8691 -0.1296 -0.3916
  510MOL0     C68754   6.451   0.128   6.008 -0.1870 -0.1793  0.1112
  510MOL0     C68755   6.379   0.010   5.923  0.8905  0.4075 -0.1905
  510MOL0     C68756   6.321   0.042   5.789  0.5458  0.0369  0.5498
  510MOL0     C68757   6.244  -0.082   5.727 -0.9133 -0.5494  0.1873
  510MOL0     C68758   6.322  -0.215   5.707 -0.6474 -0.9882 -0.1387
  510MOL0     C68759   6.475  -0.218   5.687  0.4368  0.0367  0.9203
  510MOL0    Cl68760   6.516  -0.386   5.633 -0.1014  0.1800 -0.0641
  510MOL0     C68761   6.789   0.042   6.508  0.1946 -0.9527  0.7419
  510MOL0     C68762   6.891   0.089   6.584  0.2741 -0.1025 -0.1358
  510MOL0     O68763   6.857   0.418   6.726  0.2640  0.5470  0.2070
  510MOL0     C68764   7.181   0.359   6.877  0.0946  0.4185  0.3640
  510MOL0     C68765   7.257   0.377   6.991  0.0944 -0.5333 -0.2643
  510MOL0     N68766   7.649   0.697   7.615  0.6625  0.5986 -0.4651
  510MOL0     N68767   7.639   0.822   7.654  0.5660  0.8668 -0.0695
  510MOL0     C68768   7.650   1.181   7.128  0.6268 -0.1887 -0.0525
  510MOL0     C68769   7.695   1.059   7.085  0.4740  0.1116 -0.2133
  510MOL0     C68770   7.756   0.618   7.040 -0.4425  0.0187  0.2200
  510MOL0     C68771   7.818   0.546   7.145 -0.7860 -0.2493  0.7869
  510MOL0     C68772   7.847   0.409   7.120  0.2948  0.6322  0.2012
  510MOL0     C68773   7.802   0.337   7.004  0.3754 -0.2515  0.6682
  510MOL0     O68774   7.804   0.205   6.975 -0.1621  0.3742 -0.6668
  510MOL0     C68775   7.771   0.117   7.089  0.3662 -0.4470 -0.3446
  510MOL0     C68776   7.659   0.023   7.048 -0.0233  0.3909 -1.0677
  510MOL0     C68777   7.529   0.106   7.026  0.1087  0.5757 -0.1845
  510MOL0     C68778   7.418   0.006   6.992 -0.0516 -1.2687  0.3593
  510MOL0     C68779   7.415  -0.014   6.851  0.8142 -1.1294  0.9945
  510MOL0     C68780   7.403  -0.072   6.742 -0.4993 -0.0365 -0.9622
  510MOL0     C68781   7.739   0.410   6.902  0.3182 -0.2726 -1.0022
  510MOL0     C68782   7.716   0.545   6.919 -0.6575  0.6530 -0.5491
  510MOL0     H68783   7.692   0.907   7.387  3.5282  2.2724  0.5494
  510MOL0     H68784   7.633   1.142   7.459 -0.0943  2.6011 -0.7556
  510MOL0     H68785   7.572   1.485   7.189 -0.1008 -0.4691  0.1069
  510MOL0     H68786   7.442   1.371   7.167 -0.1832  3.1352 -1.7478
  510MOL0     H68787   7.483   1.539   7.424  1.3393 -1.6170 -0.9496
  510MOL0     H68788   7.356   1.569   7.300 -1.3137  0.7803  1.8566
  510MOL0     H68789   7.272   1.482   7.495  0.6347  1.4716 -1.3540
  510MOL0     H68790   7.238   1.378   7.348  0.6564 -2.4082 -0.2032
  510MOL0     H68791   7.394   1.210   7.426 -1.2240  0.0163 -0.5615
  510MOL0     H68792   7.454   1.334   7.543  0.9399 -2.2719 -0.4031
  510MOL0     H68793   7.209   1.330   7.630 -0.7441 -0.1607 -0.3130
  510MOL0     H68794   7.190   1.171   7.542  0.3696  0.3657  0.2627
  510MOL0     H68795   7.405   1.233   7.747 -1.8948  2.3110  2.5191
  510MOL0     H68796   7.242   1.162   7.772 -1.1030  2.4325 -2.0573
  510MOL0     H68797   7.307   0.962   7.644  1.0463 -0.3929 -0.3301
  510MOL0     H68798   7.455   1.031   7.579  1.8241  0.5551  1.6475
  510MOL0     H68799   7.427   0.972   7.860  1.8268  3.4407  1.7342
  510MOL0     H68800   7.568   1.031   7.761  1.7576 -1.7490  0.3003
  510MOL0     H68801   7.352   0.688   7.739 -0.1729  0.3704 -0.1610
  510MOL0     H68802   7.572   0.426   7.568 -0.1144 -1.3645  1.8323
  510MOL0     H68803   7.440   0.449   7.675  1.5812 -0.5054  0.7936
  510MOL0     H68804   7.341   0.596   7.473  1.1624  0.7040  1.4301
  510MOL0     H68805   7.340   0.414   7.451  2.9134 -1.4005 -0.9527
  510MOL0     H68806   7.591   0.494   7.331  0.3090 -1.1156  0.2682
  510MOL0     H68807   7.493   0.632   7.297  0.7542 -0.7768 -0.1371
  510MOL0     H68808   7.440   0.361   7.208  2.1273  0.0247  4.1391
  510MOL0     H68809   7.476   0.508   7.118  0.4251  2.9335  1.8173
  510MOL0     H68810   7.057   0.595   7.152 -0.5970  1.2893 -1.2674
  510MOL0     H68811   6.821   0.554   7.051 -1.6959  2.6875  1.3438
  510MOL0     H68812   6.910   0.691   6.991  0.6006  1.2605 -4.4769
  510MOL0     H68813   6.824   0.581   6.876  1.4075  1.7863 -0.4241
  510MOL0     H68814   6.940   0.402   6.452 -0.8212  0.9028  0.0224
  510MOL0     H68815   6.767   0.310   6.293  0.4335 -0.8403 -0.6248
  510MOL0     H68816   6.540   0.209   6.283 -0.0162  1.3899 -2.2777
  510MOL0     H68817   6.649   0.192   6.147  0.1961 -3.4330 -2.7311
  510MOL0     H68818   6.514  -0.037   6.114 -1.4091  0.1060 -2.0771
  510MOL0     H68819   6.395   0.047   6.198  0.2645 -2.0748  0.8432
  510MOL0     H68820   6.542   0.161   5.958  0.1875 -0.7209  0.4243
  510MOL0     H68821   6.384   0.212   6.027 -2.8392 -1.6840 -1.8464
  510MOL0     H68822   6.462  -0.059   5.907 -0.3902 -1.3207  0.4010
  510MOL0     H68823   6.313  -0.050   5.986  0.6144 -2.1734 -2.7305
  510MOL0     H68824   6.395   0.091   5.725 -0.5466  1.5543  0.3887
  510MOL0     H68825   6.253   0.126   5.807  0.0134 -0.1311 -0.6330
  510MOL0     H68826   6.167  -0.106   5.801 -0.8663 -0.3478  0.3034
  510MOL0     H68827   6.210  -0.053   5.627  0.5273 -2.1758 -0.8284
  510MOL0     H68828   6.271  -0.259   5.620  0.7768  1.2857 -2.2565
  510MOL0     H68829   6.321  -0.266   5.804  4.2532  1.9261  1.8301
  510MOL0     H68830   6.542  -0.194   5.770 -1.6317 -2.4055  3.5309
  510MOL0     H68831   6.497  -0.145   5.609 -2.1251 -1.2599 -1.1708
  510MOL0     H68832   6.727  -0.045   6.530 -3.8164  1.1251 -1.1556
  510MOL0     H68833   6.933   0.027   6.664  0.1375 -0.8229 -0.6156
  510MOL0     H68834   7.237   0.310   6.797  0.5632 -2.4329  2.2871
  510MOL0     H68835   7.361   0.347   6.992 -0.8508 -4.3477  1.2506
  510MOL0     H68836   7.642   1.268   7.064  0.8314 -0.2279 -0.1323
  510MOL0     H68837   7.717   1.047   6.979 -0.8344  2.5728 -0.8234
  510MOL0     H68838   7.844   0.584   7.243  0.8051 -0.9100  0.6559
  510MOL0     H68839   7.894   0.353   7.200 -0.5246  0.3723  0.5084
  510MOL0     H68840   7.855   0.050   7.106  0.7224 -0.3555 -1.6603
  510MOL0     H68841   7.749   0.159   7.188  2.0268  0.4591 -0.3186
  510MOL0     H68842   7.639  -0.046   7.131  0.0380 -0.9139 -2.1001
  510MOL0     H68843   7.672  -0.033   6.955 -1.1428  0.2530 -1.1524
  510MOL0     H68844   7.549   0.180   6.948  0.2653  0.0997 -0.6010
  510MOL0     H68845   7.505   0.151   7.123  2.6481 -0.7913  1.1821
  510MOL0     H68846   7.327   0.053   7.031 -1.9537 -5.2305  1.1981
  510MOL0     H68847   7.430  -0.088   7.047 -2.4769 -1.4100  0.7782
  510MOL0     H68848   7.385  -0.112   6.644  1.0095 -2.4614 -0.3145
  510MOL0     H68849   7.702   0.370   6.808 -0.8288 -0.9714 -0.2737
  510MOL0     H68850   7.663   0.593   6.838 -0.5045 -1.1528 -1.7805
  511MOL0     O68851   6.438   0.533   4.945  0.0411  0.2543  0.0874
  511MOL0     C68852   6.397   0.624   4.872 -0.4238  0.6454 -0.0553
  511MOL0     O68853   6.282   0.689   4.892 -0.0351 -0.2553  0.2264
  511MOL0     C68854   6.236   0.703   5.018 -0.5789 -0.7163 -0.4853
  511MOL0     C68855   6.092   0.707   5.040 -0.4761 -0.4163 -1.0608
  511MOL0     C68856   6.048   0.724   5.169  0.3944 -0.5291 -0.0311
  511MOL0     C68857   6.142   0.757   5.268  0.7582  1.0416  0.1010
  511MOL0     O68858   6.112   0.790   5.397  0.7763 -0.5556 -0.8765
  511MOL0     C68859   5.977   0.806   5.441  0.1512  0.1327  0.3479
  511MOL0     C68860   5.967   0.867   5.575 -0.8424  0.2570 -0.1516
  511MOL0     C68861   5.853   0.967   5.582 -0.1555  0.0110  0.3055
  511MOL0     C68862   5.716   0.903   5.550  0.9690 -0.0513  0.6220
  511MOL0     C68863   5.609   1.006   5.594  0.1503 -0.4069  0.4539
  511MOL0     C68864   5.615   1.143   5.524  0.6087  1.1410  0.5371
  511MOL0     C68865   5.502   1.239   5.560 -0.4166  0.3201 -0.1512
  511MOL0     C68866   5.561   1.359   5.639  0.4119 -0.6445 -0.6360
  511MOL0     N68867   5.450   1.454   5.670  0.1603  0.1522  0.5152
  511MOL0     C68868   5.343   1.439   5.760 -0.2376 -0.1404  0.4645
  511MOL0     C68869   5.248   1.522   5.711 -0.4358  0.3875  1.3208
  511MOL0     C68870   5.135   1.582   5.770 -0.0019 -0.0941  0.4682
  511MOL0     C68871   5.022   1.608   5.671  1.1701  0.0755 -0.4168
  511MOL0     C68872   4.886   1.648   5.743 -0.4842  0.3557 -0.6809
  511MOL0     C68873   4.772   1.649   5.643 -0.2570  0.3451 -1.1628
  511MOL0     O68874   4.651   1.672   5.713  0.1902 -0.2842 -0.1483
  511MOL0     C68875   4.532   1.647   5.647 -1.0088  0.1649 -0.2752
  511MOL0     C68876   4.423   1.637   5.726 -0.3683 -0.2861  0.7565
  511MOL0     C68877   4.295   1.615   5.682 -0.1982  0.2417  0.2029
  511MOL0     C68878   4.189   1.640   5.782  0.4287 -0.3433  0.1985
  511MOL0     C68879   4.275   1.569   5.552 -0.5702 -0.2879  0.2147
  511MOL0     C68880   4.138   1.539   5.501  0.8970 -0.5345 -0.3058
  511MOL0     O68881   4.128   1.444   5.409 -0.2966  0.1131 -0.2611
  511MOL0     C68882   4.018   1.351   5.433  0.2307 -0.4303  0.5101
  511MOL0     C68883   3.966   1.269   5.325 -0.3027 -1.0743  0.4071
  511MOL0     C68884   3.881   1.155   5.353 -0.5654 -0.5887  0.1833
  511MOL0     C68885   3.843   1.122   5.486 -0.2231 -0.1996  0.0728
  511MOL0     O68886   3.761   1.016   5.492 -0.3820 -0.2498  0.0367
  511MOL0     C68887   3.715   0.971   5.622 -0.0696 -1.1262 -0.2805
  511MOL0     C68888   3.631   0.848   5.616 -0.2250  0.4289 -1.0988
  511MOL0     C68889   3.708   0.722   5.643  0.1812  1.1958 -0.4910
  511MOL0     C68890   3.842   0.709   5.573 -0.1972 -0.0664  0.5131
  511MOL0     C68891   3.883   0.561   5.574  0.0416  0.1734  0.1173
  511MOL0     C68892   4.031   0.539   5.558  0.7618  0.2811  0.5664
  511MOL0     C68893   4.057   0.389   5.537 -0.3711  0.0015  0.4017
  511MOL0     C68894   4.183   0.341   5.617 -0.1928 -0.2350 -0.2351
  511MOL0    Cl68895   4.223   0.197   5.531 -0.0001 -0.0108  0.0803
  511MOL0     C68896   3.876   1.212   5.589  0.8605  1.0685  0.9666
  511MOL0     C68897   3.952   1.324   5.563 -0.4976  1.3427 -0.6973
  511MOL0     O68898   4.040   1.603   5.538  0.3578  0.2408  0.0234
  511MOL0     C68899   4.396   1.563   5.470  0.0735  0.2562  0.2279
  511MOL0     C68900   4.520   1.606   5.517 -0.1208  0.0557 -0.0962
  511MOL0     N68901   5.302   1.585   5.601 -0.2415  0.1762 -0.1391
  511MOL0     N68902   5.422   1.553   5.578  0.5656 -0.1409 -0.6961
  511MOL0     C68903   6.278   0.747   5.246 -0.1557 -0.2819  1.1378
  511MOL0     C68904   6.330   0.739   5.117 -0.3002  0.8215 -0.4794
  511MOL0     C68905   6.469   0.653   4.747  0.7544  0.7539  0.0627
  511MOL0     C68906   6.391   0.655   4.626  0.3838 -0.5703 -0.3887
  511MOL0     C68907   6.456   0.691   4.509 -0.3363 -0.6118 -1.2358
  511MOL0     C68908   6.594   0.719   4.518  0.3442 -0.4748  0.1430
  511MOL0     O68909   6.667   0.767   4.412  0.0678  0.5213 -0.3497
  511MOL0     C68910   6.633   0.900   4.377  0.2713  0.2977  0.6545
  511MOL0     C68911   6.722   0.934   4.258  0.3577 -0.0740  0.4003
  511MOL0     C68912   6.692   1.078   4.207 -0.4217  0.0498  0.4117
  511MOL0     C68913   6.762   1.125   4.079 -0.3996 -0.4646 -0.5937
  511MOL0     C68914   6.884   1.187   4.114  0.0534  0.2381 -0.1061
  511MOL0     C68915   6.989   1.254   4.124 -0.1671  0.8084  0.1568
  511MOL0     C68916   6.671   0.693   4.629 -0.0417 -0.3503  0.1067
  511MOL0     C68917   6.606   0.661   4.747  0.2693 -1.1068  0.0221
  511MOL0     H68918   6.019   0.711   4.959 -0.9527 -1.2978 -0.6824
  511MOL0     H68919   5.941   0.730   5.188  0.4045 -0.4388 -0.0001
  511MOL0     H68920   5.917   0.873   5.378 -0.0319  0.5089  0.9208
  511MOL0     H68921   5.937   0.705   5.450 -1.1079  0.8107  3.2718
  511MOL0     H68922   5.952   0.793   5.654 -1.4352 -0.1040 -0.5970
  511MOL0     H68923   6.061   0.921   5.593  1.3530 -3.2445 -0.1006
  511MOL0     H68924   5.867   1.014   5.680  0.4336  0.6387 -0.0686
  511MOL0     H68925   5.870   1.052   5.515  2.3875  0.2214  1.1027
  511MOL0     H68926   5.702   0.872   5.446 -2.2837  1.4374  0.4950
  511MOL0     H68927   5.716   0.810   5.607  1.5632 -1.0510 -0.9638
  511MOL0     H68928   5.505   0.974   5.583  0.3695 -0.4306 -2.2182
  511MOL0     H68929   5.618   1.014   5.703 -1.7167 -2.4513  0.8409
  511MOL0     H68930   5.708   1.197   5.543  1.4915 -0.2918  0.4175
  511MOL0     H68931   5.606   1.113   5.419 -2.0803 -1.8180  1.4430
  511MOL0     H68932   5.469   1.279   5.464 -1.2134  0.8779  0.3410
  511MOL0     H68933   5.416   1.191   5.608 -1.2096  2.8345  1.0912
  511MOL0     H68934   5.636   1.406   5.576  1.1475  1.4658  1.6448
  511MOL0     H68935   5.604   1.321   5.733  3.2023 -0.9437 -1.9212
  511MOL0     H68936   5.341   1.375   5.847  1.8217  0.0498  0.7014
  511MOL0     H68937   5.098   1.518   5.851  1.0959 -0.2352  0.8803
  511MOL0     H68938   5.169   1.674   5.818 -3.5053 -0.3491  3.9336
  511MOL0     H68939   4.992   1.515   5.621 -1.8965  0.5397  0.3406
  511MOL0     H68940   5.035   1.684   5.593 -3.8295  0.6371 -1.0071
  511MOL0     H68941   4.886   1.747   5.790  1.4284 -0.0946  0.4026
  511MOL0     H68942   4.870   1.572   5.819  1.4416  0.4192 -0.1667
  511MOL0     H68943   4.776   1.559   5.581  2.0588  0.1378 -0.8287
  511MOL0     H68944   4.781   1.730   5.569 -4.6287 -1.7239 -4.3686
  511MOL0     H68945   4.429   1.655   5.833  0.7750 -1.5840  0.9262
  511MOL0     H68946   4.104   1.572   5.771  1.9363 -2.5730  1.5793
  511MOL0     H68947   4.234   1.618   5.879  1.3876  1.6019  0.2604
  511MOL0     H68948   4.159   1.746   5.778  2.9702  0.4186 -0.3351
  511MOL0     H68949   4.003   1.291   5.226  0.0659  1.4828  1.0534
  511MOL0     H68950   3.858   1.089   5.270  2.9627 -1.7709 -0.0251
  511MOL0     H68951   3.810   0.968   5.675  0.9400 -2.3309 -2.0427
  511MOL0     H68952   3.651   1.049   5.665  2.8117  0.9336  0.5399
  511MOL0     H68953   3.553   0.863   5.692  2.4854 -2.4121  2.6081
  511MOL0     H68954   3.587   0.829   5.518  3.2922 -1.6305 -2.4633
  511MOL0     H68955   3.650   0.639   5.602 -0.0033  2.7315 -3.6179
  511MOL0     H68956   3.721   0.710   5.751  1.6729  0.5793 -0.7096
  511MOL0     H68957   3.822   0.746   5.472 -1.5021  2.8313  1.7242
  511MOL0     H68958   3.916   0.772   5.624  0.0997  0.5559 -0.6505
  511MOL0     H68959   3.839   0.521   5.483  2.5421  1.9265 -1.9896
  511MOL0     H68960   3.852   0.497   5.658  1.6057  0.1868  0.7481
  511MOL0     H68961   4.074   0.595   5.475 -0.3670 -1.6187 -1.4312
  511MOL0     H68962   4.081   0.560   5.653 -1.6660 -1.4174  2.3433
  511MOL0     H68963   4.063   0.365   5.430  1.7832  3.7767 -0.4822
  511MOL0     H68964   3.972   0.329   5.571 -2.5158  0.6531 -3.2372
  511MOL0     H68965   4.160   0.336   5.724  2.1934  1.3042  0.4256
  511MOL0     H68966   4.268   0.407   5.596 -0.3484 -0.2836 -1.0234
  511MOL0     H68967   3.842   1.205   5.692 -2.0280 -3.4832 -0.0341
  511MOL0     H68968   3.983   1.371   5.656 -0.8571  1.6952 -0.7515
  511MOL0     H68969   4.384   1.517   5.373  0.9658  0.5421 -0.0273
  511MOL0     H68970   4.608   1.618   5.454 -1.2455 -3.7360 -2.7975
  511MOL0     H68971   6.338   0.761   5.335 -0.0398 -2.6802  1.5084
  511MOL0     H68972   6.436   0.750   5.096  0.4828 -1.4823  1.7844
  511MOL0     H68973   6.287   0.624   4.621  0.5879 -1.8477  1.9080
  511MOL0     H68974   6.415   0.716   4.412  1.4518  5.6826 -0.8627
  511MOL0     H68975   6.532   0.910   4.336  0.6940  3.5503  0.1920
  511MOL0     H68976   6.660   0.967   4.459  3.3422  0.4687 -0.3675
  511MOL0     H68977   6.708   0.869   4.171  0.6679  0.7278 -0.2721
  511MOL0     H68978   6.827   0.919   4.286  1.5914  2.0593 -2.5456
  511MOL0     H68979   6.703   1.155   4.284 -0.0824  3.7942 -3.0478
  511MOL0     H68980   6.584   1.078   4.189 -0.1244  2.8763 -2.2162
  511MOL0     H68981   6.688   1.195   4.037 -2.6322 -2.6163 -0.4323
  511MOL0     H68982   6.777   1.038   4.015 -1.7836 -1.2334  0.0873
  511MOL0     H68983   7.083   1.301   4.142  0.8721 -1.3414  0.6414
  511MOL0     H68984   6.779   0.701   4.636 -0.0249 -1.3339  1.3430
  511MOL0     H68985   6.648   0.646   4.846 -1.3250  1.8115  1.2596
  512MOL0     O68986  10.525   3.687   8.024 -0.1270  0.0146  0.3630
  512MOL0     C68987  10.509   3.770   8.106  0.8446 -0.5169 -0.8820
  512MOL0     O68988  10.612   3.814   8.192 -0.1897  0.0486  0.1783
  512MOL0     C68989  10.733   3.778   8.172 -0.1186 -1.0888 -0.0342
  512MOL0     C68990  10.817   3.885   8.170  0.1673 -0.3040  0.6776
  512MOL0     C68991  10.953   3.875   8.143  0.3686  0.4594 -0.2184
  512MOL0     C68992  11.008   3.747   8.104  0.3195  0.9013  0.0224
  512MOL0     O68993  11.136   3.730   8.061 -0.2438 -0.5011 -0.4829
  512MOL0     C68994  11.226   3.835   8.043 -0.2146 -0.2735 -0.7302
  512MOL0     C68995  11.341   3.776   7.949 -0.9024 -0.7123 -0.9095
  512MOL0     C68996  11.445   3.890   7.905  0.2587  0.5385  0.7746
  512MOL0     C68997  11.531   3.827   7.790 -0.0611 -0.0066  0.1453
  512MOL0     C68998  11.596   3.927   7.701  0.1344 -0.1921 -0.6793
  512MOL0     C68999  11.665   3.864   7.577  0.0512  0.7305  0.2357
  512MOL0     C69000  11.801   3.818   7.639 -0.7817  0.1467  0.0332
  512MOL0     C69001  11.875   3.706   7.565  0.0709  0.0996 -1.1624
  512MOL0     N69002  11.806   3.576   7.538  0.2313 -0.6115 -0.0643
  512MOL0     C69003  11.691   3.522   7.616 -0.8376 -0.7795 -0.3106
  512MOL0     C69004  11.650   3.419   7.551  0.8124 -0.4123 -0.0200
  512MOL0     C69005  11.547   3.332   7.597  0.8626  0.6249 -0.4741
  512MOL0     C69006  11.400   3.395   7.629 -0.6561 -0.5514  0.2341
  512MOL0     C69007  11.394   3.420   7.778  0.4510  0.7607 -0.8042
  512MOL0     C69008  11.396   3.297   7.874 -1.4407  0.0304 -0.0941
  512MOL0     O69009  11.323   3.181   7.833 -0.0466  0.4755 -0.7963
  512MOL0     C69010  11.193   3.172   7.828 -0.0442  0.3231 -0.1295
  512MOL0     C69011  11.107   3.282   7.813  0.1812 -0.3070  0.8330
  512MOL0     C69012  10.976   3.262   7.769  0.1321  0.3429  0.6330
  512MOL0     C69013  10.901   3.390   7.768  0.1291 -0.4685  0.6454
  512MOL0     C69014  10.922   3.137   7.751 -0.2574  0.0828 -0.0047
  512MOL0     C69015  10.787   3.126   7.680 -0.0241 -0.4015 -0.3436
  512MOL0     O69016  10.736   2.997   7.681 -0.8067 -0.1122 -0.1959
  512MOL0     C69017  10.614   2.982   7.623 -0.5375  0.1544  0.3343
  512MOL0     C69018  10.602   2.858   7.561  0.3693 -0.3350  1.3451
  512MOL0     C69019  10.471   2.821   7.501 -0.4005  0.3021 -0.3703
  512MOL0     C69020  10.363   2.899   7.506 -0.0122 -0.0572  0.0432
  512MOL0     O69021  10.253   2.866   7.424  0.4198 -0.3914 -1.3018
  512MOL0     C69022  10.137   2.952   7.431 -0.6341  0.4613  0.3399
  512MOL0     C69023  10.015   2.868   7.394  0.3291 -0.2585  0.2028
  512MOL0     C69024   9.949   2.818   7.517  0.3759  0.2817  0.1338
  512MOL0     C69025   9.837   2.706   7.487 -0.6739  0.2389 -0.5649
  512MOL0     C69026   9.757   2.659   7.612 -0.4805  0.2837  0.3678
  512MOL0     C69027   9.691   2.766   7.701  0.0999  0.0161  0.1732
  512MOL0     C69028   9.571   2.842   7.636 -0.6085  0.6830  0.2165
  512MOL0     C69029   9.490   2.929   7.729 -0.6362 -0.0324  0.5958
  512MOL0    Cl69030   9.597   3.073   7.795  0.0916 -0.0736  0.0741
  512MOL0     C69031  10.377   3.022   7.577  0.5949  0.1585  0.2824
  512MOL0     C69032  10.491   3.062   7.629 -0.9165  0.2016  0.1739
  512MOL0     O69033  10.739   3.220   7.619  0.5073  0.7396 -0.0752
  512MOL0     C69034  11.001   3.028   7.771  0.1331  0.1846  1.1212
  512MOL0     C69035  11.142   3.046   7.811  0.8586 -0.3883  0.4746
  512MOL0     N69036  11.714   3.407   7.432 -0.1175 -0.6246 -0.3689
  512MOL0     N69037  11.804   3.498   7.428 -0.5766 -0.1535  0.4607
  512MOL0     C69038  10.922   3.639   8.103  0.3372 -0.1969  0.1694
  512MOL0     C69039  10.786   3.654   8.142  0.6876  0.1906 -0.2191
  512MOL0     C69040  10.378   3.843   8.113  0.8023 -0.4638 -0.7086
  512MOL0     C69041  10.267   3.795   8.046  0.4483 -0.4944 -0.6973
  512MOL0     C69042  10.150   3.873   8.057 -0.5661 -0.2272 -1.0945
  512MOL0     C69043  10.150   3.998   8.124 -0.3828  1.2589 -0.6910
  512MOL0     O69044  10.045   4.086   8.122 -0.5998  0.3072  0.5034
  512MOL0     C69045   9.909   4.053   8.109  0.1821 -0.1684  1.0955
  512MOL0     C69046   9.843   3.945   8.201  0.4489 -0.0047 -0.5798
  512MOL0     C69047   9.692   3.971   8.181 -0.4083  0.4368 -0.6797
  512MOL0     C69048   9.606   3.896   8.281 -0.1751 -0.5410 -0.7555
  512MOL0     C69049   9.468   3.910   8.258  0.7696 -1.1410  0.3276
  512MOL0     C69050   9.354   3.919   8.212 -0.7029 -0.4397  0.2075
  512MOL0     C69051  10.265   4.038   8.188  0.0753 -1.3110  0.1397
  512MOL0     C69052  10.384   3.969   8.177  0.3277  1.4448  0.3581
  512MOL0     H69053  10.778   3.981   8.202 -3.1648 -0.6872 -1.7285
  512MOL0     H69054  11.013   3.962   8.167  2.3354 -1.5525  2.8576
  512MOL0     H69055  11.175   3.924   8.005  3.1174  2.1426 -0.0188
  512MOL0     H69056  11.273   3.870   8.136 -1.1622  2.5933 -1.2296
  512MOL0     H69057  11.390   3.708   8.020 -0.7152  0.5011  0.1571
  512MOL0     H69058  11.297   3.721   7.866 -4.0431 -0.8234  0.6873
  512MOL0     H69059  11.379   3.968   7.866 -0.1732  0.2855  0.9921
  512MOL0     H69060  11.504   3.925   7.990  2.6835  3.2348 -1.8092
  512MOL0     H69061  11.594   3.764   7.854 -1.4771 -3.2594 -1.3881
  512MOL0     H69062  11.470   3.755   7.734 -0.0364 -0.7162  0.9891
  512MOL0     H69063  11.520   3.991   7.655 -0.5107 -1.5567 -1.5582
  512MOL0     H69064  11.659   3.996   7.759  0.6081 -0.8025 -0.4572
  512MOL0     H69065  11.608   3.785   7.526  1.1278  0.6162 -0.8340
  512MOL0     H69066  11.673   3.940   7.500 -1.4500 -0.8314 -1.5758
  512MOL0     H69067  11.869   3.903   7.636 -0.3635 -0.2038 -1.5325
  512MOL0     H69068  11.784   3.786   7.742 -1.4298 -0.7931 -0.3489
  512MOL0     H69069  11.978   3.681   7.592  0.1995  1.5277 -0.2183
  512MOL0     H69070  11.902   3.743   7.465  0.0899 -0.3426 -1.3252
  512MOL0     H69071  11.641   3.557   7.706 -0.4164 -4.0710  1.3503
  512MOL0     H69072  11.528   3.252   7.525 -2.4249  0.1336  0.7570
  512MOL0     H69073  11.571   3.269   7.683 -4.2156 -1.2364 -0.0832
  512MOL0     H69074  11.320   3.324   7.609 -1.1102  0.6442 -2.7746
  512MOL0     H69075  11.381   3.493   7.583  3.5702  1.0079  1.3188
  512MOL0     H69076  11.308   3.483   7.801  0.1228  0.7055 -1.8218
  512MOL0     H69077  11.479   3.478   7.814 -0.3126  1.3877  0.0434
  512MOL0     H69078  11.387   3.314   7.982  0.9189  2.5357 -0.2064
  512MOL0     H69079  11.504   3.281   7.871 -0.9639  2.2828  1.8500
  512MOL0     H69080  11.141   3.384   7.831  1.9688 -0.8792  0.8102
  512MOL0     H69081  10.800   3.380   7.810 -0.0346  0.2491  0.4416
  512MOL0     H69082  10.946   3.473   7.823  0.1567 -1.5725  2.3638
  512MOL0     H69083  10.884   3.417   7.663 -1.5953 -1.4320  0.6370
  512MOL0     H69084  10.680   2.784   7.544 -1.6096 -2.1348 -0.6100
  512MOL0     H69085  10.466   2.728   7.445  0.7739 -0.1709  0.2766
  512MOL0     H69086  10.133   2.988   7.534  5.2880  0.2089  1.0315
  512MOL0     H69087  10.151   3.038   7.365 -1.1445  0.2827 -0.0003
  512MOL0     H69088   9.936   2.930   7.353 -1.3349 -2.5113 -0.1740
  512MOL0     H69089  10.045   2.791   7.322  2.1935 -1.2132  1.8968
  512MOL0     H69090   9.906   2.898   7.577  1.5463  1.4461 -0.5279
  512MOL0     H69091  10.027   2.765   7.573  1.3342  0.4297 -1.0217
  512MOL0     H69092   9.763   2.751   7.420 -0.1372 -0.9185 -1.9888
  512MOL0     H69093   9.882   2.630   7.422 -3.1251 -0.7483 -1.2407
  512MOL0     H69094   9.830   2.601   7.670  1.0551  0.1406 -1.6071
  512MOL0     H69095   9.690   2.584   7.571 -2.2873  1.3495  1.2311
  512MOL0     H69096   9.655   2.715   7.791  0.4538 -0.3713  0.0965
  512MOL0     H69097   9.755   2.845   7.742  0.7336 -0.2977 -0.1988
  512MOL0     H69098   9.496   2.771   7.602 -1.4779  1.4295  0.5520
  512MOL0     H69099   9.606   2.911   7.558  2.7469 -3.5299 -2.4413
  512MOL0     H69100   9.438   2.878   7.811 -0.9908 -1.5877 -0.5485
  512MOL0     H69101   9.408   2.966   7.667 -0.1677  0.2683  0.1445
  512MOL0     H69102  10.289   3.083   7.591 -0.4117 -0.9443 -0.9785
  512MOL0     H69103  10.487   3.162   7.672  1.8281 -0.0253  1.1746
  512MOL0     H69104  10.961   2.931   7.743 -1.1589  0.2589  2.5408
  512MOL0     H69105  11.208   2.960   7.815  1.4928  0.0982  0.8165
  512MOL0     H69106  10.940   3.536   8.072  1.5720 -0.9174  2.9271
  512MOL0     H69107  10.715   3.572   8.147 -0.6174  1.1650 -1.7699
  512MOL0     H69108  10.282   3.704   7.988 -0.9183  0.6275 -2.9634
  512MOL0     H69109  10.063   3.829   8.010 -0.1764 -1.0985 -1.0095
  512MOL0     H69110   9.852   4.146   8.118  2.1036  1.3072 -0.8584
  512MOL0     H69111   9.893   4.011   8.009  4.2771  0.5487 -0.0590
  512MOL0     H69112   9.877   3.960   8.304 -1.6103  2.8360 -0.1950
  512MOL0     H69113   9.871   3.847   8.161 -1.5863 -0.6750 -0.4476
  512MOL0     H69114   9.649   3.939   8.086 -4.0010  0.6973  0.6706
  512MOL0     H69115   9.680   4.079   8.199  1.6533  0.0029  6.3722
  512MOL0     H69116   9.629   3.950   8.373 -0.5513  2.6783 -2.4015
  512MOL0     H69117   9.641   3.793   8.271  0.6004 -0.2089 -1.7041
  512MOL0     H69118   9.261   3.919   8.159 -0.3767 -1.1716 -0.3863
  512MOL0     H69119  10.269   4.128   8.247 -0.0593  1.2775 -3.4334
  512MOL0     H69120  10.472   3.985   8.238  0.7902  0.9076 -0.1650
  513MOL0     O69121  11.063   5.282   1.932  0.0272 -0.3949  0.7502
  513MOL0     C69122  11.024   5.168   1.904 -0.6885 -0.0090 -0.2409
  513MOL0     O69123  10.936   5.098   1.985 -0.6273 -0.2159 -0.0622
  513MOL0     C69124  10.879   4.983   1.947  0.5207  0.0326 -0.6150
  513MOL0     C69125  10.793   4.978   1.831 -0.4299 -1.0358  0.1589
  513MOL0     C69126  10.723   4.867   1.800  0.0801 -0.1315  1.1233
  513MOL0     C69127  10.731   4.760   1.874  0.9638 -0.4189 -0.1502
  513MOL0     O69128  10.664   4.663   1.800  0.6544  0.2748  0.1056
  513MOL0     C69129  10.709   4.526   1.808  0.2340  0.8850 -0.5229
  513MOL0     C69130  10.628   4.432   1.722 -0.5528  0.3191 -0.5407
  513MOL0     C69131  10.583   4.496   1.589 -0.3231  0.2075  0.3331
  513MOL0     C69132  10.499   4.408   1.497  0.0862  1.5235 -0.6999
  513MOL0     C69133  10.537   4.427   1.345  0.5757  0.4268 -0.0884
  513MOL0     C69134  10.453   4.348   1.246 -0.1363 -0.5509  0.1064
  513MOL0     C69135  10.477   4.402   1.108 -0.0254 -0.6472 -0.1349
  513MOL0     C69136  10.493   4.299   0.993  0.4264 -0.6517 -0.4240
  513MOL0     N69137  10.488   4.380   0.874  0.1821  0.1296 -0.1115
  513MOL0     C69138  10.588   4.461   0.830  0.0830 -0.0349 -0.0867
  513MOL0     C69139  10.531   4.527   0.729  0.5509 -1.0100 -0.3626
  513MOL0     C69140  10.602   4.615   0.636 -1.2136  0.0924 -0.8185
  513MOL0     C69141  10.620   4.761   0.677  0.4892  0.4973  0.3340
  513MOL0     C69142  10.676   4.859   0.571 -0.0021  0.5168  0.9348
  513MOL0     C69143  10.586   4.891   0.457 -0.1801 -0.3214 -0.0604
  513MOL0     O69144  10.663   4.974   0.369  0.1140 -0.3849  0.0157
  513MOL0     C69145  10.626   4.983   0.238 -0.4009 -0.4090  0.1393
  513MOL0     C69146  10.718   5.059   0.157  0.2322  0.5999 -0.6553
  513MOL0     C69147  10.683   5.078   0.031 -0.3674 -0.2359 -0.3442
  513MOL0     C69148  10.789   5.149  -0.047  0.5400 -0.3636 -0.6237
  513MOL0     C69149  10.563   5.026  -0.029 -0.1706 -0.7704  0.5551
  513MOL0     C69150  10.542   5.028  -0.186 -0.6168 -0.0171 -0.5747
  513MOL0     O69151  10.579   5.142  -0.269 -0.4283  0.1410  0.1262
  513MOL0     C69152  10.548   5.146  -0.399 -0.2464  0.1346 -0.6294
  513MOL0     C69153  10.647   5.152  -0.487 -1.0075  0.0977 -0.2932
  513MOL0     C69154  10.626   5.172  -0.623  1.0992  0.2089  0.4714
  513MOL0     C69155  10.496   5.209  -0.671  0.1733  0.9788 -0.6433
  513MOL0     O69156  10.464   5.230  -0.797  0.1146  0.1521  0.5100
  513MOL0     C69157  10.568   5.209  -0.897 -0.2780 -0.1860 -0.2879
  513MOL0     C69158  10.514   5.228  -1.040 -0.2498 -0.2037  0.1143
  513MOL0     C69159  10.514   5.377  -1.072 -0.1623 -0.5492  0.6506
  513MOL0     C69160  10.448   5.404  -1.211  0.9443  0.9421  0.1588
  513MOL0     C69161  10.549   5.383  -1.326  0.0708 -0.5896 -0.4323
  513MOL0     C69162  10.670   5.479  -1.323 -0.2654 -0.5584 -0.1739
  513MOL0     C69163  10.753   5.460  -1.446 -0.2136 -0.4374  0.4081
  513MOL0     C69164  10.697   5.531  -1.568  0.1099 -0.1262 -0.4498
  513MOL0    Cl69165  10.797   5.497  -1.703  0.3382 -0.4063  0.2143
  513MOL0     C69166  10.390   5.216  -0.567  0.4002 -0.0470  0.6419
  513MOL0     C69167  10.423   5.183  -0.437  0.5317  0.2979 -0.5155
  513MOL0     O69168  10.475   4.939  -0.230  0.0670 -1.0784  0.2492
  513MOL0     C69169  10.483   4.943   0.051  0.8391  0.1466 -0.0677
  513MOL0     C69170  10.504   4.923   0.180  0.1169 -0.0520  0.1598
  513MOL0     N69171  10.399   4.502   0.718  0.0191  0.1789  0.4032
  513MOL0     N69172  10.369   4.421   0.816 -0.1288  0.2661 -0.3160
  513MOL0     C69173  10.834   4.744   1.972  0.1401 -0.3727  0.0284
  513MOL0     C69174  10.897   4.862   2.012  0.1754 -0.6553 -0.9327
  513MOL0     C69175  11.077   5.115   1.775  0.4641 -0.0249  0.2460
  513MOL0     C69176  11.150   4.994   1.770 -0.9799  0.4396 -0.0116
  513MOL0     C69177  11.216   4.946   1.661 -0.1777 -0.0213 -0.6950
  513MOL0     C69178  11.222   5.028   1.547  0.9391  1.0537 -0.0135
  513MOL0     O69179  11.280   4.979   1.442 -0.4268 -0.6046  0.2780
  513MOL0     C69180  11.249   5.019   1.307  0.5811  0.6913 -1.8740
  513MOL0     C69181  11.277   4.898   1.216 -0.0172 -0.1008 -0.8493
  513MOL0     C69182  11.274   4.929   1.072  0.6016  0.5648 -0.0365
  513MOL0     C69183  11.412   4.949   1.027 -0.7961  0.2937 -0.6472
  513MOL0     C69184  11.433   4.940   0.879 -0.0895 -0.9320 -0.8606
  513MOL0     C69185  11.432   4.936   0.754  0.6626  0.0037  0.0234
  513MOL0     C69186  11.166   5.157   1.547  0.1050 -0.5378  0.2782
  513MOL0     C69187  11.087   5.192   1.661 -1.3471 -0.5320  0.2178
  513MOL0     H69188  10.788   5.069   1.771 -1.9398 -2.9325 -2.8611
  513MOL0     H69189  10.656   4.876   1.715  1.4762  1.2448  0.0994
  513MOL0     H69190  10.814   4.511   1.783  0.1553 -0.1002 -0.3126
  513MOL0     H69191  10.702   4.493   1.912  0.5352 -1.5631 -1.2249
  513MOL0     H69192  10.678   4.334   1.722 -0.1010  0.4580  2.4935
  513MOL0     H69193  10.536   4.409   1.776 -1.7413  0.7414 -2.2810
  513MOL0     H69194  10.534   4.592   1.609 -1.6589 -0.2711 -0.5147
  513MOL0     H69195  10.672   4.510   1.527 -0.4230  0.2133  0.1911
  513MOL0     H69196  10.523   4.304   1.520 -0.5663  1.1449 -1.6728
  513MOL0     H69197  10.393   4.417   1.523  0.6827 -0.3450  3.1603
  513MOL0     H69198  10.528   4.529   1.306  1.8134 -0.6175 -3.4422
  513MOL0     H69199  10.642   4.401   1.329  0.2993 -0.4353 -0.5470
  513MOL0     H69200  10.471   4.240   1.244  0.1104 -0.4978 -1.0162
  513MOL0     H69201  10.349   4.366   1.275 -0.5175 -1.8139 -0.4059
  513MOL0     H69202  10.397   4.471   1.081  2.1873  1.8444 -0.7064
  513MOL0     H69203  10.564   4.468   1.110  1.0690 -2.0497  1.8087
  513MOL0     H69204  10.407   4.232   0.995  0.0079 -0.1266  1.8030
  513MOL0     H69205  10.592   4.253   1.004  0.6520  0.1252  1.0122
  513MOL0     H69206  10.687   4.479   0.870  1.0184 -1.7161 -1.5051
  513MOL0     H69207  10.698   4.566   0.617  0.2494  2.4008  0.2196
  513MOL0     H69208  10.553   4.609   0.538  0.4424 -0.0523 -1.6642
  513MOL0     H69209  10.678   4.758   0.770 -1.4062  0.5502  1.5630
  513MOL0     H69210  10.525   4.805   0.707  1.6861  2.1327  1.8931
  513MOL0     H69211  10.765   4.807   0.534 -1.9184 -1.2042 -1.5812
  513MOL0     H69212  10.715   4.952   0.611  3.5931 -0.5724  0.3468
  513MOL0     H69213  10.497   4.938   0.500  2.2881  0.9445  4.2328
  513MOL0     H69214  10.560   4.793   0.415  3.1218 -0.2641 -2.7187
  513MOL0     H69215  10.813   5.088   0.200 -0.5201 -0.7711  2.1504
  513MOL0     H69216  10.869   5.173   0.023  0.8172  1.3325 -1.4533
  513MOL0     H69217  10.812   5.089  -0.135 -1.2929 -1.3922 -0.4468
  513MOL0     H69218  10.754   5.245  -0.088 -0.4593  1.7829  4.5033
  513MOL0     H69219  10.747   5.143  -0.445 -0.6333  2.9782 -0.3630
  513MOL0     H69220  10.700   5.165  -0.702 -1.4032 -0.7881 -1.9716
  513MOL0     H69221  10.646   5.281  -0.872 -0.4763 -0.5915  1.6653
  513MOL0     H69222  10.602   5.105  -0.893 -3.6474 -1.3581  2.2903
  513MOL0     H69223  10.587   5.173  -1.100 -2.5561 -4.0594  0.4395
  513MOL0     H69224  10.418   5.181  -1.065 -0.1560  0.7840 -2.3177
  513MOL0     H69225  10.614   5.421  -1.071 -1.2559  2.2793 -1.5520
  513MOL0     H69226  10.459   5.415  -0.985 -1.1599 -0.0145 -0.1946
  513MOL0     H69227  10.368   5.334  -1.235  0.6930  1.1429  0.4166
  513MOL0     H69228  10.406   5.503  -1.228 -0.9931 -0.2476 -2.9982
  513MOL0     H69229  10.480   5.407  -1.407 -0.8331 -0.2963  0.3987
  513MOL0     H69230  10.574   5.277  -1.340  1.8360 -0.5562  1.8377
  513MOL0     H69231  10.650   5.586  -1.315  1.2817 -0.1592 -1.0921
  513MOL0     H69232  10.730   5.458  -1.234 -5.3363  1.0099  4.1472
  513MOL0     H69233  10.755   5.354  -1.473 -0.2023 -0.5750  0.9452
  513MOL0     H69234  10.856   5.494  -1.433 -0.3265 -0.1115  0.4662
  513MOL0     H69235  10.686   5.639  -1.555 -0.0981 -0.4461  2.8801
  513MOL0     H69236  10.598   5.485  -1.583  2.1753 -4.2651 -3.2519
  513MOL0     H69237  10.285   5.237  -0.584  0.7321 -0.3640 -2.1213
  513MOL0     H69238  10.352   5.197  -0.356 -1.1514  2.1770 -2.2180
  513MOL0     H69239  10.397   4.896   0.003  0.7399  0.4165 -0.1581
  513MOL0     H69240  10.436   4.861   0.237 -1.4951 -1.6453 -3.2100
  513MOL0     H69241  10.864   4.652   2.020  2.6396 -0.3223 -1.2696
  513MOL0     H69242  10.964   4.865   2.097  1.4975 -5.0073 -1.5669
  513MOL0     H69243  11.147   4.930   1.858  1.6528  1.9191  1.2471
  513MOL0     H69244  11.250   4.843   1.662  2.3149  0.7255 -1.2065
  513MOL0     H69245  11.148   5.058   1.290 -0.1737 -0.1374  0.3593
  513MOL0     H69246  11.325   5.092   1.281  0.1704  2.0603  0.4749
  513MOL0     H69247  11.189   4.834   1.227  1.1862 -1.7187 -0.1493
  513MOL0     H69248  11.371   4.855   1.251  1.3935  3.6056  0.3202
  513MOL0     H69249  11.225   5.024   1.050  1.9704  1.3051  0.0187
  513MOL0     H69250  11.239   4.842   1.015 -1.8465  1.6384 -0.2592
  513MOL0     H69251  11.475   4.876   1.078 -1.5611  1.4415  2.0979
  513MOL0     H69252  11.441   5.049   1.060  0.5550 -0.8682  1.9500
  513MOL0     H69253  11.437   4.915   0.649  1.5864  0.6824 -0.0809
  513MOL0     H69254  11.181   5.224   1.463 -2.1716 -2.2226 -1.6110
  513MOL0     H69255  11.048   5.289   1.691 -3.3199 -1.9013  2.5087
  514MOL0     O69256   1.989   3.504   2.174  0.2630  0.0332 -0.3499
  514MOL0     C69257   2.113   3.478   2.164 -0.1754  0.1146 -0.0406
  514MOL0     O69258   2.172   3.347   2.138 -0.1760 -0.2610  0.1157
  514MOL0     C69259   2.078   3.263   2.099  0.4262 -0.1971 -0.0207
  514MOL0     C69260   2.015   3.269   1.965  0.8337 -0.8912 -0.4278
  514MOL0     C69261   1.912   3.180   1.932  0.6052 -0.1259  0.2095
  514MOL0     C69262   1.867   3.085   2.022 -0.9295 -0.0685 -0.0134
  514MOL0     O69263   1.764   3.004   1.977  0.2932 -1.1400 -0.0736
  514MOL0     C69264   1.705   2.921   2.077 -0.2776  0.2248 -0.1851
  514MOL0     C69265   1.576   2.855   2.019 -0.9164 -0.0764 -0.0010
  514MOL0     C69266   1.600   2.777   1.890  0.1431 -0.4146 -0.3462
  514MOL0     C69267   1.470   2.735   1.832  0.1742  0.6593 -0.5938
  514MOL0     C69268   1.474   2.691   1.686  0.3949  0.3966 -0.2560
  514MOL0     C69269   1.355   2.624   1.609 -0.5039 -0.5541  0.2235
  514MOL0     C69270   1.394   2.576   1.469  0.2672 -0.0902 -0.6167
  514MOL0     C69271   1.275   2.510   1.393  0.4701  0.1559  0.6324
  514MOL0     N69272   1.322   2.451   1.269 -0.0254  0.2650 -0.3115
  514MOL0     C69273   1.407   2.341   1.263 -0.4608 -0.7316 -0.5786
  514MOL0     C69274   1.414   2.300   1.132 -0.2534  0.4580 -0.1043
  514MOL0     C69275   1.496   2.181   1.075 -0.1987  0.7227 -0.5571
  514MOL0     C69276   1.627   2.168   1.141 -0.0742  0.0504 -0.4820
  514MOL0     C69277   1.712   2.293   1.151  0.1501  0.5809  0.4600
  514MOL0     C69278   1.742   2.348   1.006  0.0315  0.2188 -0.4491
  514MOL0     O69279   1.837   2.459   1.011 -0.3489  0.2795 -0.7039
  514MOL0     C69280   1.792   2.581   1.071 -0.2033 -0.8425  0.7345
  514MOL0     C69281   1.896   2.662   1.123  1.3275  0.0134  0.4815
  514MOL0     C69282   1.870   2.774   1.196 -0.1090  0.0008 -0.3186
  514MOL0     C69283   1.981   2.856   1.243 -0.2933 -0.6167  0.7141
  514MOL0     C69284   1.738   2.816   1.207 -0.7301 -0.4107 -0.0114
  514MOL0     C69285   1.698   2.926   1.292  0.4244 -0.3238  0.5988
  514MOL0     O69286   1.674   3.039   1.208  0.0027 -0.4895 -0.3585
  514MOL0     C69287   1.662   3.155   1.282  0.4985  0.1161 -0.2482
  514MOL0     C69288   1.766   3.203   1.367 -0.4584  0.5803  1.1543
  514MOL0     C69289   1.758   3.317   1.445 -0.2162  0.2810  0.6263
  514MOL0     C69290   1.636   3.379   1.453  0.8629 -0.0232 -0.0417
  514MOL0     O69291   1.608   3.485   1.543 -0.5196  0.3735 -0.7571
  514MOL0     C69292   1.624   3.448   1.681  0.0555 -0.1262  0.1343
  514MOL0     C69293   1.634   3.575   1.770  0.6532  0.1769 -0.5441
  514MOL0     C69294   1.673   3.542   1.914 -0.0993  0.0969  0.0645
  514MOL0     C69295   1.596   3.404   1.960  0.1026  0.2627 -0.3779
  514MOL0     C69296   1.598   3.390   2.119  0.7116  0.4050  0.9014
  514MOL0     C69297   1.534   3.253   2.163  0.0270  0.3033  0.2110
  514MOL0     C69298   1.567   3.223   2.313  0.7771  0.0591  0.2869
  514MOL0     C69299   1.451   3.128   2.371  0.5092 -0.1624 -0.7451
  514MOL0    Cl69300   1.455   2.975   2.280  0.1087  0.0033 -0.0901
  514MOL0     C69301   1.528   3.342   1.359 -0.8591 -0.7875 -0.3209
  514MOL0     C69302   1.546   3.229   1.278 -0.4217 -0.0383 -0.7914
  514MOL0     O69303   1.692   2.917   1.410  0.4765 -0.1768  0.6153
  514MOL0     C69304   1.628   2.746   1.155 -0.7070  0.7062  0.6507
  514MOL0     C69305   1.664   2.631   1.079  0.4054  0.9398  0.2029
  514MOL0     N69306   1.333   2.399   1.064  0.2259 -0.4367 -0.0383
  514MOL0     N69307   1.287   2.486   1.151  0.1655 -0.4169 -0.4878
  514MOL0     C69308   1.919   3.089   2.155 -0.7227 -0.0484  0.3552
  514MOL0     C69309   2.024   3.182   2.191 -0.1389 -0.2734 -0.4585
  514MOL0     C69310   2.211   3.577   2.213 -0.4054 -0.2311 -0.2188
  514MOL0     C69311   2.348   3.547   2.195  1.1400 -0.3077 -0.4614
  514MOL0     C69312   2.436   3.634   2.255  0.1300  0.6815 -0.0731
  514MOL0     C69313   2.394   3.750   2.311  1.2906  0.5385 -0.1438
  514MOL0     O69314   2.496   3.836   2.342  0.1091 -0.6795  0.4633
  514MOL0     C69315   2.511   3.839   2.484  0.4900 -0.7940 -0.0827
  514MOL0     C69316   2.639   3.890   2.546 -0.0506 -0.5742 -0.5646
  514MOL0     C69317   2.647   4.044   2.542  0.7096 -0.3291  0.2910
  514MOL0     C69318   2.679   4.091   2.400  0.5954  0.1030 -0.2273
  514MOL0     C69319   2.734   4.230   2.395 -0.0828  0.5155 -0.1598
  514MOL0     C69320   2.773   4.338   2.380 -0.6289  0.2998 -0.3121
  514MOL0     C69321   2.260   3.778   2.331  0.6791  0.2185  0.0664
  514MOL0     C69322   2.164   3.686   2.289 -0.7125  0.0794  0.2151
  514MOL0     H69323   2.066   3.335   1.895 -1.2930  0.3896 -0.8879
  514MOL0     H69324   1.876   3.186   1.830  0.8449 -0.5762  0.0919
  514MOL0     H69325   1.782   2.845   2.093  1.3410  2.1797  2.0537
  514MOL0     H69326   1.686   2.975   2.170  5.2487  1.3908  0.6665
  514MOL0     H69327   1.535   2.792   2.099  2.1055 -1.5634  0.5002
  514MOL0     H69328   1.505   2.938   2.013  0.8816  2.1437  4.7591
  514MOL0     H69329   1.656   2.828   1.811 -1.4376 -1.5111 -2.2677
  514MOL0     H69330   1.654   2.686   1.915  2.6787  0.2967 -2.6982
  514MOL0     H69331   1.424   2.659   1.896 -0.4477  1.1177 -0.4927
  514MOL0     H69332   1.406   2.823   1.840  2.3982  2.4575 -1.3318
  514MOL0     H69333   1.513   2.781   1.638  3.0439 -0.3295  0.3981
  514MOL0     H69334   1.550   2.613   1.691 -3.5298 -3.8561 -0.0880
  514MOL0     H69335   1.312   2.536   1.658 -1.8743 -2.8940 -4.5737
  514MOL0     H69336   1.276   2.700   1.605 -2.1186 -2.2333 -2.9921
  514MOL0     H69337   1.414   2.668   1.414 -0.1594 -0.2174 -0.9955
  514MOL0     H69338   1.479   2.507   1.473  0.8871  0.7146  0.9793
  514MOL0     H69339   1.192   2.580   1.386  0.4317 -0.0560 -2.1435
  514MOL0     H69340   1.243   2.422   1.450 -1.3578 -1.0374 -2.0211
  514MOL0     H69341   1.472   2.299   1.339 -1.0750  0.2617  0.5251
  514MOL0     H69342   1.435   2.091   1.087 -2.3795  2.2895  0.7938
  514MOL0     H69343   1.506   2.185   0.966 -0.9319 -3.3714 -0.9385
  514MOL0     H69344   1.683   2.088   1.090  2.5340 -0.0537  2.2353
  514MOL0     H69345   1.611   2.129   1.242 -2.0834 -3.7145 -2.0620
  514MOL0     H69346   1.799   2.265   1.211  0.2019  1.4360  0.7902
  514MOL0     H69347   1.670   2.370   1.216 -2.4302 -2.8323  3.1989
  514MOL0     H69348   1.654   2.378   0.947 -0.0287 -2.1560 -1.6818
  514MOL0     H69349   1.793   2.269   0.950  0.8188 -0.6230  1.3810
  514MOL0     H69350   1.996   2.620   1.113 -0.1346 -4.6157  2.5569
  514MOL0     H69351   1.946   2.957   1.265  1.1183 -0.3033  1.6864
  514MOL0     H69352   2.032   2.816   1.332 -0.0153 -1.1953  0.3011
  514MOL0     H69353   2.055   2.869   1.163 -0.3705  1.3250  0.9314
  514MOL0     H69354   1.861   3.154   1.350  0.3616  2.5336 -0.1514
  514MOL0     H69355   1.840   3.342   1.512 -1.0553 -2.4527  2.8936
  514MOL0     H69356   1.548   3.381   1.720 -0.4351 -1.0592 -2.2717
  514MOL0     H69357   1.716   3.389   1.688  0.5165  0.1863 -2.4248
  514MOL0     H69358   1.713   3.639   1.730 -0.1288  0.1312 -2.2675
  514MOL0     H69359   1.540   3.632   1.768  1.2916  1.2537 -0.7963
  514MOL0     H69360   1.638   3.621   1.982  0.1865  0.8449 -0.6368
  514MOL0     H69361   1.782   3.537   1.927 -0.2193  0.6086  1.5658
  514MOL0     H69362   1.489   3.405   1.938 -0.2601  1.6455  1.1961
  514MOL0     H69363   1.651   3.319   1.920 -1.2187 -0.1410 -1.3965
  514MOL0     H69364   1.560   3.476   2.175  1.1284  0.6021  0.8816
  514MOL0     H69365   1.704   3.390   2.145  1.1495 -1.1177 -0.6439
  514MOL0     H69366   1.433   3.236   2.122  1.5822 -2.5848 -2.9245
  514MOL0     H69367   1.586   3.173   2.110 -1.4629  0.4324 -1.5548
  514MOL0     H69368   1.585   3.311   2.375  1.3884 -0.4128  0.7929
  514MOL0     H69369   1.663   3.170   2.303  0.4019 -0.9015  1.5371
  514MOL0     H69370   1.351   3.171   2.357 -0.6000 -2.4217 -0.1286
  514MOL0     H69371   1.479   3.112   2.476  1.0463  1.4421 -0.6160
  514MOL0     H69372   1.435   3.395   1.373 -1.2424 -2.2921  4.1941
  514MOL0     H69373   1.460   3.190   1.224 -0.1155 -0.5914 -0.8881
  514MOL0     H69374   1.528   2.787   1.161 -0.9479  0.1824  0.3166
  514MOL0     H69375   1.591   2.579   1.018 -0.7217  2.7311 -0.0620
  514MOL0     H69376   1.874   3.031   2.234 -2.6734 -3.1640 -2.7467
  514MOL0     H69377   2.067   3.185   2.291  2.2398 -4.2239 -1.1327
  514MOL0     H69378   2.371   3.457   2.139 -1.1868  0.1121 -2.2460
  514MOL0     H69379   2.543   3.614   2.263 -0.5164 -4.5168 -0.7925
  514MOL0     H69380   2.428   3.894   2.530  1.6077  0.6143  0.3297
  514MOL0     H69381   2.501   3.734   2.511 -2.4045 -1.3112 -2.5840
  514MOL0     H69382   2.724   3.840   2.499 -0.3095 -1.9867  0.4060
  514MOL0     H69383   2.622   3.867   2.652 -1.6145  0.3547 -0.5732
  514MOL0     H69384   2.722   4.084   2.611  1.2089  1.7488 -1.3473
  514MOL0     H69385   2.551   4.085   2.575 -0.2346 -2.0878 -0.1616
  514MOL0     H69386   2.586   4.084   2.343  1.1772  0.4991 -1.2522
  514MOL0     H69387   2.748   4.024   2.347 -0.0460 -0.8476  0.1153
  514MOL0     H69388   2.806   4.440   2.383 -0.5597  0.2599  0.9808
  514MOL0     H69389   2.222   3.867   2.380 -0.2492 -0.1512  0.0230
  514MOL0     H69390   2.058   3.702   2.311 -0.4050  0.9733  1.1431
  515MOL0     O69391   8.329  10.302  10.197 -0.5125 -0.0899 -0.5815
  515MOL0     C69392   8.336  10.272  10.077 -0.7305 -0.7243  0.1488
  515MOL0     O69393   8.257  10.183  10.008  0.6373 -0.2910 -0.3269
  515MOL0     C69394   8.156  10.131  10.083 -0.3428 -0.0964 -0.7054
  515MOL0     C69395   8.186  10.009  10.141  0.0223  0.5839 -0.1034
  515MOL0     C69396   8.101   9.948  10.226  1.1348 -0.2542 -0.8448
  515MOL0     C69397   7.970  10.000  10.247 -0.3069  0.4823  0.4267
  515MOL0     O69398   7.876   9.947  10.335  0.4496  0.6585 -0.3102
  515MOL0     C69399   7.922   9.846  10.425 -0.5319  0.1679 -0.5298
  515MOL0     C69400   7.822   9.830  10.551 -0.0951 -0.0304 -1.0142
  515MOL0     C69401   7.860   9.911  10.678 -0.8080 -0.7131 -0.3277
  515MOL0     C69402   7.793  10.045  10.690 -1.2473 -0.6595  0.5010
  515MOL0     C69403   7.851  10.135  10.798  0.3203  0.5694 -0.3053
  515MOL0     C69404   7.771  10.258  10.832  0.1052  0.2528 -0.4453
  515MOL0     C69405   7.638  10.231  10.915  0.4523  0.0129  0.0988
  515MOL0     C69406   7.537  10.345  10.911 -0.4501 -0.3768  0.6495
  515MOL0     N69407   7.584  10.457  10.995 -0.2294  0.0746 -0.2360
  515MOL0     C69408   7.686  10.552  10.976 -0.0506  1.0217  0.0828
  515MOL0     C69409   7.664  10.657  11.056  0.7957 -1.1086 -0.0788
  515MOL0     C69410   7.752  10.775  11.067 -0.0298 -0.5146 -0.2705
  515MOL0     C69411   7.738  10.852  11.194 -1.1733 -0.8472 -1.1058
  515MOL0     C69412   7.832  10.813  11.305  0.3899 -0.1855  0.4970
  515MOL0     C69413   7.846  10.927  11.403 -0.2072  0.4321 -0.2656
  515MOL0     O69414   7.961  10.923  11.489 -0.5156 -0.0861  0.0653
  515MOL0     C69415   7.990  11.017  11.591  0.5213 -0.0300 -0.4492
  515MOL0     C69416   7.950  11.151  11.583  0.0438 -0.2331  0.0193
  515MOL0     C69417   7.976  11.249  11.681  0.6734 -0.1746 -0.2419
  515MOL0     C69418   7.928  11.390  11.652 -0.4141  0.3429 -1.1009
  515MOL0     C69419   8.063  11.213  11.787 -0.2802  0.4729  0.5781
  515MOL0     C69420   8.110  11.321  11.876 -0.6704  0.2698  0.8178
  515MOL0     O69421   8.231  11.319  11.932 -0.1338  0.0087 -0.4738
  515MOL0     C69422   8.305  11.425  11.990  0.7332  0.2896  0.3001
  515MOL0     C69423   8.397  11.418  12.089 -0.7472 -0.0784  0.8377
  515MOL0     C69424   8.479  11.525  12.134 -0.5623 -1.3792  0.4779
  515MOL0     C69425   8.467  11.646  12.059 -0.3235  0.2084 -1.6380
  515MOL0     O69426   8.527  11.762  12.092 -0.3701 -0.3351  0.0276
  515MOL0     C69427   8.678  11.752  12.101  1.3339  0.1661 -0.7385
  515MOL0     C69428   8.726  11.830  12.219 -0.4787  0.2681  0.3917
  515MOL0     C69429   8.704  11.770  12.359  0.2568 -0.7387  0.1898
  515MOL0     C69430   8.793  11.643  12.380  0.6581  0.2549  0.5409
  515MOL0     C69431   8.802  11.595  12.524 -0.3405  0.2771  0.0368
  515MOL0     C69432   8.679  11.513  12.571  0.3133 -0.8126  0.4447
  515MOL0     C69433   8.671  11.371  12.512 -0.3192 -0.5514  0.2993
  515MOL0     C69434   8.546  11.293  12.555  0.1337  0.1120  0.2282
  515MOL0    Cl69435   8.542  11.271  12.731 -0.1924 -0.0805 -0.1244
  515MOL0     C69436   8.380  11.647  11.946 -1.0716  0.1161  1.0050
  515MOL0     C69437   8.312  11.540  11.912  0.6213 -0.1542 -0.0125
  515MOL0     O69438   8.028  11.405  11.911  0.4116 -0.2690  0.2898
  515MOL0     C69439   8.104  11.083  11.802  0.0582 -0.3955  0.0711
  515MOL0     C69440   8.074  10.982  11.708 -0.2496  0.2819 -0.1001
  515MOL0     N69441   7.556  10.619  11.137  0.3959  0.7051  0.1550
  515MOL0     N69442   7.518  10.488  11.103 -1.6585 -1.1334  0.6222
  515MOL0     C69443   7.933  10.108  10.173 -0.0727  0.2364 -0.3823
  515MOL0     C69444   8.022  10.172  10.087 -0.4390  0.5132  0.4947
  515MOL0     C69445   8.446  10.337  10.005 -0.1219  0.9129  0.2717
  515MOL0     C69446   8.543  10.427  10.063  0.1531 -0.4196  0.6395
  515MOL0     C69447   8.611  10.515   9.977 -0.8099  0.0109  1.1153
  515MOL0     C69448   8.620  10.498   9.844  0.9079  0.2205 -0.4140
  515MOL0     O69449   8.693  10.588   9.768 -0.7745  0.0086  0.2877
  515MOL0     C69450   8.723  10.570   9.628 -0.2935 -0.0979 -1.3760
  515MOL0     C69451   8.795  10.699   9.583  0.0692  0.7735 -0.2396
  515MOL0     C69452   8.937  10.717   9.632 -0.4894  0.2011 -0.5545
  515MOL0     C69453   8.957  10.749   9.780 -0.1448  1.0988 -0.2016
  515MOL0     C69454   9.085  10.692   9.825 -0.7746 -0.3891  0.6296
  515MOL0     C69455   9.195  10.655   9.874  0.4440  0.8619  1.7109
  515MOL0     C69456   8.532  10.407   9.783 -0.1005 -0.3831  0.3737
  515MOL0     C69457   8.452  10.325   9.857  0.3859 -0.3986  0.1864
  515MOL0     H69458   8.289   9.973  10.140  0.6134  2.2007 -0.8378
  515MOL0     H69459   8.129   9.853  10.272 -2.7651  0.0976  2.8945
  515MOL0     H69460   7.918   9.753  10.368 -2.3456  0.4079 -0.8778
  515MOL0     H69461   8.022   9.870  10.462 -1.1752  1.7039  0.3108
  515MOL0     H69462   7.717   9.826  10.523 -1.3076 -2.0258  3.0409
  515MOL0     H69463   7.841   9.724  10.572 -1.1883 -0.2070 -0.8843
  515MOL0     H69464   7.832   9.850  10.764 -2.7997 -0.3027 -0.6429
  515MOL0     H69465   7.969   9.924  10.680 -1.0969  2.5220  0.3217
  515MOL0     H69466   7.797  10.106  10.599 -0.2577 -1.4498 -0.0137
  515MOL0     H69467   7.687  10.036  10.713 -1.4980 -0.8490 -0.6555
  515MOL0     H69468   7.851  10.073  10.888 -2.6673  1.4944  0.4438
  515MOL0     H69469   7.955  10.162  10.776  1.8191 -3.0680  1.4171
  515MOL0     H69470   7.833  10.320  10.897 -0.4786  0.6993 -0.2998
  515MOL0     H69471   7.741  10.312  10.741 -2.3516 -0.0637  0.0880
  515MOL0     H69472   7.597  10.137  10.878  2.0792 -0.5063 -0.4586
  515MOL0     H69473   7.665  10.205  11.018 -1.7635 -0.0491  0.7086
  515MOL0     H69474   7.442  10.307  10.949  0.3081 -1.4407  1.5377
  515MOL0     H69475   7.523  10.374  10.806 -0.1404  1.3100  1.0479
  515MOL0     H69476   7.762  10.539  10.899 -1.2043 -0.6061 -0.8467
  515MOL0     H69477   7.859  10.757  11.053 -0.5168 -3.3317 -0.8820
  515MOL0     H69478   7.714  10.833  10.982  0.9567  0.8021  0.1403
  515MOL0     H69479   7.633  10.852  11.225 -1.7451  1.7659 -2.7699
  515MOL0     H69480   7.756  10.956  11.165 -1.2868 -1.1071 -2.1558
  515MOL0     H69481   7.925  10.803  11.248 -0.5410  0.3339 -1.1596
  515MOL0     H69482   7.797  10.721  11.354 -0.8875  0.8137  1.5511
  515MOL0     H69483   7.756  10.919  11.464 -0.5558  2.9524 -0.3523
  515MOL0     H69484   7.849  11.022  11.349  1.4656 -0.8394 -2.6105
  515MOL0     H69485   7.908  11.183  11.489  0.2673 -0.5692 -0.1963
  515MOL0     H69486   7.863  11.406  11.739 -0.8239 -1.9899 -0.9094
  515MOL0     H69487   8.014  11.458  11.651  0.2432 -0.4123 -4.0555
  515MOL0     H69488   7.875  11.420  11.561 -0.5914 -0.8056 -1.3905
  515MOL0     H69489   8.384  11.324  12.140  1.7487 -1.9150 -1.6238
  515MOL0     H69490   8.540  11.519  12.224 -1.0094 -2.0012  0.7517
  515MOL0     H69491   8.722  11.652  12.104  1.8022  0.1196 -4.2114
  515MOL0     H69492   8.724  11.806  12.018  1.2130  0.4662 -0.6102
  515MOL0     H69493   8.833  11.850  12.213 -0.9864  2.8500 -1.6926
  515MOL0     H69494   8.669  11.921  12.203 -2.0312 -0.8547 -0.8739
  515MOL0     H69495   8.597  11.767  12.381 -0.3859 -2.6064 -2.6583
  515MOL0     H69496   8.762  11.840  12.420  2.7403 -1.7674 -0.8213
  515MOL0     H69497   8.754  11.560  12.321 -0.3854  1.4299 -0.4897
  515MOL0     H69498   8.896  11.652  12.346  0.2916  0.3557 -0.5753
  515MOL0     H69499   8.816  11.678  12.595 -0.2490  2.3864 -2.2915
  515MOL0     H69500   8.888  11.528  12.529 -1.4711 -1.2184 -0.0712
  515MOL0     H69501   8.676  11.508  12.681 -2.4044  1.5984  0.5997
  515MOL0     H69502   8.593  11.573  12.540 -0.0030 -0.7246  1.4495
  515MOL0     H69503   8.766  11.321  12.533 -0.4181 -0.2204  1.6620
  515MOL0     H69504   8.654  11.386  12.405 -2.7888  2.6288  0.9721
  515MOL0     H69505   8.539  11.197  12.504  0.0473 -0.5161  1.4047
  515MOL0     H69506   8.463  11.358  12.524  0.2038  1.0592  1.8688
  515MOL0     H69507   8.364  11.740  11.893 -5.3033  1.3038  3.8022
  515MOL0     H69508   8.254  11.537  11.820 -0.7343 -2.6597  0.8369
  515MOL0     H69509   8.175  11.056  11.880  1.8090  0.0005 -1.3124
  515MOL0     H69510   8.118  10.884  11.725  1.4687  1.2875  1.6600
  515MOL0     H69511   7.833  10.145  10.193 -0.2925 -1.6140  2.6889
  515MOL0     H69512   7.990  10.268  10.047  3.4229  1.9224  0.3398
  515MOL0     H69513   8.569  10.451  10.166 -0.9475  1.1716  0.5751
  515MOL0     H69514   8.664  10.600  10.021  0.5741  0.9530 -2.0867
  515MOL0     H69515   8.789  10.483   9.617  0.3553  0.3751 -1.3348
  515MOL0     H69516   8.628  10.555   9.576 -4.6144 -0.6000  5.4773
  515MOL0     H69517   8.742  10.792   9.609  1.1548  0.7926  2.1798
  515MOL0     H69518   8.781  10.691   9.475 -1.4998  1.7858 -0.1499
  515MOL0     H69519   8.985  10.803   9.585  0.8786  0.1804  0.7397
  515MOL0     H69520   8.990  10.623   9.614  1.3722 -0.9963  7.5219
  515MOL0     H69521   8.891  10.693   9.847  1.6885 -2.0492 -0.8259
  515MOL0     H69522   8.940  10.854   9.802 -0.9501  0.4034  2.9620
  515MOL0     H69523   9.291  10.634   9.918  0.5657 -2.7683  0.0245
  515MOL0     H69524   8.528  10.391   9.676 -0.0461 -1.5997  0.5467
  515MOL0     H69525   8.384  10.256   9.809  1.4895 -2.4523  1.4445
  516MOL0     O69526  10.753   4.344   6.481 -0.3952 -0.6380 -0.2944
  516MOL0     C69527  10.827   4.290   6.559 -0.3397 -0.3383 -0.1360
  516MOL0     O69528  10.906   4.352   6.653  0.0757 -0.3882 -0.8273
  516MOL0     C69529  10.868   4.480   6.677 -0.4994 -0.2190  0.8216
  516MOL0     C69530  10.744   4.522   6.711 -0.0953  0.2660  0.0220
  516MOL0     C69531  10.724   4.634   6.783 -1.0779 -0.2776  0.1114
  516MOL0     C69532  10.827   4.735   6.793 -0.0855 -1.0133  0.4819
  516MOL0     O69533  10.807   4.858   6.824 -0.1614 -0.1418 -0.7665
  516MOL0     C69534  10.693   4.909   6.749  0.1211  0.6577 -1.0012
  516MOL0     C69535  10.654   5.048   6.801 -0.4045 -0.4541  0.3659
  516MOL0     C69536  10.552   5.111   6.712 -0.1988 -0.1378 -0.0394
  516MOL0     C69537  10.473   5.232   6.755  0.6550 -0.4603  0.0059
  516MOL0     C69538  10.557   5.365   6.745 -0.2672 -0.2574  0.5297
  516MOL0     C69539  10.477   5.490   6.768  0.2926 -0.4238  0.4001
  516MOL0     C69540  10.566   5.618   6.741  0.3782 -0.3028 -0.4916
  516MOL0     C69541  10.706   5.613   6.808  0.6975  0.0578 -0.3987
  516MOL0     N69542  10.757   5.748   6.842 -0.1659 -0.5980 -0.0705
  516MOL0     C69543  10.800   5.835   6.744  0.2634  0.1823 -1.0215
  516MOL0     C69544  10.831   5.950   6.805  0.7113 -0.7935 -0.8531
  516MOL0     C69545  10.884   6.075   6.742  0.7045 -0.9160  0.1893
  516MOL0     C69546  10.823   6.101   6.603 -0.2934  0.0503  0.2494
  516MOL0     C69547  10.689   6.157   6.596  1.2426  0.9395 -0.4065
  516MOL0     C69548  10.696   6.309   6.617  0.5339  0.7261 -0.0940
  516MOL0     O69549  10.564   6.365   6.587  0.0599 -0.4476 -0.1262
  516MOL0     C69550  10.544   6.501   6.579 -0.8160  0.0478 -0.6618
  516MOL0     C69551  10.628   6.608   6.607 -0.5237  0.7715  0.4676
  516MOL0     C69552  10.593   6.740   6.596  0.4937  0.0873  1.3055
  516MOL0     C69553  10.680   6.839   6.664 -0.1775 -0.5131  0.3649
  516MOL0     C69554  10.453   6.762   6.542 -0.7571  1.1564  0.9212
  516MOL0     C69555  10.405   6.895   6.522  0.3813 -0.4231 -0.6400
  516MOL0     O69556  10.314   6.908   6.426  0.6848  0.1200  0.0462
  516MOL0     C69557  10.259   7.028   6.388  0.3924 -0.3239 -0.5467
  516MOL0     C69558  10.181   7.106   6.475  0.3505 -0.7853  0.2969
  516MOL0     C69559  10.108   7.209   6.426  0.4235 -0.4141  0.1884
  516MOL0     C69560  10.113   7.252   6.293  0.0963 -0.0777  0.0555
  516MOL0     O69561  10.053   7.372   6.265 -0.2591 -0.1714  0.2613
  516MOL0     C69562  10.127   7.458   6.179 -0.4029  0.4094  0.0889
  516MOL0     C69563  10.088   7.604   6.187  0.4979  0.1332 -0.1102
  516MOL0     C69564   9.930   7.616   6.179  1.0402  0.6531 -0.7535
  516MOL0     C69565   9.887   7.737   6.092 -0.9931  0.3977 -1.6131
  516MOL0     C69566   9.739   7.725   6.063  0.4768  1.3250 -0.5717
  516MOL0     C69567   9.687   7.837   5.962 -0.4706 -0.7674 -0.4151
  516MOL0     C69568   9.575   7.802   5.870 -0.4357  1.4014  0.6666
  516MOL0     C69569   9.436   7.834   5.930 -0.1262  0.1603 -0.9799
  516MOL0    Cl69570   9.324   7.758   5.821  0.1365 -0.4840  0.1982
  516MOL0     C69571  10.180   7.181   6.199 -0.3304  1.2530 -0.0842
  516MOL0     C69572  10.247   7.060   6.249 -0.1247  0.2058  0.0903
  516MOL0     O69573  10.429   6.983   6.610  0.1756 -0.1080 -0.0250
  516MOL0     C69574  10.371   6.656   6.505  0.0375 -0.4831 -0.6057
  516MOL0     C69575  10.413   6.527   6.534  1.0038  0.3472 -0.8981
  516MOL0     N69576  10.822   5.929   6.949  0.1906  0.1528  1.0960
  516MOL0     N69577  10.789   5.796   6.971  0.9572 -0.8668  0.1101
  516MOL0     C69578  10.959   4.696   6.762 -0.9177  0.5119  0.0893
  516MOL0     C69579  10.975   4.566   6.710  0.2347 -0.4031  0.0921
  516MOL0     C69580  10.862   4.145   6.533  0.2592 -0.0086  0.2064
  516MOL0     C69581  10.846   4.092   6.404  0.5547  0.2666  0.4629
  516MOL0     C69582  10.906   3.976   6.362  0.4878  0.7005  0.3382
  516MOL0     C69583  10.982   3.911   6.458 -0.2186  0.7098 -0.5268
  516MOL0     O69584  11.045   3.801   6.408  0.0740  0.0558 -0.4901
  516MOL0     C69585  11.053   3.684   6.492 -0.5070 -0.2637 -0.1018
  516MOL0     C69586  11.156   3.589   6.425 -0.7789  0.2701  0.3600
  516MOL0     C69587  11.305   3.635   6.449 -0.5455 -0.0846 -1.4166
  516MOL0     C69588  11.371   3.595   6.582 -0.5404 -0.1286 -0.4102
  516MOL0     C69589  11.326   3.672   6.700 -0.3905 -0.5524  0.2462
  516MOL0     C69590  11.303   3.734   6.795  0.0105 -1.2252 -0.5200
  516MOL0     C69591  10.989   3.959   6.598  0.3638  0.1587  0.1554
  516MOL0     C69592  10.937   4.081   6.627  0.0647  0.2355  0.6144
  516MOL0     H69593  10.665   4.448   6.700 -0.2557  0.4600 -0.1473
  516MOL0     H69594  10.618   4.646   6.806 -1.1097 -0.2106 -0.0661
  516MOL0     H69595  10.722   4.895   6.645 -1.0198 -2.0529 -1.0305
  516MOL0     H69596  10.605   4.845   6.760  0.3936  0.6308  1.9549
  516MOL0     H69597  10.634   5.042   6.908  1.2477  3.2978  1.0206
  516MOL0     H69598  10.745   5.109   6.802  0.1110 -1.2063  1.3548
  516MOL0     H69599  10.606   5.142   6.622  0.6213 -0.0615  0.4701
  516MOL0     H69600  10.490   5.023   6.694  0.2532 -0.7487  1.2660
  516MOL0     H69601  10.387   5.235   6.687  0.1259  2.1301  0.6836
  516MOL0     H69602  10.442   5.221   6.859  0.9570 -0.6980  0.0707
  516MOL0     H69603  10.643   5.353   6.812 -0.1782  1.5287  0.7621
  516MOL0     H69604  10.596   5.378   6.643  0.1607 -0.1177  0.7070
  516MOL0     H69605  10.390   5.501   6.702  0.8103  0.9951 -0.0744
  516MOL0     H69606  10.457   5.485   6.875  1.2157 -1.0558  0.5565
  516MOL0     H69607  10.577   5.631   6.633 -2.0246 -1.8562 -0.9909
  516MOL0     H69608  10.505   5.699   6.783  0.4480  0.3436 -1.5925
  516MOL0     H69609  10.759   5.556   6.731 -0.8556  0.5394 -1.8704
  516MOL0     H69610  10.708   5.558   6.903  1.6817  2.6872  1.2021
  516MOL0     H69611  10.793   5.817   6.637  0.6063 -0.0985 -0.9971
  516MOL0     H69612  10.858   6.164   6.799  1.4411 -1.3928  1.3149
  516MOL0     H69613  10.993   6.075   6.735  0.6102 -0.8494 -2.2087
  516MOL0     H69614  10.832   6.012   6.540  1.2248 -1.3250  2.2938
  516MOL0     H69615  10.884   6.174   6.549  2.7430 -2.1892  0.4136
  516MOL0     H69616  10.622   6.119   6.673  2.0209 -0.5860 -0.4405
  516MOL0     H69617  10.640   6.137   6.501  1.1768  1.7996 -0.5565
  516MOL0     H69618  10.778   6.353   6.559  1.1653 -1.0912 -0.6453
  516MOL0     H69619  10.722   6.319   6.722  1.3537 -2.3513  0.0870
  516MOL0     H69620  10.719   6.586   6.661 -0.4202  0.3742  0.1394
  516MOL0     H69621  10.684   6.828   6.773  1.7335  2.1201  0.6542
  516MOL0     H69622  10.785   6.825   6.636 -0.6044  1.2554 -2.6618
  516MOL0     H69623  10.655   6.943   6.639  2.1175  0.0686  0.3176
  516MOL0     H69624  10.162   7.060   6.571  0.5380 -1.3582  0.0678
  516MOL0     H69625  10.040   7.263   6.492 -0.8072 -0.7988 -0.7286
  516MOL0     H69626  10.232   7.446   6.206 -0.3801 -1.7185 -0.7477
  516MOL0     H69627  10.108   7.418   6.079  0.6853 -2.4986  0.9271
  516MOL0     H69628  10.120   7.641   6.285  0.2095  0.5912 -0.1851
  516MOL0     H69629  10.130   7.656   6.100 -2.4512  0.8711 -1.2361
  516MOL0     H69630   9.891   7.620   6.281  1.2179 -1.1045 -0.5837
  516MOL0     H69631   9.884   7.524   6.141 -0.2063 -0.1438  2.3626
  516MOL0     H69632   9.909   7.833   6.139  1.3042 -1.3203  1.1381
  516MOL0     H69633   9.945   7.732   5.999  2.1189 -3.4025  0.2449
  516MOL0     H69634   9.686   7.737   6.158 -3.6082  0.5053 -2.5365
  516MOL0     H69635   9.725   7.623   6.027  0.2629 -0.3944  3.8262
  516MOL0     H69636   9.677   7.935   6.009 -1.4265 -1.5049  0.9873
  516MOL0     H69637   9.773   7.849   5.895 -2.7232  2.4109 -3.0128
  516MOL0     H69638   9.591   7.694   5.856  2.4092  1.3014  3.6332
  516MOL0     H69639   9.579   7.846   5.770  3.1157 -0.3752 -0.1343
  516MOL0     H69640   9.420   7.942   5.932  1.5560  0.4335 -0.8889
  516MOL0     H69641   9.439   7.790   6.030  1.5168  0.0360 -1.0563
  516MOL0     H69642  10.160   7.201   6.094 -1.0391 -3.9150 -1.1764
  516MOL0     H69643  10.295   6.992   6.180  1.8711 -0.6705  2.2078
  516MOL0     H69644  10.273   6.682   6.467 -0.4501  1.3697  1.6630
  516MOL0     H69645  10.341   6.447   6.517 -1.6175  2.0924  1.2400
  516MOL0     H69646  11.043   4.762   6.786 -1.5461  1.1512  0.5792
  516MOL0     H69647  11.074   4.522   6.708  0.8151  0.6684 -4.2920
  516MOL0     H69648  10.793   4.147   6.327  0.7746  0.8945  0.7568
  516MOL0     H69649  10.894   3.935   6.262  1.8599  1.2937 -0.0864
  516MOL0     H69650  11.080   3.699   6.597 -2.4949 -3.8119  1.1025
  516MOL0     H69651  10.951   3.646   6.490 -0.6043 -0.0229  0.2803
  516MOL0     H69652  11.131   3.576   6.319  0.7925 -0.6139  0.0734
  516MOL0     H69653  11.152   3.495   6.480 -0.9877  0.9302  1.4976
  516MOL0     H69654  11.314   3.744   6.439 -1.5187 -0.0953 -2.7605
  516MOL0     H69655  11.367   3.587   6.373 -1.5131 -2.0860 -0.9938
  516MOL0     H69656  11.476   3.625   6.585 -0.2132 -1.2628  1.5079
  516MOL0     H69657  11.366   3.487   6.598  2.7727 -0.4788 -1.0540
  516MOL0     H69658  11.300   3.791   6.885  0.9339  0.1723 -1.3449
  516MOL0     H69659  11.042   3.910   6.679  1.2354  0.8582  0.0278
  516MOL0     H69660  10.958   4.115   6.728 -1.9492 -0.4485  1.3163
  517MOL0     O69661  10.958   2.417   4.921  0.1038 -0.2994 -0.0218
  517MOL0     C69662  11.052   2.482   4.959 -0.9827  0.6052 -0.7085
  517MOL0     O69663  11.063   2.614   4.994 -0.0163 -1.0543  0.2817
  517MOL0     C69664  10.950   2.684   4.983  0.8284 -0.8857 -0.2621
  517MOL0     C69665  10.878   2.703   5.098  0.4844  0.1102 -0.0561
  517MOL0     C69666  10.752   2.763   5.096 -0.3278 -0.1622  0.4600
  517MOL0     C69667  10.712   2.815   4.973  0.4711 -0.5075  0.2364
  517MOL0     O69668  10.609   2.911   4.968 -0.2110  0.1475  0.7021
  517MOL0     C69669  10.517   2.932   5.074 -0.3334 -1.1805 -0.6918
  517MOL0     C69670  10.561   3.033   5.179  0.4663 -0.2646  0.8553
  517MOL0     C69671  10.516   3.169   5.135  0.2445 -0.1419 -0.1776
  517MOL0     C69672  10.591   3.275   5.225  1.0586 -0.5295  0.4942
  517MOL0     C69673  10.567   3.406   5.171 -0.9008  0.0519 -0.4403
  517MOL0     C69674  10.608   3.518   5.276 -0.2355  0.0896 -0.4156
  517MOL0     C69675  10.574   3.654   5.215  0.2645  0.2589  0.5123
  517MOL0     C69676  10.655   3.669   5.082  0.4978  0.2342  0.3479
  517MOL0     N69677  10.677   3.812   5.065  0.1375 -0.3294  0.2536
  517MOL0     C69678  10.578   3.899   5.013  0.1045 -0.7343  0.9234
  517MOL0     C69679  10.630   4.023   5.028  0.6924 -0.1304 -0.6570
  517MOL0     C69680  10.570   4.153   4.993  0.3744  0.1291  0.2281
  517MOL0     C69681  10.468   4.147   4.873  0.1128  0.3839 -0.5045
  517MOL0     C69682  10.411   4.282   4.840 -0.1445 -0.2098 -0.9237
  517MOL0     C69683  10.321   4.260   4.717  1.4344  0.2626  0.6545
  517MOL0     O69684  10.399   4.275   4.596  0.1330  0.5208  0.5841
  517MOL0     C69685  10.336   4.341   4.488 -0.4933 -0.0067  0.0590
  517MOL0     C69686  10.208   4.314   4.453 -0.3147  0.2378 -0.4104
  517MOL0     C69687  10.162   4.369   4.329  0.4249  0.5540  0.1397
  517MOL0     C69688  10.015   4.328   4.293  0.3957  0.5668  1.3257
  517MOL0     C69689  10.238   4.452   4.255 -1.4079 -0.0186  0.8106
  517MOL0     C69690  10.207   4.501   4.116 -0.3416  0.1149  0.0538
  517MOL0     O69691  10.280   4.442   4.018 -1.0341  0.8558 -0.3222
  517MOL0     C69692  10.219   4.429   3.895  0.6757 -1.0958 -0.6946
  517MOL0     C69693  10.222   4.542   3.817  0.3856 -0.0040  0.0271
  517MOL0     C69694  10.161   4.533   3.693  0.0433 -0.3015  0.4344
  517MOL0     C69695  10.075   4.429   3.665  0.2899  0.0092  0.3331
  517MOL0     O69696   9.982   4.427   3.561  0.6768  1.0859  0.3690
  517MOL0     C69697  10.004   4.506   3.447  0.1302 -0.4609 -0.3046
  517MOL0     C69698  10.138   4.479   3.379  0.9988  0.4133  0.0171
  517MOL0     C69699  10.172   4.572   3.260 -1.1268  0.2882 -0.8753
  517MOL0     C69700  10.080   4.554   3.139 -0.2538  0.5217  0.1613
  517MOL0     C69701   9.983   4.672   3.137 -0.4314  0.1101 -0.1387
  517MOL0     C69702   9.895   4.669   3.011  0.0633 -0.1698 -0.0518
  517MOL0     C69703   9.970   4.715   2.871 -0.2510 -0.5641  0.1423
  517MOL0     C69704   9.870   4.721   2.768  0.8367  0.9687 -0.6124
  517MOL0    Cl69705   9.948   4.710   2.602 -0.1428  0.3067  0.2218
  517MOL0     C69706  10.069   4.319   3.748  0.6187 -0.3387  0.1900
  517MOL0     C69707  10.153   4.318   3.856  1.0345 -0.6901  0.9098
  517MOL0     O69708  10.121   4.585   4.096 -0.0730  0.4350  0.1721
  517MOL0     C69709  10.378   4.482   4.298  0.4632  0.5931 -0.1917
  517MOL0     C69710  10.409   4.436   4.420 -0.8493 -0.0168 -0.1963
  517MOL0     N69711  10.754   4.009   5.084  1.0173  0.1195  0.1063
  517MOL0     N69712  10.774   3.882   5.127  1.6153 -0.1501 -0.2844
  517MOL0     C69713  10.779   2.785   4.850  0.0646 -0.4796 -0.4566
  517MOL0     C69714  10.903   2.714   4.857  0.5036 -0.0979  0.3936
  517MOL0     C69715  11.184   2.414   4.979  0.3130 -0.0271 -0.0497
  517MOL0     C69716  11.299   2.486   4.952 -0.4493 -0.9743  0.7277
  517MOL0     C69717  11.427   2.422   4.969  0.1716 -0.3269 -0.2864
  517MOL0     C69718  11.440   2.295   5.019 -0.1610  0.5643  0.3392
  517MOL0     O69719  11.561   2.237   5.031 -0.2052  0.3647 -0.5745
  517MOL0     C69720  11.598   2.182   5.156 -0.5214  0.4130 -0.0367
  517MOL0     C69721  11.756   2.177   5.176 -0.1683  0.6338  0.0120
  517MOL0     C69722  11.834   2.103   5.063 -0.2142 -0.3177  0.3476
  517MOL0     C69723  11.754   1.994   5.000 -0.4188  0.2895 -0.9487
  517MOL0     C69724  11.831   1.896   4.925 -0.0237 -0.4467 -0.4277
  517MOL0     C69725  11.900   1.851   4.830  0.4777  0.3907  0.4843
  517MOL0     C69726  11.323   2.218   5.039 -0.7426 -1.2233 -0.1362
  517MOL0     C69727  11.200   2.282   5.028  0.1644 -0.1951  0.7445
  517MOL0     H69728  10.904   2.670   5.198 -2.0859 -1.7277  0.1015
  517MOL0     H69729  10.699   2.773   5.191  1.3003 -0.5969  1.4624
  517MOL0     H69730  10.416   2.944   5.034 -1.5330 -1.2657  2.0715
  517MOL0     H69731  10.501   2.837   5.125 -1.7181 -0.3694  0.4425
  517MOL0     H69732  10.520   3.003   5.276 -4.0528  1.3229 -0.3357
  517MOL0     H69733  10.670   3.031   5.191  0.4973 -0.3779  0.5544
  517MOL0     H69734  10.556   3.186   5.035  4.2501 -2.0081  0.9044
  517MOL0     H69735  10.409   3.192   5.133  0.7472  3.7054  3.2863
  517MOL0     H69736  10.555   3.253   5.325  0.2373  0.5885  0.4571
  517MOL0     H69737  10.699   3.261   5.241  1.3445  0.9313  0.0064
  517MOL0     H69738  10.620   3.423   5.076 -2.3558  3.6218 -0.8052
  517MOL0     H69739  10.462   3.410   5.140 -0.3893 -0.7798 -2.4549
  517MOL0     H69740  10.560   3.510   5.375  0.9470  2.3328  0.4076
  517MOL0     H69741  10.715   3.499   5.282 -0.0294  1.5674  1.5457
  517MOL0     H69742  10.466   3.672   5.202  1.0642  4.3969 -2.7701
  517MOL0     H69743  10.611   3.718   5.295  0.9075 -0.4671  0.8021
  517MOL0     H69744  10.609   3.624   4.993  2.5304 -1.1645 -0.0810
  517MOL0     H69745  10.746   3.609   5.090 -0.3791 -0.9654  1.9213
  517MOL0     H69746  10.484   3.872   4.968  1.7738 -0.2817 -3.2979
  517MOL0     H69747  10.529   4.202   5.081 -1.0781 -0.1483 -0.2525
  517MOL0     H69748  10.649   4.218   4.953 -1.4403  1.9479 -0.5763
  517MOL0     H69749  10.392   4.073   4.902  3.4646 -4.0004 -1.7910
  517MOL0     H69750  10.519   4.100   4.789  1.0356 -2.4307  1.4883
  517MOL0     H69751  10.487   4.357   4.816  1.1475 -1.3747 -0.6062
  517MOL0     H69752  10.350   4.312   4.926 -0.2206  0.4644 -1.2063
  517MOL0     H69753  10.228   4.317   4.717  1.7104  0.8151 -1.5240
  517MOL0     H69754  10.291   4.155   4.718  0.6992  0.4685  0.6845
  517MOL0     H69755  10.155   4.242   4.513  0.5783 -0.2874 -0.2270
  517MOL0     H69756   9.977   4.273   4.380 -0.3438 -0.6997  0.2298
  517MOL0     H69757   9.948   4.414   4.283  1.5310  1.3814  0.5349
  517MOL0     H69758  10.025   4.266   4.204  1.5416  2.6268 -0.0533
  517MOL0     H69759  10.260   4.639   3.847 -2.9503  1.0491  1.2723
  517MOL0     H69760  10.174   4.620   3.630  1.0419  3.2086  4.9748
  517MOL0     H69761   9.920   4.470   3.386 -1.3994 -4.2678  3.4652
  517MOL0     H69762   9.978   4.610   3.470 -3.9432 -1.9858  3.6630
  517MOL0     H69763  10.217   4.503   3.450  0.7686  0.2810  0.3167
  517MOL0     H69764  10.134   4.377   3.342 -1.9479 -1.1582  4.0040
  517MOL0     H69765  10.267   4.535   3.222  0.7880  3.4201  0.4673
  517MOL0     H69766  10.198   4.676   3.279 -0.2735 -0.3721  2.0123
  517MOL0     H69767  10.149   4.575   3.057 -1.0123  4.1918  0.2761
  517MOL0     H69768  10.043   4.452   3.134  1.5339 -0.3153  2.1482
  517MOL0     H69769  10.034   4.769   3.140 -2.2831  1.1319 -0.1618
  517MOL0     H69770   9.912   4.657   3.218  1.2716  2.0365  1.8306
  517MOL0     H69771   9.853   4.571   2.987  2.0251 -0.3921 -3.0237
  517MOL0     H69772   9.814   4.741   3.029 -1.5087 -0.7994 -3.6754
  517MOL0     H69773  10.042   4.639   2.840 -2.3358 -2.4958 -0.2729
  517MOL0     H69774  10.017   4.813   2.875  2.3259 -1.6824 -0.3809
  517MOL0     H69775   9.810   4.812   2.772 -1.0534 -0.2445  1.5385
  517MOL0     H69776   9.803   4.636   2.788  3.3803 -0.5843  2.3548
  517MOL0     H69777  10.018   4.228   3.720  2.4158 -1.5960  0.8453
  517MOL0     H69778  10.158   4.233   3.924 -1.8082 -2.5800 -1.0293
  517MOL0     H69779  10.445   4.537   4.233 -0.5893 -2.1769 -3.9949
  517MOL0     H69780  10.503   4.464   4.466  0.3813  0.5952 -2.9164
  517MOL0     H69781  10.753   2.831   4.754 -1.3744 -0.4029 -0.0580
  517MOL0     H69782  10.960   2.703   4.765  1.4687  3.9102  0.3035
  517MOL0     H69783  11.297   2.584   4.904  1.3193 -0.6704  1.2072
  517MOL0     H69784  11.516   2.483   4.957  0.8111 -1.5045 -1.7743
  517MOL0     H69785  11.562   2.246   5.237 -0.1656 -0.2112  0.6278
  517MOL0     H69786  11.550   2.085   5.169  2.1185 -0.7363  2.0977
  517MOL0     H69787  11.782   2.135   5.273 -4.1870 -0.9741  0.5746
  517MOL0     H69788  11.785   2.283   5.179 -3.7509  1.7776 -0.8151
  517MOL0     H69789  11.924   2.066   5.113  1.6011  2.8363 -0.2707
  517MOL0     H69790  11.853   2.179   4.987  0.5865 -1.0585 -0.2082
  517MOL0     H69791  11.674   2.027   4.932  0.1455 -1.5263 -2.6092
  517MOL0     H69792  11.704   1.943   5.083 -0.7414  0.0676 -1.2742
  517MOL0     H69793  11.960   1.829   4.744  1.2658  1.3844  0.7576
  517MOL0     H69794  11.341   2.116   5.070  4.4490 -0.2110  1.3371
  517MOL0     H69795  11.103   2.238   5.051  0.6137 -1.7104 -0.1178
  518MOL0     O69796   7.587   9.626   3.056 -0.1344 -0.4912  0.7486
  518MOL0     C69797   7.495   9.651   2.984 -0.1572 -0.3554  0.2457
  518MOL0     O69798   7.366   9.636   3.020  0.7238  0.5436 -0.3722
  518MOL0     C69799   7.332   9.579   3.146 -0.4993  0.2011  0.6528
  518MOL0     C69800   7.283   9.449   3.154  0.0593  0.5105 -0.4230
  518MOL0     C69801   7.273   9.379   3.277  1.0164 -0.6240  1.0032
  518MOL0     C69802   7.298   9.454   3.392  0.3892  0.2265 -0.5622
  518MOL0     O69803   7.304   9.400   3.525 -0.1243  0.2024  0.1932
  518MOL0     C69804   7.214   9.299   3.556  0.0766 -0.5465  0.0543
  518MOL0     C69805   7.240   9.259   3.707  0.1864  0.3361  1.2404
  518MOL0     C69806   7.148   9.357   3.788  0.3435  0.6846 -0.7106
  518MOL0     C69807   7.182   9.342   3.937  0.1222  0.6880 -0.0098
  518MOL0     C69808   7.112   9.444   4.015 -0.7560  0.9269  0.3198
  518MOL0     C69809   7.167   9.449   4.154 -0.0051 -0.5139 -0.6275
  518MOL0     C69810   7.074   9.539   4.234  0.1931  0.4159 -0.1220
  518MOL0     C69811   7.115   9.529   4.390  0.2666 -0.7046  0.5348
  518MOL0     N69812   7.079   9.409   4.468  0.5659  0.4476 -0.5704
  518MOL0     C69813   6.951   9.378   4.513  0.6514 -0.8351  0.6267
  518MOL0     C69814   6.955   9.253   4.559 -0.5037  0.0096  0.6060
  518MOL0     C69815   6.832   9.180   4.606  0.1977  0.1005  0.4831
  518MOL0     C69816   6.865   9.063   4.703  0.7129 -0.3089 -0.3408
  518MOL0     C69817   6.900   8.928   4.645  0.1882  1.0928  0.1230
  518MOL0     C69818   6.920   8.819   4.745  0.2645 -0.2673  0.1489
  518MOL0     O69819   6.797   8.787   4.822 -0.1302 -0.3679 -0.1522
  518MOL0     C69820   6.801   8.664   4.876  1.3531 -0.1848 -0.4906
  518MOL0     C69821   6.792   8.553   4.788  0.4655  0.0717  0.2439
  518MOL0     C69822   6.798   8.424   4.835 -0.1258  0.0130 -0.2770
  518MOL0     C69823   6.750   8.314   4.746 -0.0681 -0.2935  0.2942
  518MOL0     C69824   6.819   8.394   4.967  0.0234  1.0545 -0.7511
  518MOL0     C69825   6.851   8.261   5.020 -0.3193  0.2792  1.2549
  518MOL0     O69826   6.913   8.172   4.943  1.2190 -0.3430  0.5270
  518MOL0     C69827   6.893   8.039   4.967 -0.8572  0.2452  0.2549
  518MOL0     C69828   6.887   7.950   4.848 -1.5388 -0.6410 -0.2887
  518MOL0     C69829   6.877   7.813   4.870  0.2771  0.0825  0.0376
  518MOL0     C69830   6.858   7.753   4.992  0.5705  0.2622  0.8937
  518MOL0     O69831   6.834   7.618   4.985  0.3492  0.6314 -0.1682
  518MOL0     C69832   6.776   7.555   5.102 -0.4770 -1.3071 -0.5587
  518MOL0     C69833   6.761   7.408   5.081 -1.0439  0.4243  1.1756
  518MOL0     C69834   6.691   7.343   5.202 -0.6064  0.8313 -0.0932
  518MOL0     C69835   6.704   7.195   5.179 -0.0069 -0.5463  0.5767
  518MOL0     C69836   6.700   7.120   5.311  0.8194 -0.1656 -0.2641
  518MOL0     C69837   6.707   6.973   5.290 -0.4171  0.6423  0.1524
  518MOL0     C69838   6.714   6.905   5.429 -0.1955 -0.8465  0.4108
  518MOL0     C69839   6.719   6.756   5.418 -0.2494  0.3870  0.9152
  518MOL0    Cl69840   6.882   6.699   5.389  0.0744  0.2228 -0.1700
  518MOL0     C69841   6.862   7.838   5.108 -0.0061 -0.7484 -0.0610
  518MOL0     C69842   6.890   7.974   5.096  0.6880 -0.7454 -0.7895
  518MOL0     O69843   6.821   8.247   5.141 -0.5483 -0.4063 -0.7461
  518MOL0     C69844   6.816   8.504   5.061  0.7486 -0.2356 -0.8040
  518MOL0     C69845   6.810   8.637   5.015  0.0272 -0.1333 -0.8748
  518MOL0     N69846   7.090   9.223   4.538  0.6405  0.2826 -0.1921
  518MOL0     N69847   7.169   9.306   4.483  0.1189  0.1351  0.6193
  518MOL0     C69848   7.335   9.585   3.387  0.3342  0.4160 -0.1067
  518MOL0     C69849   7.367   9.646   3.265  0.7660  1.1171  0.6448
  518MOL0     C69850   7.521   9.721   2.860  0.6814 -0.5944 -0.4532
  518MOL0     C69851   7.646   9.794   2.850 -0.2977 -1.0428 -0.6049
  518MOL0     C69852   7.673   9.866   2.732 -1.2415 -1.1959  0.5071
  518MOL0     C69853   7.580   9.873   2.626 -0.6343  0.4432  0.0444
  518MOL0     O69854   7.603   9.942   2.513  0.4339 -0.0301 -0.6623
  518MOL0     C69855   7.727   9.949   2.465 -0.0963 -0.6832  0.9483
  518MOL0     C69856   7.798   9.820   2.447  0.6715  0.3330  0.4625
  518MOL0     C69857   7.736   9.747   2.332  0.4137  0.4181  0.2475
  518MOL0     C69858   7.816   9.623   2.284 -0.5711 -0.8942 -1.3509
  518MOL0     C69859   7.765   9.580   2.156  0.7452 -0.2285  1.0639
  518MOL0     C69860   7.754   9.557   2.033  1.1940  0.8906  0.3260
  518MOL0     C69861   7.462   9.801   2.643 -0.0595 -0.8275  0.6738
  518MOL0     C69862   7.431   9.718   2.750 -0.7589 -0.4191  0.1204
  518MOL0     H69863   7.272   9.390   3.064  0.2258 -0.5759  0.2534
  518MOL0     H69864   7.238   9.276   3.268  4.1240 -1.7947  1.1535
  518MOL0     H69865   7.110   9.330   3.543  0.6774  0.8772 -1.8022
  518MOL0     H69866   7.226   9.208   3.498 -1.2408 -0.0736 -1.0244
  518MOL0     H69867   7.208   9.156   3.724 -0.4822  0.1967 -0.7005
  518MOL0     H69868   7.347   9.256   3.732  0.4023  1.0768  0.4484
  518MOL0     H69869   7.177   9.457   3.753 -0.5260  1.8647  1.7257
  518MOL0     H69870   7.042   9.337   3.769  0.4979 -2.6616  1.1526
  518MOL0     H69871   7.146   9.245   3.973 -3.2412  2.1792  1.0213
  518MOL0     H69872   7.290   9.352   3.953 -0.2072  0.7656  2.6287
  518MOL0     H69873   7.122   9.542   3.968  1.6576  1.4071  1.6787
  518MOL0     H69874   7.007   9.416   4.029 -0.2765 -0.1694  2.0602
  518MOL0     H69875   7.185   9.352   4.199  0.4853  0.4125  1.2819
  518MOL0     H69876   7.262   9.502   4.159 -0.4929  0.4549 -1.2048
  518MOL0     H69877   7.093   9.638   4.191  0.2915 -0.3921 -2.0002
  518MOL0     H69878   6.967   9.519   4.232  0.2376  0.2294 -0.8457
  518MOL0     H69879   7.071   9.615   4.441  1.9956  2.0495 -2.2736
  518MOL0     H69880   7.224   9.544   4.394  0.1479  0.8676 -1.2070
  518MOL0     H69881   6.858   9.433   4.523 -0.9365 -3.3293  0.3887
  518MOL0     H69882   6.772   9.247   4.668 -1.0892  1.9117 -2.4668
  518MOL0     H69883   6.771   9.156   4.518  1.9292 -2.1752 -0.1901
  518MOL0     H69884   6.773   9.041   4.758 -0.0775 -1.3334 -1.9660
  518MOL0     H69885   6.950   9.107   4.755  1.7509 -0.5434 -1.7835
  518MOL0     H69886   6.988   8.933   4.579  0.8266 -0.3812  0.8133
  518MOL0     H69887   6.814   8.902   4.583  0.3075  0.8532  0.0561
  518MOL0     H69888   7.007   8.833   4.809  0.5582  0.7993 -0.4500
  518MOL0     H69889   6.952   8.735   4.683  0.1075 -1.0982  1.1782
  518MOL0     H69890   6.788   8.582   4.684  3.2393 -1.4205 -0.3741
  518MOL0     H69891   6.835   8.256   4.708 -2.1273 -1.6002 -2.7319
  518MOL0     H69892   6.681   8.247   4.798 -2.1286  1.5082  0.0469
  518MOL0     H69893   6.707   8.354   4.653 -2.1630 -1.2471  0.7836
  518MOL0     H69894   6.915   7.988   4.750 -0.3040 -2.5553 -0.7430
  518MOL0     H69895   6.888   7.745   4.786 -0.3098 -0.0224  0.0429
  518MOL0     H69896   6.840   7.580   5.187 -3.1450 -1.3267  1.5704
  518MOL0     H69897   6.676   7.598   5.114  0.7032  2.2973 -2.2466
  518MOL0     H69898   6.714   7.384   4.985  1.0430  1.3161 -0.1501
  518MOL0     H69899   6.863   7.369   5.075 -0.8375  0.6523  2.8829
  518MOL0     H69900   6.584   7.365   5.209 -0.2788  2.0437  2.3011
  518MOL0     H69901   6.726   7.379   5.299 -1.2695 -0.6522  0.7297
  518MOL0     H69902   6.613   7.165   5.127 -0.8441  1.2479  0.9306
  518MOL0     H69903   6.795   7.169   5.124 -0.6564  1.5285 -1.6219
  518MOL0     H69904   6.609   7.148   5.367  1.4041  1.0810  0.0871
  518MOL0     H69905   6.779   7.161   5.374 -0.1543 -0.5499  1.2798
  518MOL0     H69906   6.621   6.941   5.231  1.2359  0.4238 -2.3006
  518MOL0     H69907   6.796   6.951   5.231 -1.5369  0.3489 -1.4887
  518MOL0     H69908   6.613   6.917   5.470 -0.2261 -0.4252  0.2237
  518MOL0     H69909   6.793   6.945   5.493  0.8120 -3.9602  1.2924
  518MOL0     H69910   6.655   6.722   5.336  1.3909  1.0450 -0.7331
  518MOL0     H69911   6.685   6.708   5.510  0.2522 -2.6540 -0.3699
  518MOL0     H69912   6.865   7.802   5.210 -0.4111 -1.3780 -0.2689
  518MOL0     H69913   6.897   8.030   5.189  3.2442 -3.7610  1.0262
  518MOL0     H69914   6.829   8.487   5.168 -1.7452  1.0193 -0.2191
  518MOL0     H69915   6.810   8.718   5.088 -3.5650  1.3059 -2.2269
  518MOL0     H69916   7.364   9.635   3.479  1.8113 -0.9008  0.1897
  518MOL0     H69917   7.402   9.749   3.261  0.6580  1.1679  1.0115
  518MOL0     H69918   7.721   9.814   2.926 -0.1019  3.4831 -1.7307
  518MOL0     H69919   7.763   9.925   2.737 -1.3293 -0.9356 -0.6289
  518MOL0     H69920   7.722  10.001   2.369 -3.3458  1.0126  1.8852
  518MOL0     H69921   7.787  10.018   2.526 -0.8822  1.0524 -0.1406
  518MOL0     H69922   7.801   9.758   2.538 -1.4274 -2.2042 -1.0579
  518MOL0     H69923   7.902   9.850   2.432  0.1895  0.4063 -3.5855
  518MOL0     H69924   7.740   9.824   2.255  3.4764 -1.1805 -1.3801
  518MOL0     H69925   7.633   9.720   2.354  1.0663 -1.9186  0.7495
  518MOL0     H69926   7.813   9.540   2.355  1.3155  0.7976  0.8737
  518MOL0     H69927   7.921   9.649   2.272 -0.8243  1.0534  0.1846
  518MOL0     H69928   7.746   9.530   1.929  2.0262 -0.9725  0.7153
  518MOL0     H69929   7.385   9.808   2.566  0.6457 -3.0862 -0.3278
  518MOL0     H69930   7.331   9.674   2.755 -0.7710 -0.2891  1.8340
  519MOL0     O69931   8.417   9.892  10.462  0.2615 -0.3805 -0.9097
  519MOL0     C69932   8.447   9.824  10.369 -0.2536  0.3443 -0.4680
  519MOL0     O69933   8.392   9.703  10.335  0.2147 -0.0683  0.1672
  519MOL0     C69934   8.314   9.638  10.433 -0.4733  0.0006  0.6605
  519MOL0     C69935   8.343   9.622  10.569  0.8981 -0.2856 -0.3133
  519MOL0     C69936   8.249   9.545  10.648 -1.4901 -0.0098  0.5026
  519MOL0     C69937   8.133   9.492  10.599  0.7447 -0.5790  1.1922
  519MOL0     O69938   8.029   9.444  10.675  0.1398 -0.1729 -0.2897
  519MOL0     C69939   8.050   9.443  10.822  0.6451 -0.3385 -0.3104
  519MOL0     C69940   7.927   9.366  10.878  0.2829  0.1948 -0.2038
  519MOL0     C69941   7.921   9.363  11.032  0.3932 -0.2811 -0.4691
  519MOL0     C69942   7.772   9.337  11.075 -0.8873  0.0593 -0.1366
  519MOL0     C69943   7.768   9.340  11.230 -0.7184  0.1502  0.1189
  519MOL0     C69944   7.769   9.481  11.288 -0.2139 -0.1251 -0.2911
  519MOL0     C69945   7.724   9.488  11.440 -0.3810  0.3750  0.3519
  519MOL0     C69946   7.776   9.366  11.531 -0.0058  0.2099  0.3168
  519MOL0     N69947   7.788   9.404  11.668 -0.9139  0.2160  0.5341
  519MOL0     C69948   7.685   9.393  11.758 -0.2026 -0.1451 -0.0064
  519MOL0     C69949   7.750   9.375  11.877  0.1308 -0.4570 -0.4953
  519MOL0     C69950   7.680   9.368  12.010 -0.1938  0.0742 -0.0751
  519MOL0     C69951   7.757   9.294  12.118  0.3184  0.2103 -0.4435
  519MOL0     C69952   7.687   9.278  12.242  1.0558  0.3150 -0.2137
  519MOL0     C69953   7.561   9.181  12.240  0.0361 -0.4568 -0.3845
  519MOL0     O69954   7.528   9.160  12.381 -0.3532 -0.1508 -0.4029
  519MOL0     C69955   7.583   9.066  12.456  0.7269  0.5167  0.2325
  519MOL0     C69956   7.529   9.058  12.585  0.1748  0.8458 -0.4369
  519MOL0     C69957   7.555   8.963  12.683 -0.4526  0.4485 -0.9594
  519MOL0     C69958   7.483   8.967  12.816 -0.6803  0.5422 -0.2533
  519MOL0     C69959   7.657   8.861  12.656  0.5939 -0.0294 -0.0215
  519MOL0     C69960   7.697   8.755  12.750 -0.1346 -0.1229  0.1490
  519MOL0     O69961   7.680   8.763  12.885 -1.0548  0.0456 -0.0621
  519MOL0     C69962   7.704   8.649  12.960  0.0386  0.0192  0.3470
  519MOL0     C69963   7.821   8.645  13.029  0.0518  1.1488  1.1789
  519MOL0     C69964   7.849   8.551  13.130  0.6584 -0.2919 -0.3696
  519MOL0     C69965   7.752   8.454  13.157  0.4582  0.7506 -0.8051
  519MOL0     O69966   7.779   8.341  13.235 -0.4368 -0.3122 -0.7403
  519MOL0     C69967   7.882   8.340  13.337  0.5643 -0.0691 -0.1948
  519MOL0     C69968   7.866   8.212  13.424 -0.0184 -0.2709 -0.5223
  519MOL0     C69969   7.951   8.223  13.553  0.7160  0.5892 -0.0330
  519MOL0     C69970   7.925   8.085  13.633 -1.1103 -0.6163  0.3394
  519MOL0     C69971   8.000   8.074  13.764  1.0476  0.0529 -0.7822
  519MOL0     C69972   7.906   8.076  13.884 -0.9202 -0.3058 -0.4361
  519MOL0     C69973   7.805   8.195  13.896  0.7676  0.8197 -0.7300
  519MOL0     C69974   7.702   8.192  14.011  0.3352 -0.1686 -0.0392
  519MOL0    Cl69975   7.601   8.043  14.001 -0.2436 -0.3727  0.1064
  519MOL0     C69976   7.638   8.452  13.083  1.0104 -0.4166  0.1758
  519MOL0     C69977   7.611   8.548  12.986 -0.2876  0.8500  0.2535
  519MOL0     O69978   7.738   8.661  12.692  0.3797  0.3032 -0.1357
  519MOL0     C69979   7.694   8.858  12.519 -0.5762 -0.2141 -0.2528
  519MOL0     C69980   7.657   8.956  12.419 -0.1771  0.0609  0.4038
  519MOL0     N69981   7.884   9.364  11.850 -0.0024 -0.1366 -0.5999
  519MOL0     N69982   7.912   9.384  11.726  0.2738 -0.5377  0.0150
  519MOL0     C69983   8.121   9.495  10.460  0.4275  0.2335 -0.5281
  519MOL0     C69984   8.211   9.562  10.380 -0.1325  0.4970  0.5678
  519MOL0     C69985   8.546   9.879  10.271  0.1491  0.4804 -0.6177
  519MOL0     C69986   8.582  10.015  10.271  0.2706  0.2186 -0.1971
  519MOL0     C69987   8.678  10.071  10.187 -0.2261  0.6266 -0.0857
  519MOL0     C69988   8.722   9.988  10.080  0.0528  0.1339 -1.4062
  519MOL0     O69989   8.802  10.034   9.981 -0.2978 -0.9837 -0.4719
  519MOL0     C69990   8.831  10.168   9.970  0.4829  0.5830 -0.5039
  519MOL0     C69991   8.952  10.172   9.869 -0.7797 -1.7514 -0.9012
  519MOL0     C69992   8.996  10.319   9.839  0.7203 -0.1339  0.3295
  519MOL0     C69993   9.090  10.335   9.722  0.1806 -0.5404  0.1614
  519MOL0     C69994   9.168  10.220   9.684  0.0141 -0.0569 -0.5726
  519MOL0     C69995   9.252  10.140   9.663 -0.4149  0.1204 -0.2503
  519MOL0     C69996   8.687   9.852  10.085 -1.5276  0.0904  0.5492
  519MOL0     C69997   8.600   9.794  10.184  0.0135 -0.5410  0.6676
  519MOL0     H69998   8.426   9.669  10.621 -1.6564  1.5530  2.4384
  519MOL0     H69999   8.278   9.535  10.752 -1.5458  0.2167  0.5417
  519MOL0     H70000   8.149   9.403  10.846  1.1763  1.2813  0.3059
  519MOL0     H70001   8.045   9.547  10.856 -1.1292 -0.9233  1.4213
  519MOL0     H70002   7.850   9.429  10.833  1.3709  1.1122 -0.8528
  519MOL0     H70003   7.918   9.263  10.844 -1.6005 -0.4944  2.1563
  519MOL0     H70004   7.981   9.282  11.075  2.2866  1.4482  0.3488
  519MOL0     H70005   7.962   9.452  11.082  1.4334 -1.4093  0.7856
  519MOL0     H70006   7.713   9.417  11.030  1.4664  0.7314 -2.2240
  519MOL0     H70007   7.734   9.243  11.032 -0.5670  0.0544 -0.4123
  519MOL0     H70008   7.674   9.293  11.261 -1.2836  1.4033  0.3842
  519MOL0     H70009   7.854   9.287  11.270 -0.3935  0.7054  0.1697
  519MOL0     H70010   7.869   9.525  11.276  0.2495 -0.8077  0.8689
  519MOL0     H70011   7.708   9.552  11.232 -0.2700  1.2605  1.4291
  519MOL0     H70012   7.759   9.582  11.485 -0.6936  1.3047 -1.2727
  519MOL0     H70013   7.615   9.482  11.445 -0.4847 -0.0199 -1.7252
  519MOL0     H70014   7.872   9.335  11.491  0.2014  0.0038  0.9565
  519MOL0     H70015   7.712   9.279  11.514 -1.2058  1.4186 -1.7648
  519MOL0     H70016   7.579   9.411  11.752 -0.2774  0.2292  1.8316
  519MOL0     H70017   7.656   9.468  12.047 -0.7855 -0.4202  0.9267
  519MOL0     H70018   7.584   9.317  11.996 -2.3432  3.6163  0.4953
  519MOL0     H70019   7.854   9.343  12.127  1.4173 -1.3646 -2.7287
  519MOL0     H70020   7.788   9.198  12.076 -0.4935 -0.0880 -0.3715
  519MOL0     H70021   7.671   9.377  12.286  0.3492  0.8465 -1.5967
  519MOL0     H70022   7.757   9.234  12.313  0.9148 -1.3069 -1.0448
  519MOL0     H70023   7.570   9.085  12.189 -1.0593  0.2246 -1.9292
  519MOL0     H70024   7.479   9.236  12.193 -1.6951 -1.1538  1.6645
  519MOL0     H70025   7.461   9.137  12.614 -1.0740 -1.0083  1.9656
  519MOL0     H70026   7.431   8.875  12.841  2.1588 -0.8784  0.8907
  519MOL0     H70027   7.549   8.987  12.901  0.9607 -4.0247 -0.1809
  519MOL0     H70028   7.410   9.049  12.820 -0.9278  0.2950  2.6618
  519MOL0     H70029   7.893   8.724  13.010  0.6951  0.9823  2.8225
  519MOL0     H70030   7.942   8.538  13.185  1.0154  2.5138 -0.1766
  519MOL0     H70031   7.979   8.344  13.286  0.6722 -2.7770 -0.3048
  519MOL0     H70032   7.866   8.427  13.402 -2.2787 -1.6723  1.4330
  519MOL0     H70033   7.759   8.200  13.443  0.1613 -0.0543  0.7211
  519MOL0     H70034   7.900   8.122  13.373  2.5527  0.0083  0.5434
  519MOL0     H70035   7.915   8.308  13.612  0.4707 -0.9661  2.1737
  519MOL0     H70036   8.056   8.234  13.526  1.5141 -1.5125  1.9286
  519MOL0     H70037   7.819   8.065  13.654 -0.9219  0.7016  2.9255
  519MOL0     H70038   7.966   8.006  13.570 -0.8664 -0.4494  0.2898
  519MOL0     H70039   8.074   8.149  13.794  2.4539 -1.8381  0.7513
  519MOL0     H70040   8.060   7.982  13.765 -2.0877 -2.1496  0.6552
  519MOL0     H70041   7.841   7.991  13.861 -0.0566 -1.1461  0.1856
  519MOL0     H70042   7.971   8.063  13.971 -2.2412 -0.2873  0.5954
  519MOL0     H70043   7.748   8.208  13.804 -0.8646  0.9708  0.2563
  519MOL0     H70044   7.860   8.289  13.899 -1.7457  2.3639 -0.4406
  519MOL0     H70045   7.630   8.274  14.006  2.9100  2.1431 -1.9403
  519MOL0     H70046   7.750   8.193  14.109  0.1274 -0.5003  0.0667
  519MOL0     H70047   7.564   8.374  13.098  2.3701 -1.4783  1.7363
  519MOL0     H70048   7.521   8.553  12.927  0.8596 -0.0720 -1.6812
  519MOL0     H70049   7.750   8.772  12.481 -1.0990  0.6774 -3.3257
  519MOL0     H70050   7.715   8.956  12.328 -0.5537  2.9110  0.0595
  519MOL0     H70051   8.032   9.445  10.423  0.0004  2.2219 -2.4434
  519MOL0     H70052   8.213   9.562  10.271  3.2361  0.9060  0.5270
  519MOL0     H70053   8.550  10.073  10.357 -1.4851 -0.3520 -0.4308
  519MOL0     H70054   8.719  10.170  10.203  2.5856 -0.4369 -0.0596
  519MOL0     H70055   8.746  10.229   9.936 -1.0726 -0.3262  1.5210
  519MOL0     H70056   8.852  10.206  10.070 -0.3658 -0.3939  0.0761
  519MOL0     H70057   8.934  10.130   9.770 -0.1207 -0.7496 -1.4670
  519MOL0     H70058   9.040  10.118   9.905  1.0181 -0.4385 -3.0229
  519MOL0     H70059   9.047  10.368   9.923  2.1293 -0.5856 -0.2175
  519MOL0     H70060   8.913  10.387   9.820  1.7502  1.4004  1.1366
  519MOL0     H70061   9.152  10.425   9.728 -3.4298  2.2765 -0.8614
  519MOL0     H70062   9.019  10.365   9.644  3.8433  1.6274 -2.6629
  519MOL0     H70063   9.314  10.054   9.647  1.7642  1.1316  2.0213
  519MOL0     H70064   8.728   9.773  10.024 -2.4819  0.5013 -0.6617
  519MOL0     H70065   8.588   9.687  10.170 -2.2416 -0.0110 -2.5759
  520MOL0     O70066   3.715   4.494   4.569 -0.1972 -0.0446  0.8878
  520MOL0     C70067   3.781   4.428   4.649 -0.7952 -0.4495  0.1569
  520MOL0     O70068   3.912   4.423   4.663 -0.0252 -0.4404 -0.1400
  520MOL0     C70069   4.004   4.519   4.622  0.6350  1.1914 -0.2075
  520MOL0     C70070   3.982   4.644   4.576  1.0163 -0.8755 -1.5502
  520MOL0     C70071   4.088   4.738   4.561  0.9217 -0.4817 -0.7430
  520MOL0     C70072   4.219   4.696   4.582  0.9357  1.1424  0.0707
  520MOL0     O70073   4.320   4.792   4.579  0.0744 -0.0695  0.5410
  520MOL0     C70074   4.458   4.779   4.620  0.2481  0.8545 -0.1816
  520MOL0     C70075   4.548   4.705   4.524  1.0598  1.1719  0.5257
  520MOL0     C70076   4.692   4.730   4.559 -0.7955 -0.7350 -1.0136
  520MOL0     C70077   4.768   4.628   4.471  0.1369  0.3570 -0.0445
  520MOL0     C70078   4.912   4.669   4.441  0.4234 -0.2294  0.5979
  520MOL0     C70079   4.990   4.658   4.572  0.3795 -0.2838  0.9628
  520MOL0     C70080   5.139   4.689   4.542 -0.7245  0.3913  0.3762
  520MOL0     C70081   5.218   4.690   4.671 -0.5476 -0.3171 -0.7136
  520MOL0     N70082   5.361   4.706   4.645  0.1242  1.0240 -0.3157
  520MOL0     C70083   5.468   4.638   4.706 -0.8808 -0.1483  0.9938
  520MOL0     C70084   5.575   4.702   4.653 -1.0301  0.0444 -0.3687
  520MOL0     C70085   5.707   4.674   4.705  2.1483 -0.4760 -0.2848
  520MOL0     C70086   5.812   4.664   4.593  0.1754 -0.2827  0.7512
  520MOL0     C70087   5.786   4.540   4.509 -0.3222  0.0377  0.5513
  520MOL0     C70088   5.908   4.523   4.411 -0.0061 -0.1750 -0.9284
  520MOL0     O70089   6.014   4.461   4.495 -0.8004 -0.5322  1.5371
  520MOL0     C70090   6.130   4.415   4.451 -0.5121  0.2017  0.3148
  520MOL0     C70091   6.209   4.341   4.533  0.4915  0.6313 -0.6079
  520MOL0     C70092   6.342   4.303   4.507  0.1787 -0.3007 -0.1453
  520MOL0     C70093   6.418   4.214   4.610 -0.9130  0.3665  0.2220
  520MOL0     C70094   6.389   4.329   4.380  0.6532 -0.6203  0.2081
  520MOL0     C70095   6.530   4.303   4.332 -1.1565 -1.2220 -0.0649
  520MOL0     O70096   6.559   4.342   4.200 -0.3086  0.4594  0.2922
  520MOL0     C70097   6.684   4.307   4.128 -0.3522 -0.3613  0.4020
  520MOL0     C70098   6.726   4.370   4.008 -0.0214 -0.4431 -0.2609
  520MOL0     C70099   6.846   4.339   3.945 -0.5065  0.5679 -0.3423
  520MOL0     C70100   6.923   4.235   3.989  0.1800 -0.2398 -0.0409
  520MOL0     O70101   7.030   4.197   3.916  0.3348 -0.2154  0.5614
  520MOL0     C70102   7.095   4.070   3.934  0.0356  0.5101  0.1103
  520MOL0     C70103   7.222   4.088   4.018 -0.1529  0.0253 -0.5103
  520MOL0     C70104   7.314   3.964   4.026  0.6265 -0.0106  0.6291
  520MOL0     C70105   7.344   3.910   3.883  0.1514 -0.5239  0.2434
  520MOL0     C70106   7.461   3.801   3.892  0.3900  0.7010  0.1939
  520MOL0     C70107   7.532   3.765   3.757  0.0181 -0.2674  0.5741
  520MOL0     C70108   7.631   3.637   3.783  1.0014  0.4951  0.3649
  520MOL0     C70109   7.694   3.594   3.648  0.4205  0.1619  0.8451
  520MOL0    Cl70110   7.576   3.564   3.525 -0.2718  0.1158 -0.0600
  520MOL0     C70111   6.887   4.171   4.110 -0.0222  0.9628 -0.2303
  520MOL0     C70112   6.767   4.205   4.170  0.1640  0.2193 -0.5801
  520MOL0     O70113   6.616   4.290   4.418  0.3972  0.2106 -0.0856
  520MOL0     C70114   6.304   4.405   4.294  0.2596  0.8104 -0.5351
  520MOL0     C70115   6.181   4.446   4.325  0.1443  0.1938  0.7737
  520MOL0     N70116   5.541   4.806   4.568  0.0849  0.0169 -0.3604
  520MOL0     N70117   5.406   4.801   4.559 -0.7578 -0.5581  0.3463
  520MOL0     C70118   4.243   4.564   4.620  0.1368  0.5892 -0.3680
  520MOL0     C70119   4.139   4.471   4.645  0.1306 -0.0957  0.1973
  520MOL0     C70120   3.698   4.351   4.749  0.0184  0.7893  0.0237
  520MOL0     C70121   3.562   4.362   4.747 -0.0460  1.0437 -0.1437
  520MOL0     C70122   3.487   4.282   4.842  0.4440 -0.3398  0.1801
  520MOL0     C70123   3.538   4.198   4.929 -0.1796 -0.1797 -0.1436
  520MOL0     O70124   3.452   4.135   5.013 -0.9781  0.1684 -0.2522
  520MOL0     C70125   3.523   4.057   5.114 -0.9586  0.6724  0.0432
  520MOL0     C70126   3.569   3.919   5.046 -0.0069 -1.1169  0.2458
  520MOL0     C70127   3.602   3.812   5.144 -0.6382  0.0038 -0.5344
  520MOL0     C70128   3.676   3.695   5.072  1.0102 -0.3743  0.0918
  520MOL0     C70129   3.579   3.608   4.996  0.2534  0.3025  0.6091
  520MOL0     C70130   3.503   3.530   4.942 -0.4351 -0.8591 -0.2695
  520MOL0     C70131   3.681   4.194   4.932  1.0532  1.1647 -0.3123
  520MOL0     C70132   3.761   4.270   4.850 -0.5062 -0.9769 -0.4255
  520MOL0     H70133   3.884   4.671   4.537  0.2461  0.3878  1.0517
  520MOL0     H70134   4.082   4.836   4.515  0.9297 -0.2005 -0.1466
  520MOL0     H70135   4.511   4.875   4.616  0.9442  0.4946  0.1501
  520MOL0     H70136   4.460   4.741   4.722 -1.0056 -0.2213 -0.5276
  520MOL0     H70137   4.518   4.599   4.524  2.5840  0.4798 -4.4165
  520MOL0     H70138   4.523   4.734   4.422  2.1592 -0.8548 -0.3962
  520MOL0     H70139   4.736   4.830   4.553 -2.1887  0.0463  0.7340
  520MOL0     H70140   4.715   4.711   4.664 -1.2209  1.8903 -0.3568
  520MOL0     H70141   4.755   4.535   4.526 -1.0522  0.2367 -0.4913
  520MOL0     H70142   4.720   4.618   4.374 -1.7940  1.1740  0.7662
  520MOL0     H70143   4.948   4.601   4.363 -0.3141 -0.1572  0.1872
  520MOL0     H70144   4.910   4.775   4.417 -3.5268 -0.1212  0.7250
  520MOL0     H70145   4.949   4.723   4.649 -1.1329  0.1094 -0.1225
  520MOL0     H70146   4.970   4.558   4.612  1.9484 -1.8269 -1.7567
  520MOL0     H70147   5.184   4.605   4.490  0.5388 -0.5854  2.8928
  520MOL0     H70148   5.160   4.775   4.478  0.5378 -0.6770 -0.6814
  520MOL0     H70149   5.207   4.597   4.727  2.3291  0.1964  0.8561
  520MOL0     H70150   5.189   4.779   4.729 -0.3159  0.5808 -1.9294
  520MOL0     H70151   5.468   4.565   4.786  1.7313 -0.8989  0.4322
  520MOL0     H70152   5.725   4.763   4.765  0.4920 -0.2692 -0.0532
  520MOL0     H70153   5.703   4.585   4.769 -0.6923 -1.1932 -1.3340
  520MOL0     H70154   5.912   4.675   4.636  0.3382 -0.1426  0.3515
  520MOL0     H70155   5.793   4.752   4.531 -4.4049 -0.4892  1.4993
  520MOL0     H70156   5.703   4.573   4.445 -0.1702  2.6600  1.5772
  520MOL0     H70157   5.763   4.457   4.577  2.1496 -1.5084 -0.3571
  520MOL0     H70158   5.948   4.618   4.374  1.2535 -0.9737 -1.7174
  520MOL0     H70159   5.877   4.467   4.323 -1.2985  0.9145 -1.2021
  520MOL0     H70160   6.182   4.310   4.634  1.1253 -3.7920 -1.5613
  520MOL0     H70161   6.361   4.189   4.700 -1.0660 -0.7691 -0.1639
  520MOL0     H70162   6.447   4.120   4.561  1.1729  1.2686 -0.3689
  520MOL0     H70163   6.507   4.266   4.647 -0.7316 -0.1609  0.5305
  520MOL0     H70164   6.663   4.453   3.980 -0.5353 -0.5396  0.5663
  520MOL0     H70165   6.859   4.408   3.862 -4.9008  0.7966 -1.0687
  520MOL0     H70166   7.041   3.984   3.975  1.8618 -0.4479  0.6087
  520MOL0     H70167   7.129   4.042   3.834 -0.2197  3.7215 -0.9867
  520MOL0     H70168   7.269   4.172   3.967 -2.8141  1.3940 -0.9270
  520MOL0     H70169   7.187   4.117   4.118 -0.6409 -2.6373  0.1555
  520MOL0     H70170   7.278   3.880   4.087  3.1482 -2.1911 -0.6586
  520MOL0     H70171   7.406   3.987   4.080  0.6330 -0.9087  1.0225
  520MOL0     H70172   7.258   3.853   3.847 -0.6132  0.1415  0.9856
  520MOL0     H70173   7.374   3.993   3.818  0.7563  1.3543  2.7523
  520MOL0     H70174   7.419   3.705   3.922 -0.4147  1.3523  1.2065
  520MOL0     H70175   7.534   3.825   3.969  0.6439 -0.5934  0.3713
  520MOL0     H70176   7.445   3.742   3.694  0.0435 -2.0022  1.1252
  520MOL0     H70177   7.583   3.856   3.724  4.4860 -2.8864 -0.5697
  520MOL0     H70178   7.566   3.559   3.823 -1.6577  1.3447 -1.9447
  520MOL0     H70179   7.706   3.663   3.858 -0.9885  0.1487  2.6101
  520MOL0     H70180   7.759   3.509   3.668  1.6205  0.4633 -1.4296
  520MOL0     H70181   7.755   3.680   3.619  0.9138 -0.8214 -1.1695
  520MOL0     H70182   6.945   4.091   4.154  0.8898  2.7041  1.9670
  520MOL0     H70183   6.730   4.151   4.257 -2.1246  1.8556 -0.4282
  520MOL0     H70184   6.349   4.430   4.199 -0.6288  0.5101 -1.0486
  520MOL0     H70185   6.119   4.496   4.251  0.3092 -3.0350 -1.7907
  520MOL0     H70186   4.343   4.530   4.644  0.6591  1.3394 -1.3764
  520MOL0     H70187   4.178   4.378   4.687  2.2100  1.1530  1.2470
  520MOL0     H70188   3.516   4.426   4.673  2.7523  1.8965 -1.2826
  520MOL0     H70189   3.379   4.295   4.843  0.4320 -0.2613 -0.9729
  520MOL0     H70190   3.608   4.103   5.165 -1.0683  1.3762 -0.4090
  520MOL0     H70191   3.450   4.020   5.187 -1.4917 -0.0664 -0.8347
  520MOL0     H70192   3.654   3.931   4.978  0.8389  0.8977  1.5494
  520MOL0     H70193   3.476   3.891   4.996 -1.2924  2.1773  0.5439
  520MOL0     H70194   3.506   3.793   5.193 -0.9893  0.8765 -0.8756
  520MOL0     H70195   3.674   3.844   5.220 -1.8913 -0.3850  0.8816
  520MOL0     H70196   3.719   3.644   5.159  0.0200  0.2101  0.9471
  520MOL0     H70197   3.761   3.728   5.012  1.2000  2.4104  1.7119
  520MOL0     H70198   3.440   3.469   4.880 -2.0633  0.4361  0.0675
  520MOL0     H70199   3.729   4.123   4.999  0.5028  0.5107 -0.5929
  520MOL0     H70200   3.868   4.253   4.861  0.1015  1.7029 -1.2647
  521MOL0     O70201   8.818   1.467   3.375  0.2094  0.0908  0.3414
  521MOL0     C70202   8.932   1.426   3.364 -0.2763  0.1522 -0.2163
  521MOL0     O70203   9.037   1.445   3.449 -0.1048 -0.6722 -0.1641
  521MOL0     C70204   9.033   1.525   3.565 -0.5687 -0.0438  0.3974
  521MOL0     C70205   9.104   1.484   3.678  0.5104  0.2166  0.1421
  521MOL0     C70206   9.119   1.567   3.794  1.1385 -0.0757  0.5178
  521MOL0     C70207   9.070   1.698   3.794 -0.1455  0.2649 -0.5416
  521MOL0     O70208   9.113   1.776   3.898  0.7475 -0.3443 -0.6126
  521MOL0     C70209   9.022   1.842   3.988  0.5454  0.0852  0.3138
  521MOL0     C70210   8.942   1.735   4.065 -0.5916 -0.9068 -0.5360
  521MOL0     C70211   8.854   1.803   4.177  0.2844 -0.2291  0.3269
  521MOL0     C70212   8.803   1.708   4.277  0.8305  0.8893 -0.0588
  521MOL0     C70213   8.697   1.612   4.216 -0.1909  0.3421 -0.7777
  521MOL0     C70214   8.644   1.511   4.326  0.5156  0.0796 -0.4241
  521MOL0     C70215   8.543   1.405   4.262  0.2894  0.2566 -1.1881
  521MOL0     C70216   8.498   1.301   4.370 -0.1036 -0.2668 -0.4548
  521MOL0     N70217   8.429   1.185   4.314 -0.7542  0.1178  0.9841
  521MOL0     C70218   8.353   1.183   4.199 -0.3572  0.4911  0.2444
  521MOL0     C70219   8.303   1.059   4.190 -0.3797  0.2307  0.2044
  521MOL0     C70220   8.205   1.010   4.088 -0.5297  0.6670  0.1885
  521MOL0     C70221   8.059   1.006   4.149 -0.3206 -0.3308 -0.0610
  521MOL0     C70222   7.969   0.905   4.081 -0.6278 -0.5355 -0.1588
  521MOL0     C70223   7.861   0.850   4.170  0.0244  0.0126  0.2444
  521MOL0     O70224   7.752   0.940   4.174  0.3533 -0.1140  0.1800
  521MOL0     C70225   7.634   0.886   4.219 -0.3574 -0.0634 -0.7877
  521MOL0     C70226   7.544   0.982   4.270 -0.4129 -0.3341  0.0077
  521MOL0     C70227   7.413   0.950   4.320 -0.1319 -1.2961  1.0138
  521MOL0     C70228   7.327   1.065   4.360  0.4757  0.0214 -0.0751
  521MOL0     C70229   7.369   0.815   4.305  1.1222 -0.7121 -0.4724
  521MOL0     C70230   7.224   0.764   4.335 -0.2852 -0.4538  0.2280
  521MOL0     O70231   7.200   0.637   4.304  0.1848  0.0990  0.6642
  521MOL0     C70232   7.098   0.577   4.378 -0.0026 -0.3644 -0.1691
  521MOL0     C70233   7.135   0.483   4.477  0.2476  0.9771 -0.3835
  521MOL0     C70234   7.042   0.425   4.561  0.3277 -0.0031  0.7198
  521MOL0     C70235   6.904   0.450   4.536 -0.3066  0.1168  0.9174
  521MOL0     O70236   6.816   0.375   4.609  0.2132 -0.1357  0.0754
  521MOL0     C70237   6.691   0.337   4.537  0.3294 -0.1892 -0.8398
  521MOL0     C70238   6.624   0.222   4.608 -0.1708  0.4969  0.2370
  521MOL0     C70239   6.488   0.205   4.530  0.1070 -0.7521 -1.1641
  521MOL0     C70240   6.417   0.091   4.589  0.7406  0.5697 -0.4535
  521MOL0     C70241   6.266   0.082   4.572 -0.4613 -0.1225  0.7760
  521MOL0     C70242   6.191   0.204   4.618  0.0921  0.1831 -0.0077
  521MOL0     C70243   6.212   0.246   4.766  1.2988 -0.4367  0.0882
  521MOL0     C70244   6.183   0.124   4.865 -0.4822 -0.3730  0.2753
  521MOL0    Cl70245   6.009   0.068   4.873 -0.5356 -0.0773 -0.2491
  521MOL0     C70246   6.869   0.540   4.431 -0.6974 -0.6361 -0.5259
  521MOL0     C70247   6.964   0.611   4.357  0.0634 -1.2056 -1.2740
  521MOL0     O70248   7.142   0.846   4.374 -0.4032  0.2742  0.3881
  521MOL0     C70249   7.458   0.724   4.247  0.1321 -0.3110 -0.2619
  521MOL0     C70250   7.594   0.752   4.219 -0.4174  0.1733 -0.1283
  521MOL0     N70251   8.351   0.988   4.296  0.9589 -0.2280  0.7350
  521MOL0     N70252   8.430   1.062   4.362  0.5226  0.9350 -1.1550
  521MOL0     C70253   8.992   1.739   3.686 -0.3097 -1.0603  0.3199
  521MOL0     C70254   8.976   1.658   3.571  0.0645 -0.0774  0.2554
  521MOL0     C70255   8.947   1.331   3.245  0.9475  1.0194 -0.5059
  521MOL0     C70256   9.058   1.246   3.248  0.4260  0.1232  0.1865
  521MOL0     C70257   9.073   1.157   3.146  0.1954 -0.3110 -0.7044
  521MOL0     C70258   8.985   1.144   3.046 -0.6593 -0.3903  1.1614
  521MOL0     O70259   9.022   1.047   2.951 -0.3948  0.5382  0.5794
  521MOL0     C70260   8.917   0.988   2.880 -1.6709  0.6755 -0.1368
  521MOL0     C70261   8.867   0.863   2.957  0.1744 -0.5341 -1.3192
  521MOL0     C70262   8.973   0.780   3.024  0.0450  0.8415  0.5596
  521MOL0     C70263   9.076   0.696   2.944  0.0246 -0.4630 -0.1940
  521MOL0     C70264   9.154   0.597   3.031  0.5215 -0.9287  1.1300
  521MOL0     C70265   9.237   0.523   3.086  0.1288  0.8491  0.1422
  521MOL0     C70266   8.873   1.231   3.038 -0.6525 -0.0829 -0.2284
  521MOL0     C70267   8.849   1.320   3.145  0.4328  1.1005 -0.2375
  521MOL0     H70268   9.164   1.394   3.670 -0.8355 -0.7955  0.9618
  521MOL0     H70269   9.170   1.523   3.880  0.0603 -3.3668 -0.4094
  521MOL0     H70270   9.084   1.901   4.055  0.9899 -1.1290  1.0022
  521MOL0     H70271   8.955   1.908   3.932 -2.1348 -0.6629  2.4461
  521MOL0     H70272   8.875   1.671   4.007 -2.1648 -0.3086  0.5536
  521MOL0     H70273   9.012   1.669   4.117 -1.4316 -0.6964  0.9047
  521MOL0     H70274   8.909   1.880   4.233 -1.9425  1.3667  0.4671
  521MOL0     H70275   8.779   1.877   4.148  1.6213  3.7854  5.4441
  521MOL0     H70276   8.886   1.654   4.325 -0.2136 -1.3884 -0.6847
  521MOL0     H70277   8.766   1.768   4.361 -0.3629  2.4090 -1.6165
  521MOL0     H70278   8.614   1.666   4.170  1.2575  0.4577 -3.4288
  521MOL0     H70279   8.746   1.560   4.133 -0.6153  0.5695 -1.1771
  521MOL0     H70280   8.731   1.463   4.373  0.3733  2.0654  2.0834
  521MOL0     H70281   8.589   1.561   4.406  1.7302 -1.0119  1.1658
  521MOL0     H70282   8.453   1.451   4.218 -0.0965 -0.8467 -1.5813
  521MOL0     H70283   8.597   1.362   4.177  0.8845 -0.8870 -0.2614
  521MOL0     H70284   8.432   1.344   4.445  0.8540  0.7684 -0.1665
  521MOL0     H70285   8.586   1.268   4.426  0.3380 -1.2697 -1.6734
  521MOL0     H70286   8.337   1.266   4.131  0.2867 -0.4092 -1.0505
  521MOL0     H70287   8.206   1.067   3.994 -0.0082  1.3919  0.6184
  521MOL0     H70288   8.232   0.914   4.043  1.2215 -1.4516  5.0871
  521MOL0     H70289   8.014   1.103   4.128  0.0089 -0.9569 -4.8111
  521MOL0     H70290   8.068   0.977   4.254  2.6032 -0.0822 -0.1492
  521MOL0     H70291   8.026   0.830   4.026  0.1303  1.1973 -1.8761
  521MOL0     H70292   7.922   0.952   3.995 -2.9966  1.2486  1.9627
  521MOL0     H70293   7.895   0.831   4.273  3.3675  4.0309  0.1431
  521MOL0     H70294   7.851   0.755   4.117 -1.1095 -0.4911  1.3189
  521MOL0     H70295   7.578   1.085   4.266  0.6856 -0.5928 -5.6310
  521MOL0     H70296   7.256   1.089   4.280  0.7366  3.3078  0.5521
  521MOL0     H70297   7.271   1.037   4.449  2.4453 -0.1523  1.1775
  521MOL0     H70298   7.395   1.149   4.371 -1.3707  1.5476  0.1768
  521MOL0     H70299   7.238   0.449   4.478 -0.9403 -3.2236  2.1215
  521MOL0     H70300   7.080   0.344   4.622  1.4542 -2.3406 -2.8078
  521MOL0     H70301   6.621   0.420   4.525  0.1015  0.4103  3.1831
  521MOL0     H70302   6.715   0.298   4.438 -1.0221 -0.3164 -1.1375
  521MOL0     H70303   6.684   0.131   4.609  1.4078  1.4894 -0.1419
  521MOL0     H70304   6.579   0.241   4.706 -4.5501 -3.2756 -0.7109
  521MOL0     H70305   6.500   0.185   4.423 -0.6867 -0.9905 -1.2134
  521MOL0     H70306   6.435   0.301   4.537  0.4430 -0.7128  2.9420
  521MOL0     H70307   6.463  -0.003   4.556 -1.3325 -2.0792  3.4239
  521MOL0     H70308   6.419   0.088   4.698 -1.6273  3.3476 -0.2223
  521MOL0     H70309   6.215   0.002   4.626 -2.2588  1.7114  1.9565
  521MOL0     H70310   6.245   0.066   4.466 -1.8708 -1.1810  1.1882
  521MOL0     H70311   6.206   0.293   4.557 -1.3712  0.6112  0.2292
  521MOL0     H70312   6.085   0.190   4.600 -0.6304  2.3891  1.9115
  521MOL0     H70313   6.149   0.333   4.783 -1.5071 -1.1866 -4.6146
  521MOL0     H70314   6.314   0.281   4.783  0.4565  1.3238  1.8518
  521MOL0     H70315   6.199   0.161   4.967 -1.3098 -0.1712  0.3371
  521MOL0     H70316   6.251   0.043   4.837  1.8606  1.7052 -0.5236
  521MOL0     H70317   6.767   0.532   4.395  0.5385 -0.1504 -4.6898
  521MOL0     H70318   6.935   0.697   4.298  2.1358  1.6206  1.4913
  521MOL0     H70319   7.433   0.619   4.235  1.8477 -0.5810 -1.8728
  521MOL0     H70320   7.669   0.676   4.200  0.7504  1.3903 -0.5263
  521MOL0     H70321   8.965   1.844   3.683  1.5557 -0.5583 -1.4267
  521MOL0     H70322   8.923   1.685   3.480  1.5611 -1.5740 -1.1198
  521MOL0     H70323   9.128   1.254   3.330  2.7746 -1.1276 -1.5740
  521MOL0     H70324   9.149   1.080   3.155  0.3320 -0.1682 -0.6385
  521MOL0     H70325   8.839   1.056   2.844  1.5226  3.8360 -1.7237
  521MOL0     H70326   8.958   0.939   2.791  1.1571  1.4616  0.6231
  521MOL0     H70327   8.798   0.812   2.889 -1.6984  0.0021  0.0732
  521MOL0     H70328   8.799   0.901   3.034 -1.2887 -0.1690 -2.7389
  521MOL0     H70329   8.926   0.716   3.100 -1.4094 -1.6103 -2.1664
  521MOL0     H70330   9.035   0.854   3.075  2.2877 -1.7187  1.8509
  521MOL0     H70331   9.140   0.774   2.899 -1.5564 -0.8995 -3.4951
  521MOL0     H70332   9.043   0.642   2.855  3.9870 -0.0766 -2.1360
  521MOL0     H70333   9.308   0.458   3.134 -1.8728 -1.3932  0.2482
  521MOL0     H70334   8.799   1.207   2.961 -1.8721 -1.5439  1.3191
  521MOL0     H70335   8.754   1.373   3.144  1.3469  2.9230  1.4826
  522MOL0     O70336   0.258   2.166   0.506  0.3400  0.1331  0.0110
  522MOL0     C70337   0.176   2.093   0.451 -0.4285  0.2710 -0.5008
  522MOL0     O70338   0.155   1.968   0.497 -0.0637 -0.2456  1.2690
  522MOL0     C70339   0.230   1.921   0.594 -0.0072  0.6199  0.1386
  522MOL0     C70340   0.276   1.787   0.582  0.5173 -0.1806  0.7115
  522MOL0     C70341   0.340   1.720   0.679  0.1129 -0.3384 -0.6858
  522MOL0     C70342   0.348   1.779   0.805 -0.6045  0.1170  0.3484
  522MOL0     O70343   0.406   1.706   0.898 -0.3873  0.0555 -0.1292
  522MOL0     C70344   0.418   1.736   1.036 -0.2560  0.2670  0.5274
  522MOL0     C70345   0.525   1.636   1.108 -0.1193  0.3832  0.7707
  522MOL0     C70346   0.592   1.690   1.234 -0.0059 -0.3895  0.3115
  522MOL0     C70347   0.501   1.733   1.356 -0.3201 -1.0124  1.3305
  522MOL0     C70348   0.593   1.804   1.467 -0.2392  0.2388 -0.8084
  522MOL0     C70349   0.559   1.755   1.609 -0.3794 -0.1723  0.4476
  522MOL0     C70350   0.542   1.863   1.716  0.5010  0.1044  0.0713
  522MOL0     C70351   0.663   1.937   1.750 -0.9136 -0.1038  0.8607
  522MOL0     N70352   0.653   2.015   1.874 -0.5472  0.6232  1.3184
  522MOL0     C70353   0.558   2.105   1.910 -0.2745 -0.1734  0.1503
  522MOL0     C70354   0.616   2.149   2.032  0.3413  0.1419 -0.1448
  522MOL0     C70355   0.563   2.261   2.119  0.5324 -0.5369 -0.1659
  522MOL0     C70356   0.519   2.210   2.258  0.4080 -0.5761  0.4659
  522MOL0     C70357   0.489   2.334   2.348 -0.9073  0.8341 -1.1678
  522MOL0     C70358   0.410   2.310   2.475 -0.1626 -0.0985 -0.6553
  522MOL0     O70359   0.431   2.412   2.574 -0.2613 -0.5169  0.5284
  522MOL0     C70360   0.521   2.401   2.676 -0.7313 -0.5995 -0.0361
  522MOL0     C70361   0.514   2.502   2.764 -1.2715  0.0084  0.3993
  522MOL0     C70362   0.598   2.513   2.872  0.5341  0.3640 -0.2670
  522MOL0     C70363   0.575   2.637   2.957  0.1240  0.6943 -0.5385
  522MOL0     C70364   0.692   2.407   2.902 -0.0518 -0.8114  0.1902
  522MOL0     C70365   0.786   2.401   3.022  0.0254 -0.3116  0.7444
  522MOL0     O70366   0.834   2.281   3.055  0.3999 -0.0353 -0.2090
  522MOL0     C70367   0.884   2.259   3.180  0.0278 -0.4220 -0.5522
  522MOL0     C70368   0.820   2.159   3.255  1.0498 -0.9478 -0.3654
  522MOL0     C70369   0.850   2.128   3.388 -0.1286  0.2789 -0.2763
  522MOL0     C70370   0.976   2.179   3.446  0.4423  0.2426  0.1900
  522MOL0     O70371   1.018   2.134   3.572 -0.2151  0.7011 -0.0324
  522MOL0     C70372   1.016   2.245   3.672  0.7308 -1.1586  0.5699
  522MOL0     C70373   1.078   2.216   3.807  0.3955 -0.0828 -0.3474
  522MOL0     C70374   1.113   2.350   3.880 -1.1797  0.5715  0.0344
  522MOL0     C70375   1.176   2.315   4.019  0.2313 -0.4350 -0.1199
  522MOL0     C70376   1.237   2.447   4.086 -0.3411 -0.4979  0.6853
  522MOL0     C70377   1.138   2.557   4.132 -0.2521  0.7429 -0.2801
  522MOL0     C70378   1.213   2.654   4.239 -0.3015 -0.1665  0.7198
  522MOL0     C70379   1.333   2.731   4.192  0.5185 -0.2111  0.1110
  522MOL0    Cl70380   1.439   2.783   4.332 -0.1218  0.3539  0.4222
  522MOL0     C70381   1.053   2.268   3.364  1.0014 -0.4386 -0.3767
  522MOL0     C70382   1.005   2.316   3.238 -0.0385 -0.1074  0.1810
  522MOL0     O70383   0.799   2.504   3.091  0.8745  0.0447  0.1946
  522MOL0     C70384   0.686   2.299   2.809 -0.1907  0.5956 -0.3198
  522MOL0     C70385   0.603   2.294   2.700  0.8652 -0.9388 -0.1274
  522MOL0     N70386   0.734   2.082   2.056  0.1349 -0.8658 -0.8579
  522MOL0     N70387   0.756   2.008   1.960  0.0426 -0.3221 -0.0941
  522MOL0     C70388   0.304   1.909   0.831 -0.1408 -0.0419 -0.2528
  522MOL0     C70389   0.248   1.981   0.725  0.3750  0.0550  0.1404
  522MOL0     C70390   0.080   2.140   0.348 -0.4765  0.1895 -0.5944
  522MOL0     C70391  -0.008   2.054   0.286  0.8067  0.2649  0.3539
  522MOL0     C70392  -0.075   2.098   0.174  0.0967 -0.6059  0.5806
  522MOL0     C70393  -0.077   2.235   0.131 -0.0456  0.0084  1.3293
  522MOL0     O70394  -0.158   2.276   0.025  0.6343  0.6057 -0.6490
  522MOL0     C70395  -0.120   2.225  -0.099 -0.8037 -0.6580 -0.2368
  522MOL0     C70396  -0.037   2.308  -0.178 -0.0232 -0.4188 -0.3696
  522MOL0     C70397   0.106   2.325  -0.140  0.9256  0.6217 -0.4775
  522MOL0     C70398   0.178   2.187  -0.141  0.6344  0.7102 -0.2954
  522MOL0     C70399   0.239   2.154  -0.006  0.0858 -0.2593 -0.2266
  522MOL0     C70400   0.281   2.129   0.104 -0.1997  0.4707  0.9412
  522MOL0     C70401   0.000   2.323   0.204 -0.2932 -0.7117  0.2987
  522MOL0     C70402   0.084   2.275   0.310  0.2850  0.1379  0.5238
  522MOL0     H70403   0.242   1.737   0.493  0.5956 -1.8149  1.5676
  522MOL0     H70404   0.385   1.621   0.680  0.6580 -0.4976  5.9209
  522MOL0     H70405   0.443   1.842   1.046  1.0518  0.1118 -0.6828
  522MOL0     H70406   0.327   1.706   1.088 -0.5141  0.5596  0.2472
  522MOL0     H70407   0.474   1.542   1.131 -0.5327  0.3791 -0.0970
  522MOL0     H70408   0.607   1.613   1.039 -1.5220 -3.8789  0.2041
  522MOL0     H70409   0.654   1.607   1.270  2.5629  0.8678 -0.9413
  522MOL0     H70410   0.667   1.761   1.197 -2.1797  0.9048 -1.8637
  522MOL0     H70411   0.425   1.804   1.322  2.8266  1.3685 -1.3540
  522MOL0     H70412   0.442   1.644   1.381 -0.4027 -1.9242 -1.6570
  522MOL0     H70413   0.700   1.788   1.450 -0.0543  0.5188  0.0472
  522MOL0     H70414   0.571   1.911   1.459 -0.3065  0.1814 -1.5311
  522MOL0     H70415   0.457   1.717   1.597  0.3215 -1.5490 -1.7521
  522MOL0     H70416   0.633   1.677   1.628  0.8428  0.3088 -1.9714
  522MOL0     H70417   0.461   1.925   1.675 -0.3418 -1.2100 -0.3197
  522MOL0     H70418   0.510   1.811   1.807 -1.3262 -2.6112 -1.9421
  522MOL0     H70419   0.696   1.990   1.661 -0.7882 -0.9895  0.3677
  522MOL0     H70420   0.743   1.863   1.761 -0.6370 -0.1373 -1.0462
  522MOL0     H70421   0.463   2.121   1.860  0.9963 -2.1004 -3.2074
  522MOL0     H70422   0.634   2.345   2.116 -0.4853  0.4031  1.0867
  522MOL0     H70423   0.491   2.322   2.065  2.5392  0.3204 -2.0525
  522MOL0     H70424   0.590   2.144   2.308 -0.1537 -0.9446  0.7905
  522MOL0     H70425   0.430   2.147   2.242 -1.1080  1.3228  0.9793
  522MOL0     H70426   0.442   2.416   2.293 -4.6221 -0.1335  0.2731
  522MOL0     H70427   0.586   2.374   2.379  0.5509 -2.3328 -1.1339
  522MOL0     H70428   0.424   2.214   2.527 -0.7672 -0.7836 -1.7196
  522MOL0     H70429   0.307   2.323   2.440 -1.5708 -2.3633  2.1809
  522MOL0     H70430   0.443   2.580   2.738 -1.9038 -1.2578 -1.9837
  522MOL0     H70431   0.482   2.689   2.933 -0.1009 -0.3916 -2.2509
  522MOL0     H70432   0.569   2.615   3.064  0.6107  2.5851 -0.0888
  522MOL0     H70433   0.649   2.716   2.939 -1.1219  2.0333  0.0193
  522MOL0     H70434   0.735   2.114   3.205  2.0566  0.0824 -3.1689
  522MOL0     H70435   0.803   2.047   3.442  1.2227 -2.1390 -2.4637
  522MOL0     H70436   1.080   2.324   3.631  1.5690 -0.2127  3.4584
  522MOL0     H70437   0.921   2.292   3.697  2.0187  1.4717  0.8337
  522MOL0     H70438   1.026   2.147   3.875  4.7343 -0.2697  3.2759
  522MOL0     H70439   1.178   2.185   3.776  1.4061  0.6114  1.9464
  522MOL0     H70440   1.018   2.402   3.891 -1.0151  1.2713 -1.6376
  522MOL0     H70441   1.183   2.416   3.829  2.8257 -1.1570  2.7136
  522MOL0     H70442   1.109   2.261   4.087  1.2619 -3.2880 -1.2234
  522MOL0     H70443   1.261   2.247   4.005 -0.4755 -1.7330  1.4613
  522MOL0     H70444   1.297   2.489   4.005  0.0685  0.6828  1.5645
  522MOL0     H70445   1.304   2.414   4.166  1.9565 -1.1290 -1.3723
  522MOL0     H70446   1.111   2.613   4.043 -0.1876  2.4804  0.7531
  522MOL0     H70447   1.046   2.509   4.169  1.3415 -2.2879  0.1118
  522MOL0     H70448   1.254   2.601   4.326  1.0051 -1.2709 -0.5004
  522MOL0     H70449   1.130   2.718   4.268 -0.0783  1.6729 -2.2863
  522MOL0     H70450   1.306   2.828   4.151  1.2114  0.8960  2.1375
  522MOL0     H70451   1.394   2.676   4.119 -0.1431 -1.1821  0.2708
  522MOL0     H70452   1.137   2.313   3.416  0.6573  0.7025 -0.7882
  522MOL0     H70453   1.055   2.395   3.182 -0.4432  0.2553  0.3308
  522MOL0     H70454   0.766   2.226   2.803 -0.0368  0.6762  0.5864
  522MOL0     H70455   0.606   2.209   2.633  0.5235 -0.5462 -0.6468
  522MOL0     H70456   0.335   1.967   0.917 -0.1901  1.8628 -1.4570
  522MOL0     H70457   0.213   2.083   0.738 -2.4833 -0.5948 -1.5886
  522MOL0     H70458  -0.042   1.966   0.339 -1.7774  1.1052  0.2140
  522MOL0     H70459  -0.149   2.041   0.118  1.0438 -0.9365 -0.3481
  522MOL0     H70460  -0.083   2.123  -0.096  2.9786  0.4633 -2.3674
  522MOL0     H70461  -0.209   2.212  -0.162  0.0485  0.9466 -1.8857
  522MOL0     H70462  -0.083   2.407  -0.169  1.2736 -0.0043  3.2527
  522MOL0     H70463  -0.048   2.288  -0.285 -1.6709  1.7193 -0.6684
  522MOL0     H70464   0.117   2.381  -0.046 -1.6521 -1.4196  1.1964
  522MOL0     H70465   0.144   2.383  -0.225  0.6955 -2.9750 -3.2572
  522MOL0     H70466   0.267   2.199  -0.203  1.1776 -2.0370 -0.1712
  522MOL0     H70467   0.121   2.109  -0.192 -0.4985  2.8298 -2.4981
  522MOL0     H70468   0.334   2.099   0.192  2.0456  0.8124 -0.2300
  522MOL0     H70469  -0.006   2.425   0.168 -1.5727 -0.9215 -0.1239
  522MOL0     H70470   0.141   2.358   0.351 -2.5174  2.2193  0.5115
  523MOL0     O70471   0.983  10.992  11.458  0.4117 -0.4918  0.0953
  523MOL0     C70472   0.994  11.111  11.425  0.9798 -0.3628 -0.3224
  523MOL0     O70473   0.929  11.165  11.321 -0.0083  1.0919 -0.6219
  523MOL0     C70474   0.821  11.099  11.268  0.6801  1.4077 -0.5200
  523MOL0     C70475   0.780  10.958  11.285  0.0029 -0.3289  0.0308
  523MOL0     C70476   0.674  10.918  11.203  0.1457  0.3784 -0.3129
  523MOL0     C70477   0.594  10.997  11.130 -0.3870 -0.5549  0.3376
  523MOL0     O70478   0.482  10.959  11.057 -0.2261 -0.4108 -0.4728
  523MOL0     C70479   0.400  10.835  11.079  0.2634  0.0340  0.7052
  523MOL0     C70480   0.303  10.856  11.195 -0.8161 -0.0982  0.4958
  523MOL0     C70481   0.192  10.756  11.204 -0.7544 -1.0658  0.1725
  523MOL0     C70482   0.239  10.620  11.245 -0.1434  0.4237  0.5303
  523MOL0     C70483   0.120  10.527  11.280  0.2212 -0.1431  0.6897
  523MOL0     C70484   0.171  10.386  11.311  0.3184 -0.4083 -0.2771
  523MOL0     C70485   0.273  10.352  11.430 -0.4508  0.4043 -0.9318
  523MOL0     C70486   0.229  10.414  11.553  0.2098 -0.3507 -0.7201
  523MOL0     N70487   0.104  10.350  11.590 -0.6288 -1.4709  0.9523
  523MOL0     C70488   0.077  10.219  11.618  0.2358  0.4911 -0.4107
  523MOL0     C70489  -0.056  10.221  11.649  0.5846 -1.4131 -0.2488
  523MOL0     C70490  -0.135  10.092  11.678 -0.2827 -0.0811  0.1850
  523MOL0     C70491  -0.169  10.084  11.826  0.1041  0.4155  1.4051
  523MOL0     C70492  -0.268  10.190  11.870  0.3186 -0.2563  1.0914
  523MOL0     C70493  -0.388  10.205  11.777 -0.6568 -0.7301 -0.1104
  523MOL0     O70494  -0.473  10.298  11.846 -0.6306 -0.3752  0.0728
  523MOL0     C70495  -0.606  10.303  11.812 -0.7360 -0.5249 -0.4456
  523MOL0     C70496  -0.653  10.314  11.686  0.3244  1.1759  0.6722
  523MOL0     C70497  -0.793  10.321  11.660  0.9323  0.1291  0.8203
  523MOL0     C70498  -0.843  10.336  11.518  0.6192  0.8982 -0.0640
  523MOL0     C70499  -0.882  10.335  11.778  0.4765 -0.6867 -0.1541
  523MOL0     C70500  -1.034  10.358  11.772 -0.4097 -0.0781 -0.3667
  523MOL0     O70501  -1.085  10.432  11.875 -0.8223  0.2382  0.1295
  523MOL0     C70502  -1.212  10.412  11.937 -1.5729 -0.0694  1.4614
  523MOL0     C70503  -1.288  10.298  11.913 -0.4122  0.4554 -0.0020
  523MOL0     C70504  -1.412  10.302  11.978 -0.9043 -0.0007 -0.0126
  523MOL0     C70505  -1.473  10.403  12.057  0.3359 -0.4148  0.4814
  523MOL0     O70506  -1.600  10.415  12.111 -0.9474 -0.3672  0.8207
  523MOL0     C70507  -1.691  10.300  12.092  0.3000 -0.8549 -1.3879
  523MOL0     C70508  -1.831  10.334  12.144 -0.2899 -1.2783 -0.5295
  523MOL0     C70509  -1.830  10.358  12.302  0.3095 -0.0200  0.5999
  523MOL0     C70510  -1.878  10.230  12.375 -0.0588 -0.5637  1.5775
  523MOL0     C70511  -1.958  10.240  12.510 -1.0710  0.0500 -0.4409
  523MOL0     C70512  -2.089  10.322  12.499  0.6705  0.0297  0.6432
  523MOL0     C70513  -2.195  10.276  12.614 -0.6207  0.0496  0.4590
  523MOL0     C70514  -2.320  10.370  12.640 -0.6530 -0.4963  0.0464
  523MOL0    Cl70515  -2.439  10.276  12.738  0.3619  0.0187  0.1431
  523MOL0     C70516  -1.390  10.509  12.070 -0.4560  0.8007 -0.0359
  523MOL0     C70517  -1.254  10.511  12.025 -0.1781 -0.1883 -0.7422
  523MOL0     O70518  -1.092  10.329  11.668  0.1007 -0.7030  0.0994
  523MOL0     C70519  -0.831  10.336  11.897  1.0100  0.5635 -0.7354
  523MOL0     C70520  -0.693  10.323  11.920 -0.0561  1.5181  0.0265
  523MOL0     N70521  -0.110  10.352  11.641  0.1887  0.3883 -0.5228
  523MOL0     N70522  -0.008  10.429  11.604 -0.0370  0.2717  0.1062
  523MOL0     C70523   0.619  11.136  11.127  0.0359 -0.2000 -0.6186
  523MOL0     C70524   0.741  11.184  11.184  0.1585  0.0605  0.1159
  523MOL0     C70525   1.068  11.206  11.503  0.3052 -0.3448  1.0357
  523MOL0     C70526   1.150  11.151  11.612 -1.1918  0.6181  0.2049
  523MOL0     C70527   1.235  11.236  11.683  0.3181  0.0013 -1.1468
  523MOL0     C70528   1.217  11.379  11.655 -0.7668  0.1516 -0.0847
  523MOL0     O70529   1.308  11.467  11.712 -0.2216  0.4136  0.0725
  523MOL0     C70530   1.261  11.526  11.835  0.7860 -0.2399  0.2064
  523MOL0     C70531   1.358  11.501  11.939 -0.5979  0.6003 -0.8093
  523MOL0     C70532   1.318  11.572  12.070  0.1552  0.9024 -0.0489
  523MOL0     C70533   1.417  11.591  12.178 -0.5981  0.1355 -0.2402
  523MOL0     C70534   1.495  11.478  12.222  0.0291 -0.3004  0.6284
  523MOL0     C70535   1.564  11.379  12.255 -0.0441  0.2421  0.1532
  523MOL0     C70536   1.136  11.429  11.558  1.0419  0.7725  0.3457
  523MOL0     C70537   1.065  11.343  11.480 -0.9750 -0.4793 -0.6366
  523MOL0     H70538   0.835  10.880  11.336  2.0461  2.7072  2.8796
  523MOL0     H70539   0.658  10.813  11.225 -1.1315  0.2695 -1.6054
  523MOL0     H70540   0.349  10.807  10.986  3.0061 -2.0427 -0.2879
  523MOL0     H70541   0.464  10.749  11.103 -0.2484 -0.2360  1.1408
  523MOL0     H70542   0.362  10.860  11.287 -5.2639  0.9839  3.5936
  523MOL0     H70543   0.254  10.951  11.174 -0.7300 -0.6627 -2.8052
  523MOL0     H70544   0.122  10.787  11.282 -0.9063 -0.4580 -0.1982
  523MOL0     H70545   0.137  10.771  11.111 -2.1514  0.9633  1.2448
  523MOL0     H70546   0.305  10.578  11.169  2.7738  0.6747  2.7525
  523MOL0     H70547   0.293  10.647  11.336 -1.9143  0.8664  1.5124
  523MOL0     H70548   0.064  10.558  11.369 -0.9060 -1.8710  0.6340
  523MOL0     H70549   0.051  10.516  11.196  0.1780  0.2074  0.6762
  523MOL0     H70550   0.077  10.330  11.310  1.0054 -1.8316  2.6757
  523MOL0     H70551   0.223  10.338  11.227 -2.2542 -2.5881 -0.7842
  523MOL0     H70552   0.290  10.245  11.445  0.3962  0.7091  0.4238
  523MOL0     H70553   0.370  10.389  11.397  0.1141  0.2951  0.5498
  523MOL0     H70554   0.216  10.521  11.530  0.0973  0.6859  3.3147
  523MOL0     H70555   0.304  10.420  11.632  2.1548  1.1690 -2.5615
  523MOL0     H70556   0.133  10.130  11.591 -1.1815 -0.1612 -1.3424
  523MOL0     H70557  -0.224  10.090  11.615  1.4673  1.8470 -2.6085
  523MOL0     H70558  -0.066  10.010  11.654 -0.1367  0.5355 -1.6619
  523MOL0     H70559  -0.078  10.092  11.886 -0.5589 -1.8524  2.8119
  523MOL0     H70560  -0.217   9.989  11.850  1.0533 -0.3750  0.2531
  523MOL0     H70561  -0.211  10.283  11.867 -1.9264  1.3736  4.0913
  523MOL0     H70562  -0.322  10.180  11.964 -4.4361 -0.6876 -1.3798
  523MOL0     H70563  -0.446  10.112  11.771 -1.7758  0.0373 -1.9420
  523MOL0     H70564  -0.362  10.237  11.675 -1.3008 -1.1283 -0.4031
  523MOL0     H70565  -0.582  10.311  11.604 -0.3624  1.6704  0.0453
  523MOL0     H70566  -0.893  10.246  11.480  1.0230  1.4263 -1.9947
  523MOL0     H70567  -0.908  10.424  11.514  1.6176  2.1161  4.7030
  523MOL0     H70568  -0.769  10.368  11.443  0.0159  0.2213 -0.9794
  523MOL0     H70569  -1.255  10.210  11.858 -3.1134 -0.6532 -0.0067
  523MOL0     H70570  -1.479  10.216  11.981 -1.0717  0.1524  1.8308
  523MOL0     H70571  -1.709  10.278  11.987 -2.3794 -0.4116 -1.0770
  523MOL0     H70572  -1.647  10.219  12.152 -1.8388  0.0869  1.6973
  523MOL0     H70573  -1.876  10.415  12.085 -0.4386 -1.2137 -0.3304
  523MOL0     H70574  -1.875  10.236  12.123 -4.1125  0.3446 -0.9328
  523MOL0     H70575  -1.895  10.435  12.344  1.6104 -0.7095  4.3504
  523MOL0     H70576  -1.732  10.390  12.339 -0.8725 -0.3480  4.5426
  523MOL0     H70577  -1.953  10.177  12.315  0.9997 -0.1580 -0.1636
  523MOL0     H70578  -1.798  10.156  12.384 -1.8749 -2.7131  0.8809
  523MOL0     H70579  -1.892  10.267  12.593 -3.6092  0.9888  1.4032
  523MOL0     H70580  -1.983  10.134  12.527  1.6889 -0.5340  0.5776
  523MOL0     H70581  -2.072  10.430  12.508  0.3725  0.2338 -1.0063
  523MOL0     H70582  -2.125  10.299  12.399 -0.7452 -0.6746  1.2837
  523MOL0     H70583  -2.140  10.273  12.708  1.1782  3.2264 -0.3419
  523MOL0     H70584  -2.229  10.178  12.579  1.2093  0.4937 -2.9968
  523MOL0     H70585  -2.367  10.398  12.545 -3.1429  0.3265  1.4229
  523MOL0     H70586  -2.298  10.467  12.685  0.1386  0.4198 -2.1772
  523MOL0     H70587  -1.446  10.590  12.116 -6.2580 -2.2949 -0.8019
  523MOL0     H70588  -1.191  10.592  12.060  0.6558 -0.8449 -0.6805
  523MOL0     H70589  -0.899  10.340  11.982 -1.6736  0.7233 -2.7755
  523MOL0     H70590  -0.661  10.318  12.024 -1.8967  3.2172  0.7478
  523MOL0     H70591   0.547  11.195  11.070 -0.6875  1.2712  1.6758
  523MOL0     H70592   0.771  11.287  11.176  0.5592  0.4483  4.3615
  523MOL0     H70593   1.159  11.047  11.643  0.7032  1.2458  2.0347
  523MOL0     H70594   1.303  11.199  11.758 -1.8247  0.8660  1.3620
  523MOL0     H70595   1.262  11.633  11.810 -1.8220 -1.0250 -4.4533
  523MOL0     H70596   1.157  11.500  11.856  0.4054  1.8250  1.1352
  523MOL0     H70597   1.459  11.537  11.914 -0.7928  0.3300 -2.0961
  523MOL0     H70598   1.363  11.392  11.951  0.5436  0.6422 -0.8037
  523MOL0     H70599   1.240  11.516  12.122 -0.4014  1.4591 -0.2704
  523MOL0     H70600   1.280  11.673  12.050 -0.3642  0.8794  0.7551
  523MOL0     H70601   1.363  11.629  12.266  0.8332 -0.2810  0.8710
  523MOL0     H70602   1.481  11.672  12.141  0.7566 -1.5858 -1.8777
  523MOL0     H70603   1.613  11.287  12.279 -1.4395 -0.0854  1.8850
  523MOL0     H70604   1.129  11.535  11.535  1.0261  0.8195  0.5726
  523MOL0     H70605   0.999  11.389  11.406 -1.4648 -0.4448 -0.1839
  524MOL0     O70606   9.382   1.712   0.396 -0.2791  0.1959  0.5251
  524MOL0     C70607   9.282   1.654   0.441  0.1422 -0.2487 -0.6307
  524MOL0     O70608   9.186   1.599   0.369  0.3267  0.0900  0.3425
  524MOL0     C70609   9.151   1.633   0.240 -0.0375  0.4000  0.8587
  524MOL0     C70610   9.175   1.762   0.191 -0.6915  0.6400 -0.3511
  524MOL0     C70611   9.134   1.790   0.068 -0.4661 -0.3703  0.0818
  524MOL0     C70612   9.063   1.701  -0.011  0.8464 -0.4025  0.3798
  524MOL0     O70613   9.038   1.732  -0.151 -0.4605 -0.2371  0.4443
  524MOL0     C70614   8.994   1.633  -0.236  0.4464  0.3240 -0.1040
  524MOL0     C70615   9.101   1.526  -0.265  0.5817 -1.1410 -0.6372
  524MOL0     C70616   9.052   1.391  -0.320  0.7658 -0.5308  0.0465
  524MOL0     C70617   9.157   1.329  -0.410 -0.2986 -0.7073 -0.1205
  524MOL0     C70618   9.110   1.213  -0.495  0.3824 -0.4949 -0.4165
  524MOL0     C70619   9.061   1.096  -0.405 -0.1884  0.2244  0.2965
  524MOL0     C70620   9.153   1.066  -0.285 -0.0534  0.2654  0.5801
  524MOL0     C70621   9.283   1.002  -0.351 -0.9575 -0.4130 -0.2138
  524MOL0     N70622   9.238   0.892  -0.436  0.2184 -1.1704  0.2125
  524MOL0     C70623   9.197   0.776  -0.390 -0.7237  0.6959 -0.6073
  524MOL0     C70624   9.156   0.705  -0.497  0.7163  0.2372 -0.8270
  524MOL0     C70625   9.108   0.564  -0.508  1.0208  0.3976 -0.7649
  524MOL0     C70626   8.969   0.544  -0.429  0.2915  0.7238  0.0057
  524MOL0     C70627   8.897   0.405  -0.452 -0.3230 -0.6426  0.1680
  524MOL0     C70628   8.952   0.296  -0.356  0.7492 -0.1258 -0.5738
  524MOL0     O70629   8.906   0.172  -0.384  0.9754 -1.2487  0.6663
  524MOL0     C70630   8.955   0.068  -0.321 -0.2188  0.3213 -0.0758
  524MOL0     C70631   8.937  -0.051  -0.378  0.1472 -0.4275  0.8265
  524MOL0     C70632   9.008  -0.166  -0.346  0.4134 -0.4096  0.5057
  524MOL0     C70633   8.965  -0.290  -0.427 -0.5892  0.4578  0.3620
  524MOL0     C70634   9.091  -0.165  -0.228 -0.3706 -0.2068 -0.4788
  524MOL0     C70635   9.176  -0.286  -0.183  0.5374 -0.6153 -0.2782
  524MOL0     O70636   9.187  -0.403  -0.250  0.2848  0.4134  0.0109
  524MOL0     C70637   9.286  -0.490  -0.227 -0.0415  1.2046 -0.3683
  524MOL0     C70638   9.404  -0.487  -0.293 -0.2295  0.6142  0.3326
  524MOL0     C70639   9.510  -0.581  -0.270  0.3988  0.0480 -0.1793
  524MOL0     C70640   9.480  -0.699  -0.194  0.7772  0.4375  0.2684
  524MOL0     O70641   9.564  -0.805  -0.183  0.0022 -0.4237 -1.1394
  524MOL0     C70642   9.706  -0.776  -0.189  0.3843  0.3930 -0.3473
  524MOL0     C70643   9.796  -0.901  -0.200 -0.5670  0.9860 -0.1216
  524MOL0     C70644   9.721  -1.011  -0.266  0.4292  0.1584  0.0484
  524MOL0     C70645   9.692  -0.990  -0.418 -0.3313  0.5612  0.0442
  524MOL0     C70646   9.624  -1.117  -0.473  0.7792  0.1240 -0.5222
  524MOL0     C70647   9.555  -1.105  -0.604 -0.1116  0.2157 -0.8944
  524MOL0     C70648   9.483  -1.232  -0.642 -0.2389  0.2869 -0.3259
  524MOL0     C70649   9.457  -1.225  -0.794 -0.2860 -0.0788 -1.1505
  524MOL0    Cl70650   9.363  -1.360  -0.848 -0.5003 -0.0213 -0.0068
  524MOL0     C70651   9.351  -0.712  -0.134 -0.9737  0.0015  0.4082
  524MOL0     C70652   9.255  -0.606  -0.152 -0.6055  0.5261  0.3117
  524MOL0     O70653   9.238  -0.257  -0.079  0.2782 -0.7079  0.1353
  524MOL0     C70654   9.082  -0.044  -0.156  0.3054 -0.3820  0.8571
  524MOL0     C70655   9.023   0.074  -0.200 -0.0197 -0.0192  0.4096
  524MOL0     N70656   9.196   0.773  -0.611 -0.7065 -0.5936 -0.5573
  524MOL0     N70657   9.255   0.885  -0.574  0.7233 -0.4185 -0.4363
  524MOL0     C70658   9.024   1.578   0.047 -0.4743 -0.2393 -0.4823
  524MOL0     C70659   9.072   1.544   0.174  0.8588 -0.6556 -0.5082
  524MOL0     C70660   9.253   1.644   0.592 -0.3272 -1.5301 -0.4776
  524MOL0     C70661   9.154   1.567   0.648  0.6342 -0.4712 -0.3218
  524MOL0     C70662   9.140   1.562   0.789  0.5121 -0.2182  0.2363
  524MOL0     C70663   9.225   1.636   0.872 -0.3181 -0.6316 -0.6729
  524MOL0     O70664   9.223   1.640   1.010  0.6335 -1.1786  0.6020
  524MOL0     C70665   9.121   1.578   1.077 -0.8057 -0.4053 -0.2616
  524MOL0     C70666   9.133   1.425   1.070 -0.1927 -0.3870 -0.6062
  524MOL0     C70667   9.234   1.357   1.177  0.0888 -0.1832  0.6065
  524MOL0     C70668   9.230   1.201   1.150 -0.3266  0.6079  0.7746
  524MOL0     C70669   9.150   1.137   1.258  1.2278  0.0124  0.4584
  524MOL0     C70670   9.074   1.111   1.356 -0.6532 -0.0390  0.6075
  524MOL0     C70671   9.332   1.707   0.812  0.3745 -0.3969 -0.1946
  524MOL0     C70672   9.341   1.715   0.678  1.1273 -0.6220  0.2826
  524MOL0     H70673   9.221   1.828   0.264  1.5152 -2.8908  1.7654
  524MOL0     H70674   9.159   1.890   0.036 -1.7292 -0.3011 -0.7464
  524MOL0     H70675   8.903   1.582  -0.202  0.0508  1.2751  0.2982
  524MOL0     H70676   8.981   1.688  -0.330 -0.8058  2.3145  1.1350
  524MOL0     H70677   9.174   1.580  -0.325  1.3750 -1.3685  0.1003
  524MOL0     H70678   9.146   1.505  -0.167  0.3281 -0.4276 -0.3539
  524MOL0     H70679   9.037   1.317  -0.240 -4.6530 -0.1814 -0.2701
  524MOL0     H70680   8.960   1.400  -0.379  2.3583 -0.6285 -2.6164
  524MOL0     H70681   9.187   1.410  -0.477  1.4931  3.1015  4.6583
  524MOL0     H70682   9.247   1.304  -0.354 -0.5107 -0.7760  0.1930
  524MOL0     H70683   9.032   1.255  -0.559  0.0548  0.5111  0.5968
  524MOL0     H70684   9.194   1.179  -0.556  0.5449  0.2119 -0.5966
  524MOL0     H70685   8.967   1.120  -0.354 -0.0743 -0.7647  0.9900
  524MOL0     H70686   9.026   1.013  -0.465  0.8683 -0.4904  0.6385
  524MOL0     H70687   9.183   1.140  -0.210  2.4726  2.5153 -2.3620
  524MOL0     H70688   9.113   0.978  -0.234  0.2334 -0.4888 -0.4599
  524MOL0     H70689   9.338   0.973  -0.261 -2.8489  0.5176  1.2949
  524MOL0     H70690   9.332   1.082  -0.407 -1.1317  0.9509  1.5059
  524MOL0     H70691   9.198   0.749  -0.285  0.8303  1.7042 -0.3323
  524MOL0     H70692   9.080   0.543  -0.612  0.3431 -1.6417 -0.2066
  524MOL0     H70693   9.178   0.487  -0.475 -0.2052 -0.1724  0.6011
  524MOL0     H70694   8.900   0.624  -0.458  0.4720  1.2536  0.9627
  524MOL0     H70695   8.982   0.557  -0.321 -2.0529  1.4965  0.2443
  524MOL0     H70696   8.926   0.368  -0.551 -0.3588 -1.2217  0.3682
  524MOL0     H70697   8.792   0.421  -0.425 -0.6775 -0.3914 -1.2814
  524MOL0     H70698   8.916   0.316  -0.255 -0.5441 -2.5244 -0.4697
  524MOL0     H70699   9.060   0.303  -0.345  0.5491  1.4634  0.7214
  524MOL0     H70700   8.878  -0.061  -0.468  2.2345 -0.1185 -0.6546
  524MOL0     H70701   8.859  -0.282  -0.455  0.1805  1.7471 -2.5134
  524MOL0     H70702   9.014  -0.316  -0.521 -2.1504  1.1444 -0.6774
  524MOL0     H70703   8.987  -0.380  -0.369 -0.5915 -1.7122 -2.7698
  524MOL0     H70704   9.425  -0.404  -0.359 -0.6248  0.4012 -0.0652
  524MOL0     H70705   9.602  -0.562  -0.325  0.5603 -0.2009  0.0019
  524MOL0     H70706   9.734  -0.720  -0.279  2.0427  0.1018 -0.0409
  524MOL0     H70707   9.732  -0.715  -0.102  0.2311  1.1633 -0.8287
  524MOL0     H70708   9.882  -0.882  -0.266 -2.3071 -1.8699 -3.6249
  524MOL0     H70709   9.819  -0.950  -0.105 -3.4171 -3.7423 -1.4755
  524MOL0     H70710   9.633  -1.056  -0.219 -0.7533 -1.2053 -3.1779
  524MOL0     H70711   9.784  -1.098  -0.251 -1.3048 -1.6746 -2.5621
  524MOL0     H70712   9.647  -0.898  -0.456  1.1294  1.5076  0.4994
  524MOL0     H70713   9.790  -0.988  -0.466 -0.2071 -0.1879  0.2482
  524MOL0     H70714   9.544  -1.153  -0.408  0.2778  0.5916 -0.8691
  524MOL0     H70715   9.695  -1.200  -0.482  0.5322 -0.2252  0.5841
  524MOL0     H70716   9.477  -1.029  -0.593 -1.1342 -0.9234  0.0079
  524MOL0     H70717   9.630  -1.078  -0.679  3.0450  0.1929  2.0440
  524MOL0     H70718   9.387  -1.236  -0.589 -0.9169  1.7045 -1.3921
  524MOL0     H70719   9.550  -1.315  -0.616 -0.2860  1.0321  2.4642
  524MOL0     H70720   9.547  -1.215  -0.855  0.0762  2.5287 -0.3229
  524MOL0     H70721   9.404  -1.130  -0.805  0.0922  0.4859  1.2281
  524MOL0     H70722   9.300  -0.797  -0.089 -2.2945 -0.6772 -2.1924
  524MOL0     H70723   9.156  -0.620  -0.112 -0.1645 -1.8309  0.7006
  524MOL0     H70724   9.134  -0.041  -0.061  1.2064 -1.9571  0.4441
  524MOL0     H70725   9.056   0.160  -0.142  0.6147  0.8534 -1.1761
  524MOL0     H70726   8.972   1.517  -0.027 -0.1018 -0.4238 -0.5948
  524MOL0     H70727   9.044   1.448   0.216 -3.4516  1.5258  2.3956
  524MOL0     H70728   9.069   1.535   0.589 -0.7473 -1.6581  2.1758
  524MOL0     H70729   9.051   1.515   0.829 -0.6664  1.0155 -0.8401
  524MOL0     H70730   9.127   1.618   1.178  2.6242  0.2246 -0.6130
  524MOL0     H70731   9.027   1.608   1.028 -1.0570 -1.5145 -0.4781
  524MOL0     H70732   9.160   1.385   0.972  1.5508 -0.9800  0.0845
  524MOL0     H70733   9.034   1.389   1.098 -1.4041  0.8245 -3.0671
  524MOL0     H70734   9.217   1.390   1.280  0.5336 -1.3756  1.0712
  524MOL0     H70735   9.337   1.389   1.157  0.6117 -2.0000  0.2468
  524MOL0     H70736   9.336   1.173   1.151 -0.3936  0.3379  0.3932
  524MOL0     H70737   9.195   1.163   1.054  1.7411  0.5174 -0.0054
  524MOL0     H70738   9.012   1.085   1.440 -0.6455 -0.6226  0.4411
  524MOL0     H70739   9.411   1.749   0.873 -0.1991 -0.6370  0.7434
  524MOL0     H70740   9.424   1.772   0.639 -0.9824  1.0447 -2.1026
  525MOL0     O70741   8.540   3.660   4.816 -0.6001 -0.3880 -0.8185
  525MOL0     C70742   8.601   3.742   4.878 -0.3024 -0.0582 -0.5243
  525MOL0     O70743   8.712   3.722   4.959  0.2768  0.3568 -0.4122
  525MOL0     C70744   8.738   3.597   5.014 -0.0617  0.8318  0.8496
  525MOL0     C70745   8.847   3.583   5.094 -0.2963  0.7090 -0.8242
  525MOL0     C70746   8.873   3.467   5.175 -0.6252 -1.3121 -0.3784
  525MOL0     C70747   8.794   3.352   5.164  1.5621 -0.3770 -0.5879
  525MOL0     O70748   8.829   3.254   5.244  0.2876 -0.6143  0.3221
  525MOL0     C70749   8.746   3.150   5.279  0.0095  1.1670  0.2357
  525MOL0     C70750   8.641   3.205   5.380  0.3992 -0.1647 -0.0767
  525MOL0     C70751   8.702   3.244   5.511  0.1402  0.3643  0.1845
  525MOL0     C70752   8.701   3.111   5.596 -1.1977  0.0938  0.1052
  525MOL0     C70753   8.797   3.129   5.709 -0.1032  0.3752 -0.1372
  525MOL0     C70754   8.789   3.020   5.813  0.6990 -0.0402 -1.1626
  525MOL0     C70755   8.879   3.039   5.935  0.6994  0.2222 -0.6716
  525MOL0     C70756   8.814   3.164   6.017 -0.3102  0.1133  0.0391
  525MOL0     N70757   8.886   3.180   6.143 -0.0322 -1.0462  0.0245
  525MOL0     C70758   9.020   3.194   6.169 -0.2606  0.1821 -1.0265
  525MOL0     C70759   9.029   3.215   6.307 -0.2085 -0.1563  0.2410
  525MOL0     C70760   9.143   3.224   6.401  0.7998 -0.2273  0.0756
  525MOL0     C70761   9.181   3.079   6.444 -0.5250 -0.0522 -0.2998
  525MOL0     C70762   9.279   3.005   6.340  0.0099 -0.2106  0.7620
  525MOL0     C70763   9.396   3.087   6.298  0.6754 -0.6242 -0.7568
  525MOL0     O70764   9.484   3.002   6.221 -0.0978 -0.4147 -0.3743
  525MOL0     C70765   9.443   2.982   6.092  0.2617 -0.5031 -0.4799
  525MOL0     C70766   9.385   2.860   6.054  0.3741  0.3270 -0.4696
  525MOL0     C70767   9.303   2.833   5.950  0.3844 -0.3968  0.4000
  525MOL0     C70768   9.224   2.714   5.939  1.0182  0.4406 -0.1402
  525MOL0     C70769   9.297   2.936   5.856 -0.9973  0.6047  0.4623
  525MOL0     C70770   9.218   2.923   5.723 -1.0687  0.2478 -1.5868
  525MOL0     O70771   9.202   3.044   5.669  1.4641 -0.8389 -0.2239
  525MOL0     C70772   9.173   3.071   5.537 -0.2129 -0.5666  0.1520
  525MOL0     C70773   9.138   2.975   5.442 -0.8097 -0.2424  1.3797
  525MOL0     C70774   9.131   3.012   5.306 -0.4814 -0.4383 -0.6509
  525MOL0     C70775   9.137   3.140   5.267 -0.5099 -0.4109 -0.0280
  525MOL0     O70776   9.138   3.153   5.130 -0.3702 -0.4771 -0.4775
  525MOL0     C70777   9.209   3.267   5.082 -0.1654  0.0224  0.4126
  525MOL0     C70778   9.247   3.244   4.932 -0.0512  0.2122 -0.1123
  525MOL0     C70779   9.373   3.313   4.887 -1.1681  0.3098  0.5631
  525MOL0     C70780   9.507   3.278   4.967 -0.1715  0.0661  0.3434
  525MOL0     C70781   9.624   3.335   4.895 -0.2444  0.4871  0.1023
  525MOL0     C70782   9.751   3.295   4.967 -0.6096  0.1847  0.5394
  525MOL0     C70783   9.889   3.352   4.908 -0.2665  0.6825 -1.0243
  525MOL0     C70784  10.000   3.296   5.002  0.1507 -0.1019 -0.0262
  525MOL0    Cl70785  10.153   3.375   4.972 -0.3678 -0.0401 -0.3821
  525MOL0     C70786   9.165   3.244   5.356  0.0625 -0.0134 -0.0858
  525MOL0     C70787   9.178   3.203   5.497 -0.2768 -1.3600  0.9113
  525MOL0     O70788   9.190   2.817   5.677 -0.9294  0.5877 -0.5724
  525MOL0     C70789   9.375   3.050   5.874 -0.2151 -1.9324 -0.0949
  525MOL0     C70790   9.444   3.083   6.000  0.0718  0.2842  1.5536
  525MOL0     N70791   8.898   3.221   6.354  0.5360  0.7217  0.2636
  525MOL0     N70792   8.817   3.183   6.262 -0.3870 -0.1664  0.4251
  525MOL0     C70793   8.679   3.373   5.087 -0.2384 -0.4294 -0.1024
  525MOL0     C70794   8.656   3.483   5.008 -0.3118  0.4112 -0.1089
  525MOL0     C70795   8.562   3.889   4.869 -0.8593 -0.1506 -0.8043
  525MOL0     C70796   8.583   3.980   4.977  0.0355 -0.8143  0.1305
  525MOL0     C70797   8.512   4.113   4.976 -0.4478  0.7273 -0.4686
  525MOL0     C70798   8.423   4.151   4.872 -0.1816 -0.2388 -0.4476
  525MOL0     O70799   8.350   4.269   4.866  0.1051 -0.2256 -1.0564
  525MOL0     C70800   8.349   4.351   4.986  0.2136 -0.3912  0.7290
  525MOL0     C70801   8.252   4.469   4.989  0.5621  0.6042 -0.3283
  525MOL0     C70802   8.111   4.399   5.017 -0.2450 -0.0422  0.5009
  525MOL0     C70803   8.004   4.517   5.026 -0.1891  0.0035  0.9983
  525MOL0     C70804   7.875   4.445   5.016  0.4024  0.1327  0.4169
  525MOL0     C70805   7.755   4.406   5.009 -0.2825 -0.0635  0.2068
  525MOL0     C70806   8.412   4.060   4.770  0.1316  0.1313 -0.3376
  525MOL0     C70807   8.478   3.936   4.769 -0.7982 -0.1177 -0.6642
  525MOL0     H70808   8.912   3.669   5.104 -0.2424  0.4408  2.3308
  525MOL0     H70809   8.949   3.463   5.253  0.1675 -0.4019 -1.0804
  525MOL0     H70810   8.707   3.116   5.183  0.6138 -0.1019  0.4250
  525MOL0     H70811   8.810   3.073   5.322  0.4454  0.8438 -0.9688
  525MOL0     H70812   8.610   3.304   5.346  3.2712  0.9926  0.3726
  525MOL0     H70813   8.553   3.141   5.393 -3.6145  4.8519  0.1335
  525MOL0     H70814   8.803   3.283   5.506  0.1049  0.6418  1.3220
  525MOL0     H70815   8.634   3.310   5.566 -0.7249 -0.1091 -0.2910
  525MOL0     H70816   8.599   3.093   5.633 -1.3207 -0.2454 -0.3956
  525MOL0     H70817   8.730   3.024   5.536  2.0989  0.5612  0.8094
  525MOL0     H70818   8.897   3.133   5.665  0.0993  3.1449  0.3724
  525MOL0     H70819   8.771   3.222   5.761  0.4961 -1.2026  3.2399
  525MOL0     H70820   8.688   3.016   5.854 -0.6027 -0.9965 -4.1492
  525MOL0     H70821   8.820   2.931   5.756 -2.0590 -1.4913 -0.5856
  525MOL0     H70822   8.903   2.959   6.005 -1.3060  0.7455  0.7024
  525MOL0     H70823   8.975   3.078   5.902  1.3293 -0.1380  0.6837
  525MOL0     H70824   8.712   3.148   6.051  0.6817  1.6850  4.4987
  525MOL0     H70825   8.828   3.258   5.962 -0.3560 -0.2472 -0.5950
  525MOL0     H70826   9.094   3.184   6.090  0.5978  1.0248 -0.3656
  525MOL0     H70827   9.227   3.282   6.363  1.7169 -0.7901  1.1693
  525MOL0     H70828   9.118   3.281   6.491 -1.5604  1.0249 -1.2778
  525MOL0     H70829   9.094   3.017   6.468  0.1580 -1.5784 -1.5197
  525MOL0     H70830   9.229   3.106   6.538 -2.4147  2.4360  0.0679
  525MOL0     H70831   9.228   2.972   6.249  1.3252  2.3758 -1.0384
  525MOL0     H70832   9.322   2.929   6.406 -0.1795  2.1372  3.8187
  525MOL0     H70833   9.458   3.120   6.382  0.1601 -2.7011  0.5031
  525MOL0     H70834   9.351   3.169   6.240  2.3963  1.3681  0.5710
  525MOL0     H70835   9.387   2.782   6.130 -3.4748  1.4031  0.9285
  525MOL0     H70836   9.116   2.729   5.951  1.0130 -1.1509  2.5883
  525MOL0     H70837   9.245   2.646   5.855  4.3425 -0.1458  1.0519
  525MOL0     H70838   9.237   2.657   6.031 -0.1954  0.2296 -0.0744
  525MOL0     H70839   9.139   2.868   5.458 -1.8734 -0.6713 -0.9567
  525MOL0     H70840   9.112   2.935   5.232  1.7736 -2.0475  0.3488
  525MOL0     H70841   9.151   3.360   5.087  0.8883  0.6797  0.7830
  525MOL0     H70842   9.302   3.277   5.137  0.5969 -2.0279 -0.4030
  525MOL0     H70843   9.251   3.136   4.916 -1.2013 -0.0488  1.2075
  525MOL0     H70844   9.171   3.277   4.861 -0.1985  1.6123  0.6591
  525MOL0     H70845   9.364   3.421   4.883  3.0355  0.7621 -1.3262
  525MOL0     H70846   9.382   3.272   4.786 -0.8320  0.4312  0.5448
  525MOL0     H70847   9.494   3.308   5.072 -4.2922 -2.6599  0.8544
  525MOL0     H70848   9.521   3.170   4.960 -3.0098 -0.2829 -1.4240
  525MOL0     H70849   9.616   3.443   4.885 -3.8664  0.3254  0.1979
  525MOL0     H70850   9.627   3.298   4.792 -2.1176  0.6828 -0.0528
  525MOL0     H70851   9.750   3.342   5.066  2.5155  0.8695  0.3435
  525MOL0     H70852   9.759   3.186   4.974  1.1880  0.2332 -0.2436
  525MOL0     H70853   9.901   3.460   4.912  0.8655  0.6805 -3.1150
  525MOL0     H70854   9.915   3.324   4.806  1.7159 -1.5176 -0.0295
  525MOL0     H70855  10.014   3.190   4.978 -1.2876 -0.2605 -0.2837
  525MOL0     H70856   9.976   3.309   5.108 -2.5036 -3.5688 -0.0350
  525MOL0     H70857   9.168   3.348   5.325 -0.1483  0.5980  1.7858
  525MOL0     H70858   9.219   3.274   5.568  1.6653 -1.3966 -0.1075
  525MOL0     H70859   9.375   3.134   5.805 -1.5538  0.9001  3.0256
  525MOL0     H70860   9.496   3.177   6.020  1.7540 -0.2331 -0.0811
  525MOL0     H70861   8.592   3.307   5.094 -2.1133  1.9341  0.0395
  525MOL0     H70862   8.574   3.489   4.937 -1.6286 -2.5379  0.9780
  525MOL0     H70863   8.635   3.969   5.072 -0.2514  2.0827  0.7074
  525MOL0     H70864   8.524   4.178   5.062 -1.5328  0.7497 -0.3134
  525MOL0     H70865   8.326   4.287   5.072  0.8579 -0.5343  0.7949
  525MOL0     H70866   8.444   4.397   5.013  0.2702  1.2320 -1.8384
  525MOL0     H70867   8.270   4.513   4.891  0.5917 -2.0163 -1.5726
  525MOL0     H70868   8.282   4.533   5.073 -0.3634  1.4393 -0.6063
  525MOL0     H70869   8.113   4.344   5.111 -2.7950 -0.0879  0.5952
  525MOL0     H70870   8.102   4.327   4.936 -0.5552  1.1300 -0.5518
  525MOL0     H70871   8.007   4.578   4.935 -1.5070  2.2382  2.3566
  525MOL0     H70872   8.020   4.581   5.113  1.8707  1.5730 -0.4513
  525MOL0     H70873   7.656   4.367   4.995  0.5555 -2.4554  0.4788
  525MOL0     H70874   8.341   4.075   4.689  0.7331  0.0323 -0.8945
  525MOL0     H70875   8.463   3.869   4.685  0.9362  2.9335 -3.6765
  526MOL0     O70876   0.416   0.681   6.581  0.9252 -0.4324 -0.2192
  526MOL0     C70877   0.540   0.679   6.573  0.7469 -0.5634 -0.2922
  526MOL0     O70878   0.631   0.615   6.653 -0.0907  0.6640  0.5099
  526MOL0     C70879   0.585   0.531   6.753  0.6765  0.0059  0.9148
  526MOL0     C70880   0.463   0.549   6.822  0.6729 -0.4800 -0.1912
  526MOL0     C70881   0.435   0.467   6.924  0.5903 -0.1921 -0.0753
  526MOL0     C70882   0.510   0.357   6.951 -0.2462 -0.6053  0.4537
  526MOL0     O70883   0.471   0.259   7.033 -0.4081  1.2075 -0.3441
  526MOL0     C70884   0.498   0.269   7.170  0.5175 -0.5958 -0.4636
  526MOL0     C70885   0.380   0.195   7.242 -1.3919 -0.0065 -0.1006
  526MOL0     C70886   0.247   0.265   7.229  0.6991  0.4223  0.5613
  526MOL0     C70887   0.145   0.197   7.327 -0.0040  0.1156  0.3578
  526MOL0     C70888   0.028   0.288   7.370  0.1408 -0.2235  0.8838
  526MOL0     C70889  -0.067   0.326   7.249 -0.4805  1.1050 -0.3982
  526MOL0     C70890  -0.208   0.372   7.290  0.2312 -0.1572 -0.2781
  526MOL0     C70891  -0.249   0.499   7.214  0.1820 -0.0200  0.2628
  526MOL0     N70892  -0.256   0.613   7.305  0.9439 -0.1652 -0.7941
  526MOL0     C70893  -0.154   0.636   7.389 -0.4068  0.4730  0.1402
  526MOL0     C70894  -0.203   0.736   7.468  0.8872  0.1304  0.5962
  526MOL0     C70895  -0.155   0.794   7.599  0.3981  0.2571  0.2984
  526MOL0     C70896  -0.039   0.723   7.665  0.0537  0.4540 -0.1726
  526MOL0     C70897   0.009   0.807   7.782 -0.7587 -0.4116  0.1720
  526MOL0     C70898   0.097   0.714   7.880 -0.3694  1.5030  0.1753
  526MOL0     O70899   0.160   0.812   7.966  0.2370 -0.3239  0.6185
  526MOL0     C70900   0.186   0.792   8.098 -0.1180 -0.7454 -0.2344
  526MOL0     C70901   0.133   0.699   8.186 -0.5761 -0.0850 -0.0124
  526MOL0     C70902   0.169   0.705   8.321  0.4385 -0.5386  0.6230
  526MOL0     C70903   0.091   0.604   8.419 -0.1639  0.4663 -0.8826
  526MOL0     C70904   0.250   0.816   8.373  0.5288  0.1809  0.1864
  526MOL0     C70905   0.278   0.826   8.514 -0.8540 -0.7095 -1.1144
  526MOL0     O70906   0.328   0.717   8.577 -0.1916  0.1843  1.0455
  526MOL0     C70907   0.346   0.707   8.708 -0.2235 -0.2238  0.1518
  526MOL0     C70908   0.241   0.698   8.799 -0.1510 -1.1216 -0.4248
  526MOL0     C70909   0.275   0.689   8.938 -0.3868  1.5217 -0.0859
  526MOL0     C70910   0.402   0.672   8.984  1.0555  0.0820 -0.0115
  526MOL0     O70911   0.429   0.655   9.115  0.0033 -0.2047 -0.3815
  526MOL0     C70912   0.330   0.642   9.213  0.0491  0.1187  0.5255
  526MOL0     C70913   0.402   0.575   9.332  0.2068  0.4005 -0.2004
  526MOL0     C70914   0.505   0.671   9.390  0.9689 -0.0919 -0.0929
  526MOL0     C70915   0.589   0.598   9.498  0.1399  1.0924  0.2824
  526MOL0     C70916   0.645   0.697   9.606 -0.3842 -0.3351  0.0711
  526MOL0     C70917   0.672   0.614   9.728  0.9542  0.1987  0.3206
  526MOL0     C70918   0.732   0.691   9.847  0.8720 -0.2646 -0.1527
  526MOL0     C70919   0.831   0.808   9.828  0.0746 -0.2220 -0.1947
  526MOL0    Cl70920   0.759   0.942   9.729 -0.0074  0.3200 -0.3156
  526MOL0     C70921   0.509   0.683   8.891  0.2970  0.3798 -0.4154
  526MOL0     C70922   0.479   0.693   8.755  0.3739  0.3159  0.7259
  526MOL0     O70923   0.249   0.935   8.570  0.1283  0.2931 -0.4077
  526MOL0     C70924   0.297   0.910   8.288 -0.0675  0.6000 -0.0798
  526MOL0     C70925   0.281   0.895   8.148  0.1652 -0.4128  0.7358
  526MOL0     N70926  -0.328   0.767   7.424  1.0723 -1.3869  0.2171
  526MOL0     N70927  -0.365   0.687   7.333 -0.3922  0.5805 -0.2315
  526MOL0     C70928   0.631   0.329   6.873 -0.3674 -0.4179 -0.1857
  526MOL0     C70929   0.662   0.428   6.778 -0.7631 -0.0429 -0.0679
  526MOL0     C70930   0.581   0.744   6.452 -0.1799 -0.0847 -1.0153
  526MOL0     C70931   0.717   0.721   6.412 -0.1376 -0.2363  0.7243
  526MOL0     C70932   0.765   0.777   6.297  0.2992 -0.7981  0.3864
  526MOL0     C70933   0.689   0.863   6.213  0.2705  0.1161 -0.4614
  526MOL0     O70934   0.748   0.929   6.116 -0.7583  0.0264  0.9347
  526MOL0     C70935   0.888   0.918   6.065 -0.3778 -0.9911 -1.1770
  526MOL0     C70936   0.979   1.018   6.140  0.7382  1.0186  0.7569
  526MOL0     C70937   1.123   0.990   6.101 -0.9760 -0.8036 -0.1112
  526MOL0     C70938   1.166   0.989   5.956  0.2568  0.2878  0.3810
  526MOL0     C70939   1.110   1.106   5.883  0.1546 -1.2293  0.1242
  526MOL0     C70940   1.071   1.215   5.837  0.5521 -0.0327  0.0355
  526MOL0     C70941   0.565   0.887   6.262  0.2113  0.9343 -0.2769
  526MOL0     C70942   0.507   0.841   6.385 -0.5110  0.4156 -0.0749
  526MOL0     H70943   0.382   0.617   6.798 -0.4566 -1.8086 -0.2892
  526MOL0     H70944   0.353   0.494   6.989 -0.3205  0.4752 -1.4414
  526MOL0     H70945   0.595   0.220   7.187 -0.2964 -2.3446 -0.6363
  526MOL0     H70946   0.494   0.374   7.200  2.7313 -0.6109  0.0834
  526MOL0     H70947   0.378   0.088   7.218 -2.2091 -0.5133  2.0055
  526MOL0     H70948   0.403   0.195   7.349 -3.4585 -2.3476  0.4439
  526MOL0     H70949   0.249   0.372   7.252 -0.6249  1.0657 -1.9400
  526MOL0     H70950   0.206   0.274   7.128 -2.0390 -0.3907  1.5327
  526MOL0     H70951   0.104   0.110   7.274  0.2492  0.5319 -0.5556
  526MOL0     H70952   0.207   0.154   7.406 -0.1604  1.1153  1.0445
  526MOL0     H70953  -0.037   0.224   7.431 -0.7853  0.2637  0.4215
  526MOL0     H70954   0.063   0.373   7.430 -2.0407  1.1593  0.3232
  526MOL0     H70955  -0.027   0.390   7.170  0.3703  1.6375  0.4502
  526MOL0     H70956  -0.093   0.235   7.194  1.8494  2.1726 -3.5668
  526MOL0     H70957  -0.287   0.297   7.277 -1.7450  1.9766 -1.5345
  526MOL0     H70958  -0.216   0.387   7.398 -2.1870  2.7206 -0.6960
  526MOL0     H70959  -0.345   0.484   7.164  2.2357 -1.0830 -3.8759
  526MOL0     H70960  -0.189   0.514   7.124  0.3482  0.5823  0.4683
  526MOL0     H70961  -0.061   0.582   7.393  0.0207  1.2462  1.0323
  526MOL0     H70962  -0.129   0.898   7.578 -0.9424 -0.0023 -3.4632
  526MOL0     H70963  -0.238   0.793   7.670  2.5886 -0.8779  3.0517
  526MOL0     H70964   0.035   0.700   7.588 -3.0049 -1.7399 -2.7200
  526MOL0     H70965  -0.065   0.629   7.715  2.2339  0.7105  1.5674
  526MOL0     H70966  -0.075   0.841   7.843 -2.3890 -0.4794 -1.9370
  526MOL0     H70967   0.070   0.891   7.749 -2.9866  1.6818  1.0919
  526MOL0     H70968   0.171   0.648   7.834  1.0855  1.2998  2.5909
  526MOL0     H70969   0.033   0.646   7.937 -1.6278 -0.0934 -2.9366
  526MOL0     H70970   0.070   0.618   8.151 -0.7631  0.6433 -1.4303
  526MOL0     H70971   0.130   0.502   8.419  1.5757  1.0891  0.3652
  526MOL0     H70972   0.106   0.646   8.519  0.7039  1.6047 -1.4691
  526MOL0     H70973  -0.017   0.609   8.400 -0.5664  3.3566  1.4571
  526MOL0     H70974   0.140   0.706   8.761  0.6803  1.4190 -2.3639
  526MOL0     H70975   0.196   0.692   9.013 -1.4219  0.5388 -1.1058
  526MOL0     H70976   0.283   0.738   9.236 -2.3380 -1.0061  0.6285
  526MOL0     H70977   0.247   0.580   9.180  1.0030  0.7455 -3.6067
  526MOL0     H70978   0.336   0.535   9.409 -2.6236 -0.9014 -3.0359
  526MOL0     H70979   0.454   0.482   9.305 -1.6519 -0.4674 -0.9953
  526MOL0     H70980   0.455   0.760   9.430  0.7301  1.5559 -3.6586
  526MOL0     H70981   0.571   0.716   9.315 -1.6148 -0.4965 -2.7708
  526MOL0     H70982   0.520   0.528   9.545  2.1398 -3.4767 -2.8468
  526MOL0     H70983   0.669   0.537   9.455 -2.6686 -1.4072 -1.8577
  526MOL0     H70984   0.578   0.776   9.640  0.9426  1.3703 -1.0739
  526MOL0     H70985   0.735   0.745   9.566 -0.0730 -1.1345 -0.2247
  526MOL0     H70986   0.572   0.573   9.748 -0.6305  3.8920  0.6620
  526MOL0     H70987   0.744   0.535   9.704 -1.2471 -0.9411 -3.2460
  526MOL0     H70988   0.761   0.606   9.910 -2.5520 -1.2649  0.2677
  526MOL0     H70989   0.644   0.737   9.892 -0.8392 -2.4443 -1.1201
  526MOL0     H70990   0.929   0.781   9.788  0.5761  0.7219  0.3613
  526MOL0     H70991   0.858   0.839   9.930 -1.0697 -1.6987  0.5962
  526MOL0     H70992   0.613   0.686   8.922 -0.0380  1.6885  0.6738
  526MOL0     H70993   0.558   0.695   8.680 -2.4023  3.0619 -2.4959
  526MOL0     H70994   0.366   0.989   8.315  2.2260 -0.3256 -2.7593
  526MOL0     H70995   0.335   0.963   8.084 -2.3393 -1.2451 -2.5372
  526MOL0     H70996   0.688   0.239   6.895 -0.0418 -0.5009 -1.2835
  526MOL0     H70997   0.753   0.426   6.719 -2.0694  1.8084 -2.3274
  526MOL0     H70998   0.781   0.642   6.449 -1.9812 -3.1343 -1.7593
  526MOL0     H70999   0.866   0.752   6.264 -0.2264 -1.5966 -0.6743
  526MOL0     H71000   0.925   0.815   6.068 -0.9001 -1.1622  0.3272
  526MOL0     H71001   0.872   0.943   5.960  1.4601 -0.8755 -1.4558
  526MOL0     H71002   0.976   0.987   6.245  2.5428 -5.9344 -0.7266
  526MOL0     H71003   0.945   1.119   6.114  1.3945  0.7424 -1.3605
  526MOL0     H71004   1.148   0.891   6.141  0.3149 -0.6392 -0.4531
  526MOL0     H71005   1.189   1.057   6.157 -0.5787  1.5013 -3.1118
  526MOL0     H71006   1.119   0.898   5.918  1.9400 -1.0390  1.3266
  526MOL0     H71007   1.275   0.980   5.955  0.0795 -3.4180  0.5884
  526MOL0     H71008   1.065   1.318   5.805  2.8638  0.1974  0.1820
  526MOL0     H71009   0.514   0.958   6.199  1.2545  3.8763  1.9536
  526MOL0     H71010   0.410   0.869   6.426 -2.2398 -2.0409 -2.1047
  527MOL0     O71011   2.017   4.612   4.654 -0.3449  0.5068 -0.4182
  527MOL0     C71012   2.089   4.519   4.695 -0.5856 -0.8527  0.3852
  527MOL0     O71013   2.083   4.460   4.816  0.0680 -0.6988 -0.4229
  527MOL0     C71014   1.999   4.518   4.914  0.9248  0.3309 -0.2704
  527MOL0     C71015   1.863   4.496   4.933 -0.2599  0.3866  0.1705
  527MOL0     C71016   1.786   4.551   5.029 -0.0487 -0.5772 -0.3333
  527MOL0     C71017   1.840   4.652   5.116  0.5202 -0.5291 -1.5599
  527MOL0     O71018   1.757   4.735   5.181  0.0552  0.1885  0.5222
  527MOL0     C71019   1.798   4.750   5.313  0.2278 -0.4626  0.7594
  527MOL0     C71020   1.672   4.793   5.388 -0.1839  0.0724  0.1369
  527MOL0     C71021   1.627   4.933   5.317 -0.1477 -0.0230 -0.0430
  527MOL0     C71022   1.682   5.044   5.413  0.5887  0.1856 -0.5494
  527MOL0     C71023   1.584   5.156   5.462 -0.0909 -0.0315  0.1402
  527MOL0     C71024   1.658   5.266   5.534  0.2642  0.1726 -0.7730
  527MOL0     C71025   1.565   5.390   5.552  0.2601  0.1855  1.1258
  527MOL0     C71026   1.441   5.353   5.628 -0.4925 -0.8814  0.4526
  527MOL0     N71027   1.373   5.473   5.674 -0.1543 -0.3662 -0.2560
  527MOL0     C71028   1.410   5.536   5.791 -0.2088 -0.9431 -0.2967
  527MOL0     C71029   1.302   5.622   5.810 -0.1585 -0.3953 -0.2133
  527MOL0     C71030   1.313   5.739   5.903  1.4010 -0.0174  0.0468
  527MOL0     C71031   1.193   5.763   5.995 -0.7155 -0.2868 -0.3969
  527MOL0     C71032   1.236   5.854   6.111  1.1309  0.1554 -0.0444
  527MOL0     C71033   1.302   5.783   6.230  0.0964  0.4724  0.5231
  527MOL0     O71034   1.346   5.872   6.328 -0.3648  0.0960 -0.1557
  527MOL0     C71035   1.251   5.936   6.390 -0.3948  0.1194 -0.3876
  527MOL0     C71036   1.263   6.077   6.399  0.1553 -0.1694 -0.5650
  527MOL0     C71037   1.189   6.166   6.480 -0.0748 -0.0176 -0.7666
  527MOL0     C71038   1.228   6.313   6.481  0.8498  0.4079  0.8281
  527MOL0     C71039   1.082   6.102   6.552  0.7878  0.5556 -0.0212
  527MOL0     C71040   0.980   6.180   6.634 -0.9212  0.2427 -0.1035
  527MOL0     O71041   0.895   6.098   6.712 -0.1571 -0.7224  0.4850
  527MOL0     C71042   0.810   6.158   6.799  0.6922 -0.7903  0.0102
  527MOL0     C71043   0.844   6.261   6.887  0.0755 -0.2056  0.2663
  527MOL0     C71044   0.747   6.330   6.971 -0.7747  0.0761 -0.3104
  527MOL0     C71045   0.614   6.291   6.975 -0.4159  0.7018 -0.1106
  527MOL0     O71046   0.513   6.359   7.044 -0.0541  0.1269  0.1959
  527MOL0     C71047   0.543   6.451   7.150  0.2902 -0.5190 -0.0232
  527MOL0     C71048   0.492   6.595   7.128  0.2283  0.1594  0.1603
  527MOL0     C71049   0.603   6.691   7.078 -0.1952  0.2659  0.1293
  527MOL0     C71050   0.564   6.800   6.989 -0.1130 -0.8552  1.0296
  527MOL0     C71051   0.441   6.863   7.038 -0.4167 -0.6163 -0.0696
  527MOL0     C71052   0.440   7.015   7.009  0.1217  0.2901  0.1876
  527MOL0     C71053   0.370   7.088   7.122  1.1255 -0.1457 -0.2381
  527MOL0     C71054   0.474   7.113   7.234 -0.0436  0.3143 -0.1825
  527MOL0    Cl71055   0.366   7.165   7.371 -0.0639  0.3308  0.0122
  527MOL0     C71056   0.577   6.184   6.887 -0.2744  0.1836  0.4668
  527MOL0     C71057   0.673   6.125   6.803 -1.1365  0.9469  0.0673
  527MOL0     O71058   0.963   6.293   6.604 -0.2366 -0.6281 -0.4864
  527MOL0     C71059   1.060   5.956   6.538  0.0979 -0.9125  0.3442
  527MOL0     C71060   1.149   5.874   6.469 -0.7247  0.2088  0.3181
  527MOL0     N71061   1.219   5.622   5.703  0.1138 -0.7157 -0.2417
  527MOL0     N71062   1.262   5.534   5.620 -0.9417  0.2339  0.1830
  527MOL0     C71063   1.984   4.686   5.099  0.2336 -0.1274  0.0067
  527MOL0     C71064   2.063   4.613   5.006  0.6819  0.1753 -0.5389
  527MOL0     C71065   2.192   4.465   4.612  0.0851  0.3261  0.2378
  527MOL0     C71066   2.254   4.338   4.652 -0.1136 -0.4791  0.0034
  527MOL0     C71067   2.344   4.285   4.568 -0.2175  0.1802  0.7724
  527MOL0     C71068   2.377   4.335   4.439 -0.1092 -0.0219 -0.6455
  527MOL0     O71069   2.468   4.277   4.356  0.0534 -0.4436  0.6418
  527MOL0     C71070   2.559   4.180   4.413  0.1391  0.1273 -0.8778
  527MOL0     C71071   2.677   4.131   4.320 -0.0814 -0.8895 -0.2606
  527MOL0     C71072   2.765   4.021   4.382  0.0121 -0.5660  0.1403
  527MOL0     C71073   2.871   3.972   4.278  0.8282 -0.7491 -0.1628
  527MOL0     C71074   2.963   4.064   4.220  0.3492 -0.0537 -0.3323
  527MOL0     C71075   3.031   4.141   4.156  0.0682  0.7646 -0.4108
  527MOL0     C71076   2.313   4.447   4.393  0.1930 -0.7479  0.1830
  527MOL0     C71077   2.219   4.510   4.481 -0.2183  0.7784 -0.5895
  527MOL0     H71078   1.811   4.424   4.871 -1.7578  1.2138  0.4302
  527MOL0     H71079   1.680   4.531   5.040 -0.4027  2.1851  2.7311
  527MOL0     H71080   1.834   4.654   5.351 -2.0223 -2.1926 -1.1970
  527MOL0     H71081   1.879   4.824   5.308 -0.3797  0.1556 -2.4167
  527MOL0     H71082   1.605   4.710   5.365  0.0915 -0.1459  0.1131
  527MOL0     H71083   1.686   4.801   5.497  0.2289 -0.8121  0.1615
  527MOL0     H71084   1.669   4.937   5.216  3.3278 -0.2982  1.2705
  527MOL0     H71085   1.519   4.951   5.313  0.3189  3.2929 -2.1752
  527MOL0     H71086   1.720   5.003   5.507 -0.6426 -0.0362 -0.1251
  527MOL0     H71087   1.769   5.084   5.360 -0.0772  0.2630 -1.6114
  527MOL0     H71088   1.544   5.206   5.373  1.9936  1.4137 -0.0545
  527MOL0     H71089   1.506   5.109   5.522  1.5946 -1.3341  1.4005
  527MOL0     H71090   1.677   5.227   5.635 -1.3296 -0.4117 -0.6549
  527MOL0     H71091   1.751   5.284   5.480  0.6661 -0.9125 -0.4691
  527MOL0     H71092   1.626   5.468   5.598  0.1500  2.6278 -2.4905
  527MOL0     H71093   1.539   5.428   5.453  0.3497 -0.8248  0.6996
  527MOL0     H71094   1.475   5.287   5.708 -1.3395 -0.7386  0.9408
  527MOL0     H71095   1.373   5.300   5.560  0.9587 -0.7875 -1.1620
  527MOL0     H71096   1.501   5.529   5.849 -0.7664 -0.2847  0.6796
  527MOL0     H71097   1.401   5.728   5.968 -0.3788 -3.0127  2.1817
  527MOL0     H71098   1.325   5.827   5.839 -0.4028  2.3704  2.7623
  527MOL0     H71099   1.174   5.665   6.039  0.4271  0.3825  1.7678
  527MOL0     H71100   1.115   5.799   5.928 -0.3848  0.9718 -0.1353
  527MOL0     H71101   1.145   5.903   6.147 -0.0255 -0.8218 -1.4909
  527MOL0     H71102   1.310   5.931   6.088 -0.0831  2.0492  1.9851
  527MOL0     H71103   1.387   5.731   6.184 -1.5467 -1.3693 -0.6585
  527MOL0     H71104   1.242   5.694   6.251  3.0738 -2.2997 -1.6265
  527MOL0     H71105   1.353   6.115   6.351  0.8150 -0.7088  0.2162
  527MOL0     H71106   1.333   6.312   6.449  0.0348 -1.4989 -2.2161
  527MOL0     H71107   1.159   6.380   6.428  1.3336  0.4973  0.3075
  527MOL0     H71108   1.222   6.345   6.585  0.2786 -1.6375  1.4702
  527MOL0     H71109   0.950   6.282   6.875  0.3891 -2.4066 -1.4192
  527MOL0     H71110   0.791   6.414   7.023  1.1072 -2.0697  1.8444
  527MOL0     H71111   0.483   6.415   7.235 -2.9560  4.4639  0.1959
  527MOL0     H71112   0.647   6.437   7.181 -0.0445 -3.5665  0.1075
  527MOL0     H71113   0.402   6.595   7.065 -1.0647  1.1810  1.9079
  527MOL0     H71114   0.452   6.631   7.224  0.8454  1.7573 -0.1506
  527MOL0     H71115   0.676   6.623   7.032 -0.7255 -0.9650  1.0788
  527MOL0     H71116   0.665   6.735   7.157  2.1175 -1.9924 -0.2833
  527MOL0     H71117   0.643   6.875   6.976 -1.5434  0.6018  0.3609
  527MOL0     H71118   0.539   6.767   6.888 -0.0704 -2.3516  1.4917
  527MOL0     H71119   0.438   6.842   7.146 -0.5647 -4.3065 -0.6602
  527MOL0     H71120   0.358   6.804   6.998 -0.0418 -1.3338  0.1875
  527MOL0     H71121   0.541   7.050   6.985 -0.6485  1.0263 -2.2999
  527MOL0     H71122   0.381   7.033   6.919  0.5537  0.5733 -0.0406
  527MOL0     H71123   0.282   7.040   7.167  0.4580  1.6502  0.4886
  527MOL0     H71124   0.340   7.179   7.070  2.2085 -1.2461 -2.9423
  527MOL0     H71125   0.538   7.197   7.207  0.0291  0.2698 -0.1466
  527MOL0     H71126   0.529   7.022   7.258 -3.7527 -2.6676 -1.7692
  527MOL0     H71127   0.470   6.166   6.884 -0.1788 -0.4521  0.9574
  527MOL0     H71128   0.654   6.041   6.737 -3.0480 -0.2174  1.9368
  527MOL0     H71129   0.975   5.915   6.591 -1.1015  0.6712 -0.2720
  527MOL0     H71130   1.141   5.767   6.452  4.5715 -0.1311 -2.1698
  527MOL0     H71131   2.036   4.765   5.152 -1.0841  0.6973  0.1159
  527MOL0     H71132   2.171   4.619   5.012  0.6682 -0.6515  3.6819
  527MOL0     H71133   2.239   4.285   4.745 -3.2236 -1.3332 -0.8878
  527MOL0     H71134   2.392   4.194   4.602 -0.6981 -0.4244 -0.1368
  527MOL0     H71135   2.606   4.206   4.508 -1.8912 -2.6145  1.0436
  527MOL0     H71136   2.504   4.089   4.439  2.6692 -1.5240 -0.9622
  527MOL0     H71137   2.735   4.222   4.299 -0.7815 -0.1608  0.8436
  527MOL0     H71138   2.641   4.107   4.220 -2.5303  1.3633 -0.0250
  527MOL0     H71139   2.698   3.942   4.417 -1.9839  0.0661 -1.9877
  527MOL0     H71140   2.832   4.061   4.459  1.6796  1.9716 -2.4338
  527MOL0     H71141   2.823   3.918   4.195  2.4121 -0.8082 -1.0752
  527MOL0     H71142   2.928   3.900   4.338 -0.1736  0.9473  3.0593
  527MOL0     H71143   3.092   4.222   4.121 -0.2994 -0.0089 -3.0274
  527MOL0     H71144   2.334   4.492   4.296  2.1502  2.2051  1.8065
  527MOL0     H71145   2.164   4.595   4.443 -1.7600  0.5246  0.9815
  528MOL0     O71146   7.703   5.959   3.844 -0.0908  0.4312 -0.8543
  528MOL0     C71147   7.609   5.876   3.830 -1.1348 -0.0234 -0.1148
  528MOL0     O71148   7.617   5.744   3.844 -0.3364  0.4561  0.0774
  528MOL0     C71149   7.715   5.686   3.918 -0.5558 -1.2831 -0.8359
  528MOL0     C71150   7.731   5.725   4.047 -0.1284 -0.3284 -0.9064
  528MOL0     C71151   7.823   5.666   4.134 -0.0811 -0.0698 -0.3847
  528MOL0     C71152   7.895   5.560   4.076 -0.5680 -0.1524 -0.7402
  528MOL0     O71153   7.983   5.492   4.150  0.4312  0.6853 -0.8718
  528MOL0     C71154   7.935   5.449   4.282 -0.1728 -0.1059 -0.7210
  528MOL0     C71155   7.975   5.300   4.319 -1.1112 -0.3122  0.3787
  528MOL0     C71156   7.904   5.247   4.437  1.0301  1.0793 -0.8707
  528MOL0     C71157   7.899   5.335   4.565  0.4215  0.7111  0.6745
  528MOL0     C71158   7.852   5.248   4.683 -0.1395  0.8882  0.6842
  528MOL0     C71159   7.718   5.181   4.674  0.4800 -0.3949 -0.5639
  528MOL0     C71160   7.702   5.086   4.802  0.0237  0.8016 -0.3911
  528MOL0     C71161   7.696   4.932   4.761  0.6341  0.2753  0.2799
  528MOL0     N71162   7.824   4.891   4.704 -0.0569 -0.2958  0.4384
  528MOL0     C71163   7.932   4.840   4.769  0.0120  0.0795 -0.1064
  528MOL0     C71164   8.032   4.830   4.678  0.5508  0.5554  0.0701
  528MOL0     C71165   8.167   4.781   4.701 -0.6299 -0.0971  0.4163
  528MOL0     C71166   8.275   4.877   4.721 -0.2490  0.4262  0.1387
  528MOL0     C71167   8.263   5.025   4.656 -0.9179  0.6694 -0.4169
  528MOL0     C71168   8.389   5.105   4.690 -0.0506 -0.3382 -0.1455
  528MOL0     O71169   8.405   5.119   4.832  0.0490 -0.6045 -0.1243
  528MOL0     C71170   8.525   5.095   4.901 -0.1085  0.6026  0.4510
  528MOL0     C71171   8.641   5.042   4.849  0.1997  0.1450  1.1480
  528MOL0     C71172   8.753   5.030   4.923  0.1893  0.0578 -0.4085
  528MOL0     C71173   8.861   4.934   4.855 -0.4104  0.7619  0.4670
  528MOL0     C71174   8.755   5.075   5.057  0.1010  0.3363 -0.3824
  528MOL0     C71175   8.878   5.064   5.140  0.2202 -0.5886 -0.1146
  528MOL0     O71176   8.992   5.074   5.077  0.4081 -0.2152 -0.1327
  528MOL0     C71177   9.101   5.060   5.154 -0.2603  0.4358 -1.0666
  528MOL0     C71178   9.208   5.150   5.122  0.1319 -0.6100 -0.2208
  528MOL0     C71179   9.327   5.144   5.202 -0.4489 -0.3601  1.0257
  528MOL0     C71180   9.355   5.047   5.294 -0.5380  0.1000  1.2339
  528MOL0     O71181   9.473   5.041   5.367 -0.2957 -0.3345  0.1211
  528MOL0     C71182   9.566   5.156   5.384  0.4968  1.2779  0.1361
  528MOL0     C71183   9.686   5.090   5.467 -0.2107 -1.3948  0.9139
  528MOL0     C71184   9.661   5.067   5.616  0.3283  1.1052 -0.0120
  528MOL0     C71185   9.766   4.975   5.686  0.4624 -0.0778  0.5605
  528MOL0     C71186   9.734   4.920   5.835 -0.0836  0.3719 -0.6184
  528MOL0     C71187   9.775   4.768   5.851  0.5518 -0.1132 -1.0328
  528MOL0     C71188   9.743   4.723   5.992 -0.1395 -0.3111  0.2275
  528MOL0     C71189   9.593   4.716   6.033 -0.4175  0.6437 -0.7588
  528MOL0    Cl71190   9.508   4.624   5.912  0.0931  0.0392 -0.0736
  528MOL0     C71191   9.251   4.959   5.327 -1.2750 -0.1487 -0.8239
  528MOL0     C71192   9.127   4.967   5.262  0.6527 -0.5475  0.7302
  528MOL0     O71193   8.862   5.058   5.262 -0.3491  0.0572 -0.2285
  528MOL0     C71194   8.644   5.141   5.111  0.0828  0.7429  0.0834
  528MOL0     C71195   8.532   5.140   5.029 -0.6231  0.0501 -0.5919
  528MOL0     N71196   7.982   4.877   4.552  0.4201  0.1101 -0.0259
  528MOL0     N71197   7.860   4.918   4.567  0.2900  0.2977  0.4213
  528MOL0     C71198   7.876   5.523   3.943 -0.2660  0.0552 -0.4171
  528MOL0     C71199   7.780   5.585   3.866 -0.1264  0.5040 -0.7267
  528MOL0     C71200   7.474   5.929   3.785  0.0391 -1.6940 -0.4190
  528MOL0     C71201   7.374   5.837   3.752  0.2362 -0.0548  0.7173
  528MOL0     C71202   7.243   5.876   3.720 -0.6363 -0.5219  0.4918
  528MOL0     C71203   7.212   6.010   3.733  0.1990 -0.0383  0.0787
  528MOL0     O71204   7.082   6.056   3.709 -0.2351 -0.2550  0.6396
  528MOL0     C71205   6.968   5.968   3.736  0.0166 -0.5180  0.2234
  528MOL0     C71206   6.854   6.074   3.759  0.4275 -0.1006 -0.2564
  528MOL0     C71207   6.725   5.990   3.778  0.1165  0.1563 -0.7488
  528MOL0     C71208   6.614   6.090   3.817 -0.2712 -0.7150 -0.4800
  528MOL0     C71209   6.638   6.146   3.950 -0.1381 -0.3947  0.0440
  528MOL0     C71210   6.664   6.201   4.061  0.1241  0.2724  0.3592
  528MOL0     C71211   7.314   6.104   3.761  0.1041 -0.1792 -0.1132
  528MOL0     C71212   7.442   6.064   3.785  0.0988  0.2993  0.8074
  528MOL0     H71213   7.676   5.807   4.092 -0.4473 -0.1925 -1.5475
  528MOL0     H71214   7.845   5.697   4.236  0.1546 -1.4881  0.0179
  528MOL0     H71215   7.990   5.519   4.346 -0.2068  0.1353 -0.9575
  528MOL0     H71216   7.826   5.460   4.286 -0.0465  1.0916 -0.1807
  528MOL0     H71217   7.951   5.234   4.235  0.6438 -0.3771 -0.1118
  528MOL0     H71218   8.080   5.303   4.348 -0.7927  2.5338 -0.7632
  528MOL0     H71219   7.800   5.235   4.405  0.7774  4.8300 -1.9519
  528MOL0     H71220   7.951   5.151   4.458  0.7191  0.7282 -1.7572
  528MOL0     H71221   8.000   5.376   4.575  1.5591 -1.0321 -2.3413
  528MOL0     H71222   7.841   5.428   4.563  0.2103  0.6762  2.6941
  528MOL0     H71223   7.937   5.179   4.686  0.7818  1.7409 -2.1242
  528MOL0     H71224   7.850   5.322   4.764  1.7779  2.9664 -1.0066
  528MOL0     H71225   7.638   5.254   4.656 -1.2272 -2.4187 -1.6631
  528MOL0     H71226   7.716   5.118   4.585  0.5994 -0.2091 -0.6994
  528MOL0     H71227   7.792   5.096   4.864  0.2610 -0.9753 -0.3918
  528MOL0     H71228   7.615   5.118   4.860  0.6851  0.1957  0.9950
  528MOL0     H71229   7.626   4.930   4.677  2.1405  1.8864 -1.0885
  528MOL0     H71230   7.666   4.859   4.836 -0.6519 -0.7827 -1.1850
  528MOL0     H71231   7.931   4.819   4.875 -1.3136  2.7150  0.4883
  528MOL0     H71232   8.160   4.736   4.800 -2.1869 -0.8298 -0.0058
  528MOL0     H71233   8.205   4.715   4.623  2.2607  3.7261 -1.7934
  528MOL0     H71234   8.372   4.831   4.702 -0.6686 -1.6791  2.5536
  528MOL0     H71235   8.271   4.902   4.827 -1.0078 -2.5348  0.9283
  528MOL0     H71236   8.179   5.081   4.698 -0.6970 -1.2830  3.0094
  528MOL0     H71237   8.263   5.004   4.549 -2.0600 -0.5851 -0.1867
  528MOL0     H71238   8.396   5.201   4.638  0.3230 -1.5111 -2.3927
  528MOL0     H71239   8.469   5.045   4.647 -0.4789 -2.5116  1.8734
  528MOL0     H71240   8.658   5.016   4.745  0.9382 -1.5421  1.6514
  528MOL0     H71241   8.930   4.877   4.918 -0.4464  0.6321  0.3883
  528MOL0     H71242   8.811   4.860   4.792 -1.4064  0.2107  1.8688
  528MOL0     H71243   8.927   4.991   4.787  0.2528 -1.0300 -0.4468
  528MOL0     H71244   9.195   5.233   5.054  4.7743  2.4997  2.1482
  528MOL0     H71245   9.398   5.224   5.180  0.6263 -0.3261  4.1742
  528MOL0     H71246   9.602   5.199   5.290 -2.2050  2.9328 -0.2509
  528MOL0     H71247   9.519   5.233   5.446 -0.7738 -0.5601  1.5893
  528MOL0     H71248   9.704   4.998   5.410  0.0338 -1.0428  0.4110
  528MOL0     H71249   9.771   5.159   5.456 -1.6391  0.4530  1.0088
  528MOL0     H71250   9.564   5.020   5.629  1.2894 -0.4889  2.0214
  528MOL0     H71251   9.660   5.163   5.668 -2.8043  1.0658  0.1595
  528MOL0     H71252   9.774   4.883   5.627  3.3119 -2.5043  4.2300
  528MOL0     H71253   9.864   5.023   5.682  0.0961  0.7618  1.2147
  528MOL0     H71254   9.629   4.923   5.865 -0.2044 -3.6452 -0.0773
  528MOL0     H71255   9.796   4.981   5.902  0.4470  0.1797 -0.9231
  528MOL0     H71256   9.711   4.710   5.784 -3.2839  3.8393 -1.2122
  528MOL0     H71257   9.882   4.760   5.834  0.4680  0.3537 -1.8140
  528MOL0     H71258   9.791   4.779   6.072 -0.0123 -1.0465  0.6800
  528MOL0     H71259   9.771   4.617   5.992 -0.7068 -0.4983 -1.3242
  528MOL0     H71260   9.552   4.814   6.058  0.2694  0.1107  3.2838
  528MOL0     H71261   9.580   4.654   6.123  2.4080  0.9259 -0.0503
  528MOL0     H71262   9.270   4.885   5.404  0.8531 -0.2008 -1.3150
  528MOL0     H71263   9.045   4.897   5.277 -1.5780  2.5275  4.7446
  528MOL0     H71264   8.633   5.177   5.213 -1.4668  1.1200 -0.1978
  528MOL0     H71265   8.437   5.190   5.050 -1.3450 -0.3964 -2.6002
  528MOL0     H71266   7.927   5.446   3.886 -1.5961 -2.0807  1.1562
  528MOL0     H71267   7.749   5.552   3.767 -1.4031 -0.6690  0.0258
  528MOL0     H71268   7.403   5.733   3.756 -0.6891 -0.2928  1.4649
  528MOL0     H71269   7.165   5.805   3.696 -1.7025  0.5859  0.5433
  528MOL0     H71270   6.933   5.902   3.657  0.7152  0.2620 -0.7674
  528MOL0     H71271   6.990   5.904   3.821 -2.3981  2.6246  3.5389
  528MOL0     H71272   6.838   6.152   3.684 -0.2299  0.3707  0.3660
  528MOL0     H71273   6.886   6.134   3.845 -1.0258 -0.2395  0.4043
  528MOL0     H71274   6.743   5.911   3.851 -1.9978 -1.8631 -2.2325
  528MOL0     H71275   6.696   5.943   3.683 -1.7640 -1.2693  0.4398
  528MOL0     H71276   6.523   6.030   3.832 -0.2651  0.0701  4.5712
  528MOL0     H71277   6.602   6.168   3.741  2.9456  1.1586  0.7401
  528MOL0     H71278   6.692   6.263   4.145 -1.1275  1.5827 -0.1507
  528MOL0     H71279   7.288   6.210   3.759  0.9807  0.0294 -1.0570
  528MOL0     H71280   7.518   6.139   3.809 -0.7054  0.9362  1.3881
  529MOL0     O71281   6.557   0.510   7.798 -0.2445  0.0128 -0.0586
  529MOL0     C71282   6.532   0.624   7.831 -0.3602 -0.9004 -0.3046
  529MOL0     O71283   6.539   0.682   7.958 -0.0698  0.0439  0.4462
  529MOL0     C71284   6.580   0.600   8.055  0.0123  0.3175  0.2839
  529MOL0     C71285   6.514   0.478   8.085  0.6578  0.2229 -0.5807
  529MOL0     C71286   6.527   0.405   8.207 -0.7859 -1.1021  1.5678
  529MOL0     C71287   6.625   0.459   8.295  0.2773  0.1661 -0.2086
  529MOL0     O71288   6.631   0.423   8.431 -0.0129 -0.2815  0.7149
  529MOL0     C71289   6.756   0.454   8.502  0.6307  0.2680  1.0177
  529MOL0     C71290   6.779   0.371   8.624 -0.1140  0.1808 -0.1964
  529MOL0     C71291   6.664   0.384   8.728 -0.3430  0.5741  0.4661
  529MOL0     C71292   6.669   0.273   8.835 -0.2129  1.1247 -0.7418
  529MOL0     C71293   6.543   0.277   8.922  0.3098 -0.8067  0.1777
  529MOL0     C71294   6.507   0.144   8.996  0.8539  0.7037  0.4832
  529MOL0     C71295   6.619   0.112   9.101 -0.3536 -0.0308  1.1861
  529MOL0     C71296   6.579  -0.001   9.194  0.6303 -0.1180  0.2374
  529MOL0     N71297   6.692  -0.041   9.280  0.1973  0.6664  0.2477
  529MOL0     C71298   6.709   0.007   9.407 -1.0186 -0.3789 -0.3837
  529MOL0     C71299   6.840  -0.023   9.427 -0.1704 -0.0488 -0.0116
  529MOL0     C71300   6.931   0.023   9.535 -0.1733  0.0758 -0.2606
  529MOL0     C71301   6.997   0.155   9.506  0.4153 -0.4440  0.4137
  529MOL0     C71302   7.069   0.176   9.375 -0.6440 -0.4714  0.0407
  529MOL0     C71303   6.978   0.245   9.267  0.0019 -0.0679 -0.9456
  529MOL0     O71304   7.047   0.277   9.141 -0.4113  0.2857  0.7013
  529MOL0     C71305   7.034   0.196   9.035 -0.1666 -0.2471  0.5578
  529MOL0     C71306   6.993   0.065   9.034  0.4308 -0.1434 -0.5034
  529MOL0     C71307   6.968   0.000   8.910 -0.2705 -0.8860 -0.6629
  529MOL0     C71308   6.923  -0.142   8.919 -0.3963  0.3613 -0.4946
  529MOL0     C71309   6.986   0.062   8.785 -0.4123  0.1676  0.8848
  529MOL0     C71310   6.944   0.010   8.650  0.7767  0.5046 -0.6015
  529MOL0     O71311   7.024   0.043   8.547 -0.3916  0.1422 -0.0978
  529MOL0     C71312   7.001  -0.019   8.427 -0.6761  0.4201 -0.5056
  529MOL0     C71313   6.979   0.055   8.303  0.8013 -0.3096  0.8475
  529MOL0     C71314   6.979  -0.002   8.180  0.4226  0.2680 -0.0085
  529MOL0     C71315   6.984  -0.143   8.165  0.0492  0.3176 -0.3803
  529MOL0     O71316   6.962  -0.217   8.052 -0.7000 -0.5270  0.3178
  529MOL0     C71317   6.995  -0.149   7.933  0.1263  0.2367  0.3372
  529MOL0     C71318   6.979  -0.262   7.826  0.2218 -0.2140 -0.2084
  529MOL0     C71319   7.083  -0.369   7.843  0.1523  1.3469 -0.1180
  529MOL0     C71320   7.090  -0.481   7.739 -0.1197 -0.0078 -1.0109
  529MOL0     C71321   7.194  -0.597   7.760 -1.4269 -0.8887  1.4309
  529MOL0     C71322   7.169  -0.699   7.647 -0.5668  0.7954 -0.2315
  529MOL0     C71323   7.253  -0.836   7.675  0.0038  0.1663  0.0181
  529MOL0     C71324   7.400  -0.819   7.645  0.1474 -0.0703 -0.7903
  529MOL0    Cl71325   7.460  -0.735   7.490  0.1642 -0.5161 -0.3653
  529MOL0     C71326   7.006  -0.218   8.289 -0.0077  0.0626 -0.5815
  529MOL0     C71327   7.012  -0.155   8.415  0.1302 -0.9264 -0.8335
  529MOL0     O71328   6.833  -0.044   8.643  0.1572  0.0577 -0.1801
  529MOL0     C71329   7.047   0.189   8.789 -0.0423  0.6226 -0.3413
  529MOL0     C71330   7.060   0.258   8.913  1.1083  0.5373  0.5028
  529MOL0     N71331   6.889  -0.110   9.323  0.9172  0.1377  0.5385
  529MOL0     N71332   6.790  -0.126   9.241 -0.4990 -0.2329 -0.7613
  529MOL0     C71333   6.694   0.575   8.257  0.3418 -0.1692  0.0737
  529MOL0     C71334   6.672   0.643   8.142 -0.5013 -0.2699  0.1584
  529MOL0     C71335   6.452   0.699   7.724  0.0580 -0.1979 -0.9720
  529MOL0     C71336   6.450   0.640   7.597  0.6050 -0.1721 -0.7957
  529MOL0     C71337   6.378   0.695   7.488  0.3763  0.4330  0.2320
  529MOL0     C71338   6.312   0.816   7.501 -0.3982  0.2273 -0.3608
  529MOL0     O71339   6.232   0.859   7.391 -1.1366  0.3139  0.8495
  529MOL0     C71340   6.261   0.989   7.345 -0.1511  0.5785 -0.6948
  529MOL0     C71341   6.386   1.004   7.267 -0.3974  0.6665  0.1805
  529MOL0     C71342   6.420   1.145   7.252 -0.1886  0.6124 -0.5135
  529MOL0     C71343   6.524   1.177   7.140 -0.2077 -0.1894 -0.3190
  529MOL0     C71344   6.475   1.184   7.008 -0.2210 -0.4224  0.2168
  529MOL0     C71345   6.431   1.206   6.896 -0.2370 -0.4896  0.7732
  529MOL0     C71346   6.306   0.875   7.622  0.5088  0.5142 -1.5395
  529MOL0     C71347   6.373   0.812   7.736  0.8691  0.4317 -0.4812
  529MOL0     H71348   6.451   0.423   8.015  1.9506 -3.3350  0.8318
  529MOL0     H71349   6.450   0.331   8.223 -1.7741 -0.8648 -1.5067
  529MOL0     H71350   6.840   0.462   8.432 -1.9451  2.2414 -2.1595
  529MOL0     H71351   6.741   0.558   8.534 -0.2864  1.0441 -1.6322
  529MOL0     H71352   6.783   0.267   8.591 -1.6808  1.0838 -3.7601
  529MOL0     H71353   6.869   0.399   8.681  0.4174  1.4836 -1.6031
  529MOL0     H71354   6.668   0.482   8.778  3.2277 -0.4930  2.6777
  529MOL0     H71355   6.569   0.388   8.675  0.4558 -0.2972 -1.1344
  529MOL0     H71356   6.679   0.172   8.794  2.7496  1.4410 -1.0510
  529MOL0     H71357   6.759   0.287   8.895 -0.9202  2.7944 -0.0068
  529MOL0     H71358   6.558   0.361   8.991 -0.2454 -0.2012 -0.4115
  529MOL0     H71359   6.460   0.300   8.854 -0.2845  3.3965  1.9706
  529MOL0     H71360   6.414   0.160   9.052  1.3200 -0.5029  1.6617
  529MOL0     H71361   6.507   0.057   8.930  1.7582 -1.9465  3.7209
  529MOL0     H71362   6.712   0.084   9.052  0.6933 -0.8571  3.5000
  529MOL0     H71363   6.637   0.208   9.149 -0.0926  1.9947 -2.5937
  529MOL0     H71364   6.544  -0.081   9.128  3.8120 -1.3135 -0.1587
  529MOL0     H71365   6.486   0.027   9.245 -0.5408  0.8527 -2.2832
  529MOL0     H71366   6.638   0.061   9.469  0.7909  2.2048 -0.3868
  529MOL0     H71367   6.877   0.043   9.628 -0.2166  0.5840 -0.3882
  529MOL0     H71368   7.000  -0.057   9.564 -1.6154 -0.3592  2.2215
  529MOL0     H71369   7.073   0.172   9.583  1.2482 -1.2918 -0.2060
  529MOL0     H71370   6.922   0.235   9.508  3.3462  2.5771  3.9112
  529MOL0     H71371   7.113   0.084   9.336  1.0606  0.5842 -0.6392
  529MOL0     H71372   7.154   0.235   9.411 -0.2681 -2.1097  2.0064
  529MOL0     H71373   6.941   0.343   9.298 -0.5479 -0.5023 -0.2005
  529MOL0     H71374   6.889   0.186   9.244 -1.1948  2.5645 -3.8120
  529MOL0     H71375   6.974   0.014   9.128 -2.6087  1.8562  0.0902
  529MOL0     H71376   6.979  -0.199   8.993 -0.2625  1.8102  0.5678
  529MOL0     H71377   6.819  -0.138   8.953  0.2641  1.3386  1.5868
  529MOL0     H71378   6.933  -0.189   8.820 -0.2778 -1.0147  0.1585
  529MOL0     H71379   6.977   0.163   8.300  1.0495 -0.3057 -2.8310
  529MOL0     H71380   6.965   0.054   8.088 -1.6026  2.7610  1.6739
  529MOL0     H71381   6.923  -0.069   7.912  1.0892  1.5368  1.7556
  529MOL0     H71382   7.095  -0.104   7.939  1.1678 -2.1414  2.6268
  529MOL0     H71383   6.875  -0.297   7.834 -0.7801  1.6082 -3.4460
  529MOL0     H71384   6.992  -0.211   7.730  0.2580  0.9720  0.4041
  529MOL0     H71385   7.071  -0.421   7.939  1.6821  2.0544  0.5027
  529MOL0     H71386   7.187  -0.335   7.838  1.8430 -3.0473  0.5396
  529MOL0     H71387   6.991  -0.525   7.757  0.6704 -0.5239  3.0704
  529MOL0     H71388   7.096  -0.434   7.640 -0.3932  1.6612 -0.2730
  529MOL0     H71389   7.180  -0.645   7.857  1.5816  1.7726  3.3862
  529MOL0     H71390   7.298  -0.565   7.747 -1.8096  0.3104  1.1852
  529MOL0     H71391   7.062  -0.722   7.643 -0.3468 -0.6282  1.0662
  529MOL0     H71392   7.193  -0.649   7.553  1.3139  0.4205  0.0088
  529MOL0     H71393   7.208  -0.917   7.617  1.1474 -1.2316  0.9919
  529MOL0     H71394   7.243  -0.868   7.779 -1.4222 -0.8312 -0.3979
  529MOL0     H71395   7.439  -0.921   7.633  0.3027 -0.2158  0.8034
  529MOL0     H71396   7.456  -0.777   7.729  4.3869 -1.8543 -2.4055
  529MOL0     H71397   7.013  -0.326   8.284 -0.2529 -0.2979  3.3341
  529MOL0     H71398   7.030  -0.209   8.508 -0.0374  1.5940  0.7568
  529MOL0     H71399   7.083   0.246   8.704 -1.3615 -1.3313 -2.3185
  529MOL0     H71400   7.090   0.361   8.898 -0.0611  0.7086 -0.9680
  529MOL0     H71401   6.761   0.624   8.327  0.1310 -0.6716  0.6400
  529MOL0     H71402   6.745   0.720   8.118  1.0545 -1.5159  0.7331
  529MOL0     H71403   6.498   0.546   7.569 -0.0242 -0.6908 -0.1635
  529MOL0     H71404   6.379   0.653   7.387 -1.1381 -0.9400  0.7430
  529MOL0     H71405   6.182   1.026   7.278  0.9425  1.3803 -1.5911
  529MOL0     H71406   6.263   1.064   7.425 -3.5004 -0.9043  0.9646
  529MOL0     H71407   6.390   0.957   7.168 -1.4949 -1.6172  1.1607
  529MOL0     H71408   6.470   0.948   7.310  2.0979  3.6587 -0.3688
  529MOL0     H71409   6.450   1.200   7.341 -1.1480  2.5484 -1.3046
  529MOL0     H71410   6.333   1.209   7.234 -0.6854  0.2246  0.4326
  529MOL0     H71411   6.600   1.099   7.149 -1.2519 -1.3559 -1.2422
  529MOL0     H71412   6.564   1.278   7.153  1.1312 -0.5967 -1.1070
  529MOL0     H71413   6.421   1.220   6.791  0.3812 -0.4235  0.7159
  529MOL0     H71414   6.242   0.962   7.628 -3.2551 -2.0955  1.1212
  529MOL0     H71415   6.367   0.865   7.830  0.0040  0.7075 -0.6918
  530MOL0     O71416   3.079   6.613   3.786 -0.1763  0.8906 -0.8504
  530MOL0     C71417   3.057   6.703   3.868  0.5262  0.5344 -0.4479
  530MOL0     O71418   3.153   6.766   3.946  0.3503  0.7566 -0.6269
  530MOL0     C71419   3.286   6.715   3.954 -0.1349  1.0475  0.1956
  530MOL0     C71420   3.301   6.582   3.985  1.0411 -0.1535  0.5132
  530MOL0     C71421   3.428   6.521   3.984  0.6466 -0.1617 -0.5110
  530MOL0     C71422   3.536   6.597   3.956  0.0814  0.2200 -0.3903
  530MOL0     O71423   3.664   6.542   3.950 -0.4623 -0.1621 -0.7497
  530MOL0     C71424   3.719   6.540   4.082  0.5571  0.9059 -0.5144
  530MOL0     C71425   3.753   6.674   4.158  0.0801  0.5438  0.5044
  530MOL0     C71426   3.824   6.659   4.288  0.8256  0.0139 -0.1903
  530MOL0     C71427   3.958   6.599   4.282 -0.2793  0.8330  0.0618
  530MOL0     C71428   4.051   6.635   4.413  0.1793 -0.5726 -0.2531
  530MOL0     C71429   4.181   6.558   4.412  0.1010  0.0013  0.3998
  530MOL0     C71430   4.266   6.585   4.529 -0.4668  0.2515 -0.0587
  530MOL0     C71431   4.306   6.731   4.553 -0.3179  0.5449 -0.3270
  530MOL0     N71432   4.423   6.740   4.637 -0.1019  0.4414  0.6298
  530MOL0     C71433   4.496   6.853   4.640 -0.9826 -0.4340 -0.8657
  530MOL0     C71434   4.613   6.827   4.712  0.3290  0.9486 -0.6285
  530MOL0     C71435   4.733   6.911   4.756 -0.0706 -0.2330  0.0382
  530MOL0     C71436   4.831   6.941   4.647 -0.0927 -0.0378 -0.9459
  530MOL0     C71437   4.918   6.818   4.613 -0.0622  0.0048 -0.3029
  530MOL0     C71438   5.009   6.825   4.495 -0.0046  0.4286  0.1828
  530MOL0     O71439   4.938   6.853   4.363 -0.1723  0.4815 -0.6702
  530MOL0     C71440   4.877   6.747   4.289 -0.4306 -0.5932  0.3890
  530MOL0     C71441   4.810   6.781   4.171 -0.6311  0.3266  0.4235
  530MOL0     C71442   4.762   6.685   4.081  0.4692  0.6561  0.1094
  530MOL0     C71443   4.694   6.752   3.961 -0.2451 -0.2382  0.8025
  530MOL0     C71444   4.772   6.543   4.110  0.5018 -0.5163 -0.5572
  530MOL0     C71445   4.690   6.437   4.046 -0.1654 -0.5292 -0.1243
  530MOL0     O71446   4.716   6.308   4.073 -0.4199  1.0241  0.0286
  530MOL0     C71447   4.623   6.213   4.039 -0.0135 -0.3129  0.1865
  530MOL0     C71448   4.480   6.221   4.083  0.6923 -0.8228 -0.1684
  530MOL0     C71449   4.383   6.131   4.033  0.5758 -0.4449 -0.2383
  530MOL0     C71450   4.417   6.026   3.949  0.7473 -0.2661 -0.9321
  530MOL0     O71451   4.314   5.940   3.915 -0.1579  1.0514  0.0500
  530MOL0     C71452   4.320   5.901   3.777 -0.1978  0.3749 -0.6108
  530MOL0     C71453   4.303   6.014   3.681 -0.1753 -0.0409  0.0199
  530MOL0     C71454   4.192   6.110   3.710 -0.8292 -0.9500  1.1646
  530MOL0     C71455   4.163   6.184   3.570  0.4737 -0.2392  0.4075
  530MOL0     C71456   4.032   6.267   3.586 -0.1527  0.0123 -0.3813
  530MOL0     C71457   4.014   6.327   3.446  0.2964 -0.2619  0.8340
  530MOL0     C71458   3.896   6.419   3.444  0.5791  0.5047  0.1996
  530MOL0     C71459   3.898   6.523   3.334  0.2129 -0.1448  0.3297
  530MOL0    Cl71460   3.743   6.591   3.310 -0.6231 -0.7136 -0.1617
  530MOL0     C71461   4.554   6.013   3.922 -0.3581 -1.2723 -0.2511
  530MOL0     C71462   4.654   6.109   3.954  0.4566 -0.4135 -0.6586
  530MOL0     O71463   4.606   6.472   3.963 -0.0415  0.3197 -0.3696
  530MOL0     C71464   4.840   6.511   4.225 -0.5836 -0.2758  0.2403
  530MOL0     C71465   4.883   6.609   4.317  0.6660 -1.0102  0.9762
  530MOL0     N71466   4.604   6.694   4.754 -1.1419  0.7854  0.4520
  530MOL0     N71467   4.489   6.640   4.709 -1.0729  0.4196 -0.5455
  530MOL0     C71468   3.528   6.727   3.913  1.6055 -0.6891 -0.3749
  530MOL0     C71469   3.400   6.783   3.916  0.6302 -0.5905 -0.0296
  530MOL0     C71470   2.921   6.748   3.898  0.7033  0.8020  0.1274
  530MOL0     C71471   2.896   6.802   4.022 -0.0427 -0.6396 -0.6596
  530MOL0     C71472   2.782   6.877   4.061 -0.3927 -0.2888 -0.2486
  530MOL0     C71473   2.687   6.881   3.965 -0.2613 -0.1477 -0.4941
  530MOL0     O71474   2.567   6.938   4.009 -1.0739 -0.8395  0.1852
  530MOL0     C71475   2.520   7.035   3.917  0.7092  1.0794  0.3584
  530MOL0     C71476   2.602   7.159   3.903 -0.1409 -0.6242 -0.5329
  530MOL0     C71477   2.593   7.245   4.033 -0.4305 -0.6137 -0.5176
  530MOL0     C71478   2.687   7.369   4.028 -0.0109 -0.4465  0.9778
  530MOL0     C71479   2.683   7.439   3.901  0.7912 -0.1401  0.3116
  530MOL0     C71480   2.667   7.510   3.803 -0.6903  0.5226 -0.3599
  530MOL0     C71481   2.702   6.828   3.837 -0.0247 -0.4335  0.5502
  530MOL0     C71482   2.815   6.753   3.803  0.9637  0.2245  0.4086
  530MOL0     H71483   3.218   6.516   4.006  0.1613 -0.1582 -2.5091
  530MOL0     H71484   3.457   6.419   4.008  0.7588 -0.2410 -0.9714
  530MOL0     H71485   3.653   6.478   4.143  2.2904 -2.4655 -1.7513
  530MOL0     H71486   3.807   6.476   4.065 -0.6871 -0.9296 -0.3106
  530MOL0     H71487   3.822   6.738   4.102 -1.5364  1.9048 -0.0137
  530MOL0     H71488   3.666   6.737   4.181  0.3208  0.1991  2.5747
  530MOL0     H71489   3.841   6.751   4.345  0.9868 -1.0841  1.5801
  530MOL0     H71490   3.768   6.592   4.353 -0.0585 -2.2437 -3.0691
  530MOL0     H71491   3.947   6.491   4.272  0.2839  1.0119 -3.5486
  530MOL0     H71492   4.010   6.632   4.192 -2.5500  4.4688 -0.1356
  530MOL0     H71493   4.072   6.742   4.404  0.7260 -0.8681 -4.3472
  530MOL0     H71494   3.984   6.608   4.495 -1.3243 -1.1876 -1.6103
  530MOL0     H71495   4.157   6.451   4.408 -0.4756  0.1662 -1.4789
  530MOL0     H71496   4.231   6.589   4.319 -1.5661  1.8742  0.0504
  530MOL0     H71497   4.219   6.555   4.624 -0.7669  0.5489 -0.1125
  530MOL0     H71498   4.351   6.518   4.511 -2.5596 -2.2710 -1.3452
  530MOL0     H71499   4.220   6.780   4.601 -1.0238 -0.7743 -0.2150
  530MOL0     H71500   4.329   6.783   4.460 -0.1672  2.3982  0.6901
  530MOL0     H71501   4.469   6.950   4.600 -0.0798 -0.7637 -2.3425
  530MOL0     H71502   4.704   7.007   4.799  1.4664  0.7027 -0.9091
  530MOL0     H71503   4.788   6.865   4.838 -1.0192  1.5627  1.7466
  530MOL0     H71504   4.898   7.021   4.679  0.5723 -1.1006  0.3694
  530MOL0     H71505   4.774   6.974   4.559 -0.4212 -2.8706 -1.8785
  530MOL0     H71506   4.848   6.735   4.598  0.4986 -0.3805 -0.8450
  530MOL0     H71507   4.970   6.805   4.708 -2.7735 -0.9564  1.1642
  530MOL0     H71508   5.067   6.735   4.474  0.0680  0.8426 -1.4912
  530MOL0     H71509   5.087   6.898   4.518  0.9479 -1.0650  2.0326
  530MOL0     H71510   4.796   6.887   4.154  0.6639 -0.0760 -5.6580
  530MOL0     H71511   4.586   6.747   3.978 -0.9209  2.3038 -1.9174
  530MOL0     H71512   4.725   6.854   3.937 -0.2918 -0.0707  1.4298
  530MOL0     H71513   4.714   6.690   3.874 -0.9589 -0.7312  0.9741
  530MOL0     H71514   4.438   6.299   4.145  0.3703 -1.2489  0.1651
  530MOL0     H71515   4.279   6.145   4.063  1.2168  1.4687  1.3381
  530MOL0     H71516   4.418   5.854   3.764 -0.8172 -1.6105  1.2031
  530MOL0     H71517   4.248   5.822   3.756  1.1860 -0.9207 -0.6907
  530MOL0     H71518   4.399   6.064   3.664 -2.1727  4.0474 -0.4486
  530MOL0     H71519   4.291   5.960   3.587 -1.6741 -0.2190  0.2962
  530MOL0     H71520   4.226   6.183   3.784 -1.6913  2.5878 -1.6080
  530MOL0     H71521   4.104   6.059   3.748 -0.2763 -1.3986  1.8576
  530MOL0     H71522   4.244   6.258   3.564  0.6791 -0.2912  2.0618
  530MOL0     H71523   4.164   6.122   3.480  3.0024 -0.5999  0.5991
  530MOL0     H71524   4.051   6.343   3.663 -4.7079  0.8009  0.2032
  530MOL0     H71525   3.940   6.222   3.624  0.7786 -3.0786 -1.5171
  530MOL0     H71526   4.097   6.396   3.427 -0.3901  0.0729 -1.2450
  530MOL0     H71527   4.011   6.256   3.363 -0.7989  0.1470  0.4995
  530MOL0     H71528   3.901   6.486   3.531 -0.6662 -1.2961  1.7468
  530MOL0     H71529   3.803   6.362   3.442  0.5735  0.5056  0.3792
  530MOL0     H71530   3.938   6.473   3.245 -0.9019 -0.7029  0.1186
  530MOL0     H71531   3.964   6.607   3.354 -2.3689  1.7076  1.6658
  530MOL0     H71532   4.591   5.920   3.880  2.3419 -0.1958 -0.4909
  530MOL0     H71533   4.748   6.107   3.901  2.0931  0.6128  1.9979
  530MOL0     H71534   4.863   6.407   4.246  0.2104 -0.4623 -1.4201
  530MOL0     H71535   4.938   6.568   4.402 -0.3325 -0.8075  1.7402
  530MOL0     H71536   3.623   6.778   3.906  1.0932  1.3174  3.8702
  530MOL0     H71537   3.380   6.888   3.896 -0.4043 -0.1034  2.9544
  530MOL0     H71538   2.976   6.800   4.095 -0.7202  3.4455  0.4437
  530MOL0     H71539   2.766   6.921   4.159  1.0644  1.6297 -0.8134
  530MOL0     H71540   2.484   6.993   3.822  1.0345  2.2969 -0.3275
  530MOL0     H71541   2.432   7.081   3.964  1.8536  1.0231  2.6559
  530MOL0     H71542   2.566   7.217   3.818 -3.0436  1.9238  2.1868
  530MOL0     H71543   2.706   7.148   3.870  0.5468  3.5559 -0.2359
  530MOL0     H71544   2.618   7.178   4.116  2.6965  2.5659  1.3516
  530MOL0     H71545   2.487   7.269   4.046 -1.2660 -3.3905 -1.5701
  530MOL0     H71546   2.788   7.329   4.041 -0.3069 -1.6876 -0.3560
  530MOL0     H71547   2.658   7.442   4.105 -0.0091 -2.1628  2.6668
  530MOL0     H71548   2.668   7.568   3.713 -0.8903  2.5407  0.8822
  530MOL0     H71549   2.621   6.828   3.765 -0.7116  0.6604  1.3165
  530MOL0     H71550   2.837   6.716   3.703  1.3484  2.8675 -0.5750
  531MOL0     O71551  10.401   6.936   3.171  0.4087  0.9996  0.0531
  531MOL0     C71552  10.398   6.847   3.249 -0.5712 -0.3069  0.3930
  531MOL0     O71553  10.423   6.715   3.229 -0.9026 -0.2293 -0.4804
  531MOL0     C71554  10.427   6.653   3.100 -0.2218 -0.7857 -0.4475
  531MOL0     C71555  10.384   6.714   2.980  0.1131 -0.0986 -0.8938
  531MOL0     C71556  10.410   6.658   2.864 -0.5289 -0.5076 -0.2972
  531MOL0     C71557  10.469   6.536   2.851 -0.0677 -0.6793 -0.6963
  531MOL0     O71558  10.508   6.484   2.731  0.8493  0.1233  0.2244
  531MOL0     C71559  10.405   6.488   2.627 -0.2053 -0.1543  0.2663
  531MOL0     C71560  10.491   6.480   2.496 -0.1865  0.4070 -0.4441
  531MOL0     C71561  10.559   6.605   2.460 -0.0369 -0.4813 -0.4914
  531MOL0     C71562  10.633   6.584   2.328 -0.0548 -0.3792 -0.2233
  531MOL0     C71563  10.715   6.701   2.294 -0.3016 -1.0692  0.3948
  531MOL0     C71564  10.664   6.855   2.296  0.7054  0.7221  0.6065
  531MOL0     C71565  10.751   6.945   2.211 -0.3647  0.4045  0.5281
  531MOL0     C71566  10.875   6.984   2.282 -0.4244 -0.8603  1.0885
  531MOL0     N71567  10.850   7.052   2.416 -0.4217  0.4922  0.7311
  531MOL0     C71568  10.836   6.990   2.536 -0.7266  1.5828  0.2971
  531MOL0     C71569  10.828   7.091   2.621 -0.3721 -0.7084  0.3920
  531MOL0     C71570  10.847   7.078   2.777  0.0615  1.0910 -0.4682
  531MOL0     C71571  10.725   7.132   2.854  0.0508 -0.5665 -0.7709
  531MOL0     C71572  10.740   7.114   3.002 -0.0510 -0.4116 -0.3888
  531MOL0     C71573  10.726   6.967   3.033  0.3493  0.5228  0.3542
  531MOL0     O71574  10.864   6.916   3.049 -0.4158 -0.5238  0.2589
  531MOL0     C71575  10.926   6.926   3.173  0.3425 -0.6462 -0.1839
  531MOL0     C71576  11.062   6.898   3.165  0.3599  1.3994 -0.3384
  531MOL0     C71577  11.144   6.911   3.275 -0.5522  0.4390 -0.0102
  531MOL0     C71578  11.282   6.857   3.261  0.0128 -0.0251  0.4240
  531MOL0     C71579  11.095   6.949   3.399 -0.0645 -0.0303  0.1592
  531MOL0     C71580  11.177   6.956   3.527  0.0573 -0.4186 -0.6025
  531MOL0     O71581  11.308   6.984   3.530  0.1430 -0.6676 -0.0081
  531MOL0     C71582  11.374   7.050   3.636  0.3512 -0.0402 -0.1359
  531MOL0     C71583  11.320   7.120   3.750 -0.1531 -0.2383 -0.5227
  531MOL0     C71584  11.412   7.195   3.832 -0.8690  0.5594  0.9154
  531MOL0     C71585  11.551   7.190   3.801  0.4839  0.4831 -0.7002
  531MOL0     O71586  11.629   7.250   3.898  0.3391  1.0384  1.2116
  531MOL0     C71587  11.718   7.358   3.859  0.9791 -0.5004  0.6434
  531MOL0     C71588  11.772   7.429   3.989  0.4783 -0.2453 -0.0422
  531MOL0     C71589  11.672   7.480   4.093 -0.4149  0.1439 -0.4407
  531MOL0     C71590  11.605   7.613   4.073 -0.6539 -0.7243  0.7076
  531MOL0     C71591  11.494   7.643   4.182  0.9197 -0.4387 -0.0434
  531MOL0     C71592  11.391   7.740   4.114 -0.3616 -0.0190  0.3119
  531MOL0     C71593  11.441   7.873   4.053  0.8728 -0.2746 -0.7364
  531MOL0     C71594  11.312   7.967   4.019  0.3815 -0.0019 -0.1087
  531MOL0    Cl71595  11.364   8.125   3.934 -0.0915 -0.0263 -0.2870
  531MOL0     C71596  11.607   7.117   3.693  1.1218 -0.5526 -1.0893
  531MOL0     C71597  11.519   7.047   3.610  0.7437 -0.3734 -1.0711
  531MOL0     O71598  11.112   6.923   3.628  0.1412 -0.5326  0.1990
  531MOL0     C71599  10.964   6.985   3.401  0.5483  0.5497  0.1102
  531MOL0     C71600  10.888   6.977   3.288  1.0534 -1.1231 -0.2098
  531MOL0     N71601  10.837   7.209   2.550 -0.0432 -0.3948  0.1245
  531MOL0     N71602  10.844   7.187   2.425 -0.3946  0.0826  0.5251
  531MOL0     C71603  10.483   6.463   2.967  0.0779 -0.8876  0.7545
  531MOL0     C71604  10.461   6.516   3.092 -0.3886  1.1163  0.2970
  531MOL0     C71605  10.371   6.889   3.390 -0.5303 -0.2107 -1.1185
  531MOL0     C71606  10.385   6.793   3.497 -0.7248 -0.4652  0.3651
  531MOL0     C71607  10.383   6.841   3.628  0.8164  0.3034 -0.0803
  531MOL0     C71608  10.383   6.975   3.658 -0.8855  0.5162  0.0402
  531MOL0     O71609  10.391   7.018   3.798 -0.0106 -0.8159  0.4551
  531MOL0     C71610  10.493   6.946   3.878 -0.7598 -0.8441 -0.4035
  531MOL0     C71611  10.589   7.059   3.922  0.4384 -0.1845 -0.0352
  531MOL0     C71612  10.688   7.029   4.031  0.4788  0.2207 -0.9207
  531MOL0     C71613  10.781   7.139   4.083 -0.6827 -0.3677 -0.1385
  531MOL0     C71614  10.851   7.180   3.961 -0.4662 -0.2418 -0.3698
  531MOL0     C71615  10.903   7.221   3.852  0.4610 -0.1990 -0.1238
  531MOL0     C71616  10.363   7.067   3.555 -0.4243 -0.1247 -0.4400
  531MOL0     C71617  10.366   7.027   3.418  0.5227 -0.1719 -0.7361
  531MOL0     H71618  10.329   6.807   2.984 -0.3798 -0.2661 -2.7296
  531MOL0     H71619  10.399   6.728   2.782  0.7223  2.9648  2.2250
  531MOL0     H71620  10.335   6.405   2.631 -2.2348  1.4224 -0.6331
  531MOL0     H71621  10.352   6.584   2.638 -0.8398 -0.4756  0.0640
  531MOL0     H71622  10.565   6.400   2.504  0.4147  1.0212  0.3625
  531MOL0     H71623  10.430   6.451   2.411 -1.0765 -2.5905  1.0736
  531MOL0     H71624  10.486   6.685   2.444  1.0667  0.1962 -2.3993
  531MOL0     H71625  10.624   6.634   2.543  0.9132  0.9455 -1.7080
  531MOL0     H71626  10.696   6.496   2.343  0.2228 -0.2177 -0.4458
  531MOL0     H71627  10.564   6.578   2.243  1.7998 -0.2033 -1.7997
  531MOL0     H71628  10.797   6.702   2.366  0.1529  1.0579 -0.0752
  531MOL0     H71629  10.758   6.686   2.194  1.6373  1.4943  0.7459
  531MOL0     H71630  10.574   6.841   2.235 -0.8195 -1.9878  3.2296
  531MOL0     H71631  10.630   6.889   2.394 -1.8306  0.6365 -0.1635
  531MOL0     H71632  10.780   6.898   2.116  4.2573  1.7394  1.0520
  531MOL0     H71633  10.703   7.040   2.188  1.1710  1.1844  0.4019
  531MOL0     H71634  10.931   7.060   2.227 -0.3233  0.0417  2.3938
  531MOL0     H71635  10.933   6.893   2.298  0.5523 -0.7553 -1.4394
  531MOL0     H71636  10.840   6.886   2.566  1.6141  1.8148  1.0490
  531MOL0     H71637  10.839   6.971   2.794  0.7224  1.3405  1.6524
  531MOL0     H71638  10.939   7.125   2.812  0.5159  0.9394 -1.4023
  531MOL0     H71639  10.635   7.076   2.824 -0.0740 -0.8830  0.1498
  531MOL0     H71640  10.705   7.238   2.834 -0.1781 -0.4218  0.1642
  531MOL0     H71641  10.655   7.166   3.045 -0.3856  1.9304 -3.5138
  531MOL0     H71642  10.832   7.156   3.044  1.5882 -3.0693 -1.0009
  531MOL0     H71643  10.680   6.913   2.950 -2.8522 -1.0318  2.9048
  531MOL0     H71644  10.654   6.957   3.116 -1.9646  4.7994 -0.8047
  531MOL0     H71645  11.098   6.850   3.074  0.6534 -1.3684  1.1201
  531MOL0     H71646  11.287   6.814   3.161 -0.8297  0.8302  0.0087
  531MOL0     H71647  11.355   6.937   3.279 -1.5662  1.7203 -0.6183
  531MOL0     H71648  11.304   6.775   3.331 -1.1474 -1.3754 -0.7171
  531MOL0     H71649  11.212   7.129   3.756 -0.1832 -1.1204  0.4394
  531MOL0     H71650  11.379   7.230   3.929  1.0650  4.1035  0.5041
  531MOL0     H71651  11.797   7.314   3.798 -1.3250 -2.4376 -1.1507
  531MOL0     H71652  11.663   7.417   3.786  0.3339 -1.2781  0.4893
  531MOL0     H71653  11.827   7.352   4.043  0.3553 -0.6284 -0.4612
  531MOL0     H71654  11.840   7.505   3.950  0.2238 -0.2260 -0.4647
  531MOL0     H71655  11.734   7.498   4.181  0.7454 -2.5408 -0.6216
  531MOL0     H71656  11.610   7.394   4.117  2.3993 -2.2490 -1.1854
  531MOL0     H71657  11.677   7.696   4.065 -1.8545  0.5797  2.5466
  531MOL0     H71658  11.544   7.612   3.982 -0.1161  1.8410  0.2319
  531MOL0     H71659  11.549   7.683   4.268 -0.6505 -0.2699  0.9203
  531MOL0     H71660  11.445   7.549   4.209  0.5658 -0.0538  0.6627
  531MOL0     H71661  11.334   7.682   4.042 -0.1286  0.6848 -0.4505
  531MOL0     H71662  11.324   7.777   4.193  0.2921 -1.4075  1.5642
  531MOL0     H71663  11.498   7.852   3.962 -1.8620  2.5849 -3.3522
  531MOL0     H71664  11.499   7.929   4.127 -0.3154 -1.7247  1.4162
  531MOL0     H71665  11.269   7.998   4.115  2.7222  0.4524  0.8633
  531MOL0     H71666  11.244   7.906   3.959  0.3102 -2.4120  2.2516
  531MOL0     H71667  11.714   7.123   3.674  1.5242 -0.1619  1.0458
  531MOL0     H71668  11.547   6.983   3.527 -0.5151  0.8512 -2.5137
  531MOL0     H71669  10.913   7.001   3.495 -1.5584 -4.4455  0.1310
  531MOL0     H71670  10.790   7.022   3.297  2.7596  2.9581  0.1737
  531MOL0     H71671  10.527   6.365   2.951  3.2453  0.8376 -3.0174
  531MOL0     H71672  10.480   6.461   3.184 -0.1525 -0.8326 -0.8623
  531MOL0     H71673  10.394   6.687   3.473 -0.5123 -0.2448 -0.6043
  531MOL0     H71674  10.386   6.771   3.711  0.2946  1.5578  1.0229
  531MOL0     H71675  10.430   6.906   3.958  1.1076 -0.0132  1.5753
  531MOL0     H71676  10.541   6.863   3.824  0.7019 -0.0122 -0.4350
  531MOL0     H71677  10.526   7.147   3.944 -1.2381 -0.3171 -3.5799
  531MOL0     H71678  10.644   7.088   3.832 -2.1067  2.1897 -0.9828
  531MOL0     H71679  10.754   6.945   4.007  0.5423 -0.3504  1.0533
  531MOL0     H71680  10.626   7.006   4.118  1.3451  1.3675  0.0286
  531MOL0     H71681  10.854   7.091   4.150  0.3672 -1.7755 -2.1739
  531MOL0     H71682  10.735   7.214   4.148 -2.1496 -2.5197  1.4633
  531MOL0     H71683  10.921   7.263   3.755 -0.8035  0.0777 -0.2597
  531MOL0     H71684  10.372   7.171   3.583 -0.1840 -0.0076 -0.9568
  531MOL0     H71685  10.357   7.103   3.341 -1.3461  0.5875  0.1743
  532MOL0     O71686   3.528   1.222   2.559  0.6905  0.6405  0.0662
  532MOL0     C71687   3.510   1.314   2.485  0.9938  1.1712  0.2916
  532MOL0     O71688   3.462   1.442   2.523 -0.2014 -0.3461 -0.4391
  532MOL0     C71689   3.438   1.479   2.655  0.8249  0.3348 -0.9002
  532MOL0     C71690   3.523   1.447   2.760 -0.7234  0.1301 -0.2790
  532MOL0     C71691   3.486   1.483   2.890  0.2237 -0.9193  0.1933
  532MOL0     C71692   3.361   1.544   2.925 -1.1532 -0.5043 -0.5802
  532MOL0     O71693   3.335   1.608   3.042  0.4862  0.0054  0.2340
  532MOL0     C71694   3.245   1.531   3.135 -0.1446  0.1275  0.1914
  532MOL0     C71695   3.331   1.424   3.197  0.4430 -0.7559 -0.0630
  532MOL0     C71696   3.255   1.346   3.304  0.5291 -0.3171 -0.2624
  532MOL0     C71697   3.312   1.204   3.305 -0.3883 -0.3653  0.7052
  532MOL0     C71698   3.247   1.121   3.421 -0.4621 -0.5410 -0.1879
  532MOL0     C71699   3.330   1.114   3.547  0.3353 -0.5776 -0.0489
  532MOL0     C71700   3.450   1.009   3.531 -0.5913  0.6972 -0.8095
  532MOL0     C71701   3.558   1.042   3.637 -0.2501  0.5303  0.2094
  532MOL0     N71702   3.507   1.013   3.770  0.1246  0.5188 -0.3201
  532MOL0     C71703   3.434   0.899   3.810 -0.0940 -1.3311 -0.2530
  532MOL0     C71704   3.406   0.911   3.940  0.9631  0.2530 -0.1281
  532MOL0     C71705   3.320   0.816   4.017  0.1753 -1.0520  0.4543
  532MOL0     C71706   3.256   0.870   4.146  0.3073  0.1752  0.3269
  532MOL0     C71707   3.139   0.970   4.132  0.0943 -0.0047 -0.4285
  532MOL0     C71708   3.033   0.953   4.012 -0.4097  0.4039 -0.1368
  532MOL0     O71709   2.927   1.053   4.023  0.0904  0.3289  0.2111
  532MOL0     C71710   2.812   1.024   3.958  0.2701  0.1249 -0.7842
  532MOL0     C71711   2.780   0.930   3.862 -0.0721 -1.0374 -0.6844
  532MOL0     C71712   2.657   0.933   3.792  0.6815 -0.2258  0.9935
  532MOL0     C71713   2.638   0.831   3.686 -1.4794  0.1346 -0.3706
  532MOL0     C71714   2.562   1.039   3.814  0.5133  0.0902  1.4152
  532MOL0     C71715   2.432   1.042   3.747 -0.9758  0.6387 -0.6827
  532MOL0     O71716   2.429   1.024   3.616 -0.4967  0.2895  0.9039
  532MOL0     C71717   2.311   1.026   3.554  0.2618 -0.4933  0.4985
  532MOL0     C71718   2.268   0.916   3.479 -1.6906  0.3416 -0.3057
  532MOL0     C71719   2.149   0.913   3.400 -1.2519  0.4213  0.5032
  532MOL0     C71720   2.061   1.024   3.406 -0.0875 -0.0802  0.1656
  532MOL0     O71721   1.948   1.046   3.338 -0.0941  0.4878  0.0766
  532MOL0     C71722   1.930   0.946   3.233  0.3398 -0.0093  1.4051
  532MOL0     C71723   1.807   0.984   3.137 -0.3994  0.8312  0.3386
  532MOL0     C71724   1.674   1.009   3.213 -1.5722  0.1060  0.3654
  532MOL0     C71725   1.565   0.938   3.141 -0.2123  0.3005  0.0993
  532MOL0     C71726   1.432   0.943   3.210  0.3876  0.0732  0.5969
  532MOL0     C71727   1.336   0.903   3.086  0.7483  0.7238 -0.9806
  532MOL0     C71728   1.191   0.918   3.153  0.6707 -0.8226  0.2177
  532MOL0     C71729   1.080   0.904   3.044 -0.1240 -0.4130 -1.1730
  532MOL0    Cl71730   1.072   0.741   2.987  0.0187  0.0825 -0.4816
  532MOL0     C71731   2.087   1.116   3.500  0.7239  0.1628 -0.8899
  532MOL0     C71732   2.211   1.122   3.567  0.1573  0.3496  0.1547
  532MOL0     O71733   2.345   1.096   3.817  0.7299 -0.0805  0.2167
  532MOL0     C71734   2.598   1.122   3.927 -0.1174 -1.0798  0.9037
  532MOL0     C71735   2.723   1.121   3.983  0.6268  0.4614  0.1993
  532MOL0     N71736   3.475   1.024   3.979  0.2263  0.1819  0.1179
  532MOL0     N71737   3.534   1.084   3.886  0.6650 -0.4533  0.7913
  532MOL0     C71738   3.279   1.569   2.815 -0.4517 -1.5694  0.8029
  532MOL0     C71739   3.318   1.534   2.688  0.4469  0.9352  0.4846
  532MOL0     C71740   3.534   1.290   2.342 -0.0814 -0.6444  0.9544
  532MOL0     C71741   3.582   1.167   2.295 -0.0473 -0.5730 -1.0701
  532MOL0     C71742   3.597   1.136   2.159  0.9641 -0.9367  0.2419
  532MOL0     C71743   3.546   1.230   2.063 -0.3612 -0.5910  0.2412
  532MOL0     O71744   3.538   1.192   1.931 -0.1136  0.0977 -0.4065
  532MOL0     C71745   3.579   1.288   1.834 -1.0263 -0.0698  0.4486
  532MOL0     C71746   3.458   1.316   1.741  0.3036 -0.2779  0.4421
  532MOL0     C71747   3.497   1.415   1.622 -0.6725 -0.2501  1.2894
  532MOL0     C71748   3.393   1.510   1.566 -0.4804  0.0679 -0.1861
  532MOL0     C71749   3.288   1.440   1.501  0.8461 -0.2687  0.0996
  532MOL0     C71750   3.205   1.361   1.469  0.2947 -0.0570  0.4222
  532MOL0     C71751   3.508   1.353   2.111 -0.1067 -0.5138  0.1594
  532MOL0     C71752   3.502   1.391   2.252 -0.3045  0.3079  0.4936
  532MOL0     H71753   3.615   1.396   2.737 -1.7485 -2.0630  0.2344
  532MOL0     H71754   3.559   1.461   2.967 -1.2379 -0.2945  1.8239
  532MOL0     H71755   3.210   1.599   3.214  2.9000  1.7538  0.3138
  532MOL0     H71756   3.165   1.474   3.089 -0.7487  0.1392  1.1922
  532MOL0     H71757   3.361   1.358   3.116  0.3944  0.1358 -0.8259
  532MOL0     H71758   3.416   1.469   3.251 -1.7325  0.5188  2.5343
  532MOL0     H71759   3.267   1.385   3.406 -3.5826  0.0715  0.2484
  532MOL0     H71760   3.147   1.339   3.289  0.6417 -2.7702 -0.3450
  532MOL0     H71761   3.291   1.146   3.215 -0.7940 -1.8161  1.6931
  532MOL0     H71762   3.420   1.223   3.314 -0.3753  0.2982 -0.7246
  532MOL0     H71763   3.154   1.176   3.439  0.1325  0.5995 -0.5367
  532MOL0     H71764   3.219   1.017   3.400  0.2011 -0.4734 -1.4758
  532MOL0     H71765   3.365   1.214   3.572  0.0698 -0.2083 -1.0873
  532MOL0     H71766   3.258   1.088   3.625 -3.2869  0.0237 -2.8810
  532MOL0     H71767   3.411   0.908   3.542  3.0280 -0.5394  4.1961
  532MOL0     H71768   3.499   1.013   3.433  0.3275  0.2460 -0.3869
  532MOL0     H71769   3.588   1.147   3.632  2.1861 -0.1357 -1.1440
  532MOL0     H71770   3.624   0.959   3.610 -1.0759  0.1205 -0.6143
  532MOL0     H71771   3.410   0.817   3.742 -0.5586 -1.7879  0.4476
  532MOL0     H71772   3.247   0.766   3.952  0.6341  1.3826 -2.1330
  532MOL0     H71773   3.387   0.737   4.052  1.6571  0.4943  1.2277
  532MOL0     H71774   3.327   0.918   4.214 -1.0322  2.2802  0.3221
  532MOL0     H71775   3.222   0.774   4.186 -0.7045 -0.3093 -1.5644
  532MOL0     H71776   3.171   1.073   4.113  1.0951 -0.6510 -2.6713
  532MOL0     H71777   3.084   0.958   4.225 -0.3941  1.5914 -0.4775
  532MOL0     H71778   2.999   0.849   4.002  0.1884  0.0533  1.2425
  532MOL0     H71779   3.087   0.984   3.922  2.0662  1.0308  1.4834
  532MOL0     H71780   2.854   0.856   3.832  0.0731 -0.3391 -2.0922
  532MOL0     H71781   2.542   0.780   3.682 -0.4563 -2.1055  1.5566
  532MOL0     H71782   2.640   0.879   3.588 -2.6397 -1.7798 -1.3727
  532MOL0     H71783   2.718   0.757   3.692  0.5549  2.2983  0.9937
  532MOL0     H71784   2.344   0.838   3.482  0.0497  1.9939  0.6693
  532MOL0     H71785   2.134   0.828   3.335  0.2683  1.5033 -1.3623
  532MOL0     H71786   2.017   0.938   3.166 -0.0908  0.3427  0.7943
  532MOL0     H71787   1.899   0.853   3.281 -0.4647  1.1262  3.1586
  532MOL0     H71788   1.836   1.079   3.092 -2.2125  1.8262  1.1620
  532MOL0     H71789   1.790   0.902   3.067  1.0465 -2.7338  3.7734
  532MOL0     H71790   1.649   1.115   3.220  2.9828  1.2730  2.0153
  532MOL0     H71791   1.680   0.960   3.310 -4.1820  1.7359  1.4534
  532MOL0     H71792   1.554   0.977   3.040  2.2015 -1.8777 -1.1481
  532MOL0     H71793   1.586   0.832   3.121  2.2472  0.9176 -0.9745
  532MOL0     H71794   1.401   1.045   3.235 -2.0835  0.3176 -2.7395
  532MOL0     H71795   1.427   0.870   3.291  1.3285 -0.3271  0.2971
  532MOL0     H71796   1.356   0.978   3.010 -0.5286  0.4787 -1.5814
  532MOL0     H71797   1.354   0.798   3.062 -0.3632  0.0421  0.9812
  532MOL0     H71798   1.184   1.017   3.199  2.2905 -1.1790  1.2981
  532MOL0     H71799   1.173   0.847   3.234  1.1160 -1.3784 -0.1662
  532MOL0     H71800   1.083   0.978   2.964  0.7854 -1.0648 -1.7704
  532MOL0     H71801   0.980   0.930   3.080  0.3745 -2.3343  1.9712
  532MOL0     H71802   2.018   1.199   3.495 -2.2787 -2.1779 -1.1515
  532MOL0     H71803   2.220   1.208   3.633 -1.7721 -0.4425  1.5426
  532MOL0     H71804   2.532   1.190   3.980  1.1798 -2.4007  4.5367
  532MOL0     H71805   2.757   1.185   4.064  1.3339  0.0718  0.2137
  532MOL0     H71806   3.186   1.625   2.814  0.6012  0.6194 -3.8236
  532MOL0     H71807   3.254   1.550   2.602  2.5791  2.5246 -0.9183
  532MOL0     H71808   3.609   1.090   2.366 -2.0215  0.5230  1.0225
  532MOL0     H71809   3.636   1.038   2.133 -2.9457 -2.2146 -1.6448
  532MOL0     H71810   3.614   1.378   1.885 -1.1365 -0.6582  1.5833
  532MOL0     H71811   3.665   1.247   1.780 -0.0536  2.5207 -0.0778
  532MOL0     H71812   3.376   1.362   1.796  2.0019 -1.7353  4.6234
  532MOL0     H71813   3.422   1.224   1.696  2.0173 -1.0397  0.5442
  532MOL0     H71814   3.529   1.359   1.533  0.9462  1.9221  0.4165
  532MOL0     H71815   3.579   1.474   1.665  0.4012 -0.7439  0.0054
  532MOL0     H71816   3.441   1.583   1.500  3.2683  0.8978  3.0772
  532MOL0     H71817   3.350   1.572   1.645 -2.5771 -0.3715 -0.9294
  532MOL0     H71818   3.118   1.303   1.446 -0.0981  0.5338  0.3970
  532MOL0     H71819   3.461   1.420   2.039  0.3314  1.3105  1.4906
  532MOL0     H71820   3.470   1.491   2.279 -1.2253 -0.4146  2.2267
  533MOL0     O71821   5.023   3.009   3.017 -0.1360  0.4595  0.2265
  533MOL0     C71822   4.917   3.017   3.082 -0.2790 -0.0124  0.8102
  533MOL0     O71823   4.811   3.093   3.050  0.4411 -0.5093 -0.0209
  533MOL0     C71824   4.810   3.153   2.926  0.9729 -0.5885 -0.7974
  533MOL0     C71825   4.804   3.081   2.810 -0.3079 -0.0910  0.9629
  533MOL0     C71826   4.799   3.149   2.683 -0.6980  0.6698  0.6796
  533MOL0     C71827   4.794   3.286   2.680  1.0928 -0.1587  0.0928
  533MOL0     O71828   4.788   3.347   2.555 -0.2674  0.8731  1.6199
  533MOL0     C71829   4.771   3.485   2.536 -0.6930 -0.5907  0.3560
  533MOL0     C71830   4.770   3.507   2.385 -0.1180 -0.4627  0.1371
  533MOL0     C71831   4.864   3.621   2.352 -0.3320 -0.9056  0.4030
  533MOL0     C71832   4.777   3.744   2.370 -0.1434  0.0177 -0.9015
  533MOL0     C71833   4.829   3.876   2.315  0.7839 -0.3468  0.1728
  533MOL0     C71834   4.727   3.982   2.321  1.2126  1.1614 -0.1053
  533MOL0     C71835   4.787   4.130   2.301 -0.0897  0.7761  0.8331
  533MOL0     C71836   4.875   4.173   2.417  0.5148 -1.5367 -0.0162
  533MOL0     N71837   4.927   4.304   2.397 -0.3558 -0.3541 -0.1037
  533MOL0     C71838   5.020   4.336   2.302  0.6282  0.6122 -0.0204
  533MOL0     C71839   5.053   4.466   2.323  0.2988 -0.2948  0.2560
  533MOL0     C71840   5.175   4.534   2.256  0.1228  0.3433 -0.4429
  533MOL0     C71841   5.142   4.561   2.106  0.1538  0.3240 -0.1938
  533MOL0     C71842   5.223   4.479   2.013  0.1607  1.1844 -0.5539
  533MOL0     C71843   5.369   4.497   2.008 -0.1509  0.5991 -0.3707
  533MOL0     O71844   5.424   4.426   1.899 -0.1536  0.2888  0.5197
  533MOL0     C71845   5.536   4.478   1.837 -0.3589  0.2459  0.0163
  533MOL0     C71846   5.559   4.418   1.713 -0.4482  0.3984 -0.4406
  533MOL0     C71847   5.667   4.460   1.632  0.3219 -0.0322 -0.8614
  533MOL0     C71848   5.654   4.401   1.488  0.5003 -0.3666  0.0113
  533MOL0     C71849   5.763   4.560   1.691  0.3731  0.5936  1.0462
  533MOL0     C71850   5.870   4.617   1.611  0.3587  0.5247  0.2599
  533MOL0     O71851   5.964   4.677   1.691  0.9139  0.2965  0.2353
  533MOL0     C71852   6.076   4.738   1.652  0.8029 -0.1116  0.3182
  533MOL0     C71853   6.149   4.730   1.532  0.1395 -0.7210 -0.0512
  533MOL0     C71854   6.270   4.805   1.506  0.1320  0.4325 -0.3218
  533MOL0     C71855   6.342   4.870   1.607  0.0065  0.2454 -0.0824
  533MOL0     O71856   6.464   4.931   1.563 -0.5494  0.2143  0.6187
  533MOL0     C71857   6.563   4.962   1.660  0.5303 -0.9929  0.9016
  533MOL0     C71858   6.691   4.993   1.588  0.1592  0.1780  0.9830
  533MOL0     C71859   6.665   5.098   1.477  0.4633  0.0499 -0.4484
  533MOL0     C71860   6.795   5.165   1.449 -0.9656  0.9375 -0.7181
  533MOL0     C71861   6.809   5.224   1.307 -0.3500  1.0526 -0.3715
  533MOL0     C71862   6.933   5.313   1.300  0.0560 -0.3141 -0.0696
  533MOL0     C71863   7.071   5.246   1.312 -0.7907 -0.3461 -0.1350
  533MOL0     C71864   7.183   5.328   1.359 -0.3567  0.3974 -0.9857
  533MOL0    Cl71865   7.176   5.341   1.535 -0.0573  0.3878 -0.0692
  533MOL0     C71866   6.280   4.874   1.730  0.7128 -0.8129  0.0289
  533MOL0     C71867   6.142   4.821   1.751  0.9631 -0.4998 -0.2349
  533MOL0     O71868   5.872   4.606   1.486 -0.5636 -0.4940 -0.4253
  533MOL0     C71869   5.732   4.612   1.818  1.1629 -0.4906 -0.1096
  533MOL0     C71870   5.623   4.568   1.896 -0.9289 -1.0245 -0.3301
  533MOL0     N71871   4.967   4.506   2.431 -0.4970  0.4222 -0.2772
  533MOL0     N71872   4.887   4.419   2.472 -0.0033  0.2324  0.2453
  533MOL0     C71873   4.790   3.353   2.799  0.8683 -0.1892 -1.1251
  533MOL0     C71874   4.794   3.286   2.918  0.0681 -0.2519 -0.0980
  533MOL0     C71875   4.914   2.960   3.223 -0.2193  0.9835 -0.3130
  533MOL0     C71876   5.030   2.882   3.268 -0.1165 -1.3282  0.0942
  533MOL0     C71877   5.028   2.806   3.382 -0.0274  1.0771  0.0644
  533MOL0     C71878   4.932   2.844   3.484 -0.2494  0.4252 -0.0473
  533MOL0     O71879   4.958   2.785   3.605  0.2362 -0.4142 -0.3958
  533MOL0     C71880   4.844   2.718   3.663  0.2490  0.0548 -0.1841
  533MOL0     C71881   4.844   2.732   3.818 -0.4283  0.3842  0.2457
  533MOL0     C71882   4.960   2.642   3.865 -0.2420  0.5060  0.1844
  533MOL0     C71883   4.970   2.620   4.021  0.0107 -0.0556  0.1639
  533MOL0     C71884   4.996   2.755   4.077  1.2361  0.2082  0.1757
  533MOL0     C71885   5.011   2.866   4.126 -0.1105  0.7753  0.8113
  533MOL0     C71886   4.827   2.930   3.449 -1.1707  0.4539 -1.0097
  533MOL0     C71887   4.813   2.983   3.320 -0.5877 -0.7512  0.9432
  533MOL0     H71888   4.809   2.973   2.812  0.6627 -0.2474 -2.4963
  533MOL0     H71889   4.805   3.104   2.584 -3.3605  0.3851  0.5536
  533MOL0     H71890   4.678   3.523   2.580  0.5482  1.3973  1.4058
  533MOL0     H71891   4.861   3.528   2.581 -0.3311 -1.3436  0.3583
  533MOL0     H71892   4.813   3.423   2.329 -3.1728 -1.0090 -1.6431
  533MOL0     H71893   4.672   3.498   2.337  1.0436 -0.0517 -2.4439
  533MOL0     H71894   4.955   3.635   2.410  0.3024 -1.4380 -0.4476
  533MOL0     H71895   4.891   3.596   2.249  0.7605 -0.9700  0.6921
  533MOL0     H71896   4.682   3.717   2.323 -1.5141  3.5550 -0.5310
  533MOL0     H71897   4.767   3.763   2.477  0.8798 -1.7638 -0.4534
  533MOL0     H71898   4.923   3.906   2.362  0.7641  0.6560 -0.4070
  533MOL0     H71899   4.864   3.854   2.214  2.1898 -0.7164  0.7064
  533MOL0     H71900   4.658   3.955   2.241 -0.2854  3.6173  0.2766
  533MOL0     H71901   4.676   3.977   2.418  0.6582  0.2915 -0.4330
  533MOL0     H71902   4.840   4.141   2.206 -3.5428  2.6492 -1.0804
  533MOL0     H71903   4.707   4.203   2.286  0.2371  0.5839 -3.0709
  533MOL0     H71904   4.956   4.101   2.430  1.2059 -0.5496  1.3812
  533MOL0     H71905   4.824   4.165   2.513  3.3534 -0.1998  1.7098
  533MOL0     H71906   5.080   4.276   2.234 -1.5116 -1.0961 -0.5045
  533MOL0     H71907   5.217   4.623   2.303  0.4703 -0.2451  0.3776
  533MOL0     H71908   5.255   4.462   2.276 -0.7723 -0.2877  0.9885
  533MOL0     H71909   5.154   4.668   2.084  2.5138 -0.2202 -1.9451
  533MOL0     H71910   5.035   4.546   2.086 -0.1881  3.0434 -0.8984
  533MOL0     H71911   5.184   4.497   1.912 -0.0845 -0.1042 -0.7010
  533MOL0     H71912   5.201   4.373   2.025  1.7910  0.8309 -0.4609
  533MOL0     H71913   5.423   4.465   2.097 -0.6675  1.9155  0.4558
  533MOL0     H71914   5.390   4.604   1.992  0.5266  0.3711 -1.1216
  533MOL0     H71915   5.491   4.339   1.684  1.1373 -1.3682  0.4168
  533MOL0     H71916   5.599   4.476   1.430 -0.4508 -0.9652  0.1322
  533MOL0     H71917   5.754   4.383   1.448 -0.5636 -3.3217 -1.5531
  533MOL0     H71918   5.604   4.304   1.496 -0.1497 -0.0703 -0.3231
  533MOL0     H71919   6.108   4.671   1.451  3.1340 -2.4445 -0.4562
  533MOL0     H71920   6.306   4.792   1.405 -0.9658 -1.5520 -0.4968
  533MOL0     H71921   6.531   5.055   1.710  3.0198 -0.3162  1.3733
  533MOL0     H71922   6.577   4.885   1.737 -1.2600 -2.6189 -0.3263
  533MOL0     H71923   6.754   5.037   1.666  3.0395 -1.2497 -0.3928
  533MOL0     H71924   6.731   4.902   1.544 -2.3232 -0.6703  0.3256
  533MOL0     H71925   6.588   5.172   1.500  0.8494  0.2521  0.2305
  533MOL0     H71926   6.644   5.044   1.384  1.6085  0.5553 -1.0150
  533MOL0     H71927   6.785   5.249   1.517  0.6754  0.8548 -0.3296
  533MOL0     H71928   6.887   5.108   1.467 -1.2614  1.2517  2.1609
  533MOL0     H71929   6.724   5.279   1.266 -4.1831 -2.9896  1.2788
  533MOL0     H71930   6.825   5.142   1.236 -0.5636  1.0049 -0.3657
  533MOL0     H71931   6.942   5.366   1.205  2.6212 -2.0135 -0.8580
  533MOL0     H71932   6.926   5.387   1.380 -1.4350 -0.0675 -0.3916
  533MOL0     H71933   7.101   5.211   1.213 -1.2938 -2.1643  0.3296
  533MOL0     H71934   7.063   5.155   1.371  0.3348 -0.6411 -0.4168
  533MOL0     H71935   7.170   5.426   1.313 -2.8906  1.5226  1.7656
  533MOL0     H71936   7.275   5.273   1.340  1.7698  1.8124  3.7187
  533MOL0     H71937   6.312   4.947   1.804  0.7444 -1.4402  0.6466
  533MOL0     H71938   6.101   4.844   1.848  0.0928  1.9157 -1.1024
  533MOL0     H71939   5.810   4.668   1.869 -0.2926  3.3462 -1.7132
  533MOL0     H71940   5.597   4.607   1.993 -2.2000  0.1649 -1.1200
  533MOL0     H71941   4.781   3.461   2.800  3.8085  0.1502  0.4984
  533MOL0     H71942   4.790   3.341   3.012  0.8215 -0.8259  0.2835
  533MOL0     H71943   5.114   2.863   3.202  1.7157  0.4348  1.7636
  533MOL0     H71944   5.101   2.728   3.402 -3.3890 -2.4971 -0.6378
  533MOL0     H71945   4.745   2.747   3.628 -0.0428 -0.2732  0.3491
  533MOL0     H71946   4.859   2.617   3.624  0.1314 -0.3793  0.8493
  533MOL0     H71947   4.754   2.684   3.858  0.5765 -1.3430  0.5412
  533MOL0     H71948   4.860   2.836   3.849  1.1252 -0.5213  2.8030
  533MOL0     H71949   5.051   2.692   3.832 -0.5570  0.8749 -0.1383
  533MOL0     H71950   4.951   2.544   3.817  1.2300  1.5830 -2.5755
  533MOL0     H71951   5.059   2.561   4.043 -1.7571 -3.6106 -1.5455
  533MOL0     H71952   4.877   2.579   4.061 -0.5938  0.1762 -0.9752
  533MOL0     H71953   5.023   2.959   4.176  0.5500  0.6003  0.9783
  533MOL0     H71954   4.756   2.944   3.530 -0.0855 -1.0527  0.2613
  533MOL0     H71955   4.728   3.041   3.287  0.3547  0.3744  0.4224
  534MOL0     O71956   6.061   8.581   6.892  0.1183 -0.3490 -0.2044
  534MOL0     C71957   6.163   8.546   6.840 -0.5224 -0.0847  0.4731
  534MOL0     O71958   6.272   8.469   6.886 -0.1676  0.1628  0.5384
  534MOL0     C71959   6.303   8.468   7.020 -0.1768  0.7667  0.7475
  534MOL0     C71960   6.429   8.486   7.070  0.7509 -0.0464 -0.1250
  534MOL0     C71961   6.461   8.476   7.202  0.0828  0.4164  0.5449
  534MOL0     C71962   6.364   8.434   7.291 -0.2499 -0.1219  0.4215
  534MOL0     O71963   6.399   8.415   7.421  0.3309  0.0904  0.1315
  534MOL0     C71964   6.410   8.278   7.460 -0.5822 -0.4887  0.1988
  534MOL0     C71965   6.544   8.200   7.422  0.3509  0.5982  0.7317
  534MOL0     C71966   6.539   8.068   7.495 -0.1562 -0.4532 -0.9581
  534MOL0     C71967   6.553   8.078   7.652 -0.8228 -0.0937  0.0360
  534MOL0     C71968   6.561   7.940   7.718 -0.4629 -1.2060  0.9605
  534MOL0     C71969   6.698   7.869   7.695 -0.3321 -0.1647 -1.0885
  534MOL0     C71970   6.810   7.947   7.777  0.3594  0.0888 -0.0144
  534MOL0     C71971   6.951   7.926   7.723  0.4684  0.3515  0.3155
  534MOL0     N71972   6.976   7.783   7.712 -0.8807 -0.3841  0.3060
  534MOL0     C71973   6.952   7.705   7.605 -0.2675  0.5468  1.0598
  534MOL0     C71974   6.992   7.579   7.644 -0.3514  0.2768 -0.1009
  534MOL0     C71975   6.991   7.457   7.548  0.2535 -0.0788  0.4935
  534MOL0     C71976   7.040   7.321   7.590 -0.5636  1.0894 -0.2303
  534MOL0     C71977   7.194   7.305   7.577  0.6762 -0.3179  0.7496
  534MOL0     C71978   7.230   7.270   7.432  0.3790  0.3705 -0.7515
  534MOL0     O71979   7.199   7.128   7.429  0.2800  0.3040  0.0869
  534MOL0     C71980   7.241   7.067   7.317 -0.0694 -1.0521 -0.8166
  534MOL0     C71981   7.371   7.018   7.330 -1.0704  0.3512 -0.1562
  534MOL0     C71982   7.424   6.939   7.219  1.0572 -0.0532  0.5626
  534MOL0     C71983   7.558   6.878   7.245  0.4524  0.0724  0.5040
  534MOL0     C71984   7.359   6.950   7.096 -0.6262 -0.4847  0.1462
  534MOL0     C71985   7.414   6.892   6.961  0.3948  0.5224 -0.0716
  534MOL0     O71986   7.489   6.781   6.980 -0.4908  0.3324  0.7977
  534MOL0     C71987   7.521   6.699   6.877 -0.2836 -0.1978 -0.2715
  534MOL0     C71988   7.440   6.668   6.768 -0.2912 -0.9217  0.9049
  534MOL0     C71989   7.483   6.574   6.672 -0.1376 -0.6915  0.2790
  534MOL0     C71990   7.606   6.527   6.680 -0.7737 -1.1314 -0.0011
  534MOL0     O71991   7.654   6.446   6.583 -0.0940 -0.4362 -0.1657
  534MOL0     C71992   7.616   6.308   6.605 -0.2813  0.3923  0.0667
  534MOL0     C71993   7.653   6.239   6.467 -0.1824  0.0475  0.6894
  534MOL0     C71994   7.599   6.084   6.462  0.3938 -0.0676 -1.1183
  534MOL0     C71995   7.445   6.077   6.443  0.4522 -0.0781 -0.0569
  534MOL0     C71996   7.390   5.932   6.425  0.7908 -0.3193 -0.3155
  534MOL0     C71997   7.351   5.906   6.277 -0.6378  0.2999 -0.0808
  534MOL0     C71998   7.327   5.746   6.270 -0.3548 -0.0701 -0.0630
  534MOL0     C71999   7.212   5.706   6.163 -0.3882  0.3323 -0.5557
  534MOL0    Cl72000   7.053   5.789   6.193 -0.0877  0.0069  0.0297
  534MOL0     C72001   7.695   6.549   6.789  0.8655 -0.2085 -0.2317
  534MOL0     C72002   7.637   6.627   6.892 -0.6381 -0.4207 -0.3111
  534MOL0     O72003   7.392   6.954   6.859  0.0845 -0.3281  0.1690
  534MOL0     C72004   7.230   7.005   7.087  1.4375  0.1475  0.5158
  534MOL0     C72005   7.164   7.062   7.195 -0.4159  0.2381 -0.0617
  534MOL0     N72006   7.025   7.588   7.778  0.1189 -0.4126  0.3966
  534MOL0     N72007   7.014   7.708   7.815 -0.0636 -0.0386 -0.6704
  534MOL0     C72008   6.233   8.419   7.247 -0.4385  0.0404  0.4561
  534MOL0     C72009   6.201   8.426   7.112 -0.2384 -0.2671 -0.4857
  534MOL0     C72010   6.172   8.588   6.695 -0.0450 -0.9275  0.1943
  534MOL0     C72011   6.264   8.518   6.618  0.4091 -0.1140 -0.8177
  534MOL0     C72012   6.284   8.547   6.476 -0.2176  0.0090 -0.5141
  534MOL0     C72013   6.216   8.653   6.422  0.4019 -0.6199 -0.6603
  534MOL0     O72014   6.242   8.679   6.287 -0.7402  0.4410  0.1919
  534MOL0     C72015   6.195   8.801   6.219 -0.7644  1.0080 -0.3925
  534MOL0     C72016   6.268   8.915   6.277 -0.4696  0.4052  0.0915
  534MOL0     C72017   6.405   8.940   6.208 -0.5324  0.0049 -0.4330
  534MOL0     C72018   6.499   9.043   6.270  1.1997  0.0621 -0.0178
  534MOL0     C72019   6.428   9.138   6.356 -0.4491 -0.2569  0.4363
  534MOL0     C72020   6.385   9.198   6.451  0.2590  0.2412  0.0523
  534MOL0     C72021   6.110   8.722   6.499 -0.4030 -0.1665 -0.4886
  534MOL0     C72022   6.091   8.687   6.630  0.3589 -0.2900  1.2161
  534MOL0     H72023   6.508   8.508   6.998  2.5705 -0.4837  1.6327
  534MOL0     H72024   6.560   8.503   7.235  0.5034  2.6667 -2.1058
  534MOL0     H72025   6.391   8.272   7.567  2.7798 -0.5496  0.9266
  534MOL0     H72026   6.328   8.220   7.416 -1.0909  0.6331 -0.3461
  534MOL0     H72027   6.557   8.181   7.316 -1.8659  0.2634  0.4743
  534MOL0     H72028   6.635   8.255   7.449  1.8686 -1.5329  0.1559
  534MOL0     H72029   6.440   8.024   7.479 -1.5488  1.4203  1.8016
  534MOL0     H72030   6.614   8.003   7.447  0.6903 -0.3049  0.1263
  534MOL0     H72031   6.629   8.148   7.688 -1.4764  1.1323 -0.8869
  534MOL0     H72032   6.459   8.116   7.691 -0.8928  0.1994 -0.4095
  534MOL0     H72033   6.533   7.947   7.823 -0.0228 -1.7516  1.1175
  534MOL0     H72034   6.475   7.885   7.678 -2.2107  2.6538 -1.0986
  534MOL0     H72035   6.685   7.764   7.723  2.2193 -0.5586 -1.0991
  534MOL0     H72036   6.723   7.862   7.588  1.0031  1.0966 -0.8996
  534MOL0     H72037   6.787   8.051   7.752  1.0702  0.2745  0.0904
  534MOL0     H72038   6.806   7.930   7.884 -2.2642  2.1397  0.3146
  534MOL0     H72039   7.023   7.986   7.779 -0.3441  1.0149  0.6689
  534MOL0     H72040   6.961   7.946   7.616  2.6722 -2.3761 -0.1095
  534MOL0     H72041   6.933   7.745   7.506  1.8798  0.4662  0.5688
  534MOL0     H72042   6.885   7.451   7.520  0.2937 -0.8211  0.4880
  534MOL0     H72043   7.048   7.500   7.464 -0.6426  2.9663  1.3092
  534MOL0     H72044   6.968   7.250   7.549 -0.6907  1.3055 -0.3838
  534MOL0     H72045   7.021   7.302   7.696 -1.9718 -2.1235 -0.9508
  534MOL0     H72046   7.246   7.236   7.643  1.3992  1.1637  1.8043
  534MOL0     H72047   7.246   7.400   7.592  3.8700 -0.9388 -4.2029
  534MOL0     H72048   7.338   7.279   7.444  0.2635 -1.6194  5.9360
  534MOL0     H72049   7.178   7.335   7.361 -3.3893 -1.2228  0.2828
  534MOL0     H72050   7.423   7.031   7.424  1.4200 -0.0240 -1.4010
  534MOL0     H72051   7.592   6.900   7.347  1.9141 -2.2117  0.5803
  534MOL0     H72052   7.552   6.770   7.254  0.8078  0.0709  0.7423
  534MOL0     H72053   7.639   6.919   7.184 -0.6651  0.1361 -1.0050
  534MOL0     H72054   7.336   6.700   6.764 -0.5171 -1.5679 -4.2529
  534MOL0     H72055   7.418   6.535   6.594  1.1575 -1.2785 -0.5366
  534MOL0     H72056   7.666   6.256   6.687 -1.0775  0.7880  0.8243
  534MOL0     H72057   7.507   6.303   6.617 -1.8030  1.2666 -7.8146
  534MOL0     H72058   7.601   6.286   6.383  1.8424 -1.4717 -1.5475
  534MOL0     H72059   7.762   6.238   6.453 -0.2958  0.7072 -0.3250
  534MOL0     H72060   7.632   6.051   6.561 -1.5673 -0.2802 -0.4943
  534MOL0     H72061   7.649   6.027   6.384  0.7960  0.9681 -1.6326
  534MOL0     H72062   7.399   6.129   6.528  1.4137  0.3124  0.2312
  534MOL0     H72063   7.420   6.127   6.348  1.1127  1.0818  0.3656
  534MOL0     H72064   7.300   5.918   6.486  0.5819 -6.1005 -1.4073
  534MOL0     H72065   7.464   5.859   6.457  1.4872 -0.1649 -1.5202
  534MOL0     H72066   7.260   5.965   6.260 -0.8510  1.3300  3.7514
  534MOL0     H72067   7.433   5.930   6.208 -1.2380  0.0020 -0.9174
  534MOL0     H72068   7.281   5.701   6.358 -1.2011 -2.2270 -1.5274
  534MOL0     H72069   7.425   5.704   6.246  0.5019  3.1493 -2.9733
  534MOL0     H72070   7.206   5.598   6.150  1.8017  0.4524 -3.5871
  534MOL0     H72071   7.256   5.752   6.074  2.0553  1.1934  1.0055
  534MOL0     H72072   7.796   6.509   6.790 -0.2220 -3.3559  1.7869
  534MOL0     H72073   7.691   6.657   6.982 -0.4289  0.9543 -0.8659
  534MOL0     H72074   7.175   6.991   6.994 -2.2419  0.5558  2.4476
  534MOL0     H72075   7.077   7.127   7.193 -0.9962 -0.4783 -2.9068
  534MOL0     H72076   6.155   8.376   7.310  0.5146 -0.5946  1.2358
  534MOL0     H72077   6.098   8.412   7.082 -1.8674 -0.8309  4.4781
  534MOL0     H72078   6.331   8.448   6.667 -0.2592 -0.3221 -0.1697
  534MOL0     H72079   6.358   8.491   6.419  0.4292  3.6051 -3.6041
  534MOL0     H72080   6.201   8.796   6.110  0.1433  2.9619 -0.4757
  534MOL0     H72081   6.091   8.826   6.246 -0.1020  3.7346 -0.0281
  534MOL0     H72082   6.282   8.894   6.384 -0.2026 -3.5833 -0.5758
  534MOL0     H72083   6.200   9.000   6.264  0.2503  0.8091 -1.1203
  534MOL0     H72084   6.381   8.965   6.104 -0.1798  1.3472 -0.2098
  534MOL0     H72085   6.473   8.854   6.203 -2.7279 -2.0967  2.4562
  534MOL0     H72086   6.566   9.092   6.198 -0.7169 -0.9017 -2.6488
  534MOL0     H72087   6.567   8.990   6.336 -0.2931  1.9856  3.3140
  534MOL0     H72088   6.338   9.233   6.540  2.9479  0.8810  1.3311
  534MOL0     H72089   6.033   8.791   6.465 -1.2256 -0.4779  0.6921
  534MOL0     H72090   6.029   8.746   6.697  0.4109  0.6702  0.4303
  535MOL0     O72091   4.155   6.317   1.561  0.7723 -0.0052  0.0908
  535MOL0     C72092   4.198   6.408   1.479  0.9214 -0.3521 -0.0342
  535MOL0     O72093   4.143   6.535   1.456  1.0799  0.1073 -0.4813
  535MOL0     C72094   4.009   6.564   1.486 -0.1466  0.2724  0.0694
  535MOL0     C72095   3.978   6.702   1.497 -0.5734  0.2199  0.1642
  535MOL0     C72096   3.848   6.736   1.535  0.3558  0.0173  0.0960
  535MOL0     C72097   3.739   6.646   1.535 -0.8961 -0.5271 -0.6205
  535MOL0     O72098   3.610   6.686   1.556  0.7616 -0.8242 -0.1133
  535MOL0     C72099   3.493   6.607   1.541 -0.0956 -0.0652  1.0501
  535MOL0     C72100   3.368   6.656   1.599  0.8029 -1.4139  0.3453
  535MOL0     C72101   3.330   6.800   1.550  0.1700  0.1689  1.2241
  535MOL0     C72102   3.253   6.794   1.421 -0.8916  0.4665  0.3303
  535MOL0     C72103   3.204   6.938   1.373 -1.0843 -0.1630 -0.2717
  535MOL0     C72104   3.146   6.941   1.233 -0.0675 -0.0594  0.7046
  535MOL0     C72105   3.135   7.084   1.173 -0.4255 -0.4357  0.0556
  535MOL0     C72106   3.103   7.076   1.020 -0.2800  0.4941  0.0436
  535MOL0     N72107   3.159   7.188   0.936 -0.0681 -0.4314 -0.9126
  535MOL0     C72108   3.283   7.248   0.957 -0.7330  0.1045  1.3291
  535MOL0     C72109   3.292   7.334   0.855 -0.1806 -0.8512  0.9270
  535MOL0     C72110   3.399   7.438   0.855 -0.0922  0.7306 -0.5218
  535MOL0     C72111   3.529   7.394   0.793  0.1934  0.3362  0.3037
  535MOL0     C72112   3.658   7.470   0.824  0.6646 -0.3184 -0.0893
  535MOL0     C72113   3.654   7.616   0.791  1.1397 -0.6846 -0.1051
  535MOL0     O72114   3.626   7.633   0.649 -0.4035 -0.0957  0.5253
  535MOL0     C72115   3.723   7.686   0.580 -0.3584 -0.3468  0.2135
  535MOL0     C72116   3.688   7.704   0.447  0.3228  1.2809 -0.5068
  535MOL0     C72117   3.779   7.724   0.347  0.4543 -0.3903 -0.0769
  535MOL0     C72118   3.731   7.729   0.206 -0.7988 -0.3710 -0.3429
  535MOL0     C72119   3.913   7.746   0.382 -0.0198  0.6269  0.8688
  535MOL0     C72120   4.028   7.778   0.286 -0.4771 -0.3497 -0.3567
  535MOL0     O72121   4.137   7.835   0.350 -1.8173  0.1074 -0.4158
  535MOL0     C72122   4.252   7.831   0.274  0.8427  0.0204  0.3108
  535MOL0     C72123   4.332   7.720   0.308 -0.7258 -0.5550 -1.2439
  535MOL0     C72124   4.438   7.688   0.233 -0.6047  0.9194 -0.4987
  535MOL0     C72125   4.477   7.776   0.132 -0.1462  0.0650  0.1119
  535MOL0     O72126   4.611   7.757   0.086 -0.1731  0.3608  0.6707
  535MOL0     C72127   4.641   7.827  -0.037 -0.6231  0.2873 -0.8577
  535MOL0     C72128   4.795   7.799  -0.048  0.1450  0.2568  0.6237
  535MOL0     C72129   4.832   7.764  -0.195  0.5446 -0.1612 -0.4154
  535MOL0     C72130   4.987   7.750  -0.188  0.1703 -0.1796  0.5307
  535MOL0     C72131   5.049   7.736  -0.334 -0.3207  0.5526 -0.2185
  535MOL0     C72132   5.193   7.696  -0.341  0.6101  0.3473  0.6104
  535MOL0     C72133   5.298   7.801  -0.310  0.1016  0.0831  0.3378
  535MOL0     C72134   5.427   7.745  -0.245 -0.2110  0.0343  0.3211
  535MOL0    Cl72135   5.548   7.871  -0.205  0.2870 -0.1577 -0.2291
  535MOL0     C72136   4.398   7.882   0.085 -0.8959  0.0920  0.1570
  535MOL0     C72137   4.280   7.911   0.160  0.1521  0.3159 -0.6643
  535MOL0     O72138   4.018   7.756   0.160 -0.1853  0.6141  0.6798
  535MOL0     C72139   3.947   7.729   0.517  0.2698 -0.7269 -0.4634
  535MOL0     C72140   3.853   7.699   0.614 -0.6167 -0.0417 -0.5722
  535MOL0     N72141   3.190   7.311   0.761 -1.1256 -0.0510  0.5984
  535MOL0     N72142   3.101   7.233   0.820  0.5099  0.6625  0.1978
  535MOL0     C72143   3.774   6.509   1.514 -0.3265 -0.7685 -0.1554
  535MOL0     C72144   3.906   6.468   1.496  0.2378 -0.8027 -0.0768
  535MOL0     C72145   4.328   6.377   1.409 -0.0954  0.5163 -0.3883
  535MOL0     C72146   4.385   6.246   1.403 -0.0314 -0.1361 -0.4367
  535MOL0     C72147   4.500   6.224   1.330 -0.3556  0.1941  0.3683
  535MOL0     C72148   4.559   6.320   1.235  0.8688 -0.9348 -0.2436
  535MOL0     O72149   4.669   6.281   1.159  0.8228  0.0349  0.2852
  535MOL0     C72150   4.724   6.368   1.065 -0.4926 -0.3235  0.2870
  535MOL0     C72151   4.862   6.309   1.005  0.4606 -1.1785  0.9215
  535MOL0     C72152   4.858   6.167   0.964  1.2044  0.5626  0.3110
  535MOL0     C72153   4.735   6.153   0.864 -0.3768 -0.1460 -0.1758
  535MOL0     C72154   4.758   6.040   0.765 -0.7410 -0.6737 -0.0870
  535MOL0     C72155   4.775   5.946   0.696  1.0387  0.2240  0.6576
  535MOL0     C72156   4.510   6.453   1.253  0.3308 -0.6934 -0.1663
  535MOL0     C72157   4.405   6.475   1.343 -0.2714  0.2845  0.3324
  535MOL0     H72158   4.045   6.784   1.472  0.9336 -0.8603  0.5228
  535MOL0     H72159   3.817   6.839   1.552  1.1088  0.3249 -0.3352
  535MOL0     H72160   3.479   6.569   1.439  1.6878 -1.4576  1.2852
  535MOL0     H72161   3.511   6.517   1.600  1.1602 -1.7104 -1.6601
  535MOL0     H72162   3.294   6.576   1.592 -0.8821 -0.0825  2.0105
  535MOL0     H72163   3.379   6.654   1.708 -2.7094 -1.2422  0.7940
  535MOL0     H72164   3.263   6.840   1.626 -0.0886 -0.0990  1.1442
  535MOL0     H72165   3.425   6.853   1.555  0.5437 -0.4604  1.0269
  535MOL0     H72166   3.320   6.759   1.341 -0.3464 -0.5747  1.2180
  535MOL0     H72167   3.175   6.719   1.434  1.6162 -1.8181  4.6556
  535MOL0     H72168   3.129   6.977   1.441 -0.8331 -1.3600  0.7186
  535MOL0     H72169   3.294   7.001   1.376  1.0723 -3.0123 -0.9150
  535MOL0     H72170   3.197   6.878   1.159 -3.2848  1.2516 -2.9977
  535MOL0     H72171   3.043   6.904   1.229 -2.5640  5.5467  2.8593
  535MOL0     H72172   3.064   7.149   1.225 -1.4232 -0.7057 -0.9304
  535MOL0     H72173   3.236   7.126   1.184  0.8495 -2.5306 -2.4360
  535MOL0     H72174   2.995   7.096   1.015 -0.2683  0.4844 -0.2244
  535MOL0     H72175   3.120   6.978   0.974 -1.8777  1.9029 -3.9604
  535MOL0     H72176   3.359   7.230   1.033 -1.5274 -2.6941  1.5635
  535MOL0     H72177   3.377   7.540   0.823 -0.8473  0.7186 -0.0779
  535MOL0     H72178   3.431   7.443   0.959 -1.2335 -1.0064 -0.0354
  535MOL0     H72179   3.509   7.384   0.686 -1.2597 -4.3922  0.7619
  535MOL0     H72180   3.549   7.290   0.823  0.3701  1.0386  2.7877
  535MOL0     H72181   3.741   7.427   0.768  0.9726 -0.1401  0.2229
  535MOL0     H72182   3.680   7.455   0.930 -0.2845 -1.2567 -0.0110
  535MOL0     H72183   3.738   7.667   0.838  0.1077  0.0333  1.0396
  535MOL0     H72184   3.567   7.656   0.844  1.5841 -3.7517  3.3166
  535MOL0     H72185   3.589   7.672   0.414  1.3155 -2.8851  0.0746
  535MOL0     H72186   3.637   7.673   0.207 -0.3913 -1.0765  1.1408
  535MOL0     H72187   3.699   7.826   0.166 -0.2811  0.3053  0.8082
  535MOL0     H72188   3.807   7.672   0.152  3.0706 -0.4664  4.4971
  535MOL0     H72189   4.310   7.657   0.394  1.4824  1.6866  1.0989
  535MOL0     H72190   4.490   7.605   0.278  0.8512  0.8043 -2.3001
  535MOL0     H72191   4.588   7.781  -0.121  0.1624 -0.1870 -1.1121
  535MOL0     H72192   4.633   7.936  -0.035  3.0311  0.6773 -0.8220
  535MOL0     H72193   4.847   7.885  -0.005 -0.4983  1.0680 -0.2010
  535MOL0     H72194   4.836   7.712   0.005  1.0264  0.2482 -0.0426
  535MOL0     H72195   4.795   7.842  -0.262 -1.2532 -0.4761  0.1552
  535MOL0     H72196   4.792   7.667  -0.225  0.5256  0.1343 -1.3705
  535MOL0     H72197   5.039   7.827  -0.131 -1.9265  0.7688  1.2749
  535MOL0     H72198   5.002   7.654  -0.138 -0.7966  0.1303  1.4418
  535MOL0     H72199   5.038   7.828  -0.393  4.0823  0.9547 -0.7565
  535MOL0     H72200   4.989   7.660  -0.385 -1.4414  2.5952 -2.1340
  535MOL0     H72201   5.197   7.607  -0.277  1.5186 -0.0606  0.0167
  535MOL0     H72202   5.217   7.657  -0.441  0.9405  1.9764  0.0326
  535MOL0     H72203   5.246   7.854  -0.230 -1.2960 -5.1837  3.4215
  535MOL0     H72204   5.327   7.869  -0.390 -0.4113 -1.0597 -0.8630
  535MOL0     H72205   5.479   7.674  -0.310 -1.7460  1.8225 -3.1624
  535MOL0     H72206   5.391   7.696  -0.155 -0.7034 -1.3714 -0.6046
  535MOL0     H72207   4.422   7.953   0.006  2.0047 -1.4378 -0.4844
  535MOL0     H72208   4.201   7.978   0.130 -1.8803 -0.9159  1.5615
  535MOL0     H72209   4.051   7.747   0.543 -0.0960  0.9599 -0.0507
  535MOL0     H72210   3.893   7.665   0.709 -0.3437 -1.3484 -1.1342
  535MOL0     H72211   3.696   6.433   1.518  0.2995 -1.4372 -0.3264
  535MOL0     H72212   3.917   6.360   1.491 -1.0137 -1.0869  1.8980
  535MOL0     H72213   4.342   6.167   1.463  1.0581  1.3832  2.5788
  535MOL0     H72214   4.537   6.123   1.323  1.5686  0.8743 -0.0079
  535MOL0     H72215   4.652   6.375   0.982  0.5729 -0.0091 -0.6337
  535MOL0     H72216   4.745   6.470   1.099  2.4824 -1.0826  1.0329
  535MOL0     H72217   4.938   6.314   1.084  1.5970  0.8656 -0.2159
  535MOL0     H72218   4.897   6.387   0.936 -2.9047  1.4481  1.8822
  535MOL0     H72219   4.829   6.108   1.051 -6.2189 -0.9341 -2.5114
  535MOL0     H72220   4.945   6.126   0.910 -1.5026 -3.4016 -1.5032
  535MOL0     H72221   4.710   6.249   0.817  0.6978  0.7289  0.9734
  535MOL0     H72222   4.650   6.123   0.926 -0.2038 -0.8734 -0.2755
  535MOL0     H72223   4.774   5.854   0.641 -1.2382  0.7408 -0.2848
  535MOL0     H72224   4.553   6.541   1.206  3.3696 -1.7807  0.3691
  535MOL0     H72225   4.358   6.573   1.354  0.0105  0.6668 -1.4994
  536MOL0     O72226   3.202   2.654   8.881 -0.1771 -0.1456 -1.1022
  536MOL0     C72227   3.306   2.607   8.920 -0.0601  0.7984  0.5286
  536MOL0     O72228   3.404   2.536   8.839 -0.0876 -0.5687  0.8948
  536MOL0     C72229   3.386   2.503   8.704  0.2252 -0.5596 -0.4938
  536MOL0     C72230   3.499   2.512   8.625  1.2932  0.3059 -0.1625
  536MOL0     C72231   3.509   2.474   8.494  0.5662 -0.3348  0.1407
  536MOL0     C72232   3.398   2.430   8.426  0.6774  1.0865 -0.8554
  536MOL0     O72233   3.396   2.407   8.291 -0.5394  0.3568  0.4788
  536MOL0     C72234   3.496   2.470   8.208  0.3863  0.1039 -0.3585
  536MOL0     C72235   3.443   2.502   8.073 -0.5323 -0.9103 -0.5979
  536MOL0     C72236   3.334   2.602   8.088  0.3352  0.5225  1.1037
  536MOL0     C72237   3.321   2.704   7.973 -0.1387  1.1196 -0.5622
  536MOL0     C72238   3.243   2.671   7.853  0.4769 -0.1411  0.3593
  536MOL0     C72239   3.286   2.531   7.788  0.6620 -0.6966  0.7375
  536MOL0     C72240   3.230   2.503   7.658 -0.4388  0.2705  0.7801
  536MOL0     C72241   3.276   2.374   7.595  0.1481 -0.0878  0.0424
  536MOL0     N72242   3.216   2.346   7.462 -0.1936 -0.4223  0.0153
  536MOL0     C72243   3.297   2.344   7.348  0.6759 -0.6377  0.5508
  536MOL0     C72244   3.198   2.360   7.252 -0.9468  0.4634 -0.1610
  536MOL0     C72245   3.232   2.359   7.099  0.1749 -0.5987  0.3649
  536MOL0     C72246   3.276   2.495   7.030  0.8870 -0.3849  0.0260
  536MOL0     C72247   3.201   2.619   7.071  0.6873  0.6995 -0.1848
  536MOL0     C72248   3.221   2.742   6.985 -0.2473  0.5661  0.4655
  536MOL0     O72249   3.150   2.701   6.868 -0.0426  0.7051  0.1323
  536MOL0     C72250   3.136   2.777   6.756  0.5286 -0.1950 -0.4087
  536MOL0     C72251   3.018   2.762   6.688  0.8433 -0.3710  0.0355
  536MOL0     C72252   2.994   2.847   6.578  0.8608 -0.0745 -0.2807
  536MOL0     C72253   2.868   2.815   6.502 -0.1369  0.5589 -0.0163
  536MOL0     C72254   3.089   2.946   6.538  0.0555 -0.0938  0.1924
  536MOL0     C72255   3.068   3.031   6.426 -1.3175 -1.0710 -0.1149
  536MOL0     O72256   3.183   3.062   6.364  0.5289 -0.4955 -0.0453
  536MOL0     C72257   3.196   3.120   6.238  0.0474 -0.7808 -0.1026
  536MOL0     C72258   3.286   3.226   6.243  1.1605  0.3153 -0.0901
  536MOL0     C72259   3.309   3.302   6.123  0.9743 -0.5822 -0.8627
  536MOL0     C72260   3.248   3.264   6.003  0.0953 -0.5194 -0.1515
  536MOL0     O72261   3.274   3.343   5.894  0.3012 -0.2699  0.1729
  536MOL0     C72262   3.253   3.296   5.761  0.3872 -0.1759 -0.3871
  536MOL0     C72263   3.294   3.398   5.663  0.4681 -0.7778  0.6252
  536MOL0     C72264   3.190   3.519   5.644  0.3416 -0.7007 -0.1013
  536MOL0     C72265   3.089   3.479   5.534  0.0382 -0.3357 -0.8213
  536MOL0     C72266   2.972   3.576   5.560 -0.6830 -0.0591  0.6323
  536MOL0     C72267   2.866   3.516   5.649 -0.0696  0.4637  1.1074
  536MOL0     C72268   2.744   3.596   5.634  0.0693 -0.7741 -0.6165
  536MOL0     C72269   2.758   3.750   5.656  0.0924 -0.2313 -0.4725
  536MOL0    Cl72270   2.595   3.822   5.681  0.2989  0.0931  0.0346
  536MOL0     C72271   3.162   3.158   5.999 -0.0226  0.6625 -0.3822
  536MOL0     C72272   3.140   3.080   6.117  0.5045 -0.6096 -0.2012
  536MOL0     O72273   2.957   3.065   6.383 -1.2515 -0.7049 -1.1296
  536MOL0     C72274   3.205   2.963   6.619 -0.1513  0.3138  0.5642
  536MOL0     C72275   3.224   2.881   6.732 -0.9304  0.2466 -0.5836
  536MOL0     N72276   3.072   2.357   7.299 -0.0215 -0.5016 -0.9451
  536MOL0     N72277   3.082   2.372   7.428  0.0517 -0.1870 -0.3834
  536MOL0     C72278   3.273   2.421   8.509  0.2560 -1.3611  0.5518
  536MOL0     C72279   3.272   2.444   8.647  0.8212  1.3357 -0.3870
  536MOL0     C72280   3.337   2.620   9.063 -0.7301 -0.1894  0.4689
  536MOL0     C72281   3.464   2.593   9.116  0.6053  0.1939 -0.1468
  536MOL0     C72282   3.484   2.594   9.260 -0.2479 -0.2567  0.0676
  536MOL0     C72283   3.382   2.629   9.343  0.2850 -0.0113 -0.0719
  536MOL0     O72284   3.395   2.635   9.483 -0.1619  0.7945  0.1952
  536MOL0     C72285   3.518   2.699   9.526  0.6076  0.5164  0.0588
  536MOL0     C72286   3.526   2.734   9.677  0.0743  0.0025 -1.1993
  536MOL0     C72287   3.660   2.814   9.725  0.1014 -0.5984  0.6257
  536MOL0     C72288   3.656   2.956   9.697 -0.7759 -0.9766  0.4317
  536MOL0     C72289   3.551   3.026   9.775 -0.2058 -0.2243  0.1974
  536MOL0     C72290   3.470   3.102   9.827 -0.3987  0.0953  0.3862
  536MOL0     C72291   3.269   2.680   9.288 -0.2628 -0.5714 -0.4907
  536MOL0     C72292   3.243   2.680   9.150 -0.5973  0.2276  0.1307
  536MOL0     H72293   3.586   2.553   8.676 -1.5354  2.4773  3.4408
  536MOL0     H72294   3.603   2.489   8.443  0.6381 -0.6758  0.1659
  536MOL0     H72295   3.536   2.561   8.254 -2.1278  0.2284  1.8380
  536MOL0     H72296   3.577   2.399   8.192 -1.0346 -1.0506 -3.3012
  536MOL0     H72297   3.530   2.542   8.021  1.3205 -0.6507  2.4565
  536MOL0     H72298   3.417   2.407   8.025  0.0063 -0.6659 -1.3884
  536MOL0     H72299   3.244   2.540   8.089 -0.4267  1.3277 -2.9899
  536MOL0     H72300   3.341   2.662   8.179  0.0093  0.9952  0.8161
  536MOL0     H72301   3.281   2.798   8.011  0.3883  1.4422 -0.7844
  536MOL0     H72302   3.420   2.733   7.937  0.4201 -0.9651 -0.8834
  536MOL0     H72303   3.136   2.676   7.875  0.7253  0.2805  1.5011
  536MOL0     H72304   3.251   2.748   7.776 -0.7401 -0.7131 -0.3703
  536MOL0     H72305   3.395   2.528   7.778  0.8168 -2.0629  2.4322
  536MOL0     H72306   3.261   2.449   7.855 -0.8272 -0.8111  0.0827
  536MOL0     H72307   3.121   2.502   7.658 -0.4627 -2.1555  0.2589
  536MOL0     H72308   3.262   2.577   7.584  0.3669  0.6045  1.4414
  536MOL0     H72309   3.244   2.294   7.663  2.3406 -0.9368  0.1410
  536MOL0     H72310   3.384   2.386   7.589 -0.0745  3.3959  0.8791
  536MOL0     H72311   3.404   2.331   7.339  0.5681 -0.5202 -6.5407
  536MOL0     H72312   3.306   2.280   7.084 -0.7408 -1.0284 -2.3831
  536MOL0     H72313   3.149   2.323   7.038 -0.9609  0.3844  1.2713
  536MOL0     H72314   3.289   2.474   6.923 -1.4828  0.8499 -0.5653
  536MOL0     H72315   3.377   2.523   7.062 -0.2392  1.5290  2.2440
  536MOL0     H72316   3.231   2.645   7.173 -3.4385  1.0785  1.1109
  536MOL0     H72317   3.095   2.596   7.081  0.1288  0.4360 -4.7650
  536MOL0     H72318   3.326   2.765   6.964 -0.2011  1.5693  1.7073
  536MOL0     H72319   3.187   2.837   7.026 -3.2910 -0.0427 -0.3527
  536MOL0     H72320   2.955   2.677   6.713  1.4458 -1.2027 -1.1893
  536MOL0     H72321   2.815   2.736   6.557  0.6384 -0.0479 -0.1342
  536MOL0     H72322   2.801   2.901   6.502 -0.6632  0.1600  0.0077
  536MOL0     H72323   2.896   2.777   6.404 -1.1546  0.9390 -0.4632
  536MOL0     H72324   3.335   3.250   6.337  0.2759 -2.3998  1.1812
  536MOL0     H72325   3.368   3.393   6.130 -2.3601  1.8356 -1.9526
  536MOL0     H72326   3.315   3.207   5.740  2.8145  1.3704 -0.1988
  536MOL0     H72327   3.148   3.266   5.753  1.0278 -3.2208  1.0062
  536MOL0     H72328   3.390   3.445   5.684 -1.3484  1.8435  4.0220
  536MOL0     H72329   3.302   3.346   5.567  2.6790  1.6178 -0.6008
  536MOL0     H72330   3.245   3.608   5.611  0.7906 -0.5570  1.0011
  536MOL0     H72331   3.135   3.544   5.735  0.0504  0.6930 -0.6376
  536MOL0     H72332   3.131   3.479   5.433  1.9029  2.4696 -0.1601
  536MOL0     H72333   3.053   3.378   5.555  0.0344 -0.1740 -0.0271
  536MOL0     H72334   2.932   3.585   5.458  3.8947 -1.0918 -1.4907
  536MOL0     H72335   3.006   3.675   5.594 -0.1030  0.3616 -1.0547
  536MOL0     H72336   2.842   3.412   5.626  1.5974  0.0331  1.1908
  536MOL0     H72337   2.895   3.516   5.754 -0.0480 -3.0705  1.2194
  536MOL0     H72338   2.666   3.567   5.706 -0.9377  1.8770 -0.5249
  536MOL0     H72339   2.704   3.574   5.535  0.1729 -3.5669 -0.0959
  536MOL0     H72340   2.816   3.797   5.576  0.5108 -1.3029 -0.8220
  536MOL0     H72341   2.808   3.765   5.751 -0.2598 -4.9876  0.7288
  536MOL0     H72342   3.100   3.119   5.919  3.6437  0.2775 -3.3144
  536MOL0     H72343   3.083   2.988   6.119 -0.5878  0.0470  1.2037
  536MOL0     H72344   3.272   3.046   6.601  1.9901 -0.9389  2.3385
  536MOL0     H72345   3.313   2.908   6.788 -1.0150 -0.1439 -0.2498
  536MOL0     H72346   3.189   2.372   8.460 -0.2608 -1.6297  1.6615
  536MOL0     H72347   3.178   2.431   8.700  0.6191  0.4326 -0.9334
  536MOL0     H72348   3.540   2.567   9.042 -1.7115  0.5783 -2.8272
  536MOL0     H72349   3.582   2.559   9.293  0.5784  2.1790  0.4152
  536MOL0     H72350   3.597   2.631   9.494  0.8848  0.8620  0.0106
  536MOL0     H72351   3.525   2.791   9.468 -0.1612  0.7332  0.2879
  536MOL0     H72352   3.521   2.644   9.740  4.7198  0.6965  0.5714
  536MOL0     H72353   3.434   2.787   9.704 -0.0197 -0.8308  0.2420
  536MOL0     H72354   3.746   2.769   9.675 -0.8565 -0.7630 -0.9667
  536MOL0     H72355   3.681   2.816   9.832  0.3284  5.4524  0.8139
  536MOL0     H72356   3.635   2.970   9.590 -0.3199  0.2010  0.4786
  536MOL0     H72357   3.752   3.004   9.717 -1.2107  1.3676 -2.4132
  536MOL0     H72358   3.394   3.166   9.867 -1.6859 -1.5226  0.6442
  536MOL0     H72359   3.179   2.703   9.345  0.6450  1.3366  0.2767
  536MOL0     H72360   3.148   2.719   9.114 -1.8138 -3.7451 -1.5735
  537MOL0     O72361   3.588   5.175   5.647 -0.2570  0.1769  0.4040
  537MOL0     C72362   3.534   5.195   5.537  0.0432 -0.6704 -0.6769
  537MOL0     O72363   3.403   5.161   5.505 -0.4862 -0.6847 -0.0229
  537MOL0     C72364   3.330   5.146   5.619  0.3530 -0.1397  0.7488
  537MOL0     C72365   3.238   5.238   5.654 -0.5907 -0.5364 -0.9156
  537MOL0     C72366   3.172   5.239   5.775  0.2499 -0.0296 -0.2955
  537MOL0     C72367   3.191   5.128   5.860  0.7299  0.4644 -0.4195
  537MOL0     O72368   3.119   5.111   5.978 -0.1568 -0.2094  0.2038
  537MOL0     C72369   3.084   4.980   6.033 -0.0948 -0.1042 -0.6712
  537MOL0     C72370   3.013   4.992   6.165  0.7675  0.7677 -0.7147
  537MOL0     C72371   2.883   5.065   6.145  0.5918 -0.3261  0.1201
  537MOL0     C72372   2.818   5.083   6.288  0.2816  0.2962 -0.4790
  537MOL0     C72373   2.691   5.168   6.272  0.7057 -0.3201 -1.0796
  537MOL0     C72374   2.630   5.202   6.414 -0.5570  0.7659 -0.7721
  537MOL0     C72375   2.544   5.315   6.417  0.5521 -0.7152 -0.1022
  537MOL0     C72376   2.507   5.373   6.560 -0.4566 -0.1459  0.9049
  537MOL0     N72377   2.408   5.280   6.629 -0.9003 -0.7162  0.2622
  537MOL0     C72378   2.270   5.270   6.627 -0.4221  0.4374 -0.1768
  537MOL0     C72379   2.230   5.217   6.743 -0.5367 -0.0652 -0.0162
  537MOL0     C72380   2.084   5.221   6.808  0.8110 -0.1213 -0.0455
  537MOL0     C72381   2.005   5.350   6.774  0.5839 -1.4575  0.7742
  537MOL0     C72382   1.869   5.361   6.834 -0.1625  0.3549 -0.0095
  537MOL0     C72383   1.812   5.502   6.829  0.2744 -0.1833  0.2083
  537MOL0     O72384   1.796   5.539   6.686 -0.1389  0.4538  0.2433
  537MOL0     C72385   1.675   5.507   6.613 -0.2342  0.5511  0.5121
  537MOL0     C72386   1.552   5.443   6.651  0.8267 -0.6788  0.7259
  537MOL0     C72387   1.452   5.410   6.556 -0.2602  0.0729  0.1125
  537MOL0     C72388   1.324   5.358   6.604  0.3532  0.0929  1.3565
  537MOL0     C72389   1.466   5.439   6.413 -0.5568 -0.1878  0.5768
  537MOL0     C72390   1.355   5.421   6.306  0.0685 -0.3145 -0.5771
  537MOL0     O72391   1.399   5.327   6.216 -0.2766 -0.2563  0.4212
  537MOL0     C72392   1.336   5.282   6.105  0.3589  0.0240 -0.3663
  537MOL0     C72393   1.387   5.169   6.049 -0.6693 -0.3004  0.3810
  537MOL0     C72394   1.334   5.122   5.928  0.0319 -0.3096 -0.7022
  537MOL0     C72395   1.223   5.179   5.871  0.5655 -0.8604 -0.6037
  537MOL0     O72396   1.178   5.132   5.748  0.7839  0.6352  0.1178
  537MOL0     C72397   1.061   5.197   5.672  0.0891  1.0255  0.2719
  537MOL0     C72398   1.014   5.082   5.594  0.1645 -1.2012  1.2703
  537MOL0     C72399   0.976   4.954   5.662 -0.3644 -0.1037  0.3403
  537MOL0     C72400   0.850   4.970   5.741 -0.6105  0.0604 -0.2998
  537MOL0     C72401   0.805   4.829   5.763 -0.0670  0.6395 -0.6845
  537MOL0     C72402   0.652   4.827   5.790  0.8667  0.2480 -1.3570
  537MOL0     C72403   0.593   4.873   5.922 -1.7494 -0.1111  0.2444
  537MOL0     C72404   0.649   4.795   6.047 -0.2844  0.1077 -0.2414
  537MOL0    Cl72405   0.610   4.625   6.027 -0.2760 -0.0171 -0.2105
  537MOL0     C72406   1.165   5.294   5.932  1.0594  0.1590  0.5008
  537MOL0     C72407   1.219   5.341   6.052  0.0441  0.2474 -0.4012
  537MOL0     O72408   1.240   5.462   6.322 -0.6870 -0.5338 -0.0785
  537MOL0     C72409   1.582   5.515   6.381 -0.7462 -0.8460 -0.7681
  537MOL0     C72410   1.687   5.536   6.472 -0.6714  0.2108 -0.1426
  537MOL0     N72411   2.342   5.174   6.807 -0.4193  0.6948  0.8156
  537MOL0     N72412   2.449   5.203   6.740 -0.3996  0.3841  0.1404
  537MOL0     C72413   3.271   5.023   5.819  0.7077 -1.3724 -0.3667
  537MOL0     C72414   3.330   5.026   5.693  0.0491  0.5162 -0.0712
  537MOL0     C72415   3.621   5.250   5.436  0.5452 -0.0667 -0.4710
  537MOL0     C72416   3.754   5.292   5.464 -0.0990  0.2025 -0.1840
  537MOL0     C72417   3.835   5.340   5.357 -0.2722 -0.5148 -0.4324
  537MOL0     C72418   3.787   5.358   5.230 -1.0241 -0.3475 -0.3177
  537MOL0     O72419   3.866   5.412   5.137 -1.1243 -0.5876 -0.6326
  537MOL0     C72420   3.861   5.550   5.107  0.7342 -0.4213  0.1046
  537MOL0     C72421   3.899   5.639   5.223  0.0685  0.5067  0.6074
  537MOL0     C72422   3.881   5.782   5.178  0.5610 -1.1555 -0.2908
  537MOL0     C72423   3.900   5.889   5.284 -0.9025  0.1656  0.4769
  537MOL0     C72424   3.784   5.898   5.377 -0.6456  0.6118  1.3785
  537MOL0     C72425   3.691   5.883   5.448 -0.1736 -0.9034 -0.3424
  537MOL0     C72426   3.657   5.314   5.196  0.1109  0.2553 -0.0046
  537MOL0     C72427   3.580   5.267   5.303 -0.1355 -0.1667 -0.0907
  537MOL0     H72428   3.212   5.328   5.598 -1.6810 -0.3285 -0.1038
  537MOL0     H72429   3.114   5.323   5.811 -0.5353 -0.0621 -1.4362
  537MOL0     H72430   3.014   4.934   5.963 -1.3743 -0.4271  0.7652
  537MOL0     H72431   3.177   4.926   6.051  0.9841  1.7601 -0.3634
  537MOL0     H72432   3.005   4.893   6.211 -0.8774  0.8440 -0.7685
  537MOL0     H72433   3.069   5.067   6.221  0.0129  2.6077 -2.3059
  537MOL0     H72434   2.901   5.155   6.086  4.1429 -0.5984  0.6156
  537MOL0     H72435   2.816   5.006   6.080  0.8926 -0.7281  0.1708
  537MOL0     H72436   2.785   4.982   6.315 -1.0928  0.7921 -0.2476
  537MOL0     H72437   2.895   5.127   6.352  1.9919  0.8609 -2.7880
  537MOL0     H72438   2.719   5.260   6.220  0.7182 -0.1171 -0.7123
  537MOL0     H72439   2.620   5.109   6.213  1.3811 -2.4336  0.1046
  537MOL0     H72440   2.580   5.110   6.446  0.6871  0.5303  0.6083
  537MOL0     H72441   2.718   5.216   6.477 -0.2588  0.0378 -1.0173
  537MOL0     H72442   2.587   5.394   6.355  2.8958 -1.0709  0.9784
  537MOL0     H72443   2.444   5.291   6.379  0.9333  2.6161 -3.8746
  537MOL0     H72444   2.453   5.467   6.549 -2.0551 -1.0928  0.2851
  537MOL0     H72445   2.598   5.386   6.619 -0.9891  1.7219  1.3581
  537MOL0     H72446   2.212   5.329   6.556 -1.0097  2.2970  1.7456
  537MOL0     H72447   2.029   5.130   6.780  0.3208 -0.3009  1.4506
  537MOL0     H72448   2.087   5.223   6.917  1.4896  2.7192 -0.0553
  537MOL0     H72449   1.989   5.360   6.666  3.0534  2.4579  0.5725
  537MOL0     H72450   2.060   5.442   6.794 -2.1707  0.3182  0.7301
  537MOL0     H72451   1.874   5.326   6.938 -2.9537 -2.6937 -0.7480
  537MOL0     H72452   1.801   5.288   6.790  4.6274 -2.7694 -3.1847
  537MOL0     H72453   1.871   5.576   6.884 -1.4261  0.5784  1.0899
  537MOL0     H72454   1.715   5.510   6.878  0.0091 -2.6710  0.2052
  537MOL0     H72455   1.542   5.413   6.755  2.0055 -1.2821  0.6712
  537MOL0     H72456   1.296   5.276   6.537  2.1488 -0.4680  1.2373
  537MOL0     H72457   1.336   5.328   6.708 -0.3707  2.6702  2.2430
  537MOL0     H72458   1.244   5.432   6.602 -1.7978 -1.9908 -3.0036
  537MOL0     H72459   1.481   5.126   6.080 -0.3974 -1.9407 -2.3984
  537MOL0     H72460   1.380   5.045   5.865  1.7000  0.2171 -0.1889
  537MOL0     H72461   0.981   5.222   5.743 -1.5083 -3.9658  0.6076
  537MOL0     H72462   1.097   5.284   5.616  2.3378 -0.8280 -1.3125
  537MOL0     H72463   0.939   5.118   5.522  2.7074 -1.2865 -1.6347
  537MOL0     H72464   1.102   5.067   5.531 -0.6817  0.4747 -0.4161
  537MOL0     H72465   1.057   4.902   5.713 -2.1176 -3.1339  0.2787
  537MOL0     H72466   0.957   4.883   5.581  1.3847 -1.7642  1.3303
  537MOL0     H72467   0.872   5.041   5.821 -5.9959  1.9767 -0.1258
  537MOL0     H72468   0.779   5.018   5.673 -1.6425 -1.7860 -0.6228
  537MOL0     H72469   0.846   4.793   5.858 -2.6712  0.2418  0.3804
  537MOL0     H72470   0.833   4.775   5.672 -4.9836  1.1686 -2.8123
  537MOL0     H72471   0.603   4.898   5.722  1.3092  2.0560  0.1464
  537MOL0     H72472   0.598   4.732   5.779 -4.0510  2.3489  1.4997
  537MOL0     H72473   0.483   4.878   5.918 -1.7167  1.4983  0.8381
  537MOL0     H72474   0.623   4.976   5.940 -0.6388 -0.5391  0.8974
  537MOL0     H72475   0.588   4.828   6.132 -3.6166  0.6092 -2.6230
  537MOL0     H72476   0.755   4.804   6.071 -0.1445  2.1294 -1.3890
  537MOL0     H72477   1.081   5.336   5.877 -1.5244 -1.7769  2.7011
  537MOL0     H72478   1.173   5.427   6.099 -0.1420 -0.9239  1.6975
  537MOL0     H72479   1.587   5.551   6.279 -3.2215 -0.6206 -0.8894
  537MOL0     H72480   1.765   5.600   6.432 -3.1883  3.1782 -0.7931
  537MOL0     H72481   3.307   4.945   5.886  1.8644 -1.9109 -1.5582
  537MOL0     H72482   3.416   4.961   5.686  0.9479  1.5007  1.2815
  537MOL0     H72483   3.787   5.295   5.568 -0.6486  0.8958 -0.0179
  537MOL0     H72484   3.938   5.369   5.378 -1.0053  0.8651  1.5234
  537MOL0     H72485   3.922   5.564   5.017 -0.6353  2.4488 -0.4743
  537MOL0     H72486   3.763   5.584   5.074  1.6877  0.7671 -1.6586
  537MOL0     H72487   4.003   5.619   5.251  0.7771 -0.2159 -2.1925
  537MOL0     H72488   3.825   5.609   5.298 -0.3595 -0.3024 -0.1211
  537MOL0     H72489   3.783   5.798   5.132  1.6247  3.0426 -1.5274
  537MOL0     H72490   3.955   5.800   5.100  1.2729 -3.4602 -0.2263
  537MOL0     H72491   3.911   5.982   5.227  0.2419 -1.3524 -1.9004
  537MOL0     H72492   3.992   5.868   5.339 -0.8715 -1.0030  0.0018
  537MOL0     H72493   3.606   5.868   5.511 -0.5683 -1.5477 -1.0112
  537MOL0     H72494   3.611   5.349   5.104  2.4607  0.2003 -1.2708
  537MOL0     H72495   3.476   5.248   5.280 -0.1513  1.8475 -1.9997
  538MOL0     O72496   0.134   9.240   5.681  0.2738  0.5790 -0.8466
  538MOL0     C72497   0.099   9.320   5.763  0.4726  0.1085 -0.2965
  538MOL0     O72498  -0.025   9.389   5.756 -0.2149  0.0036 -1.1163
  538MOL0     C72499  -0.111   9.364   5.650  0.4044  0.4773  0.8043
  538MOL0     C72500  -0.162   9.471   5.587 -0.8684  0.1591 -0.2012
  538MOL0     C72501  -0.246   9.460   5.479 -0.4605 -0.7486 -0.1350
  538MOL0     C72502  -0.287   9.331   5.437 -0.0443 -0.2540 -0.0280
  538MOL0     O72503  -0.383   9.325   5.336 -0.3954 -0.3299 -0.1686
  538MOL0     C72504  -0.436   9.206   5.268 -0.6687 -0.7728  0.5734
  538MOL0     C72505  -0.321   9.113   5.223 -1.5407 -0.0209 -0.7115
  538MOL0     C72506  -0.359   9.032   5.098 -0.6425 -0.4230  0.2409
  538MOL0     C72507  -0.257   8.921   5.072  0.8215  0.2470 -0.0053
  538MOL0     C72508  -0.277   8.849   4.937  0.6029 -0.1289 -0.3891
  538MOL0     C72509  -0.415   8.805   4.894  0.6475  0.0527 -0.5518
  538MOL0     C72510  -0.474   8.698   4.981  0.1268  0.6549  0.0840
  538MOL0     C72511  -0.602   8.640   4.919  0.3029 -0.3528 -0.1019
  538MOL0     N72512  -0.650   8.517   4.988  0.7488 -1.3014  0.1032
  538MOL0     C72513  -0.573   8.405   5.012  0.3773 -0.6329  0.5254
  538MOL0     C72514  -0.653   8.336   5.097  0.3791 -0.0799  0.2268
  538MOL0     C72515  -0.626   8.206   5.165  0.5971  0.6184 -0.5907
  538MOL0     C72516  -0.681   8.077   5.102  0.2498 -0.6263 -0.3467
  538MOL0     C72517  -0.814   8.038   5.172 -0.6687  1.4954  0.6875
  538MOL0     C72518  -0.797   7.979   5.305  0.3867  0.9810 -0.6903
  538MOL0     O72519  -0.736   8.054   5.413  0.0144  0.0498  0.1816
  538MOL0     C72520  -0.739   8.002   5.537  0.1766  1.0746 -0.0822
  538MOL0     C72521  -0.758   7.863   5.562 -0.1101 -0.8629 -0.6135
  538MOL0     C72522  -0.752   7.810   5.695  0.4147  0.1001 -0.1284
  538MOL0     C72523  -0.759   7.660   5.695 -1.0321  0.2225  0.2181
  538MOL0     C72524  -0.730   7.903   5.804  0.6064 -0.1167 -0.0490
  538MOL0     C72525  -0.712   7.853   5.945 -0.1417  0.2796  0.3133
  538MOL0     O72526  -0.666   7.949   6.027 -0.1035  0.2529 -0.1462
  538MOL0     C72527  -0.664   7.903   6.157 -0.5091 -0.0285 -0.0417
  538MOL0     C72528  -0.780   7.921   6.239  0.2453 -0.8461 -0.6499
  538MOL0     C72529  -0.788   7.869   6.373  0.3527  0.9186  0.1373
  538MOL0     C72530  -0.678   7.792   6.424 -0.1984  0.2970  0.2713
  538MOL0     O72531  -0.696   7.738   6.551 -0.1237  0.8350  0.5524
  538MOL0     C72532  -0.582   7.702   6.633  0.2243 -0.3043  0.1072
  538MOL0     C72533  -0.582   7.811   6.741  0.6248  1.4149  0.2921
  538MOL0     C72534  -0.512   7.774   6.862 -1.1978  0.0337 -0.5525
  538MOL0     C72535  -0.366   7.719   6.842 -0.4101 -0.0276  0.8274
  538MOL0     C72536  -0.288   7.726   6.977 -0.4711  0.6571 -0.8387
  538MOL0     C72537  -0.141   7.678   6.959 -0.2430 -0.2819 -0.3399
  538MOL0     C72538  -0.082   7.673   7.097  0.0255  0.7235 -1.1763
  538MOL0     C72539   0.074   7.652   7.095  0.6636  0.3826 -0.4977
  538MOL0    Cl72540   0.150   7.791   7.010  0.3155 -0.0465 -0.2469
  538MOL0     C72541  -0.570   7.766   6.351 -0.2740 -0.0234  0.4979
  538MOL0     C72542  -0.562   7.824   6.216 -0.1467 -0.0500 -0.1926
  538MOL0     O72543  -0.729   7.739   5.977 -0.3178 -0.2028 -0.7772
  538MOL0     C72544  -0.714   8.047   5.778  0.4545  0.1180  0.1764
  538MOL0     C72545  -0.729   8.090   5.647 -0.2428  0.1367 -0.1269
  538MOL0     N72546  -0.774   8.396   5.117 -0.1252 -0.4603  0.2726
  538MOL0     N72547  -0.774   8.505   5.045  0.2876  0.4975  1.1775
  538MOL0     C72548  -0.253   9.215   5.511 -0.2822  0.0440 -1.5911
  538MOL0     C72549  -0.166   9.235   5.621 -0.2724  0.4500  0.6934
  538MOL0     C72550   0.179   9.342   5.888 -0.5360 -0.3577 -0.3790
  538MOL0     C72551   0.309   9.279   5.905 -0.4589 -0.4987 -0.0475
  538MOL0     C72552   0.378   9.289   6.026 -0.9888  0.3183  0.4121
  538MOL0     C72553   0.313   9.354   6.135 -0.0491 -0.9548  0.7005
  538MOL0     O72554   0.366   9.371   6.256  0.2369 -0.3528  0.0076
  538MOL0     C72555   0.446   9.260   6.295  0.0802 -0.7772 -0.2357
  538MOL0     C72556   0.478   9.293   6.446 -0.5731 -0.2793  0.0233
  538MOL0     C72557   0.346   9.309   6.522  0.2918 -0.3468 -0.0439
  538MOL0     C72558   0.359   9.311   6.683  0.0556 -0.2252  0.6593
  538MOL0     C72559   0.470   9.391   6.739 -0.0475 -0.3120  0.3798
  538MOL0     C72560   0.564   9.462   6.772  0.1400  0.9186  0.3948
  538MOL0     C72561   0.186   9.401   6.122  0.3933 -0.0760 -0.7773
  538MOL0     C72562   0.116   9.402   6.002  0.6355  0.1569 -0.1578
  538MOL0     H72563  -0.145   9.573   5.619 -0.1258 -0.9983  3.5273
  538MOL0     H72564  -0.280   9.547   5.424  2.8327  1.4250  1.0171
  538MOL0     H72565  -0.504   9.149   5.331 -0.9418  0.9214  1.8922
  538MOL0     H72566  -0.484   9.234   5.173  3.9548  0.4375 -1.7360
  538MOL0     H72567  -0.242   9.183   5.195 -1.6000  0.2871 -0.1202
  538MOL0     H72568  -0.286   9.042   5.298 -1.0330 -0.4253 -1.3225
  538MOL0     H72569  -0.460   8.989   5.104 -1.3131  1.2655  1.8822
  538MOL0     H72570  -0.347   9.099   5.012  0.7637 -1.1128 -0.1244
  538MOL0     H72571  -0.158   8.967   5.075 -0.4539  3.3002 -0.7076
  538MOL0     H72572  -0.259   8.854   5.158  0.7269  1.6317  1.1104
  538MOL0     H72573  -0.246   8.923   4.863  0.8807  0.1926  0.0444
  538MOL0     H72574  -0.220   8.756   4.937  1.1449  0.1763 -1.6620
  538MOL0     H72575  -0.483   8.891   4.893 -0.2309 -0.4924  2.3487
  538MOL0     H72576  -0.405   8.765   4.793 -1.6758 -0.2506 -0.7361
  538MOL0     H72577  -0.399   8.622   5.003  2.0428  1.4627 -2.9629
  538MOL0     H72578  -0.495   8.749   5.075  2.4336  1.5937  0.1543
  538MOL0     H72579  -0.565   8.618   4.819 -1.1644  1.2108 -1.0519
  538MOL0     H72580  -0.682   8.712   4.898 -1.9157 -3.2756 -2.6144
  538MOL0     H72581  -0.467   8.382   4.998 -0.0522 -1.5191 -1.5363
  538MOL0     H72582  -0.517   8.194   5.167  0.5829  0.5125 -0.4610
  538MOL0     H72583  -0.674   8.217   5.263  0.5366 -0.2164 -0.5176
  538MOL0     H72584  -0.617   7.991   5.123 -2.7679 -3.1372 -0.6867
  538MOL0     H72585  -0.692   8.095   4.994 -3.1361  0.3799  0.0393
  538MOL0     H72586  -0.878   7.975   5.109  3.2929  0.9343 -3.3165
  538MOL0     H72587  -0.884   8.121   5.181 -3.2530 -0.2214 -1.6311
  538MOL0     H72588  -0.751   7.880   5.311 -0.1696  0.7273  4.5171
  538MOL0     H72589  -0.899   7.959   5.340  1.4856 -5.2381  0.0792
  538MOL0     H72590  -0.771   7.786   5.487 -2.3698  2.1046 -3.5495
  538MOL0     H72591  -0.819   7.616   5.776  1.8560 -2.7581  0.9336
  538MOL0     H72592  -0.797   7.616   5.603  2.8449 -0.9652 -1.0059
  538MOL0     H72593  -0.657   7.623   5.699 -1.0001  0.1679 -0.8381
  538MOL0     H72594  -0.871   7.958   6.193  0.5341  0.5140 -0.1652
  538MOL0     H72595  -0.878   7.887   6.431  1.5783  2.2173  1.7052
  538MOL0     H72596  -0.587   7.604   6.681  0.7650  1.5036  4.2374
  538MOL0     H72597  -0.484   7.710   6.586  0.4580 -0.8997  0.4838
  538MOL0     H72598  -0.558   7.913   6.707 -0.1591  1.0822 -1.3893
  538MOL0     H72599  -0.686   7.823   6.775 -0.0064 -2.5421  0.1978
  538MOL0     H72600  -0.563   7.689   6.908  0.1756 -0.8687 -0.6316
  538MOL0     H72601  -0.519   7.854   6.936  3.7313  0.0785  0.2290
  538MOL0     H72602  -0.368   7.616   6.804 -1.0688  1.5370 -4.0644
  538MOL0     H72603  -0.304   7.773   6.770  2.4572  0.0398  3.1601
  538MOL0     H72604  -0.337   7.654   7.043 -1.0606  0.5131 -1.4234
  538MOL0     H72605  -0.306   7.823   7.024  2.5529  0.6408  0.6234
  538MOL0     H72606  -0.137   7.580   6.911 -0.8803  0.2301 -1.4714
  538MOL0     H72607  -0.094   7.754   6.898 -0.3193 -1.2168 -1.6014
  538MOL0     H72608  -0.136   7.600   7.158 -1.9054  2.6010 -0.5335
  538MOL0     H72609  -0.100   7.770   7.144  1.2349  0.7579 -0.7421
  538MOL0     H72610   0.100   7.560   7.043 -4.2010 -1.9815  0.7182
  538MOL0     H72611   0.109   7.640   7.197 -0.4358  4.2262  0.5060
  538MOL0     H72612  -0.479   7.713   6.375  0.3149 -0.2083 -1.8651
  538MOL0     H72613  -0.481   7.806   6.146  3.3042 -0.6724  3.5791
  538MOL0     H72614  -0.684   8.113   5.859  2.0377 -4.0767  3.3999
  538MOL0     H72615  -0.708   8.196   5.635 -0.6191  0.1910 -0.3118
  538MOL0     H72616  -0.297   9.115   5.511 -1.7833  0.6607 -0.3840
  538MOL0     H72617  -0.156   9.148   5.686 -1.0126  0.7523  1.2174
  538MOL0     H72618   0.343   9.235   5.812 -0.4216  1.0721 -0.8155
  538MOL0     H72619   0.482   9.259   6.030 -1.4939 -1.5016  4.2244
  538MOL0     H72620   0.392   9.165   6.295  1.0701 -1.6594  5.1011
  538MOL0     H72621   0.537   9.259   6.235 -0.4650  2.6764 -1.3446
  538MOL0     H72622   0.544   9.380   6.453  2.7171 -2.6191  0.6289
  538MOL0     H72623   0.537   9.214   6.494 -1.1572  0.3129  1.7635
  538MOL0     H72624   0.278   9.226   6.498  0.8764  0.1284 -4.0219
  538MOL0     H72625   0.296   9.398   6.483  0.0759  1.0318  3.0877
  538MOL0     H72626   0.379   9.209   6.717  1.2702  0.0355  0.7797
  538MOL0     H72627   0.262   9.347   6.719  0.8393  1.4912  1.1401
  538MOL0     H72628   0.646   9.530   6.783  3.2329 -2.6104  1.3172
  538MOL0     H72629   0.154   9.448   6.214  0.9313  0.2150 -0.7351
  538MOL0     H72630   0.021   9.453   6.007  1.1309  1.0208  1.0434
  539MOL0     O72631  10.472   5.838   4.035  0.5824  0.0826  1.0893
  539MOL0     C72632  10.479   5.881   3.920 -0.5857 -0.1673 -0.5881
  539MOL0     O72633  10.543   5.999   3.881  0.5589  0.1784  0.4598
  539MOL0     C72634  10.621   6.063   3.972 -0.6291  0.9365  0.3137
  539MOL0     C72635  10.724   5.991   4.039 -0.0788 -0.5238 -0.4250
  539MOL0     C72636  10.793   6.059   4.137 -0.8359 -0.2519 -0.5285
  539MOL0     C72637  10.775   6.195   4.167 -0.0278  0.5810 -0.1056
  539MOL0     O72638  10.819   6.263   4.279 -0.1012 -0.1132  0.1681
  539MOL0     C72639  10.723   6.263   4.397 -0.2407 -0.3764  1.1625
  539MOL0     C72640  10.623   6.377   4.394  0.9109 -0.3722 -0.1146
  539MOL0     C72641  10.519   6.365   4.511 -0.6831  0.4369 -0.6427
  539MOL0     C72642  10.393   6.449   4.488 -0.0537 -0.7981 -1.0808
  539MOL0     C72643  10.296   6.385   4.392 -0.2251 -0.7281 -0.1345
  539MOL0     C72644  10.159   6.452   4.386 -1.0487  0.0886  0.3342
  539MOL0     C72645  10.059   6.375   4.306 -0.4077  0.3000 -0.3445
  539MOL0     C72646  10.017   6.236   4.368 -0.0848  0.0087  0.5475
  539MOL0     N72647   9.881   6.206   4.352 -0.4711  0.3739 -0.4090
  539MOL0     C72648   9.832   6.122   4.257  0.2641  0.2237 -0.1039
  539MOL0     C72649   9.698   6.165   4.243  0.1700  0.9172  0.3389
  539MOL0     C72650   9.614   6.108   4.141 -1.2281 -1.2996 -0.1966
  539MOL0     C72651   9.606   6.178   4.006 -0.2058  0.9329  1.1651
  539MOL0     C72652   9.532   6.313   4.021 -0.9823  0.7202 -0.5293
  539MOL0     C72653   9.632   6.428   4.051 -0.0769 -0.3029 -0.1974
  539MOL0     O72654   9.562   6.535   4.122 -0.6899 -0.6551  0.1036
  539MOL0     C72655   9.642   6.598   4.208  0.2803 -0.8927 -0.3046
  539MOL0     C72656   9.768   6.660   4.180  0.1987  0.1524  0.2045
  539MOL0     C72657   9.844   6.723   4.288 -0.1146 -0.4517 -0.1199
  539MOL0     C72658   9.971   6.797   4.247 -0.5485 -0.9714 -0.2408
  539MOL0     C72659   9.778   6.733   4.419 -1.2685  0.7991  0.2216
  539MOL0     C72660   9.833   6.813   4.527  1.3106  0.1904  0.2915
  539MOL0     O72661   9.938   6.762   4.581  0.1899  0.0683 -0.0306
  539MOL0     C72662  10.013   6.848   4.659  0.0671  0.5991 -0.0328
  539MOL0     C72663  10.049   6.817   4.793  0.4964  0.1760 -0.6542
  539MOL0     C72664  10.123   6.896   4.878  0.7325 -0.3247 -0.5999
  539MOL0     C72665  10.172   7.017   4.836 -0.1258 -0.5044 -0.0987
  539MOL0     O72666  10.261   7.092   4.920  0.3778 -0.7874 -0.3886
  539MOL0     C72667  10.297   7.234   4.914  0.7626 -0.5895 -0.0693
  539MOL0     C72668  10.450   7.244   4.931 -0.0871 -0.0167  0.1904
  539MOL0     C72669  10.547   7.230   4.816  1.1452 -0.0478 -0.0951
  539MOL0     C72670  10.541   7.337   4.706  0.1013 -0.0190 -1.1185
  539MOL0     C72671  10.675   7.336   4.634 -0.3759  0.0306 -0.4861
  539MOL0     C72672  10.720   7.213   4.554 -0.0379  0.1751 -0.2057
  539MOL0     C72673  10.853   7.251   4.497  0.1906 -0.5849 -0.6328
  539MOL0     C72674  10.972   7.241   4.594  0.2390  0.3478  0.8098
  539MOL0    Cl72675  10.990   7.085   4.677  0.1285 -0.1262  0.3345
  539MOL0     C72676  10.131   7.068   4.706  0.7474 -0.0141 -0.6785
  539MOL0     C72677  10.052   6.980   4.624  0.0824 -0.7818 -0.2470
  539MOL0     O72678   9.779   6.922   4.544 -0.0833 -0.3728  0.0243
  539MOL0     C72679   9.661   6.660   4.446  0.8391 -0.1176  0.4773
  539MOL0     C72680   9.596   6.593   4.342  0.2297 -0.8444  0.7951
  539MOL0     N72681   9.667   6.248   4.338 -0.6175  0.0713 -0.0443
  539MOL0     N72682   9.775   6.275   4.399  0.2947 -0.5572 -0.1537
  539MOL0     C72683  10.695   6.265   4.085 -0.7008 -0.0727 -0.1771
  539MOL0     C72684  10.612   6.201   3.983 -0.3606 -0.4118 -0.8028
  539MOL0     C72685  10.420   5.815   3.799  0.4298  0.5520  0.5458
  539MOL0     C72686  10.426   5.872   3.670  0.4047  0.2242  0.3371
  539MOL0     C72687  10.375   5.815   3.560  0.8108  0.9763 -0.0202
  539MOL0     C72688  10.296   5.701   3.571  0.1452 -0.5047 -0.0313
  539MOL0     O72689  10.215   5.647   3.472  0.1591 -0.0503 -0.2639
  539MOL0     C72690  10.186   5.728   3.358  0.0667 -0.0568  0.3928
  539MOL0     C72691  10.119   5.640   3.245  0.0839 -0.7575 -0.2142
  539MOL0     C72692   9.973   5.614   3.295 -0.6725 -0.4739 -0.8333
  539MOL0     C72693   9.906   5.524   3.194  0.2973 -0.1939  0.6364
  539MOL0     C72694   9.825   5.420   3.258 -0.1195  0.2919 -0.3495
  539MOL0     C72695   9.782   5.330   3.318 -0.3261  0.4785 -1.1144
  539MOL0     C72696  10.283   5.637   3.700 -0.7846 -0.2560  0.7549
  539MOL0     C72697  10.349   5.698   3.806  0.3657 -0.2118 -0.3752
  539MOL0     H72698  10.741   5.883   4.036 -2.3984 -1.1861  3.5197
  539MOL0     H72699  10.859   6.000   4.200 -0.2508  2.9381  2.1798
  539MOL0     H72700  10.688   6.161   4.418 -1.8600  0.2701  1.7631
  539MOL0     H72701  10.783   6.281   4.486 -0.6290  1.2094  1.1367
  539MOL0     H72702  10.674   6.471   4.417 -0.9211 -0.0159  3.2244
  539MOL0     H72703  10.576   6.395   4.297  4.7946  3.0380 -1.6978
  539MOL0     H72704  10.489   6.260   4.506 -2.8375  1.0473 -1.7139
  539MOL0     H72705  10.560   6.375   4.612 -4.2105  0.7810  0.8974
  539MOL0     H72706  10.341   6.461   4.583  1.5115  2.2246 -0.4812
  539MOL0     H72707  10.415   6.544   4.439 -1.7406 -0.4204 -1.1776
  539MOL0     H72708  10.345   6.378   4.295  3.4240  3.0245  1.1527
  539MOL0     H72709  10.270   6.287   4.434  3.7649 -1.8830  0.1083
  539MOL0     H72710  10.116   6.481   4.482 -0.8549  1.5256  0.0004
  539MOL0     H72711  10.181   6.530   4.312  1.5096  1.5118  2.4356
  539MOL0     H72712   9.968   6.435   4.299 -0.7056 -0.3051 -1.9644
  539MOL0     H72713  10.094   6.366   4.203 -0.2334  1.6174 -0.4207
  539MOL0     H72714  10.028   6.238   4.477 -1.3767 -0.7812  0.7061
  539MOL0     H72715  10.071   6.160   4.310 -1.6647  0.3267 -1.4460
  539MOL0     H72716   9.891   6.043   4.211  2.7624  0.9664  1.6236
  539MOL0     H72717   9.651   6.007   4.124  1.3830 -0.4334 -0.0903
  539MOL0     H72718   9.515   6.099   4.186 -1.2470  0.5774  0.2216
  539MOL0     H72719   9.548   6.134   3.925  0.6527  2.0033 -0.0593
  539MOL0     H72720   9.708   6.194   3.973  0.3109 -0.6905  1.8526
  539MOL0     H72721   9.456   6.311   4.100 -0.1948  1.2765  0.2621
  539MOL0     H72722   9.482   6.340   3.927  1.3142  1.1072 -1.7108
  539MOL0     H72723   9.669   6.464   3.954  2.9115 -1.9693  0.2154
  539MOL0     H72724   9.724   6.398   4.101  0.1238 -1.5205 -1.2573
  539MOL0     H72725   9.804   6.650   4.079 -3.1895  0.6953 -1.1840
  539MOL0     H72726  10.029   6.837   4.331 -3.4278  1.5170  0.7557
  539MOL0     H72727  10.024   6.729   4.180  3.9593  2.9562 -1.1647
  539MOL0     H72728   9.933   6.885   4.194  1.9393  0.9005  0.8865
  539MOL0     H72729  10.017   6.724   4.838 -1.4739  0.0683 -2.1136
  539MOL0     H72730  10.155   6.857   4.974  2.6912 -1.9283 -1.8356
  539MOL0     H72731  10.268   7.283   4.820 -0.2243 -1.0760 -0.0400
  539MOL0     H72732  10.229   7.287   4.981 -0.5367  0.1109 -1.8394
  539MOL0     H72733  10.473   7.341   4.976  1.9624 -1.1235  1.6647
  539MOL0     H72734  10.492   7.177   5.007  1.3641  1.9302  1.2055
  539MOL0     H72735  10.529   7.132   4.771  4.7097 -0.0956 -1.7087
  539MOL0     H72736  10.643   7.237   4.867 -0.9169  1.9590  4.0040
  539MOL0     H72737  10.453   7.323   4.643 -0.5395  0.5903 -0.3724
  539MOL0     H72738  10.530   7.436   4.750  5.1189  0.2824  0.0180
  539MOL0     H72739  10.758   7.365   4.699  1.8476 -1.9396 -2.2740
  539MOL0     H72740  10.689   7.422   4.567 -0.9256  2.1319  1.9273
  539MOL0     H72741  10.722   7.126   4.621 -1.1974  0.3690  0.1089
  539MOL0     H72742  10.646   7.184   4.479  0.4012 -3.7799  0.6827
  539MOL0     H72743  10.845   7.352   4.456 -1.4577 -1.0936 -1.6556
  539MOL0     H72744  10.889   7.188   4.415  0.2007 -0.3848 -0.7848
  539MOL0     H72745  10.962   7.310   4.679  0.8174  3.0933 -1.2404
  539MOL0     H72746  11.066   7.246   4.538  1.2873 -3.9010  1.7627
  539MOL0     H72747  10.152   7.168   4.669  0.9367 -0.0840 -0.7582
  539MOL0     H72748  10.014   7.010   4.527 -2.7316  0.7528  1.2285
  539MOL0     H72749   9.612   6.670   4.542  2.9310 -1.6201  1.8230
  539MOL0     H72750   9.514   6.524   4.361  1.7960 -2.6327  1.4676
  539MOL0     H72751  10.691   6.373   4.092  2.0562  0.0501  0.9549
  539MOL0     H72752  10.545   6.248   3.911  4.1312  2.3573 -3.6868
  539MOL0     H72753  10.487   5.959   3.649 -1.7937  1.5475 -0.8848
  539MOL0     H72754  10.396   5.862   3.465  0.0469  0.1328 -0.6183
  539MOL0     H72755  10.129   5.818   3.384 -0.3957 -0.8166  2.1107
  539MOL0     H72756  10.282   5.747   3.310 -0.3350 -1.4087 -1.0271
  539MOL0     H72757  10.176   5.550   3.221  3.8736  1.4090 -0.1990
  539MOL0     H72758  10.110   5.691   3.149  0.6833 -1.7343 -0.7992
  539MOL0     H72759   9.911   5.703   3.312  0.9354  0.1449  2.8716
  539MOL0     H72760   9.988   5.567   3.393  1.3496  0.0634 -0.8423
  539MOL0     H72761   9.976   5.477   3.125  0.9675 -0.6603  1.6036
  539MOL0     H72762   9.830   5.584   3.145 -0.7973  1.1689  3.7212
  539MOL0     H72763   9.741   5.251   3.377  1.3678 -0.4729 -1.1408
  539MOL0     H72764  10.233   5.542   3.713  0.2895 -1.1720 -1.1760
  539MOL0     H72765  10.343   5.660   3.908  2.0935  4.7951  1.8916
  540MOL0     O72766   3.049   9.725   9.242 -0.8650  0.2509 -0.0521
  540MOL0     C72767   2.943   9.735   9.192  0.4576  0.6307 -1.5185
  540MOL0     O72768   2.911   9.794   9.075 -0.2688 -0.3487 -0.8937
  540MOL0     C72769   2.961   9.918   9.039 -1.3325 -0.2125  0.4381
  540MOL0     C72770   3.088   9.957   9.011  0.1431 -0.1283  0.6416
  540MOL0     C72771   3.114  10.083   8.961 -0.1477  0.1857 -0.0935
  540MOL0     C72772   3.015  10.188   8.956 -0.5050 -0.4406  0.4884
  540MOL0     O72773   3.048  10.307   8.895  0.8332  0.1920 -0.1626
  540MOL0     C72774   2.943  10.405   8.872  1.2107  0.0840  0.5588
  540MOL0     C72775   3.010  10.527   8.812 -0.8207  1.0032 -1.1162
  540MOL0     C72776   3.075  10.493   8.683  0.1547  0.3329  0.6663
  540MOL0     C72777   3.147  10.617   8.638  0.6574 -0.4627 -0.1458
  540MOL0     C72778   3.205  10.600   8.496  0.3763  0.2249  0.5369
  540MOL0     C72779   3.085  10.606   8.399  0.0657 -0.7455  1.2686
  540MOL0     C72780   3.140  10.601   8.256 -0.8759  0.5033  0.3094
  540MOL0     C72781   3.199  10.738   8.210 -0.1626 -0.8065 -0.5118
  540MOL0     N72782   3.263  10.718   8.080  0.2908  1.1441 -0.5625
  540MOL0     C72783   3.210  10.707   7.953  0.7456  0.1043  0.3028
  540MOL0     C72784   3.305  10.659   7.879 -0.6990 -0.1821  1.1472
  540MOL0     C72785   3.302  10.629   7.729  0.1045 -0.0282  1.2049
  540MOL0     C72786   3.328  10.482   7.680  0.0159  0.9032  0.7185
  540MOL0     C72787   3.245  10.372   7.738  0.3300 -0.4470  0.2062
  540MOL0     C72788   3.092  10.409   7.732 -0.3106 -0.9534  0.0825
  540MOL0     O72789   3.008  10.287   7.720 -0.5623  0.4096 -0.0678
  540MOL0     C72790   2.873  10.319   7.751  0.4009  0.3470 -1.0430
  540MOL0     C72791   2.783  10.342   7.653 -0.0164  0.2176 -0.7637
  540MOL0     C72792   2.645  10.328   7.675  0.0738 -0.7650  0.6096
  540MOL0     C72793   2.553  10.334   7.556 -0.2465 -0.3153  0.0192
  540MOL0     C72794   2.600  10.292   7.802  0.4437  1.3688  0.7885
  540MOL0     C72795   2.449  10.283   7.837 -0.3783  0.6359  0.4779
  540MOL0     O72796   2.409  10.208   7.949 -0.3254  0.0276  0.0416
  540MOL0     C72797   2.274  10.197   7.978 -0.2556 -0.8884 -0.3371
  540MOL0     C72798   2.202  10.088   7.922 -0.5102 -0.5080  0.5400
  540MOL0     C72799   2.067  10.090   7.942  0.0296  0.2621  0.4513
  540MOL0     C72800   2.005  10.184   8.029  0.0425  0.4015 -0.2179
  540MOL0     O72801   1.869  10.179   8.049 -0.3902 -0.4381  0.1713
  540MOL0     C72802   1.815  10.059   8.113 -0.1221 -0.9669  0.1471
  540MOL0     C72803   1.662  10.063   8.113  0.5729  0.8463  0.4664
  540MOL0     C72804   1.610  10.009   7.975  0.0501  0.1051  0.6492
  540MOL0     C72805   1.464  10.052   7.958  0.0876 -0.2681 -0.6272
  540MOL0     C72806   1.396  10.032   7.816 -0.0762  0.3629 -0.7581
  540MOL0     C72807   1.454  10.145   7.733  0.2921 -0.4497  0.2678
  540MOL0     C72808   1.394  10.127   7.592 -0.3296  0.6269 -0.5609
  540MOL0     C72809   1.417  10.250   7.517 -0.6606  0.1220 -0.2051
  540MOL0    Cl72810   1.590  10.289   7.498 -0.3167  0.2408 -0.1947
  540MOL0     C72811   2.075  10.298   8.065  0.0449  0.2926 -0.4836
  540MOL0     C72812   2.207  10.303   8.038 -0.5668  0.0454  0.1637
  540MOL0     O72813   2.372  10.341   7.763 -0.8066 -0.1643 -0.1213
  540MOL0     C72814   2.689  10.278   7.903  0.2998 -0.0431 -0.0083
  540MOL0     C72815   2.829  10.282   7.878  0.3790 -0.1413 -0.2382
  540MOL0     N72816   3.421  10.643   7.952  0.6275 -0.0425 -0.0795
  540MOL0     N72817   3.397  10.686   8.069 -0.2172 -0.0805  0.0117
  540MOL0     C72818   2.890  10.136   8.992 -0.2330  0.0981 -0.4626
  540MOL0     C72819   2.863  10.012   9.025 -1.0369  0.1433 -0.4886
  540MOL0     C72820   2.837   9.674   9.273  0.8276  0.4121  0.5804
  540MOL0     C72821   2.700   9.665   9.232  0.8764  0.8050  0.0987
  540MOL0     C72822   2.614   9.592   9.317 -0.0218 -1.1911  0.7092
  540MOL0     C72823   2.650   9.539   9.433  0.0316  1.2203  0.2178
  540MOL0     O72824   2.565   9.482   9.529  0.6025 -0.4950  0.1060
  540MOL0     C72825   2.508   9.355   9.494 -0.3435 -0.0956  0.2522
  540MOL0     C72826   2.538   9.252   9.594  0.5626  0.2327  0.5738
  540MOL0     C72827   2.459   9.124   9.569  0.2989 -0.6587 -0.0485
  540MOL0     C72828   2.407   9.049   9.694  0.4173  0.3866  0.0563
  540MOL0     C72829   2.489   9.039   9.813  0.5460  0.7683 -0.5481
  540MOL0     C72830   2.560   9.035   9.909  0.0430 -0.1892  0.0488
  540MOL0     C72831   2.779   9.554   9.470 -0.3880 -0.3374 -1.0105
  540MOL0     C72832   2.877   9.604   9.385 -1.0891 -0.9508 -0.1965
  540MOL0     H72833   3.162   9.880   8.990  0.5803  0.8657 -1.7651
  540MOL0     H72834   3.218  10.113   8.950  0.8001 -2.5081  0.7630
  540MOL0     H72835   2.868  10.377   8.797  0.3674 -0.6661  1.6575
  540MOL0     H72836   2.895  10.448   8.960 -0.6351  0.3159 -0.5088
  540MOL0     H72837   2.937  10.604   8.785 -2.0350 -0.8662 -3.6513
  540MOL0     H72838   3.076  10.569   8.887  0.1956  1.9257 -2.4862
  540MOL0     H72839   3.137  10.404   8.687  0.4766  0.5949  1.6391
  540MOL0     H72840   2.989  10.485   8.615 -0.2176 -2.6693  1.3394
  540MOL0     H72841   3.078  10.701   8.633 -0.0051 -0.6907  3.1987
  540MOL0     H72842   3.234  10.639   8.701  2.5912 -3.1808 -1.6465
  540MOL0     H72843   3.275  10.680   8.469 -1.2329  2.0430  1.5256
  540MOL0     H72844   3.248  10.500   8.489 -2.2625 -0.8973 -1.3230
  540MOL0     H72845   3.022  10.518   8.410  3.8408 -4.0920 -1.2268
  540MOL0     H72846   3.028  10.698   8.416  0.2410  0.0742 -1.9479
  540MOL0     H72847   3.230  10.538   8.262 -0.2560  1.3995  0.6154
  540MOL0     H72848   3.060  10.566   8.190  0.0318 -2.4234  0.6302
  540MOL0     H72849   3.271  10.754   8.290 -0.8873 -4.6191  1.0973
  540MOL0     H72850   3.122  10.814   8.192  1.3150  2.4837  4.9356
  540MOL0     H72851   3.116  10.742   7.913  0.4312 -1.2984 -0.2707
  540MOL0     H72852   3.217  10.670   7.674  1.5081  1.8287  0.2896
  540MOL0     H72853   3.385  10.676   7.675 -1.4119  0.8909 -0.4314
  540MOL0     H72854   3.434  10.459   7.691  0.1548  0.2873 -1.4131
  540MOL0     H72855   3.304  10.482   7.573 -2.8903  1.8341  1.2886
  540MOL0     H72856   3.271  10.358   7.844  3.8886  0.4678 -0.4057
  540MOL0     H72857   3.259  10.273   7.694  5.1422  0.0936 -0.0197
  540MOL0     H72858   3.079  10.473   7.644 -0.2825  0.2453  0.9320
  540MOL0     H72859   3.075  10.467   7.823  3.3470  0.1435  0.2032
  540MOL0     H72860   2.836  10.372   7.564  1.0180 -0.0141 -0.2420
  540MOL0     H72861   2.481  10.415   7.566 -0.7319 -0.9918  3.2162
  540MOL0     H72862   2.621  10.362   7.475 -1.4193 -1.1385 -1.3046
  540MOL0     H72863   2.504  10.239   7.533 -0.2228 -0.4070  0.3405
  540MOL0     H72864   2.265  10.019   7.867  0.2823 -0.9524  1.9444
  540MOL0     H72865   2.010  10.015   7.887  0.2643 -1.2780  2.2028
  540MOL0     H72866   1.851   9.967   8.066  0.7875 -0.1443 -0.8299
  540MOL0     H72867   1.842  10.055   8.219 -1.6111 -2.0340  0.5185
  540MOL0     H72868   1.635  10.004   8.201  0.7676 -0.3645 -0.2598
  540MOL0     H72869   1.631  10.166   8.136 -1.2160  0.3783  0.2896
  540MOL0     H72870   1.626   9.904   7.950  1.2805  1.1425 -3.6460
  540MOL0     H72871   1.674  10.065   7.907 -0.8242  1.4439  0.9000
  540MOL0     H72872   1.407   9.998   8.034 -0.9096 -3.0654 -3.1201
  540MOL0     H72873   1.475  10.156   7.988 -2.1448  0.0540 -0.7235
  540MOL0     H72874   1.288  10.041   7.827  0.0647  4.2995 -1.2558
  540MOL0     H72875   1.412   9.941   7.758 -1.0198  1.6051 -3.1125
  540MOL0     H72876   1.433  10.244   7.776  3.6766 -0.2007  1.6048
  540MOL0     H72877   1.561  10.123   7.728  0.2002 -1.4689  1.9228
  540MOL0     H72878   1.289  10.096   7.601 -1.2523  3.0765 -1.8452
  540MOL0     H72879   1.443  10.040   7.549  1.6321  0.3520  1.9808
  540MOL0     H72880   1.359  10.325   7.572  1.7785  1.2792  0.9166
  540MOL0     H72881   1.366  10.252   7.420 -3.0988  1.5172  0.9920
  540MOL0     H72882   2.024  10.376   8.121 -3.0206 -2.1718  0.4564
  540MOL0     H72883   2.270  10.387   8.065  0.2860 -0.4037 -0.3943
  540MOL0     H72884   2.650  10.258   8.002 -0.1683  1.2768  0.0900
  540MOL0     H72885   2.898  10.254   7.957 -2.0766 -1.4727  1.5689
  540MOL0     H72886   2.803  10.201   8.991  0.3166  1.1856 -5.5164
  540MOL0     H72887   2.767   9.987   9.067 -0.8361 -0.2794 -0.2738
  540MOL0     H72888   2.659   9.707   9.141 -1.6479 -0.5114  0.5288
  540MOL0     H72889   2.506   9.594   9.306  0.1276  0.6885 -1.0631
  540MOL0     H72890   2.400   9.373   9.491  0.3171  5.7002 -0.4433
  540MOL0     H72891   2.558   9.333   9.399 -0.1649  3.1494 -0.5150
  540MOL0     H72892   2.509   9.292   9.692 -0.9422 -0.1481  0.3206
  540MOL0     H72893   2.645   9.237   9.611  0.0906 -0.8200  3.1250
  540MOL0     H72894   2.522   9.055   9.511 -0.4115 -0.9727 -0.4589
  540MOL0     H72895   2.377   9.147   9.501  0.7295 -0.9159 -0.6641
  540MOL0     H72896   2.384   8.946   9.666  2.6677  0.1229 -1.0227
  540MOL0     H72897   2.308   9.091   9.713 -0.3538  1.3888 -4.8480
  540MOL0     H72898   2.600   9.037  10.009 -2.3859  0.0848  1.0908
  540MOL0     H72899   2.805   9.513   9.567  5.2106  2.0596 -1.1253
  540MOL0     H72900   2.976   9.612   9.429 -0.2909  1.7573 -2.2340
  541MOL0     O72901   2.056   8.977   9.425  0.5796  0.1690 -0.4480
  541MOL0     C72902   2.049   9.037   9.535 -0.2595  0.1599  0.2447
  541MOL0     O72903   2.026   8.987   9.664 -0.0580  0.0517 -0.1915
  541MOL0     C72904   2.016   8.848   9.667  0.3880  1.6170 -0.6327
  541MOL0     C72905   2.106   8.759   9.609  0.0178 -0.4343  0.5407
  541MOL0     C72906   2.093   8.623   9.611 -0.0256 -0.1498  0.8257
  541MOL0     C72907   1.998   8.564   9.675 -0.3698  0.3407 -0.2360
  541MOL0     O72908   1.995   8.432   9.654 -0.2569  0.4411  0.2781
  541MOL0     C72909   1.870   8.360   9.666  0.3331  0.2761 -0.3346
  541MOL0     C72910   1.845   8.262   9.552  0.1016  0.5968 -0.5543
  541MOL0     C72911   1.717   8.186   9.573  0.0363  0.8372  1.0465
  541MOL0     C72912   1.731   8.044   9.534 -0.1615  1.2243 -0.1027
  541MOL0     C72913   1.603   7.973   9.474  0.1887 -0.5289 -0.2877
  541MOL0     C72914   1.601   7.821   9.434 -0.3450  0.3062  0.6172
  541MOL0     C72915   1.445   7.772   9.431 -0.5911 -0.3568  0.3667
  541MOL0     C72916   1.394   7.779   9.291 -0.1587 -1.0715 -0.1537
  541MOL0     N72917   1.259   7.730   9.262 -0.0322  0.0121  0.1679
  541MOL0     C72918   1.215   7.602   9.296  0.1825  0.1269 -0.1951
  541MOL0     C72919   1.079   7.606   9.253 -0.4754 -0.1044 -0.2510
  541MOL0     C72920   0.991   7.494   9.254  0.0094  0.2595  1.0304
  541MOL0     C72921   0.953   7.446   9.108 -0.0023  0.5681 -0.2112
  541MOL0     C72922   0.883   7.311   9.108 -0.2032 -0.4715  0.6630
  541MOL0     C72923   0.844   7.277   8.963 -1.2201  0.0550 -0.5866
  541MOL0     O72924   0.955   7.248   8.882  0.1352  0.9634 -0.0502
  541MOL0     C72925   0.930   7.182   8.757  0.4826  0.0650 -0.2662
  541MOL0     C72926   1.039   7.154   8.669  0.2328  0.5577 -0.3596
  541MOL0     C72927   1.015   7.088   8.544 -0.3662  0.9163 -0.0659
  541MOL0     C72928   1.138   7.042   8.478 -0.5361 -0.0192  0.1480
  541MOL0     C72929   0.882   7.062   8.499  1.2112  0.3936  0.0727
  541MOL0     C72930   0.841   7.006   8.369 -0.7465  0.1530 -0.1556
  541MOL0     O72931   0.734   6.927   8.366  0.4268 -0.2309 -0.6662
  541MOL0     C72932   0.696   6.873   8.242 -1.0993 -0.0972  0.2142
  541MOL0     C72933   0.751   6.758   8.183 -0.0917  0.7033  0.0653
  541MOL0     C72934   0.715   6.720   8.054  0.8657  0.3900 -1.0609
  541MOL0     C72935   0.619   6.794   7.973  0.0136  0.3614  1.0689
  541MOL0     O72936   0.587   6.750   7.841 -0.7543  0.6263 -0.3665
  541MOL0     C72937   0.489   6.814   7.768  0.3382  0.4010 -0.6645
  541MOL0     C72938   0.485   6.760   7.623 -0.5174 -0.2122  0.1795
  541MOL0     C72939   0.437   6.844   7.514  0.0794 -0.0586  0.0880
  541MOL0     C72940   0.295   6.815   7.467  1.0294 -0.1789 -0.3231
  541MOL0     C72941   0.184   6.859   7.582  0.8317  0.8706  0.9401
  541MOL0     C72942   0.037   6.865   7.531 -0.3356 -0.3285  0.3406
  541MOL0     C72943   0.025   6.996   7.458  0.2462 -0.6320  0.3052
  541MOL0     C72944  -0.121   7.011   7.408 -0.0042 -0.1971  0.2204
  541MOL0    Cl72945  -0.148   6.876   7.294  0.3498  0.7414  0.4128
  541MOL0     C72946   0.548   6.894   8.038 -0.6666 -0.0530 -1.0971
  541MOL0     C72947   0.595   6.928   8.170  0.0218 -0.2976  0.2868
  541MOL0     O72948   0.907   7.036   8.266 -1.0073 -0.0107 -0.2485
  541MOL0     C72949   0.775   7.095   8.587 -0.4454 -0.9422  0.5992
  541MOL0     C72950   0.798   7.152   8.712  0.2296  0.3550  0.1251
  541MOL0     N72951   1.048   7.731   9.186 -0.4576  0.1069  0.0586
  541MOL0     N72952   1.159   7.796   9.204 -0.1541  0.0093  0.0678
  541MOL0     C72953   1.909   8.634   9.748  0.1336  0.5071 -0.5953
  541MOL0     C72954   1.911   8.778   9.736  1.2980  0.2717  0.5431
  541MOL0     C72955   2.079   9.181   9.513  0.5505 -0.6734 -0.1942
  541MOL0     C72956   2.092   9.268   9.627  0.4963  0.0871 -0.2963
  541MOL0     C72957   2.135   9.402   9.614 -0.1331  0.2295  0.1483
  541MOL0     C72958   2.155   9.459   9.485  1.1147  1.2123  0.2782
  541MOL0     O72959   2.206   9.585   9.469 -0.4103 -0.0256 -0.1416
  541MOL0     C72960   2.236   9.667   9.585 -0.7741 -1.0045  0.9537
  541MOL0     C72961   2.264   9.810   9.529  1.0991 -0.7949 -0.8608
  541MOL0     C72962   2.414   9.815   9.514 -0.5009 -0.3997  0.1150
  541MOL0     C72963   2.466   9.964   9.515 -0.6091 -0.2829  0.0685
  541MOL0     C72964   2.606   9.961   9.485  0.7789 -0.7879 -0.2286
  541MOL0     C72965   2.719   9.954   9.449 -0.8761 -0.2299 -0.1901
  541MOL0     C72966   2.138   9.369   9.375  1.0538 -0.7623 -1.5264
  541MOL0     C72967   2.102   9.241   9.388 -0.8638 -0.2446  0.1532
  541MOL0     H72968   2.189   8.808   9.558 -0.5488 -2.1980 -2.3062
  541MOL0     H72969   2.172   8.570   9.558 -1.5643 -1.2492 -0.4532
  541MOL0     H72970   1.873   8.314   9.765 -1.2847  3.6158  1.4546
  541MOL0     H72971   1.786   8.431   9.669  1.3086  1.5294  3.5377
  541MOL0     H72972   1.819   8.322   9.464 -3.2995  0.7540  0.4270
  541MOL0     H72973   1.931   8.198   9.528  0.0881  0.9127 -1.5317
  541MOL0     H72974   1.689   8.195   9.679  1.2998  1.7255  1.3389
  541MOL0     H72975   1.638   8.231   9.513 -0.8821  0.0356  1.6320
  541MOL0     H72976   1.807   8.023   9.458  1.8123 -1.9772  2.5061
  541MOL0     H72977   1.767   7.991   9.622 -2.4719 -0.7405 -0.2311
  541MOL0     H72978   1.529   7.981   9.554  1.7724  1.2962  1.0714
  541MOL0     H72979   1.558   8.021   9.386  0.7754 -1.2450 -0.9969
  541MOL0     H72980   1.645   7.802   9.336 -1.9167  2.6529 -0.6546
  541MOL0     H72981   1.657   7.769   9.512  1.1126 -0.6917 -1.0340
  541MOL0     H72982   1.442   7.667   9.464 -1.4633 -1.2772 -2.4157
  541MOL0     H72983   1.380   7.834   9.494 -1.1501 -0.3068 -0.2553
  541MOL0     H72984   1.456   7.723   9.219 -1.8713 -2.6995 -0.4488
  541MOL0     H72985   1.393   7.887   9.273 -1.4075 -0.9355  0.5856
  541MOL0     H72986   1.272   7.525   9.346  1.1526  1.6406  1.1305
  541MOL0     H72987   1.046   7.420   9.311  0.9682  0.4073  0.3185
  541MOL0     H72988   0.896   7.532   9.294 -1.2271 -2.0871  0.5194
  541MOL0     H72989   1.040   7.439   9.041 -0.3439  0.4181 -0.6455
  541MOL0     H72990   0.894   7.523   9.058  0.7751  1.6033  0.4152
  541MOL0     H72991   0.800   7.306   9.179  0.5842 -0.1204  1.6400
  541MOL0     H72992   0.951   7.235   9.146  3.5506  1.3900 -1.7446
  541MOL0     H72993   0.781   7.352   8.914 -0.4102 -0.6595 -2.8366
  541MOL0     H72994   0.779   7.189   8.964 -2.4294  0.8712  2.1532
  541MOL0     H72995   1.136   7.182   8.708  0.8933 -1.3765 -0.5034
  541MOL0     H72996   1.220   7.026   8.548 -2.1948 -1.5548  1.8604
  541MOL0     H72997   1.124   6.945   8.430 -0.3781 -0.4586  0.9662
  541MOL0     H72998   1.163   7.118   8.403 -2.8808  1.8399  1.1345
  541MOL0     H72999   0.815   6.695   8.244 -1.5230 -0.5905  0.2867
  541MOL0     H73000   0.756   6.625   8.022  3.1929  1.0879 -0.3336
  541MOL0     H73001   0.393   6.781   7.810  1.9703 -3.4447  0.5122
  541MOL0     H73002   0.498   6.923   7.762 -0.3080  0.3986 -2.6029
  541MOL0     H73003   0.587   6.741   7.588 -0.9994  0.3272 -1.6203
  541MOL0     H73004   0.435   6.663   7.625  0.6315 -0.8675 -1.5024
  541MOL0     H73005   0.502   6.830   7.427 -0.7441 -2.5656 -0.2161
  541MOL0     H73006   0.451   6.949   7.540 -2.4051  0.2872  0.2215
  541MOL0     H73007   0.277   6.874   7.377 -0.6801 -2.4827 -1.6190
  541MOL0     H73008   0.285   6.713   7.428  2.3330 -1.1318  1.6627
  541MOL0     H73009   0.214   6.961   7.606  1.4796  1.8178 -3.0924
  541MOL0     H73010   0.207   6.792   7.664 -0.0909 -0.1176  0.4226
  541MOL0     H73011   0.018   6.788   7.455  0.4402 -0.1173 -0.0900
  541MOL0     H73012  -0.037   6.861   7.611 -1.1451 -1.3320 -0.4204
  541MOL0     H73013   0.092   7.003   7.371 -0.2203 -2.3624 -0.2195
  541MOL0     H73014   0.039   7.080   7.527  0.7550 -1.4134  1.1605
  541MOL0     H73015  -0.130   7.104   7.351  2.0160  0.4295  0.8128
  541MOL0     H73016  -0.188   7.006   7.495  2.0260 -2.6468  1.7988
  541MOL0     H73017   0.465   6.950   7.996 -1.2099 -1.2945 -1.7388
  541MOL0     H73018   0.552   7.016   8.217  0.6980  0.6394 -0.7780
  541MOL0     H73019   0.668   7.096   8.567 -0.2727  1.4308 -0.6028
  541MOL0     H73020   0.711   7.174   8.773 -0.2823 -0.8179 -0.1502
  541MOL0     H73021   1.817   8.598   9.793 -0.2667  0.7467 -1.1953
  541MOL0     H73022   1.836   8.832   9.793 -0.5801 -2.0515  0.4123
  541MOL0     H73023   2.069   9.225   9.724  0.5163 -1.7044 -1.0488
  541MOL0     H73024   2.149   9.459   9.704 -3.0829  2.2072 -0.4989
  541MOL0     H73025   2.150   9.667   9.652 -0.3035  2.6606  1.7422
  541MOL0     H73026   2.323   9.621   9.633  3.1855  3.5264 -1.0695
  541MOL0     H73027   2.241   9.889   9.602  3.2967 -0.4081 -0.4949
  541MOL0     H73028   2.211   9.825   9.434  2.8517 -1.8225 -2.0571
  541MOL0     H73029   2.434   9.778   9.414 -0.9832  3.8416 -1.7746
  541MOL0     H73030   2.479   9.751   9.574  1.7274  2.7197  1.3457
  541MOL0     H73031   2.448  10.004   9.615 -2.0167 -1.8455  0.4954
  541MOL0     H73032   2.420  10.020   9.432 -3.5600 -2.3107  0.1881
  541MOL0     H73033   2.821   9.963   9.419 -1.5870  3.6439 -2.1718
  541MOL0     H73034   2.155   9.414   9.278  0.0810  3.4274  0.0336
  541MOL0     H73035   2.110   9.178   9.300 -0.0798  0.0923 -0.0284
  542MOL0     O73036   8.052   4.083   0.708  0.0637 -0.4595 -0.3724
  542MOL0     C73037   7.972   4.006   0.640  0.0915 -0.0282 -0.8863
  542MOL0     O73038   7.916   3.889   0.678 -0.7483  0.3145 -0.2061
  542MOL0     C73039   7.926   3.859   0.815 -0.0186  0.0184 -0.2832
  542MOL0     C73040   7.810   3.816   0.879  0.2548 -0.5426  1.2740
  542MOL0     C73041   7.805   3.801   1.017  0.3663 -0.4443 -0.4177
  542MOL0     C73042   7.927   3.804   1.087 -0.4656  0.5253 -0.3160
  542MOL0     O73043   7.926   3.774   1.221 -0.5407  0.8276  0.1735
  542MOL0     C73044   8.036   3.788   1.324 -0.6495 -0.4729 -0.3536
  542MOL0     C73045   7.984   3.881   1.440 -0.1330 -0.2751  0.3402
  542MOL0     C73046   8.086   3.922   1.548 -0.0441 -0.6452  1.0644
  542MOL0     C73047   8.197   4.013   1.481 -0.5987  0.0540  0.4392
  542MOL0     C73048   8.302   4.028   1.594  0.3920  0.0332 -0.1456
  542MOL0     C73049   8.389   4.148   1.562 -0.3134 -0.3595  1.2216
  542MOL0     C73050   8.408   4.226   1.693 -0.8347  1.0085  0.0382
  542MOL0     C73051   8.498   4.147   1.793  0.0809  0.2779  0.3239
  542MOL0     N73052   8.547   4.230   1.908 -0.6961 -0.5357  0.5403
  542MOL0     C73053   8.501   4.352   1.949 -0.6613 -0.4372 -0.5306
  542MOL0     C73054   8.591   4.389   2.043 -0.4500  0.1566 -0.3298
  542MOL0     C73055   8.575   4.504   2.139  0.3487 -0.1794 -0.2411
  542MOL0     C73056   8.678   4.615   2.113  0.4118 -0.0638 -0.4260
  542MOL0     C73057   8.697   4.647   1.976 -0.2793  0.1130  0.2422
  542MOL0     C73058   8.597   4.740   1.915 -0.3850 -0.4456 -0.1519
  542MOL0     O73059   8.653   4.790   1.798  0.7590 -0.0225  0.8017
  542MOL0     C73060   8.665   4.706   1.688  0.7102 -0.0554  0.4268
  542MOL0     C73061   8.790   4.694   1.629 -0.8581  0.0619  0.2051
  542MOL0     C73062   8.801   4.615   1.505  1.0888 -0.0914  0.0471
  542MOL0     C73063   8.935   4.617   1.437 -0.0103 -0.4853 -0.3247
  542MOL0     C73064   8.688   4.556   1.445  0.3564  0.5957  0.7522
  542MOL0     C73065   8.689   4.466   1.324  0.4746 -1.0078 -0.6521
  542MOL0     O73066   8.764   4.492   1.212 -0.1189  0.3725 -0.1448
  542MOL0     C73067   8.767   4.622   1.169  0.2842 -0.0499  0.1910
  542MOL0     C73068   8.668   4.724   1.188 -0.7371  0.8983  0.4913
  542MOL0     C73069   8.687   4.852   1.148 -0.2664 -0.7135  0.0886
  542MOL0     C73070   8.804   4.899   1.088 -0.3542  0.5791  0.1181
  542MOL0     O73071   8.814   5.019   1.041 -0.8444 -0.4872  0.9419
  542MOL0     C73072   8.901   5.048   0.934 -0.2570 -1.0912  0.7360
  542MOL0     C73073   8.953   5.202   0.947 -0.0948  0.1274 -0.5972
  542MOL0     C73074   9.014   5.245   0.817 -1.1449  0.4324 -0.9580
  542MOL0     C73075   9.053   5.390   0.849 -0.6405 -0.4331  0.3474
  542MOL0     C73076   9.082   5.466   0.720 -0.3281  0.0078  0.0301
  542MOL0     C73077   9.167   5.596   0.753 -0.8035  0.8524 -1.5026
  542MOL0     C73078   9.192   5.664   0.623  0.6163 -0.8451  0.6732
  542MOL0     C73079   9.076   5.747   0.582  0.5216 -1.1353 -1.1455
  542MOL0    Cl73080   9.041   5.856   0.711  0.2017 -0.1385  0.2063
  542MOL0     C73081   8.913   4.800   1.080  0.1310 -1.2985  0.0105
  542MOL0     C73082   8.892   4.669   1.127  0.0339  0.7690 -0.3195
  542MOL0     O73083   8.627   4.361   1.338 -0.1992  0.4868 -0.4662
  542MOL0     C73084   8.564   4.573   1.503  1.1854 -0.6150 -0.5880
  542MOL0     C73085   8.553   4.632   1.634  0.6509  0.6845  0.5257
  542MOL0     N73086   8.694   4.301   2.055  0.8929  1.0085  0.0400
  542MOL0     N73087   8.670   4.206   1.969  0.1892  0.4634 -0.8776
  542MOL0     C73088   8.047   3.832   1.021 -0.8191  0.3390  0.1603
  542MOL0     C73089   8.047   3.860   0.885 -0.3391  0.1952 -0.3552
  542MOL0     C73090   7.917   4.054   0.514 -0.8131 -1.1802 -0.2275
  542MOL0     C73091   7.786   4.084   0.496  0.5123  0.2470 -0.1748
  542MOL0     C73092   7.730   4.120   0.372 -0.3479  0.3732 -0.1481
  542MOL0     C73093   7.821   4.119   0.263  0.1703 -0.1825  0.2985
  542MOL0     O73094   7.769   4.127   0.136  0.6912  0.6088  0.4985
  542MOL0     C73095   7.719   4.260   0.098 -0.5757  0.7433 -0.1280
  542MOL0     C73096   7.709   4.253  -0.061 -0.3701 -0.0975  0.1519
  542MOL0     C73097   7.839   4.205  -0.139 -0.0884 -0.7257  1.0327
  542MOL0     C73098   7.951   4.299  -0.105 -0.1927  0.5942 -0.2366
  542MOL0     C73099   7.912   4.436  -0.127 -0.7884 -0.5749  0.3475
  542MOL0     C73100   7.887   4.543  -0.165 -0.0776 -0.8796  0.2809
  542MOL0     C73101   7.957   4.093   0.284  0.3869  0.0966 -0.5450
  542MOL0     C73102   8.007   4.061   0.406  0.0865  0.4455  0.5951
  542MOL0     H73103   7.720   3.823   0.817  0.7612 -2.4944  0.2274
  542MOL0     H73104   7.713   3.766   1.063  0.1967  0.6264  0.0874
  542MOL0     H73105   8.069   3.692   1.364  3.0057  0.9031  0.2816
  542MOL0     H73106   8.122   3.831   1.272 -1.9088 -0.5229 -2.6386
  542MOL0     H73107   7.930   3.962   1.389 -0.6788 -1.3096 -0.7861
  542MOL0     H73108   7.906   3.819   1.486 -0.4949  0.1792  0.3525
  542MOL0     H73109   8.034   3.976   1.628  1.5763  0.0547  1.7027
  542MOL0     H73110   8.119   3.834   1.603 -1.5099 -1.3948  0.7787
  542MOL0     H73111   8.243   3.965   1.395  0.1059 -1.6767  1.7214
  542MOL0     H73112   8.141   4.104   1.456 -2.7526 -1.9050 -2.5173
  542MOL0     H73113   8.245   4.028   1.688  1.5598  0.2201  0.5802
  542MOL0     H73114   8.362   3.938   1.610  1.1202 -0.0758 -3.0535
  542MOL0     H73115   8.485   4.122   1.517 -0.2459 -3.0208  2.7638
  542MOL0     H73116   8.337   4.209   1.487  2.2101  0.5742  0.0926
  542MOL0     H73117   8.463   4.319   1.675  3.1360 -0.9966  0.7183
  542MOL0     H73118   8.313   4.246   1.743 -0.2539 -1.8138  2.5357
  542MOL0     H73119   8.581   4.105   1.734 -0.0715  0.6434 -0.1542
  542MOL0     H73120   8.443   4.057   1.822 -1.6781  0.5238 -1.9481
  542MOL0     H73121   8.404   4.394   1.926 -1.0351 -1.8181 -1.6397
  542MOL0     H73122   8.483   4.561   2.130  1.5330  1.9142  0.2543
  542MOL0     H73123   8.583   4.453   2.236  3.9102 -2.2968 -1.4306
  542MOL0     H73124   8.769   4.586   2.166  0.5523  2.8919  1.1838
  542MOL0     H73125   8.642   4.696   2.177 -0.7327 -2.2728  1.9284
  542MOL0     H73126   8.716   4.564   1.907  0.0471 -0.1426  0.6366
  542MOL0     H73127   8.786   4.710   1.965  0.3431 -0.7412  0.2611
  542MOL0     H73128   8.570   4.824   1.980  0.9567 -1.0462  1.2312
  542MOL0     H73129   8.508   4.687   1.881 -1.2665  1.3319 -0.7564
  542MOL0     H73130   8.873   4.753   1.666 -0.2096  0.1028 -1.2418
  542MOL0     H73131   8.934   4.698   1.364  2.0137  1.1891  1.3674
  542MOL0     H73132   9.008   4.654   1.510 -0.4772  1.5185 -0.8237
  542MOL0     H73133   8.958   4.517   1.399  0.7252 -0.9955  1.3588
  542MOL0     H73134   8.572   4.693   1.229 -1.7244  3.1169 -0.0076
  542MOL0     H73135   8.606   4.924   1.153 -0.1775 -0.3835 -2.0756
  542MOL0     H73136   8.988   4.982   0.927  2.1371  1.4814  3.5827
  542MOL0     H73137   8.845   5.030   0.842 -0.5266  0.8182  0.4841
  542MOL0     H73138   8.863   5.262   0.964  0.3477  0.6405 -0.0280
  542MOL0     H73139   9.020   5.221   1.032 -0.9079  0.3493  0.0095
  542MOL0     H73140   8.939   5.245   0.737 -1.1793  1.3073 -0.9339
  542MOL0     H73141   9.097   5.181   0.788 -2.3966 -1.4161 -0.6645
  542MOL0     H73142   8.957   5.438   0.871 -1.2541 -1.9369  1.0929
  542MOL0     H73143   9.124   5.401   0.931 -1.9067  1.7105  1.2614
  542MOL0     H73144   8.984   5.485   0.675 -1.2182 -0.7060  1.5738
  542MOL0     H73145   9.149   5.405   0.659  1.5033 -0.2435  2.1568
  542MOL0     H73146   9.121   5.668   0.821  0.3863  2.6020 -2.4680
  542MOL0     H73147   9.258   5.558   0.801 -2.4304 -3.3298 -1.2665
  542MOL0     H73148   9.227   5.593   0.547 -0.2656 -2.1766  1.4771
  542MOL0     H73149   9.275   5.735   0.636  1.8006 -1.3412 -2.8251
  542MOL0     H73150   8.997   5.680   0.546  1.4690 -1.8456 -1.9544
  542MOL0     H73151   9.111   5.813   0.503 -0.7971  0.4954 -0.4262
  542MOL0     H73152   9.012   4.816   1.040 -1.3658  0.5801 -3.4295
  542MOL0     H73153   8.982   4.609   1.118  1.6168  2.6110  1.9738
  542MOL0     H73154   8.475   4.522   1.467  0.8730 -2.1311  2.0114
  542MOL0     H73155   8.451   4.628   1.671 -0.3389 -0.6024 -2.1058
  542MOL0     H73156   8.147   3.835   1.062  0.8635  0.3691 -3.4935
  542MOL0     H73157   8.142   3.882   0.838  1.7144 -1.3409  2.7252
  542MOL0     H73158   7.711   4.086   0.575 -0.1735  0.0148 -0.8030
  542MOL0     H73159   7.625   4.148   0.370 -0.2049  1.0071  0.6948
  542MOL0     H73160   7.630   4.282   0.158  1.8264 -0.6915  4.3424
  542MOL0     H73161   7.779   4.349   0.119  1.1247  0.4466 -3.0637
  542MOL0     H73162   7.665   4.340  -0.113 -2.8020  0.9703  3.6237
  542MOL0     H73163   7.636   4.172  -0.074 -0.9434  0.1990  1.4049
  542MOL0     H73164   7.815   4.204  -0.246 -1.3224  1.3132  1.2532
  542MOL0     H73165   7.872   4.103  -0.116  1.2042 -1.4736 -3.1436
  542MOL0     H73166   8.034   4.273  -0.172 -0.5906  1.5200 -1.1139
  542MOL0     H73167   7.979   4.278  -0.001 -2.0698 -1.5346 -0.0846
  542MOL0     H73168   7.886   4.643  -0.203 -0.4828 -0.9692  0.0621
  542MOL0     H73169   8.004   4.076   0.188  0.6423  1.1043 -0.6150
  542MOL0     H73170   8.110   4.029   0.413 -0.2901 -1.8448 -2.1938
  543MOL0     O73171   8.323  11.130  10.471 -0.4149 -0.6108  0.3558
  543MOL0     C73172   8.339  11.038  10.548  0.8610  0.2203  0.1925
  543MOL0     O73173   8.332  10.906  10.507  0.3373  0.9109 -0.3643
  543MOL0     C73174   8.251  10.873  10.394  0.4585  0.3351  0.5656
  543MOL0     C73175   8.136  10.931  10.357  0.1274 -1.2192 -0.4503
  543MOL0     C73176   8.061  10.879  10.257  1.0397  0.0122  0.8001
  543MOL0     C73177   8.089  10.761  10.196 -0.2551 -0.2240 -0.8876
  543MOL0     O73178   8.015  10.717  10.090 -0.9150  0.9853 -0.0636
  543MOL0     C73179   8.053  10.775   9.969  0.8153  0.1885  1.0462
  543MOL0     C73180   8.046  10.689   9.843 -0.5531 -0.2411 -0.6846
  543MOL0     C73181   8.154  10.580   9.833  0.2073  0.1161 -0.2686
  543MOL0     C73182   8.132  10.484   9.713 -0.5216  0.2771 -0.0360
  543MOL0     C73183   8.217  10.516   9.579 -0.4134  0.6705  0.4620
  543MOL0     C73184   8.165  10.446   9.448  0.9376 -0.1577  0.3376
  543MOL0     C73185   8.035  10.516   9.400 -0.5890  0.9080 -0.9966
  543MOL0     C73186   7.973  10.428   9.303 -0.0822 -0.8424 -0.1536
  543MOL0     N73187   8.021  10.445   9.166 -0.3077 -0.2964 -0.1835
  543MOL0     C73188   7.965  10.526   9.067  0.3707  0.2380 -0.3079
  543MOL0     C73189   8.015  10.491   8.953  0.3787 -0.2929  1.3299
  543MOL0     C73190   8.008  10.552   8.818 -0.4544 -0.3011  0.5035
  543MOL0     C73191   8.086  10.473   8.705 -0.8980 -0.8347 -0.7366
  543MOL0     C73192   8.050  10.541   8.569 -0.3333 -0.2301  0.0052
  543MOL0     C73193   8.117  10.476   8.450  0.3144 -0.6460 -0.1011
  543MOL0     O73194   8.058  10.357   8.441  0.4360  0.8347  0.1362
  543MOL0     C73195   8.008  10.300   8.320  0.0915 -0.1780  0.3418
  543MOL0     C73196   8.044  10.361   8.193  0.4216  0.0283  0.2041
  543MOL0     C73197   8.007  10.298   8.070 -0.4357 -0.5063 -0.2069
  543MOL0     C73198   8.048  10.358   7.943  0.1643  0.2052 -0.3539
  543MOL0     C73199   7.935  10.177   8.081 -0.4702 -0.4825 -0.9619
  543MOL0     C73200   7.873  10.101   7.961 -0.3522  0.1742  0.8169
  543MOL0     O73201   7.760  10.032   7.977 -0.2960  0.4805 -0.3592
  543MOL0     C73202   7.689   9.985   7.872 -0.1660 -0.4961  1.4408
  543MOL0     C73203   7.556  10.011   7.864  0.6437  0.0614 -0.6868
  543MOL0     C73204   7.471   9.939   7.770 -0.6667  0.0024 -0.1226
  543MOL0     C73205   7.532   9.848   7.686  0.1718 -0.4462  0.3044
  543MOL0     O73206   7.442   9.789   7.599  0.5542 -0.9692 -0.4124
  543MOL0     C73207   7.447   9.842   7.469 -0.6867  0.2506  0.6676
  543MOL0     C73208   7.407   9.721   7.371  1.2026 -0.0188 -0.0294
  543MOL0     C73209   7.524   9.627   7.347 -0.2627 -0.6236  0.0497
  543MOL0     C73210   7.523   9.501   7.421 -0.1418 -1.2883  0.7516
  543MOL0     C73211   7.661   9.449   7.416  0.1347  0.3378  0.4359
  543MOL0     C73212   7.693   9.372   7.278  0.1505 -0.0984  0.8203
  543MOL0     C73213   7.823   9.291   7.283  0.0395 -0.6430  0.3506
  543MOL0     C73214   7.863   9.253   7.137  0.0573  0.6256 -0.3898
  543MOL0    Cl73215   7.748   9.138   7.068  0.2746 -0.1745  0.1409
  543MOL0     C73216   7.661   9.816   7.701 -0.3889  0.5149 -0.0994
  543MOL0     C73217   7.746   9.882   7.792  0.5867 -0.5577 -1.1738
  543MOL0     O73218   7.921  10.121   7.851 -0.0928 -0.0971 -0.0280
  543MOL0     C73219   7.890  10.126   8.205  0.5925 -1.5474 -0.0229
  543MOL0     C73220   7.925  10.186   8.326  0.2393  0.3154  0.9125
  543MOL0     N73221   8.091  10.377   8.973  0.4237  0.0126  0.0312
  543MOL0     N73222   8.097  10.359   9.104  0.5677  0.4380  0.3425
  543MOL0     C73223   8.208  10.692  10.239 -0.3377  0.5741 -0.4161
  543MOL0     C73224   8.295  10.747  10.331 -0.1059 -0.1575 -0.4199
  543MOL0     C73225   8.349  11.060  10.693 -0.6806 -0.5228  0.2146
  543MOL0     C73226   8.421  10.967  10.779 -0.5250  0.7494 -0.1527
  543MOL0     C73227   8.424  10.991  10.913 -0.3849 -0.4223 -1.2323
  543MOL0     C73228   8.352  11.101  10.974 -0.8420  0.1469 -0.0765
  543MOL0     O73229   8.355  11.118  11.114 -0.0681  0.2181  0.4092
  543MOL0     C73230   8.404  11.005  11.204  0.2653 -0.7029  0.5968
  543MOL0     C73231   8.549  11.034  11.248 -0.3338  0.7223 -0.4936
  543MOL0     C73232   8.547  11.127  11.364 -0.4381  0.8775 -0.0067
  543MOL0     C73233   8.690  11.167  11.408 -0.3398 -0.0354 -0.4099
  543MOL0     C73234   8.679  11.262  11.517  0.5188  0.0626  0.3584
  543MOL0     C73235   8.652  11.346  11.606  0.7905 -0.5326  0.0213
  543MOL0     C73236   8.286  11.188  10.886  1.1263 -0.0232 -0.3149
  543MOL0     C73237   8.284  11.177  10.745  0.5225  0.3068 -0.3593
  543MOL0     H73238   8.097  11.021  10.405  0.2233 -0.1880 -2.2116
  543MOL0     H73239   7.974  10.937  10.228  0.8613 -0.4325  0.4335
  543MOL0     H73240   7.977  10.852   9.954  2.6785  1.6497 -2.0466
  543MOL0     H73241   8.153  10.818   9.960  1.4565 -1.0049  2.1562
  543MOL0     H73242   7.947  10.654   9.813 -0.7701  0.7767 -1.1910
  543MOL0     H73243   8.071  10.758   9.762  1.5181 -0.3125 -0.1706
  543MOL0     H73244   8.253  10.621   9.812  0.0640  0.6746  0.1276
  543MOL0     H73245   8.176  10.520   9.922  1.2703 -3.6399 -2.8199
  543MOL0     H73246   8.161  10.384   9.746 -0.9883 -0.1629 -0.9366
  543MOL0     H73247   8.025  10.477   9.689  0.2009 -1.1447 -3.2800
  543MOL0     H73248   8.229  10.624   9.574  0.4018  1.1861  6.5095
  543MOL0     H73249   8.321  10.483   9.596 -0.2817  0.6143 -0.3931
  543MOL0     H73250   8.246  10.467   9.377  1.0089  0.1643  0.5102
  543MOL0     H73251   8.151  10.343   9.481  2.0026  0.4934  3.1101
  543MOL0     H73252   7.964  10.530   9.481  1.2172  1.9877  0.4746
  543MOL0     H73253   8.059  10.609   9.349 -1.2054 -0.3423 -3.7922
  543MOL0     H73254   7.866  10.451   9.295  0.1638  0.0439 -1.0110
  543MOL0     H73255   7.989  10.325   9.336  1.2864  0.1832  2.6710
  543MOL0     H73256   7.901  10.611   9.087  3.6204  2.1751  3.0771
  543MOL0     H73257   7.900  10.544   8.797  0.1334 -2.0112 -2.4067
  543MOL0     H73258   8.043  10.655   8.823  1.5822 -0.9411  0.4268
  543MOL0     H73259   8.059  10.367   8.706 -0.2197 -1.1175  3.3833
  543MOL0     H73260   8.192  10.494   8.726 -1.2115  0.7006 -0.5708
  543MOL0     H73261   8.079  10.647   8.575  1.5356 -0.7659  1.2346
  543MOL0     H73262   7.941  10.539   8.563 -0.2780  0.1175 -2.1009
  543MOL0     H73263   8.223  10.455   8.466  0.1139 -0.3147  1.7919
  543MOL0     H73264   8.095  10.530   8.357  0.9085  1.8783  1.1259
  543MOL0     H73265   8.097  10.454   8.173 -0.2548  0.4652  0.3992
  543MOL0     H73266   7.969  10.357   7.867  0.5585 -0.2804 -0.7723
  543MOL0     H73267   8.077  10.463   7.954 -0.8087  0.3102  1.4841
  543MOL0     H73268   8.138  10.301   7.916  1.1934  0.3036  2.5814
  543MOL0     H73269   7.522  10.088   7.934  2.0969 -1.3214  1.6699
  543MOL0     H73270   7.364   9.952   7.758 -0.7459  0.1756  0.6956
  543MOL0     H73271   7.374   9.922   7.458 -0.4537  0.2429 -1.5309
  543MOL0     H73272   7.543   9.893   7.453 -1.3030  2.3276  3.0601
  543MOL0     H73273   7.324   9.666   7.417  1.4321  2.2244  3.4132
  543MOL0     H73274   7.372   9.770   7.280 -0.7629  1.4088  1.3892
  543MOL0     H73275   7.609   9.690   7.376  1.1491 -1.3249 -2.2965
  543MOL0     H73276   7.548   9.615   7.241  1.9322  1.6401  0.2039
  543MOL0     H73277   7.497   9.528   7.524 -2.5957  2.7751 -0.7024
  543MOL0     H73278   7.442   9.434   7.390 -0.1701 -0.2938 -1.5064
  543MOL0     H73279   7.653   9.381   7.501 -0.6187 -0.8296 -0.5385
  543MOL0     H73280   7.734   9.526   7.441 -2.5209  3.6201 -1.1968
  543MOL0     H73281   7.616   9.297   7.263 -2.6408  2.6341  0.5265
  543MOL0     H73282   7.700   9.441   7.194 -0.2442  1.3834  1.9648
  543MOL0     H73283   7.807   9.208   7.352 -2.6386 -1.0311 -0.6191
  543MOL0     H73284   7.887   9.368   7.326 -0.5968  0.3808 -0.4693
  543MOL0     H73285   7.960   9.202   7.139 -0.0066  0.5399  0.6993
  543MOL0     H73286   7.888   9.341   7.076  0.3667  0.7383 -0.1003
  543MOL0     H73287   7.702   9.750   7.626  3.3604  0.8978  1.3523
  543MOL0     H73288   7.851   9.858   7.805  0.4351 -1.1398 -0.9823
  543MOL0     H73289   7.829  10.036   8.202  0.7645 -1.6423 -0.9594
  543MOL0     H73290   7.894  10.139   8.419 -2.0609 -1.8275 -0.8088
  543MOL0     H73291   8.245  10.603  10.189  0.8702  0.4444  0.6468
  543MOL0     H73292   8.388  10.701  10.362  0.0548  0.3795 -0.0932
  543MOL0     H73293   8.473  10.882  10.738 -2.1015 -0.2601 -0.1489
  543MOL0     H73294   8.486  10.926  10.974 -0.3518  2.0753  1.6442
  543MOL0     H73295   8.333  11.016  11.287 -2.9459  4.1372 -2.2603
  543MOL0     H73296   8.389  10.905  11.164 -1.0155 -0.4859  0.4821
  543MOL0     H73297   8.597  11.081  11.162 -0.3722 -0.1337 -0.9937
  543MOL0     H73298   8.588  10.933  11.263  1.5458  1.5805  0.8033
  543MOL0     H73299   8.491  11.088  11.450 -0.0463  1.5719  0.5790
  543MOL0     H73300   8.489  11.217  11.344 -1.4225  0.4222  0.7192
  543MOL0     H73301   8.729  11.220  11.320  1.1302  0.5373  0.5437
  543MOL0     H73302   8.746  11.076  11.435  0.2326 -0.1091 -1.7559
  543MOL0     H73303   8.638  11.409  11.692  2.9731  2.2966 -1.5350
  543MOL0     H73304   8.232  11.275  10.923 -0.8289 -0.3693 -2.1377
  543MOL0     H73305   8.231  11.240  10.674  2.8059  0.3366 -2.1754
  544MOL0     O73306   3.689   5.427  11.113 -0.0328 -0.8717 -0.3386
  544MOL0     C73307   3.657   5.332  11.046 -0.6219 -0.0910 -0.7668
  544MOL0     O73308   3.537   5.283  11.031  0.7048 -0.5786 -0.6891
  544MOL0     C73309   3.444   5.322  11.125  1.3817 -0.8979  0.1639
  544MOL0     C73310   3.457   5.370  11.262  0.7533  0.1534 -0.3651
  544MOL0     C73311   3.337   5.407  11.329 -0.0717  0.2409 -0.6727
  544MOL0     C73312   3.211   5.412  11.275  0.1318 -0.3578 -0.3414
  544MOL0     O73313   3.104   5.456  11.350 -0.1499 -0.4820  0.1010
  544MOL0     C73314   3.096   5.428  11.490  0.4117 -0.4109 -0.0581
  544MOL0     C73315   2.948   5.462  11.528  0.4296 -0.2878 -1.0366
  544MOL0     C73316   2.940   5.461  11.678 -0.6722 -0.4521 -0.8050
  544MOL0     C73317   2.829   5.551  11.727 -0.0103 -1.1697  0.0431
  544MOL0     C73318   2.814   5.569  11.879 -0.5973 -0.3736  0.1582
  544MOL0     C73319   2.693   5.646  11.919 -0.3995 -0.7972 -0.4655
  544MOL0     C73320   2.682   5.690  12.062  0.0710 -0.4677  0.2388
  544MOL0     C73321   2.682   5.573  12.159  0.2242 -0.6083 -0.4449
  544MOL0     N73322   2.671   5.608  12.298  0.3025  0.5416 -0.0269
  544MOL0     C73323   2.760   5.669  12.378  0.2798  0.4648 -0.3124
  544MOL0     C73324   2.700   5.673  12.498 -0.0281 -1.0336  0.6187
  544MOL0     C73325   2.755   5.739  12.627 -0.1519  0.3125  0.2396
  544MOL0     C73326   2.778   5.888  12.596 -0.4575  1.3552  0.7797
  544MOL0     C73327   2.856   5.960  12.707  0.4840  0.8218 -0.0967
  544MOL0     C73328   2.786   5.962  12.846  0.3513  0.2448  0.2162
  544MOL0     O73329   2.883   5.998  12.951  0.0982 -0.8118 -0.4046
  544MOL0     C73330   2.982   5.904  12.987  0.0258 -0.1299  0.0801
  544MOL0     C73331   3.121   5.918  12.953  0.9312 -0.3054  1.0234
  544MOL0     C73332   3.209   5.824  13.006 -1.5830 -0.5670 -0.1156
  544MOL0     C73333   3.354   5.835  12.972  0.1668 -0.1595 -0.0064
  544MOL0     C73334   3.173   5.726  13.089  0.4544 -0.0181 -0.3506
  544MOL0     C73335   3.258   5.625  13.164  0.6870  0.4960  0.0616
  544MOL0     O73336   3.387   5.638  13.171 -0.6037  0.4430  0.4575
  544MOL0     C73337   3.463   5.532  13.214 -0.1585 -0.7532 -0.1133
  544MOL0     C73338   3.526   5.527  13.341  0.9165  0.6570  0.6890
  544MOL0     C73339   3.594   5.406  13.369 -1.1140  0.4457 -0.2152
  544MOL0     C73340   3.621   5.300  13.283 -0.0160  0.4244 -0.1027
  544MOL0     O73341   3.677   5.181  13.310  0.3295  0.0459  0.6765
  544MOL0     C73342   3.631   5.117  13.436  0.9083 -0.1549  0.3037
  544MOL0     C73343   3.748   5.050  13.501  0.1096  0.2043  0.3112
  544MOL0     C73344   3.830   5.149  13.583  0.6418  0.7960  0.4710
  544MOL0     C73345   3.789   5.120  13.728 -0.3006 -0.0099  0.5259
  544MOL0     C73346   3.869   4.995  13.770 -0.1377  0.0359 -0.1737
  544MOL0     C73347   3.840   4.956  13.913  0.0183 -0.0608  0.0904
  544MOL0     C73348   3.876   5.060  14.033 -0.2345  0.2959  0.1249
  544MOL0     C73349   4.023   5.116  14.025 -0.1900 -0.4164 -0.4488
  544MOL0    Cl73350   4.137   4.983  13.999  0.3233  0.2696 -0.1730
  544MOL0     C73351   3.569   5.322  13.154 -0.5781  0.2408  0.7887
  544MOL0     C73352   3.483   5.430  13.126  0.8939  0.4006  0.5038
  544MOL0     O73353   3.206   5.522  13.212 -0.6860  0.2370 -0.3897
  544MOL0     C73354   3.036   5.709  13.113  0.9157 -0.0194 -0.0487
  544MOL0     C73355   2.939   5.791  13.055 -0.4383  0.2155  0.3037
  544MOL0     N73356   2.569   5.623  12.493 -0.2042  0.5893 -0.5642
  544MOL0     N73357   2.556   5.584  12.368 -0.1355 -0.3634 -0.4377
  544MOL0     C73358   3.201   5.375  11.145  0.0009 -0.0457  0.1561
  544MOL0     C73359   3.313   5.326  11.073  0.1691 -0.1723 -0.1444
  544MOL0     C73360   3.761   5.261  10.979  0.0683 -0.0999 -0.2208
  544MOL0     C73361   3.897   5.297  10.984 -0.5033  0.4295 -0.1060
  544MOL0     C73362   3.998   5.215  10.930 -0.0294 -0.9468  0.0029
  544MOL0     C73363   3.958   5.119  10.833  0.1130  0.4832 -0.6709
  544MOL0     O73364   4.049   5.032  10.782 -0.6507 -0.4815 -0.0964
  544MOL0     C73365   4.066   5.045  10.642  0.0844 -0.2650  0.6974
  544MOL0     C73366   4.121   4.912  10.584 -0.1060  0.7501  0.6284
  544MOL0     C73367   4.261   4.887  10.647 -0.2740  0.9892  0.0495
  544MOL0     C73368   4.315   4.745  10.624  1.0410 -0.3727 -0.9491
  544MOL0     C73369   4.355   4.737  10.488 -0.2848  0.8353  0.0670
  544MOL0     C73370   4.376   4.727  10.366  0.8004 -0.1913  0.0953
  544MOL0     C73371   3.828   5.086  10.815  0.6870  0.3205  0.7176
  544MOL0     C73372   3.728   5.156  10.889  0.3082 -0.2869  0.0591
  544MOL0     H73373   3.549   5.380  11.318  1.3131  2.0604 -1.5108
  544MOL0     H73374   3.360   5.438  11.431  2.2007  0.8293 -1.3013
  544MOL0     H73375   3.119   5.323  11.506  1.3761 -0.6933 -2.8201
  544MOL0     H73376   3.173   5.484  11.544  0.8868 -2.3620  1.3776
  544MOL0     H73377   2.915   5.558  11.489  3.3197  0.0480 -2.9407
  544MOL0     H73378   2.888   5.378  11.492  0.4888  0.5766 -3.3079
  544MOL0     H73379   2.916   5.360  11.712 -1.3310 -0.4759 -1.3319
  544MOL0     H73380   3.041   5.484  11.714 -0.6709  0.2510 -1.2458
  544MOL0     H73381   2.829   5.647  11.674 -1.8743 -1.7469 -1.0846
  544MOL0     H73382   2.737   5.508  11.688 -0.5031  0.1714 -0.3372
  544MOL0     H73383   2.799   5.470  11.923 -3.1914  1.1084  2.8937
  544MOL0     H73384   2.911   5.612  11.907  0.8931 -2.2638 -1.6778
  544MOL0     H73385   2.691   5.741  11.864 -2.0829 -0.0687  0.7691
  544MOL0     H73386   2.608   5.588  11.883 -0.9866 -1.6175  2.0608
  544MOL0     H73387   2.777   5.737  12.089  0.5977 -1.7832  0.7272
  544MOL0     H73388   2.605   5.768  12.070  0.6495  0.1552 -0.2081
  544MOL0     H73389   2.785   5.535  12.156  1.0627  1.4412  0.1069
  544MOL0     H73390   2.603   5.502  12.136 -0.2788 -0.4169  0.6341
  544MOL0     H73391   2.856   5.710  12.347 -0.5609  2.6077 -0.2436
  544MOL0     H73392   2.686   5.729  12.711 -2.1748 -3.0380 -1.5810
  544MOL0     H73393   2.852   5.698  12.655  0.6189  1.7553 -0.2159
  544MOL0     H73394   2.673   5.921  12.590 -1.7312 -2.3717  0.0701
  544MOL0     H73395   2.822   5.902  12.497 -4.7019  1.7899 -1.2911
  544MOL0     H73396   2.855   6.062  12.667 -1.9009 -0.0557 -2.5696
  544MOL0     H73397   2.958   5.922  12.718 -0.5957 -1.6026  3.1082
  544MOL0     H73398   2.730   5.871  12.868  0.1209 -0.2085 -1.9970
  544MOL0     H73399   2.709   6.039  12.834 -2.1349 -1.8413  1.7831
  544MOL0     H73400   3.146   6.007  12.895 -0.5074 -0.9967 -0.7643
  544MOL0     H73401   3.393   5.744  12.927 -2.2056 -0.6938 -1.1834
  544MOL0     H73402   3.368   5.907  12.891  0.3817  1.4261  1.3859
  544MOL0     H73403   3.403   5.878  13.060  3.5856  0.1158 -1.9023
  544MOL0     H73404   3.505   5.598  13.421  1.7000  0.2061  1.2995
  544MOL0     H73405   3.652   5.396  13.460  1.2171  3.4504 -1.2073
  544MOL0     H73406   3.595   5.187  13.513  0.2907  1.1495 -1.1097
  544MOL0     H73407   3.567   5.036  13.400  0.7630  0.0392  0.1239
  544MOL0     H73408   3.701   4.973  13.562 -1.0116 -1.2217 -2.1765
  544MOL0     H73409   3.816   4.998  13.432 -2.1435 -3.6725  0.7316
  544MOL0     H73410   3.815   5.248  13.538 -1.5677 -0.0755 -0.8898
  544MOL0     H73411   3.933   5.118  13.566 -0.7289 -2.8217 -2.7667
  544MOL0     H73412   3.817   5.207  13.788  1.4239 -0.3528  0.2646
  544MOL0     H73413   3.680   5.109  13.734 -0.1717 -1.5905  0.3742
  544MOL0     H73414   3.975   5.020  13.762 -0.1386  0.6690  1.3276
  544MOL0     H73415   3.859   4.904  13.710  2.0925  0.2961 -0.9966
  544MOL0     H73416   3.735   4.935  13.935  0.7726 -2.8237  1.5949
  544MOL0     H73417   3.887   4.857  13.909 -1.6822 -0.9199  0.4139
  544MOL0     H73418   3.859   5.006  14.127 -1.3828  1.0693  0.3957
  544MOL0     H73419   3.804   5.143  14.036  0.4776  0.9004  1.3319
  544MOL0     H73420   4.040   5.171  14.118  1.5456 -0.6852 -0.5869
  544MOL0     H73421   4.025   5.178  13.936  0.8763 -0.7714 -0.6870
  544MOL0     H73422   3.606   5.248  13.083 -1.2124  1.3627 -0.7475
  544MOL0     H73423   3.443   5.441  13.025  1.8001 -1.3981 -0.0944
  544MOL0     H73424   2.998   5.628  13.174  1.8439 -1.6266 -1.5244
  544MOL0     H73425   2.832   5.783  13.073 -0.3446  1.8268  1.8009
  544MOL0     H73426   3.102   5.372  11.101 -0.2003  0.4901  0.5637
  544MOL0     H73427   3.288   5.278  10.979 -1.0082 -1.0488  0.5836
  544MOL0     H73428   3.922   5.373  11.058 -1.5636 -0.4815  1.2391
  544MOL0     H73429   4.098   5.231  10.967  0.4023  0.5567 -1.6833
  544MOL0     H73430   3.974   5.077  10.592 -0.4165  0.1692  1.8654
  544MOL0     H73431   4.140   5.122  10.617 -0.8337 -0.3848 -2.9124
  544MOL0     H73432   4.119   4.902  10.475 -1.3565  3.8266  0.2744
  544MOL0     H73433   4.059   4.834  10.628  1.9934 -0.9830  0.6882
  544MOL0     H73434   4.245   4.893  10.754 -1.8210 -0.5826 -0.0449
  544MOL0     H73435   4.345   4.949  10.614  2.3164 -1.4723  1.5163
  544MOL0     H73436   4.255   4.662  10.662  3.5915 -0.4980  3.5814
  544MOL0     H73437   4.408   4.745  10.682  1.4047  1.9548 -1.4197
  544MOL0     H73438   4.390   4.723  10.260 -1.1267  2.3792 -0.3532
  544MOL0     H73439   3.802   4.991  10.770  0.5937  1.3618 -1.6382
  544MOL0     H73440   3.624   5.124  10.880  0.6445 -1.2619 -0.4803
  545MOL0     O73441   5.661   6.363   6.969 -0.6439  0.3521  0.1251
  545MOL0     C73442   5.587   6.406   6.884 -0.1338  0.1299 -0.1790
  545MOL0     O73443   5.524   6.341   6.786  0.9777 -0.7336 -0.3768
  545MOL0     C73444   5.539   6.204   6.777 -0.3658  0.3726  0.0916
  545MOL0     C73445   5.622   6.154   6.682 -0.8160  0.5404  0.2005
  545MOL0     C73446   5.652   6.015   6.671 -1.1563  0.2320  0.6923
  545MOL0     C73447   5.596   5.922   6.766  0.1427  0.2774 -0.1915
  545MOL0     O73448   5.600   5.787   6.763  0.4414  0.1517 -0.0618
  545MOL0     C73449   5.584   5.727   6.630 -0.3541  0.4592  0.2186
  545MOL0     C73450   5.446   5.766   6.575  0.1276  0.2501  0.0235
  545MOL0     C73451   5.330   5.729   6.666 -0.3722 -1.1385  0.9446
  545MOL0     C73452   5.324   5.575   6.696  0.6083 -0.3556  0.9819
  545MOL0     C73453   5.308   5.480   6.574  0.3025 -0.5913  0.5366
  545MOL0     C73454   5.259   5.335   6.596 -0.4566 -0.0715  0.6140
  545MOL0     C73455   5.294   5.237   6.481 -0.8483 -0.4929  0.3825
  545MOL0     C73456   5.250   5.283   6.340 -0.4173 -0.0472  0.1012
  545MOL0     N73457   5.244   5.163   6.247  0.2564  0.1836  0.6598
  545MOL0     C73458   5.129   5.076   6.255 -0.3193  0.3610  0.8926
  545MOL0     C73459   5.165   4.975   6.166 -0.1315 -0.1221 -0.1570
  545MOL0     C73460   5.085   4.852   6.119 -0.1931 -1.1029  0.0245
  545MOL0     C73461   4.945   4.892   6.070  0.7218  0.1582  0.6754
  545MOL0     C73462   4.863   4.771   6.014 -0.3025 -0.0020 -0.3384
  545MOL0     C73463   4.862   4.649   6.099  0.0009 -0.2462  0.4142
  545MOL0     O73464   4.814   4.661   6.234  0.3945  0.2841 -0.6458
  545MOL0     C73465   4.809   4.564   6.324 -0.5119  0.1047 -0.6431
  545MOL0     C73466   4.879   4.448   6.309  0.5552  0.5522 -0.6165
  545MOL0     C73467   4.874   4.348   6.411  0.6331 -0.0863 -0.0669
  545MOL0     C73468   4.979   4.236   6.383 -0.4843  0.2167  1.0450
  545MOL0     C73469   4.793   4.364   6.517  0.3554 -0.0852 -0.6512
  545MOL0     C73470   4.766   4.267   6.625 -0.1919 -0.8480 -0.4028
  545MOL0     O73471   4.636   4.220   6.633  0.1177 -0.4396 -0.5867
  545MOL0     C73472   4.614   4.106   6.708 -0.8816  0.1764 -0.6774
  545MOL0     C73473   4.572   4.111   6.832 -0.4843 -0.6644 -0.1776
  545MOL0     C73474   4.530   4.001   6.908  0.0253 -1.1557 -0.0537
  545MOL0     C73475   4.533   3.875   6.855  0.8723 -0.7085 -0.1422
  545MOL0     O73476   4.504   3.768   6.937 -0.9414 -1.3449  0.2695
  545MOL0     C73477   4.370   3.753   6.989  0.5071  0.2269 -1.1606
  545MOL0     C73478   4.293   3.641   6.931  0.0572 -1.0708 -0.4695
  545MOL0     C73479   4.244   3.672   6.789 -1.2096 -0.3932 -0.0209
  545MOL0     C73480   4.151   3.564   6.736  0.6062  0.1479 -0.4680
  545MOL0     C73481   4.124   3.582   6.586 -0.3586  0.1836  0.0607
  545MOL0     C73482   4.031   3.461   6.536  0.8723  0.1006  0.0299
  545MOL0     C73483   3.886   3.462   6.606  0.6855  0.6045 -0.3359
  545MOL0     C73484   3.779   3.369   6.539  0.5550 -0.7529 -0.0697
  545MOL0    Cl73485   3.843   3.205   6.554 -0.1083 -0.3981  0.0032
  545MOL0     C73486   4.576   3.856   6.717 -0.4576 -0.3717 -0.9208
  545MOL0     C73487   4.615   3.979   6.646 -0.4595  0.7824  0.0832
  545MOL0     O73488   4.858   4.225   6.702 -0.3373  0.3272 -0.0642
  545MOL0     C73489   4.718   4.487   6.536 -0.7404 -0.5682 -0.0132
  545MOL0     C73490   4.734   4.586   6.444 -0.0370  0.1690  1.1300
  545MOL0     N73491   5.294   4.997   6.123  1.0191 -0.4772 -0.6295
  545MOL0     N73492   5.339   5.109   6.171 -0.4042 -0.9227  0.6488
  545MOL0     C73493   5.510   5.976   6.858 -0.0274 -0.4336  0.7075
  545MOL0     C73494   5.484   6.111   6.864  1.1445 -0.2378  0.5325
  545MOL0     C73495   5.566   6.555   6.895 -0.9288  0.9232  0.6355
  545MOL0     C73496   5.462   6.607   6.825  1.2922 -1.2021 -0.5830
  545MOL0     C73497   5.428   6.748   6.836 -0.2468 -0.0232 -0.4663
  545MOL0     C73498   5.510   6.829   6.925 -0.1570  0.1215 -0.6407
  545MOL0     O73499   5.493   6.965   6.920 -0.0167 -0.4225  0.2108
  545MOL0     C73500   5.467   7.027   7.048  1.5413  0.1335  0.2630
  545MOL0     C73501   5.315   7.027   7.061 -0.4029 -0.4032  0.4668
  545MOL0     C73502   5.277   7.164   7.130 -0.3758  0.3501 -0.9739
  545MOL0     C73503   5.150   7.154   7.214 -0.0004 -0.0011  0.0280
  545MOL0     C73504   5.132   7.276   7.296 -0.5752  0.4631 -0.9607
  545MOL0     C73505   5.116   7.375   7.360 -0.2794 -0.2576  1.0101
  545MOL0     C73506   5.614   6.768   6.998  1.0901  0.4953 -0.0571
  545MOL0     C73507   5.644   6.627   6.983  0.3571  0.4746  0.1926
  545MOL0     H73508   5.664   6.214   6.602 -0.7297  1.5920  1.0057
  545MOL0     H73509   5.735   5.988   6.606 -1.1700  1.0166  0.3443
  545MOL0     H73510   5.662   5.772   6.568  0.1272  3.1727  2.5444
  545MOL0     H73511   5.602   5.620   6.643  1.4729  0.8035  0.9812
  545MOL0     H73512   5.449   5.874   6.559  1.1235  0.4219  1.1920
  545MOL0     H73513   5.434   5.710   6.481 -0.5440 -1.6145  1.1577
  545MOL0     H73514   5.320   5.780   6.762 -2.5360 -1.7718  1.1220
  545MOL0     H73515   5.246   5.761   6.603  1.2226 -0.1114 -0.7481
  545MOL0     H73516   5.415   5.543   6.748  1.9537 -1.9450 -2.1092
  545MOL0     H73517   5.235   5.561   6.758  0.2761 -0.1098  0.5660
  545MOL0     H73518   5.239   5.524   6.501 -0.1425 -2.2867 -0.1091
  545MOL0     H73519   5.406   5.475   6.525  0.1812  0.4436  0.1447
  545MOL0     H73520   5.294   5.295   6.691  3.7409  3.1826  0.7528
  545MOL0     H73521   5.150   5.330   6.604 -0.4925  2.4350  3.9238
  545MOL0     H73522   5.403   5.227   6.483 -0.6775  1.1968  0.7368
  545MOL0     H73523   5.262   5.134   6.500 -0.7269 -0.6688 -0.3137
  545MOL0     H73524   5.324   5.352   6.297 -1.7690 -0.3438 -2.8811
  545MOL0     H73525   5.149   5.325   6.346 -0.6205 -0.5801  0.4606
  545MOL0     H73526   5.043   5.097   6.318 -4.0353  1.5996 -3.9391
  545MOL0     H73527   5.139   4.809   6.035  0.6119  0.0084 -0.0373
  545MOL0     H73528   5.073   4.786   6.206 -1.3674 -0.6834  0.2130
  545MOL0     H73529   4.964   4.965   5.991 -2.6568  1.8957  1.2799
  545MOL0     H73530   4.889   4.939   6.151 -0.5881 -2.4073  1.3908
  545MOL0     H73531   4.908   4.751   5.916 -3.2695 -3.5790 -1.2187
  545MOL0     H73532   4.760   4.803   5.996 -0.4744 -0.8653 -0.9509
  545MOL0     H73533   4.954   4.591   6.108 -1.5427 -2.6666  1.9852
  545MOL0     H73534   4.797   4.577   6.048 -1.5939  1.9005 -0.7328
  545MOL0     H73535   4.935   4.433   6.217  0.9359 -0.5521 -0.2315
  545MOL0     H73536   4.978   4.173   6.473 -3.2973 -4.3756 -1.7438
  545MOL0     H73537   4.935   4.166   6.311 -1.2189 -2.1759  3.6345
  545MOL0     H73538   5.079   4.276   6.363  0.0110 -0.9577  1.0663
  545MOL0     H73539   4.571   4.210   6.878  2.6443  0.0623 -1.4179
  545MOL0     H73540   4.500   4.020   7.010  0.1688  2.3857 -0.5388
  545MOL0     H73541   4.377   3.740   7.098  2.1071  1.3164 -1.0987
  545MOL0     H73542   4.312   3.845   6.974  0.4453  0.8431  2.0820
  545MOL0     H73543   4.360   3.555   6.921  3.2985  1.4756 -3.7046
  545MOL0     H73544   4.207   3.620   6.995 -0.8124 -0.5011 -1.4289
  545MOL0     H73545   4.332   3.675   6.725  0.8683  1.8761  2.6720
  545MOL0     H73546   4.216   3.776   6.773  2.2244  0.3669 -2.1400
  545MOL0     H73547   4.194   3.465   6.752  2.4056  0.7245 -1.4253
  545MOL0     H73548   4.056   3.574   6.789 -0.5742  0.4225 -2.5314
  545MOL0     H73549   4.212   3.577   6.521 -1.8460 -1.8124 -1.9557
  545MOL0     H73550   4.067   3.673   6.564  2.7562  1.6228 -3.1880
  545MOL0     H73551   4.028   3.465   6.427  0.1805 -1.7019 -0.0549
  545MOL0     H73552   4.085   3.366   6.547 -2.3992 -1.9853 -0.5478
  545MOL0     H73553   3.836   3.558   6.595 -2.5348 -0.8134  0.6604
  545MOL0     H73554   3.881   3.436   6.713 -3.5816  1.6859 -0.1157
  545MOL0     H73555   3.764   3.400   6.435  0.9151  2.1654  0.6622
  545MOL0     H73556   3.682   3.365   6.589  1.2603  1.4187  1.6715
  545MOL0     H73557   4.587   3.759   6.669  3.2542 -0.8876  0.6612
  545MOL0     H73558   4.639   3.977   6.540  2.2929  1.9630  0.5926
  545MOL0     H73559   4.658   4.509   6.624 -1.7994 -3.0248 -0.0087
  545MOL0     H73560   4.677   4.677   6.459 -0.7492  0.0267 -0.5269
  545MOL0     H73561   5.461   5.896   6.911 -1.0377 -0.4532 -0.2236
  545MOL0     H73562   5.413   6.150   6.937 -0.6225 -1.4989 -0.4331
  545MOL0     H73563   5.397   6.545   6.764 -0.3614 -0.8789  0.7654
  545MOL0     H73564   5.353   6.801   6.777 -3.2686 -1.1181  2.0734
  545MOL0     H73565   5.512   6.972   7.132  3.7966  0.1274 -0.8622
  545MOL0     H73566   5.514   7.126   7.052  1.9517 -0.0793  0.9311
  545MOL0     H73567   5.280   6.941   7.120  2.2342 -3.2757 -1.8368
  545MOL0     H73568   5.269   7.024   6.962  0.4593 -1.5862  0.0834
  545MOL0     H73569   5.262   7.240   7.053 -0.3160  0.6681 -0.6731
  545MOL0     H73570   5.363   7.197   7.188  0.1637  3.2128 -3.1961
  545MOL0     H73571   5.157   7.066   7.279  1.5860 -0.0496 -0.1835
  545MOL0     H73572   5.067   7.143   7.143  0.1427  0.2895 -0.1859
  545MOL0     H73573   5.090   7.473   7.395 -0.4805  0.4295 -0.9430
  545MOL0     H73574   5.673   6.815   7.076 -0.4840 -0.3474  1.7459
  545MOL0     H73575   5.719   6.581   7.047  1.5366  1.6419 -0.2790
  546MOL0     O73576   8.568  11.281   2.078  0.1965 -0.4820 -0.2342
  546MOL0     C73577   8.468  11.250   2.010 -0.2450  0.1764 -0.9950
  546MOL0     O73578   8.450  11.129   1.941  0.8593 -0.2269 -0.0308
  546MOL0     C73579   8.548  11.038   1.922  0.5962  0.3506  0.3168
  546MOL0     C73580   8.681  11.079   1.897  0.1139  0.5523  0.2465
  546MOL0     C73581   8.773  10.978   1.882 -0.4271  0.9468  0.5662
  546MOL0     C73582   8.757  10.845   1.884 -0.4334  0.3079  0.0060
  546MOL0     O73583   8.848  10.749   1.880 -0.6653  0.7066  0.4025
  546MOL0     C73584   8.965  10.771   1.951 -0.2005  0.1199 -0.4853
  546MOL0     C73585   9.073  10.788   1.850  0.1401 -0.5276  0.9866
  546MOL0     C73586   9.206  10.815   1.913  0.3652 -0.7089 -0.2098
  546MOL0     C73587   9.314  10.841   1.807  0.0496  1.0118  0.3692
  546MOL0     C73588   9.446  10.873   1.873 -0.5996 -0.1949 -0.1463
  546MOL0     C73589   9.505  10.777   1.985 -0.2230 -0.1076 -0.3238
  546MOL0     C73590   9.526  10.633   1.930 -0.1130  0.5065 -0.5670
  546MOL0     C73591   9.496  10.533   2.044 -0.1547  0.0986 -0.8688
  546MOL0     N73592   9.351  10.502   2.068  0.4872  0.4491  0.5132
  546MOL0     C73593   9.264  10.438   1.983 -1.8619  0.2769  0.2189
  546MOL0     C73594   9.155  10.412   2.050  0.3910  0.3122 -0.3616
  546MOL0     C73595   9.031  10.338   1.982 -0.0610  0.5351 -0.3567
  546MOL0     C73596   8.893  10.396   2.000 -1.3948 -0.0070  0.2347
  546MOL0     C73597   8.838  10.408   2.141 -0.0252 -0.2610  0.6955
  546MOL0     C73598   8.856  10.277   2.208  0.3613  0.7465 -0.5450
  546MOL0     O73599   8.768  10.272   2.319  0.3483  0.2184  0.0547
  546MOL0     C73600   8.817  10.326   2.440  1.3261 -0.7351  0.4725
  546MOL0     C73601   8.742  10.320   2.562  0.2279  0.1182  0.5302
  546MOL0     C73602   8.778  10.378   2.684 -0.1023  0.0134 -0.2037
  546MOL0     C73603   8.686  10.355   2.797  1.0079 -0.4872  0.3876
  546MOL0     C73604   8.904  10.443   2.688  0.7748  0.1177  0.5544
  546MOL0     C73605   8.941  10.518   2.807  1.1062  0.3096  1.1528
  546MOL0     O73606   8.834  10.595   2.854  0.0406 -0.5270  0.4678
  546MOL0     C73607   8.839  10.643   2.981 -0.3048 -0.6645  0.3038
  546MOL0     C73608   8.882  10.775   3.005 -1.0480  0.6375 -0.3825
  546MOL0     C73609   8.872  10.819   3.137  0.0027 -0.7307  0.7310
  546MOL0     C73610   8.815  10.746   3.242 -0.3972  0.1167 -1.6504
  546MOL0     O73611   8.799  10.774   3.372 -0.5485  0.4866 -0.2384
  546MOL0     C73612   8.818  10.909   3.424 -0.0181  0.3870  0.0146
  546MOL0     C73613   8.696  10.990   3.382 -0.2271 -0.6049 -0.6344
  546MOL0     C73614   8.710  11.130   3.449  0.7867  0.2189 -0.3874
  546MOL0     C73615   8.586  11.217   3.462 -0.0460 -0.2154  0.2494
  546MOL0     C73616   8.605  11.337   3.542  0.0730 -0.1403 -0.2532
  546MOL0     C73617   8.474  11.415   3.560  0.0811 -0.2852 -0.0143
  546MOL0     C73618   8.491  11.536   3.651  0.5470  0.3453 -0.0979
  546MOL0     C73619   8.371  11.626   3.643 -1.3834 -0.1361  0.5743
  546MOL0    Cl73620   8.396  11.753   3.772 -0.0079  0.3202 -0.1227
  546MOL0     C73621   8.797  10.617   3.212 -1.0307 -0.6019 -0.1900
  546MOL0     C73622   8.803  10.568   3.086 -0.5238 -0.3512  0.1476
  546MOL0     O73623   9.051  10.492   2.864 -0.2149 -0.0200  0.3689
  546MOL0     C73624   8.982  10.450   2.564  0.9777 -0.0200 -1.7603
  546MOL0     C73625   8.941  10.385   2.454 -0.3356 -0.2721  0.6084
  546MOL0     N73626   9.166  10.453   2.183  0.5514  1.0667  0.4476
  546MOL0     N73627   9.285  10.508   2.194 -1.2727  0.2047  0.2767
  546MOL0     C73628   8.627  10.808   1.901 -1.0826  0.3169  0.5028
  546MOL0     C73629   8.518  10.903   1.930  0.3299  0.9328 -0.1335
  546MOL0     C73630   8.355  11.336   2.021  0.1240 -0.3210  0.1629
  546MOL0     C73631   8.254  11.332   1.925  0.3832  0.6940  0.3499
  546MOL0     C73632   8.133  11.411   1.918  0.6643 -0.2156  0.2894
  546MOL0     C73633   8.117  11.497   2.017 -0.1954 -0.4047  0.5042
  546MOL0     O73634   8.006  11.574   2.024  0.1111 -0.7083 -1.0778
  546MOL0     C73635   7.890  11.491   2.050 -0.6248 -0.5377  0.9465
  546MOL0     C73636   7.788  11.546   2.145  0.1373 -0.2783 -0.3946
  546MOL0     C73637   7.703  11.647   2.069  0.5865  0.6478 -0.8898
  546MOL0     C73638   7.751  11.792   2.067 -1.1313 -0.2583 -0.3898
  546MOL0     C73639   7.737  11.861   2.190  0.9858  0.2258  0.4166
  546MOL0     C73640   7.728  11.913   2.295 -0.3380  0.8579  0.0074
  546MOL0     C73641   8.223  11.531   2.101 -0.3919  0.1741  0.3329
  546MOL0     C73642   8.336  11.445   2.107  0.0248 -0.3865 -0.7231
  546MOL0     H73643   8.710  11.183   1.886  2.7570 -0.1325 -0.1445
  546MOL0     H73644   8.873  11.020   1.873  0.0248 -0.1726  0.1500
  546MOL0     H73645   8.947  10.851   2.023  0.7532 -0.4435  0.4079
  546MOL0     H73646   9.000  10.684   2.006 -2.5093 -0.7049 -0.2419
  546MOL0     H73647   9.085  10.697   1.790  0.6004  0.2391 -0.1290
  546MOL0     H73648   9.038  10.866   1.782 -3.6191 -3.0540 -0.2899
  546MOL0     H73649   9.185  10.902   1.976 -0.1371 -2.3514  2.0222
  546MOL0     H73650   9.236  10.731   1.975  3.0649 -1.9171 -2.8624
  546MOL0     H73651   9.324  10.757   1.738 -1.1730  1.1846 -0.0464
  546MOL0     H73652   9.292  10.931   1.749 -2.0617 -0.5458 -1.4165
  546MOL0     H73653   9.528  10.885   1.801  1.1164  1.1238  1.9021
  546MOL0     H73654   9.446  10.972   1.918  0.7228  1.7099 -3.8787
  546MOL0     H73655   9.605  10.820   1.998  0.0158  1.2839 -4.8344
  546MOL0     H73656   9.439  10.783   2.072  1.0425 -1.8317  0.8109
  546MOL0     H73657   9.472  10.608   1.838  0.8010  4.5600 -2.3936
  546MOL0     H73658   9.631  10.631   1.901  0.3845 -0.3119  1.1559
  546MOL0     H73659   9.536  10.563   2.141 -1.0652 -2.9824  0.5765
  546MOL0     H73660   9.539  10.434   2.029  0.7761  0.0851  1.5533
  546MOL0     H73661   9.278  10.417   1.877  1.8509 -1.2910  0.8309
  546MOL0     H73662   9.052  10.327   1.876 -0.6097  3.7668 -0.9011
  546MOL0     H73663   9.031  10.241   2.032  0.6316  0.2701 -0.8641
  546MOL0     H73664   8.842  10.320   1.941  0.2421 -0.2473 -0.9376
  546MOL0     H73665   8.881  10.487   1.940  3.8362 -0.7718 -2.6830
  546MOL0     H73666   8.735  10.443   2.140  0.7661  2.3378  2.0784
  546MOL0     H73667   8.901  10.478   2.196  0.9891 -0.2538 -0.4296
  546MOL0     H73668   8.961  10.257   2.229  0.0443  0.1536  0.5541
  546MOL0     H73669   8.817  10.195   2.147  0.9788  0.6073 -0.7578
  546MOL0     H73670   8.647  10.269   2.550  0.2239  0.5033 -1.4733
  546MOL0     H73671   8.626  10.264   2.790  1.4113 -1.1987  4.2200
  546MOL0     H73672   8.738  10.347   2.893  2.1515  0.3511 -0.1357
  546MOL0     H73673   8.615  10.438   2.806 -3.0324 -3.8157  2.2456
  546MOL0     H73674   8.931  10.824   2.922 -1.0889 -0.1596 -0.8903
  546MOL0     H73675   8.906  10.921   3.147  1.6766 -1.3316  1.4989
  546MOL0     H73676   8.815  10.899   3.533  0.6186  1.2270  0.1223
  546MOL0     H73677   8.907  10.961   3.386 -0.3155  2.9890  2.5662
  546MOL0     H73678   8.707  11.000   3.274  4.4773 -4.1060 -0.7817
  546MOL0     H73679   8.606  10.935   3.412 -0.5658  0.1647 -0.2058
  546MOL0     H73680   8.771  11.201   3.393  0.5899  1.9211  1.4535
  546MOL0     H73681   8.761  11.129   3.546  1.8124  3.2212 -0.8081
  546MOL0     H73682   8.542  11.241   3.365 -1.6275 -1.0092  0.7287
  546MOL0     H73683   8.508  11.166   3.520  0.8415 -2.6168 -0.5374
  546MOL0     H73684   8.684  11.400   3.500 -0.1835 -0.6907 -1.5995
  546MOL0     H73685   8.620  11.317   3.649 -1.9084  1.3161  0.3659
  546MOL0     H73686   8.450  11.460   3.463 -1.1912 -1.3435 -0.2225
  546MOL0     H73687   8.400  11.353   3.611 -1.5807  1.3608 -0.2940
  546MOL0     H73688   8.587  11.580   3.622  1.8535 -2.3593 -0.2115
  546MOL0     H73689   8.495  11.500   3.755  0.1973 -1.9294 -0.8373
  546MOL0     H73690   8.277  11.576   3.669 -0.4615 -1.2342  1.9082
  546MOL0     H73691   8.369  11.673   3.544 -3.7884  0.7111  0.9526
  546MOL0     H73692   8.765  10.549   3.290  2.2427 -0.4960  1.4123
  546MOL0     H73693   8.762  10.468   3.072 -1.1526  0.1508 -2.0626
  546MOL0     H73694   9.082  10.492   2.560 -0.0542  2.8097 -0.8193
  546MOL0     H73695   9.013  10.403   2.374  0.1142 -0.2486  1.0111
  546MOL0     H73696   8.610  10.701   1.912  3.3941 -0.8115 -1.5924
  546MOL0     H73697   8.418  10.872   1.960  1.2323 -0.5380  1.4843
  546MOL0     H73698   8.269  11.265   1.841  2.1945 -0.2072  1.3150
  546MOL0     H73699   8.066  11.401   1.833  0.7174 -3.1021  0.4728
  546MOL0     H73700   7.857  11.455   1.952  0.4889 -0.6697  0.6091
  546MOL0     H73701   7.927  11.405   2.105 -0.4995 -1.0330  0.1046
  546MOL0     H73702   7.837  11.588   2.233 -1.3636 -3.9595  2.4799
  546MOL0     H73703   7.731  11.460   2.182  2.9819 -3.2796 -2.3621
  546MOL0     H73704   7.603  11.658   2.112  0.4193 -0.9024 -0.8067
  546MOL0     H73705   7.693  11.605   1.968 -1.9930  0.3362 -0.5694
  546MOL0     H73706   7.695  11.849   1.992  2.7900  5.1632  0.2751
  546MOL0     H73707   7.852  11.795   2.027  0.4791 -2.6359  2.9815
  546MOL0     H73708   7.723  11.961   2.391  0.0949 -1.3658  1.2082
  546MOL0     H73709   8.207  11.600   2.183 -2.9018 -0.9182  0.8793
  546MOL0     H73710   8.401  11.471   2.191 -2.9807  1.1496  1.3181
  547MOL0     O73711   9.503  11.203   1.704  0.4208 -0.0370  0.5808
  547MOL0     C73712   9.451  11.249   1.804  0.9567  0.3669  0.4442
  547MOL0     O73713   9.327  11.303   1.810  0.6376 -1.2188  0.0851
  547MOL0     C73714   9.256  11.325   1.696 -0.3059  1.0861 -0.3401
  547MOL0     C73715   9.122  11.291   1.712 -0.8503  0.4553  0.4858
  547MOL0     C73716   9.033  11.318   1.611 -0.5157  0.3623  0.6990
  547MOL0     C73717   9.072  11.373   1.481  0.1325 -1.4858  0.6123
  547MOL0     O73718   8.973  11.398   1.393  0.1372  0.2022  0.2402
  547MOL0     C73719   8.978  11.296   1.287 -0.2704 -0.5016 -0.2266
  547MOL0     C73720   8.966  11.151   1.343 -0.4401 -0.3380 -0.3798
  547MOL0     C73721   8.950  11.053   1.228  0.4044 -0.1504 -0.0563
  547MOL0     C73722   8.945  10.907   1.267 -0.2821  0.3264 -0.4134
  547MOL0     C73723   8.822  10.866   1.353  0.3194  0.0665 -0.9938
  547MOL0     C73724   8.688  10.882   1.281  0.0878  0.3828  0.5253
  547MOL0     C73725   8.661  10.783   1.180  0.1844 -0.2652 -0.9297
  547MOL0     C73726   8.517  10.804   1.111  0.4397 -0.4671  0.4164
  547MOL0     N73727   8.400  10.814   1.207 -0.2310  0.1730  0.0765
  547MOL0     C73728   8.369  10.928   1.280 -0.0094  0.1741  0.6458
  547MOL0     C73729   8.249  10.887   1.347  0.2398  0.3836  0.1549
  547MOL0     C73730   8.160  10.956   1.446 -0.3625  0.2378 -1.0983
  547MOL0     C73731   8.126  11.106   1.410 -0.5223  0.4360  0.3336
  547MOL0     C73732   8.198  11.207   1.485  0.1038  0.0710  0.2241
  547MOL0     C73733   8.147  11.353   1.479  0.1734  0.6870  0.1412
  547MOL0     O73734   8.228  11.453   1.547 -0.0343  0.1061  0.2418
  547MOL0     C73735   8.181  11.580   1.571 -0.9962  0.4310 -0.4519
  547MOL0     C73736   8.246  11.647   1.681 -0.0758 -0.5096 -1.2602
  547MOL0     C73737   8.197  11.774   1.727 -0.6446 -0.4984 -0.2931
  547MOL0     C73738   8.254  11.833   1.854 -0.2509 -0.3791 -0.5624
  547MOL0     C73739   8.093  11.827   1.652 -0.4175 -0.1855  0.3959
  547MOL0     C73740   8.036  11.957   1.677 -0.3110 -0.2419 -0.5627
  547MOL0     O73741   7.903  11.960   1.690  0.3115  0.4588 -0.0211
  547MOL0     C73742   7.845  12.086   1.689 -0.6358  0.1694 -0.5250
  547MOL0     C73743   7.841  12.172   1.578  0.7874  0.8448  0.3484
  547MOL0     C73744   7.762  12.295   1.582  0.3186 -0.4170  0.6148
  547MOL0     C73745   7.699  12.330   1.696 -0.5659 -1.1693 -0.3383
  547MOL0     O73746   7.630  12.459   1.691  0.2133  0.1095 -0.1545
  547MOL0     C73747   7.689  12.553   1.785 -0.5453 -1.1820  0.2754
  547MOL0     C73748   7.616  12.687   1.767 -0.3741  0.3930 -1.0010
  547MOL0     C73749   7.657  12.787   1.879  0.0458 -0.9054  0.3551
  547MOL0     C73750   7.571  12.922   1.876 -0.0177  0.1719  0.2522
  547MOL0     C73751   7.631  13.026   1.962 -1.1687  0.2285  0.8461
  547MOL0     C73752   7.581  13.164   1.914  1.0522  1.4749  0.2620
  547MOL0     C73753   7.597  13.278   2.019  0.7359  0.3884  1.0661
  547MOL0     C73754   7.744  13.312   2.041 -0.1897 -0.4722  0.0729
  547MOL0    Cl73755   7.819  13.392   1.894 -0.1216 -0.6312 -0.1954
  547MOL0     C73756   7.700  12.252   1.808 -0.0202 -0.4495  0.0730
  547MOL0     C73757   7.770  12.131   1.799  1.0603  0.3606  0.4198
  547MOL0     O73758   8.106  12.059   1.665  0.0555 -0.3700  0.1263
  547MOL0     C73759   8.031  11.768   1.543  0.5606  0.7208 -0.3460
  547MOL0     C73760   8.085  11.645   1.498  1.3895 -0.1978  0.3117
  547MOL0     N73761   8.230  10.747   1.309  0.3426 -0.0489 -0.3000
  547MOL0     N73762   8.314  10.707   1.221 -0.2767 -0.7545  0.2823
  547MOL0     C73763   9.205  11.400   1.465 -0.9389  0.8538 -0.0540
  547MOL0     C73764   9.294  11.359   1.569 -0.6545 -0.5689  0.0924
  547MOL0     C73765   9.526  11.249   1.929  0.0403  0.2381 -0.3168
  547MOL0     C73766   9.467  11.302   2.046 -0.0275  0.5315 -0.3822
  547MOL0     C73767   9.531  11.303   2.170 -0.4569 -0.3291 -0.0219
  547MOL0     C73768   9.659  11.239   2.186 -0.1893 -0.2062 -0.3316
  547MOL0     O73769   9.726  11.250   2.307  0.1429  0.8438  0.3670
  547MOL0     C73770   9.865  11.211   2.337 -0.1829 -0.3550 -1.0031
  547MOL0     C73771   9.896  11.241   2.484 -0.0211 -0.7924  0.0635
  547MOL0     C73772   9.899  11.395   2.512  0.2491 -0.3798  0.4686
  547MOL0     C73773   9.870  11.437   2.652  0.0662 -0.1493 -0.1275
  547MOL0     C73774   9.731  11.406   2.693  0.2265  0.3136 -0.6755
  547MOL0     C73775   9.630  11.374   2.752 -0.6633 -0.8816  0.4022
  547MOL0     C73776   9.715  11.186   2.062 -0.4066 -1.2385  0.2376
  547MOL0     C73777   9.653  11.198   1.938 -0.1521 -0.2880  0.2447
  547MOL0     H73778   9.082  11.246   1.802 -4.8707 -0.5023 -1.5511
  547MOL0     H73779   8.928  11.288   1.606 -0.6138  0.8626 -0.5670
  547MOL0     H73780   8.895  11.305   1.216  1.3912  0.2358 -2.2010
  547MOL0     H73781   9.070  11.311   1.229  3.1310 -2.5448  4.0400
  547MOL0     H73782   9.056  11.120   1.398 -2.8581 -2.2566  2.8777
  547MOL0     H73783   8.890  11.155   1.421  0.0364  4.0032  0.1377
  547MOL0     H73784   8.863  11.081   1.167  0.5312 -0.2581 -0.2876
  547MOL0     H73785   9.039  11.069   1.166  2.1704 -0.1977  2.3416
  547MOL0     H73786   8.936  10.842   1.180 -2.8955  0.4270 -0.3002
  547MOL0     H73787   9.032  10.894   1.332 -0.5069  1.0111  0.0465
  547MOL0     H73788   8.835  10.762   1.386  0.0737  0.2407 -0.3421
  547MOL0     H73789   8.825  10.928   1.443  1.5294  0.7301 -1.4774
  547MOL0     H73790   8.612  10.870   1.359  0.6520  2.6315  1.5248
  547MOL0     H73791   8.690  10.981   1.235  3.8755  0.4695  0.5818
  547MOL0     H73792   8.726  10.786   1.092 -0.7809  3.2822 -1.6697
  547MOL0     H73793   8.663  10.688   1.234 -4.9712 -1.5940 -2.4121
  547MOL0     H73794   8.502  10.715   1.050  0.5948  0.9234 -1.7627
  547MOL0     H73795   8.515  10.890   1.044  0.2024 -1.5334 -0.9810
  547MOL0     H73796   8.416  11.025   1.270  0.5483 -0.3483 -3.7010
  547MOL0     H73797   8.066  10.901   1.454 -0.5156  0.7646  4.6998
  547MOL0     H73798   8.213  10.948   1.541  1.1781  1.1177 -1.8474
  547MOL0     H73799   8.022  11.123   1.439 -0.8041  1.2575 -1.0486
  547MOL0     H73800   8.139  11.142   1.307 -1.8840  1.3511  0.4469
  547MOL0     H73801   8.301  11.204   1.447 -0.9252 -2.7639 -2.8461
  547MOL0     H73802   8.201  11.160   1.584 -2.8365 -1.2935 -0.2233
  547MOL0     H73803   8.050  11.353   1.529 -0.3733  0.8962 -0.8819
  547MOL0     H73804   8.133  11.385   1.375  1.4173  1.9487  0.3378
  547MOL0     H73805   8.311  11.596   1.750 -0.2732 -2.2777 -2.3079
  547MOL0     H73806   8.201  11.804   1.945 -0.9850  0.0041 -0.8687
  547MOL0     H73807   8.354  11.790   1.871 -1.0875 -2.3366 -0.3622
  547MOL0     H73808   8.266  11.942   1.851  0.6321 -0.1888  3.8479
  547MOL0     H73809   7.886  12.145   1.483 -2.4788 -1.0021 -0.8360
  547MOL0     H73810   7.771  12.352   1.491  0.8077 -4.9812 -2.5458
  547MOL0     H73811   7.672  12.513   1.886 -0.0925 -2.2388 -0.0524
  547MOL0     H73812   7.795  12.579   1.769 -0.9055 -0.0303 -0.3555
  547MOL0     H73813   7.618  12.739   1.671 -1.2592 -1.8889 -2.3406
  547MOL0     H73814   7.509  12.667   1.764 -0.2116 -0.4129 -1.7112
  547MOL0     H73815   7.764  12.797   1.901 -0.0999 -2.1632  1.8361
  547MOL0     H73816   7.624  12.750   1.977 -1.6815  0.9678  0.5454
  547MOL0     H73817   7.570  12.962   1.774 -3.6449 -2.2241 -0.8184
  547MOL0     H73818   7.465  12.905   1.894 -0.7431  1.1198 -2.5258
  547MOL0     H73819   7.737  13.023   1.988 -1.8509 -1.2314  3.9685
  547MOL0     H73820   7.592  13.006   2.062  2.5207 -1.8581  2.0700
  547MOL0     H73821   7.634  13.196   1.823  1.1560  1.0917  0.1847
  547MOL0     H73822   7.479  13.170   1.877  1.2968  1.2148 -0.4746
  547MOL0     H73823   7.537  13.266   2.110 -2.1851  1.6171 -0.5625
  547MOL0     H73824   7.542  13.369   1.992 -0.6398 -0.3688  1.2241
  547MOL0     H73825   7.796  13.217   2.059  0.3756 -0.9409 -3.3847
  547MOL0     H73826   7.760  13.376   2.128 -0.6857  0.7876 -0.7448
  547MOL0     H73827   7.656  12.286   1.901 -0.1421  1.7752 -0.7374
  547MOL0     H73828   7.778  12.077   1.893  0.8685  0.8421  0.7159
  547MOL0     H73829   7.953  11.826   1.496  1.1552  0.4495 -1.6974
  547MOL0     H73830   8.049  11.588   1.413  1.5149  0.8518 -0.4650
  547MOL0     H73831   9.248  11.441   1.374  0.0563 -1.9958 -1.0088
  547MOL0     H73832   9.394  11.401   1.562 -1.9469  3.7187  2.8758
  547MOL0     H73833   9.371  11.352   2.043 -1.1709 -1.0323  3.3695
  547MOL0     H73834   9.489  11.344   2.261 -0.5964 -2.5093  0.9614
  547MOL0     H73835   9.860  11.103   2.318  1.4937 -1.3027  2.8792
  547MOL0     H73836   9.936  11.262   2.271  1.9245 -0.8243  0.7767
  547MOL0     H73837   9.994  11.199   2.510  0.0552  0.0409  1.2061
  547MOL0     H73838   9.820  11.190   2.544  1.1944 -1.5859  0.9843
  547MOL0     H73839   9.820  11.433   2.446  1.4227 -2.5622 -2.4157
  547MOL0     H73840   9.987  11.448   2.475 -0.2716  2.1345  2.6163
  547MOL0     H73841   9.896  11.543   2.661 -1.1737  0.1967 -0.4580
  547MOL0     H73842   9.944  11.383   2.712  0.3443 -1.8724 -1.9276
  547MOL0     H73843   9.532  11.356   2.789 -1.4754 -2.8112 -2.3790
  547MOL0     H73844   9.815  11.143   2.065 -0.1144 -1.0460 -3.3160
  547MOL0     H73845   9.690  11.168   1.840  0.9315  3.9832 -0.8907
  548MOL0     O73846   6.202   9.344  10.854 -0.1571  1.0805 -0.0109
  548MOL0     C73847   6.156   9.334  10.742  0.7639 -0.5239 -0.3909
  548MOL0     O73848   6.085   9.426  10.681 -0.2130 -0.4213  0.4036
  548MOL0     C73849   5.991   9.512  10.749  0.3457 -0.4748  0.1370
  548MOL0     C73850   5.917   9.607  10.674 -0.4123 -0.1666 -0.4103
  548MOL0     C73851   5.834   9.700  10.723 -0.1572 -0.1648 -0.4104
  548MOL0     C73852   5.800   9.694  10.858 -0.4198  0.3900 -0.3829
  548MOL0     O73853   5.717   9.777  10.923 -0.1144 -0.3078 -0.0136
  548MOL0     C73854   5.648   9.878  10.852  0.1617  0.9692  1.0787
  548MOL0     C73855   5.566   9.953  10.952 -0.5104 -0.2983  0.0297
  548MOL0     C73856   5.491  10.084  10.902 -0.3026  0.3862 -0.3897
  548MOL0     C73857   5.416  10.054  10.772 -0.1998  0.4386 -0.0755
  548MOL0     C73858   5.316   9.944  10.795  0.9365 -0.6728  0.2377
  548MOL0     C73859   5.226   9.929  10.668 -0.2481 -0.2237  0.4710
  548MOL0     C73860   5.291   9.859  10.554  0.1417 -0.4376 -0.1347
  548MOL0     C73861   5.196   9.787  10.463  0.4161  0.0897  0.4858
  548MOL0     N73862   5.106   9.882  10.404 -0.2195  0.4557  0.6778
  548MOL0     C73863   4.978   9.922  10.433  1.1487  1.0038  0.1317
  548MOL0     C73864   4.950  10.011  10.334 -0.5261 -0.4627  0.0386
  548MOL0     C73865   4.816  10.073  10.322  0.5258  0.1186  0.0002
  548MOL0     C73866   4.793  10.217  10.383  1.0689 -0.5420  0.5217
  548MOL0     C73867   4.657  10.272  10.336 -0.3388 -0.5484  0.1207
  548MOL0     C73868   4.541  10.258  10.439  0.2246 -0.5947  0.9470
  548MOL0     O73869   4.517  10.117  10.458 -0.6002  0.5686  0.0666
  548MOL0     C73870   4.436  10.044  10.368 -0.1220 -0.7087  0.1159
  548MOL0     C73871   4.408   9.911  10.403  0.5562 -0.0555  0.2582
  548MOL0     C73872   4.354   9.817  10.325  0.1442  0.0375  0.1158
  548MOL0     C73873   4.323   9.681  10.402 -0.0059  0.0337  0.3582
  548MOL0     C73874   4.309   9.857  10.189  0.0144  0.3129 -1.1516
  548MOL0     C73875   4.226   9.770  10.100 -1.4164 -0.4081 -0.4173
  548MOL0     O73876   4.183   9.654  10.159  1.1203 -0.2779 -0.9226
  548MOL0     C73877   4.054   9.618  10.122 -0.1648  0.3677 -0.0918
  548MOL0     C73878   4.022   9.537  10.019  0.5706  0.3242  1.2002
  548MOL0     C73879   3.890   9.498   9.999 -0.1101  0.6061  0.0412
  548MOL0     C73880   3.791   9.511  10.105 -0.5206  0.5043  0.3100
  548MOL0     O73881   3.660   9.468  10.103  0.2292  0.2111 -0.9101
  548MOL0     C73882   3.623   9.351  10.029  0.3147 -0.2159 -0.1860
  548MOL0     C73883   3.482   9.307  10.078 -0.1245 -1.0761 -0.2953
  548MOL0     C73884   3.411   9.190   9.993 -0.0958 -0.1753 -0.4917
  548MOL0     C73885   3.273   9.171  10.052 -0.6950  0.5639  0.3169
  548MOL0     C73886   3.169   9.264   9.978  0.0681 -0.2004 -0.4089
  548MOL0     C73887   3.038   9.261  10.063  0.2176  1.0806  0.3142
  548MOL0     C73888   2.929   9.364  10.019  0.1145  0.2529  0.0688
  548MOL0     C73889   2.831   9.288   9.922 -0.4810 -1.0738  0.3373
  548MOL0    Cl73890   2.881   9.320   9.753  0.0783 -0.1514 -0.0460
  548MOL0     C73891   3.827   9.588  10.222 -0.4162  0.2252  0.1908
  548MOL0     C73892   3.963   9.636  10.228  0.4365  0.0961 -0.6330
  548MOL0     O73893   4.193   9.822   9.997  0.6710 -0.0961  0.4080
  548MOL0     C73894   4.339   9.998  10.151  0.5415 -0.9953 -0.5448
  548MOL0     C73895   4.399  10.090  10.243  0.5135  1.1720  0.6929
  548MOL0     N73896   5.057  10.034  10.259 -0.7444 -0.4886  0.3199
  548MOL0     N73897   5.146   9.952  10.291 -1.1061 -0.0059 -0.3099
  548MOL0     C73898   5.884   9.621  10.946  0.7091  0.2544  0.7246
  548MOL0     C73899   5.973   9.525  10.890 -0.1172 -0.7069 -0.4060
  548MOL0     C73900   6.181   9.213  10.665  0.0783  0.7323 -0.7620
  548MOL0     C73901   6.217   9.088  10.729  0.0216 -0.9114  0.9446
  548MOL0     C73902   6.226   8.966  10.652  0.0820 -0.7244  1.3940
  548MOL0     C73903   6.174   8.969  10.516 -0.2585 -0.0692 -0.5479
  548MOL0     O73904   6.167   8.852  10.440 -0.2321 -0.5996  0.4598
  548MOL0     C73905   6.172   8.723  10.492  0.1987 -0.3487  0.4244
  548MOL0     C73906   6.267   8.638  10.415 -0.7629  0.4355  0.6491
  548MOL0     C73907   6.226   8.615  10.270  0.2100 -0.6923 -0.0087
  548MOL0     C73908   6.097   8.552  10.248  0.9281  0.1262 -0.5332
  548MOL0     C73909   6.097   8.415  10.285  0.6997  0.1435 -0.8341
  548MOL0     C73910   6.097   8.291  10.298 -0.0487 -1.1486  0.1202
  548MOL0     C73911   6.141   9.088  10.455 -0.2555  0.0944 -0.7120
  548MOL0     C73912   6.136   9.202  10.528 -0.2071  0.1017  0.2102
  548MOL0     H73913   5.954   9.627  10.573 -0.0948 -3.1477 -0.9856
  548MOL0     H73914   5.799   9.774  10.652  0.0256 -0.0640 -0.3971
  548MOL0     H73915   5.716   9.937  10.790 -0.8351 -0.1261 -1.1756
  548MOL0     H73916   5.587   9.833  10.774  0.0760 -0.5706  2.0040
  548MOL0     H73917   5.494   9.889  11.004 -0.0961  0.3604  1.4572
  548MOL0     H73918   5.630   9.979  11.037  1.3242  3.4218 -2.2500
  548MOL0     H73919   5.428  10.126  10.981  0.3476 -1.4074  1.1602
  548MOL0     H73920   5.559  10.163  10.871 -2.9456  2.3412 -1.5877
  548MOL0     H73921   5.372  10.148  10.737  2.8623  1.8555 -0.3918
  548MOL0     H73922   5.483  10.025  10.690 -0.6549 -0.3289 -0.1837
  548MOL0     H73923   5.368   9.852  10.825  2.6948  0.3634  0.4999
  548MOL0     H73924   5.245   9.977  10.871  1.1271  1.8583 -0.6155
  548MOL0     H73925   5.137   9.874  10.699 -3.0293  2.1159 -2.6379
  548MOL0     H73926   5.185  10.023  10.629  2.7001  0.2593 -1.8565
  548MOL0     H73927   5.349   9.931  10.495  0.6893 -1.4378 -0.8388
  548MOL0     H73928   5.367   9.789  10.590  2.1288  1.2808 -0.7755
  548MOL0     H73929   5.143   9.720  10.532  1.6632 -1.3821  0.0881
  548MOL0     H73930   5.257   9.727  10.394 -0.4692 -1.7895  1.2774
  548MOL0     H73931   4.909   9.878  10.505 -1.1206  0.8976 -1.9551
  548MOL0     H73932   4.787  10.070  10.216  0.8778  0.9464 -0.1281
  548MOL0     H73933   4.740  10.019  10.379  0.6644  0.5022  0.5614
  548MOL0     H73934   4.870  10.285  10.346 -1.3896  0.3383 -3.6894
  548MOL0     H73935   4.793  10.208  10.492 -1.8580  1.4231  0.7868
  548MOL0     H73936   4.625  10.229  10.241 -2.4874  2.0072 -0.4394
  548MOL0     H73937   4.675  10.378  10.316 -1.9392  0.7720  4.4357
  548MOL0     H73938   4.448  10.304  10.403  1.4475  0.3545 -1.1794
  548MOL0     H73939   4.569  10.303  10.534  1.8166  1.1114 -0.2669
  548MOL0     H73940   4.449   9.891  10.501  1.0762 -2.3222 -0.3645
  548MOL0     H73941   4.386   9.679  10.492  1.1421 -1.5922 -0.4469
  548MOL0     H73942   4.216   9.670  10.421 -0.5113  0.9356 -1.7093
  548MOL0     H73943   4.358   9.595  10.345  0.9934  0.6678 -0.0263
  548MOL0     H73944   4.105   9.508   9.955  1.8088  0.5050  2.6868
  548MOL0     H73945   3.856   9.461   9.902  0.8067  1.2006 -0.5216
  548MOL0     H73946   3.623   9.378   9.923  0.9359 -1.1062 -0.4168
  548MOL0     H73947   3.701   9.275  10.037  1.0681  0.7067  2.0769
  548MOL0     H73948   3.488   9.268  10.181 -0.7213 -0.6280 -0.0851
  548MOL0     H73949   3.415   9.393  10.075 -0.4353 -1.3394 -2.8205
  548MOL0     H73950   3.474   9.101  10.006  1.1497  0.7209 -0.2799
  548MOL0     H73951   3.403   9.210   9.885 -2.0322  1.2364 -0.1346
  548MOL0     H73952   3.248   9.067  10.029  1.4791 -0.1458  0.9233
  548MOL0     H73953   3.272   9.184  10.161  0.0251  0.3315  0.3537
  548MOL0     H73954   3.167   9.250   9.870 -4.0917 -1.3233 -0.3773
  548MOL0     H73955   3.206   9.366   9.993  2.5002 -1.1895  0.9030
  548MOL0     H73956   2.987   9.165  10.065  0.2132  0.9936 -1.6592
  548MOL0     H73957   3.062   9.291  10.165 -2.2636  2.0769  0.6646
  548MOL0     H73958   2.965   9.462   9.989  0.4178 -0.4817 -2.1389
  548MOL0     H73959   2.873   9.381  10.112  2.8651  0.0461  1.8858
  548MOL0     H73960   2.728   9.314   9.945  0.2681  1.4334  1.2056
  548MOL0     H73961   2.837   9.179   9.925 -0.8858 -1.1723 -1.3465
  548MOL0     H73962   3.763   9.592  10.310  0.7879  1.2470  1.0548
  548MOL0     H73963   3.995   9.688  10.318  2.1832  1.0008 -1.7256
  548MOL0     H73964   4.299  10.036  10.057 -0.7456 -0.8075  0.0563
  548MOL0     H73965   4.416  10.195  10.219  1.6399  1.1252  1.2149
  548MOL0     H73966   5.883   9.642  11.052 -1.4459 -1.9932  1.2459
  548MOL0     H73967   6.038   9.471  10.957  1.0603 -0.1519 -1.0713
  548MOL0     H73968   6.248   9.080  10.833  0.7286 -2.0414  0.6651
  548MOL0     H73969   6.282   8.886  10.699  3.1737  0.6770  0.3441
  548MOL0     H73970   6.214   8.726  10.593 -1.0459  4.1769  1.0774
  548MOL0     H73971   6.067   8.692  10.483  0.2909 -1.2376  2.0278
  548MOL0     H73972   6.263   8.543  10.468  0.6171 -1.3948 -2.3419
  548MOL0     H73973   6.370   8.673  10.428  0.1390 -1.6769 -0.4696
  548MOL0     H73974   6.299   8.542  10.236  0.9942 -1.0991  2.3638
  548MOL0     H73975   6.228   8.710  10.215  0.8851  0.2417  1.5591
  548MOL0     H73976   6.069   8.543  10.143 -0.3286  2.0364 -0.4127
  548MOL0     H73977   6.010   8.588  10.305  0.3761 -5.4890  3.0046
  548MOL0     H73978   6.084   8.185  10.310  1.1626 -1.3707 -0.3412
  548MOL0     H73979   6.097   9.092  10.356 -6.5766  0.1648  1.6353
  548MOL0     H73980   6.097   9.291  10.479  2.0845  2.4562  2.3148
  549MOL0     O73981   6.042   8.948   1.182 -0.0625  0.0618 -0.2073
  549MOL0     C73982   6.157   8.898   1.156 -0.2722 -0.5848  0.5071
  549MOL0     O73983   6.180   8.795   1.073  0.2618  0.4713  0.4985
  549MOL0     C73984   6.076   8.704   1.053 -0.1693 -0.0109 -0.2708
  549MOL0     C73985   5.978   8.725   0.953  0.1216 -0.2066 -0.4141
  549MOL0     C73986   5.887   8.624   0.924 -0.0248  0.6427  0.3303
  549MOL0     C73987   5.870   8.505   1.012 -0.3181  0.2041 -0.4426
  549MOL0     O73988   5.783   8.407   1.005  0.6866  0.7415 -0.6294
  549MOL0     C73989   5.676   8.415   0.913 -0.6699  0.3849 -0.0334
  549MOL0     C73990   5.620   8.275   0.919  0.1564  0.0445 -0.4456
  549MOL0     C73991   5.541   8.230   1.043  0.0584 -0.7626 -0.9254
  549MOL0     C73992   5.483   8.087   1.041 -0.2273 -0.4944  1.0866
  549MOL0     C73993   5.536   7.996   1.159  0.4899 -0.3376 -0.4942
  549MOL0     C73994   5.479   8.011   1.295 -0.8871 -0.3014  0.5791
  549MOL0     C73995   5.327   8.008   1.280  0.1015  0.1266  0.0116
  549MOL0     C73996   5.272   7.871   1.222  0.1123 -0.0136  0.3665
  549MOL0     N73997   5.126   7.859   1.248  0.4227  0.1342 -0.1859
  549MOL0     C73998   5.069   7.788   1.353  0.6397  1.0724 -0.4538
  549MOL0     C73999   4.935   7.822   1.347  0.2066 -0.0296 -0.1216
  549MOL0     C74000   4.824   7.763   1.434 -0.1421  0.3089 -0.1196
  549MOL0     C74001   4.767   7.627   1.371 -0.8326  0.5552 -0.0306
  549MOL0     C74002   4.641   7.570   1.449 -0.7197  0.3808  1.0177
  549MOL0     C74003   4.649   7.575   1.607 -0.5604 -0.6903  0.2991
  549MOL0     O74004   4.750   7.488   1.650 -0.9917  0.0554 -0.2156
  549MOL0     C74005   4.800   7.477   1.781  0.0647 -0.8914 -0.1032
  549MOL0     C74006   4.767   7.563   1.879  1.1871 -0.1344  0.6062
  549MOL0     C74007   4.788   7.546   2.016 -0.6646 -0.1818 -0.5936
  549MOL0     C74008   4.744   7.651   2.120  0.8429 -0.0035  0.1534
  549MOL0     C74009   4.863   7.427   2.052 -0.1590  0.0849 -1.1607
  549MOL0     C74010   4.921   7.409   2.189  0.1037  0.0149  0.5434
  549MOL0     O74011   5.045   7.356   2.198 -0.7437 -0.7426 -0.3571
  549MOL0     C74012   5.104   7.368   2.330  0.1753  0.2439  0.4700
  549MOL0     C74013   5.147   7.255   2.402  0.8348 -0.2793 -0.2162
  549MOL0     C74014   5.228   7.271   2.515  0.1484  0.3583 -0.6837
  549MOL0     C74015   5.250   7.404   2.562  0.6499  0.4842  0.1145
  549MOL0     O74016   5.337   7.431   2.661 -0.4208 -0.6573 -0.5209
  549MOL0     C74017   5.352   7.343   2.773  0.2197 -0.2470 -0.5703
  549MOL0     C74018   5.436   7.415   2.877 -0.0896  0.1093  0.8040
  549MOL0     C74019   5.418   7.377   3.026 -0.3699 -1.0212  0.3957
  549MOL0     C74020   5.461   7.494   3.121 -0.7580 -0.1482  0.3562
  549MOL0     C74021   5.449   7.448   3.260 -0.1884 -0.1142 -0.6307
  549MOL0     C74022   5.316   7.385   3.287  0.4452 -0.4294 -0.5416
  549MOL0     C74023   5.266   7.391   3.433 -0.1303 -0.2358  0.5718
  549MOL0     C74024   5.115   7.375   3.429 -0.1739 -0.4943  0.1578
  549MOL0    Cl74025   5.086   7.209   3.356 -0.0163  0.0748 -0.3064
  549MOL0     C74026   5.206   7.513   2.490  0.9779  0.2382  0.6871
  549MOL0     C74027   5.133   7.497   2.372  0.2735 -0.4814 -0.3542
  549MOL0     O74028   4.845   7.431   2.284  0.2308  0.4383  0.7256
  549MOL0     C74029   4.901   7.337   1.952 -0.3011 -0.3641  0.4333
  549MOL0     C74030   4.874   7.368   1.816  0.2264 -0.4847  0.6952
  549MOL0     N74031   4.918   7.908   1.241 -0.5857 -0.5347  0.2811
  549MOL0     N74032   5.030   7.930   1.184 -0.1785  0.9637 -0.6990
  549MOL0     C74033   5.970   8.485   1.100  0.0382 -0.6217  0.1148
  549MOL0     C74034   6.069   8.584   1.127  0.7120  0.6731  1.7195
  549MOL0     C74035   6.275   8.948   1.225 -0.3042 -0.3213 -0.1723
  549MOL0     C74036   6.279   9.065   1.301  0.7093  0.3837  0.0504
  549MOL0     C74037   6.389   9.091   1.383  0.4815 -0.8450 -0.3215
  549MOL0     C74038   6.496   9.002   1.400 -0.1157  0.1115 -0.6264
  549MOL0     O74039   6.603   9.010   1.486 -0.0088  0.1971  0.1723
  549MOL0     C74040   6.586   9.082   1.604 -0.4455 -0.7886 -0.5535
  549MOL0     C74041   6.689   9.056   1.706  1.1020  0.0867 -0.2321
  549MOL0     C74042   6.643   8.965   1.827 -0.4339  1.6047  0.1730
  549MOL0     C74043   6.639   8.814   1.788  0.5072 -0.7593 -0.4918
  549MOL0     C74044   6.610   8.739   1.914 -0.0663  0.4878  0.4854
  549MOL0     C74045   6.601   8.671   2.015  0.6494 -1.1382 -0.5952
  549MOL0     C74046   6.507   8.894   1.315  0.0446  0.1883  0.3529
  549MOL0     C74047   6.401   8.875   1.225  0.5531  0.5593  0.6411
  549MOL0     H74048   5.986   8.819   0.900  0.8044  0.6746  1.1597
  549MOL0     H74049   5.825   8.620   0.834  0.2580  0.0999  0.1570
  549MOL0     H74050   5.600   8.492   0.928 -0.4299  1.0297 -1.9562
  549MOL0     H74051   5.714   8.436   0.813 -2.9572 -0.9016 -1.2308
  549MOL0     H74052   5.549   8.280   0.837 -2.4698 -0.6506  1.6282
  549MOL0     H74053   5.694   8.203   0.883 -0.0025  0.8401 -2.4426
  549MOL0     H74054   5.613   8.240   1.124  1.2177 -3.0519 -1.6140
  549MOL0     H74055   5.458   8.301   1.057 -2.4377 -3.6631  0.0076
  549MOL0     H74056   5.374   8.075   1.038 -0.0841 -1.8859 -1.3611
  549MOL0     H74057   5.511   8.036   0.948  0.7876 -1.0514  1.6800
  549MOL0     H74058   5.514   7.892   1.132 -1.0406 -0.6264  1.5401
  549MOL0     H74059   5.641   8.024   1.172 -0.1168  1.1123  1.9701
  549MOL0     H74060   5.520   7.923   1.345  0.2853  1.1477  2.2297
  549MOL0     H74061   5.505   8.100   1.352  5.4007 -0.0843 -1.8733
  549MOL0     H74062   5.292   8.035   1.380  0.4241 -1.3591  0.5360
  549MOL0     H74063   5.283   8.084   1.214 -0.5212 -1.1059 -1.0177
  549MOL0     H74064   5.323   7.782   1.260 -0.3494 -0.5877 -0.3348
  549MOL0     H74065   5.286   7.871   1.114  0.3815  2.6670  0.3170
  549MOL0     H74066   5.121   7.717   1.416  2.4892  3.0413  0.3925
  549MOL0     H74067   4.870   7.742   1.531 -0.1305  1.1920  0.0744
  549MOL0     H74068   4.746   7.836   1.459 -0.6980  0.3886 -1.9322
  549MOL0     H74069   4.845   7.550   1.371 -1.0586  0.3112  0.8251
  549MOL0     H74070   4.746   7.631   1.264  1.9495 -0.8917 -0.7039
  549MOL0     H74071   4.624   7.467   1.416  0.8074  0.8812 -1.6148
  549MOL0     H74072   4.563   7.636   1.412 -1.0564 -0.7774 -0.4290
  549MOL0     H74073   4.557   7.544   1.657 -1.1157 -1.3080 -1.0518
  549MOL0     H74074   4.663   7.676   1.645  1.7348 -1.0570  0.5404
  549MOL0     H74075   4.713   7.652   1.847  1.2958  0.1386  1.1755
  549MOL0     H74076   4.826   7.684   2.186  3.9565 -1.2089 -2.7831
  549MOL0     H74077   4.704   7.742   2.075  0.2684  0.2737  1.1930
  549MOL0     H74078   4.668   7.612   2.188 -0.9912  4.2102  0.8693
  549MOL0     H74079   5.126   7.154   2.370 -0.8488 -0.0390 -0.0012
  549MOL0     H74080   5.266   7.184   2.567 -1.3566 -1.4622 -2.4340
  549MOL0     H74081   5.253   7.332   2.819  1.2916  2.6457  2.9231
  549MOL0     H74082   5.399   7.249   2.743 -0.7509 -1.0716  0.4357
  549MOL0     H74083   5.540   7.396   2.851 -0.5558 -1.3128 -0.1682
  549MOL0     H74084   5.412   7.521   2.865 -0.7233 -0.1109  0.0511
  549MOL0     H74085   5.484   7.292   3.049  2.4727  1.1149  0.7437
  549MOL0     H74086   5.312   7.357   3.037 -0.2811 -0.5702  2.3384
  549MOL0     H74087   5.562   7.530   3.095 -0.6967  0.1770  1.0266
  549MOL0     H74088   5.401   7.585   3.114 -0.0653  0.7180  3.7366
  549MOL0     H74089   5.455   7.533   3.328  2.9695 -2.7508  2.7646
  549MOL0     H74090   5.532   7.382   3.285 -0.1291  0.2651  0.2069
  549MOL0     H74091   5.242   7.424   3.217  0.6915 -2.6241 -2.1247
  549MOL0     H74092   5.324   7.280   3.256 -2.5368 -0.6998 -0.6412
  549MOL0     H74093   5.296   7.488   3.474 -0.1149 -0.2720  0.6463
  549MOL0     H74094   5.313   7.314   3.495 -1.0277  0.5117  2.2511
  549MOL0     H74095   5.075   7.453   3.363 -0.3471  0.2461  1.1198
  549MOL0     H74096   5.066   7.388   3.525 -1.4897  1.2374 -0.6856
  549MOL0     H74097   5.211   7.612   2.535  3.1051  1.2275 -1.4866
  549MOL0     H74098   5.094   7.584   2.321 -0.7013 -0.4224  0.4622
  549MOL0     H74099   4.957   7.246   1.968  0.6638  0.1077 -0.2011
  549MOL0     H74100   4.899   7.292   1.743 -0.2569  0.9402 -1.0449
  549MOL0     H74101   5.971   8.386   1.143 -5.9578  0.0518  2.7736
  549MOL0     H74102   6.155   8.569   1.192  0.4042  2.9947  2.7661
  549MOL0     H74103   6.193   9.131   1.298 -2.0227 -2.9382 -0.8437
  549MOL0     H74104   6.388   9.180   1.445  0.9557  1.4449 -3.3625
  549MOL0     H74105   6.595   9.190   1.585  1.0011 -0.0845  3.1983
  549MOL0     H74106   6.486   9.069   1.645  1.0838 -1.6687  3.4349
  549MOL0     H74107   6.721   9.158   1.727  1.0454  0.2090 -0.7356
  549MOL0     H74108   6.773   9.007   1.657  1.0146 -0.2237 -0.0759
  549MOL0     H74109   6.541   8.995   1.853 -1.3347 -3.0794  3.1930
  549MOL0     H74110   6.709   8.983   1.913 -0.4131 -0.3468  0.6244
  549MOL0     H74111   6.739   8.777   1.763  0.1522 -5.1004  3.0791
  549MOL0     H74112   6.557   8.803   1.717 -2.1916  0.5315  2.2350
  549MOL0     H74113   6.597   8.612   2.104  3.1615  1.4799  1.4408
  549MOL0     H74114   6.598   8.835   1.310  1.5493  2.4851 -0.7373
  549MOL0     H74115   6.398   8.781   1.170 -0.2470  1.4945 -0.9870
  550MOL0     O74116   3.973   6.936   5.715 -0.0186 -0.7035 -0.1911
  550MOL0     C74117   4.027   6.826   5.736 -0.3646 -0.8759 -0.9749
  550MOL0     O74118   4.003   6.754   5.847  0.6834  1.0275  0.2771
  550MOL0     C74119   3.931   6.810   5.941 -1.2249  0.8690 -0.7207
  550MOL0     C74120   4.001   6.874   6.041 -0.3197  1.5460 -1.5055
  550MOL0     C74121   3.931   6.956   6.136 -0.4996 -0.4692  0.0525
  550MOL0     C74122   3.791   6.960   6.132 -0.0600 -0.0153 -0.5945
  550MOL0     O74123   3.731   7.040   6.230  0.4718 -0.6464  0.8235
  550MOL0     C74124   3.759   7.006   6.365 -0.1895  0.0423 -0.6591
  550MOL0     C74125   3.664   7.065   6.470 -0.9534 -0.3752 -0.0045
  550MOL0     C74126   3.698   7.029   6.607  0.0977 -0.0735 -0.4011
  550MOL0     C74127   3.654   7.141   6.711 -0.4177  0.0147 -0.5952
  550MOL0     C74128   3.685   7.108   6.854 -0.5287  0.5088 -0.0559
  550MOL0     C74129   3.631   7.214   6.959 -0.3107  0.4156 -0.1456
  550MOL0     C74130   3.675   7.193   7.106  0.0755 -0.0203  0.3065
  550MOL0     C74131   3.611   7.085   7.175  0.8209 -0.0378 -0.2189
  550MOL0     N74132   3.600   7.100   7.321 -0.1115 -0.5659 -0.4269
  550MOL0     C74133   3.709   7.095   7.404  0.6173 -0.3911 -0.1331
  550MOL0     C74134   3.653   7.104   7.530  0.3190  0.0650 -0.1515
  550MOL0     C74135   3.744   7.101   7.660  0.7075  0.7647  0.0859
  550MOL0     C74136   3.658   7.115   7.787  0.6301 -0.3881 -0.2916
  550MOL0     C74137   3.567   6.996   7.811  0.0362 -0.3113 -0.1421
  550MOL0     C74138   3.490   6.995   7.944 -0.1855 -0.0786  0.5647
  550MOL0     O74139   3.439   6.860   7.956  0.4699  0.0649 -0.1871
  550MOL0     C74140   3.409   6.834   8.090 -0.7596  0.0735  0.6531
  550MOL0     C74141   3.499   6.779   8.179 -0.0276 -0.5636 -0.1299
  550MOL0     C74142   3.481   6.768   8.322  0.2234  1.2420 -0.0733
  550MOL0     C74143   3.589   6.711   8.408 -0.9540  0.0372  0.2858
  550MOL0     C74144   3.368   6.825   8.375  0.4366 -0.8713 -0.1074
  550MOL0     C74145   3.334   6.835   8.526  0.2517  0.2116 -0.4035
  550MOL0     O74146   3.426   6.793   8.620  0.3309  0.3326  0.1438
  550MOL0     C74147   3.410   6.835   8.748 -0.7445  0.3591 -0.2610
  550MOL0     C74148   3.430   6.743   8.855 -0.2869 -0.0371  1.0249
  550MOL0     C74149   3.449   6.776   8.984  0.2885 -1.0255 -0.8524
  550MOL0     C74150   3.459   6.917   9.011  0.0823 -0.0663 -0.2636
  550MOL0     O74151   3.505   6.967   9.130  0.0705 -0.1399 -0.0385
  550MOL0     C74152   3.562   6.878   9.227 -0.0037 -0.7314 -0.0598
  550MOL0     C74153   3.450   6.841   9.326 -0.2197 -0.8943  0.8207
  550MOL0     C74154   3.378   6.963   9.390  0.3990  0.5677  0.0019
  550MOL0     C74155   3.231   6.964   9.358  0.5532 -0.0285  0.2552
  550MOL0     C74156   3.169   7.093   9.413  0.6840  0.4201  0.5121
  550MOL0     C74157   3.024   7.099   9.364  0.3945 -0.8850 -0.6210
  550MOL0     C74158   2.941   6.978   9.432 -0.3659  0.6633 -0.3688
  550MOL0     C74159   2.785   6.988   9.424  0.3329  0.3061  0.3149
  550MOL0    Cl74160   2.698   6.848   9.498 -0.3572  0.0384  0.0532
  550MOL0     C74161   3.434   7.008   8.918 -1.1510  0.1738  0.1262
  550MOL0     C74162   3.411   6.968   8.785  0.3061  0.3808 -0.0921
  550MOL0     O74163   3.233   6.906   8.546 -0.3146 -0.0031 -0.4493
  550MOL0     C74164   3.284   6.895   8.283 -0.5196 -0.8364  0.2945
  550MOL0     C74165   3.291   6.884   8.141 -0.8883  0.1160 -0.4338
  550MOL0     N74166   3.519   7.127   7.520 -0.2148  0.0569  0.3987
  550MOL0     N74167   3.491   7.138   7.395  0.4799 -0.7429  0.1253
  550MOL0     C74168   3.730   6.895   6.036  0.3524  0.4673  0.4848
  550MOL0     C74169   3.797   6.813   5.940  1.2411  0.8747 -0.5506
  550MOL0     C74170   4.109   6.765   5.631 -1.2103  0.3882  0.2269
  550MOL0     C74171   4.203   6.836   5.555  0.5090  0.2889  0.8476
  550MOL0     C74172   4.263   6.783   5.437 -0.1086  0.3106  0.0987
  550MOL0     C74173   4.249   6.644   5.409 -0.1251  0.5896 -0.6236
  550MOL0     O74174   4.315   6.606   5.294 -0.7118  1.4939  0.6652
  550MOL0     C74175   4.302   6.462   5.252 -1.3922 -0.1960 -0.2858
  550MOL0     C74176   4.167   6.419   5.186  0.3351  0.1413  0.5430
  550MOL0     C74177   4.183   6.282   5.106  0.6835  0.2700 -0.1398
  550MOL0     C74178   4.047   6.219   5.076  0.3528 -0.0848  0.3121
  550MOL0     C74179   4.080   6.098   5.008 -1.2422  0.0402  0.7207
  550MOL0     C74180   4.138   6.007   4.961 -0.5088 -0.2753  1.0812
  550MOL0     C74181   4.168   6.565   5.489 -0.1023  1.0957 -1.4023
  550MOL0     C74182   4.100   6.626   5.597  0.4266  0.1000 -0.4617
  550MOL0     H74183   4.105   6.852   6.061 -0.9103 -0.1043  0.0334
  550MOL0     H74184   3.986   7.012   6.211 -1.7984 -0.0755  0.7332
  550MOL0     H74185   3.739   6.901   6.387  0.3437  0.6808  3.9447
  550MOL0     H74186   3.859   7.040   6.394 -0.2222  0.4791 -1.0502
  550MOL0     H74187   3.671   7.173   6.454  1.2806 -0.7283 -1.7801
  550MOL0     H74188   3.561   7.040   6.442 -0.9555 -0.1989 -0.1550
  550MOL0     H74189   3.650   6.936   6.639  1.1632 -0.1000  1.2439
  550MOL0     H74190   3.807   7.030   6.614  0.3222  0.2019 -3.1836
  550MOL0     H74191   3.700   7.234   6.677  1.6635 -1.4271 -2.0186
  550MOL0     H74192   3.547   7.164   6.710 -0.5798 -0.7072 -1.3856
  550MOL0     H74193   3.629   7.014   6.857  0.3138  0.0269  1.5523
  550MOL0     H74194   3.792   7.092   6.873 -0.1389  2.2537 -0.6190
  550MOL0     H74195   3.649   7.314   6.921  0.5816 -0.6816 -2.8606
  550MOL0     H74196   3.523   7.201   6.956 -0.1104 -1.3463 -1.0886
  550MOL0     H74197   3.783   7.186   7.123  0.5329  0.3840 -1.9645
  550MOL0     H74198   3.640   7.283   7.158  0.6054 -1.0542  2.5510
  550MOL0     H74199   3.656   6.987   7.154  1.3662 -0.5301  2.7668
  550MOL0     H74200   3.508   7.092   7.139  0.2024 -1.5206  1.1350
  550MOL0     H74201   3.812   7.080   7.373  1.3228  0.8756  1.4421
  550MOL0     H74202   3.796   7.005   7.656 -3.2485 -1.5353 -1.1664
  550MOL0     H74203   3.822   7.177   7.647  2.4172 -1.1921 -1.7753
  550MOL0     H74204   3.585   7.197   7.785  0.2604 -0.4466  3.6941
  550MOL0     H74205   3.727   7.133   7.870  0.4576  0.0045 -0.2261
  550MOL0     H74206   3.630   6.907   7.803  1.0234 -0.1076  3.5477
  550MOL0     H74207   3.496   6.991   7.728  0.5090 -0.1466 -0.5644
  550MOL0     H74208   3.404   7.061   7.930 -0.1756 -0.3756 -1.0095
  550MOL0     H74209   3.559   7.020   8.025  0.4457 -1.4321  0.4619
  550MOL0     H74210   3.588   6.728   8.145 -0.2775 -1.8823  1.0742
  550MOL0     H74211   3.549   6.633   8.474  4.6331 -2.8110  0.8995
  550MOL0     H74212   3.666   6.662   8.348  0.6711  2.8899 -0.1150
  550MOL0     H74213   3.631   6.793   8.466 -4.9375  1.2407  1.8105
  550MOL0     H74214   3.446   6.645   8.811  3.2391  0.0489  1.8297
  550MOL0     H74215   3.456   6.705   9.066  1.2833 -0.9097 -0.8301
  550MOL0     H74216   3.601   6.784   9.188 -0.0513 -2.4606  3.6332
  550MOL0     H74217   3.655   6.918   9.270  0.4396 -1.8086 -0.0008
  550MOL0     H74218   3.372   6.776   9.285 -0.1923 -1.5379  1.7788
  550MOL0     H74219   3.494   6.776   9.401 -0.0536 -1.4339  0.2597
  550MOL0     H74220   3.424   7.058   9.363 -0.9358  2.1748  2.8756
  550MOL0     H74221   3.409   6.967   9.495  0.8794 -0.8509 -0.0706
  550MOL0     H74222   3.226   6.965   9.249  1.8002 -0.9508  0.1666
  550MOL0     H74223   3.187   6.869   9.389  1.3172 -0.3870  0.2728
  550MOL0     H74224   3.220   7.175   9.362  1.1494  0.7826  1.5252
  550MOL0     H74225   3.170   7.092   9.522 -1.1910 -0.3974  0.5597
  550MOL0     H74226   2.981   7.196   9.392  0.8978  0.0407 -2.8304
  550MOL0     H74227   3.038   7.096   9.255  2.8337  0.6764 -0.4469
  550MOL0     H74228   2.975   6.970   9.536  0.3047 -2.0493 -0.7118
  550MOL0     H74229   2.971   6.883   9.387  5.3891  1.8940  0.0944
  550MOL0     H74230   2.762   6.987   9.317  4.3416 -1.4874 -0.7082
  550MOL0     H74231   2.755   7.082   9.470  0.0054  0.6485 -0.5688
  550MOL0     H74232   3.432   7.115   8.935  0.9685  0.4755 -1.1617
  550MOL0     H74233   3.412   7.047   8.710 -4.2701  1.1017  0.2781
  550MOL0     H74234   3.190   6.943   8.310  0.1598  0.1302  0.9944
  550MOL0     H74235   3.220   6.918   8.066 -2.1526 -1.9379 -0.2383
  550MOL0     H74236   3.622   6.897   6.033  0.2596 -1.4518  1.0449
  550MOL0     H74237   3.761   6.744   5.864  2.7385 -0.7684  0.1494
  550MOL0     H74238   4.227   6.940   5.572 -0.0831  0.4080  0.9827
  550MOL0     H74239   4.320   6.853   5.376  1.4927 -0.7358  0.3172
  550MOL0     H74240   4.384   6.449   5.181 -0.7050  0.7873  0.2917
  550MOL0     H74241   4.330   6.388   5.327  1.8999 -0.7754 -1.8907
  550MOL0     H74242   4.121   6.485   5.112 -0.8791 -1.7869 -0.4967
  550MOL0     H74243   4.090   6.409   5.264  0.1047 -0.6493  0.2176
  550MOL0     H74244   4.241   6.217   5.172 -3.4452 -1.1081  2.5235
  550MOL0     H74245   4.238   6.309   5.016 -1.2806  0.9641 -1.1832
  550MOL0     H74246   3.986   6.277   5.006  0.6776  0.7429  0.7016
  550MOL0     H74247   4.004   6.203   5.176 -0.6589  2.0340  0.2745
  550MOL0     H74248   4.196   5.924   4.927  0.5467  1.4885 -1.8499
  550MOL0     H74249   4.154   6.462   5.460 -3.5274  0.4467  1.8482
  550MOL0     H74250   4.029   6.566   5.652 -1.2490  1.4304 -1.1092
  551MOL0     O74251   8.267   2.826  11.223 -0.0084  0.1032  0.3900
  551MOL0     C74252   8.219   2.815  11.333  0.3832  0.2946 -1.0182
  551MOL0     O74253   8.119   2.740  11.374  0.2394  0.4976  0.0113
  551MOL0     C74254   8.040   2.668  11.298 -0.4210  0.6504  0.3531
  551MOL0     C74255   8.065   2.625  11.166  0.6406  0.1866  0.1598
  551MOL0     C74256   7.967   2.529  11.118 -0.9906  0.5963 -0.2783
  551MOL0     C74257   7.867   2.465  11.196 -0.3256  1.4406 -1.0236
  551MOL0     O74258   7.782   2.379  11.135 -0.0243  0.8073  0.3293
  551MOL0     C74259   7.657   2.334  11.191 -0.5641  0.0401 -0.5735
  551MOL0     C74260   7.680   2.196  11.261 -0.1417  0.0558  0.1910
  551MOL0     C74261   7.750   2.102  11.168 -0.5835 -0.3057  0.0700
  551MOL0     C74262   7.751   1.959  11.231  0.5736  0.9503  0.1534
  551MOL0     C74263   7.852   1.865  11.146 -0.1712  0.3980 -0.0535
  551MOL0     C74264   7.821   1.828  11.006  0.3551 -0.1347  0.6830
  551MOL0     C74265   7.901   1.720  10.940 -0.9027 -0.2088 -0.0393
  551MOL0     C74266   7.862   1.588  10.999 -0.7954  0.0555 -0.0126
  551MOL0     N74267   7.903   1.475  10.907 -0.0977 -0.4755  0.3801
  551MOL0     C74268   8.045   1.460  10.884  0.0872 -0.2020  0.7363
  551MOL0     C74269   8.049   1.384  10.772 -0.5569  0.0858 -1.9147
  551MOL0     C74270   8.174   1.343  10.694  0.3771 -0.2192  0.0580
  551MOL0     C74271   8.168   1.186  10.696  0.7152  0.0070  0.0056
  551MOL0     C74272   8.305   1.109  10.717 -0.3702  0.0119  0.6858
  551MOL0     C74273   8.286   0.971  10.774  0.6176 -0.0478  0.4261
  551MOL0     O74274   8.265   0.990  10.921  0.1985  0.2053  0.2998
  551MOL0     C74275   8.228   0.876  10.988  0.8424 -0.2330  0.0315
  551MOL0     C74276   8.325   0.801  11.050 -0.6089  0.2019 -0.4042
  551MOL0     C74277   8.293   0.686  11.122  0.5581  0.3382 -0.7790
  551MOL0     C74278   8.410   0.620  11.172  0.5880 -0.0691  0.1428
  551MOL0     C74279   8.155   0.638  11.142  0.5062  0.0136 -0.3380
  551MOL0     C74280   8.116   0.514  11.201 -0.1076  0.0286 -0.5256
  551MOL0     O74281   7.984   0.502  11.245 -0.0590  0.1388  0.1788
  551MOL0     C74282   7.911   0.398  11.296 -0.1119  0.5881  0.3540
  551MOL0     C74283   7.954   0.264  11.317  0.1222 -1.1492 -0.6407
  551MOL0     C74284   7.872   0.169  11.378  0.3773  1.0475 -0.6435
  551MOL0     C74285   7.744   0.199  11.428  0.9019  0.1219 -0.4207
  551MOL0     O74286   7.669   0.101  11.489 -0.2617 -0.2317 -0.5341
  551MOL0     C74287   7.589   0.135  11.600  0.4411 -0.6457  0.5697
  551MOL0     C74288   7.603   0.013  11.692  0.1816  0.0009  0.1399
  551MOL0     C74289   7.475  -0.064  11.699  0.3048  0.7099  0.0734
  551MOL0     C74290   7.357  -0.000  11.779 -0.1232 -0.4654  0.2715
  551MOL0     C74291   7.231  -0.081  11.772 -0.1957  0.7957 -0.1423
  551MOL0     C74292   7.163  -0.078  11.628 -0.0895  1.5240  0.0409
  551MOL0     C74293   7.027  -0.155  11.630 -0.6868  0.4369  0.0058
  551MOL0     C74294   6.909  -0.089  11.714 -0.0154 -0.4262  0.0687
  551MOL0    Cl74295   6.933  -0.105  11.886  0.2450  0.4503  0.6601
  551MOL0     C74296   7.710   0.337  11.420  0.2129 -0.4869  0.1093
  551MOL0     C74297   7.787   0.431  11.353 -0.2001 -0.1809 -0.2920
  551MOL0     O74298   8.204   0.429  11.213  0.5727  0.2541 -0.0466
  551MOL0     C74299   8.058   0.724  11.087 -0.5467  0.5445  0.9759
  551MOL0     C74300   8.092   0.841  11.014 -0.1707 -0.7359  0.7900
  551MOL0     N74301   7.924   1.373  10.726  0.8784  1.4208 -0.9941
  551MOL0     N74302   7.837   1.415  10.808  0.5437  0.6517  0.0011
  551MOL0     C74303   7.845   2.507  11.323 -0.6257  0.7402 -0.1178
  551MOL0     C74304   7.934   2.609  11.373  0.5571 -0.2231  0.2643
  551MOL0     C74305   8.297   2.876  11.444 -0.1881 -0.2482  0.9843
  551MOL0     C74306   8.396   2.971  11.416  0.0374  0.7722  0.7062
  551MOL0     C74307   8.457   3.030  11.518  0.3021  0.4494 -0.1039
  551MOL0     C74308   8.437   2.997  11.655  0.4177 -0.2592  0.6196
  551MOL0     O74309   8.523   3.059  11.741 -0.3559  0.6488 -0.5674
  551MOL0     C74310   8.481   3.055  11.879 -0.6592 -0.9016 -0.6047
  551MOL0     C74311   8.599   3.128  11.961  0.7711  0.0621 -0.3761
  551MOL0     C74312   8.553   3.170  12.109 -0.0951 -1.1974  0.1007
  551MOL0     C74313   8.513   3.057  12.193 -0.0688 -0.2782  0.0666
  551MOL0     C74314   8.538   3.084  12.332  0.1662 -0.6755  0.5758
  551MOL0     C74315   8.562   3.107  12.450  0.3962  0.5566 -0.5608
  551MOL0     C74316   8.339   2.902  11.685  0.1865 -0.2840  1.3687
  551MOL0     C74317   8.265   2.838  11.575  0.6720 -0.6126  0.5625
  551MOL0     H74318   8.128   2.677  11.094  2.5479 -0.6316  1.1623
  551MOL0     H74319   7.965   2.496  11.015 -3.2226 -0.6551  0.0863
  551MOL0     H74320   7.601   2.400  11.259 -1.3633 -0.0699 -1.1034
  551MOL0     H74321   7.595   2.330  11.101  0.6011  0.8995 -1.4369
  551MOL0     H74322   7.744   2.198  11.350 -1.3174 -0.8239  1.0978
  551MOL0     H74323   7.581   2.167  11.298 -0.2254  1.7298  1.3870
  551MOL0     H74324   7.717   2.095  11.063 -1.8091 -0.9473  0.4766
  551MOL0     H74325   7.855   2.132  11.165 -0.7234  0.3350  1.2969
  551MOL0     H74326   7.792   1.969  11.332 -0.0229  1.3752  0.3613
  551MOL0     H74327   7.650   1.917  11.239  0.4517  1.5497  3.2213
  551MOL0     H74328   7.951   1.910  11.152  0.2998 -0.7516  1.5128
  551MOL0     H74329   7.854   1.774  11.207 -0.4569  0.9003  0.7225
  551MOL0     H74330   7.714   1.807  11.005  0.0785  1.1834  0.1737
  551MOL0     H74331   7.832   1.925  10.956 -1.2055  0.5008  1.5185
  551MOL0     H74332   7.885   1.723  10.832  1.2507 -1.0402 -0.4392
  551MOL0     H74333   8.007   1.736  10.961 -0.9018 -0.8728  0.5119
  551MOL0     H74334   7.753   1.582  11.011 -1.1522  0.1142 -2.6714
  551MOL0     H74335   7.898   1.565  11.100  1.7929 -0.1885 -0.9385
  551MOL0     H74336   8.133   1.485  10.942  0.0968  0.7917  0.3029
  551MOL0     H74337   8.178   1.391  10.596 -1.8695  1.3043  0.6291
  551MOL0     H74338   8.258   1.378  10.755 -2.2665 -0.1593  4.0477
  551MOL0     H74339   8.119   1.147  10.606  1.2616 -4.5985  1.4872
  551MOL0     H74340   8.101   1.153  10.776  0.7110  4.2990  2.0668
  551MOL0     H74341   8.366   1.160  10.793 -0.7849 -0.1710  1.1463
  551MOL0     H74342   8.361   1.087  10.625 -1.1749 -3.0805  0.8260
  551MOL0     H74343   8.371   0.906  10.752 -0.5572 -0.4864 -3.6075
  551MOL0     H74344   8.195   0.938  10.723  0.0697  1.3763  0.4462
  551MOL0     H74345   8.430   0.829  11.042 -0.4269 -0.0607  0.7782
  551MOL0     H74346   8.438   0.547  11.095 -0.4790  0.2976 -0.6320
  551MOL0     H74347   8.499   0.680  11.194  1.4497 -2.0657  2.6315
  551MOL0     H74348   8.395   0.563  11.264 -1.6191  3.2279  2.0165
  551MOL0     H74349   8.043   0.232  11.264 -0.4089 -2.3393 -0.8540
  551MOL0     H74350   7.913   0.069  11.375  0.7783  1.2445 -2.2411
  551MOL0     H74351   7.639   0.210  11.662 -0.0756 -0.5363  0.8613
  551MOL0     H74352   7.491   0.164  11.562  1.0482  0.4288 -0.2478
  551MOL0     H74353   7.681  -0.057  11.658 -0.5219 -0.9049  0.3459
  551MOL0     H74354   7.636   0.041  11.792 -1.3477 -2.0572  1.2875
  551MOL0     H74355   7.501  -0.158  11.749 -0.5994 -0.0615 -0.8480
  551MOL0     H74356   7.444  -0.083  11.595  0.8129  2.1714 -0.3675
  551MOL0     H74357   7.393   0.003  11.882 -0.9421 -1.2613  0.6050
  551MOL0     H74358   7.330   0.099  11.741  3.2314 -0.1447 -1.6266
  551MOL0     H74359   7.169  -0.041  11.852 -2.3403 -2.9869  0.3285
  551MOL0     H74360   7.265  -0.180  11.802  0.8252  0.6332 -1.7237
  551MOL0     H74361   7.146   0.025  11.595  0.1448  1.2565 -0.9655
  551MOL0     H74362   7.222  -0.120  11.545 -0.4904  1.1270 -0.0429
  551MOL0     H74363   7.035  -0.257  11.671  2.8452  0.8123  0.5260
  551MOL0     H74364   6.993  -0.177  11.529 -1.0964 -2.7440  0.7177
  551MOL0     H74365   6.811  -0.134  11.698 -0.9229  1.8168 -1.3586
  551MOL0     H74366   6.909   0.016  11.681  4.2276  0.7830  3.0345
  551MOL0     H74367   7.614   0.361  11.465  0.5152  1.4479 -0.1871
  551MOL0     H74368   7.747   0.532  11.356 -1.1832 -0.4670 -2.0728
  551MOL0     H74369   7.953   0.704  11.106 -0.8482  1.8790  0.8223
  551MOL0     H74370   8.004   0.887  10.969 -0.4888 -1.2311  0.8909
  551MOL0     H74371   7.771   2.459  11.386  0.1160 -0.0183  0.1977
  551MOL0     H74372   7.907   2.645  11.472 -1.1576  0.8280 -0.5247
  551MOL0     H74373   8.401   3.007  11.314  0.5522  1.0259  0.8166
  551MOL0     H74374   8.519   3.118  11.510  0.8365  0.3545  2.2027
  551MOL0     H74375   8.395   3.121  11.899 -0.1714 -0.0733 -1.1709
  551MOL0     H74376   8.475   2.954  11.919  0.7818 -0.6139  0.4136
  551MOL0     H74377   8.638   3.215  11.908  0.3559 -2.0870 -4.6224
  551MOL0     H74378   8.690   3.069  11.971  0.0023 -1.2745 -1.0182
  551MOL0     H74379   8.468   3.239  12.108 -0.1520 -1.2518 -1.8629
  551MOL0     H74380   8.640   3.216  12.157 -1.7133 -2.0294  4.3445
  551MOL0     H74381   8.578   2.972  12.173  0.8069  0.9870 -3.0125
  551MOL0     H74382   8.409   3.040  12.165  0.3358  1.8678 -3.2282
  551MOL0     H74383   8.585   3.123  12.553  2.7263 -4.6519  0.0551
  551MOL0     H74384   8.303   2.879  11.785  1.0287  0.5845  1.8855
  551MOL0     H74385   8.191   2.765  11.606  0.9039 -0.7386  0.8239
  552MOL0     O74386   8.616   1.056   3.137 -0.3144 -0.2891 -1.4313
  552MOL0     C74387   8.496   1.036   3.160 -0.4905 -0.7844 -0.1069
  552MOL0     O74388   8.427   0.925   3.126 -0.0222  0.2860 -0.1128
  552MOL0     C74389   8.495   0.805   3.114  0.3716  0.2296  0.4073
  552MOL0     C74390   8.612   0.767   3.174 -0.5059 -0.0298  0.0901
  552MOL0     C74391   8.672   0.644   3.148  0.2465 -0.2334 -0.2035
  552MOL0     C74392   8.607   0.559   3.059 -0.6304  0.2455  0.0941
  552MOL0     O74393   8.652   0.430   3.025  0.2394 -0.4686 -0.3469
  552MOL0     C74394   8.785   0.433   2.965 -1.3926 -0.4028  0.6785
  552MOL0     C74395   8.835   0.295   2.938  0.0918 -0.6609 -0.0064
  552MOL0     C74396   8.973   0.289   2.901 -0.3626  0.0196 -1.2230
  552MOL0     C74397   8.987   0.342   2.761 -0.2908 -0.1908  0.1698
  552MOL0     C74398   9.128   0.347   2.706  0.5777 -0.0480  0.7697
  552MOL0     C74399   9.128   0.407   2.563 -0.2490  0.1388  0.2541
  552MOL0     C74400   9.276   0.403   2.506  0.3673  0.5697 -0.2769
  552MOL0     C74401   9.311   0.447   2.365 -0.4670 -0.7540  0.8181
  552MOL0     N74402   9.232   0.564   2.315 -0.7261 -0.0159  1.2598
  552MOL0     C74403   9.295   0.694   2.288 -0.1352 -0.1300 -0.8386
  552MOL0     C74404   9.187   0.764   2.255  0.6672 -0.2458  0.7358
  552MOL0     C74405   9.194   0.905   2.207  1.0275 -0.9725 -0.0248
  552MOL0     C74406   9.066   0.980   2.220  0.0986 -0.6596 -0.2704
  552MOL0     C74407   9.098   1.127   2.210 -0.6232 -0.4320  0.1357
  552MOL0     C74408   8.975   1.215   2.215  0.4594  0.8193 -0.7492
  552MOL0     O74409   9.020   1.343   2.249  0.9282  0.1202 -0.3516
  552MOL0     C74410   8.921   1.428   2.283 -0.5047 -0.2786  0.1421
  552MOL0     C74411   8.783   1.415   2.256  0.4531 -0.7134  0.7846
  552MOL0     C74412   8.687   1.517   2.273 -0.3722 -1.1622  0.2373
  552MOL0     C74413   8.544   1.488   2.238  0.0277 -0.4025 -0.7704
  552MOL0     C74414   8.733   1.642   2.318 -0.0474 -0.1208 -0.2149
  552MOL0     C74415   8.643   1.758   2.359  0.8296 -0.1312 -0.5235
  552MOL0     O74416   8.706   1.863   2.383 -0.1011 -0.1299 -0.2984
  552MOL0     C74417   8.642   1.984   2.359  0.3255  0.5428  0.4843
  552MOL0     C74418   8.540   1.998   2.261 -0.6400  0.3133 -0.1173
  552MOL0     C74419   8.496   2.127   2.215  0.4311  1.4436  0.8531
  552MOL0     C74420   8.548   2.240   2.272  0.2229  0.3513  0.4397
  552MOL0     O74421   8.513   2.370   2.230  0.7385  0.2405  0.5394
  552MOL0     C74422   8.493   2.383   2.087  0.8381 -0.4036 -0.7290
  552MOL0     C74423   8.519   2.527   2.054  0.6505  0.3850  0.1200
  552MOL0     C74424   8.533   2.545   1.903 -0.6155 -0.8616 -0.5440
  552MOL0     C74425   8.578   2.697   1.852 -0.2201  0.4289 -0.4328
  552MOL0     C74426   8.463   2.792   1.852  0.0412 -0.4003  0.3952
  552MOL0     C74427   8.362   2.767   1.740  0.7960 -0.1783 -0.0318
  552MOL0     C74428   8.237   2.834   1.772 -0.2460 -0.2534  0.7328
  552MOL0     C74429   8.244   2.977   1.789 -0.0421  0.2744  0.0291
  552MOL0    Cl74430   8.080   3.025   1.833  0.1222  0.4047 -0.1048
  552MOL0     C74431   8.643   2.221   2.377 -0.7232  0.1409 -0.1285
  552MOL0     C74432   8.690   2.101   2.409 -0.3739  0.5242  0.3306
  552MOL0     O74433   8.529   1.739   2.399 -0.0731  0.0517 -0.1422
  552MOL0     C74434   8.871   1.658   2.347  0.5224  0.9472 -0.1855
  552MOL0     C74435   8.959   1.547   2.333 -0.7798 -0.1896 -0.0787
  552MOL0     N74436   9.073   0.682   2.241 -0.4725 -0.3387  0.2901
  552MOL0     N74437   9.108   0.567   2.265 -0.5405  0.2834  0.3631
  552MOL0     C74438   8.484   0.588   3.009  0.3520  0.4278  0.3868
  552MOL0     C74439   8.425   0.708   3.031  0.1372 -0.7663  0.5955
  552MOL0     C74440   8.421   1.165   3.191 -0.2690 -0.5486  0.3335
  552MOL0     C74441   8.475   1.280   3.258 -1.0124 -0.6049  0.4256
  552MOL0     C74442   8.394   1.380   3.303  1.1941 -0.9509  1.0467
  552MOL0     C74443   8.257   1.376   3.288  0.3469 -0.3814  0.3660
  552MOL0     O74444   8.157   1.456   3.352 -0.3289 -0.7025  0.4031
  552MOL0     C74445   8.161   1.596   3.347  0.2960  0.1604  0.2137
  552MOL0     C74446   8.120   1.640   3.204 -0.6727 -0.2714  0.0666
  552MOL0     C74447   8.052   1.775   3.188 -1.8335 -0.2996  0.0939
  552MOL0     C74448   7.953   1.757   3.072 -0.3871 -0.2089  0.2074
  552MOL0     C74449   8.005   1.738   2.937  0.1606  1.0734  0.9405
  552MOL0     C74450   8.026   1.738   2.818  0.5690  0.4038  0.1968
  552MOL0     C74451   8.206   1.266   3.223 -0.2595  0.1220  0.0784
  552MOL0     C74452   8.291   1.166   3.167 -0.4329 -0.4189  0.0743
  552MOL0     H74453   8.656   0.842   3.239 -3.1968  3.2657 -1.5765
  552MOL0     H74454   8.747   0.598   3.214 -1.1990 -2.3322  0.0865
  552MOL0     H74455   8.793   0.495   2.875  0.0004 -2.7933 -0.9551
  552MOL0     H74456   8.853   0.478   3.039 -0.3721  0.2198 -0.6036
  552MOL0     H74457   8.802   0.234   3.023 -1.6364 -1.6060 -1.2930
  552MOL0     H74458   8.773   0.251   2.860 -1.1426 -2.4405  1.8628
  552MOL0     H74459   9.045   0.329   2.973 -0.0594 -1.5769 -0.6076
  552MOL0     H74460   8.999   0.184   2.888  1.4124  0.5495 -2.3013
  552MOL0     H74461   8.939   0.272   2.692  2.8214 -3.0920  0.6915
  552MOL0     H74462   8.952   0.443   2.738  3.6582  1.0321 -1.4662
  552MOL0     H74463   9.196   0.398   2.775 -0.0554  2.1658 -0.1566
  552MOL0     H74464   9.159   0.242   2.706  0.2034 -0.3313 -3.2084
  552MOL0     H74465   9.065   0.350   2.493  1.9846 -1.7190 -0.3765
  552MOL0     H74466   9.083   0.506   2.572 -0.2268  0.3133 -1.2096
  552MOL0     H74467   9.332   0.478   2.564  0.4235  1.1961 -1.1153
  552MOL0     H74468   9.318   0.305   2.528 -0.9259  0.3646  1.4311
  552MOL0     H74469   9.311   0.367   2.290  1.3901  0.7662 -0.8867
  552MOL0     H74470   9.416   0.476   2.361 -0.9623  1.0216 -1.6308
  552MOL0     H74471   9.393   0.731   2.317 -1.1976 -0.7998  5.0098
  552MOL0     H74472   9.270   0.949   2.274 -2.2834  1.3340  2.5622
  552MOL0     H74473   9.223   0.916   2.102  1.1408  1.6179  0.1975
  552MOL0     H74474   9.014   0.958   2.314  0.4799  1.2814  0.4481
  552MOL0     H74475   9.000   0.948   2.139  1.0775 -0.3215 -1.2305
  552MOL0     H74476   9.151   1.167   2.123 -2.1858  2.6097  0.4479
  552MOL0     H74477   9.161   1.143   2.298 -1.3363  0.2325  0.5334
  552MOL0     H74478   8.910   1.177   2.295 -1.0254  0.3645 -2.1059
  552MOL0     H74479   8.932   1.204   2.115  1.4427 -0.3291 -1.0653
  552MOL0     H74480   8.741   1.328   2.207  0.6905 -2.5396  3.5822
  552MOL0     H74481   8.489   1.459   2.328 -1.0180  2.8934 -0.2444
  552MOL0     H74482   8.500   1.581   2.202  1.0984  1.3922  2.1529
  552MOL0     H74483   8.522   1.411   2.164 -1.5854 -0.1125 -0.6233
  552MOL0     H74484   8.502   1.905   2.221 -0.0520 -0.7233  1.6381
  552MOL0     H74485   8.414   2.132   2.143  0.3287  0.6783  0.9051
  552MOL0     H74486   8.563   2.317   2.034  1.3564 -0.6890  0.2863
  552MOL0     H74487   8.392   2.347   2.063  0.2327  0.5114  0.3807
  552MOL0     H74488   8.432   2.585   2.087 -1.0414  0.4125 -3.8366
  552MOL0     H74489   8.612   2.565   2.098  1.4757  1.0111 -2.0570
  552MOL0     H74490   8.435   2.514   1.867 -1.7572 -1.7914  2.9282
  552MOL0     H74491   8.608   2.470   1.874  0.1045  0.8948 -3.7710
  552MOL0     H74492   8.660   2.730   1.916 -1.2158 -2.1487  2.4426
  552MOL0     H74493   8.607   2.673   1.749  1.6464 -1.7165  0.4959
  552MOL0     H74494   8.501   2.894   1.840 -1.0594 -0.0254 -0.1276
  552MOL0     H74495   8.416   2.776   1.949  0.4549 -1.2824  0.4554
  552MOL0     H74496   8.405   2.809   1.649  1.2074 -0.7787 -0.1260
  552MOL0     H74497   8.348   2.660   1.718  3.7221 -0.4308 -1.1667
  552MOL0     H74498   8.198   2.791   1.865 -1.6812  0.7646  0.6339
  552MOL0     H74499   8.171   2.804   1.690  0.0586 -0.3404  0.5181
  552MOL0     H74500   8.267   3.010   1.687  2.1246 -1.6019 -0.1787
  552MOL0     H74501   8.323   3.007   1.858 -1.8914  2.1134  1.5081
  552MOL0     H74502   8.680   2.307   2.432  1.0943 -0.7907  0.1795
  552MOL0     H74503   8.770   2.090   2.483  1.0692  1.3570 -1.0509
  552MOL0     H74504   8.917   1.750   2.381  0.2144  2.5506 -3.5921
  552MOL0     H74505   9.051   1.541   2.391 -0.4067 -1.2742 -0.7613
  552MOL0     H74506   8.433   0.517   2.944  0.9393  1.5452 -1.3674
  552MOL0     H74507   8.338   0.744   2.977  1.9618 -0.8321 -2.6963
  552MOL0     H74508   8.579   1.270   3.287 -0.8393 -2.0621 -0.5420
  552MOL0     H74509   8.438   1.459   3.363 -1.8187  1.6501  0.1283
  552MOL0     H74510   8.073   1.622   3.406  0.3249 -0.1906  0.4193
  552MOL0     H74511   8.256   1.637   3.381 -1.8812  3.6797  2.6913
  552MOL0     H74512   8.044   1.564   3.183 -0.0016 -1.5530  1.9690
  552MOL0     H74513   8.204   1.620   3.137  0.7855  0.4466  1.6097
  552MOL0     H74514   8.131   1.851   3.179 -1.5283 -0.5388  0.7121
  552MOL0     H74515   7.988   1.795   3.274 -1.7758 -0.4669  0.1743
  552MOL0     H74516   7.916   1.859   3.086  2.9670  0.8452  2.6708
  552MOL0     H74517   7.871   1.689   3.095 -0.3923  0.4104  2.1798
  552MOL0     H74518   8.049   1.747   2.714 -1.5523 -3.7454 -0.8429
  552MOL0     H74519   8.100   1.246   3.216 -0.6566  2.3000 -1.1228
  552MOL0     H74520   8.250   1.071   3.131  2.9534 -1.7312 -0.6957
  553MOL0     O74521   7.872   0.031   9.242  0.0523  0.1028  0.1288
  553MOL0     C74522   7.912   0.072   9.349 -0.1493  0.7658 -0.0651
  553MOL0     O74523   8.006   0.154   9.365  0.1587 -0.8669  0.1550
  553MOL0     C74524   8.011   0.275   9.292 -0.0199  0.0328  0.1590
  553MOL0     C74525   8.128   0.346   9.293  0.4017  0.1054  0.4773
  553MOL0     C74526   8.132   0.466   9.236 -0.7319  0.0081  1.3603
  553MOL0     C74527   8.019   0.532   9.180  0.1762 -0.2514 -0.3754
  553MOL0     O74528   8.033   0.643   9.105 -0.2859  0.3673  0.1774
  553MOL0     C74529   7.934   0.751   9.102 -0.6468 -0.2111 -0.2675
  553MOL0     C74530   7.956   0.854   9.215 -0.3422  0.7592 -0.4785
  553MOL0     C74531   8.095   0.915   9.221  0.1238 -0.1988  0.9050
  553MOL0     C74532   8.164   0.975   9.099  0.0855  0.0892 -0.6846
  553MOL0     C74533   8.308   1.013   9.146 -0.2167 -0.5801  0.2631
  553MOL0     C74534   8.398   0.893   9.195  0.7535  0.6261 -0.9392
  553MOL0     C74535   8.541   0.946   9.249 -0.3284  0.6921  0.2184
  553MOL0     C74536   8.630   1.018   9.146  0.5621 -0.0660  0.5281
  553MOL0     N74537   8.662   0.913   9.048  0.2073  0.0595  0.0542
  553MOL0     C74538   8.598   0.887   8.922  0.2857  0.3004 -0.4453
  553MOL0     C74539   8.666   0.782   8.871  0.5904 -0.5117  0.4886
  553MOL0     C74540   8.626   0.713   8.742 -0.3198 -1.2185 -0.8132
  553MOL0     C74541   8.727   0.718   8.626 -0.2135  0.0688 -0.6057
  553MOL0     C74542   8.666   0.649   8.501  0.1275  0.5167  0.7765
  553MOL0     C74543   8.732   0.691   8.373 -0.8202  0.4266 -0.3860
  553MOL0     O74544   8.665   0.810   8.313 -0.3976 -0.3067 -0.2065
  553MOL0     C74545   8.685   0.828   8.179 -0.1226 -0.2446  0.0530
  553MOL0     C74546   8.567   0.830   8.099 -0.0930  0.2937 -0.0473
  553MOL0     C74547   8.580   0.843   7.957 -0.0500 -0.3830 -0.6426
  553MOL0     C74548   8.455   0.859   7.883  1.2782  0.3823  0.1444
  553MOL0     C74549   8.708   0.845   7.892  0.3360  0.2123  0.2367
  553MOL0     C74550   8.733   0.832   7.746 -0.6394 -0.3552  0.0126
  553MOL0     O74551   8.626   0.849   7.655  0.4334  0.1875 -0.5103
  553MOL0     C74552   8.644   0.851   7.524 -0.5544  0.3909  0.5210
  553MOL0     C74553   8.533   0.838   7.454  0.6405 -0.3388  0.0414
  553MOL0     C74554   8.526   0.840   7.315 -0.0180 -1.1765  0.2546
  553MOL0     C74555   8.649   0.842   7.244  0.5030 -0.3196 -0.5834
  553MOL0     O74556   8.656   0.826   7.110 -0.0766 -0.0671 -0.2930
  553MOL0     C74557   8.556   0.891   7.032  0.0878  0.7814 -0.0022
  553MOL0     C74558   8.626   0.939   6.905  0.4870  0.4431 -0.6863
  553MOL0     C74559   8.542   1.057   6.838  0.7010 -0.0263  0.1954
  553MOL0     C74560   8.598   1.074   6.699  0.1817  0.0744  0.2779
  553MOL0     C74561   8.561   1.209   6.633 -0.4693 -0.5875  0.4647
  553MOL0     C74562   8.657   1.252   6.519  0.3204 -0.1857 -1.0301
  553MOL0     C74563   8.657   1.147   6.406 -0.2237  1.2759 -0.3026
  553MOL0     C74564   8.722   1.189   6.277  0.0534  0.7438  0.3373
  553MOL0    Cl74565   8.896   1.251   6.304  0.7719 -0.0852 -0.2674
  553MOL0     C74566   8.763   0.872   7.314 -0.5554  0.6749  0.4585
  553MOL0     C74567   8.765   0.887   7.458  1.0883  0.1069  0.4776
  553MOL0     O74568   8.856   0.816   7.713  0.3645 -0.9682 -0.1695
  553MOL0     C74569   8.824   0.836   7.980 -0.1272 -0.3821 -0.2082
  553MOL0     C74570   8.810   0.828   8.117 -0.5687 -0.6111  0.0046
  553MOL0     N74571   8.766   0.745   8.963 -0.0689 -0.0999  0.7126
  553MOL0     N74572   8.763   0.827   9.066 -0.5251  0.6690 -0.0206
  553MOL0     C74573   7.898   0.460   9.173  0.0662  0.8298  0.1034
  553MOL0     C74574   7.895   0.333   9.230  0.9328  0.8915  1.1634
  553MOL0     C74575   7.848   0.022   9.470  0.6942  0.3510 -0.3929
  553MOL0     C74576   7.869   0.086   9.596 -0.2198 -0.2641 -0.0371
  553MOL0     C74577   7.816   0.036   9.711  0.1094  0.7632 -0.8712
  553MOL0     C74578   7.737  -0.073   9.713  0.2309  1.1392 -0.4251
  553MOL0     O74579   7.684  -0.140   9.828  0.1514 -0.2902 -0.3358
  553MOL0     C74580   7.624  -0.047   9.923 -0.6515 -0.2339 -0.4534
  553MOL0     C74581   7.500   0.020   9.868  1.0698 -0.0129  0.4236
  553MOL0     C74582   7.404  -0.098   9.837  0.7732 -0.4738  0.2889
  553MOL0     C74583   7.311  -0.042   9.734  1.2934 -0.0593 -0.8426
  553MOL0     C74584   7.214   0.047   9.813  0.0420  0.9118  1.3980
  553MOL0     C74585   7.136   0.111   9.878  0.0548 -0.5122 -0.3218
  553MOL0     C74586   7.707  -0.126   9.591 -0.0424  0.7225 -0.9306
  553MOL0     C74587   7.752  -0.082   9.465  0.0846 -0.3894  0.3996
  553MOL0     H74588   8.216   0.306   9.343  0.7283  0.6531  0.3418
  553MOL0     H74589   8.223   0.525   9.246  0.2691 -0.5389 -2.6305
  553MOL0     H74590   7.936   0.807   9.008  1.9302  1.9649  0.9444
  553MOL0     H74591   7.831   0.716   9.112 -1.4488  1.7297 -1.2551
  553MOL0     H74592   7.885   0.938   9.223 -0.8840  0.1551  2.6364
  553MOL0     H74593   7.928   0.797   9.304  1.2601 -0.9043 -0.9909
  553MOL0     H74594   8.086   1.000   9.289 -1.9602 -2.8908  4.3093
  553MOL0     H74595   8.148   0.830   9.263 -1.0477 -2.0329 -1.0885
  553MOL0     H74596   8.177   0.897   9.024 -2.3791 -1.0626 -0.0178
  553MOL0     H74597   8.099   1.051   9.055  0.3823  0.4548 -0.5037
  553MOL0     H74598   8.354   1.059   9.058 -1.0396 -0.1598  0.0441
  553MOL0     H74599   8.299   1.091   9.221  0.2344  0.6286 -0.8967
  553MOL0     H74600   8.353   0.831   9.274  0.8473 -2.1754 -2.9247
  553MOL0     H74601   8.397   0.821   9.113  2.4162 -0.8583  0.2727
  553MOL0     H74602   8.526   1.022   9.326  0.4445 -0.2366  1.3275
  553MOL0     H74603   8.579   0.862   9.308  0.1931  1.2101  0.6216
  553MOL0     H74604   8.728   1.049   9.184  0.2705 -1.7430  2.8325
  553MOL0     H74605   8.571   1.095   9.095 -0.0828 -1.5026 -1.0047
  553MOL0     H74606   8.519   0.949   8.880  2.7490  2.0351 -2.8196
  553MOL0     H74607   8.596   0.612   8.772  0.2113 -0.4189  2.9558
  553MOL0     H74608   8.537   0.761   8.701  0.5978  2.9468  1.5546
  553MOL0     H74609   8.821   0.671   8.657 -0.8623  0.1048  1.5719
  553MOL0     H74610   8.753   0.822   8.603 -1.3932  0.5088 -0.0409
  553MOL0     H74611   8.557   0.651   8.494 -0.1269 -3.5464  1.1409
  553MOL0     H74612   8.694   0.543   8.506 -1.3238  0.0689 -0.0032
  553MOL0     H74613   8.729   0.619   8.290  0.3240  3.8594 -3.6739
  553MOL0     H74614   8.840   0.706   8.386 -0.6544 -0.7248 -0.2837
  553MOL0     H74615   8.470   0.819   8.147 -0.3676  2.7484  0.1061
  553MOL0     H74616   8.461   0.940   7.809  0.8074 -1.2551 -1.7862
  553MOL0     H74617   8.424   0.771   7.827 -3.8388  0.6617  2.0298
  553MOL0     H74618   8.368   0.892   7.940 -0.0200  0.8197 -1.9639
  553MOL0     H74619   8.444   0.816   7.510  1.4154 -3.6148  0.1684
  553MOL0     H74620   8.424   0.828   7.278 -0.0931  0.4227 -0.1076
  553MOL0     H74621   8.476   0.824   6.999 -1.3875  0.6426  3.3965
  553MOL0     H74622   8.508   0.972   7.089  1.7421  0.1141  2.4922
  553MOL0     H74623   8.723   0.968   6.945  0.5574 -2.2402  1.3379
  553MOL0     H74624   8.640   0.855   6.835 -1.3820 -4.0997  3.7446
  553MOL0     H74625   8.571   1.148   6.891  2.5112 -0.6810  0.4299
  553MOL0     H74626   8.434   1.039   6.836  1.0105 -2.0927 -0.0526
  553MOL0     H74627   8.707   1.070   6.688  0.5793  1.6408  2.7617
  553MOL0     H74628   8.555   0.994   6.638  0.6582 -0.3617  0.4993
  553MOL0     H74629   8.571   1.290   6.704 -0.7055 -2.4508  2.7364
  553MOL0     H74630   8.458   1.220   6.595 -0.2705  0.6382  0.2562
  553MOL0     H74631   8.629   1.349   6.478  2.2239  0.9700  0.2332
  553MOL0     H74632   8.751   1.267   6.573 -1.3276  1.8915  1.5205
  553MOL0     H74633   8.554   1.120   6.381 -0.0165  0.6755 -0.5342
  553MOL0     H74634   8.710   1.058   6.443 -0.0766  1.3943 -0.2262
  553MOL0     H74635   8.650   1.267   6.249  1.4545  1.8736 -0.1900
  553MOL0     H74636   8.714   1.111   6.201 -0.7519 -0.2382  1.3884
  553MOL0     H74637   8.856   0.868   7.258 -0.5321 -1.3545  0.5628
  553MOL0     H74638   8.863   0.896   7.504  0.4077 -3.4885  3.0587
  553MOL0     H74639   8.919   0.851   7.929  0.2879 -0.4720  0.5285
  553MOL0     H74640   8.905   0.819   8.167 -0.7036 -2.3730  0.0018
  553MOL0     H74641   7.811   0.497   9.118 -0.2766 -1.9410 -1.4141
  553MOL0     H74642   7.799   0.288   9.209  0.7676  1.6176  0.2891
  553MOL0     H74643   7.929   0.176   9.603  1.5219 -1.3298 -0.7393
  553MOL0     H74644   7.837   0.077   9.809  2.9003 -1.3588 -0.4481
  553MOL0     H74645   7.609  -0.093  10.021 -2.3506  0.9998 -0.0989
  553MOL0     H74646   7.687   0.039   9.946  0.0123 -1.3350  2.1984
  553MOL0     H74647   7.524   0.067   9.773 -0.2533  0.4949  0.3145
  553MOL0     H74648   7.450   0.089   9.936 -1.2157 -2.2707  1.2304
  553MOL0     H74649   7.351  -0.137   9.924 -2.3452  1.8871 -0.3803
  553MOL0     H74650   7.453  -0.183   9.788 -1.4429 -0.3229 -2.4562
  553MOL0     H74651   7.257  -0.124   9.687  0.6015  0.5088 -1.0584
  553MOL0     H74652   7.365   0.014   9.656 -2.7207  1.9557 -2.4491
  553MOL0     H74653   7.081   0.165   9.952  0.7728 -0.1138 -0.0607
  553MOL0     H74654   7.629  -0.202   9.583 -1.0965  1.7586 -0.8549
  553MOL0     H74655   7.706  -0.137   9.383 -0.2009  0.0823  0.2389
  554MOL0     O74656   8.980   2.346   4.940 -0.1675 -0.0970  0.0877
  554MOL0     C74657   9.053   2.405   4.866 -0.8511 -0.2068  0.4309
  554MOL0     O74658   9.182   2.381   4.857  0.2015  0.0243  0.6285
  554MOL0     C74659   9.268   2.324   4.953  0.0870  0.3139 -0.7089
  554MOL0     C74660   9.402   2.286   4.920  0.4368 -0.9742 -0.0697
  554MOL0     C74661   9.481   2.219   5.014 -0.0741  0.1890  0.0552
  554MOL0     C74662   9.440   2.205   5.144  0.0479  0.8713  0.4153
  554MOL0     O74663   9.524   2.147   5.232 -0.0876 -0.7192  0.3472
  554MOL0     C74664   9.624   2.249   5.272  0.3016  0.2073  0.0401
  554MOL0     C74665   9.723   2.191   5.375 -0.6125  0.7419 -0.2698
  554MOL0     C74666   9.828   2.299   5.383  0.4391  0.7651 -0.0588
  554MOL0     C74667   9.887   2.277   5.525  0.1809 -1.2933 -0.4241
  554MOL0     C74668  10.022   2.352   5.561 -0.0640 -0.3681 -0.2867
  554MOL0     C74669  10.036   2.505   5.545 -0.8948 -0.3258 -0.3939
  554MOL0     C74670   9.932   2.581   5.629 -0.3907 -0.2673  0.3933
  554MOL0     C74671   9.973   2.737   5.625 -0.5314 -0.4651  0.8066
  554MOL0     N74672   9.857   2.827   5.636  0.3935 -0.9892  0.2049
  554MOL0     C74673   9.768   2.858   5.537  0.1970  0.4964  0.0927
  554MOL0     C74674   9.681   2.953   5.580 -0.6284  0.1956 -0.2745
  554MOL0     C74675   9.563   3.011   5.510 -0.3028 -0.3354 -0.0511
  554MOL0     C74676   9.578   3.161   5.529 -0.4292 -0.4858  0.3407
  554MOL0     C74677   9.521   3.231   5.402 -1.0505 -0.2862 -0.9960
  554MOL0     C74678   9.498   3.385   5.431 -0.3999  0.0514  0.3959
  554MOL0     O74679   9.483   3.443   5.298  0.0884 -0.2270  0.9855
  554MOL0     C74680   9.409   3.555   5.279 -0.4687  0.6213 -1.0690
  554MOL0     C74681   9.354   3.635   5.391 -1.1678  1.2955 -0.7072
  554MOL0     C74682   9.285   3.756   5.370  0.7437  1.3075  0.0709
  554MOL0     C74683   9.243   3.832   5.497  0.1433 -0.0393  0.6541
  554MOL0     C74684   9.252   3.786   5.231 -0.4249 -0.0009 -0.5121
  554MOL0     C74685   9.158   3.896   5.206 -0.4033 -1.1548  0.3292
  554MOL0     O74686   9.152   3.937   5.074 -0.3474 -0.3685 -0.3206
  554MOL0     C74687   9.100   4.053   5.044  0.5939  0.4061 -1.0319
  554MOL0     C74688   9.001   4.050   4.942  0.3800  0.2633 -0.2221
  554MOL0     C74689   8.937   4.170   4.903  0.3324  0.4243 -0.2827
  554MOL0     C74690   8.955   4.292   4.971 -0.1121  0.5991  0.5453
  554MOL0     O74691   8.890   4.398   4.924  0.2316  0.3121  0.6121
  554MOL0     C74692   8.859   4.512   5.013 -0.7282 -1.1509 -0.1141
  554MOL0     C74693   8.725   4.565   4.986  0.3134  0.1902  0.2106
  554MOL0     C74694   8.681   4.683   5.080 -0.6912  0.0838 -0.4912
  554MOL0     C74695   8.536   4.735   5.048 -0.3673  0.6952  0.1897
  554MOL0     C74696   8.493   4.817   5.171  0.0293  0.4645  0.1885
  554MOL0     C74697   8.350   4.859   5.142 -0.3784  0.2599 -0.8296
  554MOL0     C74698   8.314   4.948   5.263  0.1998  0.3929  0.1497
  554MOL0     C74699   8.164   4.990   5.256 -1.0436 -0.2189  0.0019
  554MOL0    Cl74700   8.061   4.848   5.220  0.4720 -0.2351  0.0292
  554MOL0     C74701   9.048   4.285   5.071 -1.4139  0.3759  0.6189
  554MOL0     C74702   9.122   4.172   5.109 -0.4700  0.3167 -0.4893
  554MOL0     O74703   9.091   3.945   5.297  0.5954 -0.8996 -0.3384
  554MOL0     C74704   9.311   3.712   5.126  0.5662  0.2668 -0.5006
  554MOL0     C74705   9.386   3.596   5.148 -0.0666 -0.5819 -0.5667
  554MOL0     N74706   9.729   2.986   5.713 -0.1401  0.0818  1.4479
  554MOL0     N74707   9.840   2.917   5.741 -0.3966 -0.7921  0.8458
  554MOL0     C74708   9.314   2.243   5.184  0.3737 -1.0270  0.0550
  554MOL0     C74709   9.229   2.298   5.084  0.0591  0.0427 -0.3679
  554MOL0     C74710   8.998   2.484   4.744  0.7010 -0.2833 -0.7432
  554MOL0     C74711   9.074   2.536   4.641  0.8244 -0.4569  0.1099
  554MOL0     C74712   9.018   2.612   4.540  1.2998  0.6760  0.6047
  554MOL0     C74713   8.879   2.638   4.544 -0.2031  0.1568  1.3164
  554MOL0     O74714   8.821   2.691   4.435 -0.2322 -0.3260  0.3702
  554MOL0     C74715   8.811   2.604   4.322 -0.2323  0.1920 -0.1021
  554MOL0     C74716   8.675   2.616   4.247 -0.1533  0.9612 -0.3714
  554MOL0     C74717   8.641   2.740   4.178  0.9511 -0.6461  1.1940
  554MOL0     C74718   8.551   2.826   4.262 -0.3550  0.8594 -0.7751
  554MOL0     C74719   8.470   2.931   4.205  0.2207  0.1269  0.0192
  554MOL0     C74720   8.412   3.016   4.138 -0.1252  0.2123 -0.1820
  554MOL0     C74721   8.798   2.577   4.638 -0.7744  0.6314 -0.7361
  554MOL0     C74722   8.859   2.511   4.750  0.2879  0.1866  0.2052
  554MOL0     H74723   9.437   2.315   4.822 -0.0496  1.0489  0.2898
  554MOL0     H74724   9.578   2.191   4.973 -0.1426 -2.2801  1.3692
  554MOL0     H74725   9.682   2.273   5.183  3.4553 -1.2752  1.5112
  554MOL0     H74726   9.571   2.339   5.304 -0.4173  0.4165 -1.6267
  554MOL0     H74727   9.670   2.151   5.462  3.6941  0.8829  2.6976
  554MOL0     H74728   9.762   2.106   5.320  0.2163  1.1480 -0.3223
  554MOL0     H74729   9.902   2.280   5.305  2.3037 -3.2376  2.3943
  554MOL0     H74730   9.790   2.399   5.359 -0.4154  1.4256  3.4156
  554MOL0     H74731   9.822   2.314   5.604  0.3639  2.6167 -1.8462
  554MOL0     H74732   9.903   2.171   5.543 -2.8139 -1.7050  0.2598
  554MOL0     H74733  10.047   2.331   5.665  0.1212  1.1641 -0.0067
  554MOL0     H74734  10.099   2.297   5.505  1.8920 -0.6769  2.5084
  554MOL0     H74735  10.134   2.535   5.585 -1.1153  0.4228 -0.3966
  554MOL0     H74736  10.028   2.539   5.441  0.6003 -3.8574 -1.8129
  554MOL0     H74737   9.834   2.547   5.596 -0.7383 -0.0441  1.1895
  554MOL0     H74738   9.955   2.545   5.729 -0.8557  1.4002  1.1412
  554MOL0     H74739  10.011   2.761   5.525  0.6756 -0.6654  1.2076
  554MOL0     H74740  10.051   2.755   5.699 -1.6200  1.7173  1.5042
  554MOL0     H74741   9.764   2.805   5.442  0.6863  0.9882 -0.2107
  554MOL0     H74742   9.570   2.975   5.406 -1.1646 -1.9468  0.4089
  554MOL0     H74743   9.469   2.977   5.555  0.1950 -0.6722  0.7473
  554MOL0     H74744   9.681   3.192   5.549 -0.9962 -0.1589  3.3170
  554MOL0     H74745   9.517   3.199   5.612 -0.6919  0.8889 -0.4626
  554MOL0     H74746   9.427   3.183   5.372  0.1529 -2.8184 -0.9973
  554MOL0     H74747   9.598   3.216   5.326 -0.3250 -3.0043  0.1421
  554MOL0     H74748   9.582   3.427   5.487 -2.7263  4.8129  0.8280
  554MOL0     H74749   9.409   3.403   5.491 -0.9869  3.2752 -1.2267
  554MOL0     H74750   9.381   3.610   5.493 -1.9468  2.2857 -0.2354
  554MOL0     H74751   9.138   3.811   5.517  0.1642 -0.8970 -0.0551
  554MOL0     H74752   9.304   3.799   5.582  1.0301 -1.0060 -0.3248
  554MOL0     H74753   9.256   3.940   5.486  1.6538 -0.2147  0.4930
  554MOL0     H74754   8.984   3.959   4.885 -0.5618  1.1502 -1.4084
  554MOL0     H74755   8.873   4.180   4.815  0.5156  0.0500 -0.4619
  554MOL0     H74756   8.858   4.474   5.116  0.1286  0.9618  0.7275
  554MOL0     H74757   8.934   4.592   5.013 -0.1222 -1.6797  1.4073
  554MOL0     H74758   8.713   4.592   4.881  0.8583  2.5296  0.6996
  554MOL0     H74759   8.657   4.479   4.994  2.3712 -1.7340 -1.6845
  554MOL0     H74760   8.759   4.759   5.075  1.8222 -1.8793  3.7010
  554MOL0     H74761   8.677   4.636   5.178 -1.4694 -0.7398 -0.9009
  554MOL0     H74762   8.530   4.794   4.957 -2.2838  0.9440  0.4361
  554MOL0     H74763   8.465   4.653   5.035  0.7509 -0.5576  1.6023
  554MOL0     H74764   8.554   4.908   5.179  0.8480 -0.0664  0.0753
  554MOL0     H74765   8.504   4.755   5.260  0.2310  0.0165 -0.1445
  554MOL0     H74766   8.342   4.908   5.044 -4.5665 -1.3901 -1.4988
  554MOL0     H74767   8.284   4.773   5.133 -0.2014  0.3142 -3.0830
  554MOL0     H74768   8.387   5.030   5.268  2.2589 -1.4359  2.4802
  554MOL0     H74769   8.350   4.903   5.356  0.8474  2.9237  1.2086
  554MOL0     H74770   8.155   5.062   5.174 -2.9873  1.9037  1.9082
  554MOL0     H74771   8.140   5.039   5.351 -3.8019  1.0656 -1.2496
  554MOL0     H74772   9.075   4.383   5.111  0.7720  0.2013 -0.2700
  554MOL0     H74773   9.199   4.173   5.186 -0.5969 -3.0791 -0.1683
  554MOL0     H74774   9.276   3.749   5.030 -4.3242 -0.1461  0.8070
  554MOL0     H74775   9.429   3.542   5.065 -1.7301  4.0576 -4.9661
  554MOL0     H74776   9.279   2.252   5.287  0.9465  0.1063  0.1711
  554MOL0     H74777   9.134   2.328   5.126 -1.5260 -3.2208 -1.2746
  554MOL0     H74778   9.182   2.531   4.653  1.0155  0.8912 -0.8047
  554MOL0     H74779   9.085   2.631   4.457  0.2665 -0.4495 -0.5130
  554MOL0     H74780   8.898   2.623   4.259 -1.0684  2.2350 -0.7332
  554MOL0     H74781   8.828   2.500   4.351  1.8936  1.0036  1.8237
  554MOL0     H74782   8.599   2.583   4.319 -0.3943  0.2025 -0.9737
  554MOL0     H74783   8.694   2.544   4.168  2.1217  0.0964  0.8843
  554MOL0     H74784   8.577   2.717   4.092 -1.0627  2.5940  1.6546
  554MOL0     H74785   8.730   2.794   4.146 -0.4456  1.2911  0.4266
  554MOL0     H74786   8.616   2.861   4.343 -0.7735 -1.1894  0.5146
  554MOL0     H74787   8.481   2.759   4.312 -0.2779  0.0403 -1.7250
  554MOL0     H74788   8.375   3.099   4.081 -0.5285  1.0474  1.2424
  554MOL0     H74789   8.691   2.594   4.639 -1.2080 -1.7779 -1.5567
  554MOL0     H74790   8.802   2.479   4.836  0.8779 -1.5997 -0.0385
  555MOL0     O74791   3.572   1.804   9.741 -0.4448  0.5643  0.0650
  555MOL0     C74792   3.451   1.830   9.769 -0.3335  0.2231 -0.1562
  555MOL0     O74793   3.368   1.758   9.856  0.3350 -0.5579 -0.4454
  555MOL0     C74794   3.420   1.643   9.902 -0.1902  0.0707  0.2564
  555MOL0     C74795   3.409   1.526   9.829  0.5020  0.5048 -0.5074
  555MOL0     C74796   3.461   1.404   9.867 -0.0312 -0.6118  0.1176
  555MOL0     C74797   3.537   1.395   9.992  0.4742 -0.0463  0.2944
  555MOL0     O74798   3.584   1.267  10.027  0.0564 -0.8030 -0.5424
  555MOL0     C74799   3.628   1.263  10.168 -0.0629 -0.7843 -0.3686
  555MOL0     C74800   3.655   1.119  10.214 -0.0122  0.0895  0.2567
  555MOL0     C74801   3.797   1.081  10.167 -0.0928  1.2426  0.5597
  555MOL0     C74802   3.834   0.931  10.202 -0.4432  0.0429 -0.5715
  555MOL0     C74803   3.962   0.883  10.148  0.9910 -0.2069  0.6553
  555MOL0     C74804   3.998   0.738  10.187  0.1606 -0.1164 -0.2088
  555MOL0     C74805   4.147   0.708  10.220  0.2716  0.1284  0.0334
  555MOL0     C74806   4.172   0.560  10.264 -0.5680 -0.6381  0.4554
  555MOL0     N74807   4.313   0.552  10.304  0.4880 -0.0558  0.1980
  555MOL0     C74808   4.371   0.538  10.427 -0.3804 -0.6895  0.8006
  555MOL0     C74809   4.496   0.507  10.397 -1.3215  0.1118 -0.2871
  555MOL0     C74810   4.603   0.494  10.508  0.4015 -0.2343  0.1323
  555MOL0     C74811   4.628   0.341  10.546  0.6104 -0.5079  0.4836
  555MOL0     C74812   4.683   0.251  10.425  0.1885 -0.5635 -1.1624
  555MOL0     C74813   4.638   0.104  10.443 -0.2664 -0.3924 -0.6281
  555MOL0     O74814   4.708   0.047  10.554 -0.4331  0.0273 -0.5082
  555MOL0     C74815   4.740  -0.084  10.558  0.5784 -0.6220 -0.4331
  555MOL0     C74816   4.670  -0.180  10.487  0.5145  0.6261  0.6385
  555MOL0     C74817   4.689  -0.316  10.506 -0.7040 -0.3282 -0.8319
  555MOL0     C74818   4.613  -0.414  10.423  0.5529  0.0044 -0.0392
  555MOL0     C74819   4.771  -0.354  10.604  0.9457 -0.1130 -0.7675
  555MOL0     C74820   4.786  -0.495  10.619  0.9525  1.4305  0.3613
  555MOL0     O74821   4.892  -0.566  10.562  0.5250  0.3295  0.3373
  555MOL0     C74822   4.907  -0.700  10.553 -0.2178 -0.0528  1.2397
  555MOL0     C74823   4.814  -0.801  10.523 -0.0744  0.1416 -0.4484
  555MOL0     C74824   4.855  -0.934  10.506  0.1512 -0.3576 -0.2796
  555MOL0     C74825   4.984  -0.974  10.532  0.3605 -1.0159 -0.0302
  555MOL0     O74826   4.996  -1.104  10.547 -0.3799  1.4336 -0.1524
  555MOL0     C74827   5.115  -1.170  10.596  0.1709 -0.8575  0.0583
  555MOL0     C74828   5.155  -1.152  10.749  0.4197  0.4608 -0.3434
  555MOL0     C74829   5.044  -1.200  10.839  0.4949  0.1830 -0.7263
  555MOL0     C74830   5.028  -1.350  10.875 -0.5642 -0.2543 -0.5374
  555MOL0     C74831   4.886  -1.370  10.932  0.5336 -0.7304  1.2233
  555MOL0     C74832   4.774  -1.388  10.813  0.9811 -0.2499 -0.5219
  555MOL0     C74833   4.774  -1.514  10.738 -0.2387  0.1411 -0.3179
  555MOL0     C74834   4.740  -1.627  10.827 -0.3962 -0.3614 -0.2814
  555MOL0    Cl74835   4.737  -1.778  10.736 -0.0138 -0.9079 -0.2899
  555MOL0     C74836   5.080  -0.874  10.558  0.1837 -0.5293 -0.1942
  555MOL0     C74837   5.043  -0.741  10.569 -0.3502 -0.6109 -0.6478
  555MOL0     O74838   4.706  -0.557  10.683  0.5057  0.2195 -0.0329
  555MOL0     C74839   4.852  -0.264  10.672  0.3752  0.9878  0.1498
  555MOL0     C74840   4.829  -0.131  10.652  0.2194 -0.1182 -0.4391
  555MOL0     N74841   4.518   0.495  10.256 -0.0524  0.2377 -0.9319
  555MOL0     N74842   4.403   0.530  10.209  0.0533  0.0534  0.0674
  555MOL0     C74843   3.529   1.508  10.069  0.0562 -0.4754  0.8422
  555MOL0     C74844   3.461   1.623  10.033 -0.5103  0.2525  0.1200
  555MOL0     C74845   3.388   1.940   9.688  0.2459 -0.1570 -0.7436
  555MOL0     C74846   3.241   1.927   9.666  0.6556 -1.3224  0.7730
  555MOL0     C74847   3.181   2.035   9.594  0.8367 -0.5701  0.3429
  555MOL0     C74848   3.247   2.148   9.555 -0.7953 -1.1263  0.5877
  555MOL0     O74849   3.194   2.256   9.480 -0.2594  0.7415 -0.9302
  555MOL0     C74850   3.077   2.238   9.394 -0.7039 -1.4263  0.0505
  555MOL0     C74851   3.070   2.366   9.303 -0.3463  0.0711  0.1542
  555MOL0     C74852   2.942   2.356   9.214 -1.1701 -0.5356  0.6442
  555MOL0     C74853   2.976   2.418   9.072  1.1764 -0.2562  1.1269
  555MOL0     C74854   3.060   2.333   8.998 -0.6359  0.0131  0.6860
  555MOL0     C74855   3.138   2.266   8.935 -0.2341  0.0417  0.1424
  555MOL0     C74856   3.389   2.147   9.568  0.1568 -0.4391  0.9686
  555MOL0     C74857   3.456   2.052   9.641 -0.6460  0.0159  0.3359
  555MOL0     H74858   3.358   1.531   9.733  2.5515  0.0884 -1.6712
  555MOL0     H74859   3.451   1.310   9.813  3.6358 -2.4327  2.1980
  555MOL0     H74860   3.725   1.313  10.183  0.1602 -1.6299  1.2415
  555MOL0     H74861   3.552   1.291  10.241  0.3666 -0.3844 -0.0657
  555MOL0     H74862   3.641   1.111  10.322  3.0884  3.2892  1.0590
  555MOL0     H74863   3.567   1.065  10.177 -0.2291  1.3901 -1.2335
  555MOL0     H74864   3.814   1.109  10.063 -2.5680  0.2735 -0.1600
  555MOL0     H74865   3.864   1.140  10.231 -0.6661  4.7531 -1.8113
  555MOL0     H74866   3.832   0.917  10.310 -0.8545  1.4552 -0.3774
  555MOL0     H74867   3.761   0.858  10.164  1.4727 -2.6673  0.5966
  555MOL0     H74868   3.972   0.868  10.040 -0.3419 -0.8648  0.6091
  555MOL0     H74869   4.038   0.953  10.185  1.0004  0.0162  0.2243
  555MOL0     H74870   3.940   0.721  10.278  0.7381  4.5487  1.2636
  555MOL0     H74871   3.965   0.666  10.112 -2.9596  0.4945  0.4389
  555MOL0     H74872   4.211   0.740  10.138 -0.2464  0.5870 -0.1957
  555MOL0     H74873   4.173   0.777  10.301  1.9667 -1.2760  0.7396
  555MOL0     H74874   4.174   0.478  10.191  1.6742  1.7778 -2.4754
  555MOL0     H74875   4.095   0.549  10.341 -0.9797  1.1136  0.3402
  555MOL0     H74876   4.328   0.546  10.526 -1.7316 -4.7582  0.7226
  555MOL0     H74877   4.699   0.535  10.476 -0.0778  0.8074 -0.0153
  555MOL0     H74878   4.567   0.549  10.597  1.4221 -0.6291  0.8103
  555MOL0     H74879   4.524   0.314  10.570 -0.0612  2.7456  1.7416
  555MOL0     H74880   4.692   0.333  10.634  0.8063 -4.4083  0.1792
  555MOL0     H74881   4.791   0.265  10.418  0.1621  0.8611  0.7462
  555MOL0     H74882   4.635   0.273  10.329  0.4588 -1.2931 -1.4758
  555MOL0     H74883   4.656   0.056  10.347  0.4456  0.3906 -0.9020
  555MOL0     H74884   4.529   0.092  10.447 -0.5432  1.9212  3.0025
  555MOL0     H74885   4.590  -0.139  10.425  0.4618  0.4928  0.6162
  555MOL0     H74886   4.676  -0.489  10.375  0.4889  1.2838 -2.2399
  555MOL0     H74887   4.552  -0.473  10.492  2.4774 -0.8060  1.0381
  555MOL0     H74888   4.560  -0.352  10.350 -2.3510 -0.2922  1.6794
  555MOL0     H74889   4.712  -0.773  10.500  0.0007  0.4184 -0.4392
  555MOL0     H74890   4.773  -1.004  10.491  0.2427 -1.6572  4.0331
  555MOL0     H74891   5.115  -1.275  10.566  2.0000 -1.1145  0.7883
  555MOL0     H74892   5.196  -1.132  10.534 -0.8208 -1.1811 -1.4745
  555MOL0     H74893   5.248  -1.201  10.776 -0.0707 -0.2727  0.0607
  555MOL0     H74894   5.166  -1.044  10.763  2.4860  0.0237  2.0731
  555MOL0     H74895   4.949  -1.167  10.796  0.9412 -0.3006 -2.1583
  555MOL0     H74896   5.043  -1.156  10.939  1.3349 -1.1353 -0.1115
  555MOL0     H74897   5.043  -1.420  10.792 -2.2823 -2.5666  0.9820
  555MOL0     H74898   5.090  -1.383  10.959  0.1914  2.8651  0.2565
  555MOL0     H74899   4.857  -1.276  10.980  1.7471  2.0490 -2.9143
  555MOL0     H74900   4.888  -1.451  11.005 -0.1851 -0.4178  1.5965
  555MOL0     H74901   4.676  -1.380  10.861  1.5605  0.9369  0.5309
  555MOL0     H74902   4.785  -1.303  10.745  1.1041  0.1222 -0.0383
  555MOL0     H74903   4.862  -1.536  10.676  0.2344  0.2554  0.3081
  555MOL0     H74904   4.700  -1.503  10.657  0.0389 -1.2231 -0.7766
  555MOL0     H74905   4.642  -1.612  10.874 -1.1496  2.7833 -2.5243
  555MOL0     H74906   4.819  -1.633  10.903 -0.2865  2.1669 -0.1003
  555MOL0     H74907   5.180  -0.905  10.587  0.9283  1.3885 -0.5923
  555MOL0     H74908   5.106  -0.661  10.608 -2.1743 -0.0459  1.3848
  555MOL0     H74909   4.930  -0.297  10.739 -0.8410 -4.1586 -0.5139
  555MOL0     H74910   4.884  -0.063  10.717  0.3723 -0.0654 -0.6222
  555MOL0     H74911   3.572   1.505  10.169 -0.0908  1.4238  0.9926
  555MOL0     H74912   3.459   1.712  10.094 -1.1502  0.2396  0.1255
  555MOL0     H74913   3.196   1.840   9.713 -0.4356 -0.0911  2.1134
  555MOL0     H74914   3.074   2.029   9.573  1.2050 -0.5571 -1.6711
  555MOL0     H74915   3.075   2.148   9.333 -1.8248 -1.8152  0.6254
  555MOL0     H74916   2.984   2.254   9.450 -0.7899 -1.1235 -0.1772
  555MOL0     H74917   3.158   2.373   9.238 -0.1405  2.6926  0.6102
  555MOL0     H74918   3.070   2.461   9.358 -0.1718  2.1646 -3.1953
  555MOL0     H74919   2.869   2.421   9.263  1.0355  2.6136  0.0574
  555MOL0     H74920   2.906   2.254   9.202  0.0606 -0.6392 -4.0507
  555MOL0     H74921   3.024   2.516   9.073  0.7126  0.1336 -2.2332
  555MOL0     H74922   2.880   2.430   9.021  1.1981 -1.4919  0.7515
  555MOL0     H74923   3.209   2.207   8.881  0.7848 -0.4873  1.9393
  555MOL0     H74924   3.442   2.229   9.522  0.4965 -2.1227 -1.9199
  555MOL0     H74925   3.564   2.061   9.649 -0.6258 -0.2088  0.3298
  556MOL0     O74926   3.862   6.560   5.098  0.0078  0.1149  0.1278
  556MOL0     C74927   3.899   6.647   5.025 -0.0375  1.4250 -1.0979
  556MOL0     O74928   3.910   6.636   4.894 -0.3170  0.3965 -0.0539
  556MOL0     C74929   3.901   6.517   4.832 -0.1023 -0.7922 -0.3386
  556MOL0     C74930   4.005   6.437   4.793 -1.2208  0.1620  0.4575
  556MOL0     C74931   3.987   6.311   4.736  0.4376  0.0489 -0.8541
  556MOL0     C74932   3.863   6.270   4.698 -0.6883  0.3746  0.3156
  556MOL0     O74933   3.841   6.145   4.660 -0.3337 -0.3754  0.4187
  556MOL0     C74934   3.903   6.087   4.540  0.4191  0.3536  0.2871
  556MOL0     C74935   3.800   6.046   4.448 -0.1964 -0.5084  0.2320
  556MOL0     C74936   3.857   5.981   4.316  0.6604  0.4007  0.4828
  556MOL0     C74937   3.914   5.841   4.325 -0.5621  0.2447 -0.0858
  556MOL0     C74938   3.937   5.782   4.184 -0.5880 -0.9824 -0.2475
  556MOL0     C74939   3.810   5.759   4.089  0.5157 -0.7092 -0.3273
  556MOL0     C74940   3.854   5.674   3.974  0.5274  0.3618  0.8999
  556MOL0     C74941   3.720   5.650   3.884  0.4752 -0.4179  0.7805
  556MOL0     N74942   3.754   5.575   3.770 -0.1585  0.0092  1.3095
  556MOL0     C74943   3.801   5.441   3.783 -0.6365 -0.7863  0.3169
  556MOL0     C74944   3.800   5.397   3.653 -0.6255 -0.0898  0.1979
  556MOL0     C74945   3.869   5.261   3.603 -0.4971 -0.0996  0.0112
  556MOL0     C74946   3.862   5.141   3.700 -0.5325 -0.8228  0.1973
  556MOL0     C74947   3.733   5.078   3.686 -0.0910  0.1062  0.9985
  556MOL0     C74948   3.697   5.005   3.820 -0.1234  1.0120  0.1956
  556MOL0     O74949   3.789   4.908   3.875  0.3116  0.9583  0.4990
  556MOL0     C74950   3.785   4.783   3.822 -0.8275  0.6834  0.1700
  556MOL0     C74951   3.876   4.691   3.878  0.0314  0.1437 -0.8380
  556MOL0     C74952   3.902   4.559   3.827  0.4853  0.5708  0.0178
  556MOL0     C74953   4.007   4.476   3.891 -0.2537 -0.4093 -0.8443
  556MOL0     C74954   3.819   4.512   3.732  0.8120 -0.0951 -0.8866
  556MOL0     C74955   3.830   4.369   3.681 -0.3210 -1.1284  0.7315
  556MOL0     O74956   3.780   4.366   3.555  0.7423  0.6403  0.6190
  556MOL0     C74957   3.713   4.249   3.523 -0.4658 -0.4456  0.0082
  556MOL0     C74958   3.579   4.227   3.544  0.2965 -0.3922  0.4022
  556MOL0     C74959   3.520   4.107   3.510 -0.1166 -0.4912 -0.5749
  556MOL0     C74960   3.604   4.009   3.463  0.9552  0.2948  0.8093
  556MOL0     O74961   3.564   3.883   3.428  0.0141  0.0391  0.4369
  556MOL0     C74962   3.435   3.822   3.439  0.5931 -0.6459  0.2131
  556MOL0     C74963   3.431   3.670   3.410 -0.5979 -0.2018 -0.1918
  556MOL0     C74964   3.502   3.617   3.280  0.0580 -0.4325 -0.6208
  556MOL0     C74965   3.517   3.465   3.282  0.2800 -0.0295 -0.3931
  556MOL0     C74966   3.594   3.435   3.151 -0.1128  0.5190  0.4399
  556MOL0     C74967   3.490   3.404   3.033 -0.9718 -0.6413  0.6346
  556MOL0     C74968   3.440   3.260   3.043 -0.0066 -0.0344  0.3865
  556MOL0     C74969   3.333   3.244   2.934  0.3049 -0.0791  0.9311
  556MOL0    Cl74970   3.255   3.088   2.947  0.2160 -0.1535  0.8605
  556MOL0     C74971   3.736   4.027   3.436  0.0048  0.0395 -0.8810
  556MOL0     C74972   3.792   4.149   3.466 -0.5819 -0.2817 -0.1551
  556MOL0     O74973   3.853   4.274   3.753 -0.1883 -0.5050  0.2192
  556MOL0     C74974   3.720   4.599   3.673  0.9051  0.5564 -0.9182
  556MOL0     C74975   3.700   4.734   3.716  0.5749  0.7136  0.3268
  556MOL0     N74976   3.757   5.498   3.571  0.1151  0.1895  0.5793
  556MOL0     N74977   3.728   5.602   3.636  0.1462 -0.0993 -0.6912
  556MOL0     C74978   3.754   6.355   4.722 -0.5080  0.5752  0.1836
  556MOL0     C74979   3.771   6.481   4.795 -0.4342  0.7458  0.0389
  556MOL0     C74980   3.937   6.772   5.097 -0.0532  0.0198 -0.9016
  556MOL0     C74981   3.944   6.798   5.242 -0.3907  0.8938  0.5805
  556MOL0     C74982   3.987   6.930   5.284  0.3783 -0.0426  0.4670
  556MOL0     C74983   4.039   7.022   5.192 -0.0663 -0.4224 -1.0013
  556MOL0     O74984   4.079   7.149   5.242  0.0586 -0.6058  0.2659
  556MOL0     C74985   4.142   7.255   5.170 -0.4156 -1.0261  0.2509
  556MOL0     C74986   4.247   7.353   5.234  0.1439  1.3846  0.4648
  556MOL0     C74987   4.373   7.276   5.274 -0.1685  0.2010 -1.0264
  556MOL0     C74988   4.491   7.378   5.276  0.2972 -0.0649 -0.2915
  556MOL0     C74989   4.609   7.299   5.310 -0.1394 -0.2510 -0.1644
  556MOL0     C74990   4.702   7.219   5.332 -0.0574 -0.4607  0.3639
  556MOL0     C74991   4.041   6.988   5.052  0.3491 -0.1112 -0.8626
  556MOL0     C74992   3.994   6.870   5.014  0.1772  0.4647 -0.1171
  556MOL0     H74993   4.106   6.456   4.829 -2.5407  1.6092  3.7777
  556MOL0     H74994   4.068   6.241   4.718 -0.0661 -0.3768 -1.5218
  556MOL0     H74995   3.971   6.160   4.494 -2.0194  0.5784 -3.3512
  556MOL0     H74996   3.958   6.004   4.585  0.1733  0.7292  1.3179
  556MOL0     H74997   3.732   5.972   4.492  1.8164 -1.4389  2.0130
  556MOL0     H74998   3.747   6.137   4.418  2.2188  2.2720  3.5969
  556MOL0     H74999   3.768   5.981   4.252  0.2343  2.1053  1.0273
  556MOL0     H75000   3.930   6.045   4.266  0.3595 -0.5260 -1.2082
  556MOL0     H75001   4.009   5.831   4.379  2.5650  0.2358 -4.9094
  556MOL0     H75002   3.838   5.772   4.362 -0.3660  0.1774  0.1938
  556MOL0     H75003   4.016   5.845   4.143 -0.6537  0.2562  1.4558
  556MOL0     H75004   3.977   5.681   4.194 -0.9094 -1.0113  0.8143
  556MOL0     H75005   3.730   5.717   4.151  1.0262  0.6805  1.3461
  556MOL0     H75006   3.787   5.858   4.049 -2.1207 -0.4518  1.6274
  556MOL0     H75007   3.930   5.723   3.913 -1.0987 -1.2114 -2.6865
  556MOL0     H75008   3.902   5.582   4.007 -0.4887 -0.6096 -0.2104
  556MOL0     H75009   3.674   5.735   3.834 -0.5851 -1.6029 -0.3292
  556MOL0     H75010   3.644   5.602   3.947 -1.0066  1.1188  0.2286
  556MOL0     H75011   3.835   5.408   3.881  1.5774  3.6341  1.3106
  556MOL0     H75012   3.820   5.246   3.506 -0.4184 -2.7246  0.3268
  556MOL0     H75013   3.974   5.281   3.579 -0.8284 -0.5284 -1.9239
  556MOL0     H75014   3.891   5.171   3.801 -1.1770  2.1752 -0.4222
  556MOL0     H75015   3.942   5.069   3.679  1.5174  0.3488  3.2813
  556MOL0     H75016   3.740   5.014   3.597 -1.5999  1.3479 -0.0811
  556MOL0     H75017   3.652   5.151   3.674 -2.3169 -2.4984 -1.4455
  556MOL0     H75018   3.598   4.965   3.797 -1.1467  2.6736  1.5532
  556MOL0     H75019   3.685   5.091   3.886 -1.9971  0.6078  0.4289
  556MOL0     H75020   3.946   4.725   3.954  3.2821 -0.0751 -3.4673
  556MOL0     H75021   4.075   4.434   3.817  0.5936 -0.3355 -0.1259
  556MOL0     H75022   4.059   4.531   3.970 -1.8501 -1.0810  0.7482
  556MOL0     H75023   3.959   4.391   3.940  0.2772  1.2391  2.9261
  556MOL0     H75024   3.531   4.316   3.583  1.5671  1.0917 -1.2372
  556MOL0     H75025   3.417   4.081   3.532 -0.3988  2.2280  2.0777
  556MOL0     H75026   3.405   3.829   3.544  4.4444  0.3032  1.3828
  556MOL0     H75027   3.361   3.875   3.378  1.8303 -0.3136 -1.0478
  556MOL0     H75028   3.489   3.625   3.491  0.4973  0.1106 -0.7852
  556MOL0     H75029   3.326   3.641   3.407 -0.8969  0.5088  1.9265
  556MOL0     H75030   3.599   3.666   3.289 -1.1904  1.8887  1.8331
  556MOL0     H75031   3.440   3.655   3.198  0.4344 -0.6690 -1.0173
  556MOL0     H75032   3.572   3.430   3.370  1.0380  0.7581 -0.5430
  556MOL0     H75033   3.418   3.417   3.276 -0.3312  1.2756 -1.3126
  556MOL0     H75034   3.671   3.360   3.171  1.0746  1.9580  1.5291
  556MOL0     H75035   3.653   3.519   3.113  0.4762 -1.5403 -3.7053
  556MOL0     H75036   3.400   3.466   3.029 -1.2912 -1.0738  1.0610
  556MOL0     H75037   3.539   3.405   2.935 -0.4092  1.4563  0.8714
  556MOL0     H75038   3.386   3.250   3.137 -0.5967  2.1280  0.3488
  556MOL0     H75039   3.524   3.191   3.031 -1.7521 -2.0832 -0.7898
  556MOL0     H75040   3.367   3.251   2.830  0.0395  0.4208  0.8800
  556MOL0     H75041   3.255   3.317   2.954  0.6896 -0.0297  2.3412
  556MOL0     H75042   3.815   3.960   3.402  2.6287  0.9296  2.8318
  556MOL0     H75043   3.897   4.174   3.451 -0.9690  0.9276 -0.9155
  556MOL0     H75044   3.651   4.561   3.598  0.2741 -1.9163  0.7805
  556MOL0     H75045   3.613   4.790   3.682  1.2908  1.7365  0.1534
  556MOL0     H75046   3.653   6.328   4.694 -0.4455 -0.9358  1.2620
  556MOL0     H75047   3.682   6.533   4.826 -1.0462 -0.6740  0.7413
  556MOL0     H75048   3.922   6.716   5.311  0.2600  0.1661 -0.0629
  556MOL0     H75049   3.987   6.955   5.389 -1.1219 -0.6979  0.6473
  556MOL0     H75050   4.181   7.213   5.077 -2.4923  1.9118 -2.1336
  556MOL0     H75051   4.069   7.320   5.123  1.8410  0.4019 -1.4820
  556MOL0     H75052   4.204   7.403   5.321  2.0093  2.4689  0.8296
  556MOL0     H75053   4.270   7.428   5.157 -2.3386  0.1450 -1.6263
  556MOL0     H75054   4.398   7.195   5.204  0.9757 -0.3574 -0.0154
  556MOL0     H75055   4.359   7.241   5.377 -1.1344  2.8352 -0.1791
  556MOL0     H75056   4.485   7.452   5.356  3.0350 -0.5552  0.4810
  556MOL0     H75057   4.492   7.427   5.179 -2.6750  4.6919  1.7498
  556MOL0     H75058   4.764   7.135   5.358  1.2559 -0.5257 -2.6317
  556MOL0     H75059   4.056   7.064   4.976 -2.3716  0.1626 -1.2092
  556MOL0     H75060   3.997   6.848   4.907  1.3964 -0.4308  0.0868
  557MOL0     O75061  10.955   4.714   6.303  0.5096  0.4742  0.6748
  557MOL0     C75062  11.064   4.705   6.352 -0.3704 -0.3407  0.9914
  557MOL0     O75063  11.141   4.806   6.402 -0.4967  0.8325  0.0115
  557MOL0     C75064  11.100   4.938   6.427  0.4983 -0.4259 -0.5854
  557MOL0     C75065  10.980   4.971   6.491 -0.1510 -0.4683 -0.3179
  557MOL0     C75066  10.940   5.103   6.510  0.1927 -0.0122 -0.7547
  557MOL0     C75067  11.012   5.204   6.466 -0.3584 -0.0248  0.0752
  557MOL0     O75068  10.983   5.338   6.495 -0.3049 -0.0875  0.3637
  557MOL0     C75069  11.094   5.427   6.523 -0.5755 -0.5649 -0.3425
  557MOL0     C75070  11.035   5.534   6.610  0.7838 -0.2041  0.0422
  557MOL0     C75071  11.130   5.639   6.672  0.9842 -0.6509 -0.1414
  557MOL0     C75072  11.209   5.592   6.793 -0.0431 -1.2911  0.2308
  557MOL0     C75073  11.279   5.709   6.860 -0.3994 -0.3129 -0.1730
  557MOL0     C75074  11.386   5.668   6.970  0.1944 -0.1708 -0.5512
  557MOL0     C75075  11.499   5.566   6.918 -0.4298 -0.5645  0.2938
  557MOL0     C75076  11.589   5.630   6.805  0.2704  0.3174 -0.0862
  557MOL0     N75077  11.680   5.713   6.887  1.2659 -0.1306  0.1326
  557MOL0     C75078  11.651   5.838   6.930 -0.0240 -0.1647  0.0596
  557MOL0     C75079  11.766   5.885   6.985 -0.6774 -0.2374 -0.5794
  557MOL0     C75080  11.790   6.013   7.061  0.4024 -0.7016  0.4180
  557MOL0     C75081  11.759   6.008   7.207 -0.0947  0.2695  0.4388
  557MOL0     C75082  11.807   6.131   7.286 -0.0250  0.4810  0.4479
  557MOL0     C75083  11.919   6.101   7.384  1.4279  0.0238  0.3736
  557MOL0     O75084  12.037   6.089   7.304  0.1554 -0.5240  0.1692
  557MOL0     C75085  12.160   6.054   7.352 -0.9484 -1.1075 -0.1059
  557MOL0     C75086  12.271   6.087   7.273 -0.3804 -0.1766 -0.4674
  557MOL0     C75087  12.402   6.055   7.322  0.2034 -0.2734 -0.3215
  557MOL0     C75088  12.512   6.081   7.227 -0.0940  0.4343  0.8630
  557MOL0     C75089  12.421   5.984   7.450  1.0692 -0.9086 -0.6701
  557MOL0     C75090  12.545   5.959   7.514  1.5225 -0.3234  0.7664
  557MOL0     O75091  12.537   5.907   7.633 -0.4343  1.2709 -0.1273
  557MOL0     C75092  12.651   5.910   7.710  0.3562  0.0241 -0.2117
  557MOL0     C75093  12.741   5.804   7.701 -0.5000  0.8528 -0.6967
  557MOL0     C75094  12.846   5.796   7.794  0.3847  0.4350 -0.7188
  557MOL0     C75095  12.864   5.904   7.894 -0.2050 -0.7095  0.3251
  557MOL0     O75096  12.976   5.929   7.988  0.0431  0.1129  0.6075
  557MOL0     C75097  13.079   5.826   7.997  0.2449  0.4346  0.1568
  557MOL0     C75098  13.177   5.829   7.875  0.4289 -0.1988  0.3828
  557MOL0     C75099  13.284   5.936   7.870  1.2412 -0.2050  0.1819
  557MOL0     C75100  13.353   5.935   7.735 -0.9493 -0.4615  0.2279
  557MOL0     C75101  13.440   5.815   7.694 -0.0037 -0.0738 -0.4588
  557MOL0     C75102  13.505   5.808   7.562  0.1946 -1.3071 -0.7688
  557MOL0     C75103  13.555   5.673   7.525 -0.2940 -0.3420  0.2177
  557MOL0     C75104  13.658   5.631   7.628  0.7634 -0.3358  0.0778
  557MOL0    Cl75105  13.723   5.471   7.604  0.2137  0.6809 -0.6143
  557MOL0     C75106  12.770   6.007   7.906  0.5043 -0.5290  0.2177
  557MOL0     C75107  12.661   5.998   7.819 -0.8259 -0.6043  0.0097
  557MOL0     O75108  12.649   5.997   7.461  0.8214  0.8178  0.9654
  557MOL0     C75109  12.296   5.958   7.520 -1.2163 -0.7402  0.2028
  557MOL0     C75110  12.173   5.994   7.472  0.6088  0.5929 -0.5724
  557MOL0     N75111  11.866   5.788   6.965 -0.0511  0.2012 -0.1160
  557MOL0     N75112  11.814   5.692   6.896  0.6383 -0.9962  0.4847
  557MOL0     C75113  11.129   5.176   6.393 -0.1826  0.1476  1.3394
  557MOL0     C75114  11.175   5.045   6.368  0.7446  0.3417 -0.7565
  557MOL0     C75115  11.106   4.566   6.374 -1.5814 -0.0489  0.1954
  557MOL0     C75116  11.051   4.450   6.312  0.0740  0.9984 -0.4851
  557MOL0     C75117  11.110   4.323   6.346 -0.8273 -0.4000  0.4564
  557MOL0     C75118  11.225   4.311   6.423 -0.9024 -0.1487 -1.0000
  557MOL0     O75119  11.283   4.188   6.443  0.4216 -0.3093 -0.1101
  557MOL0     C75120  11.315   4.109   6.333 -0.2892  0.1872  0.0314
  557MOL0     C75121  11.450   4.050   6.367 -0.4653  0.5163  0.0037
  557MOL0     C75122  11.469   4.001   6.513  0.2906 -0.2264  0.7710
  557MOL0     C75123  11.594   3.910   6.524 -0.1134  1.3491 -0.4661
  557MOL0     C75124  11.631   3.874   6.654 -0.1200 -0.1611  0.8544
  557MOL0     C75125  11.666   3.840   6.765  0.8967 -0.0230  0.2853
  557MOL0     C75126  11.265   4.421   6.488  0.2260  0.6847  0.4570
  557MOL0     C75127  11.217   4.552   6.457 -0.5055  0.4376 -0.0494
  557MOL0     H75128  10.929   4.891   6.544 -0.8964  0.5215  0.4866
  557MOL0     H75129  10.849   5.116   6.567  0.2007 -3.1755  0.1436
  557MOL0     H75130  11.187   5.393   6.570  0.7066  0.0041 -2.3648
  557MOL0     H75131  11.130   5.482   6.436  1.0602  0.0179  0.6457
  557MOL0     H75132  10.973   5.596   6.545  0.5981  0.0846  0.4865
  557MOL0     H75133  10.972   5.488   6.687  2.2839  0.1556  1.5517
  557MOL0     H75134  11.209   5.658   6.598  3.4167 -6.3498  0.4973
  557MOL0     H75135  11.077   5.733   6.692  0.9539 -0.4637 -1.0596
  557MOL0     H75136  11.146   5.533   6.861  0.4984 -3.0452 -0.7137
  557MOL0     H75137  11.279   5.520   6.749 -0.1392 -0.4737 -1.3262
  557MOL0     H75138  11.316   5.786   6.792 -0.7701 -0.3730 -0.4503
  557MOL0     H75139  11.199   5.765   6.909 -1.0054  0.9965 -2.4955
  557MOL0     H75140  11.424   5.755   7.024 -2.0477  1.8194 -1.9565
  557MOL0     H75141  11.334   5.596   7.034 -3.0534  1.2551 -1.3637
  557MOL0     H75142  11.565   5.530   6.998 -0.1663 -2.6251 -0.7775
  557MOL0     H75143  11.446   5.478   6.881  1.1391 -1.7708  0.7816
  557MOL0     H75144  11.530   5.695   6.741  0.6677 -1.1110 -1.9668
  557MOL0     H75145  11.632   5.547   6.748  0.3166 -1.0682  1.8308
  557MOL0     H75146  11.554   5.885   6.943  1.1801  1.9652  2.3421
  557MOL0     H75147  11.896   6.040   7.047  0.0175  0.9915  0.5274
  557MOL0     H75148  11.723   6.087   7.016 -1.4892 -1.8116  1.2854
  557MOL0     H75149  11.811   5.919   7.243  1.5359  0.5287 -1.1631
  557MOL0     H75150  11.654   6.002   7.235  0.0335  3.2796  2.0266
  557MOL0     H75151  11.725   6.171   7.348 -1.3125 -2.7157  1.0242
  557MOL0     H75152  11.834   6.211   7.218  1.1004 -1.4583 -1.5136
  557MOL0     H75153  11.899   6.015   7.449 -1.4735  0.8631  0.7150
  557MOL0     H75154  11.927   6.191   7.445  0.7677  1.5320 -1.6584
  557MOL0     H75155  12.252   6.135   7.177 -2.2644  0.2046  0.0448
  557MOL0     H75156  12.571   5.989   7.219 -3.4634 -1.7211 -1.5129
  557MOL0     H75157  12.483   6.086   7.122  1.9938 -0.0467  0.2140
  557MOL0     H75158  12.566   6.173   7.253  2.1045  0.2876 -2.4568
  557MOL0     H75159  12.724   5.724   7.630 -1.1315  0.5250 -0.1914
  557MOL0     H75160  12.918   5.714   7.793 -0.4879 -0.3962  1.0416
  557MOL0     H75161  13.138   5.864   8.081  3.2325 -2.2495 -0.5505
  557MOL0     H75162  13.046   5.727   8.030 -0.7714 -0.2015 -2.5145
  557MOL0     H75163  13.228   5.732   7.873  3.2030  1.1631  0.4702
  557MOL0     H75164  13.121   5.832   7.782  1.6295  1.9034 -0.3270
  557MOL0     H75165  13.363   5.921   7.944 -0.4280 -1.5875  1.7936
  557MOL0     H75166  13.226   6.028   7.880 -1.1213 -1.2157 -2.7939
  557MOL0     H75167  13.281   5.935   7.652 -0.1292  0.1674 -0.5076
  557MOL0     H75168  13.415   6.025   7.726 -1.2347 -0.3503 -0.7448
  557MOL0     H75169  13.372   5.730   7.704  1.8674 -1.4589  1.2777
  557MOL0     H75170  13.512   5.804   7.776 -1.8691 -3.4140  0.9655
  557MOL0     H75171  13.440   5.844   7.482  0.3790  0.3732 -0.2085
  557MOL0     H75172  13.571   5.894   7.566 -3.5643  1.9668 -2.1912
  557MOL0     H75173  13.607   5.683   7.429 -3.2675  2.3291 -1.3316
  557MOL0     H75174  13.478   5.596   7.523 -0.8636  0.2221  0.1261
  557MOL0     H75175  13.618   5.634   7.730 -1.0239 -0.1694 -0.5965
  557MOL0     H75176  13.733   5.708   7.606 -0.6827  0.3939 -2.8126
  557MOL0     H75177  12.779   6.091   7.975  0.7916 -0.8219  0.5353
  557MOL0     H75178  12.583   6.073   7.814 -0.0335  0.3689  1.5152
  557MOL0     H75179  12.297   5.898   7.611 -1.7020 -1.8568 -0.5161
  557MOL0     H75180  12.088   5.950   7.523  2.7670 -1.2879  1.7159
  557MOL0     H75181  11.188   5.256   6.349  1.6495  0.0054  3.3319
  557MOL0     H75182  11.259   5.024   6.302  0.5092  0.2140 -1.0148
  557MOL0     H75183  10.954   4.456   6.263 -0.0388 -0.1236 -0.4262
  557MOL0     H75184  11.056   4.240   6.303 -1.3909  0.6850 -1.0213
  557MOL0     H75185  11.240   4.031   6.314 -0.2303 -0.0976  0.9441
  557MOL0     H75186  11.337   4.170   6.245  1.0619 -1.5907 -0.9398
  557MOL0     H75187  11.518   4.132   6.342 -0.2111  0.3005 -0.0114
  557MOL0     H75188  11.488   3.975   6.297  2.1976 -0.7996  2.6020
  557MOL0     H75189  11.379   3.962   6.561 -1.7720  4.5111  1.3219
  557MOL0     H75190  11.492   4.086   6.579 -0.8806  0.3284  0.4893
  557MOL0     H75191  11.676   3.949   6.463 -1.2888  4.8142 -0.0422
  557MOL0     H75192  11.568   3.809   6.491  3.5732 -0.1289  0.6515
  557MOL0     H75193  11.696   3.809   6.863 -2.2363 -2.4634  0.6091
  557MOL0     H75194  11.340   4.401   6.563 -0.7870 -4.0008  0.4959
  557MOL0     H75195  11.273   4.629   6.510  0.0801  0.5674 -0.8486
  558MOL0     O75196   9.005   8.967   6.363 -0.1538  0.5570 -0.5182
  558MOL0     C75197   9.092   9.043   6.337 -0.3637  0.4133 -0.5594
  558MOL0     O75198   9.228   9.021   6.341 -0.7109 -0.1249  0.8294
  558MOL0     C75199   9.289   8.925   6.407 -0.4928  0.1125 -0.4109
  558MOL0     C75200   9.279   8.796   6.368 -0.1365 -0.1253 -0.3925
  558MOL0     C75201   9.333   8.685   6.448 -0.4064  0.0563 -0.0525
  558MOL0     C75202   9.398   8.715   6.563 -0.0098  0.4469 -0.5960
  558MOL0     O75203   9.450   8.611   6.634 -0.6093 -0.1902  0.2896
  558MOL0     C75204   9.361   8.508   6.684  0.0709  0.0257  0.6895
  558MOL0     C75205   9.430   8.429   6.789 -0.2777 -0.5024 -0.4523
  558MOL0     C75206   9.539   8.341   6.735 -0.5219 -0.0474 -0.3464
  558MOL0     C75207   9.637   8.290   6.839  1.0219 -0.5608 -0.1561
  558MOL0     C75208   9.768   8.243   6.788  0.0099 -0.9455  0.2587
  558MOL0     C75209   9.862   8.201   6.904 -0.0992 -0.9158  1.1803
  558MOL0     C75210   9.989   8.127   6.868 -0.4188 -0.2020 -0.5309
  558MOL0     C75211  10.098   8.128   6.975  0.7811 -0.1285  0.0562
  558MOL0     N75212  10.158   8.261   6.989 -0.2293 -0.4163 -0.4204
  558MOL0     C75213  10.266   8.306   6.910  0.9730  0.0814  0.4583
  558MOL0     C75214  10.269   8.441   6.922  0.4067 -1.3809  0.8680
  558MOL0     C75215  10.359   8.541   6.870 -0.6944  0.4053 -0.3396
  558MOL0     C75216  10.501   8.528   6.932 -0.3999 -0.1582 -0.5694
  558MOL0     C75217  10.511   8.539   7.086 -0.0314  0.2575 -0.5683
  558MOL0     C75218  10.465   8.671   7.151  0.2528 -0.2884 -0.6953
  558MOL0     O75219  10.559   8.724   7.254  1.1058  0.3548  0.9613
  558MOL0     C75220  10.578   8.657   7.370  0.7003  0.0900 -0.7246
  558MOL0     C75221  10.702   8.662   7.429 -0.8295  0.2734 -0.2195
  558MOL0     C75222  10.734   8.592   7.541 -0.1719 -0.1535 -0.7801
  558MOL0     C75223  10.873   8.606   7.590  0.5524 -0.2431 -0.4073
  558MOL0     C75224  10.638   8.498   7.592  1.0992 -0.4286  0.4251
  558MOL0     C75225  10.667   8.428   7.722  0.3846  0.8995  0.0849
  558MOL0     O75226  10.580   8.327   7.741 -0.2467  0.2906 -0.1974
  558MOL0     C75227  10.577   8.242   7.846 -0.2736  0.4749 -0.1282
  558MOL0     C75228  10.479   8.146   7.835 -0.9640 -0.2850  0.2542
  558MOL0     C75229  10.469   8.050   7.931 -0.6166 -0.1411  0.8098
  558MOL0     C75230  10.551   8.040   8.045 -0.0139 -0.6407 -0.3234
  558MOL0     O75231  10.527   7.945   8.146  0.3310  0.5383  0.5262
  558MOL0     C75232  10.457   7.989   8.260 -0.0334  0.5646 -0.3391
  558MOL0     C75233  10.516   7.935   8.393 -0.1075  0.3638 -0.0236
  558MOL0     C75234  10.656   8.001   8.419  0.3701  0.4806 -0.3931
  558MOL0     C75235  10.732   7.928   8.527 -0.0008  0.6229 -0.3044
  558MOL0     C75236  10.866   7.993   8.568 -1.1280  0.7937 -0.0033
  558MOL0     C75237  10.857   8.120   8.640 -0.2965 -0.3504 -0.1860
  558MOL0     C75238  10.987   8.199   8.649 -0.3332  0.0327  0.7466
  558MOL0     C75239  10.996   8.256   8.794  0.1833 -0.5050  0.1655
  558MOL0    Cl75240  11.169   8.297   8.815 -0.3312 -0.3968  0.0447
  558MOL0     C75241  10.661   8.126   8.056 -0.3372  0.3026  0.6093
  558MOL0     C75242  10.676   8.230   7.963  0.2982 -0.3845  0.2207
  558MOL0     O75243  10.743   8.464   7.808  0.3508 -0.3713  0.1035
  558MOL0     C75244  10.518   8.472   7.514 -0.6873 -0.3620  0.1129
  558MOL0     C75245  10.493   8.558   7.413  0.2910  0.4136  0.3083
  558MOL0     N75246  10.162   8.470   7.009  0.0912 -0.0420  0.3510
  558MOL0     N75247  10.104   8.368   7.058 -0.4672 -0.1408 -0.1007
  558MOL0     C75248   9.433   8.844   6.595  0.2022  0.4880  0.1653
  558MOL0     C75249   9.374   8.950   6.523  0.0972  0.2281 -0.0913
  558MOL0     C75250   9.065   9.183   6.307 -0.1571  0.5227 -0.4569
  558MOL0     C75251   9.154   9.269   6.246  0.3782  0.3295 -1.0970
  558MOL0     C75252   9.134   9.402   6.219 -0.5558 -0.2382 -0.4290
  558MOL0     C75253   9.020   9.462   6.273 -0.5775 -0.5005  0.4724
  558MOL0     O75254   8.989   9.594   6.274  0.2354  1.1167  0.2988
  558MOL0     C75255   9.093   9.693   6.261  0.3064  0.2846 -0.0403
  558MOL0     C75256   9.048   9.838   6.266  0.8077 -0.4795  0.3011
  558MOL0     C75257   8.972   9.869   6.139  0.2321 -0.2048 -0.6326
  558MOL0     C75258   8.908  10.008   6.139  0.7933  0.1147 -1.8047
  558MOL0     C75259   8.774  10.007   6.211 -0.7502  0.2432  0.1571
  558MOL0     C75260   8.671  10.011   6.264  0.6968 -0.4942 -0.2246
  558MOL0     C75261   8.920   9.382   6.318  0.4315 -0.3567 -0.2125
  558MOL0     C75262   8.943   9.244   6.339 -0.1452 -0.1026  0.4632
  558MOL0     H75263   9.230   8.779   6.273  1.5376  3.1815 -1.9919
  558MOL0     H75264   9.320   8.580   6.425 -2.8290  0.6888 -2.0783
  558MOL0     H75265   9.278   8.563   6.730  1.0955  1.8584  0.4581
  558MOL0     H75266   9.322   8.448   6.601  1.8989 -1.2626  0.6937
  558MOL0     H75267   9.483   8.495   6.859 -1.0159  2.5474 -2.5723
  558MOL0     H75268   9.368   8.361   6.849 -1.1982  2.5249  2.3003
  558MOL0     H75269   9.491   8.251   6.695 -1.4803 -0.6616  2.0301
  558MOL0     H75270   9.599   8.390   6.658  2.5004  0.0273  1.8640
  558MOL0     H75271   9.660   8.373   6.906 -3.3485  0.6462  0.1727
  558MOL0     H75272   9.594   8.207   6.896 -0.7156 -0.0365 -0.6541
  558MOL0     H75273   9.760   8.158   6.720 -0.1228 -2.5148  2.1487
  558MOL0     H75274   9.813   8.319   6.724 -0.8675  0.2098  0.9663
  558MOL0     H75275   9.883   8.296   6.954 -3.5537  1.0232 -0.6969
  558MOL0     H75276   9.814   8.129   6.971 -2.9015 -1.6720 -1.3818
  558MOL0     H75277   9.956   8.025   6.847  1.7896 -1.0065 -0.3705
  558MOL0     H75278  10.041   8.168   6.781  1.5610 -1.3836  0.0258
  558MOL0     H75279  10.173   8.053   6.953  3.0306  1.4848  1.7000
  558MOL0     H75280  10.066   8.102   7.077  1.9889  1.4929  0.9143
  558MOL0     H75281  10.343   8.244   6.865  1.5013  1.1202 -0.1081
  558MOL0     H75282  10.355   8.539   6.761 -0.0013  0.5748 -0.3742
  558MOL0     H75283  10.321   8.637   6.906 -2.8081 -1.9244  4.5359
  558MOL0     H75284  10.568   8.602   6.889  1.8062 -1.5216  0.3446
  558MOL0     H75285  10.542   8.431   6.902  3.1644 -0.4029  3.9707
  558MOL0     H75286  10.613   8.513   7.113 -0.2646 -1.2751 -1.0317
  558MOL0     H75287  10.456   8.453   7.125  2.2665 -0.5460  1.1095
  558MOL0     H75288  10.361   8.663   7.183  0.0215  2.3758 -0.5094
  558MOL0     H75289  10.450   8.746   7.072  1.0142 -1.9801 -2.5315
  558MOL0     H75290  10.771   8.736   7.391 -0.3301 -0.1614 -0.1831
  558MOL0     H75291  10.944   8.611   7.507 -1.5167 -2.0630 -2.4247
  558MOL0     H75292  10.861   8.697   7.650  1.0389  0.0623 -0.7683
  558MOL0     H75293  10.901   8.523   7.655 -0.2215  2.2329  3.4349
  558MOL0     H75294  10.418   8.139   7.745 -1.0866  0.2771  0.2909
  558MOL0     H75295  10.395   7.974   7.911  1.7625 -2.0122 -1.6253
  558MOL0     H75296  10.466   8.098   8.266  2.1275  0.4221 -0.4949
  558MOL0     H75297  10.353   7.955   8.255  0.4124 -0.9527  0.1081
  558MOL0     H75298  10.441   7.934   8.473 -1.6308 -0.0349 -1.4117
  558MOL0     H75299  10.524   7.827   8.381 -2.1121 -0.3142  3.3766
  558MOL0     H75300  10.624   8.098   8.458 -1.5176  0.4899 -1.7843
  558MOL0     H75301  10.714   8.017   8.327 -1.9374  1.3010 -1.8047
  558MOL0     H75302  10.668   7.923   8.615 -0.3918 -2.4071 -0.6712
  558MOL0     H75303  10.747   7.824   8.497 -1.4437  0.2981  0.0111
  558MOL0     H75304  10.913   8.019   8.473 -0.9599  0.5800  0.0195
  558MOL0     H75305  10.921   7.927   8.635 -0.9836  1.3764  0.4550
  558MOL0     H75306  10.781   8.180   8.590  0.2392  1.4422  1.0557
  558MOL0     H75307  10.815   8.116   8.741  1.5888  0.8402  0.6861
  558MOL0     H75308  10.976   8.274   8.570  0.2540 -0.8538 -0.1940
  558MOL0     H75309  11.067   8.125   8.639  1.7703  1.2001  5.9171
  558MOL0     H75310  10.958   8.182   8.866  1.6960 -2.0357 -0.5248
  558MOL0     H75311  10.940   8.350   8.797  2.7027  1.3399 -3.1713
  558MOL0     H75312  10.727   8.111   8.141 -0.6112 -0.4402  0.7045
  558MOL0     H75313  10.763   8.294   7.971 -0.1273  0.0216  2.3334
  558MOL0     H75314  10.436   8.407   7.542  0.4576 -1.7339  0.4028
  558MOL0     H75315  10.407   8.538   7.350 -0.3956 -1.4875  1.7619
  558MOL0     H75316   9.508   8.853   6.672  0.8331 -3.2976  0.2034
  558MOL0     H75317   9.386   9.056   6.546 -0.0259  0.8535 -2.6422
  558MOL0     H75318   9.255   9.231   6.227  1.3197  2.9322 -1.7127
  558MOL0     H75319   9.219   9.461   6.188 -2.7569  3.8294  0.6065
  558MOL0     H75320   9.149   9.680   6.353 -0.4187  0.7103  0.4701
  558MOL0     H75321   9.169   9.671   6.186  2.5951 -0.4933  2.3647
  558MOL0     H75322   9.139   9.898   6.270  1.6668 -1.6605 -0.4939
  558MOL0     H75323   8.983   9.859   6.351  0.1481  3.0030 -0.9188
  558MOL0     H75324   8.894   9.793   6.126 -1.3893  0.3980  3.9062
  558MOL0     H75325   9.051   9.874   6.064  0.8040 -2.0270 -0.1984
  558MOL0     H75326   8.890  10.049   6.039 -2.5128 -0.7953 -1.6900
  558MOL0     H75327   8.970  10.084   6.186 -3.1006  0.8174  2.9314
  558MOL0     H75328   8.583   9.996   6.323  2.2102  0.6651  2.5161
  558MOL0     H75329   8.841   9.441   6.363  1.7525 -0.6878  2.8017
  558MOL0     H75330   8.856   9.192   6.381 -1.4102  2.5506  1.3607
  559MOL0     O75331   9.718   4.504   0.362 -0.2487 -0.2776 -0.0950
  559MOL0     C75332   9.817   4.481   0.439  0.7083 -0.0187 -0.3414
  559MOL0     O75333   9.944   4.504   0.417  0.0401  0.2938  0.0182
  559MOL0     C75334   9.986   4.582   0.303  0.7991  0.1529 -0.6620
  559MOL0     C75335  10.050   4.696   0.334 -0.8796 -0.0499  0.4594
  559MOL0     C75336  10.094   4.772   0.230 -0.0550  0.2749  0.4631
  559MOL0     C75337  10.064   4.741   0.097 -0.4944 -0.1156 -0.0677
  559MOL0     O75338  10.115   4.831   0.007 -0.6586 -0.4330  0.0486
  559MOL0     C75339  10.048   4.830  -0.122  0.1278  0.0055 -0.2541
  559MOL0     C75340  10.096   4.946  -0.198  0.3192  0.9210 -0.2220
  559MOL0     C75341  10.017   4.947  -0.334 -0.6308  0.9669 -0.2080
  559MOL0     C75342  10.061   5.058  -0.435 -0.2162 -0.7497 -0.0553
  559MOL0     C75343  10.015   5.198  -0.387 -0.0191 -0.0645 -0.3374
  559MOL0     C75344   9.858   5.225  -0.393  0.1904 -0.4196 -0.5388
  559MOL0     C75345   9.808   5.360  -0.335  0.7681 -0.1854  0.0654
  559MOL0     C75346   9.825   5.383  -0.188 -0.0565 -0.5740 -0.2480
  559MOL0     N75347   9.774   5.277  -0.099  0.0546 -0.2978  0.5636
  559MOL0     C75348   9.640   5.235  -0.120  0.4235 -0.0181  0.2226
  559MOL0     C75349   9.618   5.151  -0.014  0.1247 -0.6125  0.6163
  559MOL0     C75350   9.495   5.061   0.005 -0.7165 -0.2157 -0.7222
  559MOL0     C75351   9.498   4.931  -0.066 -0.9061  0.0045 -0.8134
  559MOL0     C75352   9.605   4.829  -0.005  0.4392 -0.3503 -0.2562
  559MOL0     C75353   9.602   4.699  -0.082 -0.3024  0.2317 -0.4026
  559MOL0     O75354   9.479   4.628  -0.078 -0.3756  0.7835 -0.0252
  559MOL0     C75355   9.405   4.585   0.030  0.7054 -0.0163 -0.5876
  559MOL0     C75356   9.265   4.598   0.036 -0.0496  0.1459  0.3486
  559MOL0     C75357   9.189   4.558   0.150  0.2102 -1.5672  0.5355
  559MOL0     C75358   9.037   4.572   0.126  0.8193  0.0256  0.3988
  559MOL0     C75359   9.253   4.499   0.258 -0.0513 -0.3638 -0.3342
  559MOL0     C75360   9.174   4.431   0.370 -0.9722 -0.1869  0.3448
  559MOL0     O75361   9.253   4.377   0.466 -0.0359 -0.4464 -0.3446
  559MOL0     C75362   9.212   4.299   0.574 -0.0888 -0.1223  0.7068
  559MOL0     C75363   9.228   4.339   0.703 -0.5917  0.7918 -0.6597
  559MOL0     C75364   9.176   4.270   0.821  0.1178 -0.4415 -0.1197
  559MOL0     C75365   9.094   4.160   0.790  1.2917 -0.5787 -0.0735
  559MOL0     O75366   9.026   4.085   0.886 -0.2560  0.4263  0.8647
  559MOL0     C75367   9.064   4.091   1.022 -0.3379  0.3535 -0.4755
  559MOL0     C75368   8.967   4.196   1.088 -0.6711 -0.8711 -0.2153
  559MOL0     C75369   8.989   4.191   1.247 -0.6509  0.9898  0.0779
  559MOL0     C75370   8.913   4.079   1.308  0.1526  0.7929  1.2065
  559MOL0     C75371   8.953   4.066   1.453  0.4713  0.2851 -0.6409
  559MOL0     C75372   8.883   4.156   1.557  0.5570  0.1497 -0.8414
  559MOL0     C75373   8.926   4.147   1.703 -0.5886 -0.4931  0.0801
  559MOL0     C75374   8.917   4.285   1.768 -0.0506  0.8390  0.0235
  559MOL0    Cl75375   9.034   4.406   1.732  0.3977  0.0729  0.1417
  559MOL0     C75376   9.070   4.125   0.659 -0.6132 -0.6835 -0.9214
  559MOL0     C75377   9.127   4.194   0.556  0.3078 -0.7487 -0.0507
  559MOL0     O75378   9.059   4.431   0.366 -0.0998  0.7271 -1.2077
  559MOL0     C75379   9.397   4.499   0.258  0.4128  0.5887 -0.5538
  559MOL0     C75380   9.468   4.546   0.146  0.2710 -0.2765 -0.3115
  559MOL0     N75381   9.732   5.142   0.062  0.1744  1.3268  0.0943
  559MOL0     N75382   9.824   5.220   0.012 -0.1389  0.0755 -0.0426
  559MOL0     C75383   9.994   4.624   0.070  0.5397  0.3832 -1.1400
  559MOL0     C75384   9.952   4.538   0.180  0.4295 -0.2552  0.5768
  559MOL0     C75385   9.781   4.404   0.565 -0.3917 -0.6408  0.8529
  559MOL0     C75386   9.665   4.334   0.570 -0.4920  0.2177  0.4441
  559MOL0     C75387   9.620   4.257   0.675 -0.2050  0.5017  0.0339
  559MOL0     C75388   9.703   4.237   0.780 -0.7278  0.1072  0.5136
  559MOL0     O75389   9.677   4.178   0.905  0.0060  0.0054 -0.6351
  559MOL0     C75390   9.539   4.148   0.921  0.1954  0.2104  0.0957
  559MOL0     C75391   9.533   4.074   1.056 -0.1523 -0.4473 -1.0310
  559MOL0     C75392   9.553   3.929   1.042  0.0525 -0.6180  0.1271
  559MOL0     C75393   9.537   3.846   1.176 -0.2848  1.3752 -1.2299
  559MOL0     C75394   9.639   3.741   1.189  0.3043  0.5533 -0.4201
  559MOL0     C75395   9.721   3.649   1.171  0.8118  0.9535 -0.9561
  559MOL0     C75396   9.829   4.296   0.778 -0.2445  0.0503  0.1466
  559MOL0     C75397   9.873   4.381   0.672 -0.2521  0.0973  0.4722
  559MOL0     H75398  10.088   4.725   0.431  1.3073 -1.3707  0.0674
  559MOL0     H75399  10.155   4.860   0.252  0.9607 -0.0839 -0.8142
  559MOL0     H75400  10.049   4.734  -0.174  1.3873 -0.7063  1.0202
  559MOL0     H75401   9.943   4.839  -0.092  0.3080 -0.2713  0.4728
  559MOL0     H75402  10.058   5.032  -0.142 -2.1010 -0.7431  0.8830
  559MOL0     H75403  10.203   4.964  -0.204  0.3683  1.3194  1.4129
  559MOL0     H75404  10.029   4.849  -0.380 -0.7702  1.6716 -1.7995
  559MOL0     H75405   9.911   4.959  -0.311 -0.8298 -0.0832 -0.5559
  559MOL0     H75406  10.170   5.050  -0.438  0.4205  4.4326 -0.1289
  559MOL0     H75407  10.025   5.041  -0.537 -0.3951  1.1620 -0.3389
  559MOL0     H75408  10.036   5.212  -0.281 -0.4000  3.5771 -0.6278
  559MOL0     H75409  10.064   5.274  -0.448  0.5999 -0.6516 -0.5857
  559MOL0     H75410   9.846   5.229  -0.501  0.3877 -2.7944 -0.6914
  559MOL0     H75411   9.803   5.147  -0.340  3.2910 -2.0456  0.5838
  559MOL0     H75412   9.852   5.437  -0.399  0.6320 -0.0215  0.1714
  559MOL0     H75413   9.699   5.365  -0.344  0.9661  0.1028 -3.9185
  559MOL0     H75414   9.780   5.474  -0.148 -0.0508 -0.4126 -0.6026
  559MOL0     H75415   9.931   5.395  -0.163 -0.3164 -1.7475  1.6105
  559MOL0     H75416   9.565   5.275  -0.188 -0.6357  0.6262  1.7035
  559MOL0     H75417   9.472   5.047   0.111  1.1714 -2.7572 -0.5688
  559MOL0     H75418   9.405   5.117  -0.023  0.7252  0.4049 -4.9726
  559MOL0     H75419   9.513   4.958  -0.171 -2.6659  3.9208 -0.2407
  559MOL0     H75420   9.402   4.879  -0.063 -1.4471  1.0012  1.2572
  559MOL0     H75421   9.596   4.811   0.102 -0.8707  0.0957 -0.2762
  559MOL0     H75422   9.710   4.862  -0.006  1.3974 -3.1597  0.4791
  559MOL0     H75423   9.683   4.627  -0.066  0.5402 -0.0271 -4.7250
  559MOL0     H75424   9.605   4.728  -0.187  3.3091 -1.2241 -0.8189
  559MOL0     H75425   9.220   4.649  -0.048  2.1983  0.5959 -0.6571
  559MOL0     H75426   9.017   4.654   0.057 -0.5123  2.1797  3.1423
  559MOL0     H75427   9.006   4.475   0.085 -3.0494  0.9421  0.8394
  559MOL0     H75428   8.985   4.604   0.217  2.2930 -0.6191  1.5281
  559MOL0     H75429   9.283   4.430   0.728  4.4704 -0.7010 -4.5503
  559MOL0     H75430   9.194   4.299   0.925 -1.4037 -2.4164  0.7714
  559MOL0     H75431   9.048   3.987   1.051 -2.5926  0.2864 -1.7511
  559MOL0     H75432   9.169   4.114   1.042 -0.1548 -0.6850 -0.2247
  559MOL0     H75433   8.990   4.298   1.054 -0.8284 -0.4174  0.9893
  559MOL0     H75434   8.860   4.186   1.069 -1.3329  3.7292 -0.0204
  559MOL0     H75435   8.942   4.285   1.278  0.5633  1.8725 -0.6735
  559MOL0     H75436   9.095   4.180   1.271 -0.7005  3.4045  1.7428
  559MOL0     H75437   8.805   4.093   1.303 -0.7775 -4.6334 -0.6362
  559MOL0     H75438   8.926   3.984   1.255  0.5422  0.0764  2.5443
  559MOL0     H75439   9.062   4.067   1.466  0.3806  1.3307  0.1331
  559MOL0     H75440   8.921   3.964   1.478 -2.7912 -0.0419 -5.0226
  559MOL0     H75441   8.895   4.261   1.526  2.3637  0.7844  1.6904
  559MOL0     H75442   8.776   4.136   1.553  0.6353 -1.4888  2.0819
  559MOL0     H75443   9.030   4.119   1.720 -0.7161 -0.3214  1.2174
  559MOL0     H75444   8.862   4.072   1.751 -1.5685 -0.8718 -1.7280
  559MOL0     H75445   8.936   4.262   1.873 -3.6925 -2.9230  0.1260
  559MOL0     H75446   8.816   4.322   1.747 -1.8571 -3.7056 -0.3133
  559MOL0     H75447   8.997   4.046   0.645 -2.4765  0.4569  1.5709
  559MOL0     H75448   9.112   4.158   0.455 -3.0984 -2.3579  0.8874
  559MOL0     H75449   9.449   4.463   0.345  1.2483  1.5263 -0.6488
  559MOL0     H75450   9.572   4.519   0.155  0.3338  0.0739  0.0575
  559MOL0     H75451   9.985   4.588  -0.032 -0.0357 -0.9979 -0.6300
  559MOL0     H75452   9.903   4.443   0.167  0.1261 -0.1539  0.9744
  559MOL0     H75453   9.590   4.342   0.491  2.5320 -0.1299 -2.7159
  559MOL0     H75454   9.515   4.229   0.681  0.0544 -0.4349  0.5621
  559MOL0     H75455   9.482   4.241   0.924 -2.1517 -1.1965  1.4190
  559MOL0     H75456   9.497   4.083   0.845 -1.7257 -0.1929  1.4448
  559MOL0     H75457   9.437   4.101   1.102  0.3945 -1.6684  0.9471
  559MOL0     H75458   9.609   4.114   1.124 -1.3726 -3.9581  2.8581
  559MOL0     H75459   9.661   3.915   1.024  0.2690 -2.5708  2.4179
  559MOL0     H75460   9.498   3.881   0.961 -1.0920 -1.4824  1.3774
  559MOL0     H75461   9.437   3.806   1.195  1.5426 -3.0676  0.6688
  559MOL0     H75462   9.556   3.925   1.250 -2.3515  1.7158 -1.0095
  559MOL0     H75463   9.783   3.563   1.160 -0.1100  0.1547 -0.0864
  559MOL0     H75464   9.898   4.266   0.856  0.1009  0.9741  0.2101
  559MOL0     H75465   9.974   4.417   0.684  0.6661 -2.0727 -0.1790
  560MOL0     O75466   1.590   3.307   7.309  0.1001 -0.6236 -0.3190
  560MOL0     C75467   1.603   3.188   7.348  0.7738 -0.6199  0.4249
  560MOL0     O75468   1.687   3.088   7.296 -0.0457  0.0465 -0.2040
  560MOL0     C75469   1.748   3.103   7.167 -0.1092 -0.2572 -0.6400
  560MOL0     C75470   1.752   3.214   7.084 -0.9775 -0.6477  1.0140
  560MOL0     C75471   1.827   3.223   6.976 -0.2422  0.8512  0.2306
  560MOL0     C75472   1.906   3.113   6.946 -0.3686  0.4159  0.9766
  560MOL0     O75473   1.992   3.123   6.834  0.4580 -0.2841  0.0173
  560MOL0     C75474   2.128   3.091   6.855 -0.3191 -1.4043  0.7250
  560MOL0     C75475   2.210   3.164   6.742  0.0592  0.9307  0.1391
  560MOL0     C75476   2.352   3.114   6.733 -0.9117 -0.7477 -1.1279
  560MOL0     C75477   2.422   3.196   6.851 -0.7671  0.5520 -0.1461
  560MOL0     C75478   2.575   3.202   6.833  1.1718  1.4103 -0.5347
  560MOL0     C75479   2.636   3.113   6.941  0.2454 -0.7510 -0.1555
  560MOL0     C75480   2.785   3.150   6.944  0.0493 -0.5577 -0.3135
  560MOL0     C75481   2.866   3.021   6.983  0.2831  0.2045 -0.1804
  560MOL0     N75482   3.002   3.048   7.031 -0.6567 -0.0628  0.0108
  560MOL0     C75483   3.035   3.031   7.164 -0.4417  0.3122 -0.6209
  560MOL0     C75484   3.167   3.060   7.170  0.2261  0.4359  0.2881
  560MOL0     C75485   3.264   3.056   7.278 -0.7668  0.7249 -0.2586
  560MOL0     C75486   3.353   2.924   7.264  0.5127  0.4574  0.6848
  560MOL0     C75487   3.470   2.914   7.362  0.3556 -0.4839 -0.0839
  560MOL0     C75488   3.404   2.882   7.500  0.8930 -0.2097  0.4236
  560MOL0     O75489   3.338   2.992   7.556 -0.5276 -0.1109 -0.2044
  560MOL0     C75490   3.404   3.077   7.646  0.0631  0.2797  0.6222
  560MOL0     C75491   3.322   3.176   7.716  0.8323 -0.7370  1.2044
  560MOL0     C75492   3.372   3.262   7.814  0.2597 -0.3132  0.0782
  560MOL0     C75493   3.276   3.345   7.896  0.1723 -0.1511 -0.1292
  560MOL0     C75494   3.512   3.253   7.841 -0.0366 -0.6499  0.1098
  560MOL0     C75495   3.583   3.360   7.911  0.3757  0.5302 -0.6465
  560MOL0     O75496   3.717   3.320   7.949 -0.5255  0.7674  0.0894
  560MOL0     C75497   3.774   3.375   8.062  0.0456  0.1050  0.5672
  560MOL0     C75498   3.722   3.469   8.158 -0.3212 -0.2180  0.7315
  560MOL0     C75499   3.811   3.507   8.265  1.2210 -0.5865  1.4507
  560MOL0     C75500   3.938   3.448   8.278  0.8727 -0.3359 -0.9901
  560MOL0     O75501   4.035   3.493   8.369 -1.0799  0.3170 -0.0352
  560MOL0     C75502   3.995   3.575   8.475 -0.2305 -0.8531 -0.2524
  560MOL0     C75503   4.131   3.589   8.556 -0.3657 -0.4219  1.4369
  560MOL0     C75504   4.121   3.690   8.676  0.9839 -0.6346 -0.9853
  560MOL0     C75505   4.082   3.841   8.648 -0.4681 -0.1605 -0.7964
  560MOL0     C75506   3.939   3.872   8.599 -0.3055  0.4820  0.0169
  560MOL0     C75507   3.904   4.023   8.600 -0.2865 -0.5938  0.3868
  560MOL0     C75508   4.001   4.103   8.522  0.5377 -0.1058 -0.8306
  560MOL0     C75509   3.942   4.239   8.501  1.0200 -0.6122 -0.0985
  560MOL0    Cl75510   3.920   4.325   8.663 -0.4040 -0.5167  0.2118
  560MOL0     C75511   3.977   3.345   8.192 -0.2099  0.7941 -0.3860
  560MOL0     C75512   3.899   3.317   8.080  0.3361 -0.6187 -0.0237
  560MOL0     O75513   3.537   3.469   7.923  0.8338  0.0109  0.0909
  560MOL0     C75514   3.585   3.151   7.780 -0.0592  1.1041  0.5441
  560MOL0     C75515   3.538   3.064   7.683  0.4899  0.0614  0.4982
  560MOL0     N75516   3.209   3.100   7.051 -0.1589  0.4353  1.1165
  560MOL0     N75517   3.111   3.085   6.964 -1.1706 -0.3042 -0.9209
  560MOL0     C75518   1.897   2.997   7.009 -0.2628  0.1261 -0.2448
  560MOL0     C75519   1.826   2.989   7.129 -0.2319 -0.1782  1.1570
  560MOL0     C75520   1.517   3.141   7.456 -0.1919 -0.3408 -0.4750
  560MOL0     C75521   1.467   3.230   7.559  0.0317  0.7327  0.2599
  560MOL0     C75522   1.389   3.192   7.668 -0.1620 -0.0067 -0.2725
  560MOL0     C75523   1.360   3.050   7.678 -0.7613 -0.5448  0.6794
  560MOL0     O75524   1.280   3.005   7.774 -0.3054 -0.4872  0.0750
  560MOL0     C75525   1.272   3.053   7.907  0.3146 -0.3716 -0.2387
  560MOL0     C75526   1.412   3.056   7.975 -0.6906 -0.3971 -0.1205
  560MOL0     C75527   1.401   3.139   8.104 -0.3213  0.0440  0.0374
  560MOL0     C75528   1.352   3.051   8.218 -0.3031  0.9472 -0.6092
  560MOL0     C75529   1.433   2.936   8.255 -0.4036  0.4334 -0.8749
  560MOL0     C75530   1.514   2.848   8.263 -0.3282 -0.5379 -0.0436
  560MOL0     C75531   1.389   2.965   7.573 -0.0485 -0.8065 -0.5371
  560MOL0     C75532   1.481   3.002   7.468 -0.3720 -0.0539 -0.5753
  560MOL0     H75533   1.683   3.294   7.109 -2.3841 -2.2352  2.4933
  560MOL0     H75534   1.829   3.308   6.908 -0.6035 -0.6724 -1.7892
  560MOL0     H75535   2.171   3.129   6.948  0.8271 -0.0030 -0.3217
  560MOL0     H75536   2.135   2.982   6.863 -1.6734 -1.5312  0.3553
  560MOL0     H75537   2.160   3.144   6.647 -0.2174  2.0703  0.0297
  560MOL0     H75538   2.192   3.270   6.762 -1.9644  0.7789 -0.6248
  560MOL0     H75539   2.360   3.009   6.765  1.1349  0.1269  1.5562
  560MOL0     H75540   2.382   3.128   6.629 -0.1564 -1.8369 -1.0696
  560MOL0     H75541   2.389   3.300   6.846 -0.3194  0.6334 -1.8487
  560MOL0     H75542   2.397   3.147   6.946 -1.4650 -1.4229 -1.2785
  560MOL0     H75543   2.610   3.152   6.742  2.0306  0.5502  0.2351
  560MOL0     H75544   2.599   3.307   6.851 -0.8218  1.6377  1.0702
  560MOL0     H75545   2.593   3.118   7.041  0.9249 -3.5050  0.3492
  560MOL0     H75546   2.637   3.011   6.904  0.5091 -1.5829  2.0111
  560MOL0     H75547   2.826   3.194   6.853 -0.4781  2.2712  0.7132
  560MOL0     H75548   2.785   3.229   7.020 -0.7818 -1.4016  0.5951
  560MOL0     H75549   2.880   2.954   6.897  2.9996 -0.6063  0.7708
  560MOL0     H75550   2.805   2.971   7.059 -1.2043  0.2560 -1.2901
  560MOL0     H75551   2.980   2.983   7.245  2.4093 -2.2038  0.0295
  560MOL0     H75552   3.334   3.138   7.260  0.4959  0.3416  2.4372
  560MOL0     H75553   3.212   3.074   7.372  2.6228  0.6347  1.7786
  560MOL0     H75554   3.400   2.925   7.165 -0.7289 -1.5881  0.0108
  560MOL0     H75555   3.298   2.831   7.276  2.0714 -0.1858  4.2627
  560MOL0     H75556   3.521   3.010   7.377  3.5690 -2.0733  0.1048
  560MOL0     H75557   3.540   2.833   7.339  0.6028 -0.4118  0.3962
  560MOL0     H75558   3.484   2.843   7.564  0.9539  1.4315  1.3915
  560MOL0     H75559   3.328   2.803   7.491  0.6013  0.1417 -0.3266
  560MOL0     H75560   3.220   3.201   7.692  0.9568  2.4630  3.3645
  560MOL0     H75561   3.319   3.363   7.995  1.4132 -4.6320  0.3656
  560MOL0     H75562   3.256   3.440   7.846  1.3502  2.6534  4.1424
  560MOL0     H75563   3.177   3.297   7.895  0.6364 -1.1963 -2.7159
  560MOL0     H75564   3.625   3.515   8.140  0.4095  1.8011  1.7253
  560MOL0     H75565   3.784   3.590   8.328  3.8332  1.4151  0.1550
  560MOL0     H75566   3.953   3.669   8.438 -0.4556 -0.0861  1.8443
  560MOL0     H75567   3.921   3.520   8.534  1.4310 -2.0853  0.7842
  560MOL0     H75568   4.177   3.494   8.585 -0.6263 -0.8533  0.4799
  560MOL0     H75569   4.211   3.632   8.493 -0.2262 -1.0793  1.1599
  560MOL0     H75570   4.220   3.688   8.722  0.6850  0.7271 -0.2168
  560MOL0     H75571   4.048   3.653   8.748 -0.4182  1.2349 -1.3740
  560MOL0     H75572   4.090   3.899   8.740 -3.3670 -2.6633  1.2082
  560MOL0     H75573   4.149   3.883   8.572  0.0189 -1.2369 -0.9886
  560MOL0     H75574   3.871   3.810   8.658  0.8423  1.2456  2.2925
  560MOL0     H75575   3.923   3.852   8.493  0.2601  0.0769  0.0004
  560MOL0     H75576   3.800   4.039   8.570  0.1036  3.4822  0.6762
  560MOL0     H75577   3.899   4.050   8.706 -0.4332 -0.3349  0.3155
  560MOL0     H75578   4.036   4.066   8.425  1.9035  2.2762 -1.3190
  560MOL0     H75579   4.088   4.137   8.579 -0.0651  0.2714 -0.1117
  560MOL0     H75580   3.850   4.252   8.444  2.5169  5.8178 -1.8220
  560MOL0     H75581   4.012   4.295   8.439  0.3342  2.7042  1.8667
  560MOL0     H75582   4.068   3.296   8.225  2.1449  4.1752 -1.3697
  560MOL0     H75583   3.953   3.253   8.010  2.0244 -1.3556  1.8459
  560MOL0     H75584   3.693   3.143   7.788 -0.2016  0.0329  1.6373
  560MOL0     H75585   3.603   2.988   7.640 -1.9850 -1.8783 -0.0636
  560MOL0     H75586   1.951   2.914   6.963  0.4022  0.2949  0.2135
  560MOL0     H75587   1.816   2.890   7.174  2.5271 -1.7877 -1.4286
  560MOL0     H75588   1.492   3.335   7.545  1.5319  0.7417  2.4956
  560MOL0     H75589   1.344   3.268   7.732 -0.6995  0.9465 -1.7242
  560MOL0     H75590   1.222   3.149   7.919  1.5308  0.2244  0.2506
  560MOL0     H75591   1.204   2.984   7.958 -1.2907  1.6963  0.5418
  560MOL0     H75592   1.492   3.106   7.920 -0.3386 -1.1195 -0.2868
  560MOL0     H75593   1.443   2.953   7.997 -2.2095 -0.1907  3.9517
  560MOL0     H75594   1.333   3.223   8.084  0.0506 -0.5238 -4.8266
  560MOL0     H75595   1.496   3.184   8.134 -0.8711  2.4223 -1.5275
  560MOL0     H75596   1.247   3.024   8.207 -1.1045  3.2654  0.6234
  560MOL0     H75597   1.338   3.108   8.311  3.8147  0.7057  0.3614
  560MOL0     H75598   1.599   2.784   8.273  0.9153  0.8825 -1.0429
  560MOL0     H75599   1.345   2.866   7.565  1.4602 -1.5976  0.4714
  560MOL0     H75600   1.518   2.930   7.396  2.3455 -0.1087  0.7764
  561MOL0     O75601   3.739   7.463   3.289  0.1388 -0.3073 -0.0013
  561MOL0     C75602   3.684   7.448   3.398  0.1577 -0.2779 -0.2596
  561MOL0     O75603   3.606   7.537   3.467  0.2429 -0.5784 -0.3347
  561MOL0     C75604   3.563   7.657   3.404 -0.4457 -0.0698 -0.8044
  561MOL0     C75605   3.556   7.680   3.261 -0.1489  0.5412  1.0851
  561MOL0     C75606   3.511   7.800   3.202  1.0662  0.2035 -0.3983
  561MOL0     C75607   3.478   7.908   3.291  0.9118  0.6800  1.1501
  561MOL0     O75608   3.421   8.025   3.244 -0.0682  0.0706  0.2407
  561MOL0     C75609   3.404   8.038   3.101 -0.2148 -0.6750  0.3948
  561MOL0     C75610   3.276   7.971   3.040  1.0386  0.3500  0.5190
  561MOL0     C75611   3.254   7.997   2.889 -0.1878  0.5020  0.8837
  561MOL0     C75612   3.352   7.896   2.807 -0.1659 -1.2505  1.2975
  561MOL0     C75613   3.332   7.910   2.651  0.5458 -0.6690 -0.6774
  561MOL0     C75614   3.457   7.964   2.581 -0.1994  0.7284  0.6276
  561MOL0     C75615   3.453   7.978   2.429 -0.0875  0.1377 -0.5739
  561MOL0     C75616   3.592   7.976   2.381  0.6322  0.5534 -0.5970
  561MOL0     N75617   3.601   8.000   2.236  0.3005  0.6324 -0.0943
  561MOL0     C75618   3.649   8.112   2.175  0.0105 -0.0104 -0.2502
  561MOL0     C75619   3.651   8.081   2.043 -0.7375  0.9454 -0.2119
  561MOL0     C75620   3.705   8.146   1.916 -0.6406  0.7121 -0.0634
  561MOL0     C75621   3.821   8.242   1.957  0.7631  0.6636  0.4424
  561MOL0     C75622   3.939   8.167   2.026 -0.2791  0.0193  0.9209
  561MOL0     C75623   4.053   8.261   2.052 -0.6879 -0.0264  0.5457
  561MOL0     O75624   4.164   8.184   2.089  0.1581 -0.1532  0.5188
  561MOL0     C75625   4.275   8.257   2.118 -0.8683  0.0441 -0.9504
  561MOL0     C75626   4.339   8.339   2.035 -0.4205 -0.9275 -0.2013
  561MOL0     C75627   4.455   8.419   2.065  0.9815  0.4882 -0.5408
  561MOL0     C75628   4.495   8.535   1.967  0.5735  0.2305 -0.2363
  561MOL0     C75629   4.511   8.398   2.197  0.2461  0.8110 -0.9967
  561MOL0     C75630   4.623   8.473   2.248  0.1249 -0.3056 -0.2294
  561MOL0     O75631   4.627   8.482   2.386 -0.0575  0.5500 -0.1240
  561MOL0     C75632   4.695   8.587   2.445  1.2342  0.7447  0.3466
  561MOL0     C75633   4.691   8.715   2.381 -0.9908  0.2484  0.6291
  561MOL0     C75634   4.741   8.822   2.455 -0.2945  0.2417  0.7100
  561MOL0     C75635   4.793   8.797   2.580  1.0447 -0.7730 -0.2443
  561MOL0     O75636   4.823   8.911   2.648 -0.0430  0.4973 -0.2177
  561MOL0     C75637   4.958   8.903   2.686  0.5077  0.7049 -0.3766
  561MOL0     C75638   5.011   9.015   2.773  0.6197  0.5068  0.2733
  561MOL0     C75639   4.920   9.035   2.898  0.0953  0.1632  0.0016
  561MOL0     C75640   4.978   8.946   3.018 -0.7953 -1.1653 -0.0522
  561MOL0     C75641   5.099   9.005   3.101 -0.6573  0.4200 -0.1547
  561MOL0     C75642   5.063   9.104   3.221  0.0616  0.1865  0.6520
  561MOL0     C75643   4.996   9.039   3.343  1.4536  0.0214 -0.0620
  561MOL0     C75644   4.915   9.136   3.414  0.6603  0.6269  0.5047
  561MOL0    Cl75645   4.827   9.047   3.554 -0.1230 -0.5611 -0.3574
  561MOL0     C75646   4.791   8.670   2.636 -0.0384 -0.1371  0.2631
  561MOL0     C75647   4.739   8.562   2.576  0.4659  0.0875  0.0168
  561MOL0     O75648   4.713   8.510   2.169  0.6954  0.5092 -0.0690
  561MOL0     C75649   4.440   8.316   2.286 -1.0706  0.0907  0.4091
  561MOL0     C75650   4.327   8.247   2.251  0.2613  0.2816  0.7835
  561MOL0     N75651   3.608   7.949   2.039  0.3573 -0.1294 -0.4021
  561MOL0     N75652   3.578   7.898   2.151 -0.3741  0.5276  0.3082
  561MOL0     C75653   3.487   7.890   3.425 -0.6087 -0.4708 -0.2433
  561MOL0     C75654   3.524   7.768   3.486 -0.2118  0.8142  0.0422
  561MOL0     C75655   3.722   7.315   3.475 -0.4501 -0.6541  0.8969
  561MOL0     C75656   3.745   7.194   3.405 -0.0491  0.4547 -0.3128
  561MOL0     C75657   3.788   7.079   3.474  0.0052 -0.0203  1.0340
  561MOL0     C75658   3.796   7.075   3.615 -0.7159 -0.6915  0.0147
  561MOL0     O75659   3.837   6.968   3.692  0.4099 -0.1042 -0.6843
  561MOL0     C75660   3.798   6.839   3.637 -0.4046  0.4663  1.0078
  561MOL0     C75661   3.841   6.730   3.735 -0.3472  0.1731 -0.6363
  561MOL0     C75662   3.996   6.693   3.729 -0.4414  0.4621  0.2465
  561MOL0     C75663   4.034   6.603   3.845  0.0403 -0.0596 -0.1704
  561MOL0     C75664   4.163   6.528   3.840 -0.2470  0.0184 -0.2050
  561MOL0     C75665   4.262   6.455   3.837  0.7809  0.3813  0.0765
  561MOL0     C75666   3.775   7.197   3.683 -1.0017  0.9527 -1.0244
  561MOL0     C75667   3.738   7.314   3.614 -1.5273 -0.1359  0.4706
  561MOL0     H75668   3.589   7.605   3.190 -1.9869 -1.2124  1.9765
  561MOL0     H75669   3.491   7.806   3.095 -1.9831 -0.0912  0.0595
  561MOL0     H75670   3.389   8.145   3.085 -0.0995 -0.8662 -1.0770
  561MOL0     H75671   3.495   8.011   3.048  0.4342  3.2488 -0.7954
  561MOL0     H75672   3.284   7.863   3.053 -0.3584  0.1967  0.3392
  561MOL0     H75673   3.191   8.014   3.094  1.9675 -0.4642  2.7245
  561MOL0     H75674   3.158   7.967   2.846 -0.1913  2.3323 -0.4869
  561MOL0     H75675   3.277   8.099   2.857 -1.0206  0.2687 -0.5474
  561MOL0     H75676   3.458   7.891   2.833 -0.2220 -0.2230  1.7747
  561MOL0     H75677   3.329   7.796   2.845  1.5523 -2.1927 -0.0521
  561MOL0     H75678   3.312   7.811   2.608 -3.8934  0.4607 -1.7261
  561MOL0     H75679   3.243   7.970   2.629 -0.9193 -3.6699 -3.8765
  561MOL0     H75680   3.484   8.062   2.621 -2.6761  2.1350 -0.8921
  561MOL0     H75681   3.538   7.903   2.623  0.8743  1.0555 -0.8929
  561MOL0     H75682   3.399   7.895   2.382 -0.5772 -0.2390  0.6266
  561MOL0     H75683   3.410   8.074   2.398  0.6648  0.8539  0.5549
  561MOL0     H75684   3.649   7.883   2.394  1.7024  0.6699 -3.7053
  561MOL0     H75685   3.644   8.060   2.428  1.1438  0.3314 -0.7516
  561MOL0     H75686   3.677   8.200   2.231 -1.2084  0.6525 -0.6500
  561MOL0     H75687   3.732   8.070   1.842 -1.6740  0.4499 -0.1897
  561MOL0     H75688   3.634   8.214   1.867  1.4674  1.5720 -2.1385
  561MOL0     H75689   3.786   8.309   2.037  0.3584  1.2938 -0.2544
  561MOL0     H75690   3.859   8.300   1.872  2.8567 -0.5554  0.4682
  561MOL0     H75691   3.972   8.091   1.955  1.7870  0.6546  1.1481
  561MOL0     H75692   3.905   8.110   2.114 -1.3756 -0.8303 -0.0223
  561MOL0     H75693   4.012   8.331   2.125 -2.2310 -2.5885  2.3306
  561MOL0     H75694   4.076   8.322   1.964  1.4494  0.3880  1.3482
  561MOL0     H75695   4.289   8.364   1.943 -0.9835 -0.5592  0.1972
  561MOL0     H75696   4.448   8.510   1.872  0.9318  0.2720 -0.4284
  561MOL0     H75697   4.471   8.634   2.005  0.9207  1.1464 -2.2886
  561MOL0     H75698   4.599   8.514   1.940  1.5391  0.8377  2.6101
  561MOL0     H75699   4.652   8.736   2.282  3.2571 -1.9271 -1.7805
  561MOL0     H75700   4.732   8.920   2.408  2.5947  0.2116 -0.1120
  561MOL0     H75701   4.964   8.811   2.744  0.2867 -0.2611 -1.8378
  561MOL0     H75702   5.017   8.898   2.593  1.3358  2.8905 -0.0279
  561MOL0     H75703   5.113   8.998   2.808 -0.3684  0.1850  3.2470
  561MOL0     H75704   5.007   9.104   2.709 -2.5092  1.9786  2.2525
  561MOL0     H75705   4.817   9.004   2.879 -0.0950  1.0368 -0.4747
  561MOL0     H75706   4.909   9.139   2.931  0.8724  0.2847 -0.1130
  561MOL0     H75707   4.901   8.924   3.093 -2.5991 -0.9502 -1.7596
  561MOL0     H75708   5.012   8.846   2.989 -0.0736 -2.4536  4.5166
  561MOL0     H75709   5.173   9.055   3.039 -2.0310  1.8804 -0.6760
  561MOL0     H75710   5.154   8.924   3.150 -2.3848  0.0853  1.3754
  561MOL0     H75711   5.149   9.163   3.254  1.9212 -0.3770 -2.7105
  561MOL0     H75712   4.983   9.170   3.186 -1.8269 -1.7760  1.0444
  561MOL0     H75713   5.070   9.001   3.414 -1.5229 -0.8135  2.8739
  561MOL0     H75714   4.942   8.948   3.314  1.2999 -0.0244  0.3664
  561MOL0     H75715   4.832   9.172   3.353 -1.3323 -1.2632  1.9559
  561MOL0     H75716   4.979   9.214   3.456 -0.0021  0.0520  2.6898
  561MOL0     H75717   4.826   8.642   2.734 -2.5865 -1.8682  0.7863
  561MOL0     H75718   4.730   8.462   2.617 -0.7832  0.7122  1.3437
  561MOL0     H75719   4.479   8.298   2.386 -0.3643 -1.0123 -0.0471
  561MOL0     H75720   4.290   8.169   2.317 -2.6427  0.0699 -0.9328
  561MOL0     H75721   3.469   7.982   3.479 -2.5389 -1.3625  0.7541
  561MOL0     H75722   3.543   7.757   3.592  1.7973 -0.1363 -0.3556
  561MOL0     H75723   3.730   7.178   3.299 -0.2832 -2.4136  0.0722
  561MOL0     H75724   3.813   6.989   3.420  1.4874  1.6032 -1.1256
  561MOL0     H75725   3.688   6.842   3.641 -0.4051  1.7058  0.6233
  561MOL0     H75726   3.842   6.815   3.540  3.0623  0.9473  2.3523
  561MOL0     H75727   3.781   6.639   3.722 -2.0319  0.5826  3.0249
  561MOL0     H75728   3.811   6.761   3.835 -4.6708 -2.8843 -0.7194
  561MOL0     H75729   4.067   6.776   3.721 -1.2285  1.0192 -1.3822
  561MOL0     H75730   4.022   6.614   3.658 -0.3115  0.0284  0.7716
  561MOL0     H75731   3.958   6.524   3.850  1.6664 -2.1015 -3.5231
  561MOL0     H75732   4.028   6.668   3.932  2.2144  1.2228 -0.8963
  561MOL0     H75733   4.343   6.390   3.864  2.1277  1.6302 -0.8143
  561MOL0     H75734   3.788   7.198   3.790 -1.4030 -1.1578 -0.9025
  561MOL0     H75735   3.724   7.403   3.675 -1.7884  0.7472 -0.8246
  562MOL0     O75736   8.029  10.448   5.057  0.5275  0.7946  0.1806
  562MOL0     C75737   8.044  10.358   5.143 -0.5320 -0.3271  0.4267
  562MOL0     O75738   8.115  10.242   5.119 -0.0153 -0.0293  0.7621
  562MOL0     C75739   8.150  10.202   4.992 -0.4360  0.8150  0.7094
  562MOL0     C75740   8.077  10.224   4.875  0.5946  0.1662 -0.0157
  562MOL0     C75741   8.121  10.177   4.745 -0.0737  0.3859  0.7477
  562MOL0     C75742   8.239  10.116   4.734 -0.9895  1.0082 -1.0672
  562MOL0     O75743   8.297  10.081   4.617  0.2058 -0.9101 -0.4931
  562MOL0     C75744   8.319  10.180   4.521  0.2338 -0.7932 -0.8242
  562MOL0     C75745   8.396  10.112   4.407  0.8051  0.5544 -0.5278
  562MOL0     C75746   8.300  10.015   4.331 -0.3820 -0.7277 -0.6009
  562MOL0     C75747   8.369   9.877   4.310 -0.6130  0.3451  1.1425
  562MOL0     C75748   8.352   9.796   4.444 -0.2916  0.3010  0.8143
  562MOL0     C75749   8.432   9.666   4.437  0.1099  0.0177 -0.2501
  562MOL0     C75750   8.583   9.693   4.394 -1.2433  0.3315 -0.0595
  562MOL0     C75751   8.677   9.582   4.449  0.5840 -0.8719 -0.3681
  562MOL0     N75752   8.670   9.448   4.390 -0.3350  0.5611 -0.6043
  562MOL0     C75753   8.610   9.333   4.439 -0.1752  0.9829 -0.4149
  562MOL0     C75754   8.603   9.246   4.341 -0.0307 -0.5207 -0.3178
  562MOL0     C75755   8.560   9.098   4.354  0.2591 -0.1700  0.0955
  562MOL0     C75756   8.616   9.011   4.465  0.4715 -0.0662  0.6899
  562MOL0     C75757   8.770   9.000   4.442 -0.1462 -0.8743  0.2501
  562MOL0     C75758   8.823   8.909   4.558  0.9746  0.3150 -0.1494
  562MOL0     O75759   8.737   8.790   4.593 -0.3783  0.4965 -0.6457
  562MOL0     C75760   8.769   8.701   4.699 -0.2805  0.8698  0.8104
  562MOL0     C75761   8.698   8.577   4.689  0.1666  0.1738 -1.4243
  562MOL0     C75762   8.739   8.472   4.773  1.1509 -0.2087  0.1143
  562MOL0     C75763   8.638   8.363   4.759  0.0339  0.0955 -0.2464
  562MOL0     C75764   8.844   8.497   4.866 -0.5804 -0.4285  0.2768
  562MOL0     C75765   8.885   8.393   4.968 -0.9186 -0.0619  0.7418
  562MOL0     O75766   8.996   8.423   5.034  0.2461 -0.3664  0.5893
  562MOL0     C75767   8.985   8.405   5.173  1.1125 -0.0941 -0.0122
  562MOL0     C75768   9.096   8.345   5.232 -0.8419  0.0811 -0.6915
  562MOL0     C75769   9.099   8.287   5.360  0.6506 -0.4835  0.3779
  562MOL0     C75770   8.983   8.285   5.441  0.3371 -0.3795  1.5973
  562MOL0     O75771   8.975   8.231   5.568 -0.4287  0.5418 -1.5005
  562MOL0     C75772   9.097   8.215   5.639 -0.0139  0.7932  0.0445
  562MOL0     C75773   9.071   8.155   5.784  0.3174  0.4029 -0.0983
  562MOL0     C75774   9.180   8.204   5.886  0.3401  0.2147 -0.6897
  562MOL0     C75775   9.179   8.125   6.020 -0.9193 -0.7924 -0.2202
  562MOL0     C75776   9.295   8.191   6.100  0.9538 -0.7817 -0.7573
  562MOL0     C75777   9.299   8.139   6.243  0.3069 -0.4773  0.2515
  562MOL0     C75778   9.434   8.161   6.317  0.4033  0.9944  0.6449
  562MOL0     C75779   9.455   8.043   6.414  0.2769  0.9134  0.1878
  562MOL0    Cl75780   9.627   8.071   6.479 -0.2868  0.1626  0.4937
  562MOL0     C75781   8.875   8.351   5.382  0.9307  0.6504 -1.0181
  562MOL0     C75782   8.874   8.417   5.258  0.0913  0.8521 -0.0037
  562MOL0     O75783   8.804   8.306   4.992 -0.7003 -0.1728  0.4500
  562MOL0     C75784   8.924   8.616   4.863 -1.0346 -0.5410  0.4721
  562MOL0     C75785   8.884   8.717   4.779 -0.1781 -0.7353  0.1166
  562MOL0     N75786   8.656   9.301   4.231 -0.3122  0.1511  0.0193
  562MOL0     N75787   8.697   9.421   4.263 -0.6955  0.8210  1.1282
  562MOL0     C75788   8.299  10.076   4.852  0.0485 -0.3070 -0.1995
  562MOL0     C75789   8.255  10.120   4.977 -0.2220  0.9335  0.2805
  562MOL0     C75790   8.000  10.377   5.282  0.2478  0.4353 -0.3797
  562MOL0     C75791   7.970  10.261   5.366 -0.2820  0.3476 -0.6442
  562MOL0     C75792   7.930  10.274   5.507 -0.0440 -0.2417  0.5550
  562MOL0     C75793   7.915  10.407   5.558 -0.0129  0.2219 -0.3347
  562MOL0     O75794   7.895  10.424   5.694  0.3556  0.0622  0.7479
  562MOL0     C75795   7.917  10.551   5.749 -0.1129 -0.4066 -0.4603
  562MOL0     C75796   7.936  10.540   5.897  0.2854  0.6929 -0.1591
  562MOL0     C75797   7.962  10.677   5.961  0.0032  0.4545  0.1058
  562MOL0     C75798   7.990  10.666   6.116  0.2477 -0.4091 -0.3521
  562MOL0     C75799   7.900  10.583   6.190  0.2970  0.1494 -0.4318
  562MOL0     C75800   7.819  10.506   6.251 -0.7886 -0.7329  0.4215
  562MOL0     C75801   7.921  10.518   5.467  0.0327  0.1211 -0.6330
  562MOL0     C75802   7.963  10.508   5.335  0.1706 -0.8301  0.7827
  562MOL0     H75803   7.981  10.275   4.866  1.1184  1.2824  0.5422
  562MOL0     H75804   8.059  10.174   4.656  1.1604 -1.0975 -0.0939
  562MOL0     H75805   8.220  10.220   4.497 -1.1732 -2.6488  1.4420
  562MOL0     H75806   8.382  10.254   4.572 -2.3907 -0.2644  1.8836
  562MOL0     H75807   8.435  10.191   4.342  2.8078 -0.9856 -1.3290
  562MOL0     H75808   8.485  10.058   4.440  0.1217 -0.5919 -0.5024
  562MOL0     H75809   8.197  10.009   4.368 -0.6211  1.1338 -0.8565
  562MOL0     H75810   8.282  10.062   4.234  2.5868 -1.2657 -1.5299
  562MOL0     H75811   8.314   9.830   4.228  3.0739 -0.7238 -0.9577
  562MOL0     H75812   8.469   9.898   4.272 -0.5716  1.5076  1.8376
  562MOL0     H75813   8.375   9.852   4.535 -2.6690  1.3495  0.8674
  562MOL0     H75814   8.246   9.769   4.452  0.1147 -1.6268  0.0322
  562MOL0     H75815   8.418   9.615   4.532 -1.0311  0.1344 -0.3414
  562MOL0     H75816   8.382   9.601   4.365  0.2253 -0.6248  0.2453
  562MOL0     H75817   8.599   9.693   4.286  3.5421 -3.0153  0.3039
  562MOL0     H75818   8.609   9.791   4.435 -0.3093  1.6745 -3.5477
  562MOL0     H75819   8.648   9.562   4.553 -2.8847  0.0506 -1.0113
  562MOL0     H75820   8.778   9.619   4.429 -0.4283  1.0096 -2.5408
  562MOL0     H75821   8.585   9.316   4.543  3.8640  2.4001  0.9822
  562MOL0     H75822   8.451   9.089   4.351  0.4076 -2.1160 -1.1897
  562MOL0     H75823   8.589   9.039   4.266  0.0386 -0.8598  0.4721
  562MOL0     H75824   8.571   8.911   4.462  1.1694 -0.3907  0.7772
  562MOL0     H75825   8.604   9.054   4.565 -0.7695 -1.5457  1.2112
  562MOL0     H75826   8.820   9.097   4.438  0.2867 -1.1293 -2.0550
  562MOL0     H75827   8.783   8.950   4.346 -1.0913  1.0497 -0.9485
  562MOL0     H75828   8.850   8.963   4.649  0.9682 -2.1974  1.4333
  562MOL0     H75829   8.908   8.856   4.512 -1.7222 -1.5504 -3.5223
  562MOL0     H75830   8.609   8.568   4.629  0.0348 -1.7371 -0.9946
  562MOL0     H75831   8.681   8.263   4.748  0.3914 -0.4091  3.8739
  562MOL0     H75832   8.573   8.364   4.848  0.1791  2.6502 -0.0997
  562MOL0     H75833   8.562   8.375   4.681 -2.9788  0.2268  2.4892
  562MOL0     H75834   9.189   8.326   5.180  0.7790  0.1619  1.9938
  562MOL0     H75835   9.180   8.222   5.392 -0.2019 -1.6787  0.1726
  562MOL0     H75836   9.160   8.141   5.589 -0.5848 -0.1561  0.6984
  562MOL0     H75837   9.149   8.310   5.651 -2.2562  2.3145 -1.3368
  562MOL0     H75838   8.972   8.180   5.823  1.2107  0.6222  2.1962
  562MOL0     H75839   9.071   8.047   5.766  2.9754  0.6184 -1.8394
  562MOL0     H75840   9.160   8.308   5.912  0.8748  0.8790 -2.7936
  562MOL0     H75841   9.277   8.200   5.835 -1.0766  3.5752 -4.0326
  562MOL0     H75842   9.085   8.134   6.075  0.3798  1.6191  1.7670
  562MOL0     H75843   9.196   8.020   5.994  2.7849 -1.0009  2.3846
  562MOL0     H75844   9.266   8.296   6.105  3.3559 -0.0760 -0.3502
  562MOL0     H75845   9.392   8.183   6.050 -0.3778  2.3881 -4.3743
  562MOL0     H75846   9.212   8.172   6.301  0.0507  0.7489 -0.7706
  562MOL0     H75847   9.285   8.033   6.220  1.6856 -0.4806 -0.6609
  562MOL0     H75848   9.437   8.254   6.373 -4.4245  1.4533  0.5249
  562MOL0     H75849   9.509   8.155   6.237 -1.9157 -2.0375 -1.5790
  562MOL0     H75850   9.451   7.941   6.375 -3.2010 -0.3952  3.3277
  562MOL0     H75851   9.379   8.046   6.492  1.0475  1.5153  0.9300
  562MOL0     H75852   8.776   8.359   5.426  1.9606 -0.0525  1.6394
  562MOL0     H75853   8.783   8.463   5.220 -0.7803 -0.5382  0.3556
  562MOL0     H75854   9.005   8.626   4.934 -1.7252 -1.9253  1.5195
  562MOL0     H75855   8.936   8.812   4.767 -0.5767 -0.6559 -1.0821
  562MOL0     H75856   8.391  10.017   4.853 -1.1932 -2.3348 -0.2840
  562MOL0     H75857   8.322  10.088   5.056  1.8595 -0.8059 -2.0330
  562MOL0     H75858   7.975  10.158   5.333  0.8757 -0.1054  0.8331
  562MOL0     H75859   7.911  10.184   5.565 -1.7001 -1.2504 -1.4207
  562MOL0     H75860   7.999  10.601   5.697 -0.9822 -0.5454 -2.0047
  562MOL0     H75861   7.827  10.611   5.739  0.3994  0.5273  0.3859
  562MOL0     H75862   8.018  10.470   5.915 -2.5257 -3.5384 -2.3233
  562MOL0     H75863   7.840  10.506   5.937  0.5434 -0.8129 -0.7714
  562MOL0     H75864   7.871  10.734   5.939 -0.6135 -1.0233 -1.3610
  562MOL0     H75865   8.050  10.727   5.922 -0.7306  1.1453 -0.7094
  562MOL0     H75866   7.970  10.764   6.160 -2.2574  1.1084 -4.3283
  562MOL0     H75867   8.094  10.635   6.132 -0.2200 -2.3061 -0.7458
  562MOL0     H75868   7.752  10.439   6.300 -0.2806 -1.9114 -0.4228
  562MOL0     H75869   7.902  10.615   5.512  1.3110 -0.7867  2.0908
  562MOL0     H75870   7.964  10.604   5.284 -1.7554 -1.6680 -1.0118
  563MOL0     O75871   0.688  11.064   7.823  0.4406  0.8457 -0.4588
  563MOL0     C75872   0.752  11.092   7.923  0.0286  0.3082  0.0324
  563MOL0     O75873   0.690  11.130   8.043  0.2561  0.2157 -0.1583
  563MOL0     C75874   0.558  11.169   8.053 -0.7561  0.1177 -0.3128
  563MOL0     C75875   0.480  11.222   7.949  0.5389 -0.0932  1.1277
  563MOL0     C75876   0.348  11.241   7.970 -0.0717 -0.0373  0.7443
  563MOL0     C75877   0.288  11.224   8.094  0.7743  0.4705  0.5676
  563MOL0     O75878   0.154  11.256   8.104 -0.3058  0.6095 -0.4020
  563MOL0     C75879   0.118  11.394   8.122 -0.6356  0.5011 -0.1856
  563MOL0     C75880  -0.030  11.413   8.101 -0.0696 -0.3304 -0.8318
  563MOL0     C75881  -0.099  11.509   8.189 -0.2891 -0.9266  0.0437
  563MOL0     C75882  -0.250  11.521   8.154 -0.4334 -0.3873 -0.1474
  563MOL0     C75883  -0.329  11.604   8.251 -0.6474 -0.1565 -0.3971
  563MOL0     C75884  -0.315  11.572   8.398 -0.0725  0.4381  0.4199
  563MOL0     C75885  -0.405  11.669   8.472 -0.5057  0.0366 -0.6099
  563MOL0     C75886  -0.412  11.642   8.627 -0.2202 -0.1861 -1.1386
  563MOL0     N75887  -0.444  11.500   8.664 -0.3026  0.1700 -0.4019
  563MOL0     C75888  -0.567  11.448   8.656  0.6530  0.2282  0.2066
  563MOL0     C75889  -0.552  11.321   8.692 -0.1427  0.8897  0.5742
  563MOL0     C75890  -0.658  11.224   8.720  0.9569  1.0291  0.0598
  563MOL0     C75891  -0.674  11.217   8.878 -0.3646  0.1348  0.6086
  563MOL0     C75892  -0.777  11.103   8.922 -0.4039  0.0778 -0.1437
  563MOL0     C75893  -0.923  11.153   8.890  0.3786  0.0278  0.1794
  563MOL0     O75894  -0.955  11.265   8.958 -0.6104 -0.2308 -0.1570
  563MOL0     C75895  -1.081  11.318   8.949 -0.6250 -0.1310 -0.3365
  563MOL0     C75896  -1.188  11.250   8.895 -0.0652  0.6039 -0.5404
  563MOL0     C75897  -1.319  11.297   8.899 -0.4085  0.8423 -0.0928
  563MOL0     C75898  -1.427  11.209   8.836 -0.2398 -0.7532  0.3224
  563MOL0     C75899  -1.348  11.419   8.958 -0.9905 -1.5656 -0.3857
  563MOL0     C75900  -1.483  11.487   8.951 -0.7485  0.2200  0.3475
  563MOL0     O75901  -1.486  11.593   9.033  0.9556 -0.0397 -1.5182
  563MOL0     C75902  -1.593  11.673   9.011  0.2466  0.4295 -0.4252
  563MOL0     C75903  -1.678  11.697   9.120  0.3024 -0.8970  0.5814
  563MOL0     C75904  -1.773  11.800   9.110  0.6021  1.0965  0.2453
  563MOL0     C75905  -1.790  11.872   8.990 -0.6488 -0.3850 -0.4443
  563MOL0     O75906  -1.884  11.966   8.985 -0.0636  0.5706  0.2785
  563MOL0     C75907  -1.958  11.976   8.859 -0.1838 -1.0638 -0.0646
  563MOL0     C75908  -2.051  12.080   8.886  1.2000 -0.8695  0.5451
  563MOL0     C75909  -2.155  12.106   8.769  0.0339  0.3265 -0.4120
  563MOL0     C75910  -2.087  12.130   8.624  0.1968  0.0942 -1.0493
  563MOL0     C75911  -2.180  12.216   8.547  0.3941  0.5195  0.1102
  563MOL0     C75912  -2.316  12.142   8.513 -0.9237 -0.2011  0.0027
  563MOL0     C75913  -2.420  12.244   8.498 -0.8592  0.7455 -1.0962
  563MOL0     C75914  -2.400  12.324   8.367  0.4065  0.1143 -0.2374
  563MOL0    Cl75915  -2.444  12.221   8.232  0.4357 -0.7357  0.0645
  563MOL0     C75916  -1.714  11.838   8.882  0.6745  0.3011 -0.0378
  563MOL0     C75917  -1.614  11.747   8.891  0.3699  0.2513  0.4919
  563MOL0     O75918  -1.573  11.449   8.874 -0.5874 -0.3288 -0.0711
  563MOL0     C75919  -1.241  11.498   9.002  0.5531 -0.3292  1.1768
  563MOL0     C75920  -1.109  11.452   8.994  0.4597  1.0436  0.0453
  563MOL0     N75921  -0.418  11.297   8.735  0.3384  0.1315  0.4490
  563MOL0     N75922  -0.358  11.407   8.719 -1.1675 -0.7741  0.6178
  563MOL0     C75923   0.365  11.166   8.195 -0.2500  0.0755  0.3449
  563MOL0     C75924   0.504  11.148   8.178  0.0562 -0.0536 -0.0934
  563MOL0     C75925   0.897  11.055   7.921 -0.3442 -0.4739  0.1700
  563MOL0     C75926   0.968  11.070   8.040  0.0753 -0.2511  0.8418
  563MOL0     C75927   1.104  11.064   8.030 -1.0928  0.2881 -0.8055
  563MOL0     C75928   1.176  11.026   7.912  0.3715 -0.9270  0.2344
  563MOL0     O75929   1.309  11.001   7.932  0.3804 -0.2700 -0.0237
  563MOL0     C75930   1.396  10.947   7.824 -0.1297  0.5807 -0.1441
  563MOL0     C75931   1.410  11.049   7.707 -0.5400  0.0681 -0.1209
  563MOL0     C75932   1.493  11.174   7.723 -0.7072 -0.1647 -1.1837
  563MOL0     C75933   1.644  11.142   7.757  0.3541  0.2543 -0.3141
  563MOL0     C75934   1.712  11.268   7.781  0.1958  0.5244  0.1257
  563MOL0     C75935   1.776  11.369   7.798 -0.1367  0.5549 -0.4781
  563MOL0     C75936   1.104  10.999   7.794  0.4020  0.1897 -0.0684
  563MOL0     C75937   0.963  11.015   7.804  0.3176  0.0330  0.2311
  563MOL0     H75938   0.513  11.241   7.847 -0.9119  1.7054  0.9345
  563MOL0     H75939   0.288  11.277   7.887  2.1338  1.7841 -0.1816
  563MOL0     H75940   0.157  11.428   8.218 -1.2893 -1.4082  0.8050
  563MOL0     H75941   0.169  11.465   8.056 -0.7179  0.1859 -0.5979
  563MOL0     H75942  -0.044  11.452   8.000  0.3102  4.3516  0.6749
  563MOL0     H75943  -0.090  11.322   8.104 -1.7579  0.7394 -1.1754
  563MOL0     H75944  -0.074  11.491   8.294  0.2623  1.6312  0.4389
  563MOL0     H75945  -0.050  11.603   8.163  0.3456 -1.3009 -0.1208
  563MOL0     H75946  -0.269  11.560   8.053 -0.9610 -1.3932 -0.4461
  563MOL0     H75947  -0.289  11.419   8.149  1.8769 -1.2560 -1.9675
  563MOL0     H75948  -0.303  11.710   8.236 -1.2385 -0.1846 -1.7437
  563MOL0     H75949  -0.433  11.592   8.220 -0.7480  0.2779 -0.2455
  563MOL0     H75950  -0.330  11.467   8.423  3.2297 -1.2894 -3.6327
  563MOL0     H75951  -0.211  11.575   8.432 -0.5664 -2.4084  2.5029
  563MOL0     H75952  -0.367  11.769   8.452  0.0706 -0.3896 -1.6889
  563MOL0     H75953  -0.507  11.668   8.433 -0.3254  4.5833 -1.6995
  563MOL0     H75954  -0.498  11.697   8.666  0.9720  1.1682 -0.3129
  563MOL0     H75955  -0.330  11.683   8.687 -1.6250 -0.6415  1.2074
  563MOL0     H75956  -0.659  11.492   8.621  1.2936  0.6578 -1.0040
  563MOL0     H75957  -0.743  11.253   8.658  0.6828 -1.0841 -0.6285
  563MOL0     H75958  -0.614  11.134   8.677 -2.3341 -0.7855  0.2034
  563MOL0     H75959  -0.723  11.312   8.899 -2.0479 -0.9986  2.1094
  563MOL0     H75960  -0.577  11.200   8.926 -0.3107  0.0399  0.4667
  563MOL0     H75961  -0.774  11.080   9.029 -2.4162 -2.3052 -0.5124
  563MOL0     H75962  -0.760  11.010   8.867  1.4318 -0.1849  0.7778
  563MOL0     H75963  -0.994  11.080   8.930  0.6879 -0.7831 -0.7037
  563MOL0     H75964  -0.939  11.163   8.783  0.3753  1.1167  0.2746
  563MOL0     H75965  -1.165  11.148   8.865  1.3543 -0.3214  3.0613
  563MOL0     H75966  -1.452  11.245   8.736  1.7539  0.8353  0.3209
  563MOL0     H75967  -1.408  11.102   8.829  1.8942 -0.3686 -0.6685
  563MOL0     H75968  -1.520  11.213   8.894 -0.4309  2.2470 -0.0086
  563MOL0     H75969  -1.681  11.634   9.208 -1.2862 -1.5293  0.1004
  563MOL0     H75970  -1.856  11.799   9.180 -0.3669  0.9835 -0.8728
  563MOL0     H75971  -1.883  12.014   8.789  1.2479  1.7637  2.7366
  563MOL0     H75972  -2.007  11.880   8.842 -0.5650 -1.1917  1.5623
  563MOL0     H75973  -2.107  12.045   8.974 -4.2693 -0.1870 -2.2676
  563MOL0     H75974  -1.986  12.165   8.908 -0.2468  0.6393 -0.8381
  563MOL0     H75975  -2.208  12.196   8.802 -2.6677 -0.9770 -0.9928
  563MOL0     H75976  -2.228  12.025   8.763  0.6224 -0.1425 -1.7231
  563MOL0     H75977  -2.001  12.196   8.637 -1.0904  1.2344  3.2477
  563MOL0     H75978  -2.061  12.031   8.586 -2.2265  0.2236 -3.3432
  563MOL0     H75979  -2.140  12.240   8.448  0.8205  1.3934  0.4856
  563MOL0     H75980  -2.200  12.308   8.603 -0.2135 -1.8912  4.2525
  563MOL0     H75981  -2.305  12.079   8.424  0.5046  2.9420 -2.2611
  563MOL0     H75982  -2.346  12.092   8.605  1.5054  0.7109  1.3905
  563MOL0     H75983  -2.417  12.313   8.583 -0.4028  1.0025 -1.3200
  563MOL0     H75984  -2.515  12.190   8.482 -0.6985 -0.7068  2.1838
  563MOL0     H75985  -2.298  12.359   8.348  1.1318 -2.5781 -1.9043
  563MOL0     H75986  -2.468  12.409   8.353 -1.5266 -1.5273 -1.5112
  563MOL0     H75987  -1.707  11.908   8.799  1.4122  0.4313  0.1354
  563MOL0     H75988  -1.540  11.750   8.812 -2.5677 -2.3655 -2.7068
  563MOL0     H75989  -1.250  11.595   9.049  2.2505  1.1020 -1.2105
  563MOL0     H75990  -1.029  11.511   9.039  0.9545  0.7293 -0.4247
  563MOL0     H75991   0.320  11.123   8.284 -0.5947 -4.3857 -1.7399
  563MOL0     H75992   0.556  11.089   8.254  1.3760  1.5338  0.2997
  563MOL0     H75993   0.920  11.091   8.135  2.4822  0.3757  1.9966
  563MOL0     H75994   1.169  11.084   8.114 -1.7367  2.1051 -0.6889
  563MOL0     H75995   1.498  10.931   7.859 -0.7049 -0.5662  1.1601
  563MOL0     H75996   1.359  10.845   7.806  2.3134 -0.6563  1.3341
  563MOL0     H75997   1.310  11.086   7.681 -0.3518  0.5651 -0.1593
  563MOL0     H75998   1.455  10.994   7.624 -0.3292  1.8263 -1.2254
  563MOL0     H75999   1.456  11.239   7.803 -1.4372 -0.4358 -1.2943
  563MOL0     H76000   1.488  11.220   7.623 -0.1658 -0.1969 -1.2292
  563MOL0     H76001   1.685  11.094   7.668 -0.7569  1.4590 -1.5283
  563MOL0     H76002   1.643  11.086   7.851 -1.6813 -2.8745 -2.0062
  563MOL0     H76003   1.841  11.452   7.819 -0.0624  0.2882  0.3758
  563MOL0     H76004   1.136  10.953   7.701 -0.9830 -0.4096 -0.2780
  563MOL0     H76005   0.897  11.004   7.719 -0.2098 -0.3877  0.6882
  564MOL0     O76006   2.036   9.935   7.092  0.2326  0.1778 -0.5153
  564MOL0     C76007   1.983  10.011   7.167  0.5560  0.0808 -0.3025
  564MOL0     O76008   1.952  10.136   7.144  0.3749  0.2812 -0.1469
  564MOL0     C76009   2.010  10.202   7.044 -0.9252 -0.2401  0.9795
  564MOL0     C76010   1.935  10.238   6.929  0.0391 -0.7027 -1.2097
  564MOL0     C76011   1.989  10.315   6.825 -0.0958 -0.3578  0.7977
  564MOL0     C76012   2.125  10.359   6.839  0.4563  0.3719  0.5840
  564MOL0     O76013   2.168  10.440   6.731  0.3539 -0.3944  0.4616
  564MOL0     C76014   2.308  10.465   6.718 -0.1744  0.2825 -0.3614
  564MOL0     C76015   2.345  10.589   6.639 -0.7535 -0.5379 -0.5783
  564MOL0     C76016   2.501  10.583   6.623 -0.6084 -0.7731  0.3277
  564MOL0     C76017   2.552  10.710   6.566  0.5047 -0.5580 -0.3128
  564MOL0     C76018   2.689  10.687   6.492  0.0406 -0.2756 -0.8428
  564MOL0     C76019   2.781  10.808   6.484  0.3788  0.2215  0.2326
  564MOL0     C76020   2.909  10.759   6.402  0.0530 -0.6684 -0.2170
  564MOL0     C76021   3.031  10.710   6.481 -0.2939 -0.2963  0.0775
  564MOL0     N76022   3.153  10.743   6.396 -0.5702  0.2237  0.3963
  564MOL0     C76023   3.186  10.698   6.271 -0.2751 -0.1530  0.2416
  564MOL0     C76024   3.310  10.758   6.254  0.9017  0.2939  0.2984
  564MOL0     C76025   3.401  10.762   6.127  0.4519 -0.4616  0.0675
  564MOL0     C76026   3.476  10.892   6.097 -0.3609 -0.3249 -0.3317
  564MOL0     C76027   3.595  10.860   6.002 -0.0842  0.8208  0.5333
  564MOL0     C76028   3.556  10.823   5.860  0.3532 -0.3181 -0.1201
  564MOL0     O76029   3.498  10.936   5.800 -0.1016  0.4584 -0.6260
  564MOL0     C76030   3.388  10.907   5.723 -0.1154 -0.5828 -0.4786
  564MOL0     C76031   3.390  10.827   5.609  0.6040 -0.5478  0.2666
  564MOL0     C76032   3.281  10.805   5.526  0.0953  0.1759  0.4239
  564MOL0     C76033   3.305  10.709   5.419  0.1848  0.5270  0.1499
  564MOL0     C76034   3.159  10.872   5.567  0.7404  0.0534 -0.6831
  564MOL0     C76035   3.030  10.847   5.490 -1.0885  0.0873 -0.2279
  564MOL0     O76036   3.046  10.819   5.356  0.4709  0.1176 -1.3241
  564MOL0     C76037   2.950  10.856   5.259  1.1268 -0.3716  0.0970
  564MOL0     C76038   2.811  10.890   5.274 -0.3994  0.2417  0.2814
  564MOL0     C76039   2.737  10.932   5.155  0.6612  1.0199 -0.1008
  564MOL0     C76040   2.785  10.937   5.027  0.4503  0.2026 -0.2872
  564MOL0     O76041   2.709  10.968   4.919 -0.3157 -0.2360 -0.2772
  564MOL0     C76042   2.665  10.857   4.832 -0.4445  0.2500  0.1397
  564MOL0     C76043   2.544  10.915   4.751  0.8961  0.3572 -0.6216
  564MOL0     C76044   2.582  11.011   4.648  0.1967  0.8096  0.4018
  564MOL0     C76045   2.587  10.952   4.502  0.3292  0.0744 -0.3405
  564MOL0     C76046   2.701  10.842   4.492  1.2405 -0.4265 -0.1932
  564MOL0     C76047   2.700  10.803   4.338 -0.3823 -0.0920  0.6283
  564MOL0     C76048   2.803  10.703   4.304  0.5917  0.5886 -0.1276
  564MOL0     C76049   2.789  10.654   4.164  0.1183 -0.1700  0.8194
  564MOL0    Cl76050   2.804  10.786   4.038 -0.0113 -0.1681 -0.2927
  564MOL0     C76051   2.916  10.911   5.010  0.2399  0.0190  0.1447
  564MOL0     C76052   2.985  10.855   5.124  0.1882  0.2774 -0.4149
  564MOL0     O76053   2.921  10.839   5.552  0.3226  0.2633 -0.6607
  564MOL0     C76054   3.154  10.957   5.681 -0.6766  0.2840 -1.0734
  564MOL0     C76055   3.265  10.973   5.755 -0.5912 -0.3812  0.2597
  564MOL0     N76056   3.344  10.843   6.359 -0.6700 -0.4078  0.4784
  564MOL0     N76057   3.256  10.819   6.439 -0.3276  1.2993  0.3791
  564MOL0     C76058   2.198  10.320   6.946  0.3136  0.2432  0.4245
  564MOL0     C76059   2.143  10.239   7.049 -1.2222  0.1040  0.1936
  564MOL0     C76060   1.927   9.940   7.292  0.4533 -0.0349 -0.1330
  564MOL0     C76061   1.943   9.811   7.322  0.0750  0.3233  0.4738
  564MOL0     C76062   1.889   9.756   7.436 -0.1007 -0.5054  0.5748
  564MOL0     C76063   1.804   9.827   7.520 -0.2209 -0.0508  0.6019
  564MOL0     O76064   1.755   9.762   7.634  0.2283  0.4830 -0.5296
  564MOL0     C76065   1.615   9.764   7.653  0.9334  0.3527  0.4620
  564MOL0     C76066   1.554   9.641   7.715 -0.6440 -0.2744  0.2665
  564MOL0     C76067   1.414   9.669   7.759  0.0347 -0.1228  0.0729
  564MOL0     C76068   1.314   9.554   7.770  0.9454 -0.3799 -0.2294
  564MOL0     C76069   1.308   9.467   7.654  0.5869  0.7434 -0.0993
  564MOL0     C76070   1.303   9.377   7.571  0.8480  0.3980 -0.5988
  564MOL0     C76071   1.789   9.961   7.496 -0.3935 -1.1543  0.1108
  564MOL0     C76072   1.851  10.021   7.379  0.5386 -0.5658 -0.1306
  564MOL0     H76073   1.838  10.192   6.914 -0.4702  0.2917 -1.0853
  564MOL0     H76074   1.946  10.316   6.725  0.3047  0.0347  0.6245
  564MOL0     H76075   2.353  10.488   6.814 -1.3057 -0.4042  0.3581
  564MOL0     H76076   2.366  10.382   6.676  0.1345  1.9965 -3.6289
  564MOL0     H76077   2.283  10.601   6.550  0.2719  0.7071 -1.1600
  564MOL0     H76078   2.327  10.678   6.701 -0.3795  0.0273 -1.2651
  564MOL0     H76079   2.544  10.563   6.721 -1.3239  6.4138  2.7075
  564MOL0     H76080   2.530  10.504   6.553  1.8067 -2.4891  3.0551
  564MOL0     H76081   2.479  10.755   6.498 -0.4366 -0.2417  0.8690
  564MOL0     H76082   2.564  10.780   6.650 -0.2271 -2.2683  1.2923
  564MOL0     H76083   2.752  10.610   6.537  2.5640  2.6876  1.1485
  564MOL0     H76084   2.667  10.649   6.392  1.8006 -0.1723 -1.2956
  564MOL0     H76085   2.726  10.891   6.438  1.0193  0.4968 -0.0547
  564MOL0     H76086   2.803  10.840   6.586 -2.9392  0.8568  0.8356
  564MOL0     H76087   2.878  10.704   6.313 -2.5435 -0.6772  0.6027
  564MOL0     H76088   2.935  10.856   6.359 -1.4284 -0.4879 -0.7887
  564MOL0     H76089   3.031  10.603   6.505 -1.8056 -0.2402  0.3821
  564MOL0     H76090   3.046  10.766   6.574  0.1162  0.2128 -0.2859
  564MOL0     H76091   3.136  10.629   6.204 -0.2657 -1.2984  1.3724
  564MOL0     H76092   3.471  10.678   6.133  0.1570 -0.6261  1.9364
  564MOL0     H76093   3.334  10.728   6.047  1.7383 -3.5012  0.1334
  564MOL0     H76094   3.518  10.938   6.187 -2.9540 -0.6653  1.1564
  564MOL0     H76095   3.414  10.971   6.055 -0.2822  0.8619  1.6377
  564MOL0     H76096   3.665  10.792   6.052  1.5782  3.8908  2.7006
  564MOL0     H76097   3.651  10.953   5.992 -1.7126  1.9079  1.2713
  564MOL0     H76098   3.481  10.744   5.856  0.5330 -0.6884  2.1017
  564MOL0     H76099   3.646  10.792   5.806  2.1785  0.6035  2.1975
  564MOL0     H76100   3.483  10.783   5.577 -0.1943 -2.3175  0.2910
  564MOL0     H76101   3.242  10.735   5.333  0.5036 -0.1103 -0.2796
  564MOL0     H76102   3.409  10.706   5.385 -0.2375 -2.3786 -1.2491
  564MOL0     H76103   3.275  10.610   5.455 -0.2950 -1.0010 -3.8827
  564MOL0     H76104   2.755  10.879   5.367 -4.0092  0.4606 -1.6988
  564MOL0     H76105   2.629  10.931   5.156  0.5229 -2.1903 -2.0270
  564MOL0     H76106   2.754  10.818   4.783  0.6989  2.2281  0.5463
  564MOL0     H76107   2.620  10.787   4.903  2.7487  1.3079  3.5148
  564MOL0     H76108   2.471  10.838   4.723 -2.0694  2.7647 -0.1312
  564MOL0     H76109   2.475  10.962   4.822 -0.7540 -1.0757 -1.1908
  564MOL0     H76110   2.684  11.038   4.679  0.6327  0.4480 -0.6462
  564MOL0     H76111   2.525  11.104   4.649 -1.4668 -0.1280 -1.4897
  564MOL0     H76112   2.493  10.901   4.477  1.7427 -1.5303 -2.7144
  564MOL0     H76113   2.593  11.040   4.437 -3.3786 -0.8249 -2.2040
  564MOL0     H76114   2.671  10.757   4.553 -0.8180  0.7259  0.5205
  564MOL0     H76115   2.798  10.876   4.531 -0.1829  1.1550  2.2814
  564MOL0     H76116   2.603  10.770   4.302 -0.9399 -0.6078  2.4908
  564MOL0     H76117   2.731  10.893   4.284  0.3359 -2.6154 -3.6174
  564MOL0     H76118   2.811  10.620   4.375  3.2268 -0.1303 -1.1277
  564MOL0     H76119   2.894  10.763   4.313 -0.2420  1.6352  1.8564
  564MOL0     H76120   2.693  10.602   4.152 -0.3847  1.1305 -1.2162
  564MOL0     H76121   2.864  10.577   4.144  1.3301  1.1971 -0.0740
  564MOL0     H76122   2.967  10.890   4.917  2.3485  0.9622  1.0262
  564MOL0     H76123   3.082  10.809   5.105 -0.8008 -1.9200 -0.4906
  564MOL0     H76124   3.069  10.997   5.734 -0.0080 -2.1631  2.1693
  564MOL0     H76125   3.274  11.024   5.851  0.3233 -3.2657  1.8499
  564MOL0     H76126   2.301  10.349   6.967 -0.5310  3.2753  0.9238
  564MOL0     H76127   2.206  10.226   7.137  0.4214  0.3117 -0.9091
  564MOL0     H76128   1.999   9.757   7.246 -0.4777  0.8485 -0.3217
  564MOL0     H76129   1.918   9.654   7.460  1.6974 -0.3210 -0.6206
  564MOL0     H76130   1.594   9.851   7.716 -0.1444 -0.9918  2.0517
  564MOL0     H76131   1.558   9.793   7.564  0.7748  0.2982  0.5452
  564MOL0     H76132   1.605   9.608   7.806 -0.9423  0.4984  0.7218
  564MOL0     H76133   1.554   9.554   7.648 -2.0942  0.1322 -0.2962
  564MOL0     H76134   1.368   9.743   7.693 -1.3195 -1.5645 -0.6632
  564MOL0     H76135   1.434   9.725   7.851 -0.1949  2.5689 -1.4028
  564MOL0     H76136   1.221   9.611   7.778  2.3109  2.0752 -1.1170
  564MOL0     H76137   1.350   9.501   7.859  4.3477 -0.3274 -1.4405
  564MOL0     H76138   1.298   9.294   7.504  0.8975 -1.0026  1.0472
  564MOL0     H76139   1.737  10.028   7.564  3.1801 -0.4473  2.3918
  564MOL0     H76140   1.839  10.127   7.359 -3.4201 -1.1634 -1.8237
  565MOL0     O76141   6.297   3.322   8.497  0.5529 -0.1542 -0.4716
  565MOL0     C76142   6.193   3.269   8.540  0.4799 -0.7939  0.2190
  565MOL0     O76143   6.185   3.193   8.650 -0.5968 -0.1855 -0.7734
  565MOL0     C76144   6.311   3.186   8.726  1.2088 -1.0063 -0.5602
  565MOL0     C76145   6.353   3.061   8.775 -0.2005  0.4718 -0.1435
  565MOL0     C76146   6.464   3.045   8.860 -1.0350 -0.4266  0.1704
  565MOL0     C76147   6.543   3.156   8.907  0.8516 -0.9646  0.3271
  565MOL0     O76148   6.641   3.144   9.000  0.4470 -0.1715 -0.4419
  565MOL0     C76149   6.675   3.019   9.061  0.3226 -0.1592 -0.8679
  565MOL0     C76150   6.585   2.999   9.180  0.7682 -0.8532 -0.1937
  565MOL0     C76151   6.619   2.859   9.233  0.0417 -0.8365 -0.3397
  565MOL0     C76152   6.569   2.848   9.381  0.1578  0.0898  0.7191
  565MOL0     C76153   6.676   2.903   9.476  0.1890 -0.6154 -0.2242
  565MOL0     C76154   6.619   2.950   9.611  0.3724 -0.3674 -0.4782
  565MOL0     C76155   6.728   3.006   9.706  0.0848 -0.5961 -0.0314
  565MOL0     C76156   6.692   3.159   9.742  0.1734  0.1033  0.0319
  565MOL0     N76157   6.574   3.185   9.823  0.1860 -0.0758  1.0192
  565MOL0     C76158   6.555   3.146   9.956 -0.1415 -0.1688 -0.5544
  565MOL0     C76159   6.428   3.161   9.979  0.8215  0.1310 -0.4368
  565MOL0     C76160   6.349   3.168  10.107  0.3514  1.1744  0.9836
  565MOL0     C76161   6.317   3.319  10.128 -0.8195  0.7239  1.0904
  565MOL0     C76162   6.258   3.348  10.262  1.4903  0.3159  0.6210
  565MOL0     C76163   6.109   3.303  10.277 -0.2101 -0.9550  0.3120
  565MOL0     O76164   6.026   3.357  10.174 -0.6544 -0.6908  0.6752
  565MOL0     C76165   5.901   3.375  10.220  0.0190 -0.0970  0.0560
  565MOL0     C76166   5.822   3.479  10.161 -0.5470 -0.4387 -0.8424
  565MOL0     C76167   5.684   3.481  10.179  1.2431  0.2452  1.3752
  565MOL0     C76168   5.609   3.584  10.091 -0.3158 -0.4107 -0.6087
  565MOL0     C76169   5.617   3.386  10.266  0.3630 -0.0369  0.3880
  565MOL0     C76170   5.475   3.387  10.296  0.1694  0.2043 -0.1663
  565MOL0     O76171   5.406   3.267  10.321  0.1783  0.2741 -0.0400
  565MOL0     C76172   5.275   3.270  10.351  0.5106 -0.6883  0.0982
  565MOL0     C76173   5.189   3.337  10.263  0.1301  0.2492  0.6462
  565MOL0     C76174   5.053   3.341  10.292 -0.0759  0.1779 -0.4490
  565MOL0     C76175   5.010   3.299  10.421  0.5652 -0.2012 -0.2405
  565MOL0     O76176   4.881   3.339  10.457 -0.2076 -0.6184  0.2611
  565MOL0     C76177   4.843   3.299  10.595  0.5335  0.2759  0.5097
  565MOL0     C76178   4.683   3.342  10.624  0.1244 -0.4920  0.2800
  565MOL0     C76179   4.657   3.492  10.635 -0.1641  0.5742  1.0303
  565MOL0     C76180   4.620   3.536  10.776  0.0652 -0.1616 -0.6114
  565MOL0     C76181   4.738   3.560  10.878 -0.2917  0.1851 -0.7275
  565MOL0     C76182   4.789   3.441  10.955  0.6171  0.7090 -0.8797
  565MOL0     C76183   4.693   3.386  11.064 -0.5203 -0.3021  0.4688
  565MOL0     C76184   4.716   3.416  11.216 -0.6209  0.6816 -0.0603
  565MOL0    Cl76185   4.699   3.589  11.259  0.2366  0.0250  0.3306
  565MOL0     C76186   5.097   3.231  10.502 -0.2732  0.4568 -0.0850
  565MOL0     C76187   5.231   3.213  10.467  0.2498  0.1933 -0.3506
  565MOL0     O76188   5.429   3.501  10.310  0.4326  0.3888 -0.1550
  565MOL0     C76189   5.695   3.283  10.323 -0.2734  0.2197 -0.0025
  565MOL0     C76190   5.828   3.278  10.292 -0.4902 -0.5528  0.4365
  565MOL0     N76191   6.368   3.207   9.861  0.6781 -0.6559  0.3423
  565MOL0     N76192   6.456   3.223   9.762  0.1091 -0.3884 -0.7696
  565MOL0     C76193   6.501   3.281   8.864 -0.0680 -0.5993  0.8502
  565MOL0     C76194   6.383   3.294   8.782 -0.3932 -0.5984  0.1938
  565MOL0     C76195   6.061   3.287   8.462  0.9002  0.3577  0.0908
  565MOL0     C76196   5.930   3.250   8.521 -0.1183  0.7447 -0.6878
  565MOL0     C76197   5.812   3.263   8.447  0.4371 -0.8465 -0.5431
  565MOL0     C76198   5.815   3.331   8.323  0.7103  0.2840 -0.1991
  565MOL0     O76199   5.707   3.334   8.244 -1.1899 -0.7444 -0.0958
  565MOL0     C76200   5.604   3.421   8.285  0.2903  0.4379  0.6322
  565MOL0     C76201   5.657   3.563   8.275  0.0923  0.6933 -0.4285
  565MOL0     C76202   5.550   3.667   8.305  0.1109  0.6132  0.1806
  565MOL0     C76203   5.447   3.692   8.188 -0.5493  0.6908  0.1853
  565MOL0     C76204   5.381   3.809   8.232  0.0664  0.2171 -0.1121
  565MOL0     C76205   5.329   3.909   8.280 -0.4795  0.8163 -0.0409
  565MOL0     C76206   5.939   3.377   8.269 -0.4294  0.1393 -0.2741
  565MOL0     C76207   6.058   3.360   8.339 -0.2313 -0.1552 -0.4023
  565MOL0     H76208   6.303   2.968   8.750  1.7299 -0.6369 -0.0657
  565MOL0     H76209   6.489   2.943   8.889 -0.3838  0.6512  3.9758
  565MOL0     H76210   6.673   2.937   8.989  5.4224 -1.0128 -0.4351
  565MOL0     H76211   6.776   3.038   9.100 -0.9249  0.7523  2.2116
  565MOL0     H76212   6.601   3.090   9.238  1.8392  0.9452 -3.0752
  565MOL0     H76213   6.479   3.006   9.155  0.5748  0.2712  0.8953
  565MOL0     H76214   6.568   2.789   9.166 -1.8613 -2.2099  2.3849
  565MOL0     H76215   6.727   2.838   9.228  0.7377  2.4077 -1.6223
  565MOL0     H76216   6.481   2.912   9.384  0.5864  0.6636  1.4150
  565MOL0     H76217   6.535   2.748   9.412  0.5644  0.0349  0.9965
  565MOL0     H76218   6.759   2.838   9.505 -0.4510 -1.6021 -0.5478
  565MOL0     H76219   6.721   2.989   9.424 -0.7002  0.6152  0.9639
  565MOL0     H76220   6.542   3.027   9.604 -2.2200 -2.5805  1.5453
  565MOL0     H76221   6.564   2.866   9.654 -2.5390 -0.1545 -3.4122
  565MOL0     H76222   6.749   2.948   9.796  1.7867  0.4800  0.3130
  565MOL0     H76223   6.813   3.017   9.639 -3.0120  1.3690 -4.1234
  565MOL0     H76224   6.686   3.208   9.645 -1.1242 -1.3436 -0.6657
  565MOL0     H76225   6.774   3.201   9.801  0.8419 -0.1408 -0.7155
  565MOL0     H76226   6.640   3.117  10.017 -0.8113  0.8190  0.8957
  565MOL0     H76227   6.259   3.106  10.114 -1.1584  3.3469  1.8732
  565MOL0     H76228   6.401   3.123  10.192  0.4389 -1.5023 -0.3682
  565MOL0     H76229   6.244   3.341  10.050  1.0546  1.4637 -0.5301
  565MOL0     H76230   6.406   3.382  10.116 -0.9224  1.0453  1.9186
  565MOL0     H76231   6.268   3.451  10.296  0.4801 -0.1002  2.2993
  565MOL0     H76232   6.311   3.291  10.339  0.3314  0.2597  1.3943
  565MOL0     H76233   6.078   3.333  10.377  1.5507 -2.4589  1.3576
  565MOL0     H76234   6.104   3.194  10.268 -2.7067 -0.7629 -2.2800
  565MOL0     H76235   5.860   3.544  10.083  2.5023 -1.6191 -0.4734
  565MOL0     H76236   5.520   3.536  10.049 -0.9998  0.7217 -0.4980
  565MOL0     H76237   5.571   3.660  10.161 -0.0787 -3.1428  2.7898
  565MOL0     H76238   5.676   3.637  10.023 -0.7765  1.6874  0.4764
  565MOL0     H76239   5.244   3.377  10.178  0.0681 -2.2399 -0.6618
  565MOL0     H76240   4.979   3.402  10.241 -0.1203 -1.5752 -2.6166
  565MOL0     H76241   4.865   3.192  10.600  1.5627  0.5269  2.9717
  565MOL0     H76242   4.904   3.346  10.673  1.3612 -1.6655  1.0856
  565MOL0     H76243   4.613   3.297  10.553 -2.1391 -0.9445  2.6361
  565MOL0     H76244   4.662   3.296  10.721 -0.7022 -3.1943 -1.0761
  565MOL0     H76245   4.572   3.520  10.573  1.2959 -1.9912 -2.4496
  565MOL0     H76246   4.738   3.554  10.594 -1.1609  0.2168 -1.7272
  565MOL0     H76247   4.582   3.638  10.763  0.9874  0.3580  0.5423
  565MOL0     H76248   4.542   3.480  10.828 -0.5833 -0.6482 -2.0719
  565MOL0     H76249   4.719   3.645  10.944  3.7975 -0.1524  1.1806
  565MOL0     H76250   4.831   3.590  10.829  1.6560 -1.3533  1.7747
  565MOL0     H76251   4.815   3.363  10.882  3.1852  1.2155 -0.5982
  565MOL0     H76252   4.887   3.473  10.992  0.6672  1.5769 -1.7188
  565MOL0     H76253   4.732   3.284  11.054  2.1759  0.5201  1.6560
  565MOL0     H76254   4.586   3.396  11.044 -1.0893 -0.0576  3.1470
  565MOL0     H76255   4.822   3.395  11.234 -0.4689  1.4207 -0.0519
  565MOL0     H76256   4.662   3.348  11.282  1.0474 -0.1800  0.5030
  565MOL0     H76257   5.070   3.194  10.600  3.8940  0.2282  1.1758
  565MOL0     H76258   5.294   3.163  10.538  0.0415  1.4096  0.7388
  565MOL0     H76259   5.651   3.217  10.397  1.2651  2.7718  3.5034
  565MOL0     H76260   5.891   3.199  10.332 -3.7186 -3.9795 -0.6503
  565MOL0     H76261   6.544   3.373   8.901  0.4990 -0.3418 -0.4176
  565MOL0     H76262   6.355   3.393   8.746  0.6052 -1.2726 -2.6952
  565MOL0     H76263   5.927   3.191   8.612 -0.5665  0.8802 -0.6095
  565MOL0     H76264   5.722   3.222   8.493  1.7068 -1.9283  1.1342
  565MOL0     H76265   5.515   3.411   8.222 -0.9640  1.7421  2.0914
  565MOL0     H76266   5.562   3.400   8.384 -1.3774  0.3657 -0.0515
  565MOL0     H76267   5.716   3.588   8.186  4.7074  1.4805  2.4913
  565MOL0     H76268   5.736   3.567   8.351 -1.2623 -1.5180  1.2229
  565MOL0     H76269   5.597   3.762   8.330 -0.1598  0.5486  0.9488
  565MOL0     H76270   5.494   3.638   8.395 -2.7807 -0.5672 -1.8418
  565MOL0     H76271   5.385   3.603   8.180  0.1432  0.2007  0.1464
  565MOL0     H76272   5.514   3.702   8.101  2.1367  2.4597  2.2773
  565MOL0     H76273   5.275   3.998   8.306  3.0798  3.5452 -1.1621
  565MOL0     H76274   5.942   3.432   8.176 -3.1331  0.5103 -0.2343
  565MOL0     H76275   6.150   3.388   8.290 -1.1501 -0.4570 -2.4255
  566MOL0     O76276   7.887   0.727  10.292  0.0749  0.6442 -0.4861
  566MOL0     C76277   7.957   0.715  10.195  0.1495 -0.9090  0.8641
  566MOL0     O76278   7.909   0.729  10.069 -0.7209  0.1724  0.3384
  566MOL0     C76279   7.789   0.779  10.025  0.2311  0.6427  0.6860
  566MOL0     C76280   7.781   0.774   9.881  0.2382  0.7653  0.5571
  566MOL0     C76281   7.657   0.822   9.821  0.6721 -0.8506 -0.4156
  566MOL0     C76282   7.568   0.904   9.893 -0.7511  0.0544 -1.2242
  566MOL0     O76283   7.455   0.953   9.847  0.1557  0.1691  0.3781
  566MOL0     C76284   7.382   0.887   9.739 -0.3571  0.0255 -0.1127
  566MOL0     C76285   7.241   0.922   9.737  0.8007 -0.0465  0.8588
  566MOL0     C76286   7.157   0.889   9.864  0.7519  0.3733 -0.0368
  566MOL0     C76287   7.034   0.971   9.890  0.7785  0.0091  1.3708
  566MOL0     C76288   6.969   0.946  10.022  0.4206  0.6979  0.8984
  566MOL0     C76289   6.904   0.809  10.037  0.5233  0.6770  0.0545
  566MOL0     C76290   6.797   0.766   9.934 -0.2606 -0.4076  0.2695
  566MOL0     C76291   6.733   0.631   9.980  0.3172 -0.9799 -0.1329
  566MOL0     N76292   6.707   0.531   9.874  0.7778  0.7368 -0.1259
  566MOL0     C76293   6.626   0.555   9.769  0.3806 -0.3116 -0.0859
  566MOL0     C76294   6.627   0.440   9.697 -0.9566  0.0193  0.1539
  566MOL0     C76295   6.578   0.419   9.565  0.0738 -0.0877  0.7709
  566MOL0     C76296   6.686   0.453   9.467 -0.5261 -0.2416 -0.8996
  566MOL0     C76297   6.616   0.431   9.327  0.3923 -0.9767  0.2059
  566MOL0     C76298   6.528   0.550   9.276  0.0962  0.0740  1.6616
  566MOL0     O76299   6.612   0.669   9.256  0.1097 -1.0984 -0.2723
  566MOL0     C76300   6.681   0.672   9.139  0.1474 -0.2193  0.4830
  566MOL0     C76301   6.629   0.741   9.030  0.5194  0.4978  1.0975
  566MOL0     C76302   6.704   0.741   8.909  0.6553 -0.7593  0.1823
  566MOL0     C76303   6.637   0.816   8.798 -0.2621  0.0010  0.2751
  566MOL0     C76304   6.830   0.682   8.901 -0.1778  0.2051 -0.1931
  566MOL0     C76305   6.918   0.704   8.783 -1.5015 -0.0021  0.3216
  566MOL0     O76306   6.871   0.739   8.660  0.2785  0.4365 -0.5902
  566MOL0     C76307   6.943   0.819   8.574 -0.5626  0.6210  0.3320
  566MOL0     C76308   7.076   0.871   8.577  1.1650 -0.0581 -0.7205
  566MOL0     C76309   7.129   0.938   8.468 -1.2004 -0.1898  0.4933
  566MOL0     C76310   7.063   0.964   8.347 -0.4640 -0.0407 -0.1469
  566MOL0     O76311   7.124   1.055   8.261 -0.0074  0.0127 -0.7777
  566MOL0     C76312   7.035   1.155   8.199 -0.6751  0.8596  0.1341
  566MOL0     C76313   7.116   1.236   8.086  0.2666 -0.2012  0.6678
  566MOL0     C76314   7.023   1.341   8.012 -0.2994  0.4389  0.0388
  566MOL0     C76315   7.103   1.460   7.964 -0.7462  0.2309 -0.8516
  566MOL0     C76316   7.027   1.559   7.866  0.7902  0.6092 -0.7269
  566MOL0     C76317   7.121   1.621   7.767 -0.0243 -0.3873  0.7800
  566MOL0     C76318   7.103   1.775   7.730  1.0052 -0.0198  0.4670
  566MOL0     C76319   7.223   1.835   7.650 -0.5742 -0.1052 -0.2095
  566MOL0    Cl76320   7.244   1.766   7.481 -0.1736  0.0323 -0.1836
  566MOL0     C76321   6.939   0.905   8.335 -0.1291 -0.0195 -0.5133
  566MOL0     C76322   6.883   0.834   8.447 -0.6191  0.0965 -0.2432
  566MOL0     O76323   7.043   0.689   8.809  0.4895  0.3445 -0.5327
  566MOL0     C76324   6.881   0.624   9.016  0.2544 -0.2079 -0.1190
  566MOL0     C76325   6.805   0.619   9.131 -0.7603 -0.0561 -0.3689
  566MOL0     N76326   6.696   0.342   9.762 -0.4806 -0.3657  0.9008
  566MOL0     N76327   6.756   0.401   9.860  0.0104 -0.1426 -0.0729
  566MOL0     C76328   7.584   0.910  10.027 -1.9870  0.2170  0.0582
  566MOL0     C76329   7.689   0.841  10.096  0.3874 -0.4806 -0.5951
  566MOL0     C76330   8.103   0.682  10.195 -0.7324 -0.6040  0.0301
  566MOL0     C76331   8.163   0.629  10.083  0.8087 -0.2647  0.6787
  566MOL0     C76332   8.302   0.618  10.084 -0.5429 -0.6523  0.5123
  566MOL0     C76333   8.388   0.650  10.199  1.2637  0.2491  0.4526
  566MOL0     O76334   8.525   0.632  10.184  1.1033  0.2282  0.6975
  566MOL0     C76335   8.561   0.497  10.197  0.0907 -0.0584 -0.3787
  566MOL0     C76336   8.675   0.468  10.304  1.1383  1.2323 -0.0237
  566MOL0     C76337   8.714   0.321  10.313  0.1161 -0.0128 -0.3912
  566MOL0     C76338   8.610   0.222  10.296  1.0252  0.8471  0.0285
  566MOL0     C76339   8.496   0.236  10.397  0.2562 -0.7897  1.4105
  566MOL0     C76340   8.403   0.258  10.468  0.5247  1.2889 -0.3425
  566MOL0     C76341   8.322   0.705  10.309  0.4985  0.2193 -0.0785
  566MOL0     C76342   8.181   0.718  10.308 -0.2106  0.5911  0.3723
  566MOL0     H76343   7.862   0.733   9.822 -0.4977  0.3028 -0.1534
  566MOL0     H76344   7.639   0.794   9.718 -4.5214 -1.0669  0.2916
  566MOL0     H76345   7.429   0.917   9.645 -0.4614  2.9137  0.6897
  566MOL0     H76346   7.380   0.778   9.753 -0.7709 -0.1705 -1.5387
  566MOL0     H76347   7.248   1.029   9.718  2.5304  0.0729  2.0243
  566MOL0     H76348   7.214   0.866   9.647  3.0317 -0.8612  0.6393
  566MOL0     H76349   7.129   0.783   9.860 -2.7871  1.1195  1.4242
  566MOL0     H76350   7.226   0.913   9.946  3.3747 -1.2979 -1.6064
  566MOL0     H76351   7.063   1.076   9.880 -0.1005  0.1506 -0.0185
  566MOL0     H76352   6.962   0.941   9.813 -0.3029  2.5458  1.2995
  566MOL0     H76353   7.031   0.969  10.109  1.0219 -3.3973  1.7515
  566MOL0     H76354   6.885   1.016  10.032 -0.2168 -0.2073  2.1452
  566MOL0     H76355   6.987   0.738  10.047  0.1657  0.0960 -0.9985
  566MOL0     H76356   6.850   0.819  10.131  2.2664 -0.7569  1.2813
  566MOL0     H76357   6.723   0.846   9.942 -0.7525 -0.6287 -1.6224
  566MOL0     H76358   6.831   0.749   9.831 -0.9047  1.4165 -0.2836
  566MOL0     H76359   6.632   0.663  10.005 -1.1465  0.3116 -6.2375
  566MOL0     H76360   6.781   0.592  10.070 -1.2975 -0.5746  0.9467
  566MOL0     H76361   6.574   0.649   9.750 -1.2336 -1.0044  0.7037
  566MOL0     H76362   6.554   0.313   9.559  1.1759 -0.3088  0.0055
  566MOL0     H76363   6.480   0.464   9.549 -2.8148 -5.5642  0.9177
  566MOL0     H76364   6.757   0.372   9.484  0.3351 -0.2593 -3.9244
  566MOL0     H76365   6.731   0.552   9.479 -0.9984 -0.1970  0.6303
  566MOL0     H76366   6.558   0.339   9.321  1.1931 -1.5318  0.7777
  566MOL0     H76367   6.691   0.423   9.247 -1.8313  0.7697 -2.2029
  566MOL0     H76368   6.446   0.570   9.346  0.7216 -1.2307  2.8303
  566MOL0     H76369   6.488   0.514   9.181  0.1785 -0.2556  1.7499
  566MOL0     H76370   6.532   0.787   9.046  0.9703  0.9568  2.7349
  566MOL0     H76371   6.566   0.895   8.827  1.3705  1.8363 -0.4974
  566MOL0     H76372   6.717   0.869   8.745  0.8869  1.3710  3.1232
  566MOL0     H76373   6.584   0.748   8.731 -2.3834  1.5210  0.2713
  566MOL0     H76374   7.129   0.867   8.672 -3.6222  1.8354  2.3645
  566MOL0     H76375   7.226   0.985   8.481 -2.3787  2.7230 -0.4058
  566MOL0     H76376   6.948   1.101   8.162 -1.2603  0.6167  1.7923
  566MOL0     H76377   6.999   1.216   8.282 -0.3492  0.0636  0.8717
  566MOL0     H76378   7.199   1.286   8.138  0.7694 -2.6701  2.3992
  566MOL0     H76379   7.155   1.165   8.012  0.0437  0.8824 -0.5301
  566MOL0     H76380   6.943   1.376   8.078 -1.0292 -0.0924 -0.5541
  566MOL0     H76381   6.962   1.298   7.933  0.8889 -3.2661  0.9506
  566MOL0     H76382   7.144   1.520   8.045 -0.4232 -0.0757 -0.7862
  566MOL0     H76383   7.190   1.408   7.923 -1.6958 -4.2689  2.0726
  566MOL0     H76384   6.970   1.636   7.918 -3.2134 -1.9160 -0.9367
  566MOL0     H76385   6.946   1.504   7.817  0.0271  0.6594  0.4553
  566MOL0     H76386   7.224   1.604   7.799  0.6233  0.4868 -0.7418
  566MOL0     H76387   7.111   1.570   7.671  1.4101  3.0880 -1.3901
  566MOL0     H76388   7.091   1.824   7.827 -1.5835  0.8693 -0.2127
  566MOL0     H76389   7.006   1.784   7.681  1.8732  4.7144 -0.8679
  566MOL0     H76390   7.309   1.810   7.713 -0.9358  0.9570  0.7541
  566MOL0     H76391   7.221   1.944   7.652  2.8688  0.0537 -0.3968
  566MOL0     H76392   6.873   0.915   8.249 -0.9271  2.4067  0.3188
  566MOL0     H76393   6.780   0.802   8.450 -0.3374 -0.8509 -0.4504
  566MOL0     H76394   6.980   0.581   9.023 -1.1185 -3.3517  4.1254
  566MOL0     H76395   6.850   0.564   9.213  1.0534  0.9419 -0.6407
  566MOL0     H76396   7.513   0.969  10.085  0.3071  0.1639  3.1844
  566MOL0     H76397   7.696   0.850  10.204 -0.2187  0.2019 -0.6057
  566MOL0     H76398   8.119   0.596   9.989  1.1032  2.3336 -0.4672
  566MOL0     H76399   8.353   0.602   9.990 -3.2176  2.6746 -1.7605
  566MOL0     H76400   8.476   0.428  10.198 -1.3006  1.5496 -1.3838
  566MOL0     H76401   8.596   0.476  10.096 -1.3638  1.5252 -1.2590
  566MOL0     H76402   8.637   0.497  10.403  1.0422  0.8586  0.0535
  566MOL0     H76403   8.763   0.523  10.270  0.4133  0.9964 -2.4526
  566MOL0     H76404   8.771   0.316  10.406 -0.9919 -0.2642  0.2876
  566MOL0     H76405   8.781   0.311  10.226  1.8536 -2.4953  1.0984
  566MOL0     H76406   8.649   0.120  10.295 -1.5816 -0.2201 -0.3617
  566MOL0     H76407   8.576   0.237  10.193  0.4807 -1.4625 -0.1888
  566MOL0     H76408   8.313   0.276  10.523 -1.4612 -1.2005 -2.4971
  566MOL0     H76409   8.366   0.747  10.399 -2.1473  0.8230  1.0285
  566MOL0     H76410   8.124   0.750  10.394 -1.2054  0.8094 -0.3430
  567MOL0     O76411   8.427   4.450  11.027 -0.9157 -0.3158 -0.3112
  567MOL0     C76412   8.420   4.526  10.934 -0.0741 -0.2978  0.1686
  567MOL0     O76413   8.307   4.547  10.863  0.2306 -0.7020  0.3911
  567MOL0     C76414   8.193   4.467  10.870  0.9329  0.7566  0.3386
  567MOL0     C76415   8.132   4.419  10.995 -0.6588  0.5720  0.0473
  567MOL0     C76416   8.027   4.319  10.981 -0.0837 -0.0106  0.0121
  567MOL0     C76417   7.971   4.290  10.856  1.1628  0.3391  0.3845
  567MOL0     O76418   7.850   4.212  10.834  0.1270  0.0581 -0.0996
  567MOL0     C76419   7.763   4.189  10.941 -0.2512  0.1470 -0.3132
  567MOL0     C76420   7.629   4.153  10.883  0.1032 -0.5525  0.5200
  567MOL0     C76421   7.600   4.234  10.753  0.0480  1.1694 -0.0380
  567MOL0     C76422   7.456   4.213  10.701  0.6678  0.0916  0.7193
  567MOL0     C76423   7.354   4.318  10.750 -0.5660  0.3648  0.6849
  567MOL0     C76424   7.230   4.340  10.672  0.0479  0.3468 -0.4930
  567MOL0     C76425   7.156   4.198  10.660  0.4048  0.6708  1.8138
  567MOL0     C76426   7.017   4.187  10.598 -0.3232 -0.8932  0.3969
  567MOL0     N76427   6.915   4.287  10.644 -0.4000  0.3708  0.4452
  567MOL0     C76428   6.879   4.306  10.774  0.7649 -0.1718  0.5678
  567MOL0     C76429   6.768   4.381  10.754  1.0331 -0.9228 -0.8100
  567MOL0     C76430   6.675   4.448  10.857 -0.2510  0.3189 -0.5153
  567MOL0     C76431   6.546   4.371  10.876 -0.8387 -0.3893  0.0291
  567MOL0     C76432   6.442   4.402  10.767  0.1502  0.8807 -0.4556
  567MOL0     C76433   6.317   4.330  10.782 -0.6720  0.6401  0.1978
  567MOL0     O76434   6.265   4.353  10.912 -0.2387 -0.5524  0.0121
  567MOL0     C76435   6.132   4.343  10.918 -1.1721 -0.3291 -0.3909
  567MOL0     C76436   6.073   4.227  10.892 -0.6972 -1.0139 -0.0559
  567MOL0     C76437   5.938   4.219  10.875 -0.3363  0.7720  0.6379
  567MOL0     C76438   5.871   4.086  10.828  0.0762  0.0846 -0.1126
  567MOL0     C76439   5.856   4.333  10.901 -0.4812  0.5132  0.8975
  567MOL0     C76440   5.704   4.335  10.909  0.5744 -0.6109  0.5111
  567MOL0     O76441   5.643   4.454  10.853  0.1773  0.4762 -0.6753
  567MOL0     C76442   5.515   4.469  10.831  0.6000  1.1073  0.6712
  567MOL0     C76443   5.451   4.397  10.727  0.4477  1.1063  0.0326
  567MOL0     C76444   5.313   4.411  10.707 -0.9527 -0.3798 -0.5885
  567MOL0     C76445   5.242   4.506  10.769 -0.5917 -0.0983 -1.1401
  567MOL0     O76446   5.113   4.534  10.741 -0.4263 -0.7656  0.6263
  567MOL0     C76447   5.040   4.642  10.806  0.1175 -0.1802 -0.7102
  567MOL0     C76448   4.903   4.639  10.745  0.6748 -0.4845  0.0265
  567MOL0     C76449   4.914   4.678  10.596  0.1658 -0.0190 -0.1424
  567MOL0     C76450   4.772   4.733  10.559  0.8285 -0.1242 -0.1369
  567MOL0     C76451   4.753   4.755  10.400  0.8988  1.1609 -0.1116
  567MOL0     C76452   4.752   4.622  10.331 -0.1284  0.8569 -0.2701
  567MOL0     C76453   4.755   4.642  10.182 -0.4272 -0.2000 -0.6799
  567MOL0     C76454   4.719   4.530  10.087  0.8007  0.3774 -0.6465
  567MOL0    Cl76455   4.546   4.505  10.122 -0.5975  0.4404 -0.0926
  567MOL0     C76456   5.311   4.573  10.872  0.2629 -0.3153  0.3842
  567MOL0     C76457   5.443   4.551  10.904  0.8941 -1.2633 -0.6865
  567MOL0     O76458   5.642   4.233  10.920  0.0691  0.1038 -0.6934
  567MOL0     C76459   5.914   4.459  10.923 -0.1250  0.0177 -0.8436
  567MOL0     C76460   6.052   4.461  10.930 -1.1952  0.2344 -1.0732
  567MOL0     N76461   6.756   4.408  10.622  0.2757 -0.4854 -0.3340
  567MOL0     N76462   6.841   4.349  10.552  0.1199 -0.4545 -0.3981
  567MOL0     C76463   8.019   4.353  10.744  0.5832  0.6165 -0.2373
  567MOL0     C76464   8.138   4.429  10.748 -0.2401 -1.5138 -0.6648
  567MOL0     C76465   8.536   4.594  10.877 -0.6725  0.3396 -0.0234
  567MOL0     C76466   8.663   4.530  10.892 -0.1102  0.1263  0.2782
  567MOL0     C76467   8.781   4.599  10.841  1.1458  0.1365 -0.1107
  567MOL0     C76468   8.769   4.734  10.794 -0.0691 -0.1759 -0.9184
  567MOL0     O76469   8.892   4.785  10.747  0.3035  0.4625  1.0237
  567MOL0     C76470   8.898   4.911  10.684 -0.3005  0.4156  0.2275
  567MOL0     C76471   8.859   4.885  10.537  0.3830 -1.3645  0.3285
  567MOL0     C76472   8.826   5.023  10.472  0.5268  1.1278 -0.4071
  567MOL0     C76473   8.782   5.012  10.339 -0.2914 -0.3567  0.1565
  567MOL0     C76474   8.663   4.926  10.309  0.6563  0.6701  0.8067
  567MOL0     C76475   8.562   4.851  10.291 -0.7442 -0.0507 -1.3802
  567MOL0     C76476   8.642   4.789  10.784  0.3401 -1.1224 -0.7360
  567MOL0     C76477   8.526   4.721  10.831  0.0755 -0.4487 -0.7053
  567MOL0     H76478   8.172   4.453  11.090  0.8843  1.7895 -1.0025
  567MOL0     H76479   7.988   4.278  11.074  0.3232  0.4136  0.3749
  567MOL0     H76480   7.804   4.128  11.022 -0.1380  2.8453  1.8225
  567MOL0     H76481   7.757   4.282  10.999  3.6411 -1.9032  3.9343
  567MOL0     H76482   7.611   4.049  10.855 -2.5082 -0.7475  2.5742
  567MOL0     H76483   7.547   4.174  10.952  0.5880 -1.3925  1.3695
  567MOL0     H76484   7.631   4.338  10.764  1.6478  0.7288 -0.0703
  567MOL0     H76485   7.671   4.183  10.687  2.3111  1.1790  2.2387
  567MOL0     H76486   7.454   4.226  10.592 -0.4331  2.1225  0.9197
  567MOL0     H76487   7.422   4.114  10.729 -1.2189  0.3506 -0.5014
  567MOL0     H76488   7.350   4.309  10.859  4.6077  3.3378  1.4703
  567MOL0     H76489   7.412   4.410  10.742 -0.3621  0.5870  3.5487
  567MOL0     H76490   7.168   4.414  10.724 -1.2547 -0.8502 -0.2776
  567MOL0     H76491   7.272   4.373  10.577 -0.0113 -0.7237 -0.9004
  567MOL0     H76492   7.221   4.129  10.605  1.1195  1.5440  1.5292
  567MOL0     H76493   7.142   4.146  10.755 -4.4724 -1.3073  0.2974
  567MOL0     H76494   6.980   4.088  10.625  1.6555 -1.9959 -0.7267
  567MOL0     H76495   7.018   4.198  10.489  0.0838  0.4775  0.5235
  567MOL0     H76496   6.927   4.274  10.866  1.0285 -0.2959  0.3891
  567MOL0     H76497   6.733   4.442  10.950  2.3378  2.2603 -1.8770
  567MOL0     H76498   6.667   4.552  10.826  1.6019  1.1399  1.5058
  567MOL0     H76499   6.505   4.398  10.973 -2.5968 -0.5764 -0.6147
  567MOL0     H76500   6.576   4.266  10.883  1.2955  0.3129  2.9656
  567MOL0     H76501   6.495   4.348  10.688  3.5301 -0.4675  2.4645
  567MOL0     H76502   6.433   4.508  10.742  0.1290  0.5207 -2.1262
  567MOL0     H76503   6.336   4.223  10.771  0.2632  0.8468 -0.2339
  567MOL0     H76504   6.244   4.357  10.705 -0.7129  0.4984  0.1867
  567MOL0     H76505   6.136   4.141  10.874  2.9237  1.4632 -0.3808
  567MOL0     H76506   5.826   4.031  10.912 -2.4224 -0.8090 -1.9007
  567MOL0     H76507   5.798   4.104  10.748 -0.1342  0.6361  0.1981
  567MOL0     H76508   5.951   4.032  10.778  0.3676  1.6428 -1.4197
  567MOL0     H76509   5.514   4.324  10.677 -0.9163 -0.8920  1.1311
  567MOL0     H76510   5.265   4.349  10.632 -4.5674  3.9999 -2.3352
  567MOL0     H76511   5.022   4.617  10.910 -0.3432  0.1233 -0.7143
  567MOL0     H76512   5.091   4.738  10.797 -1.5783  0.6908 -1.4599
  567MOL0     H76513   4.850   4.543  10.746  1.5761 -0.9978  1.3532
  567MOL0     H76514   4.838   4.699  10.810 -1.5863 -0.7237 -1.8668
  567MOL0     H76515   4.952   4.600  10.530 -1.7214  0.4424 -1.8805
  567MOL0     H76516   4.978   4.766  10.584  0.9047 -0.7087 -1.6034
  567MOL0     H76517   4.692   4.666  10.593 -0.6109  1.4822 -0.1746
  567MOL0     H76518   4.756   4.828  10.611  0.7886 -1.2869  2.0974
  567MOL0     H76519   4.829   4.816  10.351  2.5164 -2.1053 -1.9681
  567MOL0     H76520   4.651   4.794  10.397 -0.3513 -1.3386  3.2025
  567MOL0     H76521   4.834   4.558  10.366  1.0373  3.1284  1.4239
  567MOL0     H76522   4.660   4.580  10.373  0.6368  0.0641  0.6761
  567MOL0     H76523   4.848   4.692  10.153  0.1415  0.1881  1.6120
  567MOL0     H76524   4.676   4.718  10.172 -2.4231 -2.1407 -0.4576
  567MOL0     H76525   4.782   4.441  10.099  1.0821  0.1698 -3.1546
  567MOL0     H76526   4.724   4.550   9.979  1.1819 -0.6549 -0.8339
  567MOL0     H76527   5.261   4.661  10.909 -1.1191 -1.5851  1.6933
  567MOL0     H76528   5.486   4.620  10.976 -3.4600  1.6025 -0.4589
  567MOL0     H76529   5.845   4.539  10.945  1.4318  1.2312 -0.1759
  567MOL0     H76530   6.107   4.553  10.947 -1.4138  0.3134 -0.7785
  567MOL0     H76531   7.982   4.311  10.651 -0.7067 -2.6355  1.5637
  567MOL0     H76532   8.187   4.455  10.654  1.1420 -0.3999  0.3242
  567MOL0     H76533   8.660   4.432  10.938  1.3140 -0.8404 -1.5401
  567MOL0     H76534   8.880   4.555  10.841  2.1067  2.0554  2.3940
  567MOL0     H76535   8.840   4.978  10.749 -1.1437  0.7996 -0.8743
  567MOL0     H76536   9.000   4.949  10.676  0.4048 -1.6624 -1.6479
  567MOL0     H76537   8.781   4.810  10.521  0.2457 -1.4523  1.3450
  567MOL0     H76538   8.945   4.851  10.479 -0.4157 -1.4028 -0.8724
  567MOL0     H76539   8.918   5.081  10.479  1.3425  0.2536 -2.8073
  567MOL0     H76540   8.742   5.067  10.528  0.7796  0.1461  0.8050
  567MOL0     H76541   8.865   4.973  10.279 -0.6091 -2.9411  1.2609
  567MOL0     H76542   8.756   5.112  10.304  1.4530 -0.3187 -1.1951
  567MOL0     H76543   8.480   4.786  10.269 -0.6696 -0.6817  0.0844
  567MOL0     H76544   8.629   4.885  10.736  2.3120 -0.4937 -0.1057
  567MOL0     H76545   8.427   4.765  10.825  0.5039  0.8023  0.8734
  568MOL0     O76546   2.366   8.130   2.374  0.2338 -0.5619  0.3866
  568MOL0     C76547   2.291   8.144   2.279  0.4831  0.6178 -0.3405
  568MOL0     O76548   2.162   8.098   2.276  0.2268  0.5336 -0.2766
  568MOL0     C76549   2.123   8.006   2.364 -0.1344  0.2471  0.3002
  568MOL0     C76550   2.024   8.027   2.456  0.9895  0.4941 -0.6202
  568MOL0     C76551   1.995   7.935   2.559 -0.8696  0.3940 -0.3540
  568MOL0     C76552   2.053   7.806   2.557 -0.2315  0.3464  0.2241
  568MOL0     O76553   2.029   7.699   2.634 -0.0108  0.2247  0.4370
  568MOL0     C76554   1.902   7.683   2.703  0.6987 -0.3431 -0.5757
  568MOL0     C76555   1.878   7.543   2.756 -0.8094 -0.3683  0.1084
  568MOL0     C76556   1.760   7.543   2.839  0.6809  0.2486 -1.2315
  568MOL0     C76557   1.634   7.596   2.776 -0.1860  0.2726 -0.7182
  568MOL0     C76558   1.505   7.555   2.850  0.6074  0.7178 -0.3932
  568MOL0     C76559   1.462   7.413   2.806 -0.9833  0.3970  0.1722
  568MOL0     C76560   1.318   7.383   2.843 -0.5580  0.0840  0.8325
  568MOL0     C76561   1.299   7.327   2.987 -0.2815 -0.2710 -0.4111
  568MOL0     N76562   1.170   7.266   3.015  0.1185 -0.0715  0.0677
  568MOL0     C76563   1.043   7.319   2.994  0.4264  0.7303  0.0175
  568MOL0     C76564   0.950   7.220   2.997 -0.9607 -0.1412 -0.1508
  568MOL0     C76565   0.800   7.221   2.962  0.0904  0.8530  0.2429
  568MOL0     C76566   0.757   7.080   2.936  0.0432  1.0474 -0.2437
  568MOL0     C76567   0.788   7.030   2.798 -0.7069 -0.4092 -0.2667
  568MOL0     C76568   0.735   6.888   2.762 -0.6164  0.6157 -0.0108
  568MOL0     O76569   0.595   6.865   2.799 -0.5409  0.2639 -0.1097
  568MOL0     C76570   0.496   6.931   2.733 -0.0037 -0.4734 -0.0257
  568MOL0     C76571   0.409   7.024   2.790 -0.6138  0.2242  0.6979
  568MOL0     C76572   0.297   7.078   2.718  0.8276  0.2934  0.9148
  568MOL0     C76573   0.224   7.194   2.772 -0.7939  0.4363 -0.6407
  568MOL0     C76574   0.263   7.021   2.591  1.1586  0.3410  0.1189
  568MOL0     C76575   0.142   7.060   2.516  0.7766 -0.1478  0.6149
  568MOL0     O76576   0.152   7.059   2.374  0.0838  0.5018 -0.9382
  568MOL0     C76577   0.039   7.056   2.293 -0.4454 -0.7188  0.2601
  568MOL0     C76578   0.064   7.081   2.157  0.2655 -0.1265  0.6488
  568MOL0     C76579  -0.046   7.082   2.061 -0.2619  0.0881 -0.0119
  568MOL0     C76580  -0.179   7.058   2.103  0.1947 -0.4519 -0.5453
  568MOL0     O76581  -0.285   7.077   2.021  0.3546 -0.6493  0.8982
  568MOL0     C76582  -0.283   7.185   1.923  0.7019 -0.2836  0.3997
  568MOL0     C76583  -0.256   7.125   1.782 -0.5897 -0.3271 -0.6621
  568MOL0     C76584  -0.213   7.238   1.685 -0.1773  0.5693  0.3241
  568MOL0     C76585  -0.133   7.195   1.559 -0.2667 -0.9313  0.4227
  568MOL0     C76586  -0.102   7.326   1.486 -0.5215 -0.3093  0.6266
  568MOL0     C76587  -0.097   7.299   1.333  0.2860 -0.9177 -0.4400
  568MOL0     C76588   0.028   7.223   1.277 -0.2945  0.1096  0.6897
  568MOL0     C76589   0.099   7.114   1.351 -0.0916 -0.3498 -0.1085
  568MOL0    Cl76590   0.228   7.073   1.232 -0.5715  0.2109 -0.1055
  568MOL0     C76591  -0.201   7.032   2.237 -0.1041  0.3688  0.1906
  568MOL0     C76592  -0.093   7.027   2.333  0.6632  1.5342 -0.1294
  568MOL0     O76593   0.042   7.090   2.577  0.1051  0.4200  0.0974
  568MOL0     C76594   0.343   6.921   2.532 -0.1025  0.3785 -0.0696
  568MOL0     C76595   0.460   6.881   2.604 -0.3900 -0.4647 -0.2861
  568MOL0     N76596   1.026   7.110   3.035 -0.6213  1.0149 -0.0757
  568MOL0     N76597   1.149   7.136   3.043  0.5560  0.5831  0.3428
  568MOL0     C76598   2.159   7.796   2.459 -0.0895 -0.4850 -0.2041
  568MOL0     C76599   2.187   7.889   2.363 -0.1742 -0.1049 -0.0748
  568MOL0     C76600   2.343   8.209   2.157 -0.4708  0.5434 -0.3806
  568MOL0     C76601   2.259   8.214   2.042  0.3245  0.7641  0.3021
  568MOL0     C76602   2.307   8.264   1.924 -0.2849 -1.6661  1.1734
  568MOL0     C76603   2.439   8.315   1.916  0.4908 -0.7584 -1.1990
  568MOL0     O76604   2.489   8.353   1.802 -0.3246 -1.1139 -0.7374
  568MOL0     C76605   2.628   8.401   1.791 -0.2348 -0.2303 -0.3816
  568MOL0     C76606   2.644   8.427   1.639  0.5030 -0.1326 -0.0286
  568MOL0     C76607   2.765   8.505   1.587  0.9290  0.1148  0.5811
  568MOL0     C76608   2.901   8.453   1.613  0.7593  0.0929 -0.0780
  568MOL0     C76609   3.002   8.547   1.557 -0.9525 -0.7774 -0.3882
  568MOL0     C76610   3.071   8.648   1.532 -0.6344 -0.5448  0.2694
  568MOL0     C76611   2.519   8.317   2.035 -0.5445  0.1978 -0.6762
  568MOL0     C76612   2.478   8.255   2.154  1.0582 -0.1806  0.0487
  568MOL0     H76613   1.966   8.118   2.466 -1.0616 -0.9092  1.1359
  568MOL0     H76614   1.935   7.962   2.645 -0.1995  0.5107  0.0926
  568MOL0     H76615   1.885   7.751   2.786  1.7079  1.2212 -1.6085
  568MOL0     H76616   1.829   7.703   2.624  0.3406 -0.0617 -0.1710
  568MOL0     H76617   1.863   7.477   2.670  2.1248  0.6233 -1.3103
  568MOL0     H76618   1.957   7.501   2.819  0.1098  0.0004 -0.7711
  568MOL0     H76619   1.745   7.441   2.875  0.5859  0.0664 -1.7825
  568MOL0     H76620   1.775   7.606   2.928 -2.0244 -2.0499  1.0512
  568MOL0     H76621   1.643   7.703   2.757 -0.6763  0.4236 -0.1411
  568MOL0     H76622   1.626   7.571   2.669  0.7819  0.0086 -0.7318
  568MOL0     H76623   1.521   7.551   2.958 -2.5484  2.7951  0.2934
  568MOL0     H76624   1.425   7.625   2.823 -0.1735 -0.7994 -2.3014
  568MOL0     H76625   1.473   7.413   2.697 -2.9847  0.1488 -0.0617
  568MOL0     H76626   1.523   7.331   2.846  1.0869  1.3418 -0.8629
  568MOL0     H76627   1.269   7.481   2.852 -0.5454 -0.0778  3.1833
  568MOL0     H76628   1.259   7.329   2.768 -0.1103 -0.0968  0.6100
  568MOL0     H76629   1.299   7.415   3.053 -2.2032  0.3287 -1.1526
  568MOL0     H76630   1.379   7.257   3.010 -0.7831 -0.7255 -0.0270
  568MOL0     H76631   1.020   7.420   2.963 -0.1329 -0.1323 -2.5931
  568MOL0     H76632   0.744   7.271   3.042  0.8021  1.6316  0.2670
  568MOL0     H76633   0.793   7.281   2.871 -1.2102  2.3756  1.2983
  568MOL0     H76634   0.651   7.062   2.956  0.2355 -1.3602 -1.1006
  568MOL0     H76635   0.803   7.017   3.013 -1.4750 -0.7855 -0.7685
  568MOL0     H76636   0.896   7.020   2.796 -0.2384  1.7421  3.7055
  568MOL0     H76637   0.774   7.113   2.728  1.5533  2.5887  2.5060
  568MOL0     H76638   0.797   6.819   2.820 -1.8829  1.0566  1.9524
  568MOL0     H76639   0.753   6.863   2.657 -0.1828 -0.7264  0.3545
  568MOL0     H76640   0.435   7.053   2.892 -2.0483 -1.2633  1.5425
  568MOL0     H76641   0.128   7.159   2.811  0.5928 -2.4543  0.4123
  568MOL0     H76642   0.274   7.216   2.867  1.1618 -2.9260 -0.7405
  568MOL0     H76643   0.210   7.276   2.700 -2.4336 -0.3055 -1.2100
  568MOL0     H76644   0.166   7.088   2.121  0.9347 -0.1375  2.4744
  568MOL0     H76645  -0.036   7.101   1.955 -3.2644 -1.8296 -0.7872
  568MOL0     H76646  -0.376   7.242   1.928 -0.1355 -1.7076  3.1313
  568MOL0     H76647  -0.200   7.252   1.944 -0.7174  0.7417  3.2999
  568MOL0     H76648  -0.177   7.049   1.791  0.1816  0.1055 -3.0939
  568MOL0     H76649  -0.343   7.068   1.749  0.3876 -0.4341 -3.3174
  568MOL0     H76650  -0.153   7.317   1.732  1.4820 -1.4951  1.9126
  568MOL0     H76651  -0.305   7.280   1.645  1.3187  3.9528  0.1317
  568MOL0     H76652  -0.040   7.147   1.590  1.5460  3.0112  1.6762
  568MOL0     H76653  -0.196   7.120   1.509 -0.3290 -2.0666  2.1174
  568MOL0     H76654  -0.009   7.376   1.515 -2.2979  0.8401  5.2697
  568MOL0     H76655  -0.180   7.399   1.507 -0.6443 -0.1914 -0.2274
  568MOL0     H76656  -0.192   7.252   1.306 -0.3169  0.4292 -0.7656
  568MOL0     H76657  -0.095   7.398   1.288 -1.6694 -2.0338 -3.2490
  568MOL0     H76658   0.102   7.292   1.234  0.1262 -1.5023 -1.2938
  568MOL0     H76659  -0.013   7.168   1.192 -1.4825  2.2569 -0.2123
  568MOL0     H76660   0.018   7.042   1.369  1.2727 -1.6818  0.9659
  568MOL0     H76661   0.146   7.144   1.444  0.8094  1.1672 -1.0128
  568MOL0     H76662  -0.302   7.021   2.275  0.7670  0.6741  2.8493
  568MOL0     H76663  -0.119   7.016   2.437  1.9789 -0.6734  0.0407
  568MOL0     H76664   0.326   6.872   2.437 -1.2158 -0.8228  0.7202
  568MOL0     H76665   0.522   6.800   2.568  1.9041  1.1538 -0.1921
  568MOL0     H76666   2.200   7.696   2.450  0.1552 -0.4970  0.8716
  568MOL0     H76667   2.267   7.881   2.289  1.1997 -2.3529  1.5175
  568MOL0     H76668   2.156   8.180   2.044  1.1849 -2.0419  1.3448
  568MOL0     H76669   2.239   8.261   1.839  2.5772  1.3945 -1.5154
  568MOL0     H76670   2.648   8.489   1.854 -2.3873  0.4638 -0.5841
  568MOL0     H76671   2.687   8.311   1.810 -1.7242 -1.2215 -0.3017
  568MOL0     H76672   2.555   8.481   1.604  0.1940 -1.7246 -1.8760
  568MOL0     H76673   2.630   8.330   1.590 -4.8143 -0.1407  0.9375
  568MOL0     H76674   2.740   8.600   1.636 -3.6604 -0.3673 -0.3603
  568MOL0     H76675   2.765   8.525   1.479  1.0842 -0.2471  0.5152
  568MOL0     H76676   2.895   8.358   1.559 -0.1782 -1.3053  2.3209
  568MOL0     H76677   2.920   8.422   1.716 -1.2846 -1.3930 -0.1014
  568MOL0     H76678   3.122   8.741   1.515  0.3436 -1.4394 -2.2446
  568MOL0     H76679   2.616   8.365   2.029 -1.0045  1.2239 -0.0467
  568MOL0     H76680   2.529   8.248   2.250 -1.8888 -1.2632  1.6623
  569MOL0     O76681   4.688   4.703   8.479 -0.0035  0.9003 -0.7504
  569MOL0     C76682   4.709   4.815   8.431  0.1275 -0.1414  0.8149
  569MOL0     O76683   4.606   4.910   8.386 -0.2623 -0.4934  0.3560
  569MOL0     C76684   4.468   4.884   8.390 -0.2009  0.1171 -0.0761
  569MOL0     C76685   4.404   4.764   8.435  0.0723 -0.0197  0.7419
  569MOL0     C76686   4.261   4.758   8.435 -0.2992 -0.0048 -0.9082
  569MOL0     C76687   4.184   4.857   8.377 -0.3320  0.0013  0.7163
  569MOL0     O76688   4.052   4.834   8.376  0.8116  0.0109 -0.9581
  569MOL0     C76689   3.955   4.930   8.317 -0.6943 -0.4158  0.0696
  569MOL0     C76690   3.818   4.868   8.313  0.1623 -0.6782  0.0559
  569MOL0     C76691   3.841   4.749   8.217  0.1113  0.4360 -0.2141
  569MOL0     C76692   3.699   4.684   8.181  0.4846 -0.6985 -0.1287
  569MOL0     C76693   3.706   4.577   8.075  0.2191  0.1285  0.1089
  569MOL0     C76694   3.784   4.446   8.101 -1.0300 -0.2649  0.8786
  569MOL0     C76695   3.794   4.351   7.977 -0.0756  0.7674 -1.0177
  569MOL0     C76696   3.851   4.431   7.862 -0.0014  0.2225 -1.0284
  569MOL0     N76697   4.001   4.466   7.901 -0.1708 -0.7794  0.0630
  569MOL0     C76698   4.099   4.380   7.927 -1.5712 -0.0890  1.2611
  569MOL0     C76699   4.200   4.457   7.989 -0.7406 -0.3911  1.0274
  569MOL0     C76700   4.326   4.402   8.048 -0.8212  0.7453 -0.7592
  569MOL0     C76701   4.331   4.434   8.193 -0.4098 -0.6818  0.1623
  569MOL0     C76702   4.444   4.357   8.263 -0.2730  0.9542  0.1001
  569MOL0     C76703   4.496   4.388   8.409 -0.6975  0.4863  0.5015
  569MOL0     O76704   4.552   4.263   8.463 -0.0127 -0.3505 -0.5922
  569MOL0     C76705   4.583   4.256   8.597 -0.7001  0.5901 -0.1417
  569MOL0     C76706   4.652   4.363   8.647  0.6691 -0.3526 -0.4602
  569MOL0     C76707   4.677   4.366   8.788  0.2867 -0.3243  0.1683
  569MOL0     C76708   4.731   4.500   8.851 -0.2373  0.0630 -0.6830
  569MOL0     C76709   4.659   4.255   8.868 -1.0081 -0.2189  0.4379
  569MOL0     C76710   4.711   4.241   9.007 -0.1561 -0.1289 -0.2631
  569MOL0     O76711   4.786   4.132   9.043  0.0697  0.8628  0.5051
  569MOL0     C76712   4.772   4.082   9.172 -0.4405  0.1372 -0.0394
  569MOL0     C76713   4.889   4.022   9.225 -0.5022  0.4235 -0.4231
  569MOL0     C76714   4.886   3.950   9.345  0.1149 -0.1029  0.5053
  569MOL0     C76715   4.766   3.939   9.415  0.7875 -0.4977  0.7235
  569MOL0     O76716   4.749   3.886   9.537 -0.0775 -0.4127 -0.4854
  569MOL0     C76717   4.857   3.842   9.609  0.0386  0.6046 -0.7640
  569MOL0     C76718   4.802   3.777   9.738  0.0956 -0.0475 -0.2878
  569MOL0     C76719   4.898   3.754   9.854  0.4618  0.0330 -0.5784
  569MOL0     C76720   4.822   3.688   9.955  0.7027  0.1471 -0.0372
  569MOL0     C76721   4.901   3.656  10.084  0.0325  1.1187 -0.5068
  569MOL0     C76722   4.932   3.785  10.161  0.1662 -0.0428 -1.0890
  569MOL0     C76723   5.054   3.789  10.250 -0.1280 -0.2049 -0.4888
  569MOL0     C76724   5.186   3.832  10.180  0.3460  0.5663 -0.1510
  569MOL0    Cl76725   5.258   3.690  10.085 -0.0249  0.4027  0.6281
  569MOL0     C76726   4.648   3.999   9.356 -0.4704  0.1083 -0.2846
  569MOL0     C76727   4.653   4.068   9.239  0.8165 -0.1734  0.8545
  569MOL0     O76728   4.660   4.316   9.091 -0.1503 -0.2369  0.7326
  569MOL0     C76729   4.595   4.144   8.809 -0.2424 -0.5908 -0.2237
  569MOL0     C76730   4.550   4.151   8.683 -0.4137  0.3975  0.0765
  569MOL0     N76731   4.163   4.587   7.986 -0.2048  0.0864 -0.1131
  569MOL0     N76732   4.047   4.594   7.933 -0.3801 -0.4828 -0.2102
  569MOL0     C76733   4.253   4.972   8.323  0.1519  0.8474  0.8235
  569MOL0     C76734   4.398   4.985   8.331  1.7015 -0.2863  1.7081
  569MOL0     C76735   4.840   4.858   8.399 -1.0673 -1.2081 -0.2561
  569MOL0     C76736   4.853   4.985   8.341 -0.3763 -0.3822 -0.1751
  569MOL0     C76737   4.986   5.035   8.308  0.9891 -0.1382 -0.3552
  569MOL0     C76738   5.097   4.957   8.327  0.6394 -0.1316  0.3289
  569MOL0     O76739   5.220   5.009   8.289 -0.1061  0.4894  0.6514
  569MOL0     C76740   5.260   4.986   8.156  0.8757  0.2398  0.3895
  569MOL0     C76741   5.200   5.083   8.050  0.1032 -0.0386  0.3754
  569MOL0     C76742   5.207   5.230   8.098 -0.2415 -0.2838  0.1223
  569MOL0     C76743   5.307   5.315   8.018  0.2492 -0.3344  0.2442
  569MOL0     C76744   5.300   5.459   8.033  0.5564  1.0009 -0.5641
  569MOL0     C76745   5.300   5.576   8.073  0.2788 -0.3599  0.4854
  569MOL0     C76746   5.085   4.833   8.390  0.4034 -0.2201  0.0945
  569MOL0     C76747   4.957   4.779   8.418 -0.3119 -0.1397  0.6179
  569MOL0     H76748   4.442   4.682   8.494  1.8647  1.1774  1.3481
  569MOL0     H76749   4.209   4.675   8.483 -0.6431 -0.4693 -2.0493
  569MOL0     H76750   3.953   5.017   8.383  1.7965 -0.8280  0.8013
  569MOL0     H76751   3.993   4.964   8.221 -1.0719  1.5880  0.5866
  569MOL0     H76752   3.812   4.840   8.419  4.4676 -1.4921  0.3034
  569MOL0     H76753   3.749   4.945   8.279  2.8497  0.9927 -2.0482
  569MOL0     H76754   3.896   4.779   8.127  0.1799 -1.3173 -0.8005
  569MOL0     H76755   3.901   4.674   8.269  0.5108  1.7247  1.2733
  569MOL0     H76756   3.664   4.651   8.279  4.1557 -2.0792  0.8541
  569MOL0     H76757   3.627   4.758   8.143 -1.7393 -2.0255  1.2602
  569MOL0     H76758   3.605   4.541   8.053 -0.2534  0.4233  1.6353
  569MOL0     H76759   3.739   4.631   7.986 -0.6335 -1.0629 -0.9602
  569MOL0     H76760   3.887   4.467   8.131  0.2533 -2.4763 -1.6170
  569MOL0     H76761   3.728   4.392   8.178  0.1439 -3.9817 -0.6719
  569MOL0     H76762   3.878   4.285   8.002  1.1765  1.2635 -3.6498
  569MOL0     H76763   3.704   4.292   7.959 -2.6014  2.8426  3.3251
  569MOL0     H76764   3.797   4.520   7.832  1.1847  1.3794  0.1265
  569MOL0     H76765   3.862   4.358   7.782 -2.5943 -1.3239 -0.0979
  569MOL0     H76766   4.097   4.272   7.932 -2.0605 -0.2349 -1.0383
  569MOL0     H76767   4.319   4.298   8.017  3.3150  0.6360 -1.9356
  569MOL0     H76768   4.413   4.449   8.000 -0.3287 -1.2296 -1.8865
  569MOL0     H76769   4.233   4.413   8.238 -1.1888  1.0285 -0.6352
  569MOL0     H76770   4.366   4.536   8.211  1.6047 -1.0800 -1.2179
  569MOL0     H76771   4.532   4.348   8.198  1.3942  0.3073  2.3384
  569MOL0     H76772   4.390   4.262   8.269 -2.0238  1.8404 -0.7115
  569MOL0     H76773   4.413   4.421   8.472 -1.2879  1.2828 -0.6578
  569MOL0     H76774   4.576   4.462   8.412 -1.1764  1.0052  0.5387
  569MOL0     H76775   4.679   4.453   8.592  0.6085 -1.1484 -1.8215
  569MOL0     H76776   4.823   4.477   8.906  0.6865 -0.0104 -2.1934
  569MOL0     H76777   4.762   4.567   8.770  1.6884 -0.9325 -0.8217
  569MOL0     H76778   4.652   4.545   8.912 -1.6738 -1.4560 -1.3652
  569MOL0     H76779   4.979   4.040   9.167  1.0370  0.7743  1.8996
  569MOL0     H76780   4.974   3.907   9.390  0.2709 -0.4990 -0.1703
  569MOL0     H76781   4.914   3.767   9.553 -0.1828 -0.6525  0.5941
  569MOL0     H76782   4.926   3.925   9.624  1.0435 -0.0980 -1.3962
  569MOL0     H76783   4.722   3.837   9.781  0.2798 -0.5380  0.7675
  569MOL0     H76784   4.756   3.686   9.700 -1.3882  0.2825  0.6633
  569MOL0     H76785   4.938   3.851   9.884 -2.3888  1.9062 -2.3107
  569MOL0     H76786   4.978   3.684   9.829 -0.6343 -1.1293 -0.9721
  569MOL0     H76787   4.734   3.745   9.987 -0.0191 -0.4495 -0.9557
  569MOL0     H76788   4.791   3.597   9.905  1.5014  1.1106 -2.4313
  569MOL0     H76789   4.989   3.598  10.051 -0.7128  0.1382 -0.8147
  569MOL0     H76790   4.837   3.585  10.136 -0.2638  1.5327 -0.3020
  569MOL0     H76791   4.945   3.872  10.097  0.7836  0.0873 -0.7975
  569MOL0     H76792   4.841   3.801  10.220  0.7958  3.5677 -0.8527
  569MOL0     H76793   5.074   3.692  10.296 -1.5493 -0.2847  0.0108
  569MOL0     H76794   5.029   3.864  10.326 -0.8997  2.1786 -2.9301
  569MOL0     H76795   5.263   3.865  10.250 -0.5616  3.9104 -0.5631
  569MOL0     H76796   5.170   3.908  10.102 -1.3787 -0.6375 -1.0450
  569MOL0     H76797   4.555   3.988   9.411  1.4553 -0.9551  3.0466
  569MOL0     H76798   4.560   4.111   9.203  2.0597  4.3253  2.3055
  569MOL0     H76799   4.587   4.044   8.850  2.2734 -1.5137 -1.7615
  569MOL0     H76800   4.502   4.064   8.638  1.3955 -1.5504  1.6973
  569MOL0     H76801   4.191   5.047   8.275  1.2973 -0.6077 -3.3375
  569MOL0     H76802   4.447   5.054   8.263 -1.0408  0.4523  0.3658
  569MOL0     H76803   4.771   5.056   8.336 -0.1160 -0.0493  0.1714
  569MOL0     H76804   4.984   5.132   8.259 -0.5183 -0.3269 -0.7240
  569MOL0     H76805   5.369   4.985   8.144  0.6434  0.9948 -2.6051
  569MOL0     H76806   5.243   4.884   8.119 -3.1252  0.0322  2.3159
  569MOL0     H76807   5.095   5.066   8.026  0.1844  1.4261 -1.2195
  569MOL0     H76808   5.255   5.059   7.959 -1.0459 -0.2904 -0.2621
  569MOL0     H76809   5.223   5.246   8.205  0.7380 -3.2277  0.5081
  569MOL0     H76810   5.111   5.279   8.080  1.7683  3.5439 -1.1326
  569MOL0     H76811   5.282   5.297   7.913 -0.2383 -2.0864  0.6379
  569MOL0     H76812   5.406   5.271   8.029 -0.2178 -1.8346 -1.2463
  569MOL0     H76813   5.292   5.679   8.101 -0.5983  1.1266 -4.2970
  569MOL0     H76814   5.169   4.768   8.411  1.6731  0.9338 -1.2228
  569MOL0     H76815   4.945   4.676   8.452 -0.7143 -0.0086  0.8876
  570MOL0     O76816   1.807   6.509   8.285 -0.2856  0.1448  0.0476
  570MOL0     C76817   1.893   6.595   8.266  0.5692 -0.7683 -0.1715
  570MOL0     O76818   1.999   6.622   8.341 -0.2055  0.7567 -0.1669
  570MOL0     C76819   1.991   6.570   8.478  0.0670 -0.9528  0.4585
  570MOL0     C76820   2.048   6.444   8.508  0.0600  0.3061  0.9769
  570MOL0     C76821   2.046   6.388   8.637 -0.6531 -0.5544 -0.2167
  570MOL0     C76822   2.006   6.470   8.745 -0.4364 -2.0312 -0.7101
  570MOL0     O76823   2.029   6.409   8.863 -0.1812 -0.3735 -1.2700
  570MOL0     C76824   1.974   6.457   8.988 -0.2990 -0.6789  1.7399
  570MOL0     C76825   1.996   6.348   9.099 -0.5686  1.1946  0.3594
  570MOL0     C76826   1.909   6.221   9.074 -1.0212  0.5668  0.9422
  570MOL0     C76827   1.971   6.096   9.132  0.1959  0.7472  0.3373
  570MOL0     C76828   1.947   5.972   9.041  0.5104  0.2924 -0.6392
  570MOL0     C76829   1.800   5.948   8.995  0.0130  0.6661 -0.4844
  570MOL0     C76830   1.708   5.912   9.112 -0.5410  1.3327 -0.5409
  570MOL0     C76831   1.588   6.018   9.125 -0.7696 -0.0543 -0.1081
  570MOL0     N76832   1.510   5.993   9.005 -0.1985  0.0151  0.6323
  570MOL0     C76833   1.463   6.090   8.927 -0.0957  0.1959 -0.1779
  570MOL0     C76834   1.396   6.029   8.829 -0.2592 -0.4689  0.4151
  570MOL0     C76835   1.295   6.096   8.730 -0.7732  0.1933 -0.1154
  570MOL0     C76836   1.144   6.050   8.721 -0.1592 -0.1328  0.3698
  570MOL0     C76837   1.065   6.072   8.855 -0.2036 -0.8103  0.8589
  570MOL0     C76838   1.121   5.999   8.968 -0.4586  0.6653  0.4854
  570MOL0     O76839   1.014   5.984   9.066  0.4252 -1.3592 -0.2111
  570MOL0     C76840   1.058   5.943   9.188  0.2027  0.1220 -0.2654
  570MOL0     C76841   1.168   5.858   9.213 -0.4978 -0.6064 -0.5045
  570MOL0     C76842   1.195   5.807   9.343 -0.0647 -0.2371  0.3318
  570MOL0     C76843   1.307   5.708   9.343 -1.3965 -0.4254  0.2845
  570MOL0     C76844   1.113   5.843   9.452 -1.1433  0.1733 -0.1404
  570MOL0     C76845   1.122   5.776   9.584 -0.6506  0.9538 -0.1126
  570MOL0     O76846   1.055   5.837   9.682  0.3011 -0.1955 -0.5545
  570MOL0     C76847   1.085   5.828   9.814 -0.3241 -0.2524 -0.7040
  570MOL0     C76848   0.991   5.864   9.909  0.3426 -0.4669 -0.1688
  570MOL0     C76849   1.009   5.838  10.045  1.6435 -0.3155  0.9274
  570MOL0     C76850   1.129   5.788  10.099  0.1038 -0.2930 -0.0990
  570MOL0     O76851   1.129   5.759  10.230 -0.3820 -0.2948 -0.6099
  570MOL0     C76852   1.240   5.690  10.289  0.9990  0.1325  0.0051
  570MOL0     C76853   1.205   5.646  10.436 -1.3240 -0.0030 -0.8070
  570MOL0     C76854   1.086   5.544  10.447 -0.1190 -0.8496  0.5559
  570MOL0     C76855   1.090   5.469  10.583  1.2410 -0.1983 -0.0268
  570MOL0     C76856   1.156   5.337  10.575  0.1074  0.9800 -0.4224
  570MOL0     C76857   1.197   5.259  10.698 -0.7864  0.2531 -0.0273
  570MOL0     C76858   1.081   5.180  10.772  0.7110  1.2099 -0.0740
  570MOL0     C76859   1.137   5.096  10.897  0.0282  0.6105  1.0208
  570MOL0    Cl76860   1.250   5.199  10.987  0.4863 -0.4897 -0.1369
  570MOL0     C76861   1.229   5.755  10.011  0.5229 -1.1937  0.3972
  570MOL0     C76862   1.208   5.769   9.868  1.0534  0.2070  0.1351
  570MOL0     O76863   1.190   5.670   9.595 -0.1291  0.1827 -0.9803
  570MOL0     C76864   1.008   5.932   9.422 -0.1770 -0.1095 -0.5822
  570MOL0     C76865   0.983   5.986   9.289  0.2765  0.7229 -0.7881
  570MOL0     N76866   1.407   5.891   8.847 -0.8166  0.9132 -1.0052
  570MOL0     N76867   1.468   5.872   8.957  0.7126 -0.2553 -0.0759
  570MOL0     C76868   1.939   6.595   8.714 -0.1582 -0.1496 -0.7791
  570MOL0     C76869   1.927   6.641   8.578  0.6299  0.2516 -0.1811
  570MOL0     C76870   1.885   6.678   8.135  1.1167 -0.1264 -0.0373
  570MOL0     C76871   1.800   6.663   8.029  0.5785 -0.6333  0.6435
  570MOL0     C76872   1.794   6.746   7.924 -0.0219  0.3610  0.3324
  570MOL0     C76873   1.883   6.849   7.923 -0.1328 -0.0390 -0.0153
  570MOL0     O76874   1.869   6.924   7.812 -0.4750  0.9411 -0.0042
  570MOL0     C76875   1.959   6.910   7.710  0.0991 -0.0483  0.6346
  570MOL0     C76876   1.958   7.026   7.610  1.0648  0.0562 -0.5280
  570MOL0     C76877   2.032   7.145   7.658 -0.1074 -0.0143 -0.1009
  570MOL0     C76878   2.019   7.277   7.574  0.1097 -0.6824 -0.1614
  570MOL0     C76879   2.106   7.263   7.453 -0.3019 -0.1855  0.1280
  570MOL0     C76880   2.167   7.250   7.344 -0.3961 -0.2407 -0.0477
  570MOL0     C76881   1.989   6.870   8.018  0.3332  0.0168 -0.5325
  570MOL0     C76882   1.979   6.789   8.132 -0.2103  0.0108  0.1621
  570MOL0     H76883   2.076   6.376   8.428 -0.3210  0.2035  0.9293
  570MOL0     H76884   2.086   6.289   8.657  0.5419  0.0613  0.5514
  570MOL0     H76885   2.034   6.549   8.994  1.0947 -1.1219 -2.2442
  570MOL0     H76886   1.869   6.486   8.975  0.4828  1.1758 -2.2311
  570MOL0     H76887   2.100   6.312   9.097 -0.8619  0.3304 -0.4750
  570MOL0     H76888   1.966   6.400   9.190  1.8778  2.4703  0.5179
  570MOL0     H76889   1.804   6.229   9.104 -2.3275  1.3721 -3.2358
  570MOL0     H76890   1.902   6.207   8.966  2.0290 -1.6674  0.8818
  570MOL0     H76891   2.080   6.107   9.135  0.1309  1.2764  0.8129
  570MOL0     H76892   1.937   6.090   9.236  4.3533 -0.3646  1.8399
  570MOL0     H76893   2.006   5.978   8.949 -0.5016 -1.5160 -1.4711
  570MOL0     H76894   1.976   5.890   9.107 -1.0828  0.8496  0.8366
  570MOL0     H76895   1.764   6.041   8.949 -1.3039 -0.1397 -1.1586
  570MOL0     H76896   1.803   5.878   8.911  2.7722  1.8996 -1.5490
  570MOL0     H76897   1.668   5.811   9.099 -1.6838  1.7648 -0.4855
  570MOL0     H76898   1.761   5.910   9.208  1.5016  0.2001 -1.6164
  570MOL0     H76899   1.630   6.118   9.144  0.8251 -1.1285  2.5182
  570MOL0     H76900   1.524   6.005   9.213 -0.6671  0.6836  0.0801
  570MOL0     H76901   1.468   6.195   8.953  0.6129  0.8407 -2.6079
  570MOL0     H76902   1.286   6.196   8.774 -2.6079  0.3997 -0.8638
  570MOL0     H76903   1.339   6.105   8.631  0.4512 -0.7490  0.3173
  570MOL0     H76904   1.133   5.943   8.699 -3.3098 -0.4242  2.7890
  570MOL0     H76905   1.092   6.112   8.648 -0.1619 -0.0020  0.4856
  570MOL0     H76906   0.962   6.040   8.832  0.1282 -0.3793 -1.5266
  570MOL0     H76907   1.074   6.175   8.890  1.2624 -0.8725  0.7130
  570MOL0     H76908   1.212   6.036   9.015  0.4847 -1.9810  0.8865
  570MOL0     H76909   1.155   5.901   8.932 -0.3382  1.5042 -1.8362
  570MOL0     H76910   1.231   5.827   9.130  1.1080  0.7150  0.1638
  570MOL0     H76911   1.269   5.606   9.351 -0.6824 -0.5945  1.7967
  570MOL0     H76912   1.372   5.713   9.255 -3.5539 -0.6407 -1.4242
  570MOL0     H76913   1.370   5.734   9.428 -1.4896 -2.2215  0.9460
  570MOL0     H76914   0.893   5.902   9.880 -0.3766  2.1945  4.6120
  570MOL0     H76915   0.924   5.860  10.107  0.7120 -1.8916  0.2746
  570MOL0     H76916   1.271   5.602  10.231  2.9412 -0.4534  1.7865
  570MOL0     H76917   1.324   5.760  10.292  2.9986 -2.1152  1.4081
  570MOL0     H76918   1.296   5.599  10.476 -0.5250  2.0070 -0.0897
  570MOL0     H76919   1.203   5.739  10.494 -0.8129  0.8045 -2.0413
  570MOL0     H76920   1.092   5.469  10.367 -0.8680  3.2497 -3.8363
  570MOL0     H76921   0.993   5.603  10.443 -0.7140 -1.4537  3.5294
  570MOL0     H76922   1.138   5.535  10.657  2.1669  1.2069 -1.7744
  570MOL0     H76923   0.986   5.462  10.615  0.0645  1.6202 -3.0084
  570MOL0     H76924   1.240   5.338  10.505  0.2145 -0.8698 -0.3840
  570MOL0     H76925   1.098   5.260  10.522 -0.1943  0.0931  1.1379
  570MOL0     H76926   1.284   5.196  10.677  0.9234  2.1604  0.9339
  570MOL0     H76927   1.239   5.328  10.771 -1.4036  0.4826  0.1118
  570MOL0     H76928   1.035   5.127  10.689  2.1908  1.3526 -1.0387
  570MOL0     H76929   1.012   5.255  10.812  1.5332  0.7938  2.2969
  570MOL0     H76930   1.179   5.000  10.865 -1.8083 -0.6879  2.2453
  570MOL0     H76931   1.055   5.053  10.956 -0.6171 -1.5858 -1.2755
  570MOL0     H76932   1.326   5.724  10.048  1.3478 -1.1196 -1.6002
  570MOL0     H76933   1.284   5.748   9.794 -0.6091 -0.6504 -1.4191
  570MOL0     H76934   0.937   5.961   9.499 -1.0858  0.6997 -1.6826
  570MOL0     H76935   0.893   6.042   9.270 -2.5205 -3.3724 -0.9922
  570MOL0     H76936   1.888   6.652   8.791  0.9102  2.8008 -2.1296
  570MOL0     H76937   1.879   6.734   8.550  0.8733  0.3505 -0.2683
  570MOL0     H76938   1.723   6.586   8.034 -1.3997  1.0539 -1.5212
  570MOL0     H76939   1.715   6.751   7.850  0.4449  0.3655 -0.1779
  570MOL0     H76940   2.065   6.903   7.735  0.7134 -1.3983 -1.9725
  570MOL0     H76941   1.938   6.817   7.656  1.6012  0.4330 -0.8651
  570MOL0     H76942   1.850   7.043   7.596  1.1294  0.0627 -1.0403
  570MOL0     H76943   1.995   6.989   7.514 -2.3759 -2.5961 -1.0618
  570MOL0     H76944   2.137   7.115   7.649  0.3441  1.0051  1.3779
  570MOL0     H76945   2.014   7.177   7.761  0.2179  2.6050 -0.7661
  570MOL0     H76946   2.048   7.367   7.630 -0.6709 -0.8281  0.4980
  570MOL0     H76947   1.914   7.297   7.552 -0.1548 -1.7602  0.0830
  570MOL0     H76948   2.203   7.228   7.245  4.7618  0.0445  1.4941
  570MOL0     H76949   2.041   6.965   8.015 -2.2280  1.5366 -3.2690
  570MOL0     H76950   2.039   6.804   8.221 -1.5188 -1.5847  1.3592
  571MOL0     O76951  11.453   2.305   9.710 -0.5038 -0.1038  0.3544
  571MOL0     C76952  11.429   2.245   9.600  0.7717  0.8833 -0.2104
  571MOL0     O76953  11.313   2.255   9.525  0.6116 -0.3269  0.4692
  571MOL0     C76954  11.209   2.323   9.574  1.2019 -0.3957 -0.3387
  571MOL0     C76955  11.165   2.309   9.708  0.1721 -0.6616 -0.4694
  571MOL0     C76956  11.069   2.393   9.763  0.0831  0.6031 -0.6648
  571MOL0     C76957  11.003   2.480   9.677 -0.2499  0.1337 -0.7832
  571MOL0     O76958  10.917   2.571   9.724  1.0021  0.9222 -0.1020
  571MOL0     C76959  10.906   2.704   9.664  0.2775  0.0307 -0.7311
  571MOL0     C76960  10.865   2.809   9.764 -0.1095 -1.2252 -0.1199
  571MOL0     C76961  10.974   2.856   9.862  0.3993 -0.1667 -0.9997
  571MOL0     C76962  10.977   2.773   9.992 -0.1847  0.7575  0.6683
  571MOL0     C76963  11.117   2.744  10.054 -0.0456 -0.3093  0.5537
  571MOL0     C76964  11.172   2.870  10.121  0.2160  0.2692  0.0913
  571MOL0     C76965  11.324   2.864  10.173  0.8731 -0.0204  0.5610
  571MOL0     C76966  11.340   2.748  10.269  0.2334  0.2051  0.8790
  571MOL0     N76967  11.487   2.740  10.302 -0.0281 -0.4489 -0.0067
  571MOL0     C76968  11.588   2.734  10.208 -0.3279  0.1214  0.6074
  571MOL0     C76969  11.698   2.767  10.277  0.7931 -0.6932  0.6557
  571MOL0     C76970  11.846   2.769  10.226 -0.1734  0.4330 -1.0033
  571MOL0     C76971  11.867   2.805  10.081 -0.1592  0.6780  0.4041
  571MOL0     C76972  11.843   2.947  10.035 -0.4133 -0.0114 -0.1267
  571MOL0     C76973  11.927   3.052  10.110 -0.0871 -0.3813  0.9289
  571MOL0     O76974  12.062   3.026  10.079  0.3560 -0.3333  0.1133
  571MOL0     C76975  12.117   3.083   9.967 -0.0391  0.8897 -0.5862
  571MOL0     C76976  12.054   3.148   9.858  0.1528  0.6316  0.7670
  571MOL0     C76977  12.129   3.226   9.763 -0.2846  0.2395 -0.0528
  571MOL0     C76978  12.050   3.299   9.658 -1.1348 -0.2984 -0.0869
  571MOL0     C76979  12.274   3.211   9.767  0.0232  0.1608 -0.1534
  571MOL0     C76980  12.362   3.293   9.679  0.3122  0.0348  0.5668
  571MOL0     O76981  12.320   3.332   9.556 -0.0228  0.3456  0.0314
  571MOL0     C76982  12.393   3.399   9.467  0.1589 -0.1145 -0.6121
  571MOL0     C76983  12.531   3.376   9.441 -1.0765  0.5138 -0.0948
  571MOL0     C76984  12.591   3.447   9.336 -0.3630 -0.4521  0.1182
  571MOL0     C76985  12.529   3.545   9.268  0.3730  0.3849  0.2973
  571MOL0     O76986  12.593   3.599   9.155  0.0067  0.6928 -0.6999
  571MOL0     C76987  12.571   3.735   9.119 -0.1097  0.0768  0.3932
  571MOL0     C76988  12.674   3.784   9.017 -1.0239  0.0777 -0.3984
  571MOL0     C76989  12.608   3.737   8.889 -0.3108  0.9122  0.0197
  571MOL0     C76990  12.711   3.777   8.774  0.5235  0.1373  0.2147
  571MOL0     C76991  12.661   3.769   8.633  1.8257  0.1414 -0.5410
  571MOL0     C76992  12.511   3.824   8.593 -0.8118 -0.1986 -0.8537
  571MOL0     C76993  12.500   3.782   8.441  0.2168 -0.4014  0.0082
  571MOL0     C76994  12.385   3.844   8.367  0.9167 -0.7113  0.6182
  571MOL0    Cl76995  12.233   3.755   8.380  0.1057 -0.0501 -0.2269
  571MOL0     C76996  12.393   3.560   9.294 -0.2639  0.5250  0.1875
  571MOL0     C76997  12.323   3.491   9.393  0.6404 -0.4773  0.7123
  571MOL0     O76998  12.479   3.307   9.717 -0.2434 -0.5247  0.2930
  571MOL0     C76999  12.339   3.140   9.870  0.6309  0.2022 -0.2514
  571MOL0     C77000  12.258   3.077   9.963 -1.1971 -0.0829  0.1149
  571MOL0     N77001  11.659   2.813  10.403  0.0792  0.3758  0.0081
  571MOL0     N77002  11.536   2.788  10.416 -0.2213  0.6980  0.0365
  571MOL0     C77003  11.036   2.483   9.541 -0.9351 -0.5620 -0.1452
  571MOL0     C77004  11.141   2.412   9.489  0.0241  0.1329 -1.4185
  571MOL0     C77005  11.522   2.151   9.540  0.3970  0.6900 -0.5525
  571MOL0     C77006  11.491   2.058   9.440 -0.7742  0.9833  0.3325
  571MOL0     C77007  11.581   1.968   9.387 -0.3936  0.2992 -0.5896
  571MOL0     C77008  11.711   1.969   9.429 -0.0043  0.5693 -0.5158
  571MOL0     O77009  11.818   1.901   9.376 -0.5149  0.1489 -0.0674
  571MOL0     C77010  11.807   1.856   9.240 -0.2959 -0.2051 -0.3516
  571MOL0     C77011  11.945   1.798   9.200 -0.9923 -0.1523 -0.3953
  571MOL0     C77012  11.918   1.727   9.067  0.2021  0.5556  0.6684
  571MOL0     C77013  12.045   1.656   9.011 -0.1191 -0.2291  0.2643
  571MOL0     C77014  12.110   1.555   9.086  0.4449  0.0458 -0.8615
  571MOL0     C77015  12.177   1.456   9.124  0.2635 -0.1802  0.2754
  571MOL0     C77016  11.745   2.048   9.541  0.3064 -0.7984  0.4463
  571MOL0     C77017  11.650   2.140   9.589 -1.3224 -0.2474 -0.4843
  571MOL0     H77018  11.213   2.238   9.775  0.9176 -0.0156 -0.2973
  571MOL0     H77019  11.051   2.401   9.870 -0.9730 -2.4506 -0.5079
  571MOL0     H77020  10.996   2.733   9.610 -0.2468  0.4448 -1.3897
  571MOL0     H77021  10.823   2.706   9.593 -0.9950 -2.0147  0.5613
  571MOL0     H77022  10.832   2.895   9.706 -0.3554  0.5220  2.4487
  571MOL0     H77023  10.783   2.768   9.823 -2.9417  0.0332 -2.8980
  571MOL0     H77024  11.071   2.849   9.813  1.1154  1.3011  0.1260
  571MOL0     H77025  10.952   2.961   9.883  1.5294 -0.2262  0.6914
  571MOL0     H77026  10.927   2.826  10.074 -0.4836 -1.1925  1.8291
  571MOL0     H77027  10.913   2.685   9.981 -1.2175  1.4484  0.9904
  571MOL0     H77028  11.093   2.659  10.119 -0.8377  1.0734  2.1430
  571MOL0     H77029  11.178   2.709   9.969 -1.3446  0.9499 -0.9553
  571MOL0     H77030  11.171   2.952  10.049  1.2038  0.8391  0.7048
  571MOL0     H77031  11.107   2.900  10.203  1.4085  0.9716  0.8139
  571MOL0     H77032  11.385   2.839  10.086 -1.4785  1.0311 -1.5053
  571MOL0     H77033  11.359   2.955  10.223  1.2360  1.9775 -3.0046
  571MOL0     H77034  11.301   2.656  10.223  1.1044  1.5517 -3.0115
  571MOL0     H77035  11.282   2.763  10.360 -1.7435  2.3241 -0.6178
  571MOL0     H77036  11.579   2.693  10.108  1.5299 -1.1555  0.9036
  571MOL0     H77037  11.909   2.828  10.292 -1.7082  0.0839  0.8892
  571MOL0     H77038  11.873   2.663  10.225 -2.2420 -0.2925  2.1083
  571MOL0     H77039  11.812   2.728  10.025 -0.3692 -0.3141  1.9143
  571MOL0     H77040  11.966   2.774  10.045 -1.5115 -1.5480 -1.7286
  571MOL0     H77041  11.735   2.964  10.048 -1.8562 -6.0630 -1.1636
  571MOL0     H77042  11.861   2.937   9.928 -3.8018  2.3276 -1.0563
  571MOL0     H77043  11.911   3.062  10.218  1.8616  1.0837  1.1580
  571MOL0     H77044  11.912   3.153  10.072 -3.6956 -0.7820  0.9437
  571MOL0     H77045  11.945   3.149   9.867  0.0566  1.9775 -0.3355
  571MOL0     H77046  12.104   3.379   9.606  0.1496 -2.1356 -1.7003
  571MOL0     H77047  12.042   3.232   9.572  1.8141 -1.2579  0.2885
  571MOL0     H77048  11.952   3.339   9.687 -1.4296  1.4872 -3.0933
  571MOL0     H77049  12.585   3.289   9.477  2.4218  3.0204  1.3757
  571MOL0     H77050  12.690   3.408   9.314 -0.9822 -3.3168  1.8353
  571MOL0     H77051  12.468   3.737   9.082 -0.5059 -2.9957  1.0857
  571MOL0     H77052  12.570   3.796   9.210 -1.4328  0.7242 -0.0413
  571MOL0     H77053  12.689   3.891   9.027 -0.7004 -0.1089  1.4540
  571MOL0     H77054  12.769   3.733   9.038 -0.0304  0.3791 -3.6329
  571MOL0     H77055  12.510   3.780   8.867  0.1472  1.9001 -0.1528
  571MOL0     H77056  12.601   3.628   8.895  0.3075  0.9541  2.6681
  571MOL0     H77057  12.709   3.885   8.792 -4.1175  0.5625 -1.6830
  571MOL0     H77058  12.808   3.726   8.782  1.3935  1.3294 -1.8135
  571MOL0     H77059  12.674   3.666   8.599 -2.3386 -1.1025  1.0474
  571MOL0     H77060  12.719   3.839   8.571  2.5900 -0.6873 -0.7910
  571MOL0     H77061  12.432   3.779   8.654 -0.9651  4.6991  3.1882
  571MOL0     H77062  12.521   3.931   8.613  0.3035 -0.1009 -1.8347
  571MOL0     H77063  12.497   3.674   8.422  1.9773 -0.1643 -2.0138
  571MOL0     H77064  12.588   3.810   8.383  0.0375 -0.4845 -0.3067
  571MOL0     H77065  12.407   3.844   8.259 -0.0415 -0.7011  0.4127
  571MOL0     H77066  12.364   3.945   8.403  2.4691 -0.0297 -0.2841
  571MOL0     H77067  12.332   3.620   9.227 -0.6285 -1.7761 -1.6795
  571MOL0     H77068  12.217   3.511   9.395  0.8760  0.9764  0.4800
  571MOL0     H77069  12.446   3.133   9.882  1.0120  0.5009 -2.9671
  571MOL0     H77070  12.315   3.019  10.036 -0.3042 -2.7236 -2.4930
  571MOL0     H77071  10.983   2.539   9.465  1.1674  0.8027 -0.6926
  571MOL0     H77072  11.183   2.420   9.390  2.2268  2.9310 -0.3950
  571MOL0     H77073  11.392   2.034   9.402  0.1478 -3.5224  0.1942
  571MOL0     H77074  11.557   1.886   9.320  2.8859  0.6430 -2.3664
  571MOL0     H77075  11.733   1.777   9.228  2.3417 -3.0511  0.9446
  571MOL0     H77076  11.782   1.947   9.183  2.0725  1.0677  0.4994
  571MOL0     H77077  11.989   1.726   9.270  0.0539 -0.9309 -1.8054
  571MOL0     H77078  12.014   1.880   9.182 -1.8292  0.7369  0.3228
  571MOL0     H77079  11.885   1.808   9.001  2.1922  1.6442  0.9303
  571MOL0     H77080  11.845   1.646   9.066  0.1336  0.5486 -2.2325
  571MOL0     H77081  12.123   1.729   8.987  0.2101 -1.2422 -2.0259
  571MOL0     H77082  12.017   1.622   8.911  2.2844 -0.4586 -0.3740
  571MOL0     H77083  12.233   1.372   9.159  0.5184 -0.7715 -1.4755
  571MOL0     H77084  11.848   2.063   9.572  0.6262  1.6757 -1.5939
  571MOL0     H77085  11.686   2.199   9.672 -1.2153  1.0337 -1.4154
  572MOL0     O77086   5.669   0.638   3.411 -0.5275  0.1373  0.0563
  572MOL0     C77087   5.690   0.665   3.296 -0.3311 -0.6991 -0.1090
  572MOL0     O77088   5.607   0.736   3.208  0.3332  0.2500  1.1092
  572MOL0     C77089   5.486   0.772   3.258  0.5145 -0.0413  0.1370
  572MOL0     C77090   5.448   0.907   3.254  0.0013 -0.1844 -0.2926
  572MOL0     C77091   5.330   0.954   3.313  0.3782 -0.1505 -0.9337
  572MOL0     C77092   5.244   0.862   3.374  0.5615 -0.6637 -0.5772
  572MOL0     O77093   5.133   0.906   3.441  0.3851  0.2418  0.3735
  572MOL0     C77094   5.064   1.019   3.398 -0.2535 -0.3686 -0.4459
  572MOL0     C77095   4.953   1.042   3.496  0.1955 -0.6012 -1.5801
  572MOL0     C77096   4.887   1.176   3.487  0.3787  0.1346 -0.5436
  572MOL0     C77097   4.972   1.277   3.560  0.0194 -0.8154 -0.0755
  572MOL0     C77098   4.908   1.415   3.566  0.2099  0.6457 -0.5115
  572MOL0     C77099   4.874   1.471   3.427 -0.0350 -0.6861  0.7564
  572MOL0     C77100   4.790   1.600   3.430 -0.3665 -0.1646 -0.1980
  572MOL0     C77101   4.746   1.668   3.297 -0.5187 -0.2718  0.0740
  572MOL0     N77102   4.864   1.685   3.204  0.8411  0.2377 -0.3053
  572MOL0     C77103   4.961   1.772   3.216 -1.0636 -0.0049  0.2928
  572MOL0     C77104   5.038   1.754   3.100 -0.0031 -0.4301 -0.9532
  572MOL0     C77105   5.169   1.814   3.065  0.7198 -0.4438  0.1874
  572MOL0     C77106   5.166   1.814   2.914  0.1498 -0.3803  0.6013
  572MOL0     C77107   5.303   1.872   2.859 -0.1913 -0.0036  0.3514
  572MOL0     C77108   5.384   1.749   2.801 -0.1036  0.4343 -0.6051
  572MOL0     O77109   5.518   1.791   2.779 -0.1823 -0.7991  0.0863
  572MOL0     C77110   5.639   1.754   2.855  0.9686  0.2012  0.1428
  572MOL0     C77111   5.637   1.694   2.981  0.9151  0.0899 -0.4344
  572MOL0     C77112   5.751   1.659   3.044  0.6071  1.5889  1.0243
  572MOL0     C77113   5.734   1.608   3.194  0.0785  0.1765  0.7148
  572MOL0     C77114   5.881   1.668   2.975 -0.1210 -0.6298  0.4473
  572MOL0     C77115   6.012   1.639   3.041  0.2416 -0.1138  0.4216
  572MOL0     O77116   6.123   1.720   3.007 -0.1374  0.0799  0.1296
  572MOL0     C77117   6.249   1.708   3.049 -0.2038 -0.5842  1.0284
  572MOL0     C77118   6.322   1.592   3.032  0.4556 -0.5854  0.2784
  572MOL0     C77119   6.451   1.594   3.075  0.2429  0.2751  0.3674
  572MOL0     C77120   6.521   1.703   3.124 -0.0568 -0.2561  0.3001
  572MOL0     O77121   6.653   1.686   3.161  0.1837  0.4076  1.1570
  572MOL0     C77122   6.667   1.653   3.298 -0.7343  0.1087 -0.7543
  572MOL0     C77123   6.812   1.676   3.362  0.8739 -0.1806  0.2902
  572MOL0     C77124   6.917   1.575   3.352  0.3534  1.1756  0.5486
  572MOL0     C77125   7.038   1.605   3.455  0.7287 -0.6736 -0.6598
  572MOL0     C77126   7.152   1.508   3.478 -0.6016 -0.6119  0.1869
  572MOL0     C77127   7.102   1.364   3.487  1.0865  0.4187 -0.1433
  572MOL0     C77128   7.218   1.269   3.451 -0.0471 -0.2234  0.6161
  572MOL0     C77129   7.160   1.144   3.390 -0.0647  0.2013  0.2121
  572MOL0    Cl77130   7.058   1.058   3.505  0.1236  0.6685 -0.7922
  572MOL0     C77131   6.446   1.823   3.142  0.6326  1.1284 -0.8150
  572MOL0     C77132   6.310   1.818   3.108  0.2872 -0.6873 -1.1207
  572MOL0     O77133   6.014   1.526   3.090 -0.6503 -1.0511  0.0431
  572MOL0     C77134   5.891   1.720   2.848  0.4564  0.0967  0.1952
  572MOL0     C77135   5.767   1.758   2.792  0.1845 -0.0361 -0.6698
  572MOL0     N77136   4.988   1.640   3.039 -0.2430 -0.4628 -0.3508
  572MOL0     N77137   4.878   1.607   3.095  0.0180  0.2517 -0.7078
  572MOL0     C77138   5.281   0.728   3.377  0.3004  0.0845 -1.1805
  572MOL0     C77139   5.394   0.681   3.315 -0.2766 -0.0211  0.2606
  572MOL0     C77140   5.822   0.623   3.242  0.1618  0.0312 -0.4952
  572MOL0     C77141   5.900   0.525   3.302  0.4924  0.6384  0.5249
  572MOL0     C77142   6.018   0.496   3.238 -0.2954  0.4635 -1.1566
  572MOL0     C77143   6.070   0.565   3.136 -0.4999 -0.7304 -0.6826
  572MOL0     O77144   6.189   0.526   3.091  0.2529 -0.6872 -0.0646
  572MOL0     C77145   6.279   0.607   3.011  0.8881 -0.7400  0.4092
  572MOL0     C77146   6.408   0.653   3.081 -1.1188 -0.4058  0.4926
  572MOL0     C77147   6.373   0.767   3.180 -0.1500  0.3091 -0.0015
  572MOL0     C77148   6.470   0.755   3.302 -0.0550 -0.1405  0.6461
  572MOL0     C77149   6.446   0.868   3.392  0.1976  0.3204 -0.9176
  572MOL0     C77150   6.459   0.961   3.469  0.5371  0.6028  0.9379
  572MOL0     C77151   5.992   0.664   3.075  0.3328  0.6411 -0.5034
  572MOL0     C77152   5.867   0.687   3.133 -1.3079  0.1140  0.1307
  572MOL0     H77153   5.517   0.980   3.215 -0.8085  2.3222  2.5385
  572MOL0     H77154   5.322   1.063   3.311  1.8225  0.0924  1.6866
  572MOL0     H77155   5.120   1.113   3.394 -1.5743  0.5257  1.0113
  572MOL0     H77156   5.036   0.999   3.294 -0.1719 -2.9700 -0.0345
  572MOL0     H77157   4.871   0.974   3.471 -0.3516 -0.7616  0.5267
  572MOL0     H77158   4.988   1.007   3.593 -2.8041  1.8187  0.5914
  572MOL0     H77159   4.892   1.205   3.382 -2.5080  3.1797 -0.0172
  572MOL0     H77160   4.785   1.193   3.522 -0.2117  1.5818 -2.8230
  572MOL0     H77161   4.974   1.245   3.665 -2.7464 -0.5174  0.1439
  572MOL0     H77162   5.075   1.278   3.523  0.4469 -3.1103  0.8402
  572MOL0     H77163   4.820   1.410   3.631  0.5239 -1.5453 -0.1545
  572MOL0     H77164   4.985   1.478   3.613 -0.7662  0.9617  0.7007
  572MOL0     H77165   4.964   1.498   3.370 -0.7238 -0.0989 -0.0823
  572MOL0     H77166   4.812   1.397   3.375 -3.5526  1.5802  1.4543
  572MOL0     H77167   4.690   1.574   3.467 -0.2544 -0.0402  0.2003
  572MOL0     H77168   4.841   1.675   3.491  0.1955 -1.8672  1.5203
  572MOL0     H77169   4.714   1.769   3.324  1.2625  0.3899 -0.1539
  572MOL0     H77170   4.658   1.617   3.258  0.2087 -1.6322  0.1447
  572MOL0     H77171   4.968   1.842   3.298  0.5385 -3.3623  3.3142
  572MOL0     H77172   5.184   1.909   3.118 -1.5590 -0.4819  1.0493
  572MOL0     H77173   5.244   1.742   3.098 -0.9722 -2.4665 -0.1862
  572MOL0     H77174   5.095   1.889   2.879  3.3616  1.4849 -2.5943
  572MOL0     H77175   5.145   1.720   2.862  0.0299 -0.3490  0.5924
  572MOL0     H77176   5.359   1.938   2.926 -1.0928  1.1185  0.0276
  572MOL0     H77177   5.290   1.924   2.763  1.9905 -3.0850 -1.8069
  572MOL0     H77178   5.346   1.734   2.699  0.4348  2.0048 -1.0669
  572MOL0     H77179   5.378   1.657   2.861  0.9950  1.3900  1.0223
  572MOL0     H77180   5.545   1.705   3.038 -0.3577  0.8900 -2.5158
  572MOL0     H77181   5.766   1.503   3.202  0.8601  0.4256  1.0027
  572MOL0     H77182   5.809   1.666   3.249  1.2654 -2.1153  1.6672
  572MOL0     H77183   5.626   1.600   3.209 -0.5246 -2.3112 -3.3731
  572MOL0     H77184   6.267   1.514   2.979  0.2675  0.7283 -1.5808
  572MOL0     H77185   6.495   1.494   3.080 -1.9950 -0.7535  0.5579
  572MOL0     H77186   6.588   1.702   3.356  0.7202 -0.1016  1.5362
  572MOL0     H77187   6.652   1.549   3.327 -1.7138  1.0362  2.5686
  572MOL0     H77188   6.842   1.770   3.314 -0.9772  1.6032  2.3900
  572MOL0     H77189   6.796   1.698   3.468 -2.3664  5.2462 -0.9543
  572MOL0     H77190   6.960   1.555   3.254 -0.0865 -0.2673  0.6241
  572MOL0     H77191   6.865   1.483   3.379 -1.2985  0.6216 -3.8218
  572MOL0     H77192   7.084   1.697   3.418  1.5932  0.3881  2.7022
  572MOL0     H77193   6.988   1.609   3.552 -3.5125 -0.9772 -2.6078
  572MOL0     H77194   7.203   1.538   3.569 -1.3453  0.8214  0.1569
  572MOL0     H77195   7.220   1.509   3.391  0.6719  0.3108  1.1512
  572MOL0     H77196   7.056   1.345   3.584  3.2230 -1.1531  0.6486
  572MOL0     H77197   7.028   1.361   3.406  2.2751  2.0979 -1.3603
  572MOL0     H77198   7.269   1.231   3.540 -1.4396  0.4456  1.7326
  572MOL0     H77199   7.292   1.316   3.386 -0.1361  4.3054  3.4111
  572MOL0     H77200   7.232   1.070   3.355 -0.7222 -1.1059  1.5097
  572MOL0     H77201   7.092   1.163   3.307 -0.4311  1.2330  0.7345
  572MOL0     H77202   6.494   1.908   3.189  1.5785 -0.2114  0.7639
  572MOL0     H77203   6.263   1.914   3.130  1.2440 -0.2502 -0.9194
  572MOL0     H77204   5.983   1.732   2.792  0.1887 -0.3249 -0.3431
  572MOL0     H77205   5.773   1.800   2.692  2.1960  3.7513  0.8186
  572MOL0     H77206   5.214   0.660   3.428 -2.0053  2.7636 -0.3895
  572MOL0     H77207   5.419   0.576   3.326  3.3399  0.7185  0.2292
  572MOL0     H77208   5.872   0.473   3.393 -0.4245  1.2335  0.5872
  572MOL0     H77209   6.075   0.417   3.286 -1.0539  0.0977 -0.8372
  572MOL0     H77210   6.309   0.539   2.930 -0.6056 -0.8644 -0.0737
  572MOL0     H77211   6.241   0.692   2.953  2.3910 -1.4026 -1.6564
  572MOL0     H77212   6.473   0.696   3.004  0.2956 -1.6264  0.9731
  572MOL0     H77213   6.462   0.571   3.127  0.9182 -1.4590 -3.3351
  572MOL0     H77214   6.272   0.762   3.221 -0.1001  0.2651  0.1152
  572MOL0     H77215   6.401   0.863   3.135 -0.0263  1.5011  2.4216
  572MOL0     H77216   6.572   0.756   3.261  0.7242  0.9964  2.4558
  572MOL0     H77217   6.453   0.667   3.365  1.4306 -0.2817  0.8836
  572MOL0     H77218   6.460   1.050   3.528 -0.9184  2.1432 -1.2046
  572MOL0     H77219   6.037   0.728   2.999  1.7719  1.1678  0.7330
  572MOL0     H77220   5.800   0.763   3.093 -3.0252 -1.2024  0.3919
  573MOL0     O77221   6.447   1.952   5.504 -0.0746 -0.5378  0.1751
  573MOL0     C77222   6.379   1.852   5.494 -0.5221  0.5817 -0.2002
  573MOL0     O77223   6.386   1.768   5.382 -0.1180 -0.1533 -0.5723
  573MOL0     C77224   6.492   1.802   5.299 -0.1994  0.8256 -0.2690
  573MOL0     C77225   6.617   1.755   5.324 -0.3911 -0.5993 -0.4645
  573MOL0     C77226   6.722   1.784   5.229  0.3573  0.8169  0.3872
  573MOL0     C77227   6.697   1.861   5.109  1.0984  0.0451 -0.6235
  573MOL0     O77228   6.805   1.883   5.023  0.0741  0.7730  0.2168
  573MOL0     C77229   6.778   1.956   4.904 -0.0600 -0.3063  0.5218
  573MOL0     C77230   6.907   1.949   4.807 -0.4446 -0.2522  0.2239
  573MOL0     C77231   6.890   2.016   4.666 -0.0807 -0.1608  0.3465
  573MOL0     C77232   6.819   2.161   4.668  0.2023 -0.6187  0.4735
  573MOL0     C77233   6.789   2.187   4.521 -0.0610 -0.0552  0.5613
  573MOL0     C77234   6.806   2.335   4.508  0.1711 -0.0811 -0.3251
  573MOL0     C77235   6.753   2.386   4.383  0.4098 -0.4167 -0.7547
  573MOL0     C77236   6.816   2.525   4.353  0.0310 -0.6402 -1.0170
  573MOL0     N77237   6.725   2.633   4.417 -0.3898 -0.2153 -0.7236
  573MOL0     C77238   6.654   2.726   4.341 -0.2816  0.5272  0.6957
  573MOL0     C77239   6.622   2.818   4.441  0.9374 -0.4547  0.0868
  573MOL0     C77240   6.545   2.931   4.392 -0.0063 -0.5184  0.3379
  573MOL0     C77241   6.527   3.067   4.461  0.4504 -0.7722  0.3419
  573MOL0     C77242   6.485   3.064   4.607  0.1450 -0.1378 -0.4436
  573MOL0     C77243   6.361   3.000   4.645 -0.0451  1.4619  0.1793
  573MOL0     O77244   6.263   3.085   4.597  0.7764 -0.7889  0.0347
  573MOL0     C77245   6.161   3.121   4.694 -0.2520  0.3488  1.7841
  573MOL0     C77246   6.112   3.250   4.676 -0.3619 -0.1936  0.4846
  573MOL0     C77247   6.024   3.305   4.761  0.0164  0.3545 -0.1174
  573MOL0     C77248   6.020   3.456   4.744 -0.3739 -0.1852 -0.0322
  573MOL0     C77249   5.963   3.221   4.858  0.7955  0.4441 -0.2873
  573MOL0     C77250   5.843   3.270   4.928 -0.2129  0.6947 -0.3966
  573MOL0     O77251   5.822   3.212   5.062 -0.0519 -0.3060  0.6423
  573MOL0     C77252   5.729   3.269   5.148 -0.4684  0.0234  0.7839
  573MOL0     C77253   5.603   3.212   5.147  0.0657  0.0397  0.5412
  573MOL0     C77254   5.510   3.261   5.231 -0.7992 -0.0842 -0.7321
  573MOL0     C77255   5.537   3.354   5.332 -0.1317  0.6879  1.1801
  573MOL0     O77256   5.434   3.420   5.407 -0.3839  0.3681  0.9396
  573MOL0     C77257   5.432   3.388   5.545 -0.2778  0.2127 -0.6662
  573MOL0     C77258   5.297   3.411   5.607 -0.2806 -0.0034 -0.6086
  573MOL0     C77259   5.174   3.391   5.516 -0.4336  0.6265 -1.0773
  573MOL0     C77260   5.159   3.235   5.479 -1.0497  0.0790 -0.5933
  573MOL0     C77261   5.052   3.213   5.373 -0.5229 -0.6386 -0.4659
  573MOL0     C77262   4.903   3.203   5.413  0.3018 -0.1829 -0.3094
  573MOL0     C77263   4.860   3.170   5.562 -0.6235  0.5457  0.3898
  573MOL0     C77264   4.707   3.153   5.576  0.2239  0.0074 -0.2183
  573MOL0    Cl77265   4.650   3.014   5.473  0.2135  0.3734  0.5229
  573MOL0     C77266   5.663   3.402   5.337 -0.4969  0.0849  0.6004
  573MOL0     C77267   5.760   3.365   5.247  0.4240  0.6266 -0.3058
  573MOL0     O77268   5.779   3.363   4.874 -0.9662  1.1217  0.1017
  573MOL0     C77269   6.015   3.093   4.886 -0.2942 -0.0822 -0.1892
  573MOL0     C77270   6.121   3.045   4.802  1.6086  0.6289  0.2849
  573MOL0     N77271   6.658   2.769   4.560 -0.3980 -0.1863 -0.5304
  573MOL0     N77272   6.720   2.665   4.547  0.1441 -0.1544  0.5097
  573MOL0     C77273   6.562   1.917   5.093 -1.0683  0.7305  0.1040
  573MOL0     C77274   6.461   1.886   5.186  0.2166  0.4897  0.1162
  573MOL0     C77275   6.288   1.812   5.605 -0.2047 -0.6211  0.6098
  573MOL0     C77276   6.236   1.906   5.691  0.8890  0.3866 -0.1018
  573MOL0     C77277   6.141   1.872   5.784 -0.7340  0.4523  0.4844
  573MOL0     C77278   6.102   1.734   5.804 -0.6545 -0.5201 -0.1538
  573MOL0     O77279   6.008   1.717   5.906 -0.2086 -0.2871  0.7077
  573MOL0     C77280   5.942   1.591   5.919 -0.7205 -1.1542 -0.3012
  573MOL0     C77281   5.825   1.614   6.019  0.1436 -1.1388  0.4977
  573MOL0     C77282   5.776   1.480   6.071  0.7046 -0.3401 -0.5970
  573MOL0     C77283   5.653   1.513   6.163 -0.4034  0.4408  0.1610
  573MOL0     C77284   5.549   1.579   6.096 -0.0798 -0.7078  0.6433
  573MOL0     C77285   5.463   1.639   6.041 -0.1721 -1.0414 -0.3450
  573MOL0     C77286   6.154   1.643   5.711 -0.0724 -0.2678 -0.1432
  573MOL0     C77287   6.250   1.681   5.618 -0.0833 -0.1741  1.7727
  573MOL0     H77288   6.636   1.692   5.411  1.5319  2.2182  1.3213
  573MOL0     H77289   6.821   1.744   5.249  1.2290  2.2548 -0.8348
  573MOL0     H77290   6.705   1.905   4.840  2.7578 -2.7394 -0.9809
  573MOL0     H77291   6.762   2.063   4.923 -0.3565  0.0285 -1.3714
  573MOL0     H77292   6.995   1.987   4.860  0.1331 -0.4276 -0.5965
  573MOL0     H77293   6.925   1.841   4.800 -1.2453 -0.7171  3.4581
  573MOL0     H77294   6.993   2.023   4.631  0.0583  0.2797  0.8377
  573MOL0     H77295   6.840   1.949   4.595  0.0966 -0.3119  0.3643
  573MOL0     H77296   6.728   2.149   4.727 -0.2853  0.7511  0.0260
  573MOL0     H77297   6.886   2.236   4.711  2.9735 -0.9765 -2.8243
  573MOL0     H77298   6.854   2.140   4.446 -1.0189 -1.7725  0.7550
  573MOL0     H77299   6.685   2.155   4.507  0.1540 -2.4424  3.4564
  573MOL0     H77300   6.743   2.378   4.586 -0.8251 -1.9274 -0.0370
  573MOL0     H77301   6.911   2.359   4.528  0.9439 -2.8560 -0.5183
  573MOL0     H77302   6.778   2.315   4.304 -0.1133 -1.1673 -0.2595
  573MOL0     H77303   6.644   2.386   4.393  0.3669  1.3488 -0.9112
  573MOL0     H77304   6.814   2.550   4.247 -0.3648 -1.7395 -1.2854
  573MOL0     H77305   6.912   2.523   4.406 -1.7881 -3.1615  2.6319
  573MOL0     H77306   6.634   2.732   4.235  0.0526  0.9521  0.6534
  573MOL0     H77307   6.580   2.953   4.291 -0.3634 -5.5870 -1.1831
  573MOL0     H77308   6.442   2.895   4.391 -0.5238  0.9094  0.1330
  573MOL0     H77309   6.455   3.119   4.398  1.9984  0.5987 -0.3719
  573MOL0     H77310   6.623   3.119   4.449  0.1452 -0.7541 -2.7411
  573MOL0     H77311   6.492   3.166   4.644  0.5785 -0.7660  1.3192
  573MOL0     H77312   6.563   3.007   4.660  1.3835  0.9243 -1.0574
  573MOL0     H77313   6.356   2.977   4.751 -1.7574  1.5348  0.1403
  573MOL0     H77314   6.363   2.898   4.607 -2.1111  1.4324  0.0252
  573MOL0     H77315   6.147   3.303   4.588  1.3548  0.9571  1.7907
  573MOL0     H77316   6.009   3.494   4.847  1.5153 -0.3582  0.2662
  573MOL0     H77317   6.117   3.484   4.703 -0.7717 -1.8840 -2.3023
  573MOL0     H77318   5.934   3.488   4.684 -1.7710 -0.5007  1.7050
  573MOL0     H77319   5.568   3.134   5.080  0.3836 -1.2613  1.8509
  573MOL0     H77320   5.413   3.214   5.235 -0.3996 -0.8075  1.8251
  573MOL0     H77321   5.459   3.283   5.564 -5.4911 -1.2242  0.4953
  573MOL0     H77322   5.506   3.447   5.599  0.3585 -0.9483 -0.2326
  573MOL0     H77323   5.302   3.360   5.704  2.6817  0.5347 -0.3628
  573MOL0     H77324   5.302   3.517   5.632  0.6527 -0.1639 -0.0397
  573MOL0     H77325   5.178   3.445   5.421 -0.7675 -0.7308 -1.8925
  573MOL0     H77326   5.087   3.421   5.576  0.8024 -0.5628  1.4352
  573MOL0     H77327   5.253   3.212   5.429 -1.0186  0.2334 -0.6054
  573MOL0     H77328   5.138   3.175   5.568  0.4597  0.4185  0.0168
  573MOL0     H77329   5.065   3.118   5.320  0.0959 -0.8374  0.0193
  573MOL0     H77330   5.072   3.284   5.293 -3.6252  0.5893 -0.2750
  573MOL0     H77331   4.858   3.300   5.391 -0.1042 -0.0388  1.0473
  573MOL0     H77332   4.863   3.126   5.347 -2.5648  1.1038 -0.2106
  573MOL0     H77333   4.883   3.258   5.622 -0.1243  1.1579 -0.6878
  573MOL0     H77334   4.909   3.079   5.600 -1.3464  0.2245  0.5834
  573MOL0     H77335   4.651   3.246   5.563 -2.9517 -2.0283 -2.4472
  573MOL0     H77336   4.695   3.125   5.681  1.1096 -0.0743 -0.1280
  573MOL0     H77337   5.680   3.491   5.399 -0.2951  0.7823 -0.4345
  573MOL0     H77338   5.862   3.400   5.250  0.1972  1.5259 -1.8255
  573MOL0     H77339   5.984   3.028   4.967  1.9791 -2.2585 -0.9565
  573MOL0     H77340   6.165   2.952   4.833 -1.3856 -1.3099 -0.8337
  573MOL0     H77341   6.555   1.968   4.998  0.6194 -0.0639 -0.4831
  573MOL0     H77342   6.359   1.923   5.180 -0.3344 -0.6529  1.7680
  573MOL0     H77343   6.267   2.009   5.676  1.4873  0.0746 -1.1109
  573MOL0     H77344   6.088   1.949   5.838  0.0813  2.1864 -1.0853
  573MOL0     H77345   5.900   1.566   5.821 -0.1995  0.9706 -1.1161
  573MOL0     H77346   6.009   1.511   5.953 -0.4146 -1.1387 -0.8563
  573MOL0     H77347   5.750   1.664   5.957  1.1125 -1.3912 -0.9290
  573MOL0     H77348   5.862   1.671   6.104 -0.8205  0.0730  0.1386
  573MOL0     H77349   5.856   1.428   6.124 -1.4980 -0.4507  2.8875
  573MOL0     H77350   5.738   1.423   5.985 -0.0845  2.5057 -2.2896
  573MOL0     H77351   5.684   1.569   6.252 -3.2042  0.9047  0.9469
  573MOL0     H77352   5.600   1.424   6.196  0.0235 -0.3908 -1.3059
  573MOL0     H77353   5.380   1.691   5.999 -0.6873 -1.1340  0.5368
  573MOL0     H77354   6.126   1.538   5.710  0.0789 -0.4355 -4.1407
  573MOL0     H77355   6.297   1.606   5.556  1.1972  1.0350  1.2158
  574MOL0     O77356   1.047   9.655   3.353 -0.2885  0.4863 -0.0637
  574MOL0     C77357   0.937   9.661   3.395  0.4696  0.5430 -0.4666
  574MOL0     O77358   0.892   9.574   3.489  0.0718 -0.2943 -0.0540
  574MOL0     C77359   0.967   9.477   3.536 -0.1872 -0.4414 -0.1330
  574MOL0     C77360   0.974   9.355   3.472 -0.0136 -0.1592 -0.9372
  574MOL0     C77361   1.075   9.259   3.516  1.0702 -0.2989  0.1682
  574MOL0     C77362   1.151   9.277   3.631 -0.0912  0.6278 -0.6581
  574MOL0     O77363   1.206   9.162   3.686 -0.2736  0.3731  0.1749
  574MOL0     C77364   1.180   9.149   3.832 -0.4952  0.2757  1.2845
  574MOL0     C77365   1.097   9.026   3.849  0.1396  0.7238  0.1056
  574MOL0     C77366   0.958   9.075   3.878 -1.3359 -0.0751  0.3247
  574MOL0     C77367   0.854   8.962   3.893 -0.5382 -0.5564 -0.5071
  574MOL0     C77368   0.728   9.024   3.940 -0.0980 -0.0959 -0.1651
  574MOL0     C77369   0.627   9.048   3.827  0.2016 -0.8044 -0.9444
  574MOL0     C77370   0.489   9.081   3.881  0.0763  0.0867 -0.4470
  574MOL0     C77371   0.399   9.156   3.773 -0.1257  0.3280  0.0632
  574MOL0     N77372   0.346   9.074   3.658  0.9193 -1.0618  0.2977
  574MOL0     C77373   0.371   9.105   3.531 -1.1477  0.2573  0.3937
  574MOL0     C77374   0.334   8.990   3.457 -0.7140  0.1975 -0.4059
  574MOL0     C77375   0.364   8.959   3.312 -1.3253  0.3718  0.0749
  574MOL0     C77376   0.446   8.839   3.302 -0.3514  0.4725 -0.1692
  574MOL0     C77377   0.470   8.779   3.162 -0.9008 -0.9095  0.9112
  574MOL0     C77378   0.513   8.640   3.168 -1.1282  0.7224 -0.2001
  574MOL0     O77379   0.648   8.635   3.223  0.0593  0.1767 -0.2367
  574MOL0     C77380   0.693   8.499   3.256 -0.0724  0.1741  1.1416
  574MOL0     C77381   0.604   8.394   3.303 -0.1804  0.6237 -0.1665
  574MOL0     C77382   0.658   8.273   3.351 -0.0628  0.0375  1.4427
  574MOL0     C77383   0.575   8.154   3.405 -0.0845  1.3045 -0.5883
  574MOL0     C77384   0.797   8.258   3.353  0.4296  0.4623  0.0259
  574MOL0     C77385   0.850   8.144   3.427 -0.2086  0.3321 -0.7299
  574MOL0     O77386   0.881   8.036   3.359  0.1951 -0.4969 -1.2996
  574MOL0     C77387   0.939   7.927   3.423 -0.4929  0.0036  0.4727
  574MOL0     C77388   1.055   7.870   3.368  0.7727 -0.3258 -0.2405
  574MOL0     C77389   1.099   7.747   3.426 -0.0653  0.0557 -1.0581
  574MOL0     C77390   1.040   7.690   3.541  0.6141 -0.9363  0.8315
  574MOL0     O77391   1.095   7.574   3.600  0.0323 -0.0858  0.1408
  574MOL0     C77392   1.213   7.515   3.551 -0.1757 -0.2043  0.1892
  574MOL0     C77393   1.197   7.421   3.425 -0.2961 -0.0076 -0.1318
  574MOL0     C77394   1.055   7.373   3.391  0.5185 -0.2161 -0.4768
  574MOL0     C77395   1.019   7.265   3.484  0.7677  0.3952  0.6328
  574MOL0     C77396   0.897   7.186   3.411 -0.1534  0.0751  0.8136
  574MOL0     C77397   0.862   7.069   3.508  0.1334  0.3281  0.2995
  574MOL0     C77398   0.769   6.972   3.439  0.0492 -0.7870  0.3159
  574MOL0     C77399   0.630   7.024   3.385 -0.1212  0.1439 -0.8408
  574MOL0    Cl77400   0.519   6.908   3.316 -0.6041  0.3792 -0.2203
  574MOL0     C77401   0.930   7.754   3.591  0.2767  0.3937  1.1361
  574MOL0     C77402   0.870   7.871   3.532  0.5800 -0.3275  0.3402
  574MOL0     O77403   0.880   8.165   3.547 -0.5057 -0.4307  0.5019
  574MOL0     C77404   0.875   8.336   3.283  0.8190 -1.4460  0.8338
  574MOL0     C77405   0.829   8.462   3.236  1.1229 -0.2142 -0.7202
  574MOL0     N77406   0.258   8.912   3.548 -0.5130 -0.2785 -0.6750
  574MOL0     N77407   0.263   8.966   3.676 -0.3650 -0.2239  0.3218
  574MOL0     C77408   1.139   9.395   3.685 -0.4981  0.0032 -0.6748
  574MOL0     C77409   1.065   9.508   3.638  1.1709  0.3514 -0.4422
  574MOL0     C77410   0.843   9.772   3.360  0.1182 -0.2035 -0.0569
  574MOL0     C77411   0.862   9.830   3.227 -0.4091  0.2859  0.4778
  574MOL0     C77412   0.771   9.934   3.187  0.1678  0.1973 -0.4418
  574MOL0     C77413   0.661   9.974   3.265 -1.3558  0.2841  0.2576
  574MOL0     O77414   0.575  10.071   3.234  0.2409 -1.4341  0.7463
  574MOL0     C77415   0.568  10.135   3.100  0.1828 -0.2257 -0.3578
  574MOL0     C77416   0.672  10.238   3.068  0.6048 -1.0873 -0.3452
  574MOL0     C77417   0.629  10.331   2.952 -1.0450 -0.1085  0.6794
  574MOL0     C77418   0.509  10.436   2.989 -1.0733  0.2195 -0.1412
  574MOL0     C77419   0.572  10.543   3.068 -0.0448 -0.5651 -0.4739
  574MOL0     C77420   0.629  10.623   3.145 -1.1391  0.5278 -0.6946
  574MOL0     C77421   0.646   9.924   3.397 -0.2727  0.5319 -0.2869
  574MOL0     C77422   0.739   9.819   3.440 -0.4144  1.1024 -0.6689
  574MOL0     H77423   0.926   9.342   3.376  0.6288 -1.7338 -1.0675
  574MOL0     H77424   1.090   9.158   3.480 -0.7135 -2.4881  4.7104
  574MOL0     H77425   1.273   9.141   3.889  1.5229 -0.4480 -1.8141
  574MOL0     H77426   1.130   9.235   3.877  0.4609  1.6146 -0.1173
  574MOL0     H77427   1.108   8.956   3.765 -0.1345  1.3215 -0.4342
  574MOL0     H77428   1.121   8.978   3.944  1.2238  1.5471  0.2565
  574MOL0     H77429   0.977   9.127   3.972  1.9557 -0.6545  0.0838
  574MOL0     H77430   0.936   9.142   3.795  1.6191 -1.2029 -1.5336
  574MOL0     H77431   0.850   8.904   3.800 -1.7407  0.5027 -1.1480
  574MOL0     H77432   0.890   8.907   3.981 -0.3289 -2.4182 -1.7025
  574MOL0     H77433   0.677   8.959   4.012  0.0584  1.4434  1.3994
  574MOL0     H77434   0.742   9.114   4.000  0.7874 -0.5440  0.3098
  574MOL0     H77435   0.667   9.125   3.761 -0.5867 -1.0814 -1.7656
  574MOL0     H77436   0.610   8.957   3.769 -0.1280 -0.9647 -0.5955
  574MOL0     H77437   0.424   8.996   3.906 -1.2904  1.3621  0.5217
  574MOL0     H77438   0.511   9.147   3.965  1.3351 -0.0044 -0.6827
  574MOL0     H77439   0.463   9.240   3.745  3.5457 -1.4960  2.2040
  574MOL0     H77440   0.319   9.195   3.838  1.0421  2.4149  0.3359
  574MOL0     H77441   0.434   9.180   3.483  0.3431 -1.7972 -1.0760
  574MOL0     H77442   0.277   8.953   3.247 -2.3634  1.2194  1.3448
  574MOL0     H77443   0.422   9.044   3.274  1.0380  0.1166  2.7332
  574MOL0     H77444   0.390   8.761   3.355 -0.8816  0.6892 -0.4033
  574MOL0     H77445   0.541   8.851   3.355  1.0021 -1.0340 -2.0981
  574MOL0     H77446   0.534   8.848   3.106  1.0749 -0.7938  3.1391
  574MOL0     H77447   0.372   8.774   3.113 -1.1153  0.5509  1.1371
  574MOL0     H77448   0.508   8.598   3.067  1.5419  0.6922 -0.3981
  574MOL0     H77449   0.449   8.578   3.232  2.4850 -1.3746  1.7283
  574MOL0     H77450   0.497   8.401   3.318 -0.6707  0.0985 -2.8266
  574MOL0     H77451   0.482   8.158   3.347 -0.5715  3.0850  0.2378
  574MOL0     H77452   0.618   8.055   3.389 -2.3456  0.1619 -0.0638
  574MOL0     H77453   0.540   8.160   3.508  2.0584  1.7075  0.1571
  574MOL0     H77454   1.104   7.928   3.290  0.5213  0.2313  0.0142
  574MOL0     H77455   1.186   7.700   3.381 -0.3590 -0.5992 -0.9511
  574MOL0     H77456   1.297   7.582   3.532  1.4955 -2.5673 -1.3992
  574MOL0     H77457   1.246   7.467   3.644 -0.5673  1.4262  1.2180
  574MOL0     H77458   1.233   7.470   3.335 -1.7916 -0.7895 -1.1917
  574MOL0     H77459   1.265   7.335   3.433 -0.4286 -0.2166 -1.1417
  574MOL0     H77460   1.055   7.332   3.289  1.1497 -1.1998 -0.0944
  574MOL0     H77461   0.988   7.460   3.399  2.6983  1.4306  1.0594
  574MOL0     H77462   1.105   7.200   3.502  0.7016  0.7800  2.5603
  574MOL0     H77463   0.985   7.308   3.579 -0.7557 -2.8417  1.7070
  574MOL0     H77464   0.930   7.145   3.316 -0.1884  0.7824  0.4923
  574MOL0     H77465   0.814   7.254   3.390  0.7900  0.5011 -1.8025
  574MOL0     H77466   0.944   7.010   3.550 -2.9390 -4.6787 -0.0365
  574MOL0     H77467   0.820   7.110   3.600  2.2929  1.5752  0.8203
  574MOL0     H77468   0.759   6.887   3.508 -0.8197 -1.8505 -1.0524
  574MOL0     H77469   0.828   6.927   3.359  0.6985 -0.3134  0.5235
  574MOL0     H77470   0.649   7.109   3.320 -0.8647  2.3997  1.6865
  574MOL0     H77471   0.579   7.068   3.471  1.0427  1.0657 -0.6067
  574MOL0     H77472   0.874   7.708   3.671  0.6825  2.6513  2.8414
  574MOL0     H77473   0.781   7.905   3.584  2.7453  4.7274  1.3363
  574MOL0     H77474   0.977   8.321   3.248  1.2628  1.7907  0.4364
  574MOL0     H77475   0.891   8.531   3.181 -1.6620 -0.1237 -4.0679
  574MOL0     H77476   1.184   9.413   3.782 -2.0028 -0.4734  0.1340
  574MOL0     H77477   1.067   9.608   3.682 -1.0613 -1.4454  4.4365
  574MOL0     H77478   0.925   9.784   3.152 -0.7454 -1.3922  1.1753
  574MOL0     H77479   0.807   9.978   3.094 -1.6468  0.7740 -0.8986
  574MOL0     H77480   0.594  10.048   3.038  2.1766 -0.3133  0.5179
  574MOL0     H77481   0.467  10.173   3.085 -0.9197 -3.3747 -2.0040
  574MOL0     H77482   0.770  10.195   3.047  0.0683 -3.0378  0.8705
  574MOL0     H77483   0.686  10.304   3.153 -0.9260  2.0209 -2.3052
  574MOL0     H77484   0.601  10.274   2.863  1.7267  1.2622 -1.2211
  574MOL0     H77485   0.715  10.387   2.915 -0.9177 -0.9965 -0.4518
  574MOL0     H77486   0.430  10.395   3.053 -2.2278  0.3958 -1.3987
  574MOL0     H77487   0.478  10.475   2.891  3.3017  1.7798 -1.1593
  574MOL0     H77488   0.689  10.683   3.211 -1.3220  0.7480 -0.7300
  574MOL0     H77489   0.560   9.948   3.459  0.9306 -3.4846  3.4648
  574MOL0     H77490   0.728   9.777   3.539 -1.3941  3.8203  0.4445
  575MOL0     O77491   0.584   4.321   0.008  0.5950 -0.4154  0.1970
  575MOL0     C77492   0.543   4.250  -0.084 -0.1678 -0.0416  0.4333
  575MOL0     O77493   0.428   4.273  -0.150 -1.3229 -0.3611  0.1468
  575MOL0     C77494   0.403   4.404  -0.180 -0.3725 -0.1919 -0.5449
  575MOL0     C77495   0.480   4.484  -0.266 -0.7127 -0.1337 -0.4713
  575MOL0     C77496   0.436   4.616  -0.309  0.3597  1.0248  0.6169
  575MOL0     C77497   0.311   4.656  -0.280  0.5369  0.4821  0.8938
  575MOL0     O77498   0.251   4.771  -0.336  0.4616 -0.2145  0.3235
  575MOL0     C77499   0.226   4.768  -0.478 -0.0403  0.0302  0.0289
  575MOL0     C77500   0.081   4.735  -0.513 -0.8372 -0.9821 -0.7113
  575MOL0     C77501   0.049   4.594  -0.535 -0.2304  0.0559 -0.3667
  575MOL0     C77502  -0.085   4.551  -0.469  0.0786 -0.3396 -0.3689
  575MOL0     C77503  -0.097   4.400  -0.490 -0.0082  0.6967  0.2493
  575MOL0     C77504   0.003   4.307  -0.417  0.7150 -0.1791 -0.2611
  575MOL0     C77505   0.119   4.253  -0.508 -0.1473  0.0646 -1.3110
  575MOL0     C77506   0.214   4.153  -0.436  0.0791  0.0209  0.0238
  575MOL0     N77507   0.327   4.109  -0.523  0.6412 -0.1696 -0.4652
  575MOL0     C77508   0.334   3.987  -0.581 -0.5452 -0.4070 -0.3966
  575MOL0     C77509   0.461   3.985  -0.631  0.1768  0.5502 -0.7159
  575MOL0     C77510   0.525   3.875  -0.696 -0.4021 -0.2468  0.6753
  575MOL0     C77511   0.436   3.827  -0.810 -0.6021 -0.1059 -0.9878
  575MOL0     C77512   0.489   3.700  -0.856 -1.2770  0.3206  0.1370
  575MOL0     C77513   0.414   3.670  -0.989  0.7374 -0.0441 -0.6542
  575MOL0     O77514   0.437   3.773  -1.084  0.3510  0.0647 -0.1014
  575MOL0     C77515   0.564   3.795  -1.145 -0.2284 -0.4590 -0.1877
  575MOL0     C77516   0.579   3.919  -1.206 -0.3060 -0.6914  0.0701
  575MOL0     C77517   0.699   3.955  -1.278  0.3240  0.2502 -0.0417
  575MOL0     C77518   0.702   4.094  -1.346 -1.6126 -0.2946 -0.3271
  575MOL0     C77519   0.806   3.861  -1.280 -0.3793 -0.0873  0.5399
  575MOL0     C77520   0.943   3.874  -1.342  0.3627 -0.3072 -0.2683
  575MOL0     O77521   0.997   3.762  -1.409  0.2536  0.2956 -0.4183
  575MOL0     C77522   1.116   3.778  -1.478  0.2298 -1.0841  0.4194
  575MOL0     C77523   1.212   3.681  -1.478  0.5757  0.8085 -0.4049
  575MOL0     C77524   1.336   3.700  -1.526  0.4676 -0.6078  0.2403
  575MOL0     C77525   1.376   3.818  -1.586 -0.0408 -0.3250 -1.1328
  575MOL0     O77526   1.504   3.830  -1.648  0.5465  0.0855  0.3108
  575MOL0     C77527   1.613   3.759  -1.598  0.3951  0.8353 -1.2428
  575MOL0     C77528   1.745   3.810  -1.656  0.4590  0.8350  0.0335
  575MOL0     C77529   1.740   3.964  -1.658 -0.5683  0.7297 -0.4987
  575MOL0     C77530   1.883   4.032  -1.645  0.2305 -0.6903 -0.5411
  575MOL0     C77531   1.874   4.186  -1.616 -0.0631 -0.1418 -0.6879
  575MOL0     C77532   1.819   4.222  -1.471  0.9041  0.4988  0.9458
  575MOL0     C77533   1.891   4.158  -1.353  0.3150  0.6228  0.3723
  575MOL0     C77534   1.837   4.219  -1.219 -0.2909 -0.4127  0.2483
  575MOL0    Cl77535   1.898   4.097  -1.089  0.2254 -0.2175 -0.2993
  575MOL0     C77536   1.281   3.918  -1.597 -0.3361  0.3297  0.1564
  575MOL0     C77537   1.152   3.892  -1.549  0.0204 -0.1829  0.2398
  575MOL0     O77538   0.992   3.981  -1.318 -0.0158 -0.2059 -0.1171
  575MOL0     C77539   0.789   3.733  -1.211 -0.1482  0.0839 -0.5940
  575MOL0     C77540   0.663   3.698  -1.145 -0.0661  0.3943 -0.1296
  575MOL0     N77541   0.531   4.094  -0.586  1.0383 -1.2470 -0.1398
  575MOL0     N77542   0.452   4.173  -0.525  0.2290 -0.2302 -0.1335
  575MOL0     C77543   0.239   4.576  -0.195 -0.0202  0.4019 -1.0827
  575MOL0     C77544   0.284   4.459  -0.144 -0.6564  0.0162  0.2471
  575MOL0     C77545   0.627   4.137  -0.129 -0.1394  0.8116 -0.0628
  575MOL0     C77546   0.740   4.102  -0.043  0.4250  0.4946  0.0962
  575MOL0     C77547   0.834   3.995  -0.074 -0.1425 -0.4347  1.3100
  575MOL0     C77548   0.819   3.937  -0.204 -0.1834 -1.1080  0.6327
  575MOL0     O77549   0.893   3.834  -0.238 -0.8888 -0.1540 -0.9524
  575MOL0     C77550   0.820   3.712  -0.273  0.6051  0.0483 -0.9700
  575MOL0     C77551   0.729   3.655  -0.171  0.1668  0.5482 -0.7846
  575MOL0     C77552   0.782   3.629  -0.034 -0.0403 -0.3915 -0.8510
  575MOL0     C77553   0.860   3.493  -0.023  0.1217  0.9830  0.1413
  575MOL0     C77554   0.778   3.372  -0.026  0.8558  0.1897  0.5547
  575MOL0     C77555   0.724   3.272  -0.069 -0.4952 -0.3016 -0.4906
  575MOL0     C77556   0.709   3.975  -0.292  0.3582 -0.4929  0.3072
  575MOL0     C77557   0.614   4.063  -0.246 -0.0047  1.5489  0.4352
  575MOL0     H77558   0.581   4.455  -0.294 -1.7270 -1.8366 -2.7000
  575MOL0     H77559   0.496   4.691  -0.360 -0.5048 -0.5331 -2.9907
  575MOL0     H77560   0.245   4.872  -0.507  1.3078 -0.8053 -2.2992
  575MOL0     H77561   0.297   4.712  -0.538 -0.4535 -0.4789  0.0111
  575MOL0     H77562   0.021   4.790  -0.441  0.8710 -1.9372  1.5520
  575MOL0     H77563   0.066   4.786  -0.609 -5.0083 -0.5614 -0.0379
  575MOL0     H77564   0.052   4.575  -0.642 -1.6630 -0.1821 -0.3823
  575MOL0     H77565   0.133   4.540  -0.489 -2.5551 -1.3076  2.6711
  575MOL0     H77566  -0.081   4.570  -0.361 -2.9232 -1.1211 -0.0283
  575MOL0     H77567  -0.176   4.590  -0.516 -0.7119 -2.1177 -0.3753
  575MOL0     H77568  -0.195   4.363  -0.458  0.1506 -1.0729 -1.1267
  575MOL0     H77569  -0.088   4.373  -0.596 -1.1906 -2.7075  0.8615
  575MOL0     H77570   0.063   4.357  -0.340  0.5247  4.1951 -2.6220
  575MOL0     H77571  -0.051   4.223  -0.373  0.9751  0.9026  2.3318
  575MOL0     H77572   0.071   4.200  -0.591  1.0980 -1.8528 -0.8849
  575MOL0     H77573   0.185   4.339  -0.525  0.3109  0.3978  1.5880
  575MOL0     H77574   0.153   4.073  -0.394  1.8870 -0.3553  2.0886
  575MOL0     H77575   0.255   4.202  -0.348 -0.7434  0.0670  0.3880
  575MOL0     H77576   0.250   3.919  -0.590  0.2967 -1.3660 -1.4640
  575MOL0     H77577   0.618   3.914  -0.740 -1.3378  0.4315 -0.7834
  575MOL0     H77578   0.535   3.793  -0.625  0.6247 -2.3982 -1.8082
  575MOL0     H77579   0.443   3.907  -0.884 -2.0700  1.5429  0.5821
  575MOL0     H77580   0.331   3.812  -0.782  0.0849  1.3842  2.9266
  575MOL0     H77581   0.472   3.620  -0.784 -1.5683 -0.1524 -0.4538
  575MOL0     H77582   0.596   3.689  -0.875 -0.9637 -1.7450  2.5685
  575MOL0     H77583   0.306   3.671  -0.973  0.3465  3.1214 -2.5331
  575MOL0     H77584   0.442   3.573  -1.029 -0.3982  0.3151 -2.4397
  575MOL0     H77585   0.512   4.003  -1.216  0.9228  0.1318 -1.7630
  575MOL0     H77586   0.679   4.083  -1.452  0.3731  1.9936 -1.0825
  575MOL0     H77587   0.628   4.159  -1.299  0.4893  0.6724  1.8966
  575MOL0     H77588   0.796   4.150  -1.343 -2.4774  1.3695  4.5955
  575MOL0     H77589   1.185   3.587  -1.432 -1.2327  0.3670 -2.1880
  575MOL0     H77590   1.401   3.614  -1.530 -0.5571 -1.3695 -0.4381
  575MOL0     H77591   1.608   3.772  -1.490 -0.7921 -3.3011 -0.6399
  575MOL0     H77592   1.598   3.656  -1.630  0.2408  0.8017 -1.0613
  575MOL0     H77593   1.831   3.779  -1.598  0.5925  0.5465 -0.3137
  575MOL0     H77594   1.766   3.775  -1.758  0.0519 -0.6178  0.4295
  575MOL0     H77595   1.675   4.003  -1.579 -1.2519 -2.4980  0.6573
  575MOL0     H77596   1.688   4.003  -1.746 -0.1177 -0.3340 -1.2545
  575MOL0     H77597   1.928   3.978  -1.561 -0.9337 -0.3371  0.3388
  575MOL0     H77598   1.940   4.013  -1.736  1.2087 -4.0618  0.6221
  575MOL0     H77599   1.818   4.239  -1.694 -0.6231 -0.0407 -0.2235
  575MOL0     H77600   1.974   4.227  -1.635  0.4016 -1.3443 -0.9459
  575MOL0     H77601   1.816   4.330  -1.457  4.0067  1.0046 -1.2342
  575MOL0     H77602   1.718   4.179  -1.464  1.3741 -0.9984 -0.6231
  575MOL0     H77603   1.999   4.170  -1.352  0.7601 -2.4730  0.4987
  575MOL0     H77604   1.861   4.053  -1.359 -3.0918  1.4274  0.8420
  575MOL0     H77605   1.728   4.228  -1.216 -0.4837 -1.2791 -2.3381
  575MOL0     H77606   1.880   4.317  -1.198 -0.2177 -0.8142  2.1655
  575MOL0     H77607   1.306   4.009  -1.650 -2.3729  0.8763  0.0261
  575MOL0     H77608   1.089   3.981  -1.557 -0.3409 -0.1384  2.7780
  575MOL0     H77609   0.861   3.652  -1.204 -1.1571 -0.7077  1.4310
  575MOL0     H77610   0.666   3.595  -1.112  1.7981  0.5570  0.3156
  575MOL0     H77611   0.135   4.600  -0.175  0.6013  0.1584  3.3002
  575MOL0     H77612   0.212   4.404  -0.083 -2.4949  1.7802 -0.2391
  575MOL0     H77613   0.746   4.163   0.048  0.4165  2.3975 -1.1137
  575MOL0     H77614   0.902   3.955   0.001  0.6192  2.7515  2.4510
  575MOL0     H77615   0.762   3.726  -0.365 -1.2372 -0.7584  0.0069
  575MOL0     H77616   0.894   3.641  -0.310  1.4316  0.2033  0.3216
  575MOL0     H77617   0.672   3.573  -0.215 -2.6247  0.2843  2.8812
  575MOL0     H77618   0.641   3.717  -0.155 -2.7627 -3.1285 -1.3776
  575MOL0     H77619   0.710   3.644   0.046  0.6819  1.7439 -0.5208
  575MOL0     H77620   0.863   3.698  -0.008 -0.3938  0.2736 -1.4712
  575MOL0     H77621   0.909   3.480   0.074 -0.3701  2.0311  0.5432
  575MOL0     H77622   0.923   3.475  -0.111  1.1300 -0.2677  1.0897
  575MOL0     H77623   0.682   3.182  -0.111  0.1019 -1.6024  1.5351
  575MOL0     H77624   0.697   3.932  -0.391  1.1155  0.8576 -0.3978
  575MOL0     H77625   0.535   4.080  -0.318  0.1109 -1.9325 -0.6737
  576MOL0     O77626   8.201   8.027   6.594 -0.6199  0.3798 -0.5562
  576MOL0     C77627   8.245   7.994   6.709  0.1119  0.5828  1.5228
  576MOL0     O77628   8.380   7.989   6.741  0.2805  0.1945  0.4864
  576MOL0     C77629   8.463   7.998   6.641 -0.1463 -0.1436 -0.2447
  576MOL0     C77630   8.505   8.118   6.580 -0.1401  0.7662 -0.4812
  576MOL0     C77631   8.612   8.107   6.482  1.7717 -0.7413 -0.1852
  576MOL0     C77632   8.657   7.986   6.441 -0.3894  0.0914 -0.2498
  576MOL0     O77633   8.769   7.976   6.364 -0.1659 -0.2782  0.9151
  576MOL0     C77634   8.766   7.952   6.225  0.3481 -0.4976 -0.1692
  576MOL0     C77635   8.898   7.891   6.171 -1.3718 -0.0155  1.2039
  576MOL0     C77636   8.909   7.865   6.012 -1.0692  0.3751  0.3657
  576MOL0     C77637   8.804   7.765   5.964 -0.1486  0.0114 -1.0155
  576MOL0     C77638   8.803   7.732   5.817  0.2399 -0.0977 -0.7058
  576MOL0     C77639   8.934   7.668   5.756  0.2160 -0.1094 -0.8859
  576MOL0     C77640   8.929   7.633   5.606  0.0011 -0.5392  0.6454
  576MOL0     C77641   9.042   7.534   5.584 -0.4721  0.1978  0.4840
  576MOL0     N77642   9.054   7.471   5.453 -0.0415  0.5890 -0.5839
  576MOL0     C77643   9.089   7.532   5.337 -0.5231  0.5260 -0.0180
  576MOL0     C77644   9.075   7.439   5.239 -0.1294  0.1106 -0.8760
  576MOL0     C77645   9.110   7.449   5.082  0.8787  0.3249  0.6284
  576MOL0     C77646   8.973   7.457   5.006  0.2637  0.0589 -0.7473
  576MOL0     C77647   8.999   7.475   4.855 -1.6914  0.0853 -0.5541
  576MOL0     C77648   8.873   7.527   4.780 -0.8754  0.7235 -1.4734
  576MOL0     O77649   8.852   7.657   4.832 -0.1035 -0.1633 -0.6823
  576MOL0     C77650   8.836   7.766   4.750  0.3077  0.1103  0.9176
  576MOL0     C77651   8.766   7.748   4.631  0.6613 -0.4833  1.0520
  576MOL0     C77652   8.726   7.859   4.554  0.3086 -0.1055  0.1393
  576MOL0     C77653   8.643   7.829   4.431 -0.6729 -0.2886  0.1378
  576MOL0     C77654   8.775   7.986   4.594  0.3927 -0.6581 -0.0666
  576MOL0     C77655   8.757   8.110   4.513  0.7061  0.0568 -0.1541
  576MOL0     O77656   8.871   8.160   4.448  0.0824  0.4033 -0.1053
  576MOL0     C77657   8.842   8.283   4.398  0.1752 -0.8368 -0.8325
  576MOL0     C77658   8.781   8.295   4.274 -0.4129  0.3535  0.3650
  576MOL0     C77659   8.762   8.417   4.218 -0.4278 -0.0834 -1.1018
  576MOL0     C77660   8.803   8.535   4.287  0.2297  0.5123 -0.0593
  576MOL0     O77661   8.799   8.656   4.225  0.2179  0.5333  0.7351
  576MOL0     C77662   8.756   8.674   4.087 -0.5531 -0.4229 -0.2406
  576MOL0     C77663   8.799   8.821   4.049 -1.0725  0.2950 -0.3538
  576MOL0     C77664   8.947   8.848   4.072  0.1587  0.1673  0.8143
  576MOL0     C77665   8.972   8.996   4.091 -0.1723 -0.3596 -0.0407
  576MOL0     C77666   9.128   9.051   4.082 -0.8613  0.1384  0.0182
  576MOL0     C77667   9.203   9.031   4.207 -0.1669  1.1127  0.3098
  576MOL0     C77668   9.341   9.095   4.209  1.3059 -0.1984 -0.0981
  576MOL0     C77669   9.409   9.079   4.343  0.0385  1.0998 -0.7280
  576MOL0    Cl77670   9.418   8.914   4.398  0.3415 -0.2086  0.2932
  576MOL0     C77671   8.858   8.523   4.418 -0.4409  0.1862 -0.0455
  576MOL0     C77672   8.869   8.399   4.474  0.6886 -0.2929  1.2980
  576MOL0     O77673   8.639   8.146   4.512 -0.1807 -0.1702 -0.3053
  576MOL0     C77674   8.835   8.008   4.716 -1.0090  0.3644 -0.3271
  576MOL0     C77675   8.877   7.895   4.791 -0.0465 -0.2936 -0.7028
  576MOL0     N77676   9.042   7.312   5.288  0.3632 -0.5345 -0.2595
  576MOL0     N77677   9.030   7.335   5.416  0.2626  0.0549  0.0557
  576MOL0     C77678   8.611   7.868   6.499 -0.8979 -0.2823  0.4375
  576MOL0     C77679   8.512   7.877   6.598 -1.0282 -0.3541 -0.2039
  576MOL0     C77680   8.153   7.976   6.813 -0.9338  0.8511 -0.1405
  576MOL0     C77681   8.197   7.995   6.945  0.4414 -0.5292  0.0589
  576MOL0     C77682   8.112   8.015   7.055 -0.0061  0.5694  0.2371
  576MOL0     C77683   7.973   7.997   7.039 -0.4404 -0.1245  0.0475
  576MOL0     O77684   7.880   8.041   7.129  0.1853 -0.4434 -0.6801
  576MOL0     C77685   7.781   7.937   7.164 -0.1317 -0.6513 -0.5854
  576MOL0     C77686   7.688   7.994   7.268 -0.1953 -0.4199  0.4423
  576MOL0     C77687   7.572   8.064   7.197 -0.4908 -0.6462  0.7841
  576MOL0     C77688   7.468   7.959   7.165 -0.1220 -0.8382  0.5620
  576MOL0     C77689   7.355   8.025   7.093  0.6939 -0.6566  0.6173
  576MOL0     C77690   7.275   8.098   7.030  0.3039  0.0160  1.3136
  576MOL0     C77691   7.936   7.962   6.909 -0.1103 -1.0697 -0.5272
  576MOL0     C77692   8.014   7.958   6.796 -0.5591 -0.4182 -0.9714
  576MOL0     H77693   8.478   8.217   6.615 -1.2975 -0.2971  1.8283
  576MOL0     H77694   8.650   8.199   6.437  1.6549  0.0851  1.3416
  576MOL0     H77695   8.689   7.878   6.204 -2.2298  1.8417  0.4880
  576MOL0     H77696   8.747   8.046   6.172  0.9136  1.1967  2.4630
  576MOL0     H77697   8.977   7.955   6.212 -0.1664 -0.4143 -0.3988
  576MOL0     H77698   8.922   7.795   6.220 -0.3281 -0.6828 -0.5281
  576MOL0     H77699   8.890   7.963   5.967 -2.5094  0.8247  1.8307
  576MOL0     H77700   9.010   7.828   5.991 -1.2472 -0.2992  0.6680
  576MOL0     H77701   8.807   7.672   6.021 -0.2762  0.3092 -0.5213
  576MOL0     H77702   8.713   7.825   5.966 -1.1866 -1.5079  0.8195
  576MOL0     H77703   8.724   7.659   5.796  0.8838 -1.7848  2.1084
  576MOL0     H77704   8.784   7.822   5.758  2.3400  1.6642  1.1113
  576MOL0     H77705   9.014   7.738   5.781 -0.4455 -0.5188  3.0645
  576MOL0     H77706   8.956   7.575   5.810  2.1947 -1.1333 -3.2703
  576MOL0     H77707   8.832   7.583   5.594  0.6431 -2.2962  2.1320
  576MOL0     H77708   8.940   7.718   5.539  0.6470  1.1565  2.7991
  576MOL0     H77709   9.053   7.459   5.663  3.4030  1.4003  1.2884
  576MOL0     H77710   9.137   7.586   5.597 -1.6595  2.2826  1.4344
  576MOL0     H77711   9.125   7.632   5.312  2.1815 -0.3664 -0.0445
  576MOL0     H77712   9.165   7.543   5.068  3.2222 -1.1079 -0.2629
  576MOL0     H77713   9.165   7.362   5.047 -1.7054 -2.5633  3.1001
  576MOL0     H77714   8.912   7.538   5.047 -1.3435 -1.1756 -0.6221
  576MOL0     H77715   8.922   7.361   5.015 -0.4285  0.3795 -1.0888
  576MOL0     H77716   9.039   7.386   4.806 -1.3409  0.0866 -0.2778
  576MOL0     H77717   9.082   7.546   4.851  0.3403 -1.6548  3.8115
  576MOL0     H77718   8.793   7.459   4.811 -1.0527  1.6649  0.2238
  576MOL0     H77719   8.888   7.523   4.672  1.2427  0.6958 -1.2058
  576MOL0     H77720   8.727   7.653   4.596 -1.9671  0.9685 -0.2823
  576MOL0     H77721   8.588   7.735   4.438  0.6055 -0.9848  1.3550
  576MOL0     H77722   8.576   7.904   4.387 -1.2232 -1.0115 -0.2625
  576MOL0     H77723   8.712   7.819   4.347  1.1286 -3.0452  1.7862
  576MOL0     H77724   8.739   8.208   4.226 -1.4876  2.1578 -2.1913
  576MOL0     H77725   8.728   8.428   4.116 -0.3956  3.5912 -0.8675
  576MOL0     H77726   8.807   8.601   4.024 -0.1929 -0.1447 -0.2756
  576MOL0     H77727   8.649   8.655   4.073 -0.0810 -3.0016 -0.9870
  576MOL0     H77728   8.775   8.830   3.943 -0.4915 -4.9524 -1.1729
  576MOL0     H77729   8.729   8.876   4.112 -0.1751 -3.2019  4.2524
  576MOL0     H77730   9.006   8.814   3.986  0.5953  1.1997  0.6814
  576MOL0     H77731   8.986   8.799   4.161  0.1464 -0.0620  0.6957
  576MOL0     H77732   8.905   9.062   4.035  2.3297  2.0438 -0.4152
  576MOL0     H77733   8.946   9.024   4.193 -1.6728 -2.0254  0.0951
  576MOL0     H77734   9.134   9.156   4.053 -1.5524  0.3029  0.4438
  576MOL0     H77735   9.173   8.995   3.999 -1.9193 -1.4495  0.4782
  576MOL0     H77736   9.151   9.085   4.286  0.1395  0.9064  0.6585
  576MOL0     H77737   9.200   8.922   4.221 -0.6456  0.8353 -1.6643
  576MOL0     H77738   9.329   9.201   4.182 -2.2361  0.0009  1.6314
  576MOL0     H77739   9.392   9.038   4.131 -1.0133 -0.3637 -1.5933
  576MOL0     H77740   9.348   9.122   4.423  1.2828  1.6385 -0.0305
  576MOL0     H77741   9.507   9.129   4.337  0.7787 -0.2769 -0.5680
  576MOL0     H77742   8.884   8.609   4.480 -1.3492  0.5027 -0.0896
  576MOL0     H77743   8.913   8.405   4.573  0.0473 -0.3080  1.5912
  576MOL0     H77744   8.870   8.105   4.749  1.3818 -0.2985 -0.7875
  576MOL0     H77745   8.936   7.894   4.882 -0.1898  0.9078 -0.5814
  576MOL0     H77746   8.649   7.774   6.460 -0.8703  0.1583 -0.6305
  576MOL0     H77747   8.484   7.789   6.654 -0.3161 -1.3680 -1.4028
  576MOL0     H77748   8.302   8.007   6.971  0.6141 -2.6786  0.5120
  576MOL0     H77749   8.148   8.004   7.157  0.8233  0.3445 -0.0703
  576MOL0     H77750   7.732   7.908   7.071 -1.2236 -0.6112 -0.0385
  576MOL0     H77751   7.828   7.851   7.213  4.3685  3.2128  2.9191
  576MOL0     H77752   7.736   8.065   7.335  1.7652 -0.6524 -0.6395
  576MOL0     H77753   7.644   7.906   7.316  2.8105 -1.1292  2.1552
  576MOL0     H77754   7.610   8.129   7.117 -2.2524 -1.3570 -0.6996
  576MOL0     H77755   7.517   8.135   7.260  1.0110 -0.6680  2.2013
  576MOL0     H77756   7.431   7.918   7.259 -0.3039  0.9320  1.3105
  576MOL0     H77757   7.518   7.889   7.097  0.0655  1.1350 -1.4752
  576MOL0     H77758   7.218   8.170   6.974 -0.6530 -1.7405 -0.0496
  576MOL0     H77759   7.829   7.958   6.887 -0.3171  0.7496 -0.0692
  576MOL0     H77760   7.958   7.958   6.703 -5.5067 -1.6278  1.6137
  577MOL0     O77761   9.297   0.889   3.855  0.6937  0.0052 -0.4279
  577MOL0     C77762   9.311   0.771   3.816  0.2506  0.6383 -0.8321
  577MOL0     O77763   9.212   0.675   3.835 -0.2208  0.3129 -0.2383
  577MOL0     C77764   9.085   0.711   3.882  0.9042  0.4570  0.1919
  577MOL0     C77765   9.042   0.680   4.016  0.0955 -0.4969 -0.1710
  577MOL0     C77766   8.916   0.736   4.057  0.5398 -0.2006  0.3079
  577MOL0     C77767   8.828   0.801   3.970  0.5898  0.1534 -0.0220
  577MOL0     O77768   8.700   0.824   4.018 -0.7796 -0.5390 -0.1744
  577MOL0     C77769   8.619   0.938   3.975  0.4135 -0.1144  1.0601
  577MOL0     C77770   8.661   1.066   4.048 -1.1699 -0.3352  0.2710
  577MOL0     C77771   8.808   1.106   4.004  0.6727 -0.3345 -0.4183
  577MOL0     C77772   8.830   1.254   4.036  1.0020  0.3435  0.3787
  577MOL0     C77773   8.979   1.290   3.997  0.1904  0.5052 -0.2201
  577MOL0     C77774   9.081   1.192   4.061  0.1349 -0.1505 -1.0540
  577MOL0     C77775   9.227   1.248   4.063  0.0933  0.6609 -0.8699
  577MOL0     C77776   9.335   1.137   4.092 -0.1729  0.3478 -0.3819
  577MOL0     N77777   9.302   1.049   4.197  0.1112  0.3079  0.2463
  577MOL0     C77778   9.231   0.926   4.191 -0.9503 -0.3213  0.5824
  577MOL0     C77779   9.203   0.897   4.317  0.4803 -0.4565  0.2457
  577MOL0     C77780   9.121   0.784   4.375 -1.5281  0.0789 -0.1263
  577MOL0     C77781   8.986   0.827   4.427  0.4543  1.4467 -0.7339
  577MOL0     C77782   8.991   0.898   4.566  0.3488  0.0844  0.2359
  577MOL0     C77783   9.088   0.841   4.669 -0.2730  0.3113 -0.2752
  577MOL0     O77784   9.044   0.852   4.808  0.4249  0.2300 -0.7331
  577MOL0     C77785   9.045   0.967   4.881  0.0776 -0.3845  0.4526
  577MOL0     C77786   9.148   1.060   4.875 -0.3851  0.0004 -0.6046
  577MOL0     C77787   9.152   1.163   4.962 -0.2314  0.5987 -0.6230
  577MOL0     C77788   9.278   1.242   4.959  0.4579  0.8773  0.3061
  577MOL0     C77789   9.044   1.184   5.056  1.6455  0.0426  0.1343
  577MOL0     C77790   9.031   1.302   5.146  0.7846  0.3414 -0.0187
  577MOL0     O77791   8.908   1.361   5.170 -0.1805  0.5821  1.0553
  577MOL0     C77792   8.876   1.468   5.249  0.9176 -0.7360  0.3182
  577MOL0     C77793   8.968   1.551   5.312  0.4390 -0.3080 -0.1783
  577MOL0     C77794   8.914   1.662   5.391 -0.1584 -0.3893  1.3367
  577MOL0     C77795   8.775   1.681   5.401 -0.1985 -0.5498  0.0570
  577MOL0     O77796   8.737   1.782   5.488 -0.2590 -0.4933  0.6417
  577MOL0     C77797   8.612   1.808   5.539  1.0758 -0.5816 -0.0205
  577MOL0     C77798   8.597   1.725   5.675 -0.8215 -0.0112 -0.6422
  577MOL0     C77799   8.456   1.744   5.740 -1.4046  0.2774 -0.0704
  577MOL0     C77800   8.460   1.753   5.888 -0.0488  0.1496  0.5950
  577MOL0     C77801   8.518   1.621   5.954 -0.0275  0.9752  0.4618
  577MOL0     C77802   8.447   1.601   6.099  0.9068  0.2537  0.0995
  577MOL0     C77803   8.488   1.472   6.172  0.2522  0.5975  0.4266
  577MOL0     C77804   8.400   1.458   6.300  0.2068  0.3454  0.0116
  577MOL0    Cl77805   8.441   1.575   6.458  0.3593  0.6430  0.2152
  577MOL0     C77806   8.687   1.598   5.326 -0.2202 -0.1021 -0.2383
  577MOL0     C77807   8.738   1.491   5.262  0.0673  1.4612  1.2493
  577MOL0     O77808   9.137   1.349   5.183  0.1651  1.1126 -0.4394
  577MOL0     C77809   8.936   1.097   5.054 -0.1399  0.2446  0.3915
  577MOL0     C77810   8.937   0.987   4.972 -0.2446 -0.1821  0.2147
  577MOL0     N77811   9.258   0.984   4.406 -0.6822  0.4590 -0.1863
  577MOL0     N77812   9.323   1.072   4.330 -0.4361  0.0309 -0.4887
  577MOL0     C77813   8.873   0.825   3.834  0.0381 -0.4260  0.0141
  577MOL0     C77814   9.003   0.784   3.795 -0.3395  0.9479  0.4422
  577MOL0     C77815   9.443   0.728   3.764  0.2286 -0.0414  0.9548
  577MOL0     C77816   9.540   0.823   3.746 -0.8299 -0.4540  0.0796
  577MOL0     C77817   9.663   0.783   3.697 -0.7058  0.3382  0.2774
  577MOL0     C77818   9.699   0.648   3.670  0.9048  0.1358 -0.3811
  577MOL0     O77819   9.829   0.617   3.641  0.5431  0.1221  0.4419
  577MOL0     C77820   9.872   0.477   3.610  0.2592 -0.0114  0.8707
  577MOL0     C77821   9.862   0.441   3.464  0.6337  0.1741 -0.4563
  577MOL0     C77822   9.849   0.286   3.460  0.7501 -0.6220 -0.3322
  577MOL0     C77823   9.992   0.221   3.477 -0.7877  1.4842 -0.1790
  577MOL0     C77824  10.103   0.249   3.380  1.0232 -0.9330  0.5905
  577MOL0     C77825  10.188   0.271   3.296  0.3030 -0.9316  0.2877
  577MOL0     C77826   9.592   0.554   3.676  0.5794  1.0866 -0.5250
  577MOL0     C77827   9.470   0.587   3.735 -0.1607 -0.1091 -0.3489
  577MOL0     H77828   9.105   0.626   4.086  0.2101 -2.4959 -1.7306
  577MOL0     H77829   8.876   0.712   4.155 -3.1359  2.7355 -0.2738
  577MOL0     H77830   8.623   0.954   3.867 -0.0892  0.7231  1.1473
  577MOL0     H77831   8.515   0.912   3.996 -0.3559 -1.3581 -3.2325
  577MOL0     H77832   8.592   1.146   4.019 -1.3855 -0.6354 -0.0628
  577MOL0     H77833   8.646   1.036   4.152 -0.8638 -2.4887 -0.2513
  577MOL0     H77834   8.874   1.050   4.070  0.2563 -0.9747 -0.5351
  577MOL0     H77835   8.824   1.089   3.897 -2.8890  1.9952 -1.5110
  577MOL0     H77836   8.753   1.304   3.978 -1.0912 -5.3816 -2.6111
  577MOL0     H77837   8.812   1.276   4.142 -0.2283 -0.5226  0.3697
  577MOL0     H77838   8.989   1.290   3.888 -4.3060 -0.0641 -0.8176
  577MOL0     H77839   9.011   1.389   4.031  0.4095  0.0146  1.0500
  577MOL0     H77840   9.039   1.163   4.158 -0.7299  0.7568 -1.1397
  577MOL0     H77841   9.082   1.099   4.004 -3.1798  0.0718 -1.6962
  577MOL0     H77842   9.248   1.280   3.960 -0.6942  0.2503 -1.1589
  577MOL0     H77843   9.232   1.334   4.131  0.8484  0.1423 -0.2404
  577MOL0     H77844   9.434   1.183   4.097 -0.5823  1.6493 -2.7331
  577MOL0     H77845   9.336   1.076   4.001 -1.9333 -0.9404  0.4098
  577MOL0     H77846   9.203   0.869   4.102  1.3711 -0.7318  0.0339
  577MOL0     H77847   9.107   0.716   4.291  0.8054 -1.0939  0.3686
  577MOL0     H77848   9.181   0.723   4.443 -3.4980 -1.5936  0.2190
  577MOL0     H77849   8.927   0.735   4.436 -1.6993  2.9045  0.9292
  577MOL0     H77850   8.945   0.886   4.345  2.5977  0.6808 -2.4624
  577MOL0     H77851   8.892   0.886   4.612  0.0061  2.3924  0.2021
  577MOL0     H77852   9.008   1.005   4.555  0.3187  0.3014  1.9863
  577MOL0     H77853   9.184   0.891   4.655 -0.1173 -0.8247 -4.4889
  577MOL0     H77854   9.115   0.736   4.657 -1.1827 -0.2569  2.0593
  577MOL0     H77855   9.235   1.043   4.812  0.8832  2.2217  0.4218
  577MOL0     H77856   9.344   1.207   5.039  5.0018 -1.0613 -3.8141
  577MOL0     H77857   9.340   1.228   4.871  0.6881  0.3646  0.5474
  577MOL0     H77858   9.267   1.350   4.964  1.7105  1.4532 -4.3956
  577MOL0     H77859   9.075   1.532   5.307  1.2360  2.8119  2.0234
  577MOL0     H77860   8.979   1.727   5.449 -2.9869  3.4019  0.6005
  577MOL0     H77861   8.608   1.917   5.534  2.1089 -0.5966 -2.3480
  577MOL0     H77862   8.529   1.786   5.472 -0.6337  1.4123  1.2870
  577MOL0     H77863   8.619   1.620   5.654  0.0015 -0.4380  1.9798
  577MOL0     H77864   8.669   1.764   5.748 -2.4603 -1.2893  1.7899
  577MOL0     H77865   8.407   1.648   5.719  1.0159 -2.1550  4.0652
  577MOL0     H77866   8.400   1.825   5.694 -0.9023  1.2531  0.9747
  577MOL0     H77867   8.517   1.840   5.922 -0.0818  1.1273 -1.6897
  577MOL0     H77868   8.356   1.767   5.921 -1.0364 -0.1590 -2.1318
  577MOL0     H77869   8.625   1.636   5.970  0.2107  1.2927 -1.2574
  577MOL0     H77870   8.496   1.528   5.901  3.1021 -0.9806  2.2705
  577MOL0     H77871   8.484   1.689   6.152  1.5690  1.1059 -1.6780
  577MOL0     H77872   8.338   1.602   6.089  0.8126  3.6398  0.4882
  577MOL0     H77873   8.591   1.477   6.208  0.1954  3.3162  0.4021
  577MOL0     H77874   8.480   1.389   6.101 -0.6674  2.1651 -1.3985
  577MOL0     H77875   8.393   1.355   6.336 -2.3779  1.0419  1.7454
  577MOL0     H77876   8.299   1.485   6.268  0.6294 -1.2498 -3.0896
  577MOL0     H77877   8.581   1.622   5.329 -0.4961 -1.0847  4.1245
  577MOL0     H77878   8.674   1.416   5.216  3.4875  0.7684 -3.0629
  577MOL0     H77879   8.853   1.113   5.122 -0.1377 -1.2316  0.7680
  577MOL0     H77880   8.872   0.900   4.977  0.9599 -1.1664 -0.5845
  577MOL0     H77881   8.806   0.858   3.756  1.8232 -1.5777 -2.1121
  577MOL0     H77882   9.018   0.801   3.689 -1.7191  0.7040  0.1861
  577MOL0     H77883   9.518   0.926   3.770 -0.5102  0.4763 -3.1672
  577MOL0     H77884   9.749   0.849   3.687 -0.4501 -0.1538 -0.9466
  577MOL0     H77885   9.979   0.472   3.636  0.6069 -2.8907 -0.6275
  577MOL0     H77886   9.831   0.400   3.676  0.5348 -0.2600  0.7600
  577MOL0     H77887   9.944   0.490   3.411  1.5386 -0.4682  0.3284
  577MOL0     H77888   9.764   0.472   3.425  0.9105  1.6142 -0.0685
  577MOL0     H77889   9.805   0.252   3.366  0.5540 -1.9334  0.2132
  577MOL0     H77890   9.784   0.255   3.543  3.5527 -3.5158  0.9998
  577MOL0     H77891   9.994   0.115   3.504 -2.0649  1.6966  0.8439
  577MOL0     H77892  10.032   0.262   3.571  0.1955  0.8857 -0.3160
  577MOL0     H77893  10.256   0.294   3.217 -2.8907 -0.3716 -2.5278
  577MOL0     H77894   9.602   0.448   3.658 -1.0272  0.6829  0.6692
  577MOL0     H77895   9.384   0.520   3.742 -2.7585  2.7823 -2.3081
  578MOL0     O77896   8.611   9.737   1.103  0.4845  0.0989  0.3639
  578MOL0     C77897   8.578   9.829   1.177 -0.1656  0.4869 -0.8553
  578MOL0     O77898   8.641   9.951   1.185  0.7038 -0.3312  0.0906
  578MOL0     C77899   8.730   9.977   1.085 -0.0006  0.0679  0.2754
  578MOL0     C77900   8.856   9.910   1.090  0.3768  0.5876  0.7946
  578MOL0     C77901   8.952   9.934   0.998 -0.8844 -0.1218 -0.0977
  578MOL0     C77902   8.922  10.009   0.883 -0.1189  0.2342  0.3539
  578MOL0     O77903   9.016  10.022   0.786 -0.4209 -0.1074 -0.5334
  578MOL0     C77904   9.002  10.121   0.685 -0.7959  0.1501  0.1508
  578MOL0     C77905   9.032  10.258   0.753  0.0412  0.0128  0.9302
  578MOL0     C77906   9.056  10.380   0.661 -0.2111 -0.1042  0.0052
  578MOL0     C77907   9.173  10.351   0.563  0.2884 -0.5340 -0.2204
  578MOL0     C77908   9.204  10.487   0.493  0.5524  0.2092 -0.3832
  578MOL0     C77909   9.320  10.556   0.567  0.2169  0.5257 -0.1244
  578MOL0     C77910   9.358  10.692   0.506  0.2137 -0.4983 -0.8409
  578MOL0     C77911   9.504  10.697   0.456 -0.5569  0.0371  0.0601
  578MOL0     N77912   9.599  10.703   0.567  0.0654  0.1973 -0.9539
  578MOL0     C77913   9.591  10.790   0.672 -0.9943 -0.1070  0.0206
  578MOL0     C77914   9.706  10.785   0.735 -0.1737 -1.0024  0.2318
  578MOL0     C77915   9.739  10.867   0.858  0.4895  0.5979  0.4188
  578MOL0     C77916   9.679  10.803   0.978  1.0034 -0.2442 -0.1232
  578MOL0     C77917   9.721  10.658   1.005 -0.4263 -0.2641 -0.2591
  578MOL0     C77918   9.675  10.607   1.139  0.4203  0.2801 -0.3716
  578MOL0     O77919   9.754  10.489   1.164 -0.2761 -0.0501  0.2574
  578MOL0     C77920   9.892  10.495   1.186 -0.2494  0.3131  0.4522
  578MOL0     C77921   9.967  10.603   1.226  0.2655 -0.3091 -0.1357
  578MOL0     C77922  10.116  10.595   1.230  0.7163 -0.6527 -0.0717
  578MOL0     C77923  10.181  10.726   1.274  0.2882  0.4056 -0.2801
  578MOL0     C77924  10.187  10.476   1.216  0.2337  0.1675  0.3295
  578MOL0     C77925  10.328  10.445   1.240 -0.1896  0.2269  0.7892
  578MOL0     O77926  10.361  10.309   1.246 -0.3367 -0.8591 -1.0887
  578MOL0     C77927  10.488  10.276   1.277 -0.8912  0.0466 -0.3768
  578MOL0     C77928  10.600  10.329   1.215  0.5348 -0.4286  0.5657
  578MOL0     C77929  10.727  10.287   1.238 -0.0544  0.2470  0.4041
  578MOL0     C77930  10.750  10.170   1.314 -0.1536 -0.7975  0.6184
  578MOL0     O77931  10.882  10.120   1.324 -0.2869 -0.5209 -0.3869
  578MOL0     C77932  10.905  10.007   1.404 -0.7217  0.0414  1.5194
  578MOL0     C77933  10.959  10.050   1.537  0.0327  0.0992 -0.0898
  578MOL0     C77934  10.849  10.103   1.625  0.6371 -0.8988  0.1600
  578MOL0     C77935  10.912  10.123   1.765 -0.3121 -0.0292  0.0345
  578MOL0     C77936  10.804  10.169   1.872 -0.1949  1.0525  0.1365
  578MOL0     C77937  10.845  10.153   2.018  0.4711  0.2237 -0.0064
  578MOL0     C77938  10.788  10.043   2.096 -0.0687  0.0957 -0.1915
  578MOL0     C77939  10.649  10.074   2.150 -0.5580 -0.3548  0.9474
  578MOL0    Cl77940  10.570   9.930   2.225  0.2330 -0.0835  0.0380
  578MOL0     C77941  10.636  10.112   1.370 -0.4174  0.2338 -0.4372
  578MOL0     C77942  10.508  10.161   1.352 -0.1487  0.2614  0.4896
  578MOL0     O77943  10.415  10.537   1.246 -0.5066 -1.1317  0.9677
  578MOL0     C77944  10.107  10.380   1.167 -0.1115 -0.4637 -0.1649
  578MOL0     C77945   9.966  10.384   1.151  0.0594 -0.5067  0.1198
  578MOL0     N77946   9.789  10.697   0.668  0.2613  0.0387 -0.5789
  578MOL0     N77947   9.717  10.644   0.574  0.0240 -0.2726 -0.0376
  578MOL0     C77948   8.787  10.064   0.871  0.2264 -0.9524 -0.6405
  578MOL0     C77949   8.697  10.048   0.972 -0.4648  0.6406  0.3651
  578MOL0     C77950   8.475   9.797   1.281 -0.3183 -1.2843 -0.6249
  578MOL0     C77951   8.443   9.899   1.368  0.1645 -0.3134 -0.3992
  578MOL0     C77952   8.349   9.876   1.476 -0.6449 -1.1557  0.1324
  578MOL0     C77953   8.287   9.753   1.486  1.0162 -0.0246  0.4785
  578MOL0     O77954   8.203   9.721   1.583  0.2340  0.0521  0.3177
  578MOL0     C77955   8.074   9.781   1.576  0.3988  0.7385  0.6192
  578MOL0     C77956   8.017   9.790   1.710 -0.1586 -0.4757  0.6340
  578MOL0     C77957   7.996   9.651   1.778 -0.2410  0.1364  0.0434
  578MOL0     C77958   8.110   9.631   1.876  0.5758  1.2418  0.6022
  578MOL0     C77959   8.090   9.728   1.990  0.1218 -0.1074 -1.0378
  578MOL0     C77960   8.060   9.800   2.085 -0.2743  0.2294  0.6078
  578MOL0     C77961   8.318   9.649   1.391 -0.6412 -1.1911 -0.6478
  578MOL0     C77962   8.408   9.674   1.289 -0.4414  0.9959  1.0242
  578MOL0     H77963   8.871   9.841   1.174 -0.8302 -1.9550 -0.9458
  578MOL0     H77964   9.050   9.891   1.013 -0.6776 -0.2949 -1.7459
  578MOL0     H77965   9.082  10.096   0.615 -1.2341  1.9304 -1.0539
  578MOL0     H77966   8.911  10.128   0.626  1.5538  0.6762 -3.7340
  578MOL0     H77967   8.941  10.281   0.809  0.3099  1.0833  0.9387
  578MOL0     H77968   9.117  10.247   0.822  3.4906 -2.8037 -3.2666
  578MOL0     H77969   8.959  10.401   0.615  0.5436  2.4139 -0.5820
  578MOL0     H77970   9.083  10.461   0.729 -2.2867 -0.3290  1.1964
  578MOL0     H77971   9.261  10.322   0.621  1.2301 -2.3158 -2.3869
  578MOL0     H77972   9.157  10.270   0.492  0.7442  0.8838 -2.0395
  578MOL0     H77973   9.227  10.478   0.387  1.7776  1.2761 -0.2313
  578MOL0     H77974   9.116  10.549   0.511  0.9929  0.0712  2.9501
  578MOL0     H77975   9.294  10.590   0.668  0.5072  3.5905 -0.9598
  578MOL0     H77976   9.405  10.491   0.585  0.1337  0.7968  1.4010
  578MOL0     H77977   9.292  10.719   0.423 -0.5871 -1.3000 -0.4747
  578MOL0     H77978   9.348  10.771   0.581 -0.5452 -1.0608 -0.3394
  578MOL0     H77979   9.518  10.785   0.393  0.4876  2.1353  3.0248
  578MOL0     H77980   9.530  10.611   0.393 -0.8439  1.2409 -1.7805
  578MOL0     H77981   9.516  10.855   0.715 -1.1375 -0.8225  0.8965
  578MOL0     H77982   9.847  10.866   0.875  0.7322  2.6496 -0.7104
  578MOL0     H77983   9.719  10.974   0.851 -1.6422  0.3729  1.9708
  578MOL0     H77984   9.571  10.790   0.970  1.0363  0.4958 -2.8676
  578MOL0     H77985   9.710  10.863   1.064  0.9290 -1.8438  1.0699
  578MOL0     H77986   9.830  10.665   0.993 -0.1837 -0.3957  1.6604
  578MOL0     H77987   9.680  10.590   0.929 -4.4318  3.7185 -2.0896
  578MOL0     H77988   9.570  10.601   1.111  0.7403 -1.8871 -1.3468
  578MOL0     H77989   9.678  10.677   1.223  0.7480 -3.0695  2.6401
  578MOL0     H77990   9.897  10.683   1.245  0.9449  0.5842 -1.2674
  578MOL0     H77991  10.121  10.811   1.239  1.6682  2.9816  2.9504
  578MOL0     H77992  10.207  10.733   1.380  0.1500 -0.0350 -0.2156
  578MOL0     H77993  10.275  10.737   1.219  0.7593  2.1232  0.7695
  578MOL0     H77994  10.593  10.414   1.148  3.1590  0.6047  1.5046
  578MOL0     H77995  10.811  10.351   1.212 -1.5147  1.8654 -0.5655
  578MOL0     H77996  10.819   9.942   1.424  0.6318 -1.4827  2.6176
  578MOL0     H77997  10.978   9.950   1.344 -2.4158  1.5440 -2.3109
  578MOL0     H77998  11.013   9.971   1.591  1.0380  2.0241  1.8455
  578MOL0     H77999  11.022  10.136   1.515 -3.5330  2.6746 -1.1417
  578MOL0     H78000  10.763  10.037   1.635 -0.8027  0.8925  0.0054
  578MOL0     H78001  10.810  10.200   1.594  0.7559 -0.0268  2.5825
  578MOL0     H78002  10.983  10.047   1.801 -0.2382 -0.5240 -1.1185
  578MOL0     H78003  10.983  10.205   1.748 -0.0254 -1.1048 -5.8529
  578MOL0     H78004  10.720  10.101   1.856 -1.1827  2.4127 -0.6293
  578MOL0     H78005  10.766  10.269   1.849 -2.0258  0.3185 -0.2269
  578MOL0     H78006  10.954  10.164   2.028  0.3814  0.5525  0.6662
  578MOL0     H78007  10.816  10.243   2.073 -0.3951  0.3350 -0.6269
  578MOL0     H78008  10.852  10.018   2.181  1.1828  3.0804 -0.1203
  578MOL0     H78009  10.773   9.954   2.034  0.8281  0.8911 -1.5972
  578MOL0     H78010  10.579  10.111   2.075  3.2580  1.4184 -2.1444
  578MOL0     H78011  10.667  10.149   2.227 -0.1555  1.0282 -0.4241
  578MOL0     H78012  10.633  10.023   1.432  0.3782  0.6274  0.1828
  578MOL0     H78013  10.424  10.102   1.388 -0.8354  0.6282 -0.4723
  578MOL0     H78014  10.160  10.292   1.132  3.2774  1.4189 -0.2828
  578MOL0     H78015   9.899  10.303   1.122 -1.8972  1.3056 -0.7295
  578MOL0     H78016   8.737  10.116   0.790 -7.0970 -0.4044  3.4169
  578MOL0     H78017   8.599  10.089   0.950 -0.2043  0.9605 -0.2002
  578MOL0     H78018   8.494   9.995   1.373  2.2499 -1.3917  0.3125
  578MOL0     H78019   8.357   9.945   1.559  2.4230 -0.3612 -0.7172
  578MOL0     H78020   8.078   9.880   1.529  0.5635 -0.3245 -1.7466
  578MOL0     H78021   8.006   9.720   1.516  0.3194 -1.5806  2.8552
  578MOL0     H78022   7.922   9.844   1.710 -0.2247 -0.5779 -0.1548
  578MOL0     H78023   8.078   9.846   1.781 -0.5284 -4.2728  4.3333
  578MOL0     H78024   8.006   9.571   1.705 -1.0362 -0.9634  1.1014
  578MOL0     H78025   7.898   9.636   1.823 -0.7178 -1.6534 -1.4475
  578MOL0     H78026   8.208   9.648   1.830  0.1259 -1.0922 -1.4807
  578MOL0     H78027   8.114   9.530   1.919 -1.3271  0.4026 -1.0470
  578MOL0     H78028   8.030   9.876   2.155 -0.0023  0.6978  0.2246
  578MOL0     H78029   8.258   9.560   1.410 -0.9835 -0.4414  2.1994
  578MOL0     H78030   8.431   9.595   1.217  1.4641  0.0749  2.5575
  579MOL0     O78031   3.966   9.408   3.990 -1.0111 -0.2307  0.1847
  579MOL0     C78032   3.944   9.307   3.919 -0.2549 -0.0799  0.1096
  579MOL0     O78033   4.008   9.195   3.934 -0.3322 -0.1231 -0.4081
  579MOL0     C78034   4.134   9.173   3.993 -0.0751  0.1443 -0.1056
  579MOL0     C78035   4.158   9.046   4.041 -0.6699 -0.0840 -0.7316
  579MOL0     C78036   4.282   9.016   4.096  0.2069  0.2740 -0.9535
  579MOL0     C78037   4.380   9.111   4.125  0.0185 -0.5894 -0.4754
  579MOL0     O78038   4.498   9.075   4.171 -0.9131  0.3869  1.2322
  579MOL0     C78039   4.584   9.159   4.245 -0.7042 -0.6036 -0.5050
  579MOL0     C78040   4.729   9.111   4.249  0.1164 -0.1960  1.1050
  579MOL0     C78041   4.779   9.140   4.102  0.5597  0.8544  1.0224
  579MOL0     C78042   4.924   9.099   4.067 -0.3003 -0.2861  0.0484
  579MOL0     C78043   4.959   9.127   3.917  0.1972  0.6513 -0.2580
  579MOL0     C78044   5.105   9.076   3.889 -1.0169  0.2428  0.6084
  579MOL0     C78045   5.123   9.071   3.736  0.2348 -0.4193  0.2158
  579MOL0     C78046   5.252   8.997   3.695 -0.7027 -0.3401  0.7386
  579MOL0     N78047   5.242   8.849   3.718  0.5108  0.0567  0.6992
  579MOL0     C78048   5.187   8.768   3.619  0.3482  0.1045 -0.2060
  579MOL0     C78049   5.169   8.652   3.682 -0.0965 -0.2143  0.3472
  579MOL0     C78050   5.084   8.539   3.642  0.5347  0.8422  0.4173
  579MOL0     C78051   5.123   8.398   3.696 -0.1279  0.0336  0.2606
  579MOL0     C78052   5.019   8.284   3.647  0.2693  0.0665 -0.2704
  579MOL0     C78053   4.915   8.250   3.751  0.5755  1.4376 -1.1982
  579MOL0     O78054   4.807   8.189   3.687  0.0944 -0.1294  0.4976
  579MOL0     C78055   4.840   8.090   3.595 -0.0536  0.0240  1.0040
  579MOL0     C78056   4.815   8.110   3.460 -0.1142  0.0095  0.1311
  579MOL0     C78057   4.846   8.010   3.360  0.1215 -0.5922 -0.2343
  579MOL0     C78058   4.797   8.029   3.221 -0.4095  0.2990 -0.2340
  579MOL0     C78059   4.905   7.886   3.409 -0.1708 -0.9465 -0.1373
  579MOL0     C78060   4.954   7.777   3.323 -0.2158 -0.6076  0.3910
  579MOL0     O78061   4.913   7.768   3.194 -1.4245  0.8151 -0.5548
  579MOL0     C78062   4.928   7.644   3.140 -0.2197  0.2673  0.1896
  579MOL0     C78063   5.038   7.630   3.058 -0.4611 -0.0383  0.6733
  579MOL0     C78064   5.067   7.512   2.995  0.2644 -0.0725 -0.7714
  579MOL0     C78065   4.979   7.400   3.013 -0.2765  0.3375 -0.1679
  579MOL0     O78066   4.996   7.290   2.945 -0.0934 -0.1277  0.3607
  579MOL0     C78067   4.953   7.164   3.003 -0.5023 -0.4049 -0.0191
  579MOL0     C78068   5.042   7.071   2.934  0.0553  0.6704  0.0570
  579MOL0     C78069   5.020   6.919   2.965 -0.6648  0.1256 -0.1508
  579MOL0     C78070   5.064   6.882   3.118  0.4155 -0.1491 -0.5516
  579MOL0     C78071   5.082   6.744   3.166 -0.0514 -0.6264 -1.0478
  579MOL0     C78072   4.956   6.664   3.142  0.6724  0.2143  0.0511
  579MOL0     C78073   4.817   6.683   3.212  0.4324  0.5423  0.6016
  579MOL0     C78074   4.691   6.649   3.133  0.0189 -0.0719  0.3330
  579MOL0    Cl78075   4.674   6.773   3.012  0.3004 -0.1463  0.0108
  579MOL0     C78076   4.874   7.412   3.103  0.4580  0.5210 -0.3046
  579MOL0     C78077   4.844   7.534   3.164 -1.3035  0.5461  0.7961
  579MOL0     O78078   5.017   7.686   3.377  0.5689 -0.0797 -0.0074
  579MOL0     C78079   4.926   7.863   3.546 -0.1406 -1.0561  0.0485
  579MOL0     C78080   4.900   7.971   3.638  0.0540  0.2967 -0.1558
  579MOL0     N78081   5.222   8.659   3.810  0.5736 -0.1747 -0.0200
  579MOL0     N78082   5.270   8.779   3.826 -0.1359  0.3862 -0.5878
  579MOL0     C78083   4.351   9.241   4.080 -0.0178 -0.4114  0.9779
  579MOL0     C78084   4.228   9.276   4.024  0.3324 -0.7409 -0.1627
  579MOL0     C78085   3.838   9.315   3.814 -0.6389  0.5966 -0.3739
  579MOL0     C78086   3.770   9.429   3.797  0.5361  0.2478 -0.0348
  579MOL0     C78087   3.667   9.448   3.707 -0.0495 -0.6855 -0.4319
  579MOL0     C78088   3.620   9.342   3.623  0.0270  0.1239  0.1438
  579MOL0     O78089   3.507   9.352   3.537  0.4985  0.0486  0.0601
  579MOL0     C78090   3.397   9.447   3.553 -0.7175 -0.7587 -0.0006
  579MOL0     C78091   3.342   9.468   3.690  0.4514  0.6346 -0.0923
  579MOL0     C78092   3.311   9.328   3.763 -0.1169  0.2282  0.0182
  579MOL0     C78093   3.311   9.333   3.919 -0.3043 -0.1133  1.0980
  579MOL0     C78094   3.439   9.367   3.980  0.1764 -0.5821 -0.3514
  579MOL0     C78095   3.540   9.395   4.047 -0.0201 -0.8109  0.9195
  579MOL0     C78096   3.692   9.220   3.632 -0.0833  0.2570 -0.2709
  579MOL0     C78097   3.799   9.208   3.727 -0.1113 -0.3600 -0.0765
  579MOL0     H78098   4.079   8.971   4.037 -0.3070 -0.6749  1.8559
  579MOL0     H78099   4.299   8.923   4.148 -3.0696 -0.3531 -0.8000
  579MOL0     H78100   4.594   9.265   4.219  2.5892  0.0278  2.4790
  579MOL0     H78101   4.555   9.149   4.350 -0.3240  0.6584 -0.2632
  579MOL0     H78102   4.794   9.164   4.320  2.1677 -1.5409  0.3090
  579MOL0     H78103   4.736   9.009   4.287 -0.2249 -0.0776  1.5071
  579MOL0     H78104   4.716   9.083   4.033  2.8427  2.4277 -2.7294
  579MOL0     H78105   4.777   9.247   4.077  2.8251  0.1013 -3.5216
  579MOL0     H78106   4.994   9.153   4.131  0.1332 -1.2097  0.3754
  579MOL0     H78107   4.926   8.990   4.077 -0.7175 -0.1983  1.1921
  579MOL0     H78108   4.883   9.082   3.852  0.1888 -1.1733  0.9498
  579MOL0     H78109   4.956   9.234   3.895 -0.8642  1.1158  1.9241
  579MOL0     H78110   5.172   9.150   3.933 -0.4540 -0.9762  1.8457
  579MOL0     H78111   5.118   8.970   3.914 -0.1344 -0.6386 -2.9976
  579MOL0     H78112   5.037   9.032   3.681 -0.4642  2.5051 -0.9511
  579MOL0     H78113   5.135   9.169   3.690 -1.0194 -1.0725 -1.6553
  579MOL0     H78114   5.335   9.048   3.745 -2.4329  2.6220  0.7750
  579MOL0     H78115   5.261   9.010   3.587 -0.0115  2.0136  1.0321
  579MOL0     H78116   5.158   8.806   3.521  0.2712  2.5587  0.7022
  579MOL0     H78117   4.982   8.549   3.678 -0.7073 -4.1731 -0.9016
  579MOL0     H78118   5.076   8.541   3.533 -0.2523  1.0145  0.4780
  579MOL0     H78119   5.139   8.386   3.804  2.5181  0.8842  0.0388
  579MOL0     H78120   5.218   8.372   3.648 -1.2537  1.1930 -2.8139
  579MOL0     H78121   5.066   8.196   3.604  2.8042  1.4083 -0.4689
  579MOL0     H78122   4.953   8.333   3.574 -3.4685 -1.9187  1.4762
  579MOL0     H78123   4.880   8.339   3.804  1.7984  0.3904  1.5838
  579MOL0     H78124   4.946   8.188   3.835 -0.4471  0.5468 -1.4480
  579MOL0     H78125   4.785   8.211   3.435 -2.6136 -0.9125 -0.9479
  579MOL0     H78126   4.868   8.037   3.139 -1.3696 -0.2362 -1.1388
  579MOL0     H78127   4.734   7.945   3.188 -0.1289  0.8468 -2.2513
  579MOL0     H78128   4.721   8.107   3.229 -1.6403 -0.9723  0.9837
  579MOL0     H78129   5.098   7.720   3.047 -3.7323  2.3367  0.7623
  579MOL0     H78130   5.155   7.531   2.934  2.0937  0.5005  1.8822
  579MOL0     H78131   4.983   7.165   3.108  2.5736  2.1937 -0.7861
  579MOL0     H78132   4.848   7.137   2.986 -0.7426 -0.0142  0.7736
  579MOL0     H78133   5.033   7.085   2.826  0.3992 -0.8708 -0.2092
  579MOL0     H78134   5.142   7.096   2.970  0.5649 -1.8731  0.6151
  579MOL0     H78135   5.070   6.845   2.902  2.4153 -1.1951  3.4102
  579MOL0     H78136   4.912   6.905   2.960 -0.6641 -0.9027  1.6817
  579MOL0     H78137   5.163   6.927   3.125  1.6910 -2.9751  1.0271
  579MOL0     H78138   5.015   6.945   3.192 -0.1977 -1.3512  0.0860
  579MOL0     H78139   5.107   6.757   3.271 -0.2566  0.0228 -1.0741
  579MOL0     H78140   5.158   6.686   3.113 -1.1782 -2.6429 -0.5600
  579MOL0     H78141   4.940   6.662   3.034 -2.2289 -1.9761  0.3811
  579MOL0     H78142   4.986   6.563   3.174 -1.2012 -0.9268 -1.5437
  579MOL0     H78143   4.825   6.790   3.234 -0.8210  0.2208  2.9774
  579MOL0     H78144   4.819   6.633   3.309  1.4880  0.7717  0.7045
  579MOL0     H78145   4.612   6.647   3.209 -0.6709 -2.1298 -0.3632
  579MOL0     H78146   4.693   6.555   3.077 -1.5527 -1.8160  2.9752
  579MOL0     H78147   4.808   7.331   3.131  1.9775 -0.8812 -0.6143
  579MOL0     H78148   4.749   7.545   3.217 -3.3110  2.0590 -2.7636
  579MOL0     H78149   4.960   7.772   3.595  4.5563  0.1852 -0.4234
  579MOL0     H78150   4.912   7.960   3.745 -2.2655  1.0422  0.2503
  579MOL0     H78151   4.423   9.323   4.075 -2.1077  1.6224  2.2332
  579MOL0     H78152   4.221   9.379   3.989  1.2147 -0.7840 -0.4791
  579MOL0     H78153   3.794   9.523   3.847  3.0329 -0.7743  0.8828
  579MOL0     H78154   3.628   9.550   3.703 -0.3918 -0.5369  3.0897
  579MOL0     H78155   3.429   9.546   3.520 -3.3541  1.1823  2.6608
  579MOL0     H78156   3.324   9.408   3.482 -0.6572  0.6001 -0.8328
  579MOL0     H78157   3.248   9.523   3.680 -0.4630 -0.7114  0.5971
  579MOL0     H78158   3.422   9.521   3.743 -0.4782  3.6641 -1.5557
  579MOL0     H78159   3.380   9.253   3.724  3.1806  2.7570  0.6072
  579MOL0     H78160   3.209   9.301   3.732 -0.4340  2.1802 -0.7871
  579MOL0     H78161   3.292   9.232   3.957  3.3861 -1.8717 -1.1183
  579MOL0     H78162   3.240   9.410   3.947 -0.5390 -0.0420  0.3209
  579MOL0     H78163   3.627   9.400   4.109  0.0505 -0.4043  0.7909
  579MOL0     H78164   3.661   9.132   3.577  0.3804 -1.4395  2.0136
  579MOL0     H78165   3.860   9.120   3.745  0.9877  0.0298 -1.6806
  580MOL0     O78166   9.479   9.159   2.271  0.3458 -0.3801 -0.3506
  580MOL0     C78167   9.393   9.099   2.339 -0.5106 -0.9872 -0.2601
  580MOL0     O78168   9.277   9.160   2.385  1.1386  0.3049 -1.2128
  580MOL0     C78169   9.251   9.293   2.369 -0.3536  0.3542 -0.2174
  580MOL0     C78170   9.354   9.406   2.377  1.0586  0.5974  0.3540
  580MOL0     C78171   9.309   9.540   2.362 -0.5245  0.2279  0.5895
  580MOL0     C78172   9.175   9.555   2.332  0.3696 -0.1202 -1.0882
  580MOL0     O78173   9.129   9.687   2.335  0.6343 -0.4405  0.3340
  580MOL0     C78174   9.170   9.762   2.222  0.5474 -0.8117 -0.2609
  580MOL0     C78175   9.041   9.807   2.145  0.3209  0.2580  0.1683
  580MOL0     C78176   8.951   9.707   2.075  0.5301 -0.3249 -0.2148
  580MOL0     C78177   8.868   9.760   1.953  0.3449  0.1836 -0.8914
  580MOL0     C78178   8.722   9.695   1.931 -0.2557 -0.9790 -0.3945
  580MOL0     C78179   8.615   9.762   2.019 -0.1911 -1.1130  0.1678
  580MOL0     C78180   8.475   9.712   2.001 -0.0462  0.4303 -0.1766
  580MOL0     C78181   8.441   9.566   2.042 -0.1510  0.3493 -0.2210
  580MOL0     N78182   8.476   9.534   2.176  0.4900  0.0894 -0.1139
  580MOL0     C78183   8.586   9.473   2.213 -0.9790 -0.2796  0.0334
  580MOL0     C78184   8.594   9.465   2.347  0.7359 -0.0318 -0.2379
  580MOL0     C78185   8.698   9.402   2.427  0.6602  0.0771 -0.7542
  580MOL0     C78186   8.658   9.255   2.446  0.1955  0.6269 -0.3139
  580MOL0     C78187   8.761   9.179   2.539 -0.2889  0.4650  0.2971
  580MOL0     C78188   8.744   9.189   2.689 -0.0852 -0.1017 -0.3964
  580MOL0     O78189   8.852   9.127   2.760 -0.0951 -0.3436 -0.3153
  580MOL0     C78190   8.972   9.191   2.751 -0.7940  0.0371 -0.4317
  580MOL0     C78191   8.995   9.328   2.743 -0.4503  0.5474 -0.2427
  580MOL0     C78192   9.125   9.380   2.745  0.6014 -0.0847 -0.2659
  580MOL0     C78193   9.153   9.526   2.717  0.4550 -0.4062 -0.1986
  580MOL0     C78194   9.238   9.300   2.766  0.2517 -1.1133 -0.3487
  580MOL0     C78195   9.374   9.340   2.789 -0.8397 -0.6903  0.1172
  580MOL0     O78196   9.463   9.238   2.754  0.3043  0.1397 -0.0987
  580MOL0     C78197   9.600   9.256   2.788  0.4338 -0.2041  0.0396
  580MOL0     C78198   9.696   9.325   2.723  0.1872 -0.6926  0.7494
  580MOL0     C78199   9.827   9.330   2.779  0.2958 -0.6458 -0.4381
  580MOL0     C78200   9.847   9.263   2.898 -0.1457 -0.8334  1.3222
  580MOL0     O78201   9.958   9.284   2.970  0.1003  0.0576  0.5243
  580MOL0     C78202  10.060   9.188   2.956 -0.4710  0.0952 -0.8379
  580MOL0     C78203  10.201   9.259   2.931 -0.3781  1.0381 -0.4379
  580MOL0     C78204  10.316   9.166   2.971 -0.5368  0.7261 -0.1802
  580MOL0     C78205  10.452   9.243   3.003 -0.0328  0.7019  0.2449
  580MOL0     C78206  10.561   9.159   3.069 -0.5403  0.5808 -0.1761
  580MOL0     C78207  10.697   9.225   3.055 -0.0128 -0.1372 -0.8064
  580MOL0     C78208  10.803   9.150   3.136 -1.6337 -0.0116 -0.7447
  580MOL0     C78209  10.942   9.221   3.138  0.2476 -0.0964 -0.2492
  580MOL0    Cl78210  10.938   9.389   3.202 -0.4875  0.2729 -0.2891
  580MOL0     C78211   9.747   9.189   2.959  0.1645  0.1988  0.3100
  580MOL0     C78212   9.618   9.186   2.904 -0.2805  0.3998 -0.4823
  580MOL0     O78213   9.401   9.446   2.844  0.2644 -0.6854 -0.3992
  580MOL0     C78214   9.216   9.159   2.776  0.3113 -0.1789  1.3657
  580MOL0     C78215   9.091   9.112   2.767  1.4953  0.7286  0.7916
  580MOL0     N78216   8.479   9.527   2.393  0.2678  0.8097 -0.5297
  580MOL0     N78217   8.410   9.565   2.294  0.2675  0.3905 -0.6058
  580MOL0     C78218   9.081   9.455   2.324 -0.4521 -0.0470  0.7762
  580MOL0     C78219   9.121   9.321   2.337  0.1060  0.5625  0.3177
  580MOL0     C78220   9.424   8.956   2.365  0.1766 -0.0643 -0.4609
  580MOL0     C78221   9.512   8.890   2.287 -0.5532  0.0864 -0.7402
  580MOL0     C78222   9.568   8.762   2.333  0.0576  0.6349 -0.2616
  580MOL0     C78223   9.501   8.699   2.439 -0.3136 -0.3219  0.6736
  580MOL0     O78224   9.536   8.574   2.473  1.0212  0.7375 -0.1157
  580MOL0     C78225   9.602   8.473   2.391 -0.7544  0.4041 -0.3258
  580MOL0     C78226   9.751   8.437   2.430 -0.8559 -0.7696 -0.6708
  580MOL0     C78227   9.747   8.378   2.573  0.0203 -0.9325  0.9179
  580MOL0     C78228   9.843   8.284   2.629 -0.6565  0.1544 -0.7810
  580MOL0     C78229   9.850   8.160   2.543 -0.4782 -0.6738  0.1930
  580MOL0     C78230   9.859   8.048   2.500 -1.2863 -0.1295  0.5137
  580MOL0     C78231   9.405   8.769   2.515  1.2724  0.2795  0.0071
  580MOL0     C78232   9.378   8.906   2.489 -0.5014  0.5826 -0.0394
  580MOL0     H78233   9.458   9.376   2.392  1.1974  1.2784  0.7964
  580MOL0     H78234   9.384   9.617   2.347  0.6017 -0.6386  1.6409
  580MOL0     H78235   9.229   9.852   2.241  1.5797 -1.1839 -1.5458
  580MOL0     H78236   9.241   9.707   2.160 -0.7111 -2.6166 -0.1840
  580MOL0     H78237   8.980   9.866   2.214 -1.4210  0.5342 -1.5158
  580MOL0     H78238   9.062   9.880   2.066  1.2423 -0.0133  0.1462
  580MOL0     H78239   8.991   9.615   2.033 -1.6104 -1.5577  0.2983
  580MOL0     H78240   8.879   9.687   2.156 -1.7986 -0.4409 -2.1925
  580MOL0     H78241   8.862   9.869   1.948  3.0891  0.3944 -1.6447
  580MOL0     H78242   8.928   9.735   1.865  0.5425 -0.1473 -0.6621
  580MOL0     H78243   8.682   9.709   1.830 -1.7949  0.9455  0.4431
  580MOL0     H78244   8.717   9.585   1.933  1.8266 -1.1094  1.9582
  580MOL0     H78245   8.654   9.762   2.122 -0.2641 -2.8800  0.2199
  580MOL0     H78246   8.609   9.868   1.993  4.5114 -0.1920  1.8143
  580MOL0     H78247   8.413   9.777   2.063  1.1318 -0.9887  2.6717
  580MOL0     H78248   8.430   9.730   1.902 -4.4337  0.9862  1.6723
  580MOL0     H78249   8.493   9.502   1.970 -1.5214 -0.8321 -0.2024
  580MOL0     H78250   8.335   9.580   2.022 -0.1803  3.4769  1.4566
  580MOL0     H78251   8.661   9.441   2.142 -2.2365  0.4121 -1.6815
  580MOL0     H78252   8.795   9.396   2.377 -0.5684 -3.3900 -3.1392
  580MOL0     H78253   8.710   9.449   2.525 -2.6586 -0.9078  0.2827
  580MOL0     H78254   8.651   9.205   2.349 -0.2892  1.6840 -0.8459
  580MOL0     H78255   8.562   9.253   2.499  1.5039  3.6318  2.4996
  580MOL0     H78256   8.866   9.200   2.516 -0.6797  1.8507 -0.3886
  580MOL0     H78257   8.755   9.073   2.515 -1.6504  0.4871  0.4860
  580MOL0     H78258   8.646   9.159   2.728 -1.0633  1.3080 -1.6680
  580MOL0     H78259   8.740   9.296   2.710 -0.6075 -0.1816 -0.0772
  580MOL0     H78260   8.911   9.397   2.737 -0.7937  0.0126 -2.2805
  580MOL0     H78261   9.058   9.571   2.687 -2.0658 -1.9741  4.4192
  580MOL0     H78262   9.200   9.582   2.798 -0.2333  2.1786 -1.4911
  580MOL0     H78263   9.231   9.526   2.641 -0.7835  0.8731 -1.5282
  580MOL0     H78264   9.663   9.378   2.635  0.2157 -1.4550  0.2697
  580MOL0     H78265   9.912   9.380   2.733 -0.6570  0.8020 -0.6789
  580MOL0     H78266  10.063   9.136   3.053 -0.1068  3.1457  0.9317
  580MOL0     H78267  10.032   9.102   2.895  2.5073 -1.7602  0.1777
  580MOL0     H78268  10.212   9.274   2.823  1.0978 -3.5006 -1.1133
  580MOL0     H78269  10.203   9.349   2.993 -1.0209 -0.8458  2.5047
  580MOL0     H78270  10.325   9.084   2.900  1.4633 -0.7813  1.6862
  580MOL0     H78271  10.280   9.117   3.062 -0.9990  0.2956 -0.5948
  580MOL0     H78272  10.497   9.258   2.904 -1.1181 -1.2958 -0.6100
  580MOL0     H78273  10.429   9.330   3.066 -0.8837 -0.1508  1.1358
  580MOL0     H78274  10.568   9.068   3.010  1.4335  0.6487 -0.1183
  580MOL0     H78275  10.545   9.138   3.176  0.4400 -1.4429 -0.3732
  580MOL0     H78276  10.726   9.248   2.951  1.7573  2.5076  0.1391
  580MOL0     H78277  10.698   9.326   3.098  3.3336 -0.7022  0.7858
  580MOL0     H78278  10.822   9.053   3.088 -0.8175 -0.6458  0.8107
  580MOL0     H78279  10.767   9.131   3.237  0.1434  5.0356  1.1199
  580MOL0     H78280  10.971   9.223   3.033  0.0117  0.8879 -0.3034
  580MOL0     H78281  11.017   9.155   3.182  2.1946  1.8810 -0.4554
  580MOL0     H78282   9.762   9.134   3.051  1.4746 -1.4771 -0.8527
  580MOL0     H78283   9.542   9.130   2.957  1.2684 -0.0751  1.3474
  580MOL0     H78284   9.295   9.088   2.798  0.2400 -1.0245 -0.9309
  580MOL0     H78285   9.074   9.006   2.782 -3.0807  1.3630  1.7215
  580MOL0     H78286   8.976   9.463   2.299 -0.1126 -2.3801 -1.8861
  580MOL0     H78287   9.045   9.247   2.312  0.4564  0.9741 -2.2809
  580MOL0     H78288   9.533   8.937   2.191 -2.1738 -1.1753 -1.7710
  580MOL0     H78289   9.658   8.723   2.287  0.5534  1.6903 -0.2279
  580MOL0     H78290   9.539   8.385   2.408  0.1503  0.4120  4.4680
  580MOL0     H78291   9.590   8.501   2.286 -3.1672 -2.6887 -1.0178
  580MOL0     H78292   9.817   8.524   2.420  1.5062 -2.2851  0.7083
  580MOL0     H78293   9.790   8.357   2.368  1.7356  1.8164 -2.6694
  580MOL0     H78294   9.651   8.332   2.598 -0.9016  0.3363 -0.1581
  580MOL0     H78295   9.749   8.460   2.646  0.0676 -0.5127  0.4478
  580MOL0     H78296   9.830   8.250   2.732 -1.2535 -1.1243 -1.2623
  580MOL0     H78297   9.939   8.333   2.650 -0.3422  0.3725 -2.5693
  580MOL0     H78298   9.857   7.943   2.476 -1.4034 -0.0249  0.0488
  580MOL0     H78299   9.367   8.714   2.601  0.0039 -1.9822 -1.8830
  580MOL0     H78300   9.328   8.966   2.564  0.7195 -1.0535  2.2041
  581MOL0     O78301  10.752   3.454   4.829 -0.1446 -0.8196  0.0959
  581MOL0     C78302  10.872   3.469   4.854 -0.0385  0.3997  0.3026
  581MOL0     O78303  10.943   3.582   4.833  0.4527 -0.1439 -0.2715
  581MOL0     C78304  10.880   3.689   4.772  0.2148 -0.2826  0.3666
  581MOL0     C78305  10.890   3.815   4.823 -1.0268 -0.2056 -0.1938
  581MOL0     C78306  10.866   3.933   4.738  0.0604  0.1105 -0.2229
  581MOL0     C78307  10.829   3.911   4.604  0.3898  0.1773 -0.1647
  581MOL0     O78308  10.818   4.006   4.503  0.4824 -0.1338  0.6320
  581MOL0     C78309  10.833   4.147   4.533 -0.2492  0.0004 -0.4450
  581MOL0     C78310  10.849   4.233   4.415 -0.0844 -0.5840 -0.2729
  581MOL0     C78311  10.735   4.205   4.312 -0.4292  0.3589  0.3191
  581MOL0     C78312  10.735   4.313   4.202  0.3287  0.2721  0.2341
  581MOL0     C78313  10.620   4.310   4.105 -0.0127  0.5376  0.0243
  581MOL0     C78314  10.624   4.205   3.996 -0.8449  0.2358 -0.2263
  581MOL0     C78315  10.492   4.139   3.950  0.1213 -1.0134 -0.5060
  581MOL0     C78316  10.512   4.039   3.841  0.1944  0.5905  0.7177
  581MOL0     N78317  10.579   4.095   3.724  0.6876  0.9935  0.4081
  581MOL0     C78318  10.519   4.191   3.649 -1.7541  0.5292  0.1603
  581MOL0     C78319  10.610   4.216   3.545  0.7513  0.3272 -0.2923
  581MOL0     C78320  10.592   4.298   3.424 -0.4675 -0.2258  0.4377
  581MOL0     C78321  10.576   4.460   3.436 -0.7736  0.2211  1.0588
  581MOL0     C78322  10.707   4.533   3.402 -0.0865 -0.4167  0.5700
  581MOL0     C78323  10.790   4.519   3.525 -0.1588 -0.0877  0.0151
  581MOL0     O78324  10.741   4.587   3.638  0.0519 -0.3997 -0.8596
  581MOL0     C78325  10.806   4.571   3.758 -0.5582 -0.0861  1.1060
  581MOL0     C78326  10.902   4.462   3.775  0.1108  1.0324  0.5736
  581MOL0     C78327  10.970   4.454   3.901 -0.1864  0.2682 -0.0004
  581MOL0     C78328  11.058   4.330   3.929  0.6529  0.9102  0.8118
  581MOL0     C78329  10.949   4.558   3.996 -0.1122 -0.5932 -0.2767
  581MOL0     C78330  11.023   4.561   4.121  0.0525  1.1263  0.7936
  581MOL0     O78331  11.064   4.679   4.174 -0.7569  0.3856  0.0873
  581MOL0     C78332  11.136   4.685   4.287 -0.3340 -0.0567 -0.9428
  581MOL0     C78333  11.134   4.811   4.354 -0.1480  0.3725 -0.2809
  581MOL0     C78334  11.220   4.836   4.460 -0.8993  0.2666  0.7354
  581MOL0     C78335  11.320   4.748   4.503 -0.1261  0.7773 -0.3730
  581MOL0     O78336  11.416   4.784   4.596  0.5120  0.2913 -0.1416
  581MOL0     C78337  11.435   4.687   4.701  0.5217  0.7520 -0.2280
  581MOL0     C78338  11.579   4.653   4.752  0.4437 -0.0446  0.4328
  581MOL0     C78339  11.681   4.764   4.775  0.1284 -0.0263 -0.8925
  581MOL0     C78340  11.820   4.705   4.819 -0.4805 -0.2239 -0.6054
  581MOL0     C78341  11.895   4.784   4.932  0.4010  0.7194  0.0819
  581MOL0     C78342  12.046   4.753   4.931 -0.5067 -0.5084 -0.3240
  581MOL0     C78343  12.089   4.599   4.933 -0.0476 -0.7404  0.1725
  581MOL0     C78344  12.211   4.582   4.849  1.0585 -0.3664  0.8376
  581MOL0    Cl78345  12.171   4.587   4.673  0.1209 -0.0114 -0.3757
  581MOL0     C78346  11.324   4.622   4.440 -0.7762  0.8895  0.0257
  581MOL0     C78347  11.232   4.592   4.338  0.2125 -0.7128  0.2788
  581MOL0     O78348  11.023   4.451   4.183 -0.1032 -0.0012 -0.2970
  581MOL0     C78349  10.857   4.664   3.965 -0.7205 -0.3598 -0.8465
  581MOL0     C78350  10.800   4.675   3.847  1.4056  0.1302  0.3179
  581MOL0     N78351  10.730   4.147   3.575  0.5419  0.6919  0.2655
  581MOL0     N78352  10.703   4.067   3.674 -0.7547  0.8511  0.4148
  581MOL0     C78353  10.807   3.781   4.560 -0.3076 -0.1768  0.2614
  581MOL0     C78354  10.826   3.676   4.643 -0.3587 -0.8731 -0.1023
  581MOL0     C78355  10.940   3.361   4.914  0.4615  0.8401  0.2581
  581MOL0     C78356  11.079   3.349   4.925 -0.1573  0.2082 -0.1178
  581MOL0     C78357  11.147   3.248   4.992  0.0351  0.9344  0.1662
  581MOL0     C78358  11.067   3.149   5.052 -1.1540  0.9784 -0.5140
  581MOL0     O78359  11.125   3.065   5.143 -0.2115 -0.6268 -0.6611
  581MOL0     C78360  11.153   2.930   5.097  0.8392  0.1641  0.6610
  581MOL0     C78361  11.298   2.909   5.049 -0.0749 -0.1683  1.4077
  581MOL0     C78362  11.394   2.946   5.159 -0.7989  0.2064  1.0423
  581MOL0     C78363  11.389   2.849   5.283 -0.8040  0.0184 -0.4878
  581MOL0     C78364  11.452   2.717   5.258  0.1185  0.1329  0.2589
  581MOL0     C78365  11.517   2.611   5.244  0.2000 -0.3545  0.1035
  581MOL0     C78366  10.933   3.152   5.046 -0.0783 -0.1651  0.1494
  581MOL0     C78367  10.868   3.262   4.980 -0.7894 -0.1088 -0.4321
  581MOL0     H78368  10.943   3.824   4.918  0.9421 -2.0129 -1.0301
  581MOL0     H78369  10.881   4.031   4.781 -0.3455 -0.7983  2.1661
  581MOL0     H78370  10.741   4.177   4.585 -0.4804 -0.6193 -0.4931
  581MOL0     H78371  10.918   4.160   4.600  0.2311 -0.5381 -0.9481
  581MOL0     H78372  10.838   4.339   4.440  1.1747 -0.4965 -0.0476
  581MOL0     H78373  10.937   4.202   4.359 -1.9179  0.2824 -3.9948
  581MOL0     H78374  10.772   4.119   4.254  3.2700  2.4858 -0.8075
  581MOL0     H78375  10.640   4.186   4.363 -0.6427  1.6484  0.4399
  581MOL0     H78376  10.731   4.400   4.268  2.2183  0.8330 -0.3486
  581MOL0     H78377  10.830   4.322   4.148  0.3431 -0.8121  0.0556
  581MOL0     H78378  10.543   4.285   4.179  1.4427  0.1024  1.4376
  581MOL0     H78379  10.610   4.410   4.059  3.0985  0.3118 -1.3863
  581MOL0     H78380  10.678   4.244   3.909  3.0437  0.5839  2.1199
  581MOL0     H78381  10.688   4.124   4.034 -0.0629  0.1006 -1.7329
  581MOL0     H78382  10.446   4.098   4.040 -0.0497  0.2168 -0.0257
  581MOL0     H78383  10.433   4.221   3.908 -1.4844 -2.4097 -1.0772
  581MOL0     H78384  10.412   4.011   3.807 -0.1620  0.0403  2.1493
  581MOL0     H78385  10.569   3.951   3.874 -0.9499 -0.3280  0.3453
  581MOL0     H78386  10.417   4.225   3.666 -2.2614 -1.3421  1.0509
  581MOL0     H78387  10.660   4.270   3.344 -3.1058  1.4703 -2.6348
  581MOL0     H78388  10.491   4.266   3.396  0.8711 -0.6423 -4.7968
  581MOL0     H78389  10.535   4.492   3.532 -1.2017 -1.1219  1.3401
  581MOL0     H78390  10.513   4.494   3.353  2.9840  3.2436 -0.9004
  581MOL0     H78391  10.695   4.640   3.386 -1.9811 -0.3153  2.2272
  581MOL0     H78392  10.750   4.487   3.312 -0.4296 -0.7956  0.5922
  581MOL0     H78393  10.894   4.553   3.514  0.0427 -0.0694  1.6782
  581MOL0     H78394  10.801   4.411   3.543  0.0689 -0.0728 -0.0240
  581MOL0     H78395  10.919   4.382   3.704  0.8357  2.3090 -0.7450
  581MOL0     H78396  11.152   4.348   3.982  1.5190 -0.8179 -0.0666
  581MOL0     H78397  11.004   4.252   3.984  1.1546 -0.9991 -1.2484
  581MOL0     H78398  11.080   4.289   3.830 -1.4358  1.2806  0.1403
  581MOL0     H78399  11.074   4.895   4.318 -0.8172 -1.5686 -4.2848
  581MOL0     H78400  11.203   4.937   4.494  0.2743  0.6152  0.3285
  581MOL0     H78401  11.362   4.731   4.769 -0.0733  1.8183 -1.5371
  581MOL0     H78402  11.386   4.590   4.688 -0.7462 -0.0003  6.2859
  581MOL0     H78403  11.567   4.586   4.838  0.0940 -0.9851 -0.3326
  581MOL0     H78404  11.634   4.596   4.677 -0.6048 -2.9449  1.7179
  581MOL0     H78405  11.656   4.820   4.866 -1.8720 -2.1454 -0.0507
  581MOL0     H78406  11.691   4.837   4.695  1.4685 -1.6784 -2.3004
  581MOL0     H78407  11.800   4.603   4.854  0.7507  0.6711  3.1969
  581MOL0     H78408  11.887   4.696   4.733 -2.4382 -2.0919 -2.0384
  581MOL0     H78409  11.849   4.738   5.020 -1.0498 -1.1046 -1.5190
  581MOL0     H78410  11.878   4.891   4.924 -2.8319  0.2933  0.0454
  581MOL0     H78411  12.077   4.787   4.832 -0.1404 -3.7566 -1.4774
  581MOL0     H78412  12.087   4.808   5.016 -2.8293 -1.0811  1.2644
  581MOL0     H78413  12.012   4.532   4.895  0.0135  0.2241 -1.7919
  581MOL0     H78414  12.111   4.576   5.037 -3.4007 -2.5082  0.6095
  581MOL0     H78415  12.267   4.493   4.879  0.4704 -1.8234 -2.0134
  581MOL0     H78416  12.272   4.668   4.878 -1.3086  1.1744  1.5756
  581MOL0     H78417  11.403   4.555   4.471 -1.6571 -1.7939 -2.9267
  581MOL0     H78418  11.250   4.507   4.273 -0.4729  0.3598 -1.3653
  581MOL0     H78419  10.834   4.731   4.047  0.7056 -0.3247 -0.4570
  581MOL0     H78420  10.722   4.749   3.829 -2.1302 -3.1675  0.6686
  581MOL0     H78421  10.791   3.771   4.453 -1.8324  1.0411  0.3351
  581MOL0     H78422  10.803   3.575   4.609 -3.0595 -0.4494  0.2074
  581MOL0     H78423  11.146   3.431   4.898  0.2886 -1.0238 -3.1190
  581MOL0     H78424  11.254   3.263   5.005  0.6567 -0.4444 -2.5230
  581MOL0     H78425  11.122   2.854   5.170 -0.9870  0.3933  0.1684
  581MOL0     H78426  11.093   2.913   5.007 -0.0171  1.0320  1.0416
  581MOL0     H78427  11.308   2.968   4.958 -2.7031 -3.0443 -0.9847
  581MOL0     H78428  11.320   2.808   5.012 -2.5292  0.1496 -1.2232
  581MOL0     H78429  11.379   3.050   5.191  0.3080  1.2266 -1.4667
  581MOL0     H78430  11.495   2.944   5.116  0.2526  1.5499  3.2607
  581MOL0     H78431  11.284   2.843   5.314 -0.4696  0.7906  0.8696
  581MOL0     H78432  11.442   2.891   5.368  0.7532 -0.9885 -0.9173
  581MOL0     H78433  11.560   2.514   5.231 -1.8577 -1.0022 -2.7182
  581MOL0     H78434  10.875   3.076   5.098 -1.1361  1.2135  1.0517
  581MOL0     H78435  10.761   3.249   4.985 -0.4486 -3.4071  2.2634
  582MOL0     O78436   8.424   9.485   6.725 -0.4360  0.5397  0.9881
  582MOL0     C78437   8.335   9.469   6.647  0.7246 -0.3076  0.5496
  582MOL0     O78438   8.221   9.392   6.658  0.0397  0.3339  0.1750
  582MOL0     C78439   8.208   9.300   6.755  0.4949 -0.3971 -0.1853
  582MOL0     C78440   8.259   9.295   6.886  0.3802 -0.5237  0.4018
  582MOL0     C78441   8.230   9.190   6.973 -0.1769 -0.3521  0.4600
  582MOL0     C78442   8.151   9.080   6.947  1.1032 -0.4228 -0.1670
  582MOL0     O78443   8.120   8.994   7.044 -0.8231  0.2320 -0.1735
  582MOL0     C78444   8.011   8.898   7.027 -0.1324  0.7339  0.0612
  582MOL0     C78445   8.001   8.799   7.148 -0.4682 -0.0851  0.3744
  582MOL0     C78446   7.979   8.885   7.268 -1.3536  0.1144 -0.1716
  582MOL0     C78447   8.025   8.797   7.384 -0.1201 -0.6771 -0.3192
  582MOL0     C78448   8.042   8.870   7.515  0.1426 -0.5185  0.2236
  582MOL0     C78449   8.038   8.791   7.641  0.4755  0.0216  1.1044
  582MOL0     C78450   8.159   8.698   7.665 -0.6147 -1.5943 -0.1982
  582MOL0     C78451   8.134   8.618   7.794 -0.6652 -0.1606 -0.9996
  582MOL0     N78452   8.182   8.692   7.915 -0.3584  0.3668  0.3882
  582MOL0     C78453   8.310   8.695   7.954 -0.6516 -0.1118  0.3090
  582MOL0     C78454   8.313   8.750   8.080 -0.8652  0.1686 -0.3750
  582MOL0     C78455   8.433   8.776   8.166  0.3591  0.5201 -0.3346
  582MOL0     C78456   8.502   8.911   8.142 -1.2607 -1.4764  0.1151
  582MOL0     C78457   8.419   9.028   8.177 -0.3216 -0.6870  1.2351
  582MOL0     C78458   8.340   9.082   8.065  0.5893 -0.5242 -0.0846
  582MOL0     O78459   8.361   9.224   8.047  1.0096  0.5959 -0.6886
  582MOL0     C78460   8.271   9.299   7.968  0.7793 -0.5892  0.7424
  582MOL0     C78461   8.150   9.243   7.919  0.4949 -0.1734  0.3714
  582MOL0     C78462   8.071   9.316   7.829  0.9106 -0.3099  0.0177
  582MOL0     C78463   7.938   9.260   7.777 -0.9758  0.4341 -0.5548
  582MOL0     C78464   8.106   9.453   7.809  0.0214 -0.5064  0.1762
  582MOL0     C78465   8.038   9.550   7.719 -0.3245  0.1696  0.2444
  582MOL0     O78466   8.121   9.631   7.635  0.7630 -0.6492 -1.7673
  582MOL0     C78467   8.062   9.687   7.526  0.3118  0.0566  0.5014
  582MOL0     C78468   8.040   9.617   7.408  0.0975  0.6984  0.4191
  582MOL0     C78469   7.998   9.686   7.290 -0.6268  0.7103 -0.4085
  582MOL0     C78470   7.989   9.829   7.288 -0.9705  0.4214 -0.7118
  582MOL0     O78471   7.975   9.883   7.160  0.1592 -0.2162  0.1826
  582MOL0     C78472   7.845   9.937   7.152 -1.2215  0.4195 -0.6027
  582MOL0     C78473   7.811   9.913   6.998 -0.0436  0.4640 -0.2386
  582MOL0     C78474   7.770  10.038   6.916 -0.0516  0.1344 -0.1905
  582MOL0     C78475   7.779  10.003   6.762 -0.6196 -0.3918 -0.2177
  582MOL0     C78476   7.742  10.119   6.670  1.0017 -0.2020  1.6467
  582MOL0     C78477   7.715  10.066   6.534  0.2193 -0.8028  0.2831
  582MOL0     C78478   7.706  10.188   6.439  0.6794 -0.4914 -1.1153
  582MOL0     C78479   7.659  10.140   6.303 -0.1600  1.5422 -1.1081
  582MOL0    Cl78480   7.556  10.264   6.233  0.3297  0.3518  0.0082
  582MOL0     C78481   8.000   9.901   7.408  0.9060  0.3908  0.3814
  582MOL0     C78482   8.020   9.828   7.531  0.0350 -0.9249 -0.3537
  582MOL0     O78483   7.914   9.538   7.703  0.2582 -0.4269 -0.0105
  582MOL0     C78484   8.223   9.511   7.871  1.3748 -0.4520  0.6117
  582MOL0     C78485   8.304   9.433   7.944  0.1600  0.0579  0.3634
  582MOL0     N78486   8.184   8.776   8.117 -0.1484  0.6462 -0.1649
  582MOL0     N78487   8.106   8.733   8.022 -0.7554  0.1642  0.7551
  582MOL0     C78488   8.087   9.089   6.824  0.8969 -0.4695 -0.0327
  582MOL0     C78489   8.118   9.193   6.729 -0.0416  0.5784 -0.2359
  582MOL0     C78490   8.345   9.554   6.518  1.1639  0.3138  0.9890
  582MOL0     C78491   8.260   9.541   6.411 -0.1177 -0.8005 -0.6173
  582MOL0     C78492   8.272   9.618   6.292  0.6632  0.3271  0.5157
  582MOL0     C78493   8.382   9.710   6.277 -0.4790  0.7898  0.8823
  582MOL0     O78494   8.425   9.772   6.164  0.2724  0.7026  0.8617
  582MOL0     C78495   8.337   9.772   6.052  0.5465 -0.0079  0.2246
  582MOL0     C78496   8.355   9.886   5.954 -0.3568 -0.5619  0.6267
  582MOL0     C78497   8.355   9.831   5.807  0.3745  0.2873 -0.2276
  582MOL0     C78498   8.413   9.933   5.710 -0.3176 -0.8964 -0.8429
  582MOL0     C78499   8.333  10.061   5.699 -0.5225 -0.5300  0.1284
  582MOL0     C78500   8.270  10.167   5.689  0.4464  1.3277 -0.6213
  582MOL0     C78501   8.469   9.710   6.381  0.3297  1.0907 -0.2182
  582MOL0     C78502   8.445   9.648   6.501 -0.0838  0.7839  0.0691
  582MOL0     H78503   8.327   9.375   6.914 -1.0516  0.5511  0.8868
  582MOL0     H78504   8.278   9.180   7.070 -1.1540 -4.2115  0.7312
  582MOL0     H78505   7.917   8.954   7.027 -2.1566 -2.3328 -2.0510
  582MOL0     H78506   8.027   8.847   6.932  0.8617  3.2531 -1.2145
  582MOL0     H78507   7.914   8.737   7.127 -0.0522 -1.4217  2.2977
  582MOL0     H78508   8.091   8.738   7.161 -1.2078 -0.9477  1.6440
  582MOL0     H78509   8.034   8.979   7.279 -0.3877 -0.6520  2.2976
  582MOL0     H78510   7.876   8.920   7.278 -0.4441  2.5172  2.4157
  582MOL0     H78511   7.952   8.719   7.405 -0.5003 -0.3166 -0.2744
  582MOL0     H78512   8.127   8.760   7.371  0.6571  0.9271  0.8306
  582MOL0     H78513   8.137   8.922   7.501 -1.0828  2.5606  2.2791
  582MOL0     H78514   7.969   8.950   7.525  0.2667 -0.3170 -0.4688
  582MOL0     H78515   8.014   8.855   7.726  2.1088  0.4159  1.2999
  582MOL0     H78516   7.959   8.718   7.625  2.5410 -2.1334  0.1370
  582MOL0     H78517   8.176   8.636   7.576  2.5697  2.6011 -2.9006
  582MOL0     H78518   8.247   8.757   7.690 -0.4999 -3.2218  4.0617
  582MOL0     H78519   8.192   8.525   7.795 -1.4117 -0.6649 -2.2160
  582MOL0     H78520   8.027   8.595   7.801 -1.1353  1.5843 -2.0366
  582MOL0     H78521   8.394   8.664   7.893 -1.1964  0.1911 -0.6143
  582MOL0     H78522   8.391   8.777   8.267 -1.6370 -2.1605 -1.0096
  582MOL0     H78523   8.505   8.696   8.147 -1.6554 -0.7378 -3.3576
  582MOL0     H78524   8.559   8.923   8.050  1.4233 -1.6588  1.6623
  582MOL0     H78525   8.584   8.922   8.214 -0.2116  1.5440 -1.3740
  582MOL0     H78526   8.493   9.104   8.204  1.1198 -1.5208 -0.2098
  582MOL0     H78527   8.357   9.018   8.267 -1.1631  1.3166  0.9296
  582MOL0     H78528   8.239   9.052   8.094  0.4185  0.4778  0.3803
  582MOL0     H78529   8.351   9.037   7.966 -1.5481  3.2524 -2.2763
  582MOL0     H78530   8.125   9.142   7.949 -1.8383 -0.1539 -1.2028
  582MOL0     H78531   7.908   9.288   7.675 -0.8331  0.2688 -0.6444
  582MOL0     H78532   7.944   9.151   7.790  0.2568  0.2451 -2.3158
  582MOL0     H78533   7.863   9.295   7.848  2.2079 -0.1066  3.4006
  582MOL0     H78534   8.051   9.509   7.405 -2.5636  0.3658  0.5200
  582MOL0     H78535   7.988   9.629   7.198 -2.1364  1.9145 -1.0276
  582MOL0     H78536   7.781   9.886   7.223  1.0153 -2.1438 -0.2883
  582MOL0     H78537   7.844  10.044   7.177 -1.6628  0.1228  0.7222
  582MOL0     H78538   7.886   9.848   6.951  1.0013  2.0453 -0.8213
  582MOL0     H78539   7.726   9.844   6.999  1.3651 -1.3382  0.2417
  582MOL0     H78540   7.839  10.119   6.942  2.1171 -0.6891 -2.8569
  582MOL0     H78541   7.669  10.076   6.933  0.1033  0.6142 -0.3004
  582MOL0     H78542   7.871   9.954   6.730 -0.0479  1.3380 -1.3623
  582MOL0     H78543   7.704   9.927   6.742 -2.3042  1.3235 -0.7312
  582MOL0     H78544   7.820  10.196   6.672 -0.6847  1.5871  1.8794
  582MOL0     H78545   7.648  10.165   6.704 -0.1044 -0.7852 -0.4249
  582MOL0     H78546   7.789   9.997   6.492 -0.2853 -1.1537 -0.0495
  582MOL0     H78547   7.617  10.018   6.536 -1.0406  1.6154  0.6220
  582MOL0     H78548   7.801  10.242   6.438  0.2556  0.3743  1.1613
  582MOL0     H78549   7.631  10.259   6.473  0.4084 -0.7184 -1.2274
  582MOL0     H78550   7.609  10.043   6.309 -0.0407  1.5615  0.7926
  582MOL0     H78551   7.750  10.137   6.241  1.8247  0.6732  1.6518
  582MOL0     H78552   7.986  10.008   7.399  2.5905  0.5787 -0.4703
  582MOL0     H78553   8.025   9.887   7.621 -3.1871 -0.0387 -0.6066
  582MOL0     H78554   8.266   9.610   7.862  4.2929 -1.7749 -1.4363
  582MOL0     H78555   8.392   9.461   8.002 -0.3804  2.5507  0.0637
  582MOL0     H78556   8.004   9.025   6.794 -1.5713  2.3096  0.4649
  582MOL0     H78557   8.059   9.191   6.638 -2.2981  2.4746  1.0583
  582MOL0     H78558   8.173   9.482   6.436 -1.8304  2.6655  2.6105
  582MOL0     H78559   8.183   9.624   6.229  0.5005 -0.0537  0.7099
  582MOL0     H78560   8.351   9.673   6.005  2.0435 -0.4654  1.5230
  582MOL0     H78561   8.232   9.784   6.077  0.2023  0.5316 -1.3988
  582MOL0     H78562   8.453   9.934   5.964  0.2056 -1.6359  0.4665
  582MOL0     H78563   8.268   9.952   5.953 -0.6468 -0.8789 -1.9630
  582MOL0     H78564   8.249   9.817   5.786  0.3640  1.2121 -0.8576
  582MOL0     H78565   8.412   9.738   5.800  3.6708  2.0556  0.9678
  582MOL0     H78566   8.405   9.887   5.611 -0.9319  1.0969 -1.7891
  582MOL0     H78567   8.517   9.959   5.729 -0.0461 -0.4163 -2.7280
  582MOL0     H78568   8.230  10.266   5.679  1.8458  1.8386 -1.5133
  582MOL0     H78569   8.554   9.777   6.370  1.2508  0.0589  0.4604
  582MOL0     H78570   8.519   9.663   6.579  2.5863 -0.5011 -2.0677
  583MOL0     O78571   5.312   2.046  10.004  0.8645  0.7052  0.2951
  583MOL0     C78572   5.234   1.992  10.083 -0.1743 -0.4364  0.1248
  583MOL0     O78573   5.141   2.052  10.156 -0.3386  0.9310 -0.5997
  583MOL0     C78574   5.155   2.183  10.180 -0.5049  0.0601  0.8270
  583MOL0     C78575   5.083   2.277  10.102 -0.1551  0.0162  0.3830
  583MOL0     C78576   5.098   2.408  10.126 -0.7691  0.1590  0.5914
  583MOL0     C78577   5.187   2.462  10.226 -0.0754  0.2273  1.1481
  583MOL0     O78578   5.182   2.592  10.251 -0.4493  0.4337 -0.0843
  583MOL0     C78579   5.305   2.651  10.287  0.1540 -0.7371  0.1671
  583MOL0     C78580   5.301   2.679  10.440 -0.4027 -0.1870  0.0297
  583MOL0     C78581   5.204   2.798  10.463 -0.0508  0.5308  0.0481
  583MOL0     C78582   5.240   2.849  10.609 -0.2599 -0.1889 -0.3612
  583MOL0     C78583   5.114   2.902  10.693  0.2120 -0.0928  0.2450
  583MOL0     C78584   5.022   2.790  10.729 -0.1932 -0.6209  0.1054
  583MOL0     C78585   4.949   2.815  10.852  0.1738  0.6623 -0.1487
  583MOL0     C78586   4.844   2.931  10.837 -0.4682  0.3013 -0.0224
  583MOL0     N78587   4.752   2.941  10.955 -0.3742  0.6548 -0.2126
  583MOL0     C78588   4.608   2.930  10.947 -0.2974 -0.4591  0.8473
  583MOL0     C78589   4.574   2.957  11.077  0.2336  0.1484 -0.4002
  583MOL0     C78590   4.438   2.946  11.136  0.8463 -0.6288  0.2632
  583MOL0     C78591   4.388   3.072  11.198  0.3948 -0.7680  0.2457
  583MOL0     C78592   4.243   3.072  11.212  0.4253 -0.1136 -0.4756
  583MOL0     C78593   4.193   2.971  11.320 -0.0457  0.1416  0.4821
  583MOL0     O78594   4.064   3.020  11.359  0.7652  0.3694  0.8404
  583MOL0     C78595   4.043   3.104  11.462 -0.0686 -0.0550  0.2278
  583MOL0     C78596   3.919   3.152  11.454 -0.8400  0.6585  0.0570
  583MOL0     C78597   3.860   3.229  11.542  1.2903  0.1844 -0.3679
  583MOL0     C78598   3.712   3.267  11.519  0.2393  0.0871 -0.0602
  583MOL0     C78599   3.934   3.253  11.672  0.5195 -0.9204  0.6474
  583MOL0     C78600   3.894   3.321  11.799  0.4021  1.4856  0.7193
  583MOL0     O78601   3.997   3.391  11.853 -0.8495 -0.8942  1.3766
  583MOL0     C78602   3.987   3.456  11.970  0.0721 -0.2264  1.0705
  583MOL0     C78603   4.019   3.592  11.982  0.0664 -0.1343 -0.2174
  583MOL0     C78604   4.017   3.664  12.103 -0.1802 -0.0566  0.1082
  583MOL0     C78605   3.978   3.600  12.218  0.0388  0.3857 -0.6352
  583MOL0     O78606   3.965   3.664  12.336  0.5097 -0.1400 -0.5645
  583MOL0     C78607   3.937   3.803  12.336 -0.0864 -0.7454 -0.3053
  583MOL0     C78608   3.934   3.854  12.485  0.9024  0.2306  1.0770
  583MOL0     C78609   3.888   4.001  12.500  0.4308 -0.3113  0.9739
  583MOL0     C78610   3.908   4.032  12.642 -0.2028 -0.5752  0.3088
  583MOL0     C78611   3.862   4.185  12.650 -0.1510  0.2085 -0.1557
  583MOL0     C78612   3.879   4.237  12.787  0.2778  0.7605  0.0684
  583MOL0     C78613   3.838   4.377  12.808 -0.8362 -0.8727 -0.2133
  583MOL0     C78614   3.881   4.445  12.945 -0.1764  0.3401 -0.0759
  583MOL0    Cl78615   3.795   4.355  13.082  0.1684 -0.0960 -0.1096
  583MOL0     C78616   3.954   3.468  12.224 -0.3680  0.3612  0.2544
  583MOL0     C78617   3.954   3.400  12.100  0.3841 -0.3134 -0.2673
  583MOL0     O78618   3.785   3.314  11.845 -0.3276  0.1240  0.2137
  583MOL0     C78619   4.068   3.209  11.670 -0.0122  0.0910  0.4337
  583MOL0     C78620   4.119   3.127  11.572 -1.2733  0.5657  0.5130
  583MOL0     N78621   4.690   2.983  11.155 -0.3625 -0.7762 -0.1847
  583MOL0     N78622   4.789   2.974  11.080 -0.6699 -0.6448  0.4420
  583MOL0     C78623   5.267   2.365  10.303 -0.1836 -0.6608  1.4596
  583MOL0     C78624   5.251   2.224  10.278 -0.2151  0.1419 -0.1888
  583MOL0     C78625   5.239   1.840  10.084 -0.6186  0.0248 -0.4344
  583MOL0     C78626   5.173   1.762  10.189 -0.0539 -0.0998  0.4207
  583MOL0     C78627   5.153   1.627  10.169 -0.3341  0.0649 -0.8888
  583MOL0     C78628   5.198   1.558  10.062 -0.0938  0.4070  1.2161
  583MOL0     O78629   5.167   1.427  10.041 -0.4407  0.2360 -0.6678
  583MOL0     C78630   5.044   1.396   9.966 -0.1926  0.1212 -0.2467
  583MOL0     C78631   4.918   1.402  10.059 -0.1420  0.0978 -0.1023
  583MOL0     C78632   4.911   1.303  10.179  0.3152  1.0168  0.3439
  583MOL0     C78633   4.969   1.165  10.144 -0.8153  0.4128 -1.0430
  583MOL0     C78634   4.964   1.082  10.269 -0.5396  0.1745  0.0330
  583MOL0     C78635   4.968   1.024  10.381 -0.6237 -0.9560 -0.0266
  583MOL0     C78636   5.269   1.624   9.966  0.5166  0.4316  1.0404
  583MOL0     C78637   5.289   1.763   9.970  1.0668 -0.9333 -0.2035
  583MOL0     H78638   5.008   2.245  10.030 -1.2304 -0.6702  1.7695
  583MOL0     H78639   5.037   2.480  10.071  1.4551  2.4733  0.9679
  583MOL0     H78640   5.398   2.598  10.266  0.6299 -0.0992  0.6282
  583MOL0     H78641   5.319   2.740  10.226  0.6087 -0.6466  0.4049
  583MOL0     H78642   5.260   2.589  10.487  0.3833 -1.1774 -1.1470
  583MOL0     H78643   5.400   2.695  10.482 -1.3990 -0.7592  2.8271
  583MOL0     H78644   5.205   2.883  10.394 -3.1489  2.0780  1.6985
  583MOL0     H78645   5.101   2.759  10.462 -0.3762  1.3799 -1.3996
  583MOL0     H78646   5.289   2.766  10.662 -0.1695 -0.2933 -0.6056
  583MOL0     H78647   5.315   2.927  10.596  1.2022 -1.2827  1.0475
  583MOL0     H78648   5.159   2.939  10.785  1.8148  2.8153 -1.5485
  583MOL0     H78649   5.070   2.990  10.645 -1.8353 -1.0557  0.2200
  583MOL0     H78650   4.940   2.772  10.659 -1.2342  0.3257  1.0346
  583MOL0     H78651   5.068   2.692  10.742  0.7522 -0.1635  0.3224
  583MOL0     H78652   4.894   2.722  10.864 -0.9443  1.2481 -0.5639
  583MOL0     H78653   5.007   2.839  10.941 -1.6680 -1.4999  1.7708
  583MOL0     H78654   4.787   2.910  10.746 -0.0237  1.0510 -0.4836
  583MOL0     H78655   4.889   3.028  10.817  0.5270 -0.2328 -0.4939
  583MOL0     H78656   4.541   2.901  10.866  0.7164  2.0204 -1.0113
  583MOL0     H78657   4.372   2.900  11.062  2.3995 -0.2855 -1.3979
  583MOL0     H78658   4.441   2.867  11.212  1.0820 -2.5481 -1.6529
  583MOL0     H78659   4.410   3.148  11.123  0.9701  0.3890  1.5412
  583MOL0     H78660   4.438   3.094  11.293 -0.3627 -1.7644  0.8926
  583MOL0     H78661   4.192   3.051  11.117 -1.5744 -0.4426  0.6110
  583MOL0     H78662   4.198   3.168  11.240 -2.3468 -2.1298  2.7936
  583MOL0     H78663   4.259   2.949  11.404  0.3754 -1.4334 -0.2282
  583MOL0     H78664   4.175   2.880  11.262 -3.7085  1.8773 -1.4795
  583MOL0     H78665   3.866   3.126  11.363  1.5812 -0.0663 -1.2351
  583MOL0     H78666   3.675   3.275  11.416 -0.0817 -4.4328 -0.5282
  583MOL0     H78667   3.648   3.206  11.584 -0.5398 -1.7758 -2.4246
  583MOL0     H78668   3.710   3.369  11.557 -2.1747 -0.7758  2.4479
  583MOL0     H78669   4.050   3.645  11.892 -1.3787 -1.5779 -1.6302
  583MOL0     H78670   4.036   3.771  12.105 -2.1064  0.3247  0.4204
  583MOL0     H78671   4.016   3.863  12.291 -1.7689  1.2582 -0.7217
  583MOL0     H78672   3.847   3.817  12.276  0.4632  1.0349 -0.7510
  583MOL0     H78673   3.876   3.791  12.553 -0.0551  1.7223  1.6857
  583MOL0     H78674   4.042   3.854  12.506  2.0801  1.8840 -3.6090
  583MOL0     H78675   3.781   4.012  12.477  1.1113  1.9634 -1.5335
  583MOL0     H78676   3.939   4.069  12.432  0.5591 -1.2220  0.1418
  583MOL0     H78677   3.853   3.970  12.714 -2.9235 -1.4760 -2.3414
  583MOL0     H78678   4.010   4.005  12.670  0.0549  1.3313  1.3537
  583MOL0     H78679   3.756   4.190  12.622  0.1125 -0.0769 -1.2706
  583MOL0     H78680   3.918   4.244  12.576 -0.1846  0.7116  0.2139
  583MOL0     H78681   3.815   4.173  12.848 -1.3791  1.7324 -0.5772
  583MOL0     H78682   3.980   4.216  12.823 -0.4521 -0.2393  1.6295
  583MOL0     H78683   3.732   4.402  12.798 -0.2899  3.1597  1.7528
  583MOL0     H78684   3.892   4.435  12.733 -2.4387  0.7445 -0.1888
  583MOL0     H78685   3.864   4.553  12.943  2.9141  0.9402 -3.0810
  583MOL0     H78686   3.989   4.430  12.943 -0.4657 -2.5631  1.2261
  583MOL0     H78687   3.933   3.433  12.325  2.7318  2.4530  1.7908
  583MOL0     H78688   3.928   3.295  12.093 -0.4470 -0.3244  1.9395
  583MOL0     H78689   4.130   3.224  11.758 -0.4827  2.4673  0.4106
  583MOL0     H78690   4.218   3.083  11.573 -0.7863  1.6312  0.8049
  583MOL0     H78691   5.332   2.402  10.381 -0.4337 -0.1693  1.4384
  583MOL0     H78692   5.307   2.152  10.337 -1.1064  1.8148  2.9570
  583MOL0     H78693   5.132   1.811  10.276  0.2006 -0.1388  0.5631
  583MOL0     H78694   5.105   1.575  10.251  0.5302  0.5924 -0.0249
  583MOL0     H78695   5.024   1.461   9.880  0.6835 -1.7623 -1.9879
  583MOL0     H78696   5.046   1.291   9.934 -3.5803 -0.3605  0.6694
  583MOL0     H78697   4.829   1.384   9.998  0.0019  0.5280 -0.4459
  583MOL0     H78698   4.902   1.507  10.088  0.4557  1.3644 -3.8305
  583MOL0     H78699   4.804   1.291  10.197  0.0025 -0.4371 -2.0414
  583MOL0     H78700   4.957   1.347  10.268 -0.2274 -3.1088  2.9454
  583MOL0     H78701   5.074   1.177  10.116 -0.2995  0.6827  0.8930
  583MOL0     H78702   4.910   1.118  10.064 -0.8607 -0.6528 -0.4024
  583MOL0     H78703   4.990   0.970  10.470  1.8261  1.3498  0.9146
  583MOL0     H78704   5.289   1.577   9.870  0.5623  4.0155 -0.9097
  583MOL0     H78705   5.327   1.811   9.881 -1.1131 -1.6966 -1.6392
  584MOL0     O78706   6.642   2.711   2.278 -0.6163 -0.1933 -1.2158
  584MOL0     C78707   6.575   2.724   2.384 -0.4971 -0.0348 -0.3793
  584MOL0     O78708   6.624   2.765   2.502 -0.8317 -0.0407  0.0877
  584MOL0     C78709   6.758   2.799   2.517 -0.4863 -0.5263  1.0211
  584MOL0     C78710   6.801   2.910   2.576  0.4765  0.1307 -0.1728
  584MOL0     C78711   6.939   2.924   2.600  0.3459  0.0453  1.1876
  584MOL0     C78712   7.035   2.838   2.545  0.3526 -0.5129 -0.1398
  584MOL0     O78713   7.173   2.852   2.555  0.2631 -0.0811 -0.1781
  584MOL0     C78714   7.213   2.939   2.666 -0.4785 -0.3707 -0.0907
  584MOL0     C78715   7.367   2.946   2.693  0.5541 -0.3953 -0.2080
  584MOL0     C78716   7.412   2.826   2.783  0.0447  0.2388  0.0481
  584MOL0     C78717   7.563   2.833   2.787 -0.6292  1.3174  0.0864
  584MOL0     C78718   7.622   2.939   2.887 -0.7269  0.4604  1.0017
  584MOL0     C78719   7.723   2.885   2.985 -0.7633  0.4827  0.1749
  584MOL0     C78720   7.848   2.831   2.920  1.0211  0.5704  0.1560
  584MOL0     C78721   7.923   2.757   3.032  0.2958  0.0040  0.3671
  584MOL0     N78722   8.044   2.699   2.994  1.0401  0.1892 -0.3886
  584MOL0     C78723   8.130   2.733   2.895 -0.0637 -0.8953  0.6732
  584MOL0     C78724   8.235   2.647   2.912  0.5139  1.4050  0.1823
  584MOL0     C78725   8.352   2.633   2.829 -0.3171 -0.0835 -0.2903
  584MOL0     C78726   8.481   2.602   2.896 -0.2324  0.1821 -0.0768
  584MOL0     C78727   8.582   2.590   2.789  0.1529  0.6791  0.2068
  584MOL0     C78728   8.721   2.557   2.837 -0.2616  0.2550 -0.2083
  584MOL0     O78729   8.799   2.494   2.738  0.4860  0.1566 -0.1319
  584MOL0     C78730   8.838   2.365   2.736 -0.6544 -0.9959  0.5048
  584MOL0     C78731   8.970   2.345   2.701 -0.1834  0.6049  0.0406
  584MOL0     C78732   9.028   2.209   2.691  0.0115 -1.0492  0.6803
  584MOL0     C78733   9.168   2.198   2.644 -0.0933 -0.4055  0.5469
  584MOL0     C78734   8.942   2.105   2.734 -0.2747  0.6113  0.6204
  584MOL0     C78735   8.987   1.964   2.748  0.2159 -0.6743  0.0068
  584MOL0     O78736   8.892   1.877   2.795 -0.1642  0.5715  0.3295
  584MOL0     C78737   8.906   1.745   2.762  0.7875  0.4577 -0.0215
  584MOL0     C78738   8.999   1.670   2.838  0.0383 -0.0136 -0.2493
  584MOL0     C78739   9.010   1.532   2.810 -0.8419 -0.9392  0.2518
  584MOL0     C78740   8.929   1.476   2.720 -0.3995 -0.4559 -0.0688
  584MOL0     O78741   8.941   1.347   2.674 -0.0264 -1.0277  0.3648
  584MOL0     C78742   9.064   1.278   2.685 -0.1714  0.7047 -0.3409
  584MOL0     C78743   9.067   1.158   2.587 -0.6030 -0.3793 -0.1544
  584MOL0     C78744   9.211   1.094   2.576 -0.6504 -0.6339 -0.1140
  584MOL0     C78745   9.270   1.057   2.714 -0.5624 -0.0214  0.3403
  584MOL0     C78746   9.410   0.998   2.707  0.0178  0.5598  0.6054
  584MOL0     C78747   9.466   0.970   2.843  0.3581 -0.9389 -0.1628
  584MOL0     C78748   9.470   0.826   2.900 -0.0994  0.2022 -0.4086
  584MOL0     C78749   9.469   0.710   2.801 -0.0054 -0.4618 -0.3434
  584MOL0    Cl78750   9.599   0.722   2.668 -0.0260 -0.1887 -0.0080
  584MOL0     C78751   8.820   1.544   2.672 -1.1667 -0.3545  0.0472
  584MOL0     C78752   8.810   1.684   2.683  0.0682  0.2667  1.0712
  584MOL0     O78753   9.105   1.938   2.715 -0.4203 -0.0477 -0.1292
  584MOL0     C78754   8.807   2.128   2.771  0.2651 -0.2961  0.9905
  584MOL0     C78755   8.751   2.253   2.758  0.5672  0.2998  0.0384
  584MOL0     N78756   8.201   2.566   3.021 -0.2872 -0.6185  0.5786
  584MOL0     N78757   8.086   2.592   3.066  0.4249  0.1695  1.1348
  584MOL0     C78758   6.985   2.725   2.476  0.3279  0.9699 -0.7682
  584MOL0     C78759   6.850   2.702   2.470  1.6115 -0.8729  0.5006
  584MOL0     C78760   6.433   2.678   2.388 -0.5177 -0.9747  0.0681
  584MOL0     C78761   6.380   2.636   2.265  0.9738 -0.3752 -0.6434
  584MOL0     C78762   6.236   2.613   2.247 -0.4525 -0.1147  0.4554
  584MOL0     C78763   6.148   2.637   2.354  0.4285  0.0934  0.4437
  584MOL0     O78764   6.008   2.624   2.352  0.2229  0.5093 -0.7010
  584MOL0     C78765   5.969   2.505   2.275 -0.0521  0.3364  0.2567
  584MOL0     C78766   5.867   2.432   2.371  0.2086  0.1682  0.0923
  584MOL0     C78767   5.870   2.276   2.343  0.0542  0.3057 -0.1181
  584MOL0     C78768   5.779   2.205   2.443 -0.0573 -0.5299  0.7400
  584MOL0     C78769   5.635   2.239   2.416  1.2583  0.0669  1.0584
  584MOL0     C78770   5.515   2.255   2.391 -0.2956 -0.6435 -0.0843
  584MOL0     C78771   6.203   2.666   2.477  0.5963 -0.8885 -0.5936
  584MOL0     C78772   6.346   2.702   2.495 -0.2887  0.2889  0.1032
  584MOL0     H78773   6.723   2.978   2.610 -2.7452 -2.1713 -2.2618
  584MOL0     H78774   6.974   3.016   2.645  1.2292  0.1062  0.4145
  584MOL0     H78775   7.182   3.039   2.635 -1.0628 -0.6067 -0.2737
  584MOL0     H78776   7.157   2.923   2.759  2.1140 -2.1630  1.2930
  584MOL0     H78777   7.411   2.956   2.594  1.5607 -1.5340  0.1090
  584MOL0     H78778   7.394   3.034   2.753  0.1983 -0.2651 -0.2369
  584MOL0     H78779   7.366   2.834   2.882  2.0630  0.2146  1.0249
  584MOL0     H78780   7.392   2.731   2.732 -1.4975 -0.4595  1.8333
  584MOL0     H78781   7.600   2.739   2.830 -0.0188  1.2030 -0.6557
  584MOL0     H78782   7.613   2.854   2.692  0.1391  1.1852  0.4552
  584MOL0     H78783   7.663   3.013   2.817  0.6490  1.7255  3.0497
  584MOL0     H78784   7.552   2.982   2.959 -0.8305  0.8230  0.6921
  584MOL0     H78785   7.748   2.969   3.050 -0.2595  0.8793 -0.5190
  584MOL0     H78786   7.682   2.810   3.053 -0.0747  1.5771  1.8561
  584MOL0     H78787   7.836   2.754   2.844  1.9050 -1.2407  1.7478
  584MOL0     H78788   7.910   2.912   2.884  0.3420  0.9431 -0.1939
  584MOL0     H78789   7.860   2.682   3.082  2.2243 -2.1936 -0.3266
  584MOL0     H78790   7.964   2.829   3.102 -2.5117  1.4742  0.6648
  584MOL0     H78791   8.118   2.805   2.815  1.7641 -0.8246  0.4277
  584MOL0     H78792   8.327   2.553   2.759 -2.1997 -0.2145  0.4807
  584MOL0     H78793   8.354   2.727   2.773  2.2901  1.0658  1.5287
  584MOL0     H78794   8.478   2.502   2.940  2.1795 -0.7541 -1.8091
  584MOL0     H78795   8.524   2.667   2.974  1.4001 -1.1979  0.2420
  584MOL0     H78796   8.589   2.685   2.736  1.6554  0.2102 -0.5025
  584MOL0     H78797   8.551   2.508   2.723 -1.7179  0.5450  1.1815
  584MOL0     H78798   8.716   2.495   2.927 -3.1745  0.3142 -0.2409
  584MOL0     H78799   8.758   2.658   2.858  1.3593  0.0734 -1.8554
  584MOL0     H78800   9.027   2.431   2.669  0.2047 -0.4699 -2.3815
  584MOL0     H78801   9.195   2.107   2.591 -1.3945 -2.0224  2.4806
  584MOL0     H78802   9.179   2.283   2.577 -3.2945 -0.6517 -0.4843
  584MOL0     H78803   9.238   2.201   2.728 -1.0923  0.0544  1.3937
  584MOL0     H78804   9.053   1.737   2.904 -2.8361  1.8486  0.4060
  584MOL0     H78805   9.086   1.466   2.851 -0.8525 -2.3649 -1.8982
  584MOL0     H78806   9.154   1.339   2.672 -0.7371  1.8655  0.9592
  584MOL0     H78807   9.065   1.241   2.788 -1.0887  0.8598 -0.2715
  584MOL0     H78808   8.990   1.082   2.603 -0.9307 -0.7624 -3.0221
  584MOL0     H78809   9.048   1.212   2.494 -0.3831  1.5076  0.8451
  584MOL0     H78810   9.284   1.160   2.527  0.8449 -0.5275  2.1265
  584MOL0     H78811   9.209   0.999   2.522  2.6541 -1.8020  1.5135
  584MOL0     H78812   9.274   1.143   2.781 -1.7674 -0.2350  0.7129
  584MOL0     H78813   9.204   0.995   2.775  0.6538  0.2869  2.0342
  584MOL0     H78814   9.473   1.073   2.657  2.0424 -0.4380  1.5484
  584MOL0     H78815   9.397   0.909   2.645 -2.7666 -0.4300  2.4096
  584MOL0     H78816   9.572   0.985   2.818  0.4017 -1.1525 -0.1059
  584MOL0     H78817   9.439   1.038   2.924  1.7801 -0.2377 -0.2410
  584MOL0     H78818   9.379   0.812   2.959  0.0421 -0.2919 -0.2946
  584MOL0     H78819   9.557   0.816   2.966  1.0290  0.8079 -1.7468
  584MOL0     H78820   9.371   0.692   2.757  0.4113 -1.0256 -1.0694
  584MOL0     H78821   9.479   0.618   2.858 -4.1592 -0.7670  0.2073
  584MOL0     H78822   8.738   1.492   2.622 -2.7232 -1.0761  3.0830
  584MOL0     H78823   8.724   1.736   2.643 -2.2844 -3.0691  1.3228
  584MOL0     H78824   8.742   2.054   2.817  0.7333 -1.0072  0.5254
  584MOL0     H78825   8.649   2.276   2.790 -0.1172 -0.7830 -1.2587
  584MOL0     H78826   7.067   2.663   2.443 -0.3577 -1.2050  1.3567
  584MOL0     H78827   6.821   2.610   2.420 -0.7227  0.6473 -1.1309
  584MOL0     H78828   6.450   2.601   2.190  2.6263  0.6997  0.3308
  584MOL0     H78829   6.184   2.583   2.157 -3.2999 -1.3712  2.3661
  584MOL0     H78830   5.932   2.532   2.176  2.7875  1.6451 -0.5523
  584MOL0     H78831   6.052   2.439   2.247 -0.2845 -0.4664  1.3811
  584MOL0     H78832   5.765   2.471   2.357 -0.1142 -0.5837  0.3292
  584MOL0     H78833   5.881   2.450   2.478 -0.6548  1.0320  0.0796
  584MOL0     H78834   5.970   2.236   2.359 -0.2634 -0.0186  1.1796
  584MOL0     H78835   5.836   2.255   2.241  0.2161  4.2125 -1.1601
  584MOL0     H78836   5.809   2.227   2.546  2.2854  1.4405 -0.2620
  584MOL0     H78837   5.797   2.097   2.440  0.7239 -0.4828  2.4663
  584MOL0     H78838   5.409   2.266   2.376 -0.8237 -2.1631  2.0178
  584MOL0     H78839   6.119   2.669   2.546 -0.4864  2.6904 -1.8740
  584MOL0     H78840   6.381   2.733   2.592 -0.1185  3.1239 -0.7887
  585MOL0     O78841  10.010  10.181   8.246 -0.0179 -0.4072 -0.2666
  585MOL0     C78842  10.097  10.097   8.262 -0.8335  0.0184 -0.1676
  585MOL0     O78843  10.190  10.062   8.163 -0.7434  0.0105  0.1354
  585MOL0     C78844  10.176  10.115   8.039  0.5222 -0.6650 -0.4282
  585MOL0     C78845  10.084  10.059   7.951  0.2151 -1.3029  0.2597
  585MOL0     C78846  10.058  10.121   7.830 -0.1288 -0.3259 -0.3425
  585MOL0     C78847  10.132  10.230   7.795 -0.6198  0.0753  0.4464
  585MOL0     O78848  10.129  10.274   7.666  0.3174 -0.0621 -0.4469
  585MOL0     C78849  10.039  10.381   7.638  0.3747  1.1803 -0.2706
  585MOL0     C78850   9.896  10.353   7.648  0.4281 -0.5557  0.0888
  585MOL0     C78851   9.801  10.440   7.565 -0.5440  0.2499 -0.2546
  585MOL0     C78852   9.797  10.592   7.599  0.6588  0.8799  0.0033
  585MOL0     C78853   9.694  10.632   7.717 -0.3311 -0.8457  0.7319
  585MOL0     C78854   9.540  10.626   7.677 -0.3312 -0.2511 -0.0324
  585MOL0     C78855   9.450  10.665   7.799 -0.7908  0.9113  0.0909
  585MOL0     C78856   9.298  10.614   7.789 -0.5622 -0.0123  0.3689
  585MOL0     N78857   9.241  10.704   7.680 -0.1382  0.1899 -0.1492
  585MOL0     C78858   9.254  10.671   7.548 -0.6914 -1.1721  0.3051
  585MOL0     C78859   9.181  10.760   7.487 -0.3084 -0.3899  0.5188
  585MOL0     C78860   9.144  10.776   7.339 -1.5342 -0.2663  0.0503
  585MOL0     C78861   9.245  10.873   7.266  1.3491  0.1325  0.0603
  585MOL0     C78862   9.218  11.018   7.311  0.8193 -0.3858  0.3770
  585MOL0     C78863   9.335  11.103   7.252  0.4848  0.1693 -0.4535
  585MOL0     O78864   9.357  11.219   7.336 -0.1680 -0.2896 -1.0635
  585MOL0     C78865   9.301  11.320   7.265  0.5239 -0.2348  0.4251
  585MOL0     C78866   9.165  11.345   7.240 -0.3166  0.2881  0.4715
  585MOL0     C78867   9.112  11.454   7.163 -0.1378  0.5711 -0.6513
  585MOL0     C78868   8.958  11.467   7.141 -1.2927  0.5940 -0.8196
  585MOL0     C78869   9.210  11.526   7.085 -0.2475 -0.9473  0.7536
  585MOL0     C78870   9.161  11.637   6.988 -0.5445 -0.0006  0.7345
  585MOL0     O78871   9.268  11.699   6.936  0.4485  0.0991 -0.2318
  585MOL0     C78872   9.253  11.797   6.847  1.3090 -0.0689  0.6537
  585MOL0     C78873   9.368  11.869   6.840  0.6456 -0.4922  0.4812
  585MOL0     C78874   9.389  11.972   6.751  0.2606 -0.1806 -0.9805
  585MOL0     C78875   9.300  12.005   6.647  0.4196  0.8562 -0.0975
  585MOL0     O78876   9.332  12.100   6.552  0.2079 -0.2546  0.1813
  585MOL0     C78877   9.229  12.154   6.472  0.3014  0.6059 -1.0718
  585MOL0     C78878   9.281  12.270   6.375  0.3262  0.4638 -1.1805
  585MOL0     C78879   9.381  12.216   6.277 -0.5541  0.1361  0.7131
  585MOL0     C78880   9.424  12.326   6.173 -0.1539 -0.1514 -0.5240
  585MOL0     C78881   9.551  12.287   6.090  0.2885 -0.6867  0.5208
  585MOL0     C78882   9.616  12.416   6.035 -0.6731  0.2807 -0.5882
  585MOL0     C78883   9.764  12.377   5.988  0.1211 -0.0557 -0.4421
  585MOL0     C78884   9.823  12.463   5.869  0.2579  0.3736 -0.1155
  585MOL0    Cl78885   9.995  12.413   5.829  0.4711  0.2519 -0.1605
  585MOL0     C78886   9.180  11.931   6.655  0.5701 -2.3186 -0.5295
  585MOL0     C78887   9.160  11.826   6.750  0.4232 -0.2263  0.2414
  585MOL0     O78888   9.043  11.663   6.959 -0.0658  0.7372 -0.7527
  585MOL0     C78889   9.347  11.501   7.103  0.1505  0.0676 -0.1288
  585MOL0     C78890   9.397  11.405   7.197  0.0906  0.5091  0.1443
  585MOL0     N78891   9.111  10.831   7.579 -0.4559 -0.5426 -1.1814
  585MOL0     N78892   9.153  10.808   7.690 -0.3394 -1.1975  0.4260
  585MOL0     C78893  10.215  10.293   7.886 -0.8534  0.8928  0.6276
  585MOL0     C78894  10.238  10.241   8.015 -0.3729 -0.1399  0.7767
  585MOL0     C78895  10.101  10.021   8.381  0.6131 -0.5651  0.1069
  585MOL0     C78896   9.983   9.986   8.434 -0.4028 -0.7176  0.2511
  585MOL0     C78897   9.978   9.929   8.553  0.5334  0.3854  0.0060
  585MOL0     C78898  10.090   9.881   8.620  0.3032 -0.2163 -0.6398
  585MOL0     O78899  10.088   9.814   8.737  0.5655  0.1945  0.2244
  585MOL0     C78900   9.979   9.818   8.832  0.2059 -0.0655  0.4073
  585MOL0     C78901  10.033   9.757   8.957  0.7426  0.9289  0.8419
  585MOL0     C78902  10.060   9.607   8.949  0.0485 -0.0961 -0.2889
  585MOL0     C78903  10.122   9.565   9.083 -0.0914  0.2239  0.2323
  585MOL0     C78904  10.222   9.463   9.073 -0.1690 -0.3523  0.2379
  585MOL0     C78905  10.320   9.401   9.054  0.1638  0.1694  0.6976
  585MOL0     C78906  10.216   9.908   8.553 -0.6281  0.7434 -0.0256
  585MOL0     C78907  10.222   9.986   8.439 -0.2656  0.1301  0.5647
  585MOL0     H78908  10.027   9.978   7.993 -0.7892  0.2862  2.1528
  585MOL0     H78909   9.979  10.078   7.768  0.9156 -3.5409  0.3509
  585MOL0     H78910  10.066  10.465   7.703 -0.2768  0.3160  1.1663
  585MOL0     H78911  10.055  10.412   7.535 -0.1275  2.6641  0.0696
  585MOL0     H78912   9.878  10.248   7.619 -1.7002  0.3607 -2.3528
  585MOL0     H78913   9.860  10.352   7.751  2.9611 -4.5512  1.1824
  585MOL0     H78914   9.838  10.425   7.463 -3.3899  2.5688 -1.7926
  585MOL0     H78915   9.700  10.401   7.576  1.1689 -4.1841  2.3341
  585MOL0     H78916   9.894  10.633   7.627 -0.4136  1.7450  2.8020
  585MOL0     H78917   9.765  10.643   7.508  0.3436  1.3791  0.3854
  585MOL0     H78918   9.704  10.553   7.793  0.0281 -0.5624  0.9781
  585MOL0     H78919   9.728  10.726   7.761  1.8836 -0.7730 -0.9699
  585MOL0     H78920   9.530  10.700   7.597  0.7152 -0.3044 -0.2328
  585MOL0     H78921   9.515  10.527   7.639 -0.7503 -0.1641  0.0124
  585MOL0     H78922   9.499  10.627   7.889 -0.4884  1.1373  0.0219
  585MOL0     H78923   9.450  10.774   7.811  1.3918  1.1915 -1.8122
  585MOL0     H78924   9.244  10.614   7.884 -0.4487  0.8053  0.4440
  585MOL0     H78925   9.291  10.510   7.757  0.7805  0.9662 -3.7150
  585MOL0     H78926   9.321  10.593   7.513 -1.0665 -1.4010  0.0943
  585MOL0     H78927   9.148  10.677   7.293  1.6274 -1.8800  3.3364
  585MOL0     H78928   9.040  10.810   7.333 -2.2467 -2.4764 -1.4193
  585MOL0     H78929   9.241  10.859   7.158  2.4162 -2.6000  0.2848
  585MOL0     H78930   9.342  10.840   7.303  0.3634 -1.4200  1.4513
  585MOL0     H78931   9.226  11.029   7.420 -1.2518  1.8215  0.3972
  585MOL0     H78932   9.124  11.052   7.267  0.5596 -0.4852  0.8466
  585MOL0     H78933   9.324  11.123   7.145  0.1048 -0.4787 -0.5417
  585MOL0     H78934   9.432  11.054   7.259 -0.5966 -1.8281  1.9319
  585MOL0     H78935   9.097  11.275   7.286 -0.6708 -0.3641 -0.9742
  585MOL0     H78936   8.924  11.464   7.037 -2.9352  5.1582 -0.6446
  585MOL0     H78937   8.906  11.393   7.203  2.2865  0.9369  3.0248
  585MOL0     H78938   8.916  11.564   7.167  1.2975  1.2545  1.3367
  585MOL0     H78939   9.458  11.838   6.891  3.4810  1.5977 -2.8294
  585MOL0     H78940   9.489  12.015   6.742  0.9280 -1.7748 -1.5786
  585MOL0     H78941   9.169  12.077   6.422  1.4961 -1.1955  0.1553
  585MOL0     H78942   9.152  12.201   6.534 -1.3770  0.1047 -2.6577
  585MOL0     H78943   9.193  12.307   6.320 -0.2399 -0.9370 -1.2675
  585MOL0     H78944   9.324  12.343   6.444  0.8579 -2.7260  2.2045
  585MOL0     H78945   9.342  12.136   6.213 -0.8816  0.5344  0.4162
  585MOL0     H78946   9.470  12.192   6.337  0.1552  2.2994  0.5859
  585MOL0     H78947   9.346  12.350   6.101  0.4206 -2.3167 -1.9663
  585MOL0     H78948   9.439  12.423   6.220  2.0005 -0.5551 -0.2633
  585MOL0     H78949   9.522  12.226   6.004 -0.5863  3.2631 -2.3114
  585MOL0     H78950   9.615  12.233   6.161 -1.8490 -2.1993  1.4092
  585MOL0     H78951   9.556  12.460   5.955 -0.0987  0.7465 -0.7751
  585MOL0     H78952   9.617  12.484   6.121 -0.6838 -0.8878  0.3622
  585MOL0     H78953   9.752  12.274   5.953 -1.3357  0.0030 -0.1664
  585MOL0     H78954   9.833  12.390   6.073 -0.0970  0.0686 -0.2842
  585MOL0     H78955   9.823  12.571   5.888 -3.1675  0.8738 -2.0857
  585MOL0     H78956   9.762  12.442   5.780  1.3651 -3.0917 -0.2152
  585MOL0     H78957   9.095  11.957   6.593 -0.3957  0.7089  1.8005
  585MOL0     H78958   9.076  11.758   6.740  2.1213 -2.3856 -0.1635
  585MOL0     H78959   9.427  11.553   7.052  0.1642  2.6096  2.2154
  585MOL0     H78960   9.502  11.380   7.210 -0.2872  0.0921  2.9451
  585MOL0     H78961  10.286  10.370   7.859  1.6653 -0.7560  2.0552
  585MOL0     H78962  10.296  10.289   8.094  1.1032 -0.8920  0.1924
  585MOL0     H78963   9.895  10.031   8.388  1.4307  1.5025 -1.2789
  585MOL0     H78964   9.882   9.922   8.603  0.4443  4.1488  0.6328
  585MOL0     H78965   9.931   9.913   8.854 -0.4035 -0.6062  1.5147
  585MOL0     H78966   9.910   9.750   8.780 -0.2467 -0.6162  1.6773
  585MOL0     H78967   9.972   9.789   9.042 -0.0640  0.7622  0.3398
  585MOL0     H78968  10.131   9.806   8.965  3.3455 -3.0548 -2.4166
  585MOL0     H78969  10.125   9.574   8.868  2.0875  1.4138  0.6589
  585MOL0     H78970   9.959   9.567   8.934 -1.6299  3.3674  0.8370
  585MOL0     H78971  10.051   9.542   9.163  3.8484 -2.4637  3.3674
  585MOL0     H78972  10.175   9.655   9.115  1.6329 -0.6657  0.0187
  585MOL0     H78973  10.412   9.356   9.023 -0.0614 -0.6571  1.1989
  585MOL0     H78974  10.317   9.882   8.582 -1.6003 -1.1939  1.9119
  585MOL0     H78975  10.314   9.993   8.383  0.6573 -1.1171  1.8643
  586MOL0     O78976   4.267   8.582   6.210 -0.0446  0.1668  0.1891
  586MOL0     C78977   4.345   8.484   6.209  0.5972 -0.5204 -0.4943
  586MOL0     O78978   4.477   8.486   6.184  0.2660 -1.1624  0.9221
  586MOL0     C78979   4.552   8.600   6.146  0.1305  1.2601  0.2915
  586MOL0     C78980   4.517   8.668   6.033  0.7494 -1.0683 -0.1520
  586MOL0     C78981   4.600   8.778   5.996 -0.1813  0.2641 -0.2263
  586MOL0     C78982   4.718   8.805   6.061 -0.3958  0.8670  0.0927
  586MOL0     O78983   4.799   8.906   6.010  0.0728 -0.4871 -0.6100
  586MOL0     C78984   4.883   8.981   6.108 -0.4385  0.6172  0.7727
  586MOL0     C78985   4.921   9.121   6.060  0.1892  0.3207 -0.4002
  586MOL0     C78986   5.006   9.190   6.167 -0.2581  0.7828  0.0139
  586MOL0     C78987   4.936   9.219   6.303  0.7000 -0.1629  0.2933
  586MOL0     C78988   5.016   9.286   6.411 -0.3460 -0.2120  0.6073
  586MOL0     C78989   5.095   9.189   6.503 -0.7206  0.0734 -0.0790
  586MOL0     C78990   5.209   9.253   6.588 -0.5167  0.4704  0.5383
  586MOL0     C78991   5.334   9.164   6.586  0.4267 -0.9337  0.2712
  586MOL0     N78992   5.381   9.125   6.453  0.2277  0.9674  0.9627
  586MOL0     C78993   5.420   9.207   6.352  1.8857  0.5534  0.4098
  586MOL0     C78994   5.403   9.140   6.234  0.7110  0.9451 -0.5207
  586MOL0     C78995   5.454   9.192   6.103  0.4043 -0.0936  0.1123
  586MOL0     C78996   5.372   9.316   6.085  0.3563  0.4824 -0.3189
  586MOL0     C78997   5.419   9.393   5.961 -0.0522  0.4502 -0.1610
  586MOL0     C78998   5.307   9.485   5.903  0.3015 -0.8953  0.1459
  586MOL0     O78999   5.259   9.588   5.985  0.5226  0.5965 -0.4045
  586MOL0     C79000   5.314   9.710   5.989 -0.2236 -0.8526 -0.1069
  586MOL0     C79001   5.252   9.810   6.057  0.2919  0.1975  0.0911
  586MOL0     C79002   5.312   9.937   6.085 -0.0574  1.0431 -0.0041
  586MOL0     C79003   5.220  10.025   6.168  0.2853  0.5605  0.0532
  586MOL0     C79004   5.439   9.966   6.032 -0.3070  0.5236 -0.5514
  586MOL0     C79005   5.514  10.104   6.040 -0.0203 -0.6500 -2.2033
  586MOL0     O79006   5.626  10.121   5.966 -0.1469  0.4070 -0.3406
  586MOL0     C79007   5.713  10.237   5.966 -0.1700  0.8773 -1.3941
  586MOL0     C79008   5.697  10.364   6.012  0.6160 -0.4199  0.8580
  586MOL0     C79009   5.796  10.466   5.978  0.2048  0.3765 -0.4620
  586MOL0     C79010   5.912  10.429   5.902  0.2456  0.5223 -0.0982
  586MOL0     O79011   5.980  10.538   5.869 -0.8062  0.3044  1.0868
  586MOL0     C79012   6.074  10.514   5.761 -0.1097  0.5259 -0.9477
  586MOL0     C79013   6.100  10.641   5.697 -0.3860  0.4318  0.2538
  586MOL0     C79014   5.976  10.693   5.615 -0.3492  0.0809 -0.2338
  586MOL0     C79015   5.990  10.666   5.463  0.0238  0.9542  1.7835
  586MOL0     C79016   5.932  10.767   5.367  0.1257 -0.5286 -0.0020
  586MOL0     C79017   5.996  10.909   5.372 -0.6381 -0.0903 -0.9515
  586MOL0     C79018   5.946  11.007   5.271 -0.1561 -0.7750 -0.5282
  586MOL0     C79019   5.982  11.161   5.298 -1.1224  0.0650  0.8239
  586MOL0    Cl79020   6.052  11.227   5.154  0.1202 -0.1595 -0.2049
  586MOL0     C79021   5.940  10.288   5.879  0.1783 -0.4361  0.3992
  586MOL0     C79022   5.836  10.197   5.907  0.0626  0.6797  0.4290
  586MOL0     O79023   5.482  10.182   6.125 -0.0925  0.1614 -0.1197
  586MOL0     C79024   5.504   9.873   5.945 -0.5038 -0.0140  0.5967
  586MOL0     C79025   5.441   9.744   5.939 -0.0023 -0.3065  0.5291
  586MOL0     N79026   5.351   9.015   6.266 -0.3566  0.0857 -0.2631
  586MOL0     N79027   5.355   9.002   6.391 -0.8435 -1.0862 -0.4970
  586MOL0     C79028   4.754   8.720   6.161  0.1716 -0.0415 -0.4632
  586MOL0     C79029   4.673   8.618   6.211  0.5287  0.2136  0.0413
  586MOL0     C79030   4.288   8.358   6.249 -0.8220  0.7486 -0.2255
  586MOL0     C79031   4.155   8.346   6.294 -0.1577  0.2718 -0.4192
  586MOL0     C79032   4.096   8.225   6.343 -0.4465  0.0686 -0.2667
  586MOL0     C79033   4.176   8.113   6.338 -0.6905  0.0464  0.6143
  586MOL0     O79034   4.135   8.002   6.403  0.0265 -0.0115  0.9279
  586MOL0     C79035   4.123   7.884   6.316 -0.3469 -0.2051 -0.1951
  586MOL0     C79036   4.033   7.781   6.400 -0.5355 -0.4330 -0.4099
  586MOL0     C79037   4.089   7.727   6.536 -0.5104  0.0990 -0.1072
  586MOL0     C79038   4.019   7.594   6.560 -0.4710 -0.9425  0.2010
  586MOL0     C79039   4.101   7.491   6.608  0.1390  0.0093  0.6208
  586MOL0     C79040   4.177   7.405   6.644 -0.3370  0.2831  0.8088
  586MOL0     C79041   4.303   8.120   6.280 -0.0473 -0.1507 -1.1833
  586MOL0     C79042   4.367   8.239   6.245  0.4227  0.8936 -1.1393
  586MOL0     H79043   4.429   8.642   5.975  1.6418 -1.0167 -1.5803
  586MOL0     H79044   4.603   8.829   5.900  1.9793 -0.9149 -0.8587
  586MOL0     H79045   4.824   8.998   6.198  0.3298  1.8033  1.0780
  586MOL0     H79046   4.978   8.935   6.140  0.1518  0.6331 -0.8576
  586MOL0     H79047   4.965   9.112   5.960 -0.5801 -2.6542 -0.5745
  586MOL0     H79048   4.827   9.176   6.052 -0.2094  0.0044  1.6202
  586MOL0     H79049   5.101   9.138   6.188 -1.0197 -0.6494  0.0798
  586MOL0     H79050   5.031   9.287   6.125 -2.2518  0.5248 -1.9158
  586MOL0     H79051   4.860   9.287   6.264  3.6190  2.3724 -1.4040
  586MOL0     H79052   4.891   9.121   6.323 -0.6125  0.0229 -1.4663
  586MOL0     H79053   5.085   9.344   6.349 -0.6884 -1.0966 -0.6523
  586MOL0     H79054   4.964   9.360   6.472 -0.2760 -1.8266  2.7310
  586MOL0     H79055   5.025   9.147   6.576 -0.2317 -1.3339 -0.3850
  586MOL0     H79056   5.135   9.108   6.441  0.1550  0.9936 -0.7592
  586MOL0     H79057   5.241   9.348   6.545 -2.9046  0.2956 -1.8598
  586MOL0     H79058   5.175   9.264   6.692 -2.5397  0.2750 -0.0602
  586MOL0     H79059   5.333   9.070   6.642  1.5329 -1.3740 -0.4229
  586MOL0     H79060   5.411   9.221   6.639 -0.9944  1.6319 -0.2415
  586MOL0     H79061   5.450   9.310   6.365 -1.9902  1.8902  0.2401
  586MOL0     H79062   5.559   9.219   6.118 -0.2248  1.6487  1.8311
  586MOL0     H79063   5.439   9.122   6.020  3.2985 -2.0238  1.0566
  586MOL0     H79064   5.381   9.384   6.170 -0.6748  0.0119  0.1749
  586MOL0     H79065   5.267   9.296   6.063  0.8746 -0.3154 -2.3198
  586MOL0     H79066   5.461   9.321   5.892  3.8403 -0.2134  2.5720
  586MOL0     H79067   5.505   9.456   5.987  1.8547 -2.1030  0.0472
  586MOL0     H79068   5.222   9.422   5.874 -1.1240  2.4020 -3.7011
  586MOL0     H79069   5.338   9.524   5.806  2.6592 -2.0375  0.3711
  586MOL0     H79070   5.148   9.792   6.082 -0.8484 -1.7550 -4.8071
  586MOL0     H79071   5.275  10.096   6.229  0.2211 -0.1041  0.8980
  586MOL0     H79072   5.149  10.070   6.098 -1.1824 -1.0693  0.4182
  586MOL0     H79073   5.171   9.953   6.233  1.1519 -0.1472 -0.0509
  586MOL0     H79074   5.618  10.395   6.079 -0.0201  0.7909 -0.4060
  586MOL0     H79075   5.760  10.568   5.991 -1.3265 -0.1020 -0.6944
  586MOL0     H79076   6.170  10.477   5.799 -0.3166  1.2081  0.3057
  586MOL0     H79077   6.023  10.455   5.685 -0.0600  1.4898 -1.7414
  586MOL0     H79078   6.140  10.717   5.765  3.1536 -0.9468 -0.0308
  586MOL0     H79079   6.175  10.619   5.620 -2.5165  1.8449 -2.3796
  586MOL0     H79080   5.985  10.802   5.620  3.7797 -0.1338  0.2228
  586MOL0     H79081   5.878  10.663   5.653 -2.1059 -0.8499 -4.7708
  586MOL0     H79082   6.096  10.668   5.436 -0.6594  1.0375 -1.2556
  586MOL0     H79083   5.952  10.568   5.432  0.8916  1.2787 -0.4642
  586MOL0     H79084   5.824  10.765   5.379 -0.1988 -0.4704 -2.4883
  586MOL0     H79085   5.950  10.725   5.268  2.1466  2.4783 -1.0508
  586MOL0     H79086   5.980  10.955   5.471  0.5821  0.7141 -1.1082
  586MOL0     H79087   6.103  10.911   5.348  0.1290  5.6039  1.1732
  586MOL0     H79088   5.837  11.013   5.270 -0.1970 -1.1833  0.6229
  586MOL0     H79089   5.978  10.978   5.170  0.2145 -0.2539 -0.5645
  586MOL0     H79090   6.058  11.177   5.376  0.4662  1.3194 -0.9063
  586MOL0     H79091   5.890  11.210   5.332  0.4878  1.6924  3.1735
  586MOL0     H79092   6.041  10.273   5.843  0.2098  0.1241  0.2291
  586MOL0     H79093   5.854  10.097   5.868  3.1376  1.6519 -0.9329
  586MOL0     H79094   5.594   9.893   5.889 -0.8594 -0.0310  0.0155
  586MOL0     H79095   5.492   9.667   5.882  0.6939 -1.1633  2.2247
  586MOL0     H79096   4.845   8.740   6.217 -0.9069 -0.1267  1.3872
  586MOL0     H79097   4.701   8.550   6.292  1.4528  1.8643  1.1758
  586MOL0     H79098   4.092   8.434   6.291 -1.4382 -0.4639  1.8079
  586MOL0     H79099   3.997   8.220   6.386 -1.0868 -3.0527 -1.7939
  586MOL0     H79100   4.074   7.916   6.224  2.7205  0.0150 -1.8904
  586MOL0     H79101   4.221   7.837   6.302 -1.0325 -1.7613  0.0785
  586MOL0     H79102   4.018   7.697   6.333  1.2920  1.2508 -3.1478
  586MOL0     H79103   3.933   7.820   6.418  0.1489  0.9905  0.6068
  586MOL0     H79104   4.060   7.797   6.615 -0.9212 -1.8476  1.5579
  586MOL0     H79105   4.198   7.720   6.534 -0.2066  3.1131  0.9414
  586MOL0     H79106   3.976   7.557   6.466  2.1611 -1.9574 -0.7101
  586MOL0     H79107   3.939   7.610   6.633  0.8140  1.7369  1.1389
  586MOL0     H79108   4.236   7.323   6.679 -0.4447  1.5552  4.3378
  586MOL0     H79109   4.362   8.030   6.265  2.0731  0.9692 -0.1472
  586MOL0     H79110   4.469   8.238   6.210  0.5911  0.7018 -0.6454
  587MOL0     O79111   6.133   2.477   9.145 -0.0482 -0.6440  0.5103
  587MOL0     C79112   6.242   2.490   9.104  0.2046  0.1859  0.2617
  587MOL0     O79113   6.353   2.460   9.169 -0.1377  1.0451 -0.0119
  587MOL0     C79114   6.345   2.468   9.309 -0.3523 -0.4069 -0.7362
  587MOL0     C79115   6.412   2.382   9.390 -0.7879  0.0432  0.0998
  587MOL0     C79116   6.416   2.400   9.525 -0.4041 -0.2491  0.2014
  587MOL0     C79117   6.345   2.495   9.587 -0.8456  0.7751 -0.3146
  587MOL0     O79118   6.348   2.508   9.724 -0.0688  0.2073 -0.1020
  587MOL0     C79119   6.308   2.627   9.800 -0.5673  0.5609 -0.0111
  587MOL0     C79120   6.343   2.582   9.947 -0.0345 -0.4924  0.0672
  587MOL0     C79121   6.302   2.698  10.038 -0.5171 -0.5154 -0.7842
  587MOL0     C79122   6.297   2.642  10.177  0.6635 -1.1513 -0.3213
  587MOL0     C79123   6.251   2.751  10.277  0.1781  0.2588 -1.8132
  587MOL0     C79124   6.233   2.674  10.411  0.3167  0.2171  0.0285
  587MOL0     C79125   6.157   2.773  10.513 -0.0280  0.3991  0.0022
  587MOL0     C79126   6.241   2.885  10.562 -0.0045  0.4626 -0.6184
  587MOL0     N79127   6.181   2.941  10.683  0.8340 -0.6881  0.1959
  587MOL0     C79128   6.248   3.009  10.788 -0.4285 -0.3130  0.6139
  587MOL0     C79129   6.151   3.087  10.841  1.0302  0.1961 -0.2547
  587MOL0     C79130   6.166   3.167  10.967 -0.0628  0.9149 -0.2274
  587MOL0     C79131   6.127   3.097  11.102  0.8494  0.6898 -0.5951
  587MOL0     C79132   6.235   3.007  11.145  0.8056 -0.3816  0.0396
  587MOL0     C79133   6.366   3.072  11.192 -0.2980 -0.5662 -0.3543
  587MOL0     O79134   6.457   3.067  11.090  0.8573  0.9731  0.1186
  587MOL0     C79135   6.595   3.081  11.118  0.3601  1.2838  1.2497
  587MOL0     C79136   6.683   3.058  11.013 -0.6519  0.3772  1.7001
  587MOL0     C79137   6.824   3.048  11.027 -0.1250 -0.4371  0.9879
  587MOL0     C79138   6.918   3.019  10.912  0.4861  0.3261 -0.5410
  587MOL0     C79139   6.884   3.067  11.158 -0.0704  0.2151 -0.3860
  587MOL0     C79140   7.037   3.064  11.185  1.7744 -0.3545 -0.1643
  587MOL0     O79141   7.069   3.112  11.310  1.1994 -0.6306  0.2450
  587MOL0     C79142   7.198   3.100  11.354 -0.9148 -0.2904  0.2721
  587MOL0     C79143   7.276   2.989  11.322 -0.5657  0.7655 -0.3110
  587MOL0     C79144   7.414   2.996  11.347  0.4252  0.2919 -0.0946
  587MOL0     C79145   7.465   3.086  11.437  1.6343 -0.1438  0.3964
  587MOL0     O79146   7.589   3.086  11.494  0.0183 -0.8844 -0.3772
  587MOL0     C79147   7.698   3.001  11.436  0.5144 -0.2846  0.3304
  587MOL0     C79148   7.765   3.074  11.319  0.0777  0.2226  0.1841
  587MOL0     C79149   7.913   3.040  11.315 -0.4991  0.4335 -0.9423
  587MOL0     C79150   8.002   3.122  11.222 -0.1388  0.1883  0.5935
  587MOL0     C79151   7.968   3.103  11.071  0.6515 -0.2202 -0.7820
  587MOL0     C79152   7.935   2.962  11.025 -0.4989  1.0714  0.0850
  587MOL0     C79153   7.933   2.958  10.872  0.1180  0.3298  0.4548
  587MOL0     C79154   7.890   2.828  10.804 -0.7180  0.0236  0.2245
  587MOL0    Cl79155   8.021   2.706  10.821  0.2963  0.1840 -0.0483
  587MOL0     C79156   7.378   3.180  11.491 -0.0822 -0.8023  0.1395
  587MOL0     C79157   7.248   3.191  11.442 -0.7884 -0.0826  0.5696
  587MOL0     O79158   7.113   3.016  11.103 -1.0430  0.4180  0.2048
  587MOL0     C79159   6.794   3.094  11.261 -0.6225 -0.3632 -0.3557
  587MOL0     C79160   6.654   3.104  11.244 -0.2024 -0.1780 -0.2554
  587MOL0     N79161   6.041   3.078  10.772  0.0944 -0.1026 -0.2875
  587MOL0     N79162   6.054   2.988  10.677  0.3026  0.0605  0.2845
  587MOL0     C79163   6.278   2.591   9.516 -0.6971  0.2187  0.6914
  587MOL0     C79164   6.281   2.579   9.375 -0.0079 -1.3101 -0.5331
  587MOL0     C79165   6.264   2.556   8.970 -0.4693  0.0687  0.8063
  587MOL0     C79166   6.157   2.590   8.879 -1.0152 -0.1408 -0.3906
  587MOL0     C79167   6.185   2.665   8.760  0.2579 -0.5049 -0.1863
  587MOL0     C79168   6.312   2.686   8.721  0.0542 -0.2869 -0.8636
  587MOL0     O79169   6.320   2.752   8.602  0.5045 -0.4094  0.0502
  587MOL0     C79170   6.430   2.715   8.520  0.8083  0.3953  0.1100
  587MOL0     C79171   6.539   2.817   8.524  0.2964 -0.3458 -0.8342
  587MOL0     C79172   6.645   2.804   8.415 -0.4279 -0.4217 -0.1115
  587MOL0     C79173   6.763   2.899   8.437  0.1189  0.1907 -0.3542
  587MOL0     C79174   6.728   3.036   8.404 -0.0094 -0.5003 -0.8672
  587MOL0     C79175   6.692   3.147   8.379  0.6333 -0.0629 -0.3681
  587MOL0     C79176   6.423   2.630   8.792  0.4848 -0.5375  1.2284
  587MOL0     C79177   6.396   2.573   8.917  0.0155  0.2476 -0.4913
  587MOL0     H79178   6.464   2.294   9.355  1.5393  1.3063  0.2083
  587MOL0     H79179   6.475   2.330   9.584 -0.7468  2.0824  3.6171
  587MOL0     H79180   6.357   2.720   9.770 -0.2862  0.6459  0.6990
  587MOL0     H79181   6.199   2.640   9.807 -0.6267  0.0052  0.1183
  587MOL0     H79182   6.275   2.500   9.970 -0.5758  0.2415  1.1820
  587MOL0     H79183   6.448   2.554   9.956 -0.5443 -2.4693  0.2443
  587MOL0     H79184   6.376   2.778  10.039 -0.3666 -0.3573  4.6990
  587MOL0     H79185   6.205   2.741  10.011 -0.8726 -0.4351  0.5508
  587MOL0     H79186   6.217   2.567  10.177  0.5885 -1.0692 -0.7263
  587MOL0     H79187   6.387   2.586  10.205  0.3050 -0.5839  2.2479
  587MOL0     H79188   6.336   2.819  10.286 -0.6911  1.0949  1.0518
  587MOL0     H79189   6.159   2.805  10.251  0.0416  2.0411  1.7507
  587MOL0     H79190   6.164   2.589  10.404  0.0173  0.5301 -1.1605
  587MOL0     H79191   6.327   2.637  10.452  0.0554  1.1290  1.5193
  587MOL0     H79192   6.060   2.805  10.472 -1.4959 -0.3642  2.6016
  587MOL0     H79193   6.127   2.706  10.594  0.7939 -0.4890 -0.4141
  587MOL0     H79194   6.247   2.953  10.476 -1.3194  2.3802  0.7228
  587MOL0     H79195   6.339   2.849  10.595  0.9056  1.9565 -1.5577
  587MOL0     H79196   6.353   3.008  10.814 -0.0601  0.5209 -0.7403
  587MOL0     H79197   6.272   3.192  10.978 -0.2148  2.0638 -1.2841
  587MOL0     H79198   6.109   3.257  10.948  0.0710  0.6279 -2.2336
  587MOL0     H79199   6.033   3.042  11.091  0.1352  1.6294  0.4687
  587MOL0     H79200   6.105   3.172  11.179  0.2337  0.2944 -0.3840
  587MOL0     H79201   6.265   2.928  11.074 -0.7824 -1.8010  0.8732
  587MOL0     H79202   6.201   2.950  11.232 -0.1624 -0.2679 -0.2507
  587MOL0     H79203   6.410   3.010  11.270  2.3579  1.2122 -0.3363
  587MOL0     H79204   6.332   3.167  11.233  1.4747 -0.3514  0.6904
  587MOL0     H79205   6.626   3.047  10.921  2.8903 -1.2725 -0.4789
  587MOL0     H79206   6.993   3.097  10.904 -0.9173  1.8801  0.7046
  587MOL0     H79207   6.964   2.919  10.916  1.5800  0.7819 -1.3629
  587MOL0     H79208   6.852   3.023  10.824  0.9376  3.8931 -0.8366
  587MOL0     H79209   7.230   2.902  11.278  3.2042 -2.0866  0.8089
  587MOL0     H79210   7.473   2.909  11.316 -2.1909 -1.4639 -0.4875
  587MOL0     H79211   7.760   2.988  11.525  0.4405  0.3806  0.4910
  587MOL0     H79212   7.669   2.905  11.394 -0.5070  0.1337  0.0428
  587MOL0     H79213   7.713   3.070  11.223 -1.4911  1.9987  0.8907
  587MOL0     H79214   7.754   3.180  11.344 -3.5732  0.0843 -0.1859
  587MOL0     H79215   7.921   2.934  11.291 -4.8361  0.0093 -1.2352
  587MOL0     H79216   7.967   3.047  11.410  1.0220  0.5288 -1.7894
  587MOL0     H79217   7.992   3.228  11.247 -0.7217  1.2229 -3.4046
  587MOL0     H79218   8.106   3.094  11.242  0.0693 -0.3989 -1.1582
  587MOL0     H79219   8.057   3.132  11.015 -0.0663  4.2152 -0.0158
  587MOL0     H79220   7.882   3.167  11.048  0.7557  0.5861  0.8850
  587MOL0     H79221   8.018   2.896  11.049 -2.3701 -1.7610 -0.7795
  587MOL0     H79222   7.846   2.912  11.064 -1.8819  0.3040 -3.6436
  587MOL0     H79223   8.038   2.975  10.844 -0.4678  0.6917 -1.6970
  587MOL0     H79224   7.872   3.040  10.833 -0.4946  0.3309  1.3861
  587MOL0     H79225   7.865   2.845  10.698  0.4509  0.0386 -0.0594
  587MOL0     H79226   7.798   2.790  10.851 -0.6165 -0.8956 -0.2993
  587MOL0     H79227   7.433   3.241  11.562  1.0162 -1.9923  0.3377
  587MOL0     H79228   7.183   3.266  11.486  0.4501  1.1959  0.3122
  587MOL0     H79229   6.830   3.121  11.359 -0.0220  3.4705 -1.4800
  587MOL0     H79230   6.598   3.111  11.337  0.1126 -0.0981 -0.0724
  587MOL0     H79231   6.223   2.670   9.566  0.7995  2.1261 -0.5466
  587MOL0     H79232   6.223   2.658   9.328 -1.0056 -1.1194  0.9618
  587MOL0     H79233   6.060   2.564   8.920 -0.3391  1.0671  2.1361
  587MOL0     H79234   6.098   2.696   8.703  2.7811  2.5999 -2.8232
  587MOL0     H79235   6.466   2.615   8.547  0.0930  0.6002  1.9538
  587MOL0     H79236   6.384   2.703   8.421  0.3214  1.9435  0.1328
  587MOL0     H79237   6.580   2.806   8.625 -1.5170  1.6013  0.1816
  587MOL0     H79238   6.486   2.910   8.504 -2.9782 -2.0003 -0.5726
  587MOL0     H79239   6.603   2.832   8.318  0.1788  2.2367  0.3194
  587MOL0     H79240   6.670   2.698   8.417 -0.9318 -0.5430  1.5699
  587MOL0     H79241   6.845   2.869   8.371  0.5056  0.6559 -0.0930
  587MOL0     H79242   6.793   2.891   8.542 -1.2182 -2.5716 -0.0922
  587MOL0     H79243   6.656   3.247   8.365 -1.5377 -0.5327  1.4722
  587MOL0     H79244   6.527   2.636   8.759  0.1269 -0.1911  0.1106
  587MOL0     H79245   6.478   2.544   8.982 -0.0832 -3.1897 -1.6855
  588MOL0     O79246   2.474   4.523   2.756 -0.0881  0.2824  0.3340
  588MOL0     C79247   2.412   4.420   2.775  0.3112  0.3741  0.2864
  588MOL0     O79248   2.401   4.345   2.885 -0.2722 -0.3043 -0.1496
  588MOL0     C79249   2.474   4.374   3.003  0.9428  0.3729  0.2454
  588MOL0     C79250   2.459   4.273   3.102 -0.3599 -1.0428 -0.3484
  588MOL0     C79251   2.525   4.288   3.222 -0.4580 -1.0014 -0.2285
  588MOL0     C79252   2.602   4.408   3.251 -0.1868  0.3204  0.0958
  588MOL0     O79253   2.678   4.422   3.367  0.1772  0.0032 -0.4010
  588MOL0     C79254   2.731   4.299   3.431 -0.7934 -0.6690 -0.0199
  588MOL0     C79255   2.869   4.266   3.375 -0.1577 -0.6339  0.1130
  588MOL0     C79256   2.964   4.392   3.390  0.4291  0.1260 -0.2396
  588MOL0     C79257   3.098   4.365   3.325  0.3594 -0.6151  0.1617
  588MOL0     C79258   3.203   4.474   3.350  0.7498  0.5192 -0.2443
  588MOL0     C79259   3.341   4.436   3.280 -0.1396  0.3165 -0.0800
  588MOL0     C79260   3.437   4.542   3.319 -0.0951 -0.1519 -0.1270
  588MOL0     C79261   3.530   4.565   3.198 -0.2401  0.1766 -0.4204
  588MOL0     N79262   3.644   4.641   3.235 -0.4517 -1.3815 -0.8786
  588MOL0     C79263   3.751   4.590   3.317 -0.6233  0.2256  0.5868
  588MOL0     C79264   3.841   4.692   3.334 -0.6130  0.0149 -0.0074
  588MOL0     C79265   3.979   4.685   3.401  0.2998  1.4368 -0.0956
  588MOL0     C79266   4.082   4.766   3.325  1.0651  0.1850  0.3000
  588MOL0     C79267   4.092   4.731   3.173  0.1271 -0.3396 -0.1265
  588MOL0     C79268   4.143   4.595   3.149  0.5566  0.0801  0.1639
  588MOL0     O79269   4.174   4.575   3.002  0.4405 -0.3295 -0.6413
  588MOL0     C79270   4.065   4.580   2.920 -0.0203  0.2852 -0.4033
  588MOL0     C79271   3.952   4.503   2.939  0.2880  0.0145  0.3536
  588MOL0     C79272   3.841   4.527   2.860 -0.6444  0.0065 -0.4693
  588MOL0     C79273   3.709   4.455   2.901 -0.1503 -0.6487 -0.1713
  588MOL0     C79274   3.855   4.612   2.747  0.1649  0.0756  0.1440
  588MOL0     C79275   3.748   4.617   2.655  0.0874  0.1896  0.0571
  588MOL0     O79276   3.779   4.577   2.537 -0.3888 -0.0570 -0.6732
  588MOL0     C79277   3.706   4.612   2.422 -0.0655 -0.7158 -0.0197
  588MOL0     C79278   3.775   4.602   2.296  0.7002  0.2102 -0.0818
  588MOL0     C79279   3.709   4.606   2.170  0.4982 -0.9098 -0.2503
  588MOL0     C79280   3.568   4.643   2.165 -0.2181 -0.4120 -0.2091
  588MOL0     O79281   3.520   4.654   2.045 -0.3758 -0.6702  0.1733
  588MOL0     C79282   3.400   4.595   2.004  0.1068  0.1661  0.6709
  588MOL0     C79283   3.415   4.552   1.856  1.0382 -0.3776  0.0033
  588MOL0     C79284   3.389   4.678   1.768 -0.1447  0.5390  0.7831
  588MOL0     C79285   3.462   4.681   1.632  0.0784  0.5710  1.0175
  588MOL0     C79286   3.405   4.801   1.556  0.5197 -0.6552  0.0106
  588MOL0     C79287   3.482   4.839   1.424 -0.9052  0.5837 -0.4714
  588MOL0     C79288   3.404   4.935   1.334 -0.5778 -0.9541 -0.7480
  588MOL0     C79289   3.374   5.064   1.405  0.2009  0.4320  0.2384
  588MOL0    Cl79290   3.286   5.173   1.298 -0.1594 -0.2979  0.7555
  588MOL0     C79291   3.502   4.639   2.289 -0.2258  0.1239  0.1386
  588MOL0     C79292   3.563   4.625   2.413  0.7012 -0.8689  0.6899
  588MOL0     O79293   3.638   4.651   2.695  0.1813 -0.1725 -0.0075
  588MOL0     C79294   3.970   4.673   2.722  0.0177 -0.6038  0.3929
  588MOL0     C79295   4.076   4.650   2.801 -0.5314  0.1718 -0.2890
  588MOL0     N79296   3.785   4.800   3.272 -0.0366 -0.1550  0.3631
  588MOL0     N79297   3.667   4.776   3.220 -1.3519  0.6432  0.2239
  588MOL0     C79298   2.630   4.492   3.145  0.2307  0.8161  0.4862
  588MOL0     C79299   2.561   4.486   3.024  0.0571  0.2050  0.4447
  588MOL0     C79300   2.365   4.352   2.650 -0.0445  0.4134 -0.4607
  588MOL0     C79301   2.287   4.242   2.653 -1.3131  0.6113 -0.8749
  588MOL0     C79302   2.269   4.157   2.543 -0.6441 -0.1091  0.3785
  588MOL0     C79303   2.337   4.185   2.422 -0.4718 -0.4707 -0.4432
  588MOL0     O79304   2.324   4.104   2.317  0.6941 -0.2027 -0.1723
  588MOL0     C79305   2.197   4.117   2.248  0.9788 -0.0046 -0.6717
  588MOL0     C79306   2.210   4.216   2.136  0.7190 -0.2832  0.2284
  588MOL0     C79307   2.269   4.138   2.011  0.7952  0.1640  0.0040
  588MOL0     C79308   2.346   4.234   1.921  0.0274  0.5556 -0.9753
  588MOL0     C79309   2.246   4.329   1.866  0.1558  0.1653  0.0040
  588MOL0     C79310   2.151   4.395   1.827 -0.0980 -0.2321  0.6275
  588MOL0     C79311   2.409   4.298   2.411  0.0074 -0.1524  0.0256
  588MOL0     C79312   2.418   4.395   2.520 -0.5466 -0.0770 -0.6849
  588MOL0     H79313   2.394   4.187   3.104 -1.2030 -0.4171 -0.0160
  588MOL0     H79314   2.514   4.213   3.299  0.0175  0.3323  1.1795
  588MOL0     H79315   2.745   4.316   3.538 -2.1244 -3.1746  0.6314
  588MOL0     H79316   2.669   4.209   3.428 -1.6796 -0.2336  2.6558
  588MOL0     H79317   2.903   4.169   3.411  0.5113  0.1469  1.6758
  588MOL0     H79318   2.846   4.263   3.268  3.1318 -0.1480 -0.7317
  588MOL0     H79319   2.915   4.474   3.336  0.0827 -1.0827 -1.8451
  588MOL0     H79320   2.972   4.423   3.495 -1.3250  0.7777 -0.2561
  588MOL0     H79321   3.136   4.276   3.377  2.4017  0.7481  1.1070
  588MOL0     H79322   3.089   4.346   3.218  2.7008 -3.0041  0.2885
  588MOL0     H79323   3.150   4.562   3.312 -1.8455 -0.4904  0.8438
  588MOL0     H79324   3.198   4.476   3.460 -0.7878 -1.8544 -0.2209
  588MOL0     H79325   3.384   4.339   3.307  0.4139  0.5019 -0.2813
  588MOL0     H79326   3.320   4.436   3.172 -1.2753  1.6818  0.1055
  588MOL0     H79327   3.385   4.636   3.337 -2.8508 -1.5342 -0.2554
  588MOL0     H79328   3.486   4.504   3.409 -3.4506 -1.8138  1.1841
  588MOL0     H79329   3.488   4.615   3.111  2.8125 -1.8310 -3.2697
  588MOL0     H79330   3.565   4.464   3.175  0.0979  0.1115  0.3462
  588MOL0     H79331   3.776   4.486   3.332  3.0659  0.6732 -1.2586
  588MOL0     H79332   3.962   4.720   3.503  1.3561  0.0226  0.6010
  588MOL0     H79333   4.022   4.585   3.416  0.0495  1.3353 -0.0357
  588MOL0     H79334   4.187   4.761   3.356  1.4075  2.0644 -0.4394
  588MOL0     H79335   4.050   4.868   3.345 -1.6847 -0.6285  0.4524
  588MOL0     H79336   4.148   4.814   3.128  0.3987 -0.8345 -0.7039
  588MOL0     H79337   3.994   4.744   3.125  1.7672  3.4808 -2.9204
  588MOL0     H79338   4.078   4.514   3.183  1.5114 -1.2848 -1.1259
  588MOL0     H79339   4.243   4.581   3.189  2.1238 -0.2669 -3.4327
  588MOL0     H79340   3.944   4.433   3.022  0.4762 -2.1007 -1.3197
  588MOL0     H79341   3.627   4.525   2.919  1.2827  0.9397  0.4705
  588MOL0     H79342   3.662   4.383   2.833 -1.3703 -0.4174  0.3935
  588MOL0     H79343   3.721   4.396   2.992  1.0199 -1.8700 -1.0747
  588MOL0     H79344   3.879   4.579   2.311  0.4227  0.1845  2.1696
  588MOL0     H79345   3.746   4.597   2.069 -1.8233  0.0086 -1.2374
  588MOL0     H79346   3.379   4.512   2.072 -2.5646 -0.8607 -1.2489
  588MOL0     H79347   3.312   4.660   2.014 -0.6109 -0.5356 -0.7454
  588MOL0     H79348   3.519   4.518   1.851  1.2638 -0.0308  1.8383
  588MOL0     H79349   3.350   4.469   1.825  1.3766 -0.9433  0.7704
  588MOL0     H79350   3.390   4.758   1.842 -0.3284 -0.3630  1.7801
  588MOL0     H79351   3.287   4.659   1.733  1.2365 -2.0443 -2.3812
  588MOL0     H79352   3.571   4.679   1.646  0.6901 -5.0155 -1.5483
  588MOL0     H79353   3.432   4.594   1.573 -0.6431  1.4185  0.1016
  588MOL0     H79354   3.415   4.870   1.640 -1.2347  0.1541 -0.3765
  588MOL0     H79355   3.297   4.792   1.538  0.6344 -0.5391 -0.8039
  588MOL0     H79356   3.577   4.883   1.453 -0.8089 -0.8317  1.5259
  588MOL0     H79357   3.504   4.745   1.373 -1.8652 -1.0811  1.9947
  588MOL0     H79358   3.326   4.867   1.297  0.2300 -0.8282 -2.7827
  588MOL0     H79359   3.465   4.962   1.248  0.9124 -2.1787 -0.1305
  588MOL0     H79360   3.475   5.101   1.423  0.1445  1.2968 -1.1126
  588MOL0     H79361   3.313   5.057   1.496 -1.6741  0.6411 -0.9466
  588MOL0     H79362   3.394   4.650   2.289 -0.2239  0.5899 -2.1506
  588MOL0     H79363   3.494   4.621   2.496 -1.4891  2.2075 -0.7903
  588MOL0     H79364   3.968   4.729   2.629 -0.6393  0.0657  0.8074
  588MOL0     H79365   4.171   4.696   2.773 -0.2122  0.2315  0.8413
  588MOL0     H79366   2.708   4.567   3.161  4.4346 -2.3226 -2.7268
  588MOL0     H79367   2.601   4.561   2.956 -0.2087 -1.8913 -2.1770
  588MOL0     H79368   2.240   4.215   2.747  1.0700  2.7872  1.0817
  588MOL0     H79369   2.211   4.066   2.525  2.2077 -1.3501 -4.6033
  588MOL0     H79370   2.169   4.016   2.218 -2.5630 -0.3893  3.0795
  588MOL0     H79371   2.120   4.144   2.321 -1.2216 -3.2611 -1.5732
  588MOL0     H79372   2.264   4.307   2.160 -0.1128  0.4273 -0.5084
  588MOL0     H79373   2.115   4.266   2.112  3.1446  5.5076  1.0898
  588MOL0     H79374   2.205   4.083   1.941  2.0137  0.1430 -1.1371
  588MOL0     H79375   2.339   4.065   2.053  1.2342  0.8142  0.4226
  588MOL0     H79376   2.396   4.177   1.841 -1.0922 -0.2591 -1.1274
  588MOL0     H79377   2.424   4.286   1.977  1.3404 -2.6731  0.4659
  588MOL0     H79378   2.057   4.444   1.807 -1.8139 -4.0132 -1.6213
  588MOL0     H79379   2.472   4.309   2.323  4.7388 -0.7563  2.9587
  588MOL0     H79380   2.464   4.493   2.511 -1.0076  0.2007 -0.1093
  589MOL0     O79381   6.274   6.852   1.661  0.7510 -0.1227 -0.1274
  589MOL0     C79382   6.351   6.763   1.691 -0.1778  0.0279 -0.0241
  589MOL0     O79383   6.460   6.726   1.622 -0.5624 -0.6315  0.3264
  589MOL0     C79384   6.486   6.793   1.503  0.6451  0.1027 -0.3491
  589MOL0     C79385   6.524   6.924   1.498  0.7269 -0.3320  0.8806
  589MOL0     C79386   6.560   6.975   1.370  0.1268  0.7770 -1.2059
  589MOL0     C79387   6.577   6.889   1.258  0.1400  0.5129  0.8397
  589MOL0     O79388   6.611   6.950   1.134  0.2806 -0.0170 -0.7034
  589MOL0     C79389   6.709   6.889   1.043  0.2002 -0.2007 -1.1943
  589MOL0     C79390   6.782   7.009   0.975  0.3511  0.3116 -1.5409
  589MOL0     C79391   6.873   6.966   0.856  0.2015 -0.0663  0.5754
  589MOL0     C79392   6.785   6.929   0.730 -1.5546 -0.8920  0.2313
  589MOL0     C79393   6.859   6.806   0.656  0.0737 -0.3181  0.6145
  589MOL0     C79394   6.984   6.838   0.576  0.4020  0.4208  0.1928
  589MOL0     C79395   7.036   6.713   0.492  0.9714 -0.8557  0.4416
  589MOL0     C79396   7.051   6.591   0.575  0.4119  1.2580 -0.2744
  589MOL0     N79397   7.109   6.473   0.512 -1.0328  0.4115  0.4888
  589MOL0     C79398   7.248   6.445   0.508  0.7255  0.9035  0.6086
  589MOL0     C79399   7.261   6.353   0.409  0.3023 -0.1796 -0.7787
  589MOL0     C79400   7.376   6.293   0.341  0.7849  0.7167  0.8374
  589MOL0     C79401   7.425   6.357   0.208  0.4178 -0.4106 -0.2498
  589MOL0     C79402   7.476   6.498   0.239  0.3185  0.3319  0.2757
  589MOL0     C79403   7.526   6.574   0.118 -0.1613  0.1397 -0.2070
  589MOL0     O79404   7.642   6.653   0.148 -0.1389  1.3753 -0.1779
  589MOL0     C79405   7.638   6.782   0.199  0.5059  0.4051  0.7935
  589MOL0     C79406   7.525   6.849   0.223  0.7723 -0.0727  0.0793
  589MOL0     C79407   7.527   6.981   0.280 -0.2363  0.4694  0.9075
  589MOL0     C79408   7.384   7.037   0.326 -0.1533 -0.4082  0.3096
  589MOL0     C79409   7.650   7.044   0.303  0.3066 -0.5613  0.1714
  589MOL0     C79410   7.659   7.191   0.349  0.1197 -0.3825  0.8432
  589MOL0     O79411   7.544   7.256   0.355  1.2973 -0.6045 -0.1424
  589MOL0     C79412   7.549   7.388   0.381  0.4117 -0.8062  1.2106
  589MOL0     C79413   7.539   7.436   0.515 -0.7951  0.1888 -0.4157
  589MOL0     C79414   7.561   7.571   0.548  0.7375 -0.6892 -0.3356
  589MOL0     C79415   7.567   7.658   0.449  0.3203  0.3828  0.2062
  589MOL0     O79416   7.580   7.792   0.480 -0.8961  0.1008  0.4529
  589MOL0     C79417   7.683   7.864   0.404 -0.4601 -1.0337  0.0297
  589MOL0     C79418   7.761   7.941   0.503  0.2132 -0.3397  0.6571
  589MOL0     C79419   7.868   8.036   0.435 -0.8218 -0.3040 -0.0599
  589MOL0     C79420   7.883   8.184   0.497 -0.3854  0.0991  0.4049
  589MOL0     C79421   7.976   8.196   0.617 -0.0333  0.2262  0.4771
  589MOL0     C79422   7.990   8.345   0.657 -0.3627  0.1831 -0.5654
  589MOL0     C79423   8.061   8.367   0.799  0.1209  0.2639  0.2527
  589MOL0     C79424   7.947   8.392   0.897 -0.1051  0.5415 -0.2426
  589MOL0    Cl79425   7.855   8.541   0.853 -0.3278 -0.1068  0.4940
  589MOL0     C79426   7.567   7.623   0.309 -0.1486  0.2693 -1.1883
  589MOL0     C79427   7.562   7.487   0.276  0.6340  0.6639 -0.5621
  589MOL0     O79428   7.770   7.246   0.356  0.2488  0.0319 -0.8307
  589MOL0     C79429   7.766   6.971   0.271 -0.1606  0.1702  0.9163
  589MOL0     C79430   7.755   6.848   0.207 -1.0172 -0.4670 -0.3355
  589MOL0     N79431   7.141   6.320   0.359  0.3074 -0.5194  1.2311
  589MOL0     N79432   7.050   6.393   0.414  0.4839 -0.1863  0.7279
  589MOL0     C79433   6.556   6.749   1.278 -0.3836 -0.3595  0.8643
  589MOL0     C79434   6.503   6.711   1.396 -0.3344 -0.2850  0.0304
  589MOL0     C79435   6.342   6.728   1.833 -0.3819  0.0537 -0.1618
  589MOL0     C79436   6.250   6.798   1.911 -0.4711 -0.7567 -0.7102
  589MOL0     C79437   6.235   6.772   2.055  0.8263  0.7170  0.3016
  589MOL0     C79438   6.306   6.669   2.114 -0.2499 -0.3637 -0.1661
  589MOL0     O79439   6.277   6.629   2.239 -0.6737 -0.4084  0.3024
  589MOL0     C79440   6.387   6.597   2.323  0.0488 -0.8013  0.3453
  589MOL0     C79441   6.404   6.716   2.417 -0.2248 -0.9131 -0.0863
  589MOL0     C79442   6.327   6.710   2.554 -0.3486  0.6105  0.1639
  589MOL0     C79443   6.397   6.626   2.670  0.4193  0.0951  0.3967
  589MOL0     C79444   6.333   6.651   2.799  0.5256 -0.4231  0.2939
  589MOL0     C79445   6.260   6.680   2.895 -0.2349  0.8946  0.4910
  589MOL0     C79446   6.393   6.598   2.035 -0.0573  1.4885  0.4085
  589MOL0     C79447   6.409   6.627   1.897  0.8468  0.1650  0.4199
  589MOL0     H79448   6.525   6.996   1.579 -0.2543  1.2711 -0.4615
  589MOL0     H79449   6.569   7.083   1.363  0.1743  1.0055  1.2145
  589MOL0     H79450   6.781   6.824   1.094 -1.1788 -0.3427  0.6569
  589MOL0     H79451   6.651   6.826   0.974  0.6547 -1.4741 -0.4483
  589MOL0     H79452   6.715   7.092   0.951  0.0253  0.2070 -1.0239
  589MOL0     H79453   6.849   7.040   1.056 -4.9234 -0.5068  3.9129
  589MOL0     H79454   6.945   7.045   0.831  0.4646 -0.6077 -0.4284
  589MOL0     H79455   6.936   6.886   0.893 -1.0664 -1.0912  0.5783
  589MOL0     H79456   6.686   6.901   0.767 -0.6670 -4.4691  0.2846
  589MOL0     H79457   6.782   7.020   0.669 -0.4178  0.0830  1.5711
  589MOL0     H79458   6.869   6.731   0.735 -2.2223 -0.6046  0.6980
  589MOL0     H79459   6.793   6.765   0.580  1.4977 -0.1900 -0.7274
  589MOL0     H79460   6.961   6.922   0.511 -0.6495 -0.4110 -0.5297
  589MOL0     H79461   7.057   6.876   0.648 -0.7057  4.6167 -0.6069
  589MOL0     H79462   6.967   6.691   0.409  0.8838 -2.0191  0.8111
  589MOL0     H79463   7.128   6.746   0.443  1.1321  2.1705  2.5390
  589MOL0     H79464   6.949   6.564   0.604  1.4745 -4.8764 -0.8033
  589MOL0     H79465   7.103   6.615   0.668 -0.9987  2.4301  0.2568
  589MOL0     H79466   7.327   6.491   0.568  2.0456 -0.4450 -0.0393
  589MOL0     H79467   7.464   6.297   0.406  2.1805 -1.6176 -0.7389
  589MOL0     H79468   7.357   6.189   0.313  1.1837  1.0011 -0.5709
  589MOL0     H79469   7.339   6.362   0.141 -0.5068  0.2040  0.9533
  589MOL0     H79470   7.513   6.300   0.177  0.0319 -2.6944  2.4961
  589MOL0     H79471   7.557   6.470   0.308  1.0505 -1.6163 -1.2794
  589MOL0     H79472   7.405   6.564   0.290  1.1478 -0.0893  2.0501
  589MOL0     H79473   7.436   6.623   0.080  0.5132  1.3315 -0.3242
  589MOL0     H79474   7.560   6.486   0.062 -0.5872 -2.2587  2.9616
  589MOL0     H79475   7.426   6.805   0.227  0.6329  0.3444  1.9531
  589MOL0     H79476   7.352   7.113   0.255  3.7617 -2.2078 -3.9071
  589MOL0     H79477   7.301   6.966   0.336 -0.1436 -0.7157 -1.5338
  589MOL0     H79478   7.385   7.087   0.423 -2.2436 -0.2495  0.2800
  589MOL0     H79479   7.533   7.365   0.597  0.3996  0.3770 -0.1503
  589MOL0     H79480   7.552   7.586   0.655 -1.2646 -2.7224 -0.1450
  589MOL0     H79481   7.745   7.807   0.335 -1.2112 -0.0766 -1.4881
  589MOL0     H79482   7.630   7.944   0.351 -1.2823 -1.3495  0.3601
  589MOL0     H79483   7.693   7.997   0.567 -0.0044  3.1298 -2.2904
  589MOL0     H79484   7.809   7.870   0.571 -1.8082 -2.0531  0.3990
  589MOL0     H79485   7.855   8.057   0.329 -2.0168  2.7173  0.5783
  589MOL0     H79486   7.963   7.981   0.433  0.5212  1.7332  2.1218
  589MOL0     H79487   7.927   8.242   0.415  1.5174 -1.8411 -0.0486
  589MOL0     H79488   7.789   8.232   0.523 -3.1610 -0.3349 -6.6615
  589MOL0     H79489   8.070   8.142   0.606 -2.2003 -3.7976 -0.5742
  589MOL0     H79490   7.931   8.149   0.705 -3.3558  2.4644  0.1619
  589MOL0     H79491   8.052   8.392   0.580  0.1616 -2.6120 -1.9992
  589MOL0     H79492   7.895   8.399   0.660 -0.0169  0.7773  1.7798
  589MOL0     H79493   8.135   8.449   0.797  3.0967 -2.2626 -0.8696
  589MOL0     H79494   8.113   8.276   0.831  2.9057  2.4581  2.5734
  589MOL0     H79495   7.996   8.415   0.992  1.9519  1.6166 -1.4856
  589MOL0     H79496   7.886   8.302   0.907  0.6036  0.0080 -0.6530
  589MOL0     H79497   7.577   7.704   0.237 -3.0391  0.8486 -1.0639
  589MOL0     H79498   7.579   7.455   0.173  1.0969  0.1606 -0.3357
  589MOL0     H79499   7.863   7.019   0.283  0.6557 -1.0734 -0.3093
  589MOL0     H79500   7.839   6.804   0.155  0.4137  1.8724 -0.1505
  589MOL0     H79501   6.568   6.671   1.204 -0.8732  0.5680 -0.2277
  589MOL0     H79502   6.465   6.610   1.396 -0.3229 -0.2931  0.5708
  589MOL0     H79503   6.173   6.863   1.872 -0.3204  0.6770  1.2497
  589MOL0     H79504   6.159   6.834   2.101  1.4734 -0.0165  2.4921
  589MOL0     H79505   6.367   6.508   2.383 -0.6159  0.5719  2.2888
  589MOL0     H79506   6.484   6.587   2.273  1.8591  0.1562  3.3909
  589MOL0     H79507   6.376   6.809   2.368 -2.0604 -1.6544 -0.5070
  589MOL0     H79508   6.510   6.740   2.430 -0.5853  0.4014  0.5558
  589MOL0     H79509   6.225   6.682   2.523  0.7257 -2.5302 -0.9638
  589MOL0     H79510   6.334   6.815   2.582  1.3021  0.8284 -0.9648
  589MOL0     H79511   6.504   6.649   2.666  0.3049  0.9769  1.7637
  589MOL0     H79512   6.397   6.521   2.640  5.9801  0.1477 -0.8321
  589MOL0     H79513   6.188   6.703   2.972 -2.0052  0.5938 -0.9881
  589MOL0     H79514   6.429   6.498   2.057 -1.8648  0.7717  0.3019
  589MOL0     H79515   6.484   6.577   1.838 -1.3193  0.5198 -2.8698
  590MOL0     O79516   0.088   0.980   2.296  0.0067  0.2141 -0.8984
  590MOL0     C79517   0.195   0.933   2.320 -0.2105  1.0320 -0.5146
  590MOL0     O79518   0.304   0.954   2.244  0.6738 -0.1824  0.1565
  590MOL0     C79519   0.303   1.055   2.142  0.4226  0.1685 -0.0478
  590MOL0     C79520   0.330   1.180   2.182 -0.6988 -0.1481  0.3393
  590MOL0     C79521   0.343   1.281   2.087  0.9989 -1.0883  1.1486
  590MOL0     C79522   0.327   1.268   1.947 -0.2242  0.2529  0.5062
  590MOL0     O79523   0.323   1.380   1.856  0.3490 -0.3073 -0.3125
  590MOL0     C79524   0.357   1.353   1.723 -0.4768  0.5925  0.0204
  590MOL0     C79525   0.338   1.477   1.646  0.5497 -0.3599  1.0986
  590MOL0     C79526   0.194   1.536   1.664 -0.8856 -0.0042  0.0029
  590MOL0     C79527   0.196   1.652   1.760  0.5076  0.0850  0.0691
  590MOL0     C79528   0.053   1.708   1.783  0.1327  0.3686  0.6339
  590MOL0     C79529  -0.039   1.616   1.860  0.3406  0.1836 -0.1688
  590MOL0     C79530  -0.172   1.675   1.862  0.1586 -1.1048 -0.0796
  590MOL0     C79531  -0.264   1.561   1.895  0.4703  0.8347  0.4775
  590MOL0     N79532  -0.277   1.463   1.785 -0.0063 -0.8279 -0.1954
  590MOL0     C79533  -0.404   1.446   1.716 -1.1525  0.4497 -0.0736
  590MOL0     C79534  -0.379   1.340   1.628  0.0600  0.1021 -0.2241
  590MOL0     C79535  -0.467   1.281   1.515  0.6158 -0.0672 -0.5501
  590MOL0     C79536  -0.420   1.320   1.374 -0.2518  0.9490  0.0675
  590MOL0     C79537  -0.493   1.240   1.263  1.0567  0.5862  0.2463
  590MOL0     C79538  -0.447   1.291   1.131  0.5725  0.5418 -0.2080
  590MOL0     O79539  -0.529   1.225   1.029  0.3056 -0.3843  0.1278
  590MOL0     C79540  -0.478   1.262   0.912 -0.6229  0.6254 -0.7817
  590MOL0     C79541  -0.399   1.168   0.845 -0.3926 -0.0424  0.4339
  590MOL0     C79542  -0.339   1.192   0.721  0.0992  0.3725  0.2414
  590MOL0     C79543  -0.236   1.089   0.676  0.5586 -0.6658 -0.0543
  590MOL0     C79544  -0.358   1.321   0.666  0.9740  0.6415  1.1281
  590MOL0     C79545  -0.299   1.361   0.537  0.1676  0.8755  0.4191
  590MOL0     O79546  -0.302   1.499   0.520  0.0042  0.3940  1.2037
  590MOL0     C79547  -0.213   1.545   0.429  0.1068  0.3250 -0.5227
  590MOL0     C79548  -0.079   1.569   0.472  0.1947  0.0106 -0.4994
  590MOL0     C79549   0.021   1.614   0.391 -0.2541 -0.5703  0.0454
  590MOL0     C79550  -0.009   1.661   0.265  0.1313  1.0506  0.2938
  590MOL0     O79551   0.100   1.694   0.189  0.3593 -0.5600 -0.0677
  590MOL0     C79552   0.091   1.743   0.057 -0.1281 -0.0728  0.2748
  590MOL0     C79553   0.232   1.757  -0.005  0.2894  0.2521  0.4363
  590MOL0     C79554   0.235   1.799  -0.156 -0.0296 -0.4113 -1.3069
  590MOL0     C79555   0.272   1.683  -0.242 -0.2485  1.1936  0.1496
  590MOL0     C79556   0.424   1.662  -0.245 -0.2959  0.4451  0.6683
  590MOL0     C79557   0.462   1.519  -0.287 -0.0662 -0.7447  0.9358
  590MOL0     C79558   0.413   1.416  -0.191  0.0080  0.5458 -0.4095
  590MOL0     C79559   0.479   1.276  -0.224  0.7079  0.1630 -0.1180
  590MOL0    Cl79560   0.657   1.295  -0.191 -0.2524  0.4445 -0.1569
  590MOL0     C79561  -0.139   1.635   0.217  0.2345 -1.0998  0.7590
  590MOL0     C79562  -0.245   1.581   0.296 -0.2214  0.7779 -0.8414
  590MOL0     O79563  -0.263   1.280   0.455  0.6006 -0.3032  0.7330
  590MOL0     C79564  -0.443   1.411   0.732  0.7473  0.3089  0.9081
  590MOL0     C79565  -0.502   1.389   0.858  0.7275  0.2354 -0.4845
  590MOL0     N79566  -0.246   1.299   1.638 -0.3413  0.7044 -0.0210
  590MOL0     N79567  -0.193   1.354   1.741  0.7042  0.0372  0.2047
  590MOL0     C79568   0.289   1.136   1.909  0.5741 -1.3490  0.0093
  590MOL0     C79569   0.270   1.035   2.003  0.9310  0.8297 -1.2979
  590MOL0     C79570   0.209   0.832   2.422 -0.0868 -1.1708  0.8696
  590MOL0     C79571   0.122   0.814   2.534 -0.0618  0.5325 -0.1974
  590MOL0     C79572   0.145   0.714   2.635 -0.1352  0.7817  0.0612
  590MOL0     C79573   0.257   0.636   2.633 -0.8646 -0.6027 -0.4553
  590MOL0     O79574   0.300   0.544   2.728 -0.5311  0.7751  0.3345
  590MOL0     C79575   0.285   0.576   2.867 -0.3070 -0.0204  0.7598
  590MOL0     C79576   0.356   0.466   2.956  0.1785  1.1459  0.0853
  590MOL0     C79577   0.494   0.412   2.905 -0.1387 -0.0266  0.2718
  590MOL0     C79578   0.592   0.525   2.884 -1.4460  0.2268  0.3031
  590MOL0     C79579   0.732   0.479   2.867 -0.6256  0.0521 -0.0298
  590MOL0     C79580   0.848   0.458   2.879 -0.2240 -0.4286 -0.7476
  590MOL0     C79581   0.346   0.647   2.525 -0.0513  0.0458  0.0798
  590MOL0     C79582   0.321   0.739   2.419  0.3067 -0.2057  0.0239
  590MOL0     H79583   0.355   1.216   2.282 -0.5730  5.7056 -1.4157
  590MOL0     H79584   0.360   1.384   2.115  0.5324  0.2398 -2.8331
  590MOL0     H79585   0.462   1.324   1.721 -0.5791 -0.0169  1.9056
  590MOL0     H79586   0.297   1.268   1.690  2.1874 -1.9872  1.4101
  590MOL0     H79587   0.411   1.548   1.685 -3.3865  3.6113  1.9856
  590MOL0     H79588   0.349   1.456   1.539 -0.0728 -1.9356  1.3128
  590MOL0     H79589   0.155   1.570   1.568  1.2958 -2.5146 -1.9056
  590MOL0     H79590   0.128   1.462   1.710 -1.5809  1.0445  0.7360
  590MOL0     H79591   0.225   1.607   1.855  0.1137 -0.6964 -0.1635
  590MOL0     H79592   0.265   1.730   1.727  0.2604  1.3503  2.3612
  590MOL0     H79593   0.068   1.804   1.835 -2.1295  0.6861  0.8178
  590MOL0     H79594   0.013   1.733   1.685 -0.1963  1.6829  1.0701
  590MOL0     H79595  -0.039   1.523   1.802 -2.7332 -0.1545  0.2311
  590MOL0     H79596   0.016   1.609   1.954  2.9760  0.8637 -1.5718
  590MOL0     H79597  -0.176   1.763   1.927  1.4431  0.6769 -2.2588
  590MOL0     H79598  -0.208   1.705   1.763 -1.2205  0.8810  0.9523
  590MOL0     H79599  -0.364   1.597   1.920 -0.9631 -1.1666 -1.8954
  590MOL0     H79600  -0.219   1.506   1.978  0.2524 -1.9253 -1.0945
  590MOL0     H79601  -0.495   1.504   1.725 -0.3103  1.6941  0.7216
  590MOL0     H79602  -0.489   1.174   1.518  2.0013 -0.3689 -0.3866
  590MOL0     H79603  -0.563   1.329   1.534  1.4516  0.9050  1.6310
  590MOL0     H79604  -0.311   1.313   1.376 -0.0066  2.9021  4.0588
  590MOL0     H79605  -0.454   1.423   1.362  1.7299  1.5345 -0.9206
  590MOL0     H79606  -0.602   1.241   1.272  1.1042  1.0273  0.8144
  590MOL0     H79607  -0.466   1.134   1.272 -0.1605  0.3848  1.9710
  590MOL0     H79608  -0.341   1.267   1.121  1.4540  4.0804 -0.4085
  590MOL0     H79609  -0.458   1.399   1.142 -0.8644  0.1868  3.5194
  590MOL0     H79610  -0.382   1.069   0.886  3.3400  0.1936 -0.1475
  590MOL0     H79611  -0.285   1.003   0.629  0.8041 -0.5756 -0.4860
  590MOL0     H79612  -0.154   1.125   0.613 -0.8440 -1.0564 -2.2276
  590MOL0     H79613  -0.182   1.044   0.759 -0.1135 -0.7915  0.3238
  590MOL0     H79614  -0.053   1.529   0.570 -1.5517  1.4848  0.6296
  590MOL0     H79615   0.120   1.602   0.433  0.3326 -0.1370 -1.1585
  590MOL0     H79616   0.022   1.678   0.003  0.5680  0.5864 -1.4641
  590MOL0     H79617   0.050   1.844   0.059  1.3527  0.5509  0.8753
  590MOL0     H79618   0.290   1.828   0.054  3.8581 -0.7895 -1.5028
  590MOL0     H79619   0.275   1.657   0.003 -1.7538 -0.5226  3.2437
  590MOL0     H79620   0.303   1.881  -0.178 -1.0798  1.0637  0.5911
  590MOL0     H79621   0.143   1.848  -0.187 -0.0220  1.5091  1.3942
  590MOL0     H79622   0.215   1.597  -0.204  1.9103 -1.0859 -1.3981
  590MOL0     H79623   0.243   1.695  -0.347  1.3601 -0.1206 -0.4968
  590MOL0     H79624   0.469   1.685  -0.148 -0.2928  0.1375  0.7411
  590MOL0     H79625   0.463   1.733  -0.320 -3.2926  0.1836 -1.2958
  590MOL0     H79626   0.430   1.506  -0.391  1.4739 -1.8040  0.5615
  590MOL0     H79627   0.571   1.522  -0.286 -0.0388 -0.8099  3.0482
  590MOL0     H79628   0.305   1.399  -0.203  0.2132 -1.5942  0.3631
  590MOL0     H79629   0.427   1.436  -0.085  0.5707 -4.0978  0.5983
  590MOL0     H79630   0.477   1.252  -0.331  3.3657  2.7635 -0.8917
  590MOL0     H79631   0.436   1.196  -0.162  2.1077 -2.0910 -1.8917
  590MOL0     H79632  -0.152   1.639   0.110  3.1475 -0.8422  0.3253
  590MOL0     H79633  -0.340   1.540   0.261  2.1344 -3.6802 -2.8384
  590MOL0     H79634  -0.458   1.514   0.701 -0.5278  0.3985  1.7753
  590MOL0     H79635  -0.568   1.465   0.898 -1.5390 -0.6897 -2.2275
  590MOL0     H79636   0.272   1.112   1.804 -1.5196 -0.4967  0.1019
  590MOL0     H79637   0.249   0.931   1.980 -1.5196  0.6042  1.5037
  590MOL0     H79638   0.035   0.876   2.550 -0.4995 -0.0907 -0.1278
  590MOL0     H79639   0.074   0.723   2.717 -1.1542  0.3802 -0.7495
  590MOL0     H79640   0.336   0.668   2.897 -0.9569  0.6350 -0.1050
  590MOL0     H79641   0.178   0.581   2.888 -0.6071 -0.0325 -0.7100
  590MOL0     H79642   0.286   0.383   2.950  1.9197 -0.4462  0.9582
  590MOL0     H79643   0.354   0.493   3.063 -0.7001  1.6788 -0.0495
  590MOL0     H79644   0.478   0.350   2.816 -0.8620  0.8383 -0.2190
  590MOL0     H79645   0.534   0.348   2.984 -0.7810 -1.0452 -0.2080
  590MOL0     H79646   0.593   0.581   2.978  1.2800 -0.0840  0.5287
  590MOL0     H79647   0.563   0.581   2.795 -1.5970 -0.3839 -0.0297
  590MOL0     H79648   0.950   0.425   2.880 -1.5032 -5.0433  0.1542
  590MOL0     H79649   0.428   0.577   2.513 -0.6462 -0.8782  1.2027
  590MOL0     H79650   0.390   0.729   2.337 -2.2558  1.0559 -2.4700
  591MOL0     O79651   2.524   4.475  11.008 -0.4383  0.1534  0.2840
  591MOL0     C79652   2.446   4.519  10.925  0.1609  0.1587 -0.3551
  591MOL0     O79653   2.304   4.508  10.936 -0.3861 -0.3170  0.4462
  591MOL0     C79654   2.232   4.450  11.043 -0.3018 -0.4857  0.0031
  591MOL0     C79655   2.277   4.404  11.168  0.2671 -0.4772  0.2073
  591MOL0     C79656   2.185   4.356  11.264 -0.0858  0.1527 -0.4114
  591MOL0     C79657   2.047   4.362  11.245  0.6855  0.6928 -0.3390
  591MOL0     O79658   1.955   4.305  11.330  0.6152  0.4073  0.3685
  591MOL0     C79659   1.984   4.195  11.420  0.1428 -0.2447 -0.9437
  591MOL0     C79660   2.010   4.056  11.356  0.2035 -1.3705 -0.0704
  591MOL0     C79661   1.884   3.999  11.291 -0.5153  0.1966 -0.0078
  591MOL0     C79662   1.913   3.908  11.173  1.0510 -0.0815 -1.0971
  591MOL0     C79663   1.991   3.784  11.216 -0.0933 -0.4554  0.4462
  591MOL0     C79664   2.022   3.697  11.095  0.5139 -0.1923 -0.6764
  591MOL0     C79665   2.092   3.562  11.124 -0.5928 -0.6977  0.4526
  591MOL0     C79666   2.224   3.573  11.199  0.2122 -0.0971  0.4576
  591MOL0     N79667   2.321   3.473  11.144  0.6154 -0.2203  1.7508
  591MOL0     C79668   2.328   3.346  11.196 -1.8728 -0.6632 -0.5998
  591MOL0     C79669   2.436   3.292  11.135  0.0379 -0.4535  0.3521
  591MOL0     C79670   2.500   3.160  11.137 -0.0460  0.8635 -0.0686
  591MOL0     C79671   2.581   3.151  11.261 -0.2460  0.1625 -1.4400
  591MOL0     C79672   2.535   3.037  11.348  0.3009  0.4692 -0.6228
  591MOL0     C79673   2.435   3.083  11.457 -0.3333 -0.1987 -0.3937
  591MOL0     O79674   2.290   3.074  11.430 -0.5623 -0.1054  0.6777
  591MOL0     C79675   2.233   2.949  11.448 -1.0383 -1.2474 -0.2390
  591MOL0     C79676   2.288   2.841  11.518 -1.7181  0.0826  0.2121
  591MOL0     C79677   2.218   2.717  11.527 -1.2277  0.8553  0.6977
  591MOL0     C79678   2.256   2.622  11.640 -0.3570 -0.5196  0.0574
  591MOL0     C79679   2.100   2.698  11.440 -0.3825  0.6219  0.2384
  591MOL0     C79680   2.017   2.574  11.435 -0.6416  0.0143 -0.3904
  591MOL0     O79681   2.026   2.480  11.536 -0.4549 -0.1936 -0.9667
  591MOL0     C79682   1.908   2.409  11.567 -0.5457  0.4520  0.2211
  591MOL0     C79683   1.858   2.307  11.483 -0.3121  0.5379  0.3695
  591MOL0     C79684   1.743   2.241  11.525  0.3464  0.0195 -0.0377
  591MOL0     C79685   1.678   2.269  11.654  0.0298 -0.2806  0.5521
  591MOL0     O79686   1.555   2.224  11.677 -0.4648  0.0460 -0.4537
  591MOL0     C79687   1.478   2.304  11.767  0.0572  0.4734 -1.0920
  591MOL0     C79688   1.330   2.282  11.801  0.0529  1.1182 -0.0292
  591MOL0     C79689   1.240   2.246  11.674 -1.1084  0.5072 -0.2308
  591MOL0     C79690   1.229   2.376  11.600 -0.1566  0.3347  0.4293
  591MOL0     C79691   1.159   2.351  11.463  0.0935 -1.2674  0.1041
  591MOL0     C79692   1.014   2.294  11.439 -0.5739 -0.0390 -0.7428
  591MOL0     C79693   0.906   2.378  11.513  0.3949 -0.0712 -0.4812
  591MOL0     C79694   0.761   2.352  11.464 -0.5592  0.5903 -0.7365
  591MOL0    Cl79695   0.647   2.446  11.579 -0.3415 -0.1516 -0.0765
  591MOL0     C79696   1.742   2.363  11.738 -0.4942 -0.1876  0.6476
  591MOL0     C79697   1.844   2.441  11.686  0.5032  0.5991 -1.2751
  591MOL0     O79698   1.942   2.575  11.337 -0.4670  0.6490 -0.3841
  591MOL0     C79699   2.067   2.808  11.352 -0.2474  0.0781 -0.5710
  591MOL0     C79700   2.130   2.927  11.363  0.2039 -0.6838 -0.1366
  591MOL0     N79701   2.493   3.383  11.058 -0.1988 -0.4485 -0.1948
  591MOL0     N79702   2.431   3.497  11.064  0.3643 -0.9478 -0.2485
  591MOL0     C79703   2.006   4.411  11.122  0.9197  0.8717  0.8087
  591MOL0     C79704   2.091   4.457  11.025  0.0893  0.9616 -0.0859
  591MOL0     C79705   2.496   4.582  10.801 -0.4726  0.4322 -0.6311
  591MOL0     C79706   2.422   4.594  10.685  1.0350  1.3275  0.5661
  591MOL0     C79707   2.464   4.642  10.560 -0.6883  0.0512 -0.1454
  591MOL0     C79708   2.597   4.676  10.549 -0.3854  0.9105  1.1017
  591MOL0     O79709   2.668   4.704  10.433  0.3448 -0.5245 -0.1197
  591MOL0     C79710   2.614   4.639  10.320 -0.0290  0.0605  0.1924
  591MOL0     C79711   2.604   4.484  10.322 -0.2810 -0.5633 -0.0640
  591MOL0     C79712   2.735   4.418  10.287  0.1174  0.1171 -0.8427
  591MOL0     C79713   2.789   4.315  10.390 -0.5654 -0.1873  0.4760
  591MOL0     C79714   2.821   4.376  10.521 -0.2000  0.5106 -0.1134
  591MOL0     C79715   2.869   4.423  10.619 -0.3618  1.1528  1.0365
  591MOL0     C79716   2.676   4.670  10.658  0.0525 -0.1009  0.3212
  591MOL0     C79717   2.631   4.625  10.785 -1.0107  0.4009  0.1035
  591MOL0     H79718   2.384   4.415  11.187  0.4821  3.8761 -2.3553
  591MOL0     H79719   2.240   4.323  11.352 -0.9795 -0.3947 -0.0417
  591MOL0     H79720   2.072   4.220  11.479 -1.6343  1.8140  1.0554
  591MOL0     H79721   1.899   4.178  11.487  1.7079 -1.4077  0.8637
  591MOL0     H79722   2.081   4.065  11.274  1.4394 -1.0285  1.0008
  591MOL0     H79723   2.049   3.983  11.428 -0.3658  1.9127  3.9778
  591MOL0     H79724   1.830   3.948  11.371  1.7166 -0.9552  0.8397
  591MOL0     H79725   1.829   4.078  11.238  1.6377 -0.6404 -3.8842
  591MOL0     H79726   1.821   3.868  11.129  0.7439 -2.3252  1.3243
  591MOL0     H79727   1.978   3.961  11.104  2.7547 -0.2860  0.2785
  591MOL0     H79728   2.088   3.817  11.256  1.4488 -0.6801 -2.7374
  591MOL0     H79729   1.929   3.733  11.290 -1.0350 -3.8802 -2.4341
  591MOL0     H79730   1.940   3.683  11.024  0.9526  1.5778 -1.5888
  591MOL0     H79731   2.093   3.754  11.033 -0.4632  0.2412 -1.4241
  591MOL0     H79732   2.031   3.484  11.170  1.1618 -1.4871  1.5637
  591MOL0     H79733   2.121   3.514  11.030  0.7308  0.8399  0.0276
  591MOL0     H79734   2.200   3.555  11.304 -0.5328 -0.0848  0.2971
  591MOL0     H79735   2.265   3.674  11.200 -0.3476  0.1457 -0.1194
  591MOL0     H79736   2.260   3.303  11.269 -2.7427  1.0939 -0.3162
  591MOL0     H79737   2.421   3.084  11.136 -1.5590  2.1583  3.7730
  591MOL0     H79738   2.566   3.140  11.053  2.2525 -1.3002  2.0577
  591MOL0     H79739   2.598   3.245  11.315  1.5624 -0.2197 -1.2838
  591MOL0     H79740   2.678   3.126  11.217  1.2493  1.3828  0.9131
  591MOL0     H79741   2.611   3.003  11.419 -1.6667 -0.5301  1.0773
  591MOL0     H79742   2.503   2.948  11.293  1.7397  0.2103 -1.1056
  591MOL0     H79743   2.462   3.189  11.459  1.0662 -0.5309  0.1989
  591MOL0     H79744   2.458   3.045  11.557 -2.0824 -1.3790 -0.3973
  591MOL0     H79745   2.369   2.862  11.587 -0.8783 -2.5954  0.1683
  591MOL0     H79746   2.181   2.607  11.717 -0.2965 -3.0352 -0.2880
  591MOL0     H79747   2.285   2.528  11.591  0.2619 -0.6024  0.5765
  591MOL0     H79748   2.343   2.653  11.698 -0.5871  0.9239 -0.3237
  591MOL0     H79749   1.911   2.273  11.394  0.4607  1.7119  0.3595
  591MOL0     H79750   1.692   2.167  11.465 -0.9929  0.5093  0.4528
  591MOL0     H79751   1.527   2.298  11.864 -3.9399 -3.6832  1.0464
  591MOL0     H79752   1.477   2.411  11.741 -2.9376  0.8930  0.2229
  591MOL0     H79753   1.323   2.185  11.851 -3.0657  0.8259 -0.8142
  591MOL0     H79754   1.282   2.351  11.872  2.0058  0.7421  1.7463
  591MOL0     H79755   1.143   2.206  11.705 -0.6655  1.0261  2.0295
  591MOL0     H79756   1.291   2.168  11.616 -2.4881 -1.1908  0.7067
  591MOL0     H79757   1.170   2.440  11.666  0.2074 -1.4907  2.6429
  591MOL0     H79758   1.322   2.430  11.585 -1.4627  2.4244 -0.6896
  591MOL0     H79759   1.223   2.283  11.406 -1.1596  0.0447 -3.1419
  591MOL0     H79760   1.173   2.441  11.402  0.2211 -0.9511  0.5908
  591MOL0     H79761   0.997   2.309  11.332 -0.7559  1.8546 -0.4738
  591MOL0     H79762   1.005   2.189  11.469 -0.7280  1.1894  4.3574
  591MOL0     H79763   0.911   2.483  11.483  0.0725 -0.7145 -3.0259
  591MOL0     H79764   0.924   2.357  11.619  5.7715 -0.9963 -1.2550
  591MOL0     H79765   0.729   2.248  11.466 -1.3417  0.8285 -0.6977
  591MOL0     H79766   0.752   2.389  11.362  1.2294  0.9197 -0.8043
  591MOL0     H79767   1.706   2.378  11.839 -1.0526 -0.8356  0.5464
  591MOL0     H79768   1.878   2.530  11.737 -1.1190 -0.4549  1.9135
  591MOL0     H79769   1.974   2.816  11.297 -2.4485  1.3632  3.0244
  591MOL0     H79770   2.073   3.011  11.323  0.5552  1.1223  2.8096
  591MOL0     H79771   1.899   4.421  11.106  0.5685 -0.5077  2.1267
  591MOL0     H79772   2.052   4.500  10.933 -1.5263 -2.9272 -1.4213
  591MOL0     H79773   2.321   4.556  10.688  1.4847 -0.5516 -2.7016
  591MOL0     H79774   2.406   4.642  10.468  1.7290 -0.4921 -1.7485
  591MOL0     H79775   2.520   4.683  10.288 -0.7225 -0.3639  1.5569
  591MOL0     H79776   2.678   4.665  10.235  0.7653  1.3878  1.1605
  591MOL0     H79777   2.523   4.453  10.256  0.6862  0.0826 -1.6204
  591MOL0     H79778   2.576   4.457  10.424 -0.8428  0.5400  0.0832
  591MOL0     H79779   2.806   4.498  10.266  0.0708 -0.0529 -1.6833
  591MOL0     H79780   2.720   4.363  10.194 -0.1096 -0.5482 -0.4176
  591MOL0     H79781   2.882   4.279  10.344 -0.3952 -1.0642  1.4772
  591MOL0     H79782   2.722   4.230  10.384  0.7041 -1.1894  0.0038
  591MOL0     H79783   2.902   4.474  10.707  0.6796 -1.6053  2.3629
  591MOL0     H79784   2.778   4.705  10.655 -0.5312  1.5920 -0.7619
  591MOL0     H79785   2.710   4.620  10.859 -0.9415  4.0911  0.4692
  592MOL0     O79786   5.663   3.204   9.662  0.3566  0.0157 -0.4113
  592MOL0     C79787   5.605   3.311   9.678  0.5174 -0.1630 -0.4084
  592MOL0     O79788   5.668   3.426   9.712  0.0293 -0.2076  0.0467
  592MOL0     C79789   5.801   3.438   9.735 -0.6207 -0.3541 -0.3988
  592MOL0     C79790   5.901   3.336   9.749 -1.1790  0.1556  0.1495
  592MOL0     C79791   6.027   3.377   9.796  0.2147  0.0530 -0.2077
  592MOL0     C79792   6.061   3.514   9.813 -0.1701 -0.3763 -0.4176
  592MOL0     O79793   6.191   3.517   9.850 -0.5626  1.0826 -1.0739
  592MOL0     C79794   6.267   3.645   9.851 -0.5446 -0.2734  0.1468
  592MOL0     C79795   6.236   3.726   9.974 -0.7234  0.1387 -0.3837
  592MOL0     C79796   6.335   3.833   9.994  0.2544 -0.6209  0.1738
  592MOL0     C79797   6.295   3.948   9.905  0.3440  0.3597 -1.0955
  592MOL0     C79798   6.368   4.073   9.947 -0.0220  0.7536  0.5047
  592MOL0     C79799   6.349   4.195   9.848  1.0621 -0.6834  0.2505
  592MOL0     C79800   6.394   4.318   9.915 -0.5251 -0.2869  0.3864
  592MOL0     C79801   6.373   4.460   9.846 -0.1898  0.1260 -0.5503
  592MOL0     N79802   6.460   4.459   9.721  0.3271  0.1510 -0.6627
  592MOL0     C79803   6.425   4.458   9.593 -0.4778 -0.2274  0.3931
  592MOL0     C79804   6.543   4.469   9.526 -0.8014 -1.8986 -0.6795
  592MOL0     C79805   6.557   4.479   9.377  0.1857  0.1733  0.2539
  592MOL0     C79806   6.558   4.348   9.305 -0.0630 -1.0663  0.3805
  592MOL0     C79807   6.482   4.363   9.173  0.0355 -0.5667 -0.5722
  592MOL0     C79808   6.543   4.263   9.066  0.0452 -0.8144 -0.7018
  592MOL0     O79809   6.683   4.293   9.062  0.0888 -0.1742 -0.2338
  592MOL0     C79810   6.758   4.219   8.984 -0.6549  0.2194 -0.4338
  592MOL0     C79811   6.740   4.221   8.844 -0.4352 -0.5912  0.1524
  592MOL0     C79812   6.836   4.176   8.761  0.6011 -0.4085 -0.2018
  592MOL0     C79813   6.796   4.198   8.618 -0.1106  1.0055  0.0139
  592MOL0     C79814   6.965   4.140   8.815 -0.8514 -1.4645 -0.9685
  592MOL0     C79815   7.076   4.097   8.736  0.5929  0.0123  0.2663
  592MOL0     O79816   7.190   4.098   8.797 -0.6343 -0.0897  0.2276
  592MOL0     C79817   7.299   4.035   8.750 -0.9559  0.2414  0.7259
  592MOL0     C79818   7.296   3.915   8.676  0.1173  0.5343 -0.2181
  592MOL0     C79819   7.416   3.862   8.631  1.0510  0.3459  0.4288
  592MOL0     C79820   7.543   3.926   8.658 -0.0323  0.2217  1.5472
  592MOL0     O79821   7.663   3.880   8.615  0.2850  1.4554  0.6282
  592MOL0     C79822   7.663   3.781   8.512 -0.1795 -0.3537  1.5250
  592MOL0     C79823   7.805   3.760   8.469  0.9144 -0.5457 -0.1268
  592MOL0     C79824   7.868   3.639   8.553  0.8349  0.0767 -0.5479
  592MOL0     C79825   7.991   3.579   8.483 -0.0668 -0.3676  0.9877
  592MOL0     C79826   8.038   3.454   8.550  0.5309 -0.0561 -0.9326
  592MOL0     C79827   8.071   3.475   8.704  0.5749  0.5693  0.4453
  592MOL0     C79828   8.152   3.353   8.744  0.2202  0.4581  0.4641
  592MOL0     C79829   8.176   3.354   8.902  0.1393  0.6770 -0.7925
  592MOL0    Cl79830   8.290   3.226   8.936  0.4851  0.4681 -0.2200
  592MOL0     C79831   7.541   4.030   8.747  0.3443 -0.1700  0.5003
  592MOL0     C79832   7.421   4.081   8.793 -0.4702 -0.6412 -0.0938
  592MOL0     O79833   7.057   4.070   8.612 -0.4064 -0.2310  0.2379
  592MOL0     C79834   6.981   4.140   8.954 -0.3055  0.8126  0.0494
  592MOL0     C79835   6.882   4.183   9.033  0.1257  0.4910  0.3845
  592MOL0     N79836   6.636   4.492   9.621 -0.0943 -0.3514 -0.1429
  592MOL0     N79837   6.591   4.488   9.735 -0.4338  0.3793 -0.2267
  592MOL0     C79838   5.962   3.612   9.790 -0.4436 -0.0285  0.2016
  592MOL0     C79839   5.834   3.572   9.758  0.3598  0.4327  0.8134
  592MOL0     C79840   5.457   3.306   9.700 -0.3823  0.3629 -0.0061
  592MOL0     C79841   5.387   3.178   9.687  0.6228 -0.6335 -0.2848
  592MOL0     C79842   5.246   3.169   9.704 -0.4376  0.2181 -0.1294
  592MOL0     C79843   5.172   3.280   9.740  0.2147  0.2964  0.3160
  592MOL0     O79844   5.045   3.270   9.800  0.2974  0.4165 -0.3740
  592MOL0     C79845   5.000   3.139   9.840  1.2018 -0.3290  0.4114
  592MOL0     C79846   4.855   3.146   9.894  0.1447 -0.5018  0.4031
  592MOL0     C79847   4.831   3.238  10.017 -0.7900  0.6552  0.6781
  592MOL0     C79848   4.683   3.252  10.066 -1.7458  0.2787 -0.8356
  592MOL0     C79849   4.636   3.136  10.140 -1.3334  0.8955 -0.9784
  592MOL0     C79850   4.587   3.041  10.183 -0.2229  0.1630 -0.7482
  592MOL0     C79851   5.248   3.400   9.761  0.0825 -0.3349 -0.1734
  592MOL0     C79852   5.376   3.421   9.723 -0.3501  0.1082 -0.2889
  592MOL0     H79853   5.876   3.230   9.745 -2.0185  0.3658 -0.4280
  592MOL0     H79854   6.110   3.308   9.811  0.5948  0.0500 -2.1176
  592MOL0     H79855   6.375   3.630   9.859 -0.5161  0.8889  3.3954
  592MOL0     H79856   6.249   3.713   9.768  1.6774  1.8689  1.3166
  592MOL0     H79857   6.134   3.765   9.973 -0.0185  2.1357  0.7045
  592MOL0     H79858   6.252   3.658  10.058 -0.8995 -0.3403 -0.7346
  592MOL0     H79859   6.310   3.869  10.095 -1.3627 -0.6633 -0.1996
  592MOL0     H79860   6.442   3.807   9.995  1.9303  4.9492  0.2985
  592MOL0     H79861   6.309   3.922   9.799 -0.3323 -4.4127 -0.2436
  592MOL0     H79862   6.189   3.975   9.909 -0.4011 -2.2368 -1.4278
  592MOL0     H79863   6.323   4.102  10.042 -0.6422  2.5682 -0.2946
  592MOL0     H79864   6.477   4.066   9.955  0.1119  2.1485  0.1906
  592MOL0     H79865   6.400   4.197   9.752  0.8801  1.2529  0.1500
  592MOL0     H79866   6.242   4.193   9.826  0.8775  1.8383  0.6538
  592MOL0     H79867   6.330   4.326  10.003 -0.0434  2.4474  0.5654
  592MOL0     H79868   6.502   4.311   9.925 -0.3611 -1.8951 -1.5966
  592MOL0     H79869   6.397   4.536   9.920 -0.4803 -0.7246  0.4361
  592MOL0     H79870   6.271   4.473   9.808 -2.3645  1.2877  4.8682
  592MOL0     H79871   6.336   4.426   9.540 -0.1596 -0.9148  0.2639
  592MOL0     H79872   6.476   4.538   9.334 -1.1439 -2.3784 -1.0392
  592MOL0     H79873   6.649   4.530   9.349  1.6618 -1.8514  1.1464
  592MOL0     H79874   6.489   4.281   9.357 -0.1494 -1.8183 -0.6589
  592MOL0     H79875   6.652   4.293   9.317 -0.8145 -2.8207 -1.2020
  592MOL0     H79876   6.502   4.463   9.133 -1.2293  0.7181  1.8405
  592MOL0     H79877   6.375   4.346   9.187 -0.0962 -0.7539 -1.6784
  592MOL0     H79878   6.492   4.293   8.974  1.7624  3.0471 -0.5938
  592MOL0     H79879   6.532   4.156   9.084  1.7636 -1.5197 -3.2516
  592MOL0     H79880   6.649   4.262   8.803  2.0851  3.5244 -1.9762
  592MOL0     H79881   6.746   4.111   8.575  2.1372 -0.1126 -0.5108
  592MOL0     H79882   6.726   4.282   8.607 -0.0884  0.7550 -2.8189
  592MOL0     H79883   6.886   4.215   8.558  0.9759  0.7405  1.5194
  592MOL0     H79884   7.200   3.870   8.655  1.3709 -3.2161  1.3220
  592MOL0     H79885   7.409   3.762   8.589  0.9766  0.2362  0.6990
  592MOL0     H79886   7.617   3.685   8.537 -2.3039  0.4166  0.8087
  592MOL0     H79887   7.620   3.832   8.425  3.2420  0.8606  0.4049
  592MOL0     H79888   7.808   3.741   8.361  1.0132  1.4443 -0.5140
  592MOL0     H79889   7.866   3.849   8.490  2.3548 -0.7916 -2.8157
  592MOL0     H79890   7.790   3.566   8.574 -2.3331  1.9633 -4.3417
  592MOL0     H79891   7.893   3.680   8.651 -2.5459  0.6201  0.2078
  592MOL0     H79892   7.962   3.543   8.384  0.0446 -1.0505  1.1943
  592MOL0     H79893   8.076   3.646   8.478 -1.6152  1.5888 -0.7056
  592MOL0     H79894   8.133   3.420   8.507  0.7385 -2.1392  0.9997
  592MOL0     H79895   7.954   3.385   8.542  2.1045 -1.9656 -1.6367
  592MOL0     H79896   8.133   3.564   8.717 -1.5658  2.5787 -1.9809
  592MOL0     H79897   7.980   3.496   8.761 -0.2679  0.0598 -0.6610
  592MOL0     H79898   8.242   3.330   8.687 -2.3549 -3.2479 -2.6159
  592MOL0     H79899   8.087   3.274   8.708 -1.7901  1.1733  2.3009
  592MOL0     H79900   8.084   3.337   8.958  1.0430  0.3193  0.6415
  592MOL0     H79901   8.210   3.453   8.934 -1.5191  2.0610 -3.0243
  592MOL0     H79902   7.627   4.082   8.787  0.1517  1.4070 -1.0045
  592MOL0     H79903   7.428   4.162   8.864  4.6364 -0.4726 -0.4351
  592MOL0     H79904   7.068   4.102   9.007  1.4937  3.4390 -0.8231
  592MOL0     H79905   6.903   4.195   9.139 -1.5970 -1.4972  1.0094
  592MOL0     H79906   5.979   3.719   9.795 -0.7461  0.1429 -1.7678
  592MOL0     H79907   5.762   3.651   9.735  1.2017  1.2489  0.9204
  592MOL0     H79908   5.444   3.089   9.665  3.4193  0.9763 -0.0427
  592MOL0     H79909   5.197   3.072   9.702  0.6244 -0.5403  3.4762
  592MOL0     H79910   4.995   3.078   9.749 -3.2479  2.6241 -1.6840
  592MOL0     H79911   5.069   3.082   9.903 -0.0886 -4.8194 -1.8200
  592MOL0     H79912   4.835   3.041   9.919  0.9736 -0.6647  0.4162
  592MOL0     H79913   4.787   3.176   9.814 -2.5513 -0.4633  2.5694
  592MOL0     H79914   4.867   3.337   9.987 -2.8142  0.8813 -1.2436
  592MOL0     H79915   4.888   3.202  10.103 -0.7401 -1.4330 -0.1619
  592MOL0     H79916   4.619   3.285   9.984  1.0308  1.0002 -2.8870
  592MOL0     H79917   4.684   3.323  10.149 -0.4182 -2.4886  1.6793
  592MOL0     H79918   4.525   2.956  10.204 -1.5366  1.6540  1.7326
  592MOL0     H79919   5.208   3.484   9.817  1.5823  0.5038 -0.3082
  592MOL0     H79920   5.427   3.516   9.729 -0.3496  0.5153 -4.2982
  593MOL0     O79921  11.021   8.548  10.361  0.2753 -0.2923 -0.2798
  593MOL0     C79922  10.989   8.504  10.252  0.6792  0.5163 -0.8798
  593MOL0     O79923  10.925   8.379  10.233  0.1763  0.4193  0.4677
  593MOL0     C79924  10.913   8.295  10.335  1.2398 -0.0572 -0.0940
  593MOL0     C79925  10.888   8.166  10.297 -0.0697 -0.1005 -0.7285
  593MOL0     C79926  10.867   8.057  10.383 -0.2303 -0.0260  0.3834
  593MOL0     C79927  10.874   8.074  10.523  0.5539  0.8267  0.4673
  593MOL0     O79928  10.838   7.967  10.613 -0.2689 -0.1802  1.2898
  593MOL0     C79929  10.837   7.976  10.759 -0.6359  0.3557 -0.0135
  593MOL0     C79930  10.796   7.838  10.819 -0.7898 -0.4547 -0.4128
  593MOL0     C79931  10.881   7.721  10.781 -0.2819 -0.9829  0.2955
  593MOL0     C79932  10.831   7.583  10.835 -0.1577 -0.0016 -0.0584
  593MOL0     C79933  10.730   7.512  10.742 -0.2066  0.0888 -0.7654
  593MOL0     C79934  10.652   7.405  10.812  0.5503 -1.7633 -0.3050
  593MOL0     C79935  10.731   7.278  10.838  0.1705  0.8669  0.1064
  593MOL0     C79936  10.638   7.173  10.901  0.8528  0.6170  0.6677
  593MOL0     N79937  10.690   7.044  10.919 -0.1893  0.7766  0.0804
  593MOL0     C79938  10.803   7.034  10.998  0.2514 -0.0152  0.3800
  593MOL0     C79939  10.875   6.930  10.946  0.8570 -0.0972  0.1830
  593MOL0     C79940  11.015   6.894  10.984 -0.3278  0.3686 -0.2588
  593MOL0     C79941  11.092   6.909  10.861 -0.3979 -1.1642 -0.2647
  593MOL0     C79942  11.110   7.050  10.812  0.3957  0.2748  0.0111
  593MOL0     C79943  11.169   7.146  10.917 -0.9659 -0.0024 -0.2713
  593MOL0     O79944  11.066   7.218  10.988  0.1050  0.0334  1.1896
  593MOL0     C79945  11.114   7.308  11.078 -0.5252  0.4181  0.4709
  593MOL0     C79946  11.032   7.413  11.115  0.4204  0.5211  0.2638
  593MOL0     C79947  11.051   7.505  11.219  0.0809  1.4740 -0.0190
  593MOL0     C79948  10.946   7.604  11.257 -1.2873  0.6642 -0.3441
  593MOL0     C79949  11.176   7.501  11.284 -0.6097 -0.2378 -0.6405
  593MOL0     C79950  11.222   7.589  11.390  0.2714  0.0911 -0.9391
  593MOL0     O79951  11.142   7.691  11.434 -0.2106  0.2740  0.2116
  593MOL0     C79952  11.176   7.743  11.555 -0.4169 -0.3830  0.2668
  593MOL0     C79953  11.291   7.824  11.591  0.8536  0.0045 -1.0326
  593MOL0     C79954  11.291   7.891  11.714  0.2888 -0.1391 -1.1587
  593MOL0     C79955  11.189   7.868  11.800 -0.2697 -0.3480 -0.1637
  593MOL0     O79956  11.175   7.946  11.915  0.3573 -0.3014  0.3721
  593MOL0     C79957  11.218   7.881  12.033  0.4888  0.4678 -0.2534
  593MOL0     C79958  11.169   7.948  12.148  0.5760 -0.3533 -0.2869
  593MOL0     C79959  11.269   7.945  12.267 -0.7092 -0.8182  0.5402
  593MOL0     C79960  11.290   7.805  12.338 -0.6334 -0.3567 -0.0852
  593MOL0     C79961  11.166   7.757  12.411  0.5151 -0.8606 -0.2258
  593MOL0     C79962  11.177   7.641  12.490  0.0064  0.8259  0.6867
  593MOL0     C79963  11.159   7.510  12.397 -0.0448  0.7121 -0.6776
  593MOL0     C79964  11.122   7.382  12.487 -1.2391 -0.0174  0.5725
  593MOL0    Cl79965  10.938   7.385  12.525 -0.3110  0.3280  0.1107
  593MOL0     C79966  11.081   7.785  11.766  0.1383  0.2181 -0.3606
  593MOL0     C79967  11.069   7.726  11.648  0.2328  0.4665  0.5856
  593MOL0     O79968  11.344   7.580  11.417 -0.4944  0.1468  0.1569
  593MOL0     C79969  11.258   7.392  11.263  0.5650 -0.3105  0.3431
  593MOL0     C79970  11.234   7.301  11.148  0.5402 -0.0720 -0.0499
  593MOL0     N79971  10.798   6.876  10.843  0.0823 -0.3351  0.6355
  593MOL0     N79972  10.688   6.943  10.826 -0.6085  1.0292 -0.2687
  593MOL0     C79973  10.914   8.197  10.559  0.0592 -0.2128  0.4075
  593MOL0     C79974  10.923   8.310  10.472  0.1862 -0.6281 -0.5330
  593MOL0     C79975  11.017   8.581  10.137  0.9518  0.0570 -0.0131
  593MOL0     C79976  10.969   8.527  10.019  0.1496 -0.5574  0.0080
  593MOL0     C79977  10.984   8.605   9.907 -0.0539 -0.6223  0.4073
  593MOL0     C79978  11.066   8.722   9.905  0.7561 -0.0728  0.2326
  593MOL0     O79979  11.074   8.783   9.781 -0.2876 -0.1311 -1.1883
  593MOL0     C79980  11.171   8.891   9.768  0.1885  0.3370  1.2308
  593MOL0     C79981  11.098   9.018   9.803  0.0407 -0.6569 -0.2609
  593MOL0     C79982  11.029   9.094   9.695  0.8498  0.2812  0.8879
  593MOL0     C79983  11.103   9.108   9.562  0.5459  0.9932 -0.6576
  593MOL0     C79984  11.230   9.188   9.572  0.7653  0.2481 -0.1282
  593MOL0     C79985  11.337   9.237   9.574  0.1644  0.2041 -0.5585
  593MOL0     C79986  11.112   8.771  10.028 -0.2151 -0.1852 -0.3784
  593MOL0     C79987  11.089   8.695  10.144  0.3784 -0.8852 -0.0237
  593MOL0     H79988  10.862   8.157  10.191 -1.1114  1.4834 -0.6476
  593MOL0     H79989  10.840   7.964  10.336 -3.5370  1.2503 -0.4819
  593MOL0     H79990  10.943   7.984  10.783 -0.3229 -0.3624 -1.0739
  593MOL0     H79991  10.791   8.067  10.799 -1.0671  1.2707 -2.4408
  593MOL0     H79992  10.787   7.846  10.928  0.2782  0.4770 -0.3746
  593MOL0     H79993  10.694   7.815  10.790 -0.9529  0.7932 -0.8977
  593MOL0     H79994  10.888   7.709  10.672 -0.8180  0.4696  0.0654
  593MOL0     H79995  10.981   7.729  10.823 -0.2231 -3.4668  0.7627
  593MOL0     H79996  10.917   7.522  10.866 -0.0621  0.1546 -0.0154
  593MOL0     H79997  10.775   7.599  10.928 -1.5657 -0.5497 -0.7933
  593MOL0     H79998  10.659   7.583  10.697 -2.4742 -0.1872  2.1043
  593MOL0     H79999  10.776   7.465  10.654 -0.2220  0.2056 -0.8376
  593MOL0     H80000  10.614   7.439  10.909  1.0913 -2.4658  0.1606
  593MOL0     H80001  10.559   7.393  10.755  1.1991 -3.3661 -1.0831
  593MOL0     H80002  10.778   7.236  10.748  2.1921 -1.3062  2.0508
  593MOL0     H80003  10.817   7.306  10.899 -0.5594 -0.6282  1.9123
  593MOL0     H80004  10.560   7.167  10.824  2.0813  3.0231 -0.8964
  593MOL0     H80005  10.599   7.204  10.998  0.1130  1.0200  0.2454
  593MOL0     H80006  10.846   7.100  11.072  0.5728 -1.9956  2.0630
  593MOL0     H80007  11.036   6.955  11.073  2.1867 -1.3607  0.4443
  593MOL0     H80008  11.019   6.794  11.028  0.8664 -0.0958 -1.3433
  593MOL0     H80009  11.057   6.838  10.786  0.6622 -2.3689  0.3513
  593MOL0     H80010  11.195   6.884  10.886 -0.5250 -1.9456 -0.5033
  593MOL0     H80011  11.014   7.093  10.783  1.1296  1.9713 -0.0631
  593MOL0     H80012  11.174   7.052  10.723  0.7935 -0.0599  0.2823
  593MOL0     H80013  11.215   7.228  10.862 -1.3603  2.0153  2.2457
  593MOL0     H80014  11.249   7.103  10.978  1.0755  0.1968 -2.6298
  593MOL0     H80015  10.937   7.411  11.061  0.5398 -0.7239  0.0667
  593MOL0     H80016  10.853   7.614  11.199 -2.0705  1.9622  1.0531
  593MOL0     H80017  10.926   7.608  11.364 -1.3694  0.1256 -0.3397
  593MOL0     H80018  10.987   7.704  11.238  1.7258  0.1872  2.7592
  593MOL0     H80019  11.364   7.819  11.512  0.7134  1.9196 -1.3240
  593MOL0     H80020  11.374   7.955  11.741  0.0376 -0.7492  1.3134
  593MOL0     H80021  11.184   7.777  12.040 -2.1760  1.3804  2.3426
  593MOL0     H80022  11.327   7.880  12.024  0.3450  1.0926 -2.4301
  593MOL0     H80023  11.143   8.051  12.123  0.3615  0.4521  2.8304
  593MOL0     H80024  11.075   7.904  12.183  1.1922  0.1368  2.2526
  593MOL0     H80025  11.226   8.013  12.342  0.2606 -0.4235  0.7562
  593MOL0     H80026  11.359   7.998  12.236 -2.5968  2.5289  0.2614
  593MOL0     H80027  11.319   7.728  12.267 -3.3631  1.3405 -3.3107
  593MOL0     H80028  11.371   7.815  12.411 -1.7311 -1.9219  1.4261
  593MOL0     H80029  11.080   7.755  12.343 -0.7099 -2.5997  1.2736
  593MOL0     H80030  11.138   7.834  12.484 -0.4265 -0.5322 -0.9202
  593MOL0     H80031  11.268   7.631  12.550  2.5248 -0.3177 -2.9864
  593MOL0     H80032  11.096   7.643  12.563  0.6812  1.8309  1.4388
  593MOL0     H80033  11.257   7.491  12.352  2.1392 -1.4572  4.2875
  593MOL0     H80034  11.081   7.528  12.322  0.8039 -2.0977 -2.3938
  593MOL0     H80035  11.187   7.371  12.574 -0.0187  1.9524 -0.0222
  593MOL0     H80036  11.143   7.296  12.423 -1.0113  2.1152 -2.4303
  593MOL0     H80037  10.997   7.765  11.832  1.1883 -1.0512  0.6547
  593MOL0     H80038  10.984   7.675  11.604  2.6877  0.4559 -5.0302
  593MOL0     H80039  11.351   7.375  11.317  0.6743  0.1039  0.2881
  593MOL0     H80040  11.320   7.247  11.112  0.5612  1.0104 -1.7379
  593MOL0     H80041  10.913   8.225  10.664  2.8844  0.3546  0.3577
  593MOL0     H80042  10.948   8.405  10.518 -0.0528 -0.9465  0.2594
  593MOL0     H80043  10.921   8.431  10.006  0.2562 -0.5174 -0.7329
  593MOL0     H80044  10.934   8.576   9.815  0.8834  1.8047 -0.9602
  593MOL0     H80045  11.253   8.871   9.837  2.0780 -2.6642 -1.5863
  593MOL0     H80046  11.205   8.889   9.664  1.5119 -0.8335  1.6614
  593MOL0     H80047  11.166   9.092   9.847  0.4539 -0.5399 -1.0743
  593MOL0     H80048  11.019   8.987   9.872 -0.1264 -1.2662 -0.7172
  593MOL0     H80049  11.021   9.200   9.721  1.5353  1.0009 -1.5637
  593MOL0     H80050  10.923   9.067   9.686  1.5401 -3.8961  2.6863
  593MOL0     H80051  11.040   9.159   9.489 -1.4534 -2.0143 -1.2360
  593MOL0     H80052  11.115   9.010   9.515  1.2167  0.6158  0.2731
  593MOL0     H80053  11.439   9.267   9.567  2.2632 -4.2023  4.3309
  593MOL0     H80054  11.160   8.868  10.032 -0.0036 -0.2632 -0.9062
  593MOL0     H80055  11.129   8.725  10.241  2.4039 -2.1362 -0.4180
  594MOL0     O80056   0.727   2.687   6.829 -0.2011 -0.0574 -0.5271
  594MOL0     C80057   0.762   2.599   6.902  0.9766  0.7260 -0.5796
  594MOL0     O80058   0.820   2.606   7.018  0.2273 -0.3245 -0.2292
  594MOL0     C80059   0.828   2.722   7.080 -0.6580 -0.3490 -0.3757
  594MOL0     C80060   0.940   2.802   7.050  0.3342 -0.4443  0.1196
  594MOL0     C80061   0.962   2.920   7.124  0.6306 -0.2405  0.5348
  594MOL0     C80062   0.865   2.966   7.219  0.0434  0.7451 -0.4479
  594MOL0     O80063   0.886   3.092   7.278  0.6346  0.4934  0.0359
  594MOL0     C80064   0.843   3.111   7.416 -1.1495  0.0044  0.7040
  594MOL0     C80065   0.905   3.002   7.502  0.2559 -0.7117 -0.1824
  594MOL0     C80066   0.882   3.027   7.650  0.5235 -0.1165 -0.5185
  594MOL0     C80067   0.944   2.924   7.743  0.2146 -0.2774 -0.3479
  594MOL0     C80068   0.918   2.949   7.890 -0.1598  0.1140  0.6934
  594MOL0     C80069   0.782   2.947   7.953  0.1340 -0.0393  0.1410
  594MOL0     C80070   0.724   2.795   7.965  0.8949 -0.4969  0.3834
  594MOL0     C80071   0.579   2.793   8.016  0.0932  0.3027 -0.4450
  594MOL0     N80072   0.535   2.867   8.134 -1.0826  0.7710  0.4714
  594MOL0     C80073   0.502   2.810   8.250 -0.5806  0.1059  1.0164
  594MOL0     C80074   0.442   2.898   8.331  0.0359  0.5620  0.8747
  594MOL0     C80075   0.379   2.879   8.467 -0.3978  0.7423  0.2337
  594MOL0     C80076   0.467   2.785   8.556  0.0726 -0.1582 -0.3904
  594MOL0     C80077   0.434   2.806   8.702  0.6538  0.5799 -1.4210
  594MOL0     C80078   0.518   2.700   8.775 -0.3571 -0.5292 -0.0901
  594MOL0     O80079   0.461   2.576   8.751  0.8836 -0.0073  0.5709
  594MOL0     C80080   0.495   2.468   8.833  0.4436  1.1338 -0.8312
  594MOL0     C80081   0.421   2.345   8.822  1.3529 -0.5081  0.0043
  594MOL0     C80082   0.463   2.232   8.883  0.0502  0.3219 -0.2472
  594MOL0     C80083   0.353   2.132   8.877 -0.6788  0.9091 -0.8208
  594MOL0     C80084   0.582   2.223   8.970 -0.4461 -0.2862  0.3802
  594MOL0     C80085   0.651   2.097   9.025 -0.0585 -0.2441 -0.0370
  594MOL0     O80086   0.759   2.131   9.100  0.6446 -0.1997  0.7238
  594MOL0     C80087   0.847   2.033   9.123 -1.0955 -0.1543 -0.0442
  594MOL0     C80088   0.813   1.908   9.189  0.4618 -0.2506  0.7236
  594MOL0     C80089   0.919   1.826   9.214  0.7083  0.4423  0.8098
  594MOL0     C80090   1.064   1.858   9.184  0.5216 -0.1276 -0.4451
  594MOL0     O80091   1.163   1.763   9.186  0.6300  0.7386  0.4584
  594MOL0     C80092   1.143   1.659   9.295  0.4059 -1.2644  0.5430
  594MOL0     C80093   1.166   1.706   9.439  0.5644  0.0350 -0.4131
  594MOL0     C80094   1.078   1.815   9.502 -0.4758  0.5136 -0.0434
  594MOL0     C80095   0.946   1.753   9.544 -1.6543  0.1107 -0.4061
  594MOL0     C80096   0.849   1.863   9.581  0.4998  1.9025  0.0527
  594MOL0     C80097   0.708   1.794   9.607  1.2642 -0.3235 -0.1055
  594MOL0     C80098   0.705   1.723   9.749  0.6672  1.1195 -0.1856
  594MOL0     C80099   0.656   1.577   9.734 -0.0958  1.0985  1.1666
  594MOL0    Cl80100   0.648   1.515   9.896  0.5067 -0.1213  0.0142
  594MOL0     C80101   1.084   1.977   9.107  0.0667 -0.6608 -0.5120
  594MOL0     C80102   0.980   2.063   9.096  0.6683 -0.2720 -0.5219
  594MOL0     O80103   0.623   1.988   8.976 -0.4982 -0.1266  0.1637
  594MOL0     C80104   0.639   2.344   8.994 -0.4683  0.2810  0.0282
  594MOL0     C80105   0.603   2.459   8.926 -0.0483 -0.0680 -0.8507
  594MOL0     N80106   0.447   3.022   8.261 -1.0871  0.5762  0.2637
  594MOL0     N80107   0.511   2.999   8.151  0.2213 -0.2856  1.1697
  594MOL0     C80108   0.756   2.885   7.240  0.4300 -1.2777 -1.1467
  594MOL0     C80109   0.740   2.766   7.169 -0.6120 -0.7529  0.2342
  594MOL0     C80110   0.748   2.464   6.848 -0.6409 -1.2920 -0.9765
  594MOL0     C80111   0.736   2.440   6.719  0.2198  0.2543 -0.0682
  594MOL0     C80112   0.724   2.311   6.666 -0.3172  0.2831  0.1156
  594MOL0     C80113   0.713   2.196   6.750  1.0174 -0.1926  0.0424
  594MOL0     O80114   0.673   2.068   6.709 -0.1063 -0.2316  0.1788
  594MOL0     C80115   0.647   2.042   6.574 -0.0245  0.1565  0.6892
  594MOL0     C80116   0.768   2.019   6.488  0.0290 -0.4295 -0.9738
  594MOL0     C80117   0.858   1.906   6.544  0.3642  0.4646  0.5505
  594MOL0     C80118   0.936   1.816   6.448 -0.2726 -0.4383 -0.2652
  594MOL0     C80119   1.070   1.868   6.452 -0.3405  0.2175 -0.4213
  594MOL0     C80120   1.182   1.921   6.474  0.2555 -0.0064 -1.0357
  594MOL0     C80121   0.713   2.231   6.886 -0.4072  0.6811  0.0920
  594MOL0     C80122   0.738   2.360   6.937  0.1493  1.1075  0.4946
  594MOL0     H80123   1.014   2.762   6.981  1.1643 -5.7134  3.4750
  594MOL0     H80124   1.050   2.983   7.112 -0.2570  0.7606 -1.1830
  594MOL0     H80125   0.892   3.204   7.444  1.0343 -1.4050  1.8022
  594MOL0     H80126   0.734   3.112   7.425 -1.4698 -2.9504 -1.2543
  594MOL0     H80127   0.860   2.907   7.472 -0.5531 -0.1734 -0.7229
  594MOL0     H80128   1.014   3.007   7.500  0.3224  0.8783  2.6360
  594MOL0     H80129   0.924   3.125   7.676 -3.4322  1.7979 -0.5683
  594MOL0     H80130   0.774   3.028   7.672  0.8164  2.4111  1.3913
  594MOL0     H80131   0.913   2.821   7.723  0.6293 -0.7632  1.3781
  594MOL0     H80132   1.053   2.914   7.735  0.0269 -2.9323 -0.5516
  594MOL0     H80133   0.974   2.867   7.937  0.1043  0.5680  1.1959
  594MOL0     H80134   0.978   3.039   7.912  1.8946 -1.0305  0.0736
  594MOL0     H80135   0.789   2.981   8.057 -1.4958  0.5554  0.0850
  594MOL0     H80136   0.709   3.013   7.904 -0.9703  1.0763  3.0436
  594MOL0     H80137   0.714   2.759   7.862 -1.6591  1.5619 -0.2143
  594MOL0     H80138   0.791   2.731   8.022  3.2046  2.5716  1.4051
  594MOL0     H80139   0.554   2.691   8.047 -1.2700  1.3795  2.4075
  594MOL0     H80140   0.510   2.818   7.935 -1.6406 -1.2457  0.4837
  594MOL0     H80141   0.525   2.707   8.272  0.8997 -1.0027 -4.2621
  594MOL0     H80142   0.364   2.975   8.517  1.6033  0.7841  0.8131
  594MOL0     H80143   0.280   2.838   8.441  1.2666 -1.0686 -4.1760
  594MOL0     H80144   0.568   2.821   8.533 -0.3341  0.1919 -1.7318
  594MOL0     H80145   0.471   2.680   8.527  2.4138 -0.6872  1.5550
  594MOL0     H80146   0.327   2.793   8.718  0.6433  2.3337  0.1905
  594MOL0     H80147   0.461   2.908   8.733  1.6076 -0.0702 -0.0408
  594MOL0     H80148   0.513   2.733   8.880 -0.6509  2.3644 -0.9436
  594MOL0     H80149   0.624   2.701   8.748 -0.7574  0.0990 -1.7606
  594MOL0     H80150   0.331   2.363   8.764  2.7163  1.9105 -1.5193
  594MOL0     H80151   0.280   2.136   8.958  1.3043 -1.3262  1.2171
  594MOL0     H80152   0.301   2.134   8.780 -0.4480 -1.9694 -1.0979
  594MOL0     H80153   0.391   2.030   8.878 -0.7305  0.8900 -0.7152
  594MOL0     H80154   0.713   1.876   9.216 -0.3598  1.9247  0.4809
  594MOL0     H80155   0.885   1.730   9.252  0.6467 -1.3849 -3.2952
  594MOL0     H80156   1.052   1.600   9.281  0.5301 -1.2711 -0.2820
  594MOL0     H80157   1.227   1.590   9.281  1.8786  0.1534  1.9801
  594MOL0     H80158   1.164   1.615   9.499 -1.1436  0.3837  0.1089
  594MOL0     H80159   1.264   1.754   9.443  0.1593  0.8115  0.5770
  594MOL0     H80160   1.054   1.887   9.424  0.0503 -1.0550 -1.7313
  594MOL0     H80161   1.142   1.864   9.576  0.3459 -0.0595 -0.3627
  594MOL0     H80162   0.904   1.684   9.470 -1.5543  0.3861 -0.7201
  594MOL0     H80163   0.962   1.685   9.629 -2.9551  1.2799  0.8223
  594MOL0     H80164   0.847   1.918   9.486  0.8903 -0.8862 -1.6950
  594MOL0     H80165   0.893   1.921   9.663  0.6411  0.4490  1.0474
  594MOL0     H80166   0.626   1.866   9.607 -1.9283 -3.6049 -0.4268
  594MOL0     H80167   0.690   1.721   9.527 -3.2066  0.6171 -0.2549
  594MOL0     H80168   0.634   1.772   9.816  2.2632  1.6855  1.1583
  594MOL0     H80169   0.802   1.721   9.798 -0.0674  1.1082  1.3337
  594MOL0     H80170   0.720   1.509   9.677  1.7771  0.1192  4.1973
  594MOL0     H80171   0.561   1.575   9.681  1.0049 -2.6681 -1.0549
  594MOL0     H80172   1.182   2.016   9.081  1.6780 -0.7460  4.4992
  594MOL0     H80173   1.003   2.161   9.058 -3.4294 -0.0259 -2.9612
  594MOL0     H80174   0.734   2.348   9.045 -0.5975 -0.1616  0.3039
  594MOL0     H80175   0.645   2.557   8.951  3.6104 -1.1630 -2.0212
  594MOL0     H80176   0.675   2.922   7.302 -1.4789  0.6732 -4.5046
  594MOL0     H80177   0.657   2.697   7.180 -1.4092 -0.2871 -2.2419
  594MOL0     H80178   0.756   2.521   6.650  0.4788  0.0021 -0.2908
  594MOL0     H80179   0.711   2.314   6.559 -1.4251 -0.1939  0.2228
  594MOL0     H80180   0.588   1.950   6.569 -2.3333  1.5187  1.1135
  594MOL0     H80181   0.577   2.116   6.533 -0.5211 -1.9965 -2.7118
  594MOL0     H80182   0.822   2.113   6.477 -0.7892 -0.1395 -2.7946
  594MOL0     H80183   0.726   1.984   6.393  0.2404 -2.9439 -0.2072
  594MOL0     H80184   0.790   1.839   6.597 -0.6821  1.8224  0.9668
  594MOL0     H80185   0.925   1.941   6.623 -2.2177  1.5730  2.3968
  594MOL0     H80186   0.904   1.827   6.344  1.6319 -2.5701 -1.1702
  594MOL0     H80187   0.935   1.710   6.478 -0.4025 -0.2181  0.5440
  594MOL0     H80188   1.269   1.981   6.491 -2.0389  2.8240  2.0361
  594MOL0     H80189   0.689   2.152   6.958 -4.3028  2.7861  1.3718
  594MOL0     H80190   0.741   2.387   7.042 -3.8670  1.8407  0.5981
  595MOL0     O80191   5.797  10.569   1.907  0.7692 -0.2472  0.0393
  595MOL0     C80192   5.913  10.595   1.937  0.2614 -0.5029 -0.2114
  595MOL0     O80193   6.007  10.516   1.997  0.5654  0.6975 -0.1050
  595MOL0     C80194   5.945  10.410   2.069 -0.6567  0.2715 -0.5942
  595MOL0     C80195   5.817  10.419   2.130  0.3230 -0.3035  0.8250
  595MOL0     C80196   5.762  10.308   2.183  0.7528  0.5754 -1.3752
  595MOL0     C80197   5.850  10.191   2.208  1.1368 -0.1360  1.0301
  595MOL0     O80198   5.807  10.080   2.280 -1.0758  0.0554  0.5372
  595MOL0     C80199   5.676  10.065   2.325  0.7383 -0.3333  0.3254
  595MOL0     C80200   5.676   9.949   2.413  0.1145  0.5347  0.7435
  595MOL0     C80201   5.733   9.972   2.548 -1.2105 -1.0426 -0.0614
  595MOL0     C80202   5.697   9.868   2.651 -0.0933 -0.5097 -0.4199
  595MOL0     C80203   5.787   9.872   2.772 -0.2810  0.5847  0.0784
  595MOL0     C80204   5.746   9.786   2.886  0.7420 -0.1308  0.6001
  595MOL0     C80205   5.708   9.638   2.877 -0.5126  0.6501  0.0740
  595MOL0     C80206   5.831   9.543   2.856 -0.2467 -0.3110 -0.0081
  595MOL0     N80207   5.932   9.555   2.969  0.0898  0.7690 -0.2284
  595MOL0     C80208   6.053   9.598   2.952  0.5211  0.6486 -0.0018
  595MOL0     C80209   6.111   9.590   3.077 -0.3525 -0.1724  0.2883
  595MOL0     C80210   6.247   9.632   3.115 -1.5302 -0.8697 -0.5227
  595MOL0     C80211   6.278   9.762   3.054  0.6704  0.3927 -0.1583
  595MOL0     C80212   6.409   9.812   3.109  0.8118 -0.7971  0.1424
  595MOL0     C80213   6.459   9.948   3.047  0.3099  0.7569 -0.7363
  595MOL0     O80214   6.596   9.985   3.073 -0.1398 -0.6358 -0.3178
  595MOL0     C80215   6.629  10.060   3.182  1.3243 -0.5852  0.4300
  595MOL0     C80216   6.621  10.206   3.186 -0.1175  0.2916  0.6915
  595MOL0     C80217   6.644  10.285   3.295 -1.1662  0.1399 -0.8353
  595MOL0     C80218   6.638  10.437   3.285 -0.3635  0.1057 -0.3639
  595MOL0     C80219   6.692  10.220   3.410 -0.0245  0.0334  0.3387
  595MOL0     C80220   6.742  10.293   3.525  0.0963 -0.1526 -0.1827
  595MOL0     O80221   6.687  10.266   3.644  0.7726  0.2875 -0.3941
  595MOL0     C80222   6.741  10.322   3.762  0.3930  0.4785 -0.3116
  595MOL0     C80223   6.884  10.329   3.800 -0.2271  0.5159 -0.4017
  595MOL0     C80224   6.915  10.348   3.932 -0.6900  0.2684 -0.4961
  595MOL0     C80225   6.833  10.362   4.041 -0.2700 -0.3874 -0.1772
  595MOL0     O80226   6.886  10.385   4.164  0.5031 -0.0849  0.1730
  595MOL0     C80227   6.795  10.401   4.269  0.4605  0.0657  0.5452
  595MOL0     C80228   6.850  10.441   4.402  0.8562  0.1282 -0.7805
  595MOL0     C80229   6.749  10.428   4.521  0.0941  0.6222 -0.6695
  595MOL0     C80230   6.817  10.479   4.644  0.0753 -0.1878 -0.4468
  595MOL0     C80231   6.714  10.486   4.756  0.2252  0.2310 -0.3776
  595MOL0     C80232   6.669  10.352   4.798 -0.4945 -0.1991 -0.4545
  595MOL0     C80233   6.576  10.361   4.917 -0.0772 -0.4601  0.2098
  595MOL0     C80234   6.496  10.237   4.942 -0.0369 -0.4712  0.3112
  595MOL0    Cl80235   6.333  10.232   4.858 -0.4189 -0.0164 -0.6605
  595MOL0     C80236   6.691  10.361   4.002  0.3192  0.3805  0.8729
  595MOL0     C80237   6.650  10.339   3.868 -0.2811  1.0563  0.3060
  595MOL0     O80238   6.844  10.365   3.507  0.0638  0.3765  0.3176
  595MOL0     C80239   6.713  10.079   3.406  0.0895 -0.2693  0.3341
  595MOL0     C80240   6.686   9.999   3.296  0.4278  0.3741 -0.3154
  595MOL0     N80241   6.024   9.543   3.174 -0.9328  0.0603  0.7179
  595MOL0     N80242   5.923   9.522   3.101  0.5501 -0.1240  0.8434
  595MOL0     C80243   5.980  10.180   2.158  0.1579  0.0949 -0.2714
  595MOL0     C80244   6.022  10.290   2.082 -0.4070  0.6900  0.0305
  595MOL0     C80245   5.947  10.738   1.916 -0.3631 -0.3302  0.6412
  595MOL0     C80246   5.862  10.831   1.856  0.9714 -0.5923 -0.4208
  595MOL0     C80247   5.901  10.965   1.825  2.1616 -0.3285  0.0868
  595MOL0     C80248   6.028  11.008   1.853 -0.5327  0.2594 -0.0298
  595MOL0     O80249   6.053  11.139   1.839 -0.5015  0.1140 -0.5289
  595MOL0     C80250   6.099  11.166   1.703  0.3814 -0.5948  0.6188
  595MOL0     C80251   6.227  11.250   1.711  0.7826 -0.4056  0.7544
  595MOL0     C80252   6.204  11.388   1.775 -0.0334  0.1582  0.4887
  595MOL0     C80253   6.313  11.481   1.708  1.1198 -0.0684 -0.5493
  595MOL0     C80254   6.258  11.543   1.589  0.0002  0.0996 -0.3636
  595MOL0     C80255   6.215  11.621   1.505 -0.5615  0.6024 -0.2694
  595MOL0     C80256   6.112  10.919   1.911  0.6284  0.3312 -0.0509
  595MOL0     C80257   6.080  10.786   1.945 -0.2738 -0.3593  0.7125
  595MOL0     H80258   5.766  10.515   2.136  1.7385  0.5136  0.4035
  595MOL0     H80259   5.659  10.308   2.217  0.9186 -1.1456 -0.7860
  595MOL0     H80260   5.646  10.154   2.380  0.4600 -0.3547  0.2102
  595MOL0     H80261   5.603  10.051   2.245 -0.3063 -0.6661  1.3182
  595MOL0     H80262   5.571   9.927   2.434  0.0436 -0.9377 -0.9263
  595MOL0     H80263   5.712   9.863   2.357  1.4953  0.0509  2.2980
  595MOL0     H80264   5.842   9.981   2.541 -0.7019 -3.0615  3.2888
  595MOL0     H80265   5.690  10.060   2.597  3.2255 -0.7149  3.9854
  595MOL0     H80266   5.591   9.876   2.676 -0.0797 -1.7350  0.1056
  595MOL0     H80267   5.708   9.768   2.608  0.0156 -0.7601  0.1821
  595MOL0     H80268   5.888   9.857   2.732  0.0267  3.4474 -0.3943
  595MOL0     H80269   5.787   9.974   2.811  0.7175 -0.0006  1.7405
  595MOL0     H80270   5.808   9.804   2.975 -0.5122  1.5665  1.1813
  595MOL0     H80271   5.655   9.837   2.917 -0.6249 -0.8501 -1.9177
  595MOL0     H80272   5.640   9.606   2.956 -1.3660 -0.2908 -1.0006
  595MOL0     H80273   5.655   9.627   2.781  0.9131  2.4644 -0.9822
  595MOL0     H80274   5.875   9.582   2.763  0.9329  2.5944  1.6323
  595MOL0     H80275   5.799   9.439   2.843  0.2737 -0.3732 -0.8738
  595MOL0     H80276   6.089   9.641   2.859  1.9713 -0.1990  0.1394
  595MOL0     H80277   6.263   9.627   3.223  0.6917  1.8220 -0.6127
  595MOL0     H80278   6.307   9.557   3.064  2.1613  0.8805  0.8455
  595MOL0     H80279   6.197   9.836   3.060  1.1190  1.0207 -1.4766
  595MOL0     H80280   6.290   9.749   2.946  0.2892  0.3485 -0.1972
  595MOL0     H80281   6.493   9.750   3.078  0.9170 -0.7677  0.3633
  595MOL0     H80282   6.402   9.820   3.218 -2.4300  1.7924 -0.0712
  595MOL0     H80283   6.381  10.021   3.073 -0.1059  0.3045 -0.7115
  595MOL0     H80284   6.464   9.921   2.941 -2.0531 -0.5384 -0.5801
  595MOL0     H80285   6.579  10.256   3.099  0.4024  0.0472  0.2903
  595MOL0     H80286   6.561  10.467   3.214 -1.3755 -0.1658  0.5752
  595MOL0     H80287   6.612  10.472   3.386  1.9347 -1.0486  0.7122
  595MOL0     H80288   6.730  10.488   3.255 -0.1549 -0.4303 -0.6453
  595MOL0     H80289   6.956  10.317   3.720  1.9363  0.2123  1.4787
  595MOL0     H80290   7.019  10.365   3.956 -1.4585  1.6123  2.2100
  595MOL0     H80291   6.725  10.481   4.242 -2.0846 -2.3311 -0.3657
  595MOL0     H80292   6.735  10.310   4.268  2.6234 -1.4192  0.9575
  595MOL0     H80293   6.933  10.375   4.428 -1.5886 -2.2316  1.5688
  595MOL0     H80294   6.877  10.547   4.399  1.3886 -0.0295 -2.6038
  595MOL0     H80295   6.717  10.324   4.529 -2.0346  1.1881 -1.2010
  595MOL0     H80296   6.651  10.477   4.512  0.7538  3.2209  3.4900
  595MOL0     H80297   6.904  10.419   4.672  0.0886 -0.9452 -1.9851
  595MOL0     H80298   6.845  10.584   4.629 -0.2129  0.4792  2.9866
  595MOL0     H80299   6.635  10.548   4.713  1.7889  1.6663 -1.3197
  595MOL0     H80300   6.765  10.534   4.840 -0.5346  2.5016 -1.1362
  595MOL0     H80301   6.605  10.304   4.723  0.1693  1.3294 -2.0515
  595MOL0     H80302   6.753  10.287   4.824 -1.3549 -1.4946 -0.7848
  595MOL0     H80303   6.506  10.443   4.900 -0.7155 -1.4580 -2.5095
  595MOL0     H80304   6.638  10.363   5.007  0.5940 -0.6004 -0.2420
  595MOL0     H80305   6.478  10.232   5.050 -0.4326  0.6199  0.3084
  595MOL0     H80306   6.552  10.145   4.926 -1.5083 -1.2850 -0.4192
  595MOL0     H80307   6.607  10.389   4.065  0.5767  1.7019  0.6647
  595MOL0     H80308   6.549  10.311   3.837  2.1017 -4.4515 -4.2132
  595MOL0     H80309   6.746  10.035   3.500 -0.9184 -0.3621  0.6587
  595MOL0     H80310   6.683   9.891   3.300  3.2838 -0.0453 -4.1110
  595MOL0     H80311   6.036  10.089   2.176  0.5431  0.4161  0.1585
  595MOL0     H80312   6.125  10.295   2.048  0.1667  1.1682  1.7215
  595MOL0     H80313   5.763  10.811   1.816 -0.4053 -0.2347  2.5527
  595MOL0     H80314   5.823  11.027   1.782  3.2969  0.5005 -0.8182
  595MOL0     H80315   6.131  11.075   1.650  3.3809 -0.1291  1.4805
  595MOL0     H80316   6.033  11.223   1.637  4.0457  0.5281 -2.4163
  595MOL0     H80317   6.276  11.249   1.613 -1.9063  2.9348 -0.8433
  595MOL0     H80318   6.306  11.212   1.777  1.8697  1.3365  0.5114
  595MOL0     H80319   6.220  11.372   1.882  0.6434 -3.6218 -0.0362
  595MOL0     H80320   6.101  11.421   1.762  0.1426 -0.3170 -3.4095
  595MOL0     H80321   6.405  11.430   1.677  1.9517 -0.7383  2.6432
  595MOL0     H80322   6.325  11.562   1.781 -3.3117 -0.7698  1.2615
  595MOL0     H80323   6.160  11.691   1.444 -0.9490  0.0720 -0.5311
  595MOL0     H80324   6.218  10.937   1.905  1.1498 -2.7829 -2.2513
  595MOL0     H80325   6.153  10.726   1.998 -1.0303 -0.9939  1.0577
  596MOL0     O80326   8.556   2.555   1.190  0.2628  0.5385  0.2599
  596MOL0     C80327   8.564   2.625   1.092  0.4437  0.3547 -0.2267
  596MOL0     O80328   8.611   2.755   1.096 -0.2998  0.5905  0.2583
  596MOL0     C80329   8.606   2.823   1.207 -0.4432 -0.5280  0.5578
  596MOL0     C80330   8.503   2.811   1.297  0.1809 -0.0346 -0.0619
  596MOL0     C80331   8.492   2.897   1.399  0.4457  0.2602 -0.3157
  596MOL0     C80332   8.595   2.987   1.429  0.4743  0.6654 -1.4257
  596MOL0     O80333   8.574   3.074   1.537 -0.1415  0.3232  0.4633
  596MOL0     C80334   8.688   3.119   1.614  0.0316 -0.6560 -0.7876
  596MOL0     C80335   8.661   3.246   1.688 -0.3646  0.6091  0.0088
  596MOL0     C80336   8.595   3.229   1.829  0.4586 -0.1266  0.2297
  596MOL0     C80337   8.624   3.365   1.901  0.4455  0.1655 -0.3916
  596MOL0     C80338   8.531   3.366   2.024  0.0258  0.3897  0.9008
  596MOL0     C80339   8.551   3.490   2.109 -0.0418 -1.1063  1.1581
  596MOL0     C80340   8.479   3.494   2.242  0.2176 -0.3496 -0.6190
  596MOL0     C80341   8.331   3.527   2.253 -0.3194  0.5203 -0.2984
  596MOL0     N80342   8.281   3.516   2.393 -0.8422 -0.5486 -0.1215
  596MOL0     C80343   8.345   3.568   2.506  0.6468  0.0640  0.1626
  596MOL0     C80344   8.263   3.559   2.607  0.9205  0.4529 -1.2497
  596MOL0     C80345   8.280   3.598   2.752  0.4194 -0.6223  1.2276
  596MOL0     C80346   8.295   3.476   2.843  0.7476  0.3111 -1.4533
  596MOL0     C80347   8.266   3.510   2.993 -0.5734 -1.5329 -1.2810
  596MOL0     C80348   8.316   3.397   3.084 -0.2693  0.7331 -0.0929
  596MOL0     O80349   8.321   3.272   3.014 -0.4337 -0.9434 -0.4546
  596MOL0     C80350   8.365   3.157   3.091  0.2980 -0.9203 -0.2310
  596MOL0     C80351   8.416   3.163   3.232  0.1612 -0.3778  1.0499
  596MOL0     C80352   8.458   3.055   3.294 -0.2988  0.1076  0.9429
  596MOL0     C80353   8.551   3.078   3.410 -0.3052  0.2864 -0.2290
  596MOL0     C80354   8.436   2.920   3.237  0.0754 -0.3482 -0.4574
  596MOL0     C80355   8.505   2.807   3.300 -0.2026 -0.0040  0.0223
  596MOL0     O80356   8.598   2.749   3.227 -0.4574  0.2990  0.0322
  596MOL0     C80357   8.702   2.672   3.278 -0.5675  0.0898  0.4182
  596MOL0     C80358   8.815   2.638   3.197  0.4067  0.1109  0.3870
  596MOL0     C80359   8.926   2.571   3.248 -0.1848 -0.3214  0.2414
  596MOL0     C80360   8.940   2.541   3.388  0.1017 -0.3381 -0.0232
  596MOL0     O80361   9.056   2.488   3.429 -0.2004 -0.2874 -0.1945
  596MOL0     C80362   9.114   2.518   3.558 -0.3088 -0.1454 -0.3550
  596MOL0     C80363   9.111   2.404   3.660 -0.0638  0.3551  0.0521
  596MOL0     C80364   9.194   2.417   3.790  1.1104  0.3224  0.8798
  596MOL0     C80365   9.243   2.276   3.818  0.4738  0.0081 -0.4020
  596MOL0     C80366   9.304   2.275   3.959  0.3255  0.1888  0.7522
  596MOL0     C80367   9.223   2.315   4.083  0.2116  0.3872  0.4393
  596MOL0     C80368   9.115   2.207   4.120  0.0177 -0.0416 -0.0232
  596MOL0     C80369   9.020   2.251   4.240 -0.7981 -0.8893 -0.5622
  596MOL0    Cl80370   9.127   2.328   4.365 -0.7350  0.1255  0.0944
  596MOL0     C80371   8.827   2.570   3.469  0.7724 -1.1965  0.1817
  596MOL0     C80372   8.723   2.643   3.418  0.3834 -0.6508  0.7696
  596MOL0     O80373   8.463   2.775   3.409  0.5630  0.2364 -0.1862
  596MOL0     C80374   8.383   2.915   3.113  0.4256 -0.1937  0.3950
  596MOL0     C80375   8.351   3.030   3.037 -0.2528 -0.4193 -0.6228
  596MOL0     N80376   8.149   3.501   2.569 -0.7952  0.0085  0.3658
  596MOL0     N80377   8.165   3.473   2.438  0.5549 -0.0129  0.6721
  596MOL0     C80378   8.706   2.990   1.342  0.2350  0.1031 -0.8392
  596MOL0     C80379   8.710   2.913   1.230 -0.1482  0.4803  0.7770
  596MOL0     C80380   8.514   2.573   0.954  0.0261 -0.6961  0.3912
  596MOL0     C80381   8.477   2.443   0.939  0.5381  0.3959  0.2517
  596MOL0     C80382   8.410   2.407   0.818 -0.1230 -0.6292 -0.7677
  596MOL0     C80383   8.386   2.499   0.722  0.8092  0.5343  0.3660
  596MOL0     O80384   8.334   2.445   0.609 -0.5221  0.3952 -0.4591
  596MOL0     C80385   8.279   2.531   0.506 -0.5950  0.3243  0.2299
  596MOL0     C80386   8.202   2.456   0.393  0.5809 -0.3322 -0.5826
  596MOL0     C80387   8.077   2.382   0.435 -0.3272 -0.3363 -0.0752
  596MOL0     C80388   8.054   2.258   0.345 -0.6691 -0.9990  0.6481
  596MOL0     C80389   8.018   2.303   0.209 -0.1799 -0.2372 -0.5475
  596MOL0     C80390   8.006   2.334   0.094  0.8787 -0.2494  0.3643
  596MOL0     C80391   8.418   2.629   0.734  0.6246 -0.4527  0.7273
  596MOL0     C80392   8.484   2.664   0.851 -1.0172 -0.9192  0.0258
  596MOL0     H80393   8.431   2.731   1.282  0.2873 -0.3310  0.9042
  596MOL0     H80394   8.406   2.883   1.464  0.2951 -0.7329 -0.7179
  596MOL0     H80395   8.726   3.036   1.675 -2.5982 -1.3915  0.0005
  596MOL0     H80396   8.771   3.146   1.549 -1.0895  3.0354 -0.9409
  596MOL0     H80397   8.759   3.292   1.699  0.9520 -2.3463  2.1659
  596MOL0     H80398   8.594   3.308   1.629 -2.8585 -2.2687 -0.4671
  596MOL0     H80399   8.488   3.208   1.830  0.0373  1.8874  0.7406
  596MOL0     H80400   8.648   3.143   1.873  0.5735 -0.4280 -0.4898
  596MOL0     H80401   8.728   3.360   1.934 -0.5442 -1.0489  2.9602
  596MOL0     H80402   8.596   3.449   1.837  1.5048 -0.7333 -2.1008
  596MOL0     H80403   8.426   3.358   1.993 -1.5875 -2.2399  5.9019
  596MOL0     H80404   8.554   3.275   2.080  0.7796 -1.2591 -1.9081
  596MOL0     H80405   8.655   3.503   2.138 -0.0314  0.2200  0.6102
  596MOL0     H80406   8.529   3.589   2.068 -2.0193 -1.7410  0.5843
  596MOL0     H80407   8.488   3.396   2.290 -1.6594 -0.3199 -0.1119
  596MOL0     H80408   8.523   3.573   2.304 -0.1794 -0.2851 -0.4134
  596MOL0     H80409   8.262   3.471   2.188  1.4255 -2.7059  0.3915
  596MOL0     H80410   8.315   3.632   2.229 -2.5944  0.4215  0.5132
  596MOL0     H80411   8.440   3.619   2.508  0.2948  0.7125  1.0617
  596MOL0     H80412   8.369   3.661   2.752  0.6738 -0.6575 -3.0769
  596MOL0     H80413   8.195   3.654   2.794  0.8144  1.1887 -0.2565
  596MOL0     H80414   8.400   3.446   2.834  1.0606  0.8367  0.0959
  596MOL0     H80415   8.234   3.396   2.802  2.0831 -1.7611  0.3993
  596MOL0     H80416   8.161   3.536   3.009  0.0983  2.4639 -2.4385
  596MOL0     H80417   8.325   3.600   3.012  0.9633 -2.8174  0.4688
  596MOL0     H80418   8.253   3.378   3.171  0.7037 -1.1467  0.2611
  596MOL0     H80419   8.418   3.424   3.114 -0.9370  2.6035  0.5825
  596MOL0     H80420   8.441   3.263   3.266 -2.4770  0.6386  0.2843
  596MOL0     H80421   8.562   3.186   3.425  0.9327  0.1926 -0.3458
  596MOL0     H80422   8.511   3.021   3.494  0.2146 -3.7559 -2.4796
  596MOL0     H80423   8.651   3.039   3.390  0.6035  2.0551  0.5830
  596MOL0     H80424   8.802   2.674   3.095  3.7337 -0.6231 -0.4298
  596MOL0     H80425   9.014   2.567   3.185  1.3079  2.8171  1.8391
  596MOL0     H80426   9.220   2.544   3.547  0.2637 -2.6435 -1.5123
  596MOL0     H80427   9.060   2.598   3.610  0.4145  1.3480 -1.8040
  596MOL0     H80428   9.006   2.378   3.677  0.5407 -0.1768  3.7869
  596MOL0     H80429   9.153   2.322   3.601 -0.6131  0.9332 -1.2037
  596MOL0     H80430   9.140   2.469   3.869 -0.7020  1.8493 -1.2218
  596MOL0     H80431   9.280   2.484   3.787 -0.0080  1.8178  0.2284
  596MOL0     H80432   9.155   2.211   3.821 -0.7548  1.6225  0.1797
  596MOL0     H80433   9.302   2.232   3.737 -0.6736  0.6297 -1.6116
  596MOL0     H80434   9.388   2.345   3.955 -0.6556  1.6622  3.4047
  596MOL0     H80435   9.362   2.182   3.967 -1.6542 -1.1100  0.8031
  596MOL0     H80436   9.290   2.300   4.168 -5.2609  2.9755  6.0425
  596MOL0     H80437   9.181   2.416   4.079  3.1229  1.7788  1.9563
  596MOL0     H80438   9.169   2.119   4.156  1.1799  0.2132 -1.0596
  596MOL0     H80439   9.049   2.179   4.038 -1.7971 -1.9576  1.9500
  596MOL0     H80440   8.974   2.158   4.276  1.5452 -1.2771  1.7329
  596MOL0     H80441   8.944   2.325   4.210  2.5584  2.8227 -0.7547
  596MOL0     H80442   8.823   2.553   3.576  3.9311 -0.3032  0.5451
  596MOL0     H80443   8.658   2.678   3.499  0.3529 -1.4961  1.1177
  596MOL0     H80444   8.366   2.813   3.078  0.6720  0.3934 -1.5968
  596MOL0     H80445   8.299   3.017   2.943 -0.8475 -2.9468 -0.0376
  596MOL0     H80446   8.776   3.072   1.357 -1.2326  1.2149  0.3500
  596MOL0     H80447   8.797   2.909   1.166 -0.2013 -2.2576  0.7428
  596MOL0     H80448   8.477   2.369   1.019  0.1097  1.1356  0.9531
  596MOL0     H80449   8.379   2.306   0.793  0.7142 -1.4054  1.1179
  596MOL0     H80450   8.215   2.601   0.561  0.6288 -1.5552  4.4502
  596MOL0     H80451   8.369   2.581   0.468 -0.5628 -0.1473 -0.3317
  596MOL0     H80452   8.278   2.394   0.344  3.3564  2.3322  0.0170
  596MOL0     H80453   8.166   2.525   0.316 -0.5477 -0.7339 -0.4375
  596MOL0     H80454   7.996   2.455   0.439  0.0801  0.3061 -1.9955
  596MOL0     H80455   8.106   2.343   0.533  3.8843  0.2889 -0.8522
  596MOL0     H80456   7.964   2.202   0.373 -1.7433 -1.1005 -2.5625
  596MOL0     H80457   8.142   2.193   0.349  0.6404  0.6819  0.2474
  596MOL0     H80458   7.992   2.348  -0.011 -0.8932  1.7058  0.7788
  596MOL0     H80459   8.391   2.701   0.657 -2.8864 -1.3808  0.9493
  596MOL0     H80460   8.509   2.767   0.872  1.3884 -1.5429  0.4906
  597MOL0     O80461   3.638   3.153   1.889 -1.1674 -0.0425  0.0489
  597MOL0     C80462   3.516   3.130   1.918  0.1308 -0.1841 -0.1328
  597MOL0     O80463   3.468   3.068   2.029  0.1327 -0.5730  1.0492
  597MOL0     C80464   3.541   3.027   2.133 -0.1016  0.5420 -0.0233
  597MOL0     C80465   3.677   2.978   2.122 -0.0893 -0.0292 -0.5901
  597MOL0     C80466   3.753   2.931   2.233  0.0708 -0.1283  0.7221
  597MOL0     C80467   3.691   2.904   2.360 -0.9770 -0.0219 -0.2377
  597MOL0     O80468   3.768   2.853   2.463  0.3338  0.3675  0.0581
  597MOL0     C80469   3.714   2.746   2.542  0.5432 -0.7357  0.5072
  597MOL0     C80470   3.811   2.640   2.591  0.9432 -0.8809  0.1449
  597MOL0     C80471   3.738   2.532   2.658  0.0445 -0.3497  0.7142
  597MOL0     C80472   3.825   2.435   2.750 -0.1071 -0.5612  0.2170
  597MOL0     C80473   3.753   2.339   2.837 -1.4438 -0.7820  0.9207
  597MOL0     C80474   3.855   2.249   2.921  0.4686  0.1634  0.4759
  597MOL0     C80475   3.781   2.130   2.976 -0.0683  0.6419 -0.2260
  597MOL0     C80476   3.878   2.043   3.053 -0.5980 -0.6344  0.4019
  597MOL0     N80477   3.884   2.082   3.196  0.0340  0.0366  0.5328
  597MOL0     C80478   3.778   2.114   3.281 -0.1937  0.2507 -0.0133
  597MOL0     C80479   3.840   2.122   3.404  0.0155 -0.5907  0.5770
  597MOL0     C80480   3.785   2.160   3.544 -0.4172  0.5967  0.1126
  597MOL0     C80481   3.792   2.311   3.540  0.4424 -0.0043 -0.5342
  597MOL0     C80482   3.912   2.371   3.625  1.3761  0.5713  0.2089
  597MOL0     C80483   4.058   2.342   3.585  0.0415 -0.0580 -0.8263
  597MOL0     O80484   4.151   2.438   3.654 -0.6371 -0.0005  0.5986
  597MOL0     C80485   4.195   2.429   3.778 -0.8723 -0.2001 -0.4627
  597MOL0     C80486   4.153   2.343   3.878 -0.2642 -0.3766  0.8839
  597MOL0     C80487   4.212   2.347   4.004  0.3782  0.0669 -0.0918
  597MOL0     C80488   4.168   2.239   4.104 -0.3778  0.9167 -1.0863
  597MOL0     C80489   4.319   2.439   4.027 -0.7437 -0.0895 -0.1741
  597MOL0     C80490   4.372   2.477   4.157  0.7310  0.3742  0.4710
  597MOL0     O80491   4.441   2.587   4.173 -0.1661  0.2717 -1.4911
  597MOL0     C80492   4.533   2.600   4.271 -0.3276 -0.5107  0.3604
  597MOL0     C80493   4.662   2.570   4.238 -0.2229  1.3742  0.0049
  597MOL0     C80494   4.761   2.592   4.338 -0.5080  0.8866  1.1989
  597MOL0     C80495   4.730   2.636   4.463  0.1998  0.2653 -0.3433
  597MOL0     O80496   4.836   2.667   4.552  0.7936  0.2858  0.5649
  597MOL0     C80497   4.814   2.639   4.686  0.3046 -0.7977  0.5178
  597MOL0     C80498   4.913   2.726   4.756  0.3467 -1.0322 -0.9886
  597MOL0     C80499   4.841   2.873   4.768  0.0429  0.4509  0.3724
  597MOL0     C80500   4.906   2.944   4.896  0.9062  0.9906 -0.1707
  597MOL0     C80501   4.847   3.084   4.934  0.2109  0.3890 -0.6334
  597MOL0     C80502   4.707   3.085   4.980  0.6682  0.1847 -0.3096
  597MOL0     C80503   4.699   3.018   5.116 -0.1105  0.2563  0.1101
  597MOL0     C80504   4.588   2.925   5.125 -0.4939 -0.3951  0.6269
  597MOL0    Cl80505   4.619   2.770   5.036  0.5665  0.1180  0.1027
  597MOL0     C80506   4.599   2.664   4.492  0.0182 -0.7220 -0.0117
  597MOL0     C80507   4.496   2.644   4.399  0.7736 -0.4670 -0.4314
  597MOL0     O80508   4.357   2.396   4.252 -0.3450  0.2815  0.9238
  597MOL0     C80509   4.349   2.530   3.931  0.3283  0.9317  0.1771
  597MOL0     C80510   4.294   2.523   3.810 -0.8843 -0.4479 -0.4016
  597MOL0     N80511   3.980   2.110   3.384  0.2350 -0.2446  0.1251
  597MOL0     N80512   4.000   2.081   3.261 -0.3129  0.5502  0.6234
  597MOL0     C80513   3.560   2.953   2.367  0.0123  0.1097  1.1606
  597MOL0     C80514   3.485   3.013   2.259 -0.3876  0.5404  0.7892
  597MOL0     C80515   3.408   3.204   1.845  0.0058  0.6758  0.2207
  597MOL0     C80516   3.276   3.182   1.877 -0.3133 -0.0485  0.6640
  597MOL0     C80517   3.179   3.236   1.795  0.7564  0.2779  0.6293
  597MOL0     C80518   3.211   3.315   1.680  1.4453  0.3796  0.2277
  597MOL0     O80519   3.122   3.356   1.581 -1.0278  0.0711 -0.0386
  597MOL0     C80520   3.003   3.293   1.559 -0.4090  0.0835  0.2002
  597MOL0     C80521   3.017   3.144   1.528  0.1065  0.6552  0.6867
  597MOL0     C80522   2.898   3.058   1.572  0.8912 -0.8763 -0.2234
  597MOL0     C80523   2.757   3.126   1.556  0.5408 -0.6337 -1.0470
  597MOL0     C80524   2.654   3.026   1.587  0.0092  0.9652  1.1177
  597MOL0     C80525   2.577   2.934   1.610 -0.3012  0.7435 -0.0744
  597MOL0     C80526   3.338   3.359   1.670 -0.1680  0.8400  0.8048
  597MOL0     C80527   3.437   3.300   1.747  0.0046  0.5623 -0.6747
  597MOL0     H80528   3.727   2.976   2.026 -1.8734 -2.5824 -1.5706
  597MOL0     H80529   3.848   2.885   2.207 -0.2103  0.3002 -1.2873
  597MOL0     H80530   3.643   2.785   2.615  0.4694  2.2221 -0.9912
  597MOL0     H80531   3.651   2.691   2.473 -0.8025  0.3385  0.8336
  597MOL0     H80532   3.861   2.618   2.497  2.8899  1.4000  0.5345
  597MOL0     H80533   3.878   2.695   2.658  0.9359  1.7524 -1.8555
  597MOL0     H80534   3.661   2.582   2.718  0.3040  3.9460 -2.1064
  597MOL0     H80535   3.685   2.471   2.584  0.8060 -0.1284 -0.0269
  597MOL0     H80536   3.886   2.369   2.687 -1.7732 -2.3623  0.3895
  597MOL0     H80537   3.896   2.494   2.809 -2.1050 -1.2687  3.5541
  597MOL0     H80538   3.700   2.404   2.907 -0.8750  1.9863 -1.0452
  597MOL0     H80539   3.677   2.279   2.787 -0.4442 -1.1291 -0.2229
  597MOL0     H80540   3.933   2.212   2.853 -0.5065  3.5277 -2.7831
  597MOL0     H80541   3.918   2.304   2.991  0.2217  1.9036 -0.6167
  597MOL0     H80542   3.694   2.162   3.035  1.5405  0.1804  2.5835
  597MOL0     H80543   3.748   2.066   2.894  0.4557 -2.5562  1.8989
  597MOL0     H80544   3.979   2.051   3.012 -1.2198 -2.6288 -1.7028
  597MOL0     H80545   3.846   1.940   3.032 -1.2506 -0.0861 -1.4782
  597MOL0     H80546   3.670   2.125   3.277 -0.2235 -0.1884 -0.5493
  597MOL0     H80547   3.682   2.125   3.556 -0.0432 -1.3991 -1.7849
  597MOL0     H80548   3.856   2.126   3.620  0.0242 -1.0528 -0.9833
  597MOL0     H80549   3.698   2.356   3.572 -1.5942  0.0613 -5.6289
  597MOL0     H80550   3.790   2.345   3.436 -0.7972  2.0578  0.1166
  597MOL0     H80551   3.899   2.351   3.731 -0.1200  2.0500  0.3409
  597MOL0     H80552   3.903   2.479   3.611  2.8909  0.7020 -0.0170
  597MOL0     H80553   4.058   2.357   3.476  2.3125  0.0254 -0.8661
  597MOL0     H80554   4.091   2.240   3.605  0.3236 -0.0071 -1.0288
  597MOL0     H80555   4.076   2.272   3.851  0.2125  0.2421 -2.6811
  597MOL0     H80556   4.255   2.173   4.112 -1.7877 -0.8731  0.4388
  597MOL0     H80557   4.140   2.283   4.200  2.4417 -0.3088  0.4119
  597MOL0     H80558   4.088   2.177   4.062  0.3643 -1.1659  0.4165
  597MOL0     H80559   4.680   2.547   4.133 -0.9766 -1.6177  0.4177
  597MOL0     H80560   4.869   2.583   4.335 -0.5075  0.3801 -2.6735
  597MOL0     H80561   4.715   2.638   4.732 -0.7128 -0.7404 -1.5525
  597MOL0     H80562   4.841   2.533   4.693  1.4478 -0.5367  0.1523
  597MOL0     H80563   4.931   2.692   4.858 -0.9737  1.5675  0.2322
  597MOL0     H80564   5.007   2.730   4.700  0.6641  0.2481 -0.4054
  597MOL0     H80565   4.736   2.859   4.795  0.5582 -0.2266  2.1768
  597MOL0     H80566   4.848   2.932   4.676  5.5404  1.8477  1.3135
  597MOL0     H80567   4.890   2.874   4.978  0.2132 -2.0243 -2.6938
  597MOL0     H80568   5.013   2.932   4.877  0.2632 -0.3506 -3.7412
  597MOL0     H80569   4.858   3.160   4.857  0.9677 -0.0789 -0.9929
  597MOL0     H80570   4.908   3.122   5.017 -1.6651  2.5957 -0.1704
  597MOL0     H80571   4.688   3.192   4.978  1.8619  0.4544  1.0709
  597MOL0     H80572   4.635   3.048   4.907  1.1320 -0.2441 -0.5597
  597MOL0     H80573   4.679   3.096   5.189 -0.4189  1.7963 -1.5435
  597MOL0     H80574   4.794   2.973   5.146  1.3264  2.4471 -0.8724
  597MOL0     H80575   4.498   2.974   5.088  1.8693  1.6007 -3.0362
  597MOL0     H80576   4.573   2.893   5.229 -2.7111  0.7580  0.7234
  597MOL0     H80577   4.576   2.728   4.577  2.2530  3.7080 -2.3802
  597MOL0     H80578   4.395   2.680   4.415  1.6436  2.7225 -1.3841
  597MOL0     H80579   4.412   2.617   3.944  2.9637 -0.5224 -1.8432
  597MOL0     H80580   4.300   2.607   3.742  0.0896 -0.7845 -0.7422
  597MOL0     H80581   3.497   2.922   2.450 -2.0793  1.5546  0.1926
  597MOL0     H80582   3.382   3.017   2.294 -0.8461 -1.4837 -0.1440
  597MOL0     H80583   3.249   3.126   1.966  0.4102  0.3613  1.1614
  597MOL0     H80584   3.077   3.211   1.821 -0.5203  3.9430 -0.2397
  597MOL0     H80585   2.936   3.302   1.645  1.0105  3.3203  1.1282
  597MOL0     H80586   2.943   3.347   1.486 -0.2166  1.3508  0.9630
  597MOL0     H80587   3.095   3.098   1.590 -0.4585  0.6663  1.4119
  597MOL0     H80588   3.036   3.132   1.421  0.4695  1.3888  0.6608
  597MOL0     H80589   2.910   3.025   1.676  2.9248  0.9436  0.1863
  597MOL0     H80590   2.904   2.973   1.503  0.7431 -0.6727 -0.4878
  597MOL0     H80591   2.747   3.166   1.455 -1.0501 -0.6968 -0.9410
  597MOL0     H80592   2.745   3.197   1.638  0.0864 -0.7952 -0.9721
  597MOL0     H80593   2.489   2.875   1.627  1.1119 -1.1794  0.9371
  597MOL0     H80594   3.366   3.404   1.575  1.6833 -2.3677 -0.3353
  597MOL0     H80595   3.538   3.335   1.730 -0.5015  2.1565 -0.5460
  598MOL0     O80596   7.622   8.674   5.156  0.2728 -0.4164 -0.5166
  598MOL0     C80597   7.726   8.726   5.199  0.5874  0.0169 -0.1991
  598MOL0     O80598   7.755   8.728   5.338  0.4939  1.3423 -0.2517
  598MOL0     C80599   7.658   8.678   5.424 -0.0136 -0.7609  0.2060
  598MOL0     C80600   7.656   8.543   5.453  0.6947 -0.0394 -0.2750
  598MOL0     C80601   7.568   8.495   5.548  0.1477 -0.1991 -1.1340
  598MOL0     C80602   7.492   8.583   5.625 -0.1005  0.4283  0.1824
  598MOL0     O80603   7.422   8.550   5.732 -0.0097  0.0614 -0.6072
  598MOL0     C80604   7.398   8.416   5.767  0.2182 -0.5156 -0.8834
  598MOL0     C80605   7.282   8.431   5.865  0.7276  1.1452  0.2303
  598MOL0     C80606   7.202   8.307   5.905 -0.1283 -0.1077  0.4182
  598MOL0     C80607   7.204   8.296   6.057  0.0054  0.9844 -0.1789
  598MOL0     C80608   7.085   8.362   6.131  0.0975 -0.8313  0.8377
  598MOL0     C80609   7.081   8.302   6.279  1.2678 -0.0169  0.8380
  598MOL0     C80610   7.190   8.359   6.364  0.7247  0.0804 -0.8323
  598MOL0     C80611   7.194   8.296   6.505  0.3770  0.1835  0.1658
  598MOL0     N80612   7.215   8.150   6.516  0.0013 -0.0527 -0.6698
  598MOL0     C80613   7.133   8.070   6.586  0.8299 -0.0598 -0.8193
  598MOL0     C80614   7.189   7.954   6.596 -0.0259  0.2673 -0.5251
  598MOL0     C80615   7.145   7.839   6.677 -0.0921  0.3569  0.0617
  598MOL0     C80616   7.085   7.709   6.596  0.0000 -0.4405  0.3561
  598MOL0     C80617   6.966   7.767   6.514 -0.0855 -0.5063 -0.4867
  598MOL0     C80618   6.846   7.681   6.518  0.0778  0.3625  0.5239
  598MOL0     O80619   6.785   7.702   6.643  0.5044  0.1230  0.8771
  598MOL0     C80620   6.649   7.686   6.660 -0.3395 -0.4593  0.5222
  598MOL0     C80621   6.558   7.633   6.568  0.4475 -0.8314  0.2185
  598MOL0     C80622   6.423   7.602   6.601 -0.4302 -0.0802  0.1123
  598MOL0     C80623   6.342   7.538   6.502  0.2246  0.3135 -0.2414
  598MOL0     C80624   6.383   7.636   6.739 -0.1461  0.8323  0.2235
  598MOL0     C80625   6.248   7.599   6.791 -0.4209 -0.2601 -0.1089
  598MOL0     O80626   6.202   7.684   6.886 -0.1615  0.2755  0.4886
  598MOL0     C80627   6.083   7.655   6.955  0.2020 -0.9709  0.4326
  598MOL0     C80628   6.099   7.626   7.088  0.1279  0.1329 -0.1441
  598MOL0     C80629   5.983   7.600   7.163 -1.6838  0.1440 -0.0451
  598MOL0     C80630   5.857   7.604   7.110 -1.0470 -0.0735 -0.8990
  598MOL0     O80631   5.758   7.563   7.196 -0.4290  0.4110  0.1548
  598MOL0     C80632   5.748   7.629   7.321 -0.5717 -0.1942 -0.3650
  598MOL0     C80633   5.726   7.783   7.296 -0.8125  0.6152 -0.7780
  598MOL0     C80634   5.706   7.883   7.417  0.6448 -0.9995  0.9859
  598MOL0     C80635   5.584   7.840   7.491 -0.1909 -0.0472 -0.3964
  598MOL0     C80636   5.555   7.932   7.619 -0.5115  0.1004  0.3756
  598MOL0     C80637   5.664   7.894   7.724  0.3663 -0.3487  0.5435
  598MOL0     C80638   5.632   7.975   7.846 -0.8207 -0.1611 -0.0979
  598MOL0     C80639   5.538   7.913   7.945 -0.3002 -0.4794  0.1933
  598MOL0    Cl80640   5.573   7.970   8.111 -0.4692  0.0690 -0.6187
  598MOL0     C80641   5.849   7.638   6.976 -0.9737  0.5534  0.3204
  598MOL0     C80642   5.958   7.681   6.892  0.1964 -0.2245 -0.3977
  598MOL0     O80643   6.193   7.499   6.744 -0.2317  0.0774  0.3408
  598MOL0     C80644   6.468   7.704   6.814 -0.0103  0.3618 -0.6738
  598MOL0     C80645   6.603   7.728   6.782  0.4904 -0.2636 -0.0714
  598MOL0     N80646   7.314   7.963   6.548 -0.1245  0.2950  0.3656
  598MOL0     N80647   7.326   8.075   6.497 -0.2677  0.0812 -0.7735
  598MOL0     C80648   7.489   8.718   5.594 -0.2465  0.1485  0.2903
  598MOL0     C80649   7.568   8.756   5.490 -0.7374 -0.2029 -0.5271
  598MOL0     C80650   7.825   8.770   5.103 -0.3995  1.3658 -0.2418
  598MOL0     C80651   7.963   8.792   5.139  0.2188 -0.9942 -0.4225
  598MOL0     C80652   8.056   8.842   5.048  0.9258  0.3265 -0.6840
  598MOL0     C80653   8.021   8.850   4.909 -0.1661  0.1344  0.5484
  598MOL0     O80654   8.105   8.894   4.804  0.2667  0.3532 -0.5217
  598MOL0     C80655   8.233   8.949   4.839  0.7074 -0.1875 -0.3554
  598MOL0     C80656   8.334   8.954   4.727 -0.8110  0.1919  0.7469
  598MOL0     C80657   8.384   8.815   4.684 -0.7496  1.0672  0.7151
  598MOL0     C80658   8.332   8.784   4.543 -0.3211 -0.2909 -0.7499
  598MOL0     C80659   8.414   8.683   4.471  0.1590  0.3425 -1.1349
  598MOL0     C80660   8.482   8.605   4.408  0.2968  0.2532  1.2280
  598MOL0     C80661   7.891   8.818   4.876  0.4479  0.0303  0.8952
  598MOL0     C80662   7.790   8.778   4.966 -0.4173 -0.4577 -1.7832
  598MOL0     H80663   7.712   8.482   5.382  3.2665  1.4267  0.3497
  598MOL0     H80664   7.571   8.387   5.565  0.3250  0.2291  2.3724
  598MOL0     H80665   7.370   8.350   5.685 -1.8291 -1.7704  0.7067
  598MOL0     H80666   7.483   8.372   5.819 -1.5237 -4.3315 -0.9621
  598MOL0     H80667   7.313   8.470   5.963 -0.4366 -0.7092  1.3898
  598MOL0     H80668   7.208   8.501   5.824 -0.4324  0.8056  1.6839
  598MOL0     H80669   7.100   8.315   5.865 -0.2507  0.9964  0.9063
  598MOL0     H80670   7.243   8.220   5.852 -2.1786 -1.9411  1.6716
  598MOL0     H80671   7.195   8.187   6.066 -1.5216  1.0770 -0.3078
  598MOL0     H80672   7.293   8.332   6.108 -1.0535  1.1507  1.6222
  598MOL0     H80673   7.104   8.469   6.136 -0.3290 -0.6937 -0.1523
  598MOL0     H80674   6.992   8.352   6.074  0.5100  1.3763 -0.3307
  598MOL0     H80675   6.986   8.333   6.325  0.9065 -0.0574  0.1295
  598MOL0     H80676   7.083   8.193   6.288 -0.6371  0.0473  3.6921
  598MOL0     H80677   7.289   8.337   6.323  1.4707  1.9253 -0.1526
  598MOL0     H80678   7.174   8.466   6.379 -3.4557 -0.5795  0.7227
  598MOL0     H80679   7.099   8.317   6.556  1.0129 -0.4155  1.6549
  598MOL0     H80680   7.276   8.337   6.566 -0.1837  0.1779  0.9466
  598MOL0     H80681   7.034   8.094   6.623  0.2609  0.2777 -2.4798
  598MOL0     H80682   7.228   7.817   6.744  0.1616  1.7291  0.2368
  598MOL0     H80683   7.062   7.877   6.736 -0.9877 -1.5759  0.1230
  598MOL0     H80684   7.048   7.632   6.664  0.4819  0.8655  2.1839
  598MOL0     H80685   7.158   7.666   6.526 -0.1056  2.5089 -1.7615
  598MOL0     H80686   6.985   7.775   6.407  3.5523  0.1130  0.0790
  598MOL0     H80687   6.941   7.867   6.550  1.8165 -0.5803  1.2331
  598MOL0     H80688   6.865   7.573   6.517 -2.8916 -0.5416  5.3944
  598MOL0     H80689   6.784   7.716   6.435  0.3715 -0.1994  0.0632
  598MOL0     H80690   6.595   7.619   6.467  1.2959  0.5566  0.3173
  598MOL0     H80691   6.360   7.573   6.400 -0.6907  1.9126  0.1260
  598MOL0     H80692   6.368   7.432   6.495 -0.4783  0.1637 -0.6718
  598MOL0     H80693   6.234   7.544   6.515  0.3291  2.6868 -0.1155
  598MOL0     H80694   6.200   7.624   7.127 -0.2849  4.4131  1.6498
  598MOL0     H80695   5.998   7.573   7.267 -4.1736 -2.6799 -0.2796
  598MOL0     H80696   5.669   7.589   7.385  0.8205  2.0035  3.0561
  598MOL0     H80697   5.840   7.615   7.378  0.0694 -2.9438 -1.9568
  598MOL0     H80698   5.809   7.825   7.238  0.9526 -0.6103  0.7603
  598MOL0     H80699   5.637   7.770   7.232 -1.0258 -3.6572  0.1272
  598MOL0     H80700   5.688   7.981   7.370  2.8838 -0.7232  0.5777
  598MOL0     H80701   5.791   7.896   7.484 -1.4425  1.6320  3.3666
  598MOL0     H80702   5.506   7.826   7.416  0.2381  1.1168 -1.0916
  598MOL0     H80703   5.596   7.742   7.538 -2.4547  0.9966  2.6642
  598MOL0     H80704   5.456   7.902   7.654 -0.3121  0.1760  1.0125
  598MOL0     H80705   5.565   8.038   7.593  1.2180 -0.5678 -2.0572
  598MOL0     H80706   5.639   7.791   7.748 -3.8967  0.5548  0.7522
  598MOL0     H80707   5.768   7.910   7.695  0.1850  0.8563  0.4977
  598MOL0     H80708   5.590   8.072   7.818  3.4554  0.9115 -3.8806
  598MOL0     H80709   5.725   7.987   7.903 -1.8041  1.2349  1.3318
  598MOL0     H80710   5.533   7.804   7.943  0.6757 -0.5299  0.3067
  598MOL0     H80711   5.438   7.955   7.931 -0.3619 -1.4498 -3.1240
  598MOL0     H80712   5.764   7.623   6.909  1.8094  0.1677 -3.4678
  598MOL0     H80713   5.958   7.694   6.784  2.9527 -0.2707 -0.4871
  598MOL0     H80714   6.448   7.727   6.919 -1.2915 -1.3514 -0.4861
  598MOL0     H80715   6.668   7.762   6.862  1.9086 -0.6109 -1.0526
  598MOL0     H80716   7.420   8.775   5.654 -2.5393 -2.9972  0.9081
  598MOL0     H80717   7.575   8.860   5.459  0.7901 -0.0629  0.1689
  598MOL0     H80718   7.986   8.786   5.245 -3.6456  1.9986  0.8161
  598MOL0     H80719   8.156   8.874   5.077  0.6857  2.1031 -1.6831
  598MOL0     H80720   8.210   9.052   4.867 -0.6442 -1.0185  1.7928
  598MOL0     H80721   8.285   8.907   4.926 -0.7188  0.3128  0.7667
  598MOL0     H80722   8.422   9.005   4.767 -0.0863 -0.7175  0.3478
  598MOL0     H80723   8.304   9.015   4.642  1.8860 -0.3910 -0.7445
  598MOL0     H80724   8.348   8.736   4.751 -0.9764 -0.9744 -1.6503
  598MOL0     H80725   8.493   8.811   4.670 -0.7118  0.1682  1.1795
  598MOL0     H80726   8.338   8.874   4.480  2.1997 -0.9950 -1.6302
  598MOL0     H80727   8.229   8.749   4.548 -0.8502  1.1992 -0.5587
  598MOL0     H80728   8.544   8.526   4.372 -0.3962 -0.0374  0.6405
  598MOL0     H80729   7.878   8.832   4.770 -1.1273  1.0511  1.1838
  598MOL0     H80730   7.690   8.760   4.928 -0.6839 -0.2820 -1.1754
  599MOL0     O80731   1.846   3.002   3.294  0.0782  0.1530 -0.0058
  599MOL0     C80732   1.805   2.887   3.322 -0.0269  0.0093 -0.5582
  599MOL0     O80733   1.674   2.848   3.350  0.4338  0.1164  0.3697
  599MOL0     C80734   1.571   2.939   3.329  0.1588  0.2631  1.0858
  599MOL0     C80735   1.525   2.983   3.198 -0.4778 -0.5789 -0.0827
  599MOL0     C80736   1.450   3.101   3.186 -0.4038 -0.3410 -0.4627
  599MOL0     C80737   1.391   3.167   3.299 -0.6451  0.6165 -0.7566
  599MOL0     O80738   1.314   3.276   3.262 -1.1883  0.3708 -0.1514
  599MOL0     C80739   1.229   3.327   3.361 -0.3129 -0.2615  1.2608
  599MOL0     C80740   1.201   3.464   3.339  0.0032 -0.0765 -0.6841
  599MOL0     C80741   1.314   3.562   3.290  0.5984  0.2916  1.0836
  599MOL0     C80742   1.270   3.683   3.210 -0.2371 -0.5952 -0.2495
  599MOL0     C80743   1.379   3.784   3.179 -0.3928  0.3202  0.6501
  599MOL0     C80744   1.513   3.719   3.135  0.7019 -0.5017  0.0692
  599MOL0     C80745   1.636   3.799   3.107  0.9343  0.3513  0.6010
  599MOL0     C80746   1.737   3.732   3.016 -0.3173  1.0313 -0.8002
  599MOL0     N80747   1.786   3.607   3.073 -0.1692 -0.1730 -0.1289
  599MOL0     C80748   1.813   3.578   3.205  0.1773 -0.1383 -0.6743
  599MOL0     C80749   1.831   3.443   3.215  0.0279 -0.6314 -0.0913
  599MOL0     C80750   1.849   3.364   3.349 -0.4080 -0.8120 -0.2758
  599MOL0     C80751   1.981   3.421   3.430 -0.2715 -0.6235  0.0889
  599MOL0     C80752   2.034   3.328   3.543 -0.2600 -0.4385  0.6076
  599MOL0     C80753   2.153   3.244   3.505  0.3274 -0.5110 -0.0275
  599MOL0     O80754   2.225   3.209   3.627 -0.2225  0.3043  0.6220
  599MOL0     C80755   2.337   3.125   3.621  0.6030 -0.4942 -0.0041
  599MOL0     C80756   2.419   3.105   3.511  0.4391 -0.7018  0.1407
  599MOL0     C80757   2.523   3.015   3.521 -0.0793  0.4395  0.6434
  599MOL0     C80758   2.611   2.987   3.401  0.8316 -0.4301  0.4481
  599MOL0     C80759   2.551   2.951   3.638  0.5118 -0.0702 -0.3911
  599MOL0     C80760   2.669   2.866   3.659 -0.0361  0.3606  0.7523
  599MOL0     O80761   2.739   2.887   3.776  0.4623 -0.0600 -0.1660
  599MOL0     C80762   2.841   2.799   3.798  0.7480  0.6738 -0.6243
  599MOL0     C80763   2.823   2.691   3.888 -0.0804  0.4442  0.1701
  599MOL0     C80764   2.935   2.605   3.915 -0.1261 -0.3767 -1.2523
  599MOL0     C80765   3.064   2.623   3.860 -0.2838 -0.9317 -0.6770
  599MOL0     O80766   3.158   2.533   3.892  0.4878 -0.9932  0.3225
  599MOL0     C80767   3.216   2.443   3.797  0.8449  0.7322 -0.0758
  599MOL0     C80768   3.360   2.391   3.826 -0.1598 -0.0497 -0.3890
  599MOL0     C80769   3.468   2.496   3.805  1.1768  0.0832 -0.8202
  599MOL0     C80770   3.586   2.463   3.899  0.4180  0.2633 -1.2259
  599MOL0     C80771   3.683   2.591   3.902  0.5039  0.7668 -0.2713
  599MOL0     C80772   3.798   2.568   3.998 -0.8581 -0.3911 -0.0046
  599MOL0     C80773   3.902   2.689   3.991 -0.8048 -0.3962 -0.1338
  599MOL0     C80774   4.002   2.664   4.107  0.5795  0.3241 -0.2763
  599MOL0    Cl80775   4.150   2.757   4.094  0.4015 -0.9682  0.0161
  599MOL0     C80776   3.088   2.733   3.773  0.0749  0.1538  0.2687
  599MOL0     C80777   2.972   2.813   3.740  0.4688  0.2756 -0.0674
  599MOL0     O80778   2.690   2.772   3.575  0.8094 -1.1615  0.4365
  599MOL0     C80779   2.480   2.989   3.756  0.2290  0.1236 -0.7980
  599MOL0     C80780   2.366   3.063   3.745 -0.6085  0.3751 -0.2166
  599MOL0     N80781   1.823   3.390   3.087 -0.1813  0.3014  0.3820
  599MOL0     N80782   1.815   3.487   3.007  0.4078 -0.4329  0.4078
  599MOL0     C80783   1.433   3.122   3.419  0.6901  0.7182 -0.8189
  599MOL0     C80784   1.512   3.007   3.435 -0.9843 -0.6333  0.1242
  599MOL0     C80785   1.916   2.789   3.344 -0.8145  0.6940 -0.0251
  599MOL0     C80786   2.051   2.830   3.316 -0.0240 -0.0198 -0.1054
  599MOL0     C80787   2.143   2.731   3.336 -0.0373  0.0812 -0.0121
  599MOL0     C80788   2.117   2.603   3.371 -0.2671 -0.2235 -0.5398
  599MOL0     O80789   2.223   2.523   3.382 -0.2412  0.4382  0.0833
  599MOL0     C80790   2.220   2.381   3.417  0.7346 -0.9459  0.1552
  599MOL0     C80791   2.150   2.306   3.307 -1.1538 -0.5863 -0.1828
  599MOL0     C80792   2.221   2.163   3.310  0.9413 -0.9280 -0.2201
  599MOL0     C80793   2.183   2.071   3.180 -0.5534 -0.3152 -0.5090
  599MOL0     C80794   2.052   2.012   3.206 -0.5236  0.3947 -0.3422
  599MOL0     C80795   1.944   1.959   3.212  0.8017 -0.5167  0.5926
  599MOL0     C80796   1.989   2.559   3.387 -0.2130  0.5793 -0.6270
  599MOL0     C80797   1.889   2.647   3.375  0.4703 -0.5368 -0.0961
  599MOL0     H80798   1.565   2.934   3.110 -0.7333 -0.0705 -0.4851
  599MOL0     H80799   1.410   3.137   3.092  1.3975  2.5141 -0.2877
  599MOL0     H80800   1.134   3.274   3.353 -0.3694  0.0278 -0.4810
  599MOL0     H80801   1.265   3.331   3.464 -0.9322 -0.2642  1.4800
  599MOL0     H80802   1.118   3.456   3.268  1.4858  1.9497 -2.8007
  599MOL0     H80803   1.161   3.502   3.434  0.4348 -3.0356  0.7919
  599MOL0     H80804   1.379   3.581   3.376  3.5185 -2.3839 -0.2956
  599MOL0     H80805   1.375   3.501   3.222 -1.7771 -1.5862  0.4978
  599MOL0     H80806   1.214   3.664   3.118  0.7357  1.7884 -1.4137
  599MOL0     H80807   1.197   3.736   3.271 -2.5126  3.1577 -5.4481
  599MOL0     H80808   1.332   3.851   3.107 -3.1229 -0.6528  1.3994
  599MOL0     H80809   1.388   3.838   3.273  1.8534 -0.1866  0.7922
  599MOL0     H80810   1.543   3.652   3.216  0.6234 -1.0151 -0.3203
  599MOL0     H80811   1.497   3.652   3.050 -2.4942 -0.6346  0.6534
  599MOL0     H80812   1.593   3.888   3.061  2.2944 -0.3926 -2.3973
  599MOL0     H80813   1.676   3.825   3.205 -0.1331 -1.7181  1.6409
  599MOL0     H80814   1.816   3.805   2.996  0.7276  0.8417  2.2216
  599MOL0     H80815   1.688   3.714   2.920 -5.3112  0.7524  1.4985
  599MOL0     H80816   1.813   3.644   3.292  2.5215 -1.1851  0.1888
  599MOL0     H80817   1.763   3.376   3.416 -1.0480 -1.5356 -0.9487
  599MOL0     H80818   1.857   3.257   3.331 -1.3930 -1.2321  1.4758
  599MOL0     H80819   1.961   3.523   3.465  0.3614 -0.1908 -0.7468
  599MOL0     H80820   2.060   3.434   3.355  0.1941  2.2492  0.9498
  599MOL0     H80821   1.956   3.257   3.573  0.7914 -3.0795 -2.3757
  599MOL0     H80822   2.063   3.391   3.628  2.6110  1.9055 -1.8582
  599MOL0     H80823   2.225   3.286   3.434 -0.2844 -1.2658 -1.1178
  599MOL0     H80824   2.125   3.155   3.447 -1.6788  0.9943 -1.5072
  599MOL0     H80825   2.396   3.143   3.412  1.1313 -1.5516 -0.3612
  599MOL0     H80826   2.719   2.988   3.417  0.7223 -0.1973  1.2278
  599MOL0     H80827   2.574   2.888   3.373 -0.6247  0.1529  0.1983
  599MOL0     H80828   2.588   3.056   3.319  0.3399  1.6763  2.2797
  599MOL0     H80829   2.728   2.674   3.938  0.4514 -1.7527  0.5205
  599MOL0     H80830   2.930   2.528   3.991  3.1859  0.1593 -0.3535
  599MOL0     H80831   3.155   2.354   3.783  1.9752  0.1035 -1.2152
  599MOL0     H80832   3.217   2.492   3.699  2.1116 -0.2059 -0.5645
  599MOL0     H80833   3.363   2.353   3.928  0.0755  0.1379 -0.3256
  599MOL0     H80834   3.376   2.301   3.766 -3.0441 -1.3698  0.6132
  599MOL0     H80835   3.433   2.598   3.825  0.3758  0.1419 -2.3894
  599MOL0     H80836   3.511   2.491   3.704  1.1824  0.6599 -0.8539
  599MOL0     H80837   3.555   2.444   4.002 -1.3462  1.4834 -1.4777
  599MOL0     H80838   3.649   2.379   3.868 -0.8826 -1.3192  0.2064
  599MOL0     H80839   3.634   2.678   3.947  0.8424  0.9675 -0.2954
  599MOL0     H80840   3.717   2.612   3.801  0.7979 -0.5943 -0.4719
  599MOL0     H80841   3.751   2.552   4.096 -3.9325  0.9389 -1.1505
  599MOL0     H80842   3.856   2.477   3.980  0.8305  0.6251  0.0390
  599MOL0     H80843   3.852   2.786   3.994 -0.5567 -0.2749  2.6697
  599MOL0     H80844   3.955   2.678   3.897  2.7621  0.0104  1.6748
  599MOL0     H80845   4.031   2.558   4.106  0.9777  0.3570  2.0126
  599MOL0     H80846   3.951   2.689   4.201 -1.4956  2.2877 -1.8084
  599MOL0     H80847   3.189   2.750   3.738  0.2298  0.1231  0.6863
  599MOL0     H80848   2.992   2.904   3.685  3.4398 -1.3538 -1.9020
  599MOL0     H80849   2.495   2.954   3.858 -0.6929 -0.5210 -0.8787
  599MOL0     H80850   2.307   3.095   3.830 -1.0602  2.9236 -1.3720
  599MOL0     H80851   1.398   3.178   3.505  1.9376  1.2714 -0.6605
  599MOL0     H80852   1.547   2.978   3.533  0.6358  0.7190 -0.0166
  599MOL0     H80853   2.077   2.931   3.287  1.1307 -0.0144  0.8863
  599MOL0     H80854   2.245   2.751   3.305 -0.5433 -0.4242 -2.1186
  599MOL0     H80855   2.323   2.344   3.427  0.5633 -1.3934  0.2896
  599MOL0     H80856   2.164   2.370   3.510  0.6508  2.9690  0.7182
  599MOL0     H80857   2.166   2.366   3.217  1.4156  0.3607  0.8139
  599MOL0     H80858   2.044   2.306   3.334 -0.6087 -0.2028  2.1758
  599MOL0     H80859   2.208   2.107   3.403 -0.1655 -0.6928 -0.2103
  599MOL0     H80860   2.323   2.189   3.281 -0.2716  5.3394 -0.3014
  599MOL0     H80861   2.258   1.992   3.180 -0.7444 -0.7168  3.6350
  599MOL0     H80862   2.178   2.127   3.086 -2.1550 -1.4284 -1.1337
  599MOL0     H80863   1.847   1.915   3.215  0.7587 -0.4251  0.5519
  599MOL0     H80864   1.957   2.463   3.426 -1.4122  1.4854  0.7306
  599MOL0     H80865   1.793   2.602   3.399 -0.0968  1.2016  1.0275
  600MOL0     O80866  10.168  11.377   1.839  0.6116 -0.0308 -0.0208
  600MOL0     C80867  10.235  11.476   1.841  0.3748  0.9575  0.1193
  600MOL0     O80868  10.366  11.483   1.882  0.3949 -0.0129  0.4699
  600MOL0     C80869  10.438  11.376   1.934 -0.2916 -1.5037  0.4744
  600MOL0     C80870  10.432  11.247   1.878  0.0049  0.3632  0.2551
  600MOL0     C80871  10.511  11.149   1.930  0.6111 -0.7563 -0.0813
  600MOL0     C80872  10.600  11.176   2.046  0.8008 -0.6640  0.2180
  600MOL0     O80873  10.693  11.090   2.090  0.3809 -0.8705  1.0081
  600MOL0     C80874  10.677  10.951   2.058  0.3044  0.2161 -0.0299
  600MOL0     C80875  10.778  10.851   2.120 -1.2454 -0.7442  0.5640
  600MOL0     C80876  10.918  10.863   2.063  1.1026  0.2932 -0.2233
  600MOL0     C80877  11.017  10.770   2.117  0.3315  0.4215  0.0899
  600MOL0     C80878  11.153  10.804   2.057 -0.6410 -0.4021 -0.3235
  600MOL0     C80879  11.248  10.689   2.049  0.2660 -0.5299  0.1200
  600MOL0     C80880  11.391  10.724   1.993  0.3491  0.1749 -0.4925
  600MOL0     C80881  11.506  10.618   2.006 -0.4992 -0.2989 -0.3096
  600MOL0     N80882  11.478  10.491   1.939 -0.9259  0.8783 -0.2455
  600MOL0     C80883  11.444  10.494   1.806 -0.3229 -0.9157  0.0700
  600MOL0     C80884  11.374  10.373   1.789 -0.2255  0.0192 -0.4227
  600MOL0     C80885  11.299  10.307   1.671 -1.4829 -1.1367  0.1238
  600MOL0     C80886  11.367  10.182   1.629  0.5174  0.0589  0.2796
  600MOL0     C80887  11.517  10.216   1.588 -0.1696 -0.1161  0.6818
  600MOL0     C80888  11.564  10.102   1.487 -0.1603 -0.4128 -0.7439
  600MOL0     O80889  11.488  10.067   1.370 -0.9385  0.2412 -0.3219
  600MOL0     C80890  11.506   9.943   1.313  0.2155 -0.0085  0.2839
  600MOL0     C80891  11.628   9.909   1.259  0.7214  0.5223  0.2700
  600MOL0     C80892  11.638   9.797   1.179 -0.0304  0.3277 -0.0906
  600MOL0     C80893  11.764   9.765   1.100  0.1258 -0.3457 -0.0407
  600MOL0     C80894  11.522   9.717   1.159 -0.2675 -0.4299  0.1580
  600MOL0     C80895  11.521   9.607   1.060 -0.6889  0.0774  0.5836
  600MOL0     O80896  11.409   9.596   0.988  0.1828 -0.5525 -0.3368
  600MOL0     C80897  11.412   9.504   0.886 -0.6256 -0.0196 -0.6433
  600MOL0     C80898  11.310   9.413   0.875 -0.6902 -1.0279 -0.0516
  600MOL0     C80899  11.303   9.316   0.767 -0.7966  0.6008  0.4483
  600MOL0     C80900  11.411   9.303   0.684 -0.3692  0.0473 -0.6059
  600MOL0     O80901  11.433   9.208   0.583  0.0136 -0.0033 -0.2283
  600MOL0     C80902  11.339   9.108   0.558 -0.0212 -0.0516 -1.4817
  600MOL0     C80903  11.225   9.156   0.471 -0.1156 -0.1892 -0.0204
  600MOL0     C80904  11.121   9.047   0.443 -0.2120  0.3931 -0.8160
  600MOL0     C80905  11.147   8.960   0.321 -0.3106 -0.5840  0.2232
  600MOL0     C80906  11.065   9.020   0.208 -0.0234  0.2598  0.5519
  600MOL0     C80907  11.068   8.958   0.071 -0.8653  1.2031 -0.0120
  600MOL0     C80908  11.213   8.904   0.025  0.3261 -0.4964  0.5651
  600MOL0     C80909  11.210   8.843  -0.115  0.5445 -0.5656  0.0889
  600MOL0    Cl80910  11.374   8.883  -0.198 -0.3823  0.0758 -0.0220
  600MOL0     C80911  11.519   9.393   0.704 -0.3757  0.0599  0.8239
  600MOL0     C80912  11.523   9.493   0.797 -0.0532  0.5072 -0.6581
  600MOL0     O80913  11.612   9.524   1.065  0.6877 -0.0711  0.3482
  600MOL0     C80914  11.401   9.770   1.207 -0.5851  0.0376 -0.6391
  600MOL0     C80915  11.389   9.881   1.283  0.1612 -0.0174 -0.7998
  600MOL0     N80916  11.371  10.311   1.905  0.6177 -0.0158 -0.0876
  600MOL0     N80917  11.421  10.376   2.001 -0.0172  0.9874 -0.5158
  600MOL0     C80918  10.599  11.303   2.105 -0.4425 -0.3732 -0.2701
  600MOL0     C80919  10.515  11.405   2.046 -0.8859  0.9015 -0.3506
  600MOL0     C80920  10.169  11.608   1.815 -0.6997 -1.1781 -0.3187
  600MOL0     C80921  10.241  11.730   1.829  0.4628 -0.1805  0.8624
  600MOL0     C80922  10.181  11.854   1.803  1.4460 -0.5814  0.4912
  600MOL0     C80923  10.049  11.855   1.754  0.0894 -0.3956  0.2504
  600MOL0     O80924   9.968  11.964   1.740  0.1409 -0.2258 -0.0817
  600MOL0     C80925  10.014  12.097   1.771 -0.2496  0.7175  0.6473
  600MOL0     C80926   9.903  12.194   1.738  0.1229 -0.6939  0.5155
  600MOL0     C80927   9.780  12.162   1.833 -0.1767 -0.2261 -0.7481
  600MOL0     C80928   9.656  12.263   1.800  0.1956 -0.2201  0.2108
  600MOL0     C80929   9.534  12.215   1.860 -1.6769  0.0357  0.0100
  600MOL0     C80930   9.430  12.174   1.904 -0.3079  0.0070  0.8934
  600MOL0     C80931   9.984  11.727   1.738  0.3888  0.0739 -0.2475
  600MOL0     C80932  10.039  11.607   1.768 -0.0120 -0.1956 -0.2607
  600MOL0     H80933  10.356  11.225   1.804  0.1519  3.3951 -0.9498
  600MOL0     H80934  10.520  11.066   1.860 -1.1312 -0.1579 -1.0744
  600MOL0     H80935  10.575  10.932   2.094  0.8073  0.2409  1.4635
  600MOL0     H80936  10.680  10.939   1.949  0.4849  0.8117 -0.0967
  600MOL0     H80937  10.790  10.868   2.228  0.6229 -2.5312  0.7039
  600MOL0     H80938  10.736  10.755   2.089 -1.7116  0.5584 -3.4166
  600MOL0     H80939  10.902  10.837   1.958  1.4102 -2.3119  0.3187
  600MOL0     H80940  10.948  10.968   2.067 -0.5454  0.9255 -2.3790
  600MOL0     H80941  11.008  10.769   2.226 -0.3433  1.2611  0.0545
  600MOL0     H80942  10.998  10.668   2.081  1.4817  0.0145  0.5826
  600MOL0     H80943  11.152  10.835   1.952  0.1674  1.1597  0.1042
  600MOL0     H80944  11.203  10.884   2.111  0.6720 -0.5715 -1.2293
  600MOL0     H80945  11.249  10.634   2.144  3.7603 -0.1295  0.4660
  600MOL0     H80946  11.209  10.621   1.973 -2.2708  0.7187  0.2195
  600MOL0     H80947  11.376  10.751   1.888  1.4790  3.4022  0.0505
  600MOL0     H80948  11.429  10.818   2.035 -2.2195  0.1758  2.1678
  600MOL0     H80949  11.527  10.597   2.112  3.6316 -0.5173 -0.9985
  600MOL0     H80950  11.597  10.667   1.969  0.8975  0.2279  3.3381
  600MOL0     H80951  11.479  10.565   1.732 -0.4143 -0.1925  0.7117
  600MOL0     H80952  11.198  10.285   1.707 -1.2974 -0.6879  0.9585
  600MOL0     H80953  11.308  10.387   1.597  0.3980  0.7216  2.1746
  600MOL0     H80954  11.305  10.147   1.546 -2.2890  2.4460  1.1584
  600MOL0     H80955  11.351  10.109   1.709 -2.7555 -0.5784 -0.8017
  600MOL0     H80956  11.584  10.229   1.674 -1.6058 -0.0579  1.8223
  600MOL0     H80957  11.526  10.303   1.521  0.3817 -0.6028  0.1056
  600MOL0     H80958  11.584  10.006   1.535  0.4503  1.0877  2.2285
  600MOL0     H80959  11.658  10.135   1.441 -0.1832 -3.2563 -3.1388
  600MOL0     H80960  11.713   9.968   1.290 -0.9589  2.0279  2.2999
  600MOL0     H80961  11.740   9.759   0.993 -1.6882  4.9907 -0.2244
  600MOL0     H80962  11.820   9.858   1.108 -0.2448 -0.1252 -0.0427
  600MOL0     H80963  11.820   9.682   1.145  1.0782  0.9888  1.3074
  600MOL0     H80964  11.222   9.417   0.938 -2.0589  0.7009 -1.9209
  600MOL0     H80965  11.212   9.258   0.755  0.0934 -0.7686  0.1019
  600MOL0     H80966  11.399   9.024   0.519  0.1299 -0.8494  0.3723
  600MOL0     H80967  11.304   9.083   0.658 -0.0696  1.0613 -1.2094
  600MOL0     H80968  11.181   9.242   0.522 -1.1641 -0.3109 -0.6846
  600MOL0     H80969  11.262   9.202   0.379  2.0318  2.5463  2.0540
  600MOL0     H80970  11.024   9.097   0.429  0.2553  0.6829 -3.6987
  600MOL0     H80971  11.108   8.981   0.528  1.0555 -0.9881 -1.6571
  600MOL0     H80972  11.256   8.954   0.313  0.1891  3.1012  2.1198
  600MOL0     H80973  11.099   8.866   0.348 -0.6749  0.1671  2.3907
  600MOL0     H80974  11.091   9.126   0.196 -3.0751  0.9512 -0.8255
  600MOL0     H80975  10.961   9.005   0.236 -0.8865  2.1465 -1.3490
  600MOL0     H80976  11.006   8.868   0.063  0.6628 -0.1851  2.4131
  600MOL0     H80977  11.051   9.037  -0.004  3.3212  0.2079 -2.3569
  600MOL0     H80978  11.258   8.832   0.094 -0.7952 -0.3981  1.4257
  600MOL0     H80979  11.271   8.997   0.027  0.1728 -0.3927  0.2357
  600MOL0     H80980  11.137   8.896  -0.177  1.3218 -2.6923 -2.8162
  600MOL0     H80981  11.177   8.739  -0.113 -2.1946  0.2064  2.1331
  600MOL0     H80982  11.595   9.374   0.630  0.6824 -2.4162  2.4173
  600MOL0     H80983  11.608   9.561   0.791  0.9523 -0.7362 -0.9916
  600MOL0     H80984  11.313   9.709   1.196  0.3838 -2.0835  2.1122
  600MOL0     H80985  11.296   9.926   1.315 -0.2683  0.2158 -2.3077
  600MOL0     H80986  10.663  11.323   2.191 -3.1541  0.3861  1.6811
  600MOL0     H80987  10.516  11.506   2.085 -2.5911  0.7663  0.0902
  600MOL0     H80988  10.348  11.734   1.844  0.1035  1.4468  3.7636
  600MOL0     H80989  10.226  11.950   1.829 -0.6640  0.4801  0.4613
  600MOL0     H80990  10.047  12.113   1.874  2.5543  1.1246 -0.2333
  600MOL0     H80991  10.109  12.120   1.722 -1.1838  1.2169 -1.0049
  600MOL0     H80992   9.860  12.181   1.638  2.4065 -0.0972 -0.6000
  600MOL0     H80993   9.947  12.294   1.742 -2.4667  0.6145 -0.7409
  600MOL0     H80994   9.805  12.189   1.937 -0.4954 -0.3203 -0.6470
  600MOL0     H80995   9.748  12.059   1.817 -0.9020 -0.5036  1.9968
  600MOL0     H80996   9.648  12.256   1.692  0.3494  2.2559 -0.0374
  600MOL0     H80997   9.671  12.371   1.817 -2.1659  0.3993 -1.1663
  600MOL0     H80998   9.336  12.136   1.938 -0.0374 -2.6317 -0.9519
  600MOL0     H80999   9.892  11.733   1.681 -0.2519  1.4315  0.8690
  600MOL0     H81000   9.991  11.512   1.751  1.0609 -0.4567 -2.1144
  601MOL0     O81001   2.684   5.841   8.297  0.3031 -1.0096 -0.3970
  601MOL0     C81002   2.591   5.887   8.351  0.7992  0.0029 -0.0708
  601MOL0     O81003   2.495   5.814   8.411  0.3780  1.2382 -0.3442
  601MOL0     C81004   2.494   5.679   8.408 -0.0579 -0.0311  1.0304
  601MOL0     C81005   2.603   5.612   8.467  0.2008  0.0185 -0.6599
  601MOL0     C81006   2.612   5.476   8.477 -0.8138 -0.2200  0.3369
  601MOL0     C81007   2.516   5.398   8.413 -0.7057 -0.7456 -1.2929
  601MOL0     O81008   2.532   5.269   8.396 -0.3671 -0.1665 -0.5204
  601MOL0     C81009   2.655   5.216   8.354  0.1739  0.5317  1.2826
  601MOL0     C81010   2.674   5.067   8.352  0.3785  0.6652 -0.1897
  601MOL0     C81011   2.643   5.012   8.499  0.0417 -0.8254  0.2503
  601MOL0     C81012   2.671   4.866   8.535  0.1697 -0.1414  0.9851
  601MOL0     C81013   2.639   4.844   8.678 -0.0225 -0.0857  0.1834
  601MOL0     C81014   2.739   4.754   8.742 -1.2371  0.1206  0.0496
  601MOL0     C81015   2.751   4.750   8.896  0.3329 -1.1075  0.3117
  601MOL0     C81016   2.893   4.708   8.957 -0.8739  0.2721  0.7963
  601MOL0     N81017   2.952   4.575   8.907 -0.2626  0.1035 -0.5555
  601MOL0     C81018   3.051   4.559   8.821 -1.1234  0.2720 -0.5725
  601MOL0     C81019   3.073   4.420   8.806  0.1829  0.1180  0.0339
  601MOL0     C81020   3.183   4.362   8.716 -0.5974  1.0542  0.5184
  601MOL0     C81021   3.145   4.221   8.682 -0.8749 -0.6626  0.0181
  601MOL0     C81022   3.011   4.204   8.614  0.6290  0.6484 -0.3868
  601MOL0     C81023   2.970   4.054   8.600 -0.2583  0.6590 -0.9566
  601MOL0     O81024   3.040   3.981   8.498 -0.4705  0.5395  0.6091
  601MOL0     C81025   3.156   3.911   8.525  0.1888 -0.7990  0.3273
  601MOL0     C81026   3.230   3.871   8.412 -0.0254  0.2387  0.3805
  601MOL0     C81027   3.354   3.807   8.426 -0.0184  0.5728  0.6448
  601MOL0     C81028   3.423   3.781   8.300 -0.4667  0.6296  0.6413
  601MOL0     C81029   3.402   3.772   8.561  0.1323 -0.1773  1.1109
  601MOL0     C81030   3.516   3.684   8.593  0.1285 -0.4947  0.4859
  601MOL0     O81031   3.533   3.627   8.714 -0.3722  0.7945 -0.0473
  601MOL0     C81032   3.646   3.552   8.746  0.2293  0.2870  0.1904
  601MOL0     C81033   3.681   3.437   8.677 -0.4845  0.8677 -0.6190
  601MOL0     C81034   3.785   3.362   8.730  0.2341 -0.3168  0.0652
  601MOL0     C81035   3.853   3.397   8.850  0.0950 -0.2002 -0.2642
  601MOL0     O81036   3.933   3.302   8.908  0.3905  0.5329 -0.1090
  601MOL0     C81037   4.021   3.340   9.011  0.1188 -0.1612 -0.2346
  601MOL0     C81038   4.130   3.230   9.042  0.8070  0.2677 -0.7833
  601MOL0     C81039   4.241   3.301   9.121  0.3087  0.3395 -0.2713
  601MOL0     C81040   4.322   3.199   9.219 -0.2428  0.3371  0.9098
  601MOL0     C81041   4.240   3.100   9.318  0.2325 -0.3396  0.6617
  601MOL0     C81042   4.273   2.955   9.320 -0.4209 -0.5689 -0.2933
  601MOL0     C81043   4.249   2.868   9.194  0.4864 -0.2241 -0.2893
  601MOL0     C81044   4.333   2.740   9.200  0.6589 -0.0877  0.0027
  601MOL0    Cl81045   4.299   2.645   9.356 -0.5969  0.2439 -0.5922
  601MOL0     C81046   3.830   3.523   8.903  0.0559 -0.3509  0.9145
  601MOL0     C81047   3.724   3.605   8.851 -0.1192  0.4437 -0.2265
  601MOL0     O81048   3.590   3.679   8.506 -0.5870  0.3890  0.3316
  601MOL0     C81049   3.329   3.821   8.669 -0.3189 -0.7714 -0.6612
  601MOL0     C81050   3.209   3.899   8.645 -0.9592 -0.0804 -0.3595
  601MOL0     N81051   2.976   4.357   8.893 -0.2557 -0.7015 -0.3709
  601MOL0     N81052   2.914   4.449   8.949  0.0109 -0.0060 -0.4442
  601MOL0     C81053   2.396   5.462   8.361  0.3724  0.2078  0.6571
  601MOL0     C81054   2.388   5.603   8.356  0.2026  0.8427 -0.3522
  601MOL0     C81055   2.589   6.029   8.368  0.1714  0.2555 -0.3582
  601MOL0     C81056   2.676   6.119   8.301 -0.4583  0.7545 -0.1005
  601MOL0     C81057   2.684   6.260   8.327  1.0244 -0.0044 -0.2002
  601MOL0     C81058   2.570   6.319   8.396 -0.3070  0.3750 -0.5579
  601MOL0     O81059   2.569   6.455   8.415  0.1409  0.9708 -0.3176
  601MOL0     C81060   2.452   6.521   8.466  1.4908 -0.5670 -0.4798
  601MOL0     C81061   2.447   6.670   8.433 -0.2402  0.2658  0.2386
  601MOL0     C81062   2.421   6.703   8.284  0.6982  0.8812 -0.2424
  601MOL0     C81063   2.414   6.854   8.285 -0.4193 -0.3035 -0.6762
  601MOL0     C81064   2.404   6.900   8.141 -1.1102  0.0124  0.5021
  601MOL0     C81065   2.397   6.926   8.018  0.4589  0.0402 -0.0548
  601MOL0     C81066   2.468   6.229   8.446  0.0991 -0.4033 -0.2169
  601MOL0     C81067   2.482   6.092   8.438 -1.1717  0.2104  1.5595
  601MOL0     H81068   2.676   5.671   8.522  0.8308 -0.4012 -1.0387
  601MOL0     H81069   2.698   5.419   8.512  0.0848 -0.0219 -1.4102
  601MOL0     H81070   2.672   5.248   8.250 -1.2663  1.2899  1.2450
  601MOL0     H81071   2.736   5.257   8.415  0.2550  1.8236  0.3536
  601MOL0     H81072   2.604   5.024   8.280  0.2266 -3.6397  2.2044
  601MOL0     H81073   2.777   5.052   8.319  0.6924  3.1392 -0.5262
  601MOL0     H81074   2.708   5.064   8.570 -0.3903  1.4376 -0.9383
  601MOL0     H81075   2.536   5.025   8.516 -0.4428 -3.4847 -0.3345
  601MOL0     H81076   2.609   4.803   8.471 -0.1196  1.5976 -0.5303
  601MOL0     H81077   2.779   4.852   8.524 -0.0413 -3.5093  2.0860
  601MOL0     H81078   2.640   4.938   8.733 -3.3501 -1.0725  2.3064
  601MOL0     H81079   2.538   4.801   8.687 -0.1966  0.6929  2.6647
  601MOL0     H81080   2.720   4.658   8.694 -0.2824  1.4966 -3.4254
  601MOL0     H81081   2.839   4.780   8.706 -0.8892 -0.9316  0.2349
  601MOL0     H81082   2.730   4.853   8.928 -0.9831 -0.6488 -1.8216
  601MOL0     H81083   2.680   4.683   8.945 -2.5290  1.0016 -0.6950
  601MOL0     H81084   2.876   4.694   9.064 -3.1422  3.0438  0.9123
  601MOL0     H81085   2.961   4.792   8.941  0.4826  0.2059  4.9151
  601MOL0     H81086   3.099   4.636   8.760 -3.4247  0.6902 -1.9734
  601MOL0     H81087   3.194   4.416   8.622 -0.4898 -3.0675 -2.0989
  601MOL0     H81088   3.285   4.367   8.755 -0.0524 -0.7178 -0.5239
  601MOL0     H81089   3.166   4.157   8.768 -0.7242  1.4671  1.6558
  601MOL0     H81090   3.216   4.199   8.602 -1.4645  1.3075 -1.1099
  601MOL0     H81091   2.990   4.243   8.514 -0.4560  0.7664 -0.1272
  601MOL0     H81092   2.925   4.233   8.676  0.0056 -0.4984 -0.6866
  601MOL0     H81093   2.869   4.055   8.558 -0.7382  1.4718  0.1924
  601MOL0     H81094   2.966   4.017   8.703 -0.8720 -0.0401 -1.2171
  601MOL0     H81095   3.185   3.895   8.316  0.4400  1.4774  0.4527
  601MOL0     H81096   3.524   3.821   8.312 -0.4299  1.1363 -1.1370
  601MOL0     H81097   3.423   3.672   8.291 -3.1151  0.7765 -3.0033
  601MOL0     H81098   3.366   3.824   8.218  4.2205  1.6093 -2.4787
  601MOL0     H81099   3.613   3.405   8.599 -1.5418  0.1436  0.5461
  601MOL0     H81100   3.813   3.259   8.709  1.4181  0.1161 -0.5658
  601MOL0     H81101   4.076   3.433   8.993  0.0994 -0.3810 -1.4994
  601MOL0     H81102   3.958   3.359   9.099 -2.0435 -1.4239 -1.4282
  601MOL0     H81103   4.080   3.152   9.100  0.1907 -1.2095 -3.1794
  601MOL0     H81104   4.161   3.204   8.940  0.5121  2.1978 -1.4009
  601MOL0     H81105   4.195   3.370   9.192 -1.3521  1.3436 -2.2280
  601MOL0     H81106   4.310   3.347   9.050 -0.5662 -5.1103 -5.4501
  601MOL0     H81107   4.382   3.127   9.162  1.3400 -1.0396  4.0944
  601MOL0     H81108   4.399   3.252   9.274 -1.6231  3.5831 -0.0267
  601MOL0     H81109   4.134   3.093   9.292  0.1501 -0.6500  1.0757
  601MOL0     H81110   4.242   3.149   9.416 -1.2257 -1.0905  1.1049
  601MOL0     H81111   4.375   2.940   9.356 -1.3081 -0.5483  2.4911
  601MOL0     H81112   4.206   2.909   9.393 -0.3558 -0.5669 -0.2325
  601MOL0     H81113   4.285   2.930   9.111  0.7770  0.5843  0.4242
  601MOL0     H81114   4.143   2.843   9.187  0.2127 -0.1470  2.6355
  601MOL0     H81115   4.440   2.756   9.185  0.5007  2.8401  1.3108
  601MOL0     H81116   4.298   2.677   9.118 -0.4707 -2.4780  2.1974
  601MOL0     H81117   3.895   3.566   8.979 -2.1847  1.5285  1.9022
  601MOL0     H81118   3.700   3.697   8.905  0.9185  0.7379 -0.2434
  601MOL0     H81119   3.376   3.805   8.766  1.8082 -0.7746 -1.6264
  601MOL0     H81120   3.170   3.955   8.729  0.5368  0.6204 -0.0917
  601MOL0     H81121   2.321   5.396   8.318 -0.9886  2.1333 -0.0910
  601MOL0     H81122   2.301   5.649   8.310 -1.6243 -0.6611  1.3625
  601MOL0     H81123   2.749   6.087   8.227  0.0941  3.6860 -0.9547
  601MOL0     H81124   2.748   6.323   8.266 -0.4410  3.2060  1.3615
  601MOL0     H81125   2.366   6.475   8.417 -0.8110  2.7240  0.1300
  601MOL0     H81126   2.466   6.523   8.574  2.4846  0.9399 -0.6047
  601MOL0     H81127   2.548   6.711   8.447 -0.4976  0.4816  1.5471
  601MOL0     H81128   2.376   6.729   8.491  1.0486  2.7644 -0.5459
  601MOL0     H81129   2.328   6.667   8.238  1.0249  2.4714 -2.2893
  601MOL0     H81130   2.492   6.649   8.220  1.4180 -2.8943  3.3160
  601MOL0     H81131   2.497   6.904   8.335 -1.3236  2.3449 -1.6131
  601MOL0     H81132   2.326   6.882   8.344  0.8622  0.1725  1.0856
  601MOL0     H81133   2.386   6.947   7.913 -1.8699 -0.4794  0.0148
  601MOL0     H81134   2.382   6.268   8.500  0.6213  0.6075 -0.0927
  601MOL0     H81135   2.399   6.037   8.481 -1.0267  0.7756  2.6060
  602MOL0     O81136  10.749   5.554   2.850  0.3319  0.3749  0.3698
  602MOL0     C81137  10.639   5.607   2.823 -0.6968 -0.4275 -0.8341
  602MOL0     O81138  10.557   5.678   2.907 -0.4216 -0.6689 -0.2390
  602MOL0     C81139  10.601   5.693   3.034 -0.3189  0.1624  0.5080
  602MOL0     C81140  10.511   5.666   3.144 -0.4409  1.2280 -0.3968
  602MOL0     C81141  10.548   5.698   3.271 -0.8264 -0.4660  0.4293
  602MOL0     C81142  10.670   5.767   3.298 -0.1117  0.0809  0.6361
  602MOL0     O81143  10.693   5.793   3.428 -0.0674 -0.8033 -0.5244
  602MOL0     C81144  10.814   5.866   3.470  1.0030  0.3157  0.7341
  602MOL0     C81145  10.783   5.918   3.607 -0.0489  0.2879  0.4558
  602MOL0     C81146  10.784   5.810   3.718 -0.5670  0.5532 -0.0675
  602MOL0     C81147  10.930   5.779   3.779  0.0501  0.3026 -0.1437
  602MOL0     C81148  10.988   5.653   3.707 -0.4124  0.4949 -0.1517
  602MOL0     C81149  10.952   5.519   3.774 -0.3674 -0.1515  0.0549
  602MOL0     C81150  11.044   5.490   3.897  1.0523  0.3420 -1.4865
  602MOL0     C81151  11.197   5.483   3.872  0.3469 -0.4441  0.0305
  602MOL0     N81152  11.288   5.462   3.984  0.4680 -0.0948  0.6075
  602MOL0     C81153  11.294   5.544   4.093  0.9435  0.9971  0.7779
  602MOL0     C81154  11.400   5.518   4.159 -0.2629 -0.5855  0.6080
  602MOL0     C81155  11.435   5.585   4.285 -0.6356  0.5956  0.0746
  602MOL0     C81156  11.468   5.485   4.403  0.4081  0.6739  0.6004
  602MOL0     C81157  11.499   5.564   4.528  0.6864 -0.2665 -0.2468
  602MOL0     C81158  11.619   5.501   4.603 -0.5424 -0.6110 -0.5805
  602MOL0     O81159  11.749   5.531   4.541  0.7865 -0.0690 -0.1620
  602MOL0     C81160  11.849   5.559   4.632  0.4179 -0.0200  0.2268
  602MOL0     C81161  11.880   5.485   4.738 -0.5352  0.3096 -0.0111
  602MOL0     C81162  11.982   5.506   4.826  0.4389 -0.7717 -0.0189
  602MOL0     C81163  11.994   5.411   4.942  0.4466 -0.1223  0.4289
  602MOL0     C81164  12.063   5.615   4.806  0.3086  1.1291  1.3185
  602MOL0     C81165  12.178   5.636   4.892 -0.0803  0.1720  0.1558
  602MOL0     O81166  12.303   5.654   4.837 -0.7396  0.0121 -0.2813
  602MOL0     C81167  12.382   5.724   4.919  0.0829 -0.8446 -0.0487
  602MOL0     C81168  12.484   5.659   4.984  0.4848  0.3022 -0.2482
  602MOL0     C81169  12.567   5.716   5.071 -0.3338 -1.1110 -0.3531
  602MOL0     C81170  12.554   5.861   5.095  1.3837 -0.2632  0.5608
  602MOL0     O81171  12.644   5.929   5.179 -0.5252  0.5146  0.6072
  602MOL0     C81172  12.618   5.901   5.314 -0.4430 -0.1006  0.0504
  602MOL0     C81173  12.734   5.949   5.404 -0.6847  0.5352 -0.0020
  602MOL0     C81174  12.855   5.848   5.398 -0.1507 -0.0827 -0.4066
  602MOL0     C81175  12.971   5.915   5.478 -0.1772 -0.4352  0.2572
  602MOL0     C81176  13.107   5.846   5.477  0.3890  0.1376  0.8704
  602MOL0     C81177  13.206   5.924   5.568  0.9224 -0.2604  0.2677
  602MOL0     C81178  13.215   5.878   5.709  0.0914 -0.1680 -0.5864
  602MOL0     C81179  13.280   5.739   5.733  0.4593 -0.8005 -0.2720
  602MOL0    Cl81180  13.442   5.714   5.671  0.4714 -0.0049  0.4172
  602MOL0     C81181  12.455   5.933   5.029  0.4204  0.2668  0.4233
  602MOL0     C81182  12.356   5.867   4.950  0.3895  0.0300  0.4598
  602MOL0     O81183  12.154   5.632   5.012 -0.5216 -0.3335  0.1070
  602MOL0     C81184  12.036   5.697   4.689 -1.2610 -0.0399 -0.2879
  602MOL0     C81185  11.933   5.669   4.601 -0.3937  0.6544 -1.3694
  602MOL0     N81186  11.468   5.420   4.093  0.3133  0.1594 -0.3213
  602MOL0     N81187  11.391   5.380   3.993 -0.1916 -0.3358  0.0582
  602MOL0     C81188  10.757   5.791   3.190  0.7329  0.2808 -0.5869
  602MOL0     C81189  10.719   5.763   3.058  0.5174  0.7252  0.8510
  602MOL0     C81190  10.608   5.609   2.674  0.2227  0.1345 -0.1146
  602MOL0     C81191  10.514   5.698   2.617  0.0148  0.0515 -0.1942
  602MOL0     C81192  10.494   5.714   2.479  0.9937  0.0806 -0.0716
  602MOL0     C81193  10.570   5.624   2.395  0.0048 -0.3056  1.3366
  602MOL0     O81194  10.572   5.633   2.259 -0.8304 -0.1785 -0.0964
  602MOL0     C81195  10.483   5.714   2.198  0.4793  0.1862  0.8601
  602MOL0     C81196  10.554   5.808   2.098  0.2138  0.4147 -0.2839
  602MOL0     C81197  10.593   5.741   1.969  0.6478  0.1264  0.3921
  602MOL0     C81198  10.661   5.843   1.870  0.6960  0.5674  0.4345
  602MOL0     C81199  10.554   5.913   1.799  0.9465 -0.1322  0.5228
  602MOL0     C81200  10.465   5.970   1.743 -0.2857 -0.5411 -0.1591
  602MOL0     C81201  10.654   5.531   2.446 -0.7922 -0.4035 -0.7600
  602MOL0     C81202  10.663   5.519   2.583  0.2204 -0.2332 -0.5482
  602MOL0     H81203  10.424   5.605   3.123  0.0082  1.2373 -2.5261
  602MOL0     H81204  10.484   5.674   3.355  1.7054  2.2060  3.4131
  602MOL0     H81205  10.904   5.807   3.452 -0.1412 -0.7428 -2.1333
  602MOL0     H81206  10.818   5.952   3.403  1.0383 -0.2481 -0.0035
  602MOL0     H81207  10.860   5.991   3.633  0.0128 -0.4016  2.3358
  602MOL0     H81208  10.691   5.976   3.610 -1.3168 -1.6190  0.0704
  602MOL0     H81209  10.731   5.842   3.809  2.5199  2.3539  1.2494
  602MOL0     H81210  10.740   5.716   3.682 -0.7963  1.1478 -1.3994
  602MOL0     H81211  10.996   5.866   3.777  0.2628  0.3761  3.2630
  602MOL0     H81212  10.928   5.753   3.885  0.4765  2.5638  0.4741
  602MOL0     H81213  10.947   5.657   3.606 -3.0971 -4.3859  0.4170
  602MOL0     H81214  11.096   5.658   3.692 -0.1118  0.0021  1.5475
  602MOL0     H81215  10.844   5.512   3.792 -0.2133 -0.3600  0.9323
  602MOL0     H81216  10.972   5.435   3.707  2.6837  2.6695 -2.9198
  602MOL0     H81217  11.012   5.552   3.981 -3.0729 -0.5305 -2.1671
  602MOL0     H81218  11.016   5.388   3.927 -0.2512 -0.6445 -5.3977
  602MOL0     H81219  11.227   5.583   3.839  4.0196 -1.3764  0.1256
  602MOL0     H81220  11.211   5.410   3.792 -0.5906 -0.8035  0.1825
  602MOL0     H81221  11.212   5.606   4.127  0.8118  1.0969  0.2857
  602MOL0     H81222  11.515   5.655   4.260 -2.2815  3.2192  1.5671
  602MOL0     H81223  11.352   5.648   4.319 -1.5509 -0.9275  0.7826
  602MOL0     H81224  11.552   5.419   4.381 -1.5866 -2.8323  2.5510
  602MOL0     H81225  11.378   5.426   4.422  0.5109  0.6896  1.1439
  602MOL0     H81226  11.407   5.571   4.586  1.7495 -1.9431  1.7855
  602MOL0     H81227  11.536   5.667   4.515 -2.3505  0.8167 -1.0305
  602MOL0     H81228  11.611   5.392   4.608 -0.3304 -0.5806  0.6029
  602MOL0     H81229  11.623   5.521   4.710 -0.7776  0.3150 -0.7309
  602MOL0     H81230  11.808   5.408   4.765 -3.2831  2.7775  0.1747
  602MOL0     H81231  11.948   5.314   4.917 -0.8627  0.2231  1.3840
  602MOL0     H81232  12.094   5.385   4.979 -0.2690  0.1940  2.7481
  602MOL0     H81233  11.953   5.445   5.037 -1.0712  0.9627 -0.5870
  602MOL0     H81234  12.488   5.552   4.970 -0.0242  0.2145  0.2366
  602MOL0     H81235  12.641   5.659   5.127  0.3222 -0.8831 -0.9661
  602MOL0     H81236  12.525   5.952   5.340 -0.4348 -0.3372  0.5518
  602MOL0     H81237  12.611   5.793   5.328  2.1628 -0.8101 -3.0029
  602MOL0     H81238  12.759   6.050   5.368 -0.2969 -0.3441 -2.4103
  602MOL0     H81239  12.695   5.945   5.506 -3.3707  0.8206 -0.9553
  602MOL0     H81240  12.893   5.825   5.298  1.6371 -0.8141  0.4127
  602MOL0     H81241  12.828   5.754   5.447 -2.5348  1.5623  1.6534
  602MOL0     H81242  12.988   6.019   5.449  2.0763 -1.5953 -3.2600
  602MOL0     H81243  12.951   5.910   5.585  1.9048  1.1579  0.7725
  602MOL0     H81244  13.140   5.848   5.373 -1.3146 -0.6173  0.2792
  602MOL0     H81245  13.100   5.741   5.507  1.3917  0.7025  3.3085
  602MOL0     H81246  13.309   5.916   5.532  1.0661 -1.2607  0.8623
  602MOL0     H81247  13.180   6.029   5.582  1.9950 -0.3851  5.3691
  602MOL0     H81248  13.118   5.891   5.757  0.0827  1.9073 -1.0751
  602MOL0     H81249  13.283   5.937   5.771 -2.5648  3.0227 -0.4024
  602MOL0     H81250  13.222   5.657   5.690  0.1079 -2.9048  3.7134
  602MOL0     H81251  13.305   5.727   5.839  3.9657 -0.3130 -0.9040
  602MOL0     H81252  12.458   6.040   5.048 -0.1365  0.8686 -2.4119
  602MOL0     H81253  12.283   5.924   4.893  1.5153  0.7527 -0.2939
  602MOL0     H81254  12.111   5.774   4.675 -0.7771 -0.5481 -0.5069
  602MOL0     H81255  11.914   5.728   4.513 -2.3070  0.6219 -1.0144
  602MOL0     H81256  10.852   5.837   3.215  0.6499 -0.8073  2.0255
  602MOL0     H81257  10.781   5.781   2.970  1.7238 -0.7728  1.3466
  602MOL0     H81258  10.471   5.781   2.672  1.2922 -0.3583  1.5254
  602MOL0     H81259  10.432   5.797   2.447  1.5247  1.3432  1.9297
  602MOL0     H81260  10.411   5.662   2.134 -1.8641  4.0162  0.0057
  602MOL0     H81261  10.427   5.782   2.263 -2.2969 -1.2044  0.0905
  602MOL0     H81262  10.638   5.855   2.149  2.1188 -3.1374  0.2054
  602MOL0     H81263  10.491   5.892   2.068 -0.1306 -0.1679 -1.2120
  602MOL0     H81264  10.505   5.695   1.923 -0.3550  0.2330  2.1089
  602MOL0     H81265  10.665   5.663   1.995  0.9044  1.3426  3.7959
  602MOL0     H81266  10.724   5.793   1.795  0.2838  0.0100  0.4460
  602MOL0     H81267  10.716   5.927   1.914 -0.9178  2.1333 -0.4333
  602MOL0     H81268  10.380   6.019   1.700  0.2885  2.0880  1.4977
  602MOL0     H81269  10.729   5.473   2.392  3.3501  2.8218  0.9616
  602MOL0     H81270  10.725   5.437   2.617 -0.3262 -0.4745 -0.1102
  603MOL0     O81271   1.685   1.925   5.159 -0.5244  0.9321 -0.2757
  603MOL0     C81272   1.729   1.812   5.174 -0.4970  0.0821  0.6101
  603MOL0     O81273   1.660   1.696   5.152  0.1464 -0.3870 -0.3357
  603MOL0     C81274   1.552   1.708   5.068 -0.8769 -0.3154  0.2106
  603MOL0     C81275   1.552   1.765   4.947 -0.3256 -0.2805  0.1331
  603MOL0     C81276   1.437   1.764   4.856 -0.5239 -0.5201 -0.1635
  603MOL0     C81277   1.326   1.701   4.900  0.3069 -0.1031  0.5194
  603MOL0     O81278   1.214   1.699   4.823  1.0304  0.1493  1.0243
  603MOL0     C81279   1.180   1.566   4.782  1.5625 -0.2777 -0.4859
  603MOL0     C81280   1.051   1.564   4.695  0.4370 -1.1085  0.3650
  603MOL0     C81281   0.924   1.622   4.759 -0.3053  0.2729 -0.0684
  603MOL0     C81282   0.879   1.529   4.875  0.8277 -0.8338  0.4690
  603MOL0     C81283   0.750   1.590   4.949  1.2175  0.4143 -0.3599
  603MOL0     C81284   0.609   1.587   4.871 -0.2688  0.3564 -0.0054
  603MOL0     C81285   0.574   1.441   4.839  0.0082 -0.3084  0.5082
  603MOL0     C81286   0.542   1.430   4.685 -0.1755  0.9814 -0.9973
  603MOL0     N81287   0.420   1.492   4.640 -0.1519  0.1260  0.0930
  603MOL0     C81288   0.293   1.471   4.682  0.7221 -0.6670  0.0116
  603MOL0     C81289   0.220   1.570   4.629  1.1893 -0.2545  0.1133
  603MOL0     C81290   0.070   1.601   4.658  0.0736 -0.7071 -0.6903
  603MOL0     C81291  -0.016   1.611   4.534 -0.5619 -0.1092 -0.5261
  603MOL0     C81292   0.004   1.747   4.476 -1.0973  0.6199 -0.1151
  603MOL0     C81293  -0.094   1.762   4.362 -0.2547 -0.0355 -0.3206
  603MOL0     O81294  -0.032   1.855   4.276 -0.1454 -0.2449 -0.2210
  603MOL0     C81295  -0.103   1.920   4.182 -0.2730 -0.4714 -0.6181
  603MOL0     C81296  -0.029   1.991   4.083 -0.6154  0.2575 -0.5319
  603MOL0     C81297  -0.091   2.060   3.978  0.1002 -0.6463  0.7137
  603MOL0     C81298   0.000   2.106   3.867 -0.0090  0.4759 -0.2306
  603MOL0     C81299  -0.227   2.054   3.956  0.3704 -0.2402 -0.2743
  603MOL0     C81300  -0.307   2.127   3.852 -0.0026  0.2516  0.8065
  603MOL0     O81301  -0.258   2.249   3.816 -0.0335 -0.2861 -0.0788
  603MOL0     C81302  -0.331   2.316   3.714  0.1604 -1.0248  0.1897
  603MOL0     C81303  -0.337   2.255   3.589  0.6079  0.8555  0.8287
  603MOL0     C81304  -0.425   2.299   3.490 -0.8784 -0.7215  0.4594
  603MOL0     C81305  -0.492   2.432   3.502 -1.3795 -0.8844 -0.4235
  603MOL0     O81306  -0.561   2.502   3.410  0.1272 -0.0940  0.0001
  603MOL0     C81307  -0.618   2.421   3.306 -0.8170 -0.1408 -0.0861
  603MOL0     C81308  -0.665   2.525   3.200 -0.2612 -0.1966 -0.7570
  603MOL0     C81309  -0.547   2.580   3.123  0.7154 -0.1268 -0.4938
  603MOL0     C81310  -0.590   2.635   2.984  0.1274  0.1000 -0.7290
  603MOL0     C81311  -0.471   2.661   2.887 -0.7073  0.9200 -0.1212
  603MOL0     C81312  -0.522   2.741   2.770  0.6026 -0.2111  0.1687
  603MOL0     C81313  -0.458   2.724   2.634 -0.8759  0.1379  0.8749
  603MOL0     C81314  -0.524   2.817   2.529 -0.9154  0.1157  0.1599
  603MOL0    Cl81315  -0.664   2.732   2.477 -0.2248 -0.2773 -0.4193
  603MOL0     C81316  -0.472   2.489   3.629  1.1966 -0.3758  0.6394
  603MOL0     C81317  -0.386   2.439   3.726  0.2207  0.1829 -0.1315
  603MOL0     O81318  -0.407   2.080   3.802 -0.7058  0.6829  0.1908
  603MOL0     C81319  -0.301   1.992   4.058  0.8763 -0.2768  0.0424
  603MOL0     C81320  -0.238   1.929   4.169  0.4930  0.3945  0.7460
  603MOL0     N81321   0.306   1.661   4.575 -0.2919 -0.3500 -0.0978
  603MOL0     N81322   0.425   1.613   4.581 -0.6600 -0.4520 -0.6225
  603MOL0     C81323   1.325   1.629   5.020  0.1887  0.1539 -0.2126
  603MOL0     C81324   1.434   1.642   5.103  0.0126  0.2005  0.4870
  603MOL0     C81325   1.863   1.798   5.229  0.4425  0.7700 -0.0847
  603MOL0     C81326   1.935   1.895   5.294 -0.1449 -0.3952 -0.1613
  603MOL0     C81327   2.059   1.875   5.356  0.0242 -0.8293 -0.4885
  603MOL0     C81328   2.117   1.751   5.349  0.3722  0.3109 -0.0863
  603MOL0     O81329   2.237   1.732   5.410  0.5971  0.2435 -0.0982
  603MOL0     C81330   2.340   1.668   5.341 -0.3390 -0.3903  0.3255
  603MOL0     C81331   2.466   1.742   5.376  0.4291 -0.3251 -0.4143
  603MOL0     C81332   2.516   1.716   5.516 -0.0525 -0.1675  0.6180
  603MOL0     C81333   2.668   1.754   5.518  0.3830  1.1892 -0.1210
  603MOL0     C81334   2.762   1.648   5.484  0.2464 -0.6293 -0.3828
  603MOL0     C81335   2.836   1.557   5.457 -0.2416  0.4253  0.1477
  603MOL0     C81336   2.051   1.650   5.281  0.4504 -0.3364 -0.0150
  603MOL0     C81337   1.921   1.675   5.229 -1.2820  0.3741  0.9661
  603MOL0     H81338   1.650   1.793   4.909 -1.1147  1.7948 -0.4727
  603MOL0     H81339   1.448   1.801   4.754  0.7751  1.8882  0.7848
  603MOL0     H81340   1.260   1.531   4.718 -0.3206  0.8615 -3.6733
  603MOL0     H81341   1.161   1.506   4.872  0.6721 -0.9424 -1.0985
  603MOL0     H81342   1.055   1.616   4.599 -2.2439  3.0988  2.1909
  603MOL0     H81343   1.040   1.459   4.667 -1.7899 -0.5985 -0.9480
  603MOL0     H81344   0.934   1.722   4.803  1.0536 -0.2944  0.9838
  603MOL0     H81345   0.845   1.640   4.686 -1.1258  1.2690  1.0276
  603MOL0     H81346   0.858   1.431   4.830  0.9489 -0.9258  0.6147
  603MOL0     H81347   0.955   1.522   4.953 -0.5319 -0.8204  1.8306
  603MOL0     H81348   0.731   1.518   5.029  0.5664  0.1578 -0.7297
  603MOL0     H81349   0.760   1.695   4.978 -2.0295  0.4723  0.9892
  603MOL0     H81350   0.534   1.640   4.929 -1.1796 -1.9270  1.0255
  603MOL0     H81351   0.629   1.647   4.782 -4.5767 -1.7922 -2.7680
  603MOL0     H81352   0.653   1.372   4.871  0.2922 -0.1957  0.0654
  603MOL0     H81353   0.491   1.414   4.905 -0.5414 -1.6402 -0.6854
  603MOL0     H81354   0.525   1.322   4.680 -1.8403  0.9668  2.4480
  603MOL0     H81355   0.626   1.456   4.620 -0.9418 -0.0002 -2.4535
  603MOL0     H81356   0.242   1.396   4.742  2.1893 -2.5555 -0.9910
  603MOL0     H81357   0.030   1.522   4.721 -0.5822 -3.0914 -3.8628
  603MOL0     H81358   0.064   1.688   4.724  3.8592 -0.2429 -0.7287
  603MOL0     H81359  -0.120   1.600   4.568 -0.3253  2.7029  1.5278
  603MOL0     H81360  -0.000   1.537   4.456  0.6368  1.9656 -2.3845
  603MOL0     H81361   0.108   1.764   4.448 -0.6978  0.9025  1.4556
  603MOL0     H81362  -0.013   1.834   4.540  0.7391  1.4802 -0.7166
  603MOL0     H81363  -0.193   1.796   4.393 -0.1089  0.9336 -0.8631
  603MOL0     H81364  -0.117   1.666   4.313  3.0178 -0.6517 -0.8687
  603MOL0     H81365   0.080   1.992   4.083 -0.4543 -0.6046  3.1228
  603MOL0     H81366   0.104   2.078   3.890  0.4367  1.8549 -0.4139
  603MOL0     H81367  -0.027   2.057   3.774 -1.8160 -0.3445  0.6857
  603MOL0     H81368  -0.011   2.215   3.861  0.4282  0.5153 -0.3864
  603MOL0     H81369  -0.295   2.156   3.575 -0.4798 -0.2721  4.5222
  603MOL0     H81370  -0.438   2.257   3.391 -0.1080 -1.1994  0.5550
  603MOL0     H81371  -0.540   2.363   3.256  1.0772  1.9895  0.2646
  603MOL0     H81372  -0.703   2.358   3.331 -1.6346  0.8000 -0.4182
  603MOL0     H81373  -0.738   2.484   3.130 -2.3604  0.7779  0.7649
  603MOL0     H81374  -0.703   2.608   3.259 -2.2890 -1.3478 -0.3557
  603MOL0     H81375  -0.461   2.512   3.117 -0.4146 -1.7129  0.5558
  603MOL0     H81376  -0.512   2.665   3.182  1.3255  0.8052 -2.1177
  603MOL0     H81377  -0.672   2.585   2.933  1.0654 -2.4068  0.0677
  603MOL0     H81378  -0.626   2.735   3.012 -2.3104 -0.6554 -0.9639
  603MOL0     H81379  -0.438   2.563   2.849  0.4982  0.4391  2.0162
  603MOL0     H81380  -0.383   2.707   2.933 -0.4534  0.8547 -0.5403
  603MOL0     H81381  -0.627   2.721   2.747  0.8534 -0.7407 -0.5452
  603MOL0     H81382  -0.516   2.844   2.805  1.9461 -0.7530  1.6536
  603MOL0     H81383  -0.474   2.622   2.598  0.0110 -0.3553  1.8231
  603MOL0     H81384  -0.349   2.734   2.640 -0.6087 -1.9711  0.2835
  603MOL0     H81385  -0.460   2.845   2.445 -0.7358  1.6249  0.7726
  603MOL0     H81386  -0.541   2.912   2.579 -2.1887 -0.6041  1.1705
  603MOL0     H81387  -0.512   2.589   3.644  1.5910 -0.3073  1.3155
  603MOL0     H81388  -0.371   2.496   3.817 -0.9754  0.8023 -0.2926
  603MOL0     H81389  -0.409   2.008   4.051  0.9935 -0.1995 -2.6147
  603MOL0     H81390  -0.313   1.890   4.236 -2.5070 -0.8909 -3.0193
  603MOL0     H81391   1.235   1.575   5.047 -0.5385  0.6959 -1.4577
  603MOL0     H81392   1.434   1.581   5.193  0.3903 -1.0860 -0.3580
  603MOL0     H81393   1.877   1.987   5.296 -0.0559 -0.3507  0.7684
  603MOL0     H81394   2.123   1.944   5.410  0.7121 -0.0486 -2.2306
  603MOL0     H81395   2.341   1.567   5.384 -0.9973 -0.0548  1.1324
  603MOL0     H81396   2.328   1.661   5.232 -0.9459  1.3155  0.2480
  603MOL0     H81397   2.463   1.852   5.371  0.1008 -0.3047  0.0794
  603MOL0     H81398   2.547   1.713   5.309  2.0449 -2.7962  2.3436
  603MOL0     H81399   2.514   1.609   5.536  0.1695 -0.5165 -1.0274
  603MOL0     H81400   2.466   1.774   5.594 -0.9930  0.2117 -0.2323
  603MOL0     H81401   2.695   1.785   5.619  3.3649  4.0317 -1.6054
  603MOL0     H81402   2.678   1.838   5.449 -1.7573  1.7158  0.1322
  603MOL0     H81403   2.899   1.473   5.434 -0.5403  0.5808 -1.3563
  603MOL0     H81404   2.094   1.551   5.264 -1.7444 -0.9081 -3.0989
  603MOL0     H81405   1.870   1.583   5.199 -3.4053  1.9923 -0.7030
  604MOL0     O81406   2.673   7.428   9.443 -0.2045  0.3718  0.6118
  604MOL0     C81407   2.588   7.446   9.527 -0.1458  0.4091 -0.1579
  604MOL0     O81408   2.564   7.562   9.595  0.2664  0.8011  0.3060
  604MOL0     C81409   2.611   7.677   9.537  1.0012  0.2132 -0.1842
  604MOL0     C81410   2.676   7.772   9.624  0.2433 -0.9989  0.3844
  604MOL0     C81411   2.725   7.885   9.566 -0.8153 -0.5024  0.3332
  604MOL0     C81412   2.726   7.913   9.430  0.2838 -0.7082 -0.0584
  604MOL0     O81413   2.789   8.035   9.401 -0.0057  0.7764 -0.1437
  604MOL0     C81414   2.732   8.132   9.312  0.6581 -0.8357  0.7787
  604MOL0     C81415   2.607   8.200   9.372 -0.3634 -0.4862  0.7002
  604MOL0     C81416   2.617   8.238   9.517 -0.5646 -0.0383 -0.2212
  604MOL0     C81417   2.492   8.318   9.549 -0.3889  0.2219  0.2180
  604MOL0     C81418   2.511   8.359   9.699  0.5406  0.6802 -0.6789
  604MOL0     C81419   2.367   8.399   9.753 -0.6463  0.3231  0.2260
  604MOL0     C81420   2.381   8.465   9.891  0.3166 -0.1978  0.9358
  604MOL0     C81421   2.244   8.516   9.942  0.4569 -0.4846  0.7313
  604MOL0     N81422   2.259   8.571  10.069 -0.8986 -0.0390 -0.7098
  604MOL0     C81423   2.326   8.691  10.104 -0.1181  0.1515 -0.1375
  604MOL0     C81424   2.347   8.681  10.238  0.7647 -0.2123  0.6399
  604MOL0     C81425   2.428   8.790  10.312  0.5758  0.3823 -1.0021
  604MOL0     C81426   2.572   8.750  10.300  0.1195  0.1938 -0.7332
  604MOL0     C81427   2.659   8.867  10.347 -0.2897  0.4692 -0.2282
  604MOL0     C81428   2.799   8.836  10.312 -0.8537  0.6418 -0.7013
  604MOL0     O81429   2.880   8.954  10.324  0.1548 -0.9903  0.0271
  604MOL0     C81430   3.012   8.936  10.304  0.2339  0.9176  0.7456
  604MOL0     C81431   3.071   8.810  10.272  0.0972 -0.8268 -0.0305
  604MOL0     C81432   3.216   8.799  10.264 -1.1446  0.1627 -0.4162
  604MOL0     C81433   3.281   8.664  10.234 -0.0019  0.1730  1.0596
  604MOL0     C81434   3.298   8.907  10.302  0.0266 -0.6447 -0.0580
  604MOL0     C81435   3.450   8.902  10.309  1.0219  0.3239  0.1232
  604MOL0     O81436   3.515   9.026  10.328 -1.0813 -0.1454 -0.4034
  604MOL0     C81437   3.650   9.044  10.311 -0.7331 -0.2199  0.7311
  604MOL0     C81438   3.720   9.134  10.390  0.5016 -0.6895  0.3646
  604MOL0     C81439   3.846   9.176  10.367  0.7860  0.5918  0.1997
  604MOL0     C81440   3.912   9.137  10.249  0.3972  0.7075  0.2330
  604MOL0     O81441   4.023   9.198  10.207 -0.2470 -0.1224  0.2715
  604MOL0     C81442   4.096   9.259  10.310 -0.1773  0.4417  0.7946
  604MOL0     C81443   4.235   9.314  10.274 -0.3075  0.3481  0.3396
  604MOL0     C81444   4.350   9.206  10.253  0.7547 -0.1517 -0.0457
  604MOL0     C81445   4.325   9.118  10.141  1.1942 -0.9605  0.0878
  604MOL0     C81446   4.438   9.028  10.093  0.1812 -0.5943 -0.3421
  604MOL0     C81447   4.505   8.938  10.195 -1.1146  0.3049 -0.3260
  604MOL0     C81448   4.646   8.979  10.239  1.5685 -0.1467 -0.2443
  604MOL0     C81449   4.736   8.861  10.295 -0.3067 -0.7288  0.8486
  604MOL0    Cl81450   4.657   8.759  10.426 -0.2413  0.3414 -0.2467
  604MOL0     C81451   3.852   9.046  10.156  0.0735  0.3317 -0.3042
  604MOL0     C81452   3.714   9.006  10.183 -0.3485 -0.2109 -0.2121
  604MOL0     O81453   3.511   8.793  10.313 -0.5800 -0.7593  0.4543
  604MOL0     C81454   3.233   9.028  10.345 -1.5554 -0.4281  0.1727
  604MOL0     C81455   3.097   9.032  10.351 -0.4643 -0.2881  0.9412
  604MOL0     N81456   2.295   8.560  10.279 -0.2500  0.6129 -0.8667
  604MOL0     N81457   2.251   8.491  10.179  0.2572  0.2846  0.4392
  604MOL0     C81458   2.673   7.818   9.344  0.4323  0.6062 -0.0231
  604MOL0     C81459   2.606   7.702   9.393  0.2830  0.6365 -1.0917
  604MOL0     C81460   2.499   7.335   9.565 -0.9200 -0.5372  0.1292
  604MOL0     C81461   2.503   7.213   9.503  0.1880 -0.4744  0.2045
  604MOL0     C81462   2.443   7.102   9.564  0.3081  0.4884  0.5799
  604MOL0     C81463   2.374   7.101   9.686 -0.3837  0.2632 -0.9571
  604MOL0     O81464   2.309   6.990   9.744 -0.3408 -0.1179  0.3673
  604MOL0     C81465   2.285   6.866   9.677 -0.2700  0.0138 -0.1806
  604MOL0     C81466   2.408   6.782   9.685 -0.3408 -0.8153  0.6006
  604MOL0     C81467   2.434   6.738   9.831 -0.7019  0.2158  0.3302
  604MOL0     C81468   2.350   6.624   9.892  0.8045 -0.3152 -0.9504
  604MOL0     C81469   2.421   6.592  10.023  0.2098 -0.7329  0.4578
  604MOL0     C81470   2.481   6.582  10.130  0.8470  0.4471 -0.5169
  604MOL0     C81471   2.356   7.234   9.737  1.2393  1.0119  0.2665
  604MOL0     C81472   2.417   7.351   9.672  0.8617  0.0722 -0.6530
  604MOL0     H81473   2.680   7.753   9.730 -1.7991  1.2413  0.9387
  604MOL0     H81474   2.758   7.963   9.634 -2.1624  0.0208  0.4282
  604MOL0     H81475   2.818   8.195   9.289 -0.8785  0.8245 -0.8898
  604MOL0     H81476   2.711   8.065   9.228  1.5908 -1.1806  0.8143
  604MOL0     H81477   2.588   8.293   9.318  0.6808 -1.7870 -2.0975
  604MOL0     H81478   2.518   8.138   9.358 -0.1046 -0.5523 -0.8254
  604MOL0     H81479   2.617   8.147   9.578 -3.8307  0.3620  0.5383
  604MOL0     H81480   2.704   8.304   9.517 -0.1284 -0.4619 -3.0827
  604MOL0     H81481   2.484   8.411   9.492 -0.0384  0.3046  0.2979
  604MOL0     H81482   2.409   8.249   9.532 -0.1931 -0.3523  1.5127
  604MOL0     H81483   2.545   8.271   9.754 -0.2110 -2.1058 -4.2661
  604MOL0     H81484   2.588   8.434   9.717 -0.3872  0.8933  3.2085
  604MOL0     H81485   2.322   8.462   9.676 -1.7929 -2.6113 -1.6848
  604MOL0     H81486   2.299   8.314   9.746  1.4665 -1.2716 -3.2336
  604MOL0     H81487   2.437   8.399   9.958  0.6500 -0.4604  0.4024
  604MOL0     H81488   2.448   8.548   9.870  2.2351 -1.1350  2.9443
  604MOL0     H81489   2.186   8.423   9.935 -0.1532 -0.2531  2.3307
  604MOL0     H81490   2.191   8.580   9.871 -1.1085 -2.4019  0.0573
  604MOL0     H81491   2.367   8.765  10.036  0.2681  0.6182  0.5927
  604MOL0     H81492   2.414   8.889  10.268  4.2884  1.0303 -1.0743
  604MOL0     H81493   2.406   8.800  10.418  3.2485  1.2485 -0.4620
  604MOL0     H81494   2.579   8.723  10.194  1.6092 -2.5923 -0.0299
  604MOL0     H81495   2.586   8.652  10.347 -4.2729 -0.4189 -0.2253
  604MOL0     H81496   2.654   8.886  10.454 -2.6390 -0.1892 -0.1730
  604MOL0     H81497   2.634   8.961  10.297 -2.6623  0.8804  1.5915
  604MOL0     H81498   2.805   8.795  10.211 -0.0802  1.0049 -0.8111
  604MOL0     H81499   2.817   8.757  10.386 -5.1622 -1.0118 -1.1446
  604MOL0     H81500   3.014   8.718  10.279 -1.2082 -0.0101  0.4403
  604MOL0     H81501   3.351   8.673  10.150  1.2603 -1.1487  1.9193
  604MOL0     H81502   3.346   8.624  10.312 -1.8537  0.0816  2.6108
  604MOL0     H81503   3.203   8.595  10.202  1.5841 -0.7879 -0.9698
  604MOL0     H81504   3.671   9.164  10.482 -0.4108  1.7754 -0.8386
  604MOL0     H81505   3.871   9.260  10.432  0.3626  1.4446 -0.7082
  604MOL0     H81506   4.038   9.344  10.347 -0.5834  1.9964 -2.9495
  604MOL0     H81507   4.120   9.178  10.379 -0.4809 -2.1615 -1.9408
  604MOL0     H81508   4.219   9.363  10.177 -2.3917 -3.2730 -1.3554
  604MOL0     H81509   4.266   9.376  10.359 -3.3078 -1.3170  2.8799
  604MOL0     H81510   4.354   9.140  10.340 -2.5285 -2.0120 -1.1178
  604MOL0     H81511   4.446   9.258  10.248  2.2148 -2.7551 -0.5783
  604MOL0     H81512   4.252   9.041  10.168 -0.1779 -0.4514 -1.9088
  604MOL0     H81513   4.299   9.188  10.061 -0.5776 -0.2166  1.2562
  604MOL0     H81514   4.519   9.092  10.056 -0.3442  1.0635  1.2121
  604MOL0     H81515   4.399   8.963  10.014 -0.5760  0.4502 -0.8407
  604MOL0     H81516   4.437   8.912  10.276 -1.8763  0.0666 -1.0253
  604MOL0     H81517   4.530   8.847  10.141  3.4292 -0.8069  3.0439
  604MOL0     H81518   4.628   9.048  10.322 -0.5027 -1.9843  0.9338
  604MOL0     H81519   4.695   9.031  10.156 -0.0115  1.6475 -0.1462
  604MOL0     H81520   4.834   8.900  10.323 -1.8394  2.6033  2.0635
  604MOL0     H81521   4.749   8.788  10.214  1.2736  0.6469 -0.1992
  604MOL0     H81522   3.903   9.022  10.064 -0.7778 -2.7004 -0.1160
  604MOL0     H81523   3.662   8.934  10.121 -2.7603 -0.4907  1.9504
  604MOL0     H81524   3.288   9.115  10.381  1.4366 -1.8352 -0.6851
  604MOL0     H81525   3.050   9.125  10.382 -1.8233 -0.9856  1.0421
  604MOL0     H81526   2.684   7.827   9.236  0.8051  1.2446  0.0614
  604MOL0     H81527   2.541   7.632   9.343 -2.2708  1.3774  0.9392
  604MOL0     H81528   2.556   7.207   9.409  4.8725  3.4560  2.1448
  604MOL0     H81529   2.461   7.007   9.515  0.8563  0.3839  0.9757
  604MOL0     H81530   2.204   6.808   9.723  2.3049 -3.0452  0.8694
  604MOL0     H81531   2.255   6.894   9.576  0.4151 -0.3199 -0.4769
  604MOL0     H81532   2.483   6.855   9.651 -0.2664 -0.1650  2.0670
  604MOL0     H81533   2.416   6.695   9.619  3.0998  0.1186 -0.4221
  604MOL0     H81534   2.427   6.822   9.901 -1.5921 -0.9520  1.6896
  604MOL0     H81535   2.536   6.698   9.834 -1.1558 -0.9140  2.3367
  604MOL0     H81536   2.338   6.543   9.820  0.8574  1.0064 -2.4963
  604MOL0     H81537   2.248   6.651   9.921  0.7842 -1.1565 -0.2032
  604MOL0     H81538   2.548   6.559  10.211  3.0950 -0.5238 -2.5163
  604MOL0     H81539   2.299   7.236   9.829 -1.0684 -0.3411 -1.0345
  604MOL0     H81540   2.421   7.444   9.728 -0.5458  0.4199 -1.0977
  605MOL0     O81541   7.297  11.073   8.376 -0.6835 -0.5537  0.4240
  605MOL0     C81542   7.341  11.110   8.273 -0.9817 -0.6321 -0.2066
  605MOL0     O81543   7.334  11.043   8.151  0.2017  0.2473 -0.1366
  605MOL0     C81544   7.269  10.923   8.140 -0.0348 -0.1108 -1.0947
  605MOL0     C81545   7.329  10.820   8.071  0.5647  0.5741 -0.5492
  605MOL0     C81546   7.270  10.699   8.050  0.1530  0.1665 -0.3206
  605MOL0     C81547   7.150  10.665   8.106 -0.4715  0.1096 -0.4018
  605MOL0     O81548   7.079  10.560   8.053 -0.2657 -0.2770 -0.1318
  605MOL0     C81549   6.995  10.476   8.137 -0.5894  0.5522  0.4641
  605MOL0     C81550   6.889  10.409   8.047  0.0634  0.4326 -0.6939
  605MOL0     C81551   6.800  10.298   8.118  0.3114 -0.3099  0.3761
  605MOL0     C81552   6.667  10.271   8.036  0.3220  0.0333  0.1634
  605MOL0     C81553   6.592  10.160   8.115 -0.5491  0.0762  0.5300
  605MOL0     C81554   6.663  10.020   8.083 -0.5748  0.1762 -0.4246
  605MOL0     C81555   6.561   9.909   8.128 -0.2365 -0.8038 -0.1588
  605MOL0     C81556   6.635   9.778   8.116  0.4897  0.5956 -0.3722
  605MOL0     N81557   6.733   9.754   8.221  0.3704 -0.0539  0.9809
  605MOL0     C81558   6.855   9.687   8.214 -0.4035  0.7408  0.0027
  605MOL0     C81559   6.884   9.673   8.347  0.7938  1.0843  0.4029
  605MOL0     C81560   7.002   9.614   8.410 -0.8372  0.3088  0.3965
  605MOL0     C81561   7.062   9.505   8.323 -0.3717  0.5773  0.3430
  605MOL0     C81562   7.193   9.460   8.404 -0.2432  0.2219  0.6316
  605MOL0     C81563   7.276   9.355   8.324 -0.5756 -0.1772 -0.7354
  605MOL0     O81564   7.406   9.349   8.379 -0.6022 -0.0167  0.2820
  605MOL0     C81565   7.441   9.269   8.483  0.9797 -0.0721 -0.3177
  605MOL0     C81566   7.554   9.294   8.546 -0.6522  0.1950 -0.6717
  605MOL0     C81567   7.590   9.223   8.665  0.7221  0.1852  0.7362
  605MOL0     C81568   7.729   9.265   8.715  0.2924 -0.3510 -0.4066
  605MOL0     C81569   7.502   9.126   8.716  0.1346  0.1067 -0.1703
  605MOL0     C81570   7.532   9.041   8.832  0.5618 -0.6074  0.1702
  605MOL0     O81571   7.429   8.965   8.869 -0.3816  0.1844 -0.1498
  605MOL0     C81572   7.467   8.845   8.924 -1.2316  0.2500 -0.1801
  605MOL0     C81573   7.416   8.799   9.056  0.8903  0.3582  0.6037
  605MOL0     C81574   7.463   8.684   9.103 -0.2917  0.7516 -0.2999
  605MOL0     C81575   7.552   8.611   9.029  0.3392  0.4106 -0.5411
  605MOL0     O81576   7.583   8.486   9.072  0.4085  0.3868 -0.3179
  605MOL0     C81577   7.643   8.475   9.204 -0.2288 -0.1423  0.1016
  605MOL0     C81578   7.803   8.459   9.182  0.3812  0.3939  0.1760
  605MOL0     C81579   7.879   8.449   9.321  0.0782 -0.0010 -0.0781
  605MOL0     C81580   8.026   8.431   9.283 -0.0156  0.9021 -0.2120
  605MOL0     C81581   8.096   8.403   9.420  1.5810  0.2553 -0.0813
  605MOL0     C81582   8.248   8.394   9.416 -0.0058  0.9208  0.4028
  605MOL0     C81583   8.305   8.359   9.556 -0.4698 -0.7031 -0.5339
  605MOL0     C81584   8.454   8.374   9.534 -0.7887  0.4805  0.1858
  605MOL0    Cl81585   8.518   8.525   9.481 -0.0739 -0.4105  0.3759
  605MOL0     C81586   7.587   8.642   8.895 -0.7877  0.1437 -0.4160
  605MOL0     C81587   7.551   8.757   8.847  0.4057  0.2763 -0.7787
  605MOL0     O81588   7.641   9.038   8.890 -0.3260 -0.9678  0.2162
  605MOL0     C81589   7.378   9.096   8.646 -0.4622 -0.0174  0.3417
  605MOL0     C81590   7.351   9.171   8.536 -0.3865  0.1474  0.2471
  605MOL0     N81591   6.784   9.735   8.427 -1.3590  0.2583  0.2638
  605MOL0     N81592   6.700   9.781   8.351 -0.2888  0.6542  1.0913
  605MOL0     C81593   7.092  10.758   8.189  0.5472 -0.3217  0.2614
  605MOL0     C81594   7.149  10.890   8.203 -0.0907  0.8909 -0.4269
  605MOL0     C81595   7.417  11.231   8.281 -0.8360 -0.9438 -0.1408
  605MOL0     C81596   7.482  11.262   8.402  0.7066  0.2549  0.3236
  605MOL0     C81597   7.554  11.385   8.404  0.1946  0.1370 -0.3167
  605MOL0     C81598   7.567  11.466   8.292 -0.1628  0.4565 -0.0303
  605MOL0     O81599   7.643  11.576   8.297  0.7299  0.2948  0.8702
  605MOL0     C81600   7.713  11.617   8.414 -0.1506  0.1739 -0.3349
  605MOL0     C81601   7.785  11.748   8.392 -0.3911  0.3756  0.5114
  605MOL0     C81602   7.906  11.730   8.295 -0.4656  0.5792  0.5975
  605MOL0     C81603   8.030  11.669   8.346 -0.9698 -0.4603  0.3982
  605MOL0     C81604   8.124  11.647   8.230 -0.0736 -0.1949 -0.1361
  605MOL0     C81605   8.196  11.629   8.133 -0.4172  0.5673 -0.6254
  605MOL0     C81606   7.507  11.430   8.168 -0.6409  0.1838  0.2975
  605MOL0     C81607   7.443  11.310   8.165  0.3371 -0.3697  0.0390
  605MOL0     H81608   7.426  10.841   8.026  1.0620  4.0989  1.7666
  605MOL0     H81609   7.309  10.631   7.976 -1.0778  1.8383 -2.6402
  605MOL0     H81610   7.053  10.410   8.202  3.9152  3.3404 -0.3498
  605MOL0     H81611   6.938  10.544   8.201 -0.6835  0.4111  0.5327
  605MOL0     H81612   6.828  10.493   8.013 -1.6180 -0.5514 -0.1788
  605MOL0     H81613   6.943  10.372   7.960  3.2788 -0.4987  1.4740
  605MOL0     H81614   6.856  10.204   8.122 -1.8491 -1.7283 -0.6965
  605MOL0     H81615   6.772  10.333   8.217 -1.9524  1.9283 -0.9306
  605MOL0     H81616   6.599  10.356   8.045  1.0983  0.7479 -0.5137
  605MOL0     H81617   6.681  10.239   7.932 -1.7946  1.9063 -0.7830
  605MOL0     H81618   6.615  10.171   8.221  3.0601  1.2098 -0.2637
  605MOL0     H81619   6.484  10.169   8.100 -0.7167  0.2223  1.6916
  605MOL0     H81620   6.690  10.011   7.978  0.3431  0.2625 -0.2039
  605MOL0     H81621   6.750  10.006   8.148 -1.7524 -0.6947  1.0280
  605MOL0     H81622   6.527   9.923   8.231 -0.1421 -0.5098 -0.1670
  605MOL0     H81623   6.473   9.904   8.063 -2.4587 -1.0116  2.6732
  605MOL0     H81624   6.690   9.767   8.022 -0.4414 -3.3056 -0.6291
  605MOL0     H81625   6.558   9.701   8.123 -2.0493  2.9703 -0.3039
  605MOL0     H81626   6.920   9.667   8.130 -0.0045 -1.0047  0.6877
  605MOL0     H81627   7.079   9.690   8.427  2.3066 -1.9390 -2.6733
  605MOL0     H81628   6.984   9.570   8.509  0.7482 -4.2294 -1.0932
  605MOL0     H81629   7.089   9.537   8.222  2.5832  0.3689  0.9756
  605MOL0     H81630   6.989   9.427   8.300 -0.1012  0.5219 -0.3329
  605MOL0     H81631   7.157   9.406   8.492 -0.5442  2.6854  2.0884
  605MOL0     H81632   7.248   9.545   8.446 -2.7151  0.2353  4.2634
  605MOL0     H81633   7.283   9.392   8.222 -0.9016  4.8893  0.8283
  605MOL0     H81634   7.227   9.257   8.322 -1.0662  0.0731 -2.1088
  605MOL0     H81635   7.627   9.354   8.492 -0.6542 -1.2282 -2.3568
  605MOL0     H81636   7.708   9.328   8.802 -1.1585 -0.5746 -0.5717
  605MOL0     H81637   7.795   9.184   8.746  2.1047  1.6657  1.3755
  605MOL0     H81638   7.789   9.323   8.644  1.2917  3.5435  3.2189
  605MOL0     H81639   7.353   8.869   9.109 -1.3763  0.2524 -1.7491
  605MOL0     H81640   7.436   8.645   9.200 -1.1272 -1.8044 -1.4738
  605MOL0     H81641   7.631   8.571   9.255  2.3288  1.8684 -2.6888
  605MOL0     H81642   7.586   8.399   9.258  0.4546  0.7553  2.1879
  605MOL0     H81643   7.836   8.378   9.116  2.9619  2.1958 -0.9197
  605MOL0     H81644   7.835   8.549   9.129 -1.0231  0.7247 -0.1257
  605MOL0     H81645   7.843   8.359   9.372 -1.4918 -0.2328 -1.5431
  605MOL0     H81646   7.870   8.536   9.388  3.9855  0.3911  0.2181
  605MOL0     H81647   8.042   8.348   9.214 -0.9462 -0.1618  0.8144
  605MOL0     H81648   8.063   8.525   9.242  0.7767  2.1356  3.0038
  605MOL0     H81649   8.054   8.313   9.465  4.4789 -0.2850  1.8524
  605MOL0     H81650   8.066   8.489   9.480 -3.3262 -0.2665 -1.3896
  605MOL0     H81651   8.283   8.335   9.331 -1.3735  1.1417 -0.3508
  605MOL0     H81652   8.289   8.492   9.389  1.1999  0.3061 -0.0965
  605MOL0     H81653   8.277   8.260   9.592  3.0043 -2.3408 -1.8676
  605MOL0     H81654   8.279   8.436   9.630 -0.9085 -1.2729 -0.0850
  605MOL0     H81655   8.476   8.290   9.467 -3.3663 -2.1065  2.3407
  605MOL0     H81656   8.493   8.347   9.632  1.7888 -3.2411 -1.6360
  605MOL0     H81657   7.653   8.577   8.839 -0.1118  1.4799 -1.2511
  605MOL0     H81658   7.568   8.800   8.749 -1.9448  0.1310 -1.2986
  605MOL0     H81659   7.302   9.024   8.675 -1.9590  2.1213  2.0972
  605MOL0     H81660   7.246   9.149   8.515 -0.1822  1.4000 -2.5184
  605MOL0     H81661   7.004  10.724   8.242  0.2126 -0.9332 -0.6557
  605MOL0     H81662   7.093  10.953   8.271  0.5786  0.6542  0.3592
  605MOL0     H81663   7.482  11.208   8.496  0.3550 -0.0151  0.1722
  605MOL0     H81664   7.598  11.408   8.501  4.0475 -2.8230 -1.1365
  605MOL0     H81665   7.641  11.634   8.494  0.3088 -0.6386  0.2749
  605MOL0     H81666   7.784  11.541   8.450 -2.6239 -1.3519  1.6805
  605MOL0     H81667   7.816  11.784   8.491  0.5219  0.7610  0.0915
  605MOL0     H81668   7.724  11.834   8.363 -1.3738 -1.6861 -4.5826
  605MOL0     H81669   7.939  11.821   8.243  1.2681 -0.4694 -0.2295
  605MOL0     H81670   7.871  11.669   8.211 -1.3098 -0.3374  1.6068
  605MOL0     H81671   8.010  11.582   8.410 -2.3587  0.9635  1.9793
  605MOL0     H81672   8.080  11.744   8.408  2.0388  0.3381 -2.6498
  605MOL0     H81673   8.269  11.617   8.056  1.1854  0.7050  0.8296
  605MOL0     H81674   7.524  11.497   8.085 -0.1814  1.1133  1.1265
  605MOL0     H81675   7.387  11.289   8.075 -1.4050 -1.3285  1.2801
  606MOL0     O81676   9.876   3.378   6.540  0.0331  0.1160 -0.5667
  606MOL0     C81677   9.956   3.316   6.615  0.0059 -0.5194  0.0982
  606MOL0     O81678   9.939   3.181   6.661  0.1956  0.2779 -0.2022
  606MOL0     C81679   9.822   3.121   6.646  0.8311 -1.1203  0.6896
  606MOL0     C81680   9.817   2.989   6.597  0.3545 -0.2418  0.6467
  606MOL0     C81681   9.692   2.925   6.599 -0.2453  0.0297  0.2232
  606MOL0     C81682   9.575   2.989   6.647 -0.4885 -0.3297 -0.3861
  606MOL0     O81683   9.450   2.937   6.665 -0.4227  0.3954  0.4734
  606MOL0     C81684   9.446   2.791   6.637 -0.9298  0.1466  0.0290
  606MOL0     C81685   9.302   2.751   6.661  0.8257  0.2705  0.1363
  606MOL0     C81686   9.252   2.778   6.803  0.1063 -0.1431 -0.0940
  606MOL0     C81687   9.123   2.721   6.836 -0.0071 -1.0622  0.4589
  606MOL0     C81688   9.075   2.766   6.977 -0.4144 -0.3320 -0.5886
  606MOL0     C81689   8.967   2.670   7.022 -0.2136 -0.4833 -0.3512
  606MOL0     C81690   8.921   2.662   7.169  0.4745 -0.4864  0.0576
  606MOL0     C81691   8.791   2.583   7.194  0.0749 -0.0092  0.3175
  606MOL0     N81692   8.832   2.449   7.243 -0.5159  0.8168 -0.1751
  606MOL0     C81693   8.908   2.417   7.359 -0.0553  0.9252  0.7284
  606MOL0     C81694   8.889   2.284   7.372 -0.0415 -0.9198  0.1818
  606MOL0     C81695   8.947   2.194   7.478  0.2880  1.0733 -1.0547
  606MOL0     C81696   8.964   2.260   7.623  0.2625  0.5369  0.2333
  606MOL0     C81697   8.822   2.311   7.665 -0.1290  0.4251 -0.2929
  606MOL0     C81698   8.802   2.399   7.789 -0.4706  0.7989  0.9210
  606MOL0     O81699   8.827   2.530   7.740 -0.9050  0.0633  0.6666
  606MOL0     C81700   8.728   2.623   7.740 -0.0795  0.6790 -0.3641
  606MOL0     C81701   8.727   2.713   7.627 -0.1159  0.3312 -0.7473
  606MOL0     C81702   8.630   2.806   7.616  0.4651 -0.2654  1.2373
  606MOL0     C81703   8.641   2.883   7.485 -0.0936 -0.0478 -0.4862
  606MOL0     C81704   8.518   2.821   7.699  0.4648 -0.1605  0.4616
  606MOL0     C81705   8.429   2.931   7.689  0.2621  0.4072 -0.1208
  606MOL0     O81706   8.297   2.896   7.722 -0.4494  0.0789  0.0611
  606MOL0     C81707   8.186   2.982   7.733  0.1453 -0.9086 -0.1466
  606MOL0     C81708   8.085   2.931   7.815 -0.4055 -0.1045  0.3562
  606MOL0     C81709   7.973   3.011   7.841 -0.8059 -0.5545 -0.6340
  606MOL0     C81710   7.960   3.137   7.783 -0.0517 -0.0015  0.0892
  606MOL0     O81711   7.841   3.196   7.816  0.0251 -0.3516 -0.3749
  606MOL0     C81712   7.803   3.319   7.782 -0.0404  0.0710 -0.0014
  606MOL0     C81713   7.695   3.379   7.872  0.1005 -0.2580  1.2134
  606MOL0     C81714   7.566   3.290   7.874 -0.3001  0.4550  0.4477
  606MOL0     C81715   7.461   3.319   7.982  0.5477 -0.1679 -0.8515
  606MOL0     C81716   7.339   3.220   7.981 -0.3568  0.2479  0.0085
  606MOL0     C81717   7.285   3.176   7.844  0.5322  0.1369  0.0562
  606MOL0     C81718   7.219   3.305   7.779  0.1595 -1.1448 -0.9340
  606MOL0     C81719   7.106   3.278   7.690 -1.4534  0.5622 -0.4173
  606MOL0    Cl81720   7.146   3.172   7.544  0.2997  0.2473 -0.3051
  606MOL0     C81721   8.056   3.189   7.698  0.9368  0.2583  1.3234
  606MOL0     C81722   8.172   3.110   7.680  0.7148 -0.0611  0.4671
  606MOL0     O81723   8.466   3.046   7.663 -0.1507 -0.6682 -0.4585
  606MOL0     C81724   8.527   2.737   7.811 -0.2551  0.1530 -0.1439
  606MOL0     C81725   8.627   2.639   7.832 -0.8106 -0.5726 -0.5602
  606MOL0     N81726   8.816   2.233   7.269  0.2238  0.1048  0.0704
  606MOL0     N81727   8.790   2.331   7.190  0.1480 -0.3562  0.5840
  606MOL0     C81728   9.580   3.118   6.680 -0.2606 -0.2521  0.1584
  606MOL0     C81729   9.704   3.185   6.681  0.5439 -0.7365 -0.1663
  606MOL0     C81730  10.090   3.388   6.642 -0.6053  0.1975  0.6272
  606MOL0     C81731  10.135   3.492   6.561 -0.1787 -0.4598  0.8130
  606MOL0     C81732  10.263   3.553   6.570  0.5772  0.6440  0.0902
  606MOL0     C81733  10.348   3.516   6.671 -0.5835 -0.4868 -0.2295
  606MOL0     O81734  10.464   3.581   6.701 -0.1848 -0.1463  0.7791
  606MOL0     C81735  10.560   3.523   6.792 -0.4701  0.8660  0.8844
  606MOL0     C81736  10.688   3.599   6.811 -0.4681 -0.0343  0.2478
  606MOL0     C81737  10.658   3.712   6.915  0.1014  0.0428 -0.1372
  606MOL0     C81738  10.773   3.812   6.939  0.3439  0.8241  0.7014
  606MOL0     C81739  10.915   3.750   6.950  0.2744  0.0983  0.6346
  606MOL0     C81740  11.026   3.716   6.978  0.2425 -0.5738 -0.1360
  606MOL0     C81741  10.305   3.407   6.757  0.1124 -0.2033 -0.2546
  606MOL0     C81742  10.180   3.342   6.739  1.0002  0.6014  0.1019
  606MOL0     H81743   9.906   2.943   6.556  1.5179  1.7953  0.7780
  606MOL0     H81744   9.702   2.824   6.561  2.4381  0.8668 -1.6493
  606MOL0     H81745   9.461   2.776   6.530  0.7724 -0.1072  0.2758
  606MOL0     H81746   9.523   2.737   6.693  0.3580  2.0396  0.1695
  606MOL0     H81747   9.227   2.802   6.601  0.6395  1.8055  1.5945
  606MOL0     H81748   9.299   2.643   6.645 -3.4814  0.5843 -2.7052
  606MOL0     H81749   9.331   2.763   6.878  0.8931  3.5695  0.0042
  606MOL0     H81750   9.246   2.886   6.820  1.0439  0.4407 -2.9799
  606MOL0     H81751   9.049   2.749   6.760 -1.6705 -1.2075  1.9492
  606MOL0     H81752   9.134   2.612   6.832  2.6468 -0.8853  1.1988
  606MOL0     H81753   9.157   2.747   7.048  2.1001 -1.0564 -3.4932
  606MOL0     H81754   9.044   2.870   6.992  2.1540  0.4317 -0.0866
  606MOL0     H81755   8.880   2.698   6.962 -0.2780 -0.3319 -0.1877
  606MOL0     H81756   8.992   2.566   7.000  1.6055 -0.0792 -0.3537
  606MOL0     H81757   8.997   2.632   7.242  0.3715 -3.4084 -0.9329
  606MOL0     H81758   8.895   2.766   7.192  4.1805  0.6900 -0.3987
  606MOL0     H81759   8.737   2.584   7.099 -0.9308  1.8083  0.8697
  606MOL0     H81760   8.735   2.646   7.263 -0.0821  1.0345 -0.7373
  606MOL0     H81761   8.957   2.490   7.422  3.2329 -0.9995  0.6414
  606MOL0     H81762   8.898   2.097   7.490  2.0841  0.4551  4.3252
  606MOL0     H81763   9.048   2.163   7.446 -0.6490 -3.4231 -0.3712
  606MOL0     H81764   9.035   2.343   7.611 -0.5926  1.2370 -0.1087
  606MOL0     H81765   8.998   2.182   7.691 -2.0574 -0.8986 -0.1317
  606MOL0     H81766   8.761   2.222   7.681  2.2174 -1.4418 -1.1248
  606MOL0     H81767   8.772   2.374   7.591 -1.1202  0.6468  0.5531
  606MOL0     H81768   8.871   2.368   7.868  1.2372  1.0836 -0.3858
  606MOL0     H81769   8.709   2.377   7.842  0.8970  0.8147  3.4976
  606MOL0     H81770   8.801   2.715   7.547  1.7986  2.3627  0.9268
  606MOL0     H81771   8.714   2.832   7.422 -0.4485 -1.2915  0.0852
  606MOL0     H81772   8.547   2.861   7.432  0.6715 -3.1720 -0.7561
  606MOL0     H81773   8.660   2.991   7.490  4.2363 -0.6433 -0.2881
  606MOL0     H81774   8.100   2.831   7.856  2.5202  0.2035  0.2628
  606MOL0     H81775   7.901   2.960   7.903  0.9263  1.1494  3.0972
  606MOL0     H81776   7.893   3.380   7.792  0.2020 -0.5658  2.2698
  606MOL0     H81777   7.777   3.328   7.676 -2.6310 -0.1568  0.5549
  606MOL0     H81778   7.728   3.385   7.976  1.5332 -2.1301  0.9288
  606MOL0     H81779   7.660   3.477   7.841 -3.8355 -1.3636  1.6017
  606MOL0     H81780   7.607   3.189   7.871  0.8021  0.8577  1.4122
  606MOL0     H81781   7.514   3.299   7.778 -2.3931 -0.7381  1.4010
  606MOL0     H81782   7.504   3.307   8.082 -0.8242  1.5016 -0.0077
  606MOL0     H81783   7.437   3.426   7.977  3.4329  0.6586  0.5640
  606MOL0     H81784   7.256   3.271   8.031 -1.2538  0.4303 -1.5872
  606MOL0     H81785   7.364   3.125   8.029 -1.1432  0.1264  0.2041
  606MOL0     H81786   7.366   3.128   7.789 -0.2052 -0.2266 -0.7348
  606MOL0     H81787   7.217   3.094   7.868  0.9607  0.1346  1.3522
  606MOL0     H81788   7.292   3.352   7.712  1.0178  0.2137  0.8623
  606MOL0     H81789   7.198   3.384   7.852  3.4733 -0.6361 -0.3849
  606MOL0     H81790   7.070   3.373   7.649  0.3110  1.5187  0.1154
  606MOL0     H81791   7.020   3.235   7.742 -2.0577  0.3098 -1.6107
  606MOL0     H81792   8.030   3.286   7.658  0.1957  0.1219  1.4509
  606MOL0     H81793   8.243   3.152   7.609  0.6822 -1.6317 -0.5397
  606MOL0     H81794   8.451   2.752   7.888 -1.6272 -2.4595 -0.8719
  606MOL0     H81795   8.608   2.576   7.918 -4.3873  1.4633  0.3659
  606MOL0     H81796   9.485   3.152   6.721  0.0597 -0.9309  1.5309
  606MOL0     H81797   9.721   3.283   6.724 -3.1506  0.2564 -0.6500
  606MOL0     H81798  10.066   3.531   6.486 -0.8297 -1.7007  0.7376
  606MOL0     H81799  10.313   3.622   6.502  4.2624 -1.9638 -0.1247
  606MOL0     H81800  10.509   3.509   6.888 -0.3686 -3.4284  0.4917
  606MOL0     H81801  10.584   3.427   6.745  0.5488  2.2806 -1.6575
  606MOL0     H81802  10.711   3.657   6.720 -2.5015  1.4345  0.6110
  606MOL0     H81803  10.777   3.540   6.837 -0.4319 -1.4836 -2.7372
  606MOL0     H81804  10.650   3.660   7.011 -0.0246 -0.5065 -0.4368
  606MOL0     H81805  10.569   3.772   6.896 -0.4817 -0.5459  0.6746
  606MOL0     H81806  10.734   3.883   7.012  1.4705  2.9729 -0.6893
  606MOL0     H81807  10.775   3.865   6.843 -0.9063  1.2541  0.8842
  606MOL0     H81808  11.118   3.684   7.022  0.0208 -1.5725 -0.3564
  606MOL0     H81809  10.358   3.366   6.842  2.3243  0.4159 -1.2605
  606MOL0     H81810  10.147   3.271   6.814 -0.2966 -0.5407 -1.4702
  607MOL0     O81811  11.436   6.632   5.619 -0.6350 -0.9672  0.0024
  607MOL0     C81812  11.459   6.588   5.733 -0.2125  0.1705  0.5932
  607MOL0     O81813  11.546   6.490   5.765  0.1945  0.0804  0.4430
  607MOL0     C81814  11.642   6.461   5.671  0.1350 -0.7230  0.6700
  607MOL0     C81815  11.733   6.554   5.615  0.0360  0.5991 -0.7113
  607MOL0     C81816  11.818   6.516   5.508  0.3669  0.4237 -0.1955
  607MOL0     C81817  11.817   6.382   5.458 -1.0007  0.3708 -0.3764
  607MOL0     O81818  11.904   6.366   5.353 -0.1817  0.6648 -0.6553
  607MOL0     C81819  11.929   6.232   5.323  0.3459 -0.7843  0.3787
  607MOL0     C81820  12.050   6.183   5.401 -0.5302 -0.5585  0.6879
  607MOL0     C81821  12.063   6.038   5.386  0.6120  0.5122  0.3089
  607MOL0     C81822  12.188   5.972   5.448 -0.5291  0.5339 -0.0587
  607MOL0     C81823  12.238   5.853   5.382  0.0482 -0.7166  0.0990
  607MOL0     C81824  12.333   5.783   5.486  0.1467 -0.1278 -0.2004
  607MOL0     C81825  12.387   5.648   5.430 -0.6667  0.1140 -0.1836
  607MOL0     C81826  12.489   5.587   5.526  0.2634 -0.8084  0.4343
  607MOL0     N81827  12.442   5.538   5.664 -0.7597  0.3956 -0.1154
  607MOL0     C81828  12.455   5.597   5.784  0.5436  0.0523  0.3557
  607MOL0     C81829  12.388   5.526   5.871 -1.1543  0.0226  0.5527
  607MOL0     C81830  12.383   5.572   6.020 -0.0713  0.2163  0.3452
  607MOL0     C81831  12.353   5.730   6.028  0.0866  0.3984  0.2135
  607MOL0     C81832  12.322   5.789   6.164 -0.8091 -0.1560  0.1548
  607MOL0     C81833  12.444   5.809   6.256 -0.4008  0.2509 -0.3686
  607MOL0     O81834  12.397   5.827   6.397 -0.9579  0.4650 -0.6061
  607MOL0     C81835  12.344   5.719   6.468  0.3184 -0.1830  0.6579
  607MOL0     C81836  12.260   5.745   6.573  0.3815  0.0848  0.3101
  607MOL0     C81837  12.179   5.645   6.636  0.5281 -0.3123  0.3320
  607MOL0     C81838  12.070   5.702   6.738 -0.4927  0.2312 -0.5787
  607MOL0     C81839  12.200   5.509   6.602  0.5754 -0.3177 -0.4411
  607MOL0     C81840  12.126   5.406   6.665 -0.4269  0.9212 -0.0977
  607MOL0     O81841  12.126   5.399   6.805 -0.3053  0.1862  1.0854
  607MOL0     C81842  12.088   5.289   6.874 -0.1614  0.1486 -0.7525
  607MOL0     C81843  11.990   5.298   6.957  0.5655  0.3216  0.4525
  607MOL0     C81844  11.938   5.186   7.022 -0.4153 -0.4266  1.2106
  607MOL0     C81845  11.994   5.059   6.994  0.6349  0.6166 -0.6103
  607MOL0     O81846  11.941   4.951   7.053  0.4291 -0.4919  0.4497
  607MOL0     C81847  12.019   4.827   7.066 -0.3501  0.5963 -0.0107
  607MOL0     C81848  12.100   4.830   7.193  0.2459  0.1315 -0.5549
  607MOL0     C81849  12.031   4.750   7.305 -0.2253 -0.0967 -0.2663
  607MOL0     C81850  11.900   4.809   7.357  0.4808 -0.0413 -0.3780
  607MOL0     C81851  11.848   4.702   7.462  0.2255  0.0632  0.3351
  607MOL0     C81852  11.713   4.724   7.522  0.4850  0.3484 -0.5457
  607MOL0     C81853  11.703   4.864   7.587 -0.0303  0.4556  0.2995
  607MOL0     C81854  11.629   4.844   7.720 -0.5066  0.6310  0.7939
  607MOL0    Cl81855  11.464   4.805   7.669 -0.1857  0.2010  0.4729
  607MOL0     C81856  12.098   5.050   6.898 -1.1747 -0.6636 -1.1424
  607MOL0     C81857  12.140   5.162   6.836  0.5956  0.0848 -0.0855
  607MOL0     O81858  12.064   5.321   6.596  0.0814 -0.4101 -0.1802
  607MOL0     C81859  12.295   5.482   6.505  0.1779  0.5605  0.4275
  607MOL0     C81860  12.361   5.583   6.433 -0.4596  0.2941 -0.4324
  607MOL0     N81861  12.344   5.411   5.805 -0.5208 -0.4634 -0.6352
  607MOL0     N81862  12.384   5.415   5.680 -0.0278  0.0366  0.3843
  607MOL0     C81863  11.744   6.286   5.529 -0.2028  0.4089 -0.1738
  607MOL0     C81864  11.658   6.329   5.630  0.4011 -0.2902  0.3160
  607MOL0     C81865  11.413   6.665   5.852  0.6496  0.4536 -0.5908
  607MOL0     C81866  11.373   6.796   5.831 -0.5095 -0.8648  0.0440
  607MOL0     C81867  11.341   6.876   5.941  1.2377 -0.2745 -1.4858
  607MOL0     C81868  11.334   6.828   6.077  0.7528 -0.7158 -0.4833
  607MOL0     O81869  11.327   6.900   6.191 -0.2778  0.4525 -0.1109
  607MOL0     C81870  11.375   7.033   6.199 -0.4644  0.0583  0.3656
  607MOL0     C81871  11.257   7.134   6.207  0.5103 -0.0085  0.1946
  607MOL0     C81872  11.144   7.095   6.300 -0.1690  0.7849  0.5313
  607MOL0     C81873  11.011   7.058   6.224 -0.8598  0.3332 -0.4259
  607MOL0     C81874  10.930   7.176   6.200  0.7528  0.2224  0.1953
  607MOL0     C81875  10.868   7.277   6.167  0.7886  1.2341  0.8309
  607MOL0     C81876  11.363   6.693   6.086  0.3397  0.9406 -0.7303
  607MOL0     C81877  11.403   6.614   5.984 -0.0764  0.4615 -1.0145
  607MOL0     H81878  11.729   6.656   5.653  2.7445  0.6403 -0.3668
  607MOL0     H81879  11.884   6.591   5.465 -0.9211  1.2908 -0.7000
  607MOL0     H81880  11.838   6.172   5.334 -0.8855  0.9638  0.1067
  607MOL0     H81881  11.951   6.223   5.216 -1.7609 -0.5896 -0.1217
  607MOL0     H81882  12.142   6.225   5.359 -1.2407 -1.5362 -2.0582
  607MOL0     H81883  12.045   6.211   5.507 -2.0050 -0.6280  0.6655
  607MOL0     H81884  11.973   5.992   5.428  0.0134 -0.1380 -1.6047
  607MOL0     H81885  12.056   6.017   5.279  1.9352 -0.1419  0.3331
  607MOL0     H81886  12.270   6.045   5.449  1.7126 -1.8053  2.2617
  607MOL0     H81887  12.168   5.950   5.553  1.3041 -0.1037  0.1987
  607MOL0     H81888  12.150   5.795   5.354 -0.3558  0.3713 -0.9892
  607MOL0     H81889  12.294   5.870   5.290  0.3929 -2.0722  0.0414
  607MOL0     H81890  12.412   5.855   5.508  0.7326 -1.4249  2.3046
  607MOL0     H81891  12.270   5.770   5.575 -3.9436  0.7710 -2.7348
  607MOL0     H81892  12.310   5.570   5.424  2.4778 -3.2223 -1.0192
  607MOL0     H81893  12.426   5.655   5.328  0.3867 -1.4146  0.0638
  607MOL0     H81894  12.579   5.649   5.535 -0.5808  0.3811  0.9064
  607MOL0     H81895  12.524   5.501   5.468  2.2937  0.9520 -1.1156
  607MOL0     H81896  12.510   5.686   5.813  1.5325 -0.2584 -0.5271
  607MOL0     H81897  12.306   5.514   6.072  0.7907  1.2491  2.9211
  607MOL0     H81898  12.475   5.543   6.072 -1.6244 -2.0901  2.0281
  607MOL0     H81899  12.253   5.747   5.987 -0.6407  0.5134  1.9470
  607MOL0     H81900  12.439   5.779   5.981  0.2921  0.9639  1.1454
  607MOL0     H81901  12.258   5.717   6.216  0.2141 -1.4913 -0.3648
  607MOL0     H81902  12.274   5.886   6.152  0.7539  0.6056 -0.2494
  607MOL0     H81903  12.503   5.893   6.220  2.4480 -1.2103  0.5707
  607MOL0     H81904  12.511   5.723   6.248 -1.3046 -0.6907  1.4196
  607MOL0     H81905  12.256   5.850   6.600  1.5127 -0.3898  2.5750
  607MOL0     H81906  12.085   5.665   6.840  0.2389  2.5292  0.2176
  607MOL0     H81907  12.064   5.810   6.754  2.0187 -0.0699  4.1824
  607MOL0     H81908  11.972   5.659   6.716 -1.0389 -0.2974  2.5049
  607MOL0     H81909  11.959   5.393   6.998 -1.4419  0.3675 -1.0457
  607MOL0     H81910  11.866   5.206   7.100 -0.9045 -1.6087  1.0861
  607MOL0     H81911  11.956   4.737   7.070 -0.1730  0.3215 -2.0567
  607MOL0     H81912  12.071   4.787   6.978 -2.4864 -0.2998 -0.9543
  607MOL0     H81913  12.194   4.775   7.196  0.4062  0.4392  0.5822
  607MOL0     H81914  12.109   4.932   7.232 -2.4168 -0.0751  0.8326
  607MOL0     H81915  12.107   4.744   7.384  0.2696 -3.0372 -0.8685
  607MOL0     H81916  12.013   4.647   7.272  0.0970 -0.0359 -0.6464
  607MOL0     H81917  11.907   4.909   7.401  0.7941 -0.3831  0.3800
  607MOL0     H81918  11.827   4.818   7.276 -0.4889  0.7760  0.5657
  607MOL0     H81919  11.918   4.699   7.545  0.8683 -4.6934 -0.1310
  607MOL0     H81920  11.849   4.600   7.422  0.0907 -0.3203  1.2939
  607MOL0     H81921  11.628   4.714   7.454  1.0476  0.5881 -1.2903
  607MOL0     H81922  11.691   4.644   7.593 -1.3745 -1.0744 -2.5748
  607MOL0     H81923  11.642   4.927   7.521 -4.4870 -1.9069  1.7373
  607MOL0     H81924  11.805   4.899   7.605 -0.0910  1.0723 -0.5168
  607MOL0     H81925  11.611   4.937   7.775  0.9779  1.4787 -0.1114
  607MOL0     H81926  11.669   4.777   7.797 -2.3466  2.1826  3.2952
  607MOL0     H81927  12.131   4.951   6.867 -1.9364 -1.7651  1.3551
  607MOL0     H81928  12.223   5.148   6.767  1.7844  1.7817  0.9353
  607MOL0     H81929  12.319   5.379   6.481 -1.1186  0.1013  0.9668
  607MOL0     H81930  12.444   5.561   6.366  1.0165 -2.4362  2.0318
  607MOL0     H81931  11.748   6.179   5.510 -1.4326 -0.4029  3.4016
  607MOL0     H81932  11.611   6.244   5.679  0.3258 -0.0880  0.5959
  607MOL0     H81933  11.386   6.842   5.733  2.5505 -0.9115  0.3208
  607MOL0     H81934  11.308   6.978   5.922 -1.6737 -0.9865 -0.7463
  607MOL0     H81935  11.410   7.023   6.303 -1.6261 -1.2863  0.6525
  607MOL0     H81936  11.464   7.072   6.149 -0.3049  1.9365  1.9753
  607MOL0     H81937  11.219   7.155   6.107 -3.4886 -3.0024  0.8591
  607MOL0     H81938  11.287   7.235   6.238 -3.3085  1.0940  0.8395
  607MOL0     H81939  11.117   7.181   6.361  0.6087  2.3235 -1.1922
  607MOL0     H81940  11.168   7.008   6.361  0.2950 -0.9194 -1.9307
  607MOL0     H81941  10.955   6.993   6.290 -2.0423 -1.2817 -2.8851
  607MOL0     H81942  11.029   7.002   6.131  2.4960  0.5912 -0.0837
  607MOL0     H81943  10.830   7.372   6.136 -2.7809 -0.0420  0.8202
  607MOL0     H81944  11.377   6.652   6.186 -1.2165  1.0825 -0.4373
  607MOL0     H81945  11.436   6.514   6.010  1.8492  1.3568  0.1875
  608MOL0     O81946   1.361   6.094   3.897 -0.1127  0.1445 -0.1197
  608MOL0     C81947   1.304   6.058   3.798  0.0357 -0.1092  0.2855
  608MOL0     O81948   1.324   6.106   3.673 -0.0306  0.4275 -0.9220
  608MOL0     C81949   1.400   6.217   3.669 -0.3408 -0.1845  0.7334
  608MOL0     C81950   1.343   6.321   3.589 -1.1238  0.3157  0.4219
  608MOL0     C81951   1.412   6.437   3.571 -0.7030 -0.4107  0.7034
  608MOL0     C81952   1.540   6.454   3.621 -0.4268 -0.2192 -0.1324
  608MOL0     O81953   1.626   6.564   3.606  0.5719 -0.7547  0.1850
  608MOL0     C81954   1.579   6.660   3.506 -0.0049 -1.3218 -1.2407
  608MOL0     C81955   1.677   6.774   3.482 -0.7144  0.6599  0.4425
  608MOL0     C81956   1.716   6.881   3.595  1.0512  0.1088 -0.8345
  608MOL0     C81957   1.783   6.997   3.513  0.1448 -0.3971  0.1892
  608MOL0     C81958   1.838   7.101   3.614  0.6371  0.6017  0.8575
  608MOL0     C81959   1.883   7.221   3.527  1.1106  0.7854 -0.1599
  608MOL0     C81960   1.930   7.348   3.600  0.2922  0.1062  0.1012
  608MOL0     C81961   1.824   7.445   3.656  1.2218  0.2267 -0.1322
  608MOL0     N81962   1.712   7.487   3.565  0.1863  0.6383 -0.1686
  608MOL0     C81963   1.716   7.578   3.458 -0.5917 -0.0333  0.3091
  608MOL0     C81964   1.595   7.550   3.392  0.9996 -0.3865  0.5967
  608MOL0     C81965   1.540   7.632   3.282 -0.2533  1.5715 -1.0748
  608MOL0     C81966   1.490   7.773   3.327  0.7182 -0.2356  0.6026
  608MOL0     C81967   1.415   7.837   3.205 -0.1419 -0.4893 -0.3779
  608MOL0     C81968   1.409   7.985   3.228 -0.2803 -0.9910 -0.0231
  608MOL0     O81969   1.314   8.041   3.139  1.1346 -0.6445  0.3998
  608MOL0     C81970   1.308   8.177   3.141  1.0870  0.7105  0.1065
  608MOL0     C81971   1.310   8.258   3.256 -0.3293  0.5887  0.9480
  608MOL0     C81972   1.306   8.399   3.242  0.3860  0.2126  1.1285
  608MOL0     C81973   1.335   8.483   3.361 -0.4682 -0.0435  0.8443
  608MOL0     C81974   1.279   8.454   3.113  0.0009  0.0438  1.1227
  608MOL0     C81975   1.258   8.593   3.082  0.2500  0.6903  0.2056
  608MOL0     O81976   1.169   8.666   3.163 -0.4861 -0.3489  0.5484
  608MOL0     C81977   1.169   8.801   3.129 -0.5027 -0.0778 -0.3758
  608MOL0     C81978   1.109   8.836   3.010 -0.2085  0.4265  0.3152
  608MOL0     C81979   1.102   8.976   2.984 -0.1712  0.4619 -0.1124
  608MOL0     C81980   1.142   9.075   3.069 -1.3886 -0.8598 -0.2613
  608MOL0     O81981   1.134   9.210   3.037 -0.3372  0.0785  0.6102
  608MOL0     C81982   1.075   9.291   3.137  0.0930  0.2785  0.1236
  608MOL0     C81983   1.031   9.425   3.079  0.3391 -0.2630 -0.0210
  608MOL0     C81984   0.916   9.413   2.980  0.9683 -0.8117  0.5071
  608MOL0     C81985   0.849   9.549   2.948 -0.0788 -0.0247 -0.0483
  608MOL0     C81986   0.735   9.538   2.837  1.3894  0.0830  0.3316
  608MOL0     C81987   0.728   9.662   2.743 -0.6217  0.3956 -0.2585
  608MOL0     C81988   0.685   9.787   2.821 -0.1673  1.0847  0.3905
  608MOL0     C81989   0.677   9.904   2.711  0.3439 -0.3923 -0.5822
  608MOL0    Cl81990   0.784  10.025   2.770  0.0443  0.0144 -0.2003
  608MOL0     C81991   1.213   9.041   3.185 -0.2603  0.4488  0.0721
  608MOL0     C81992   1.232   8.903   3.215  0.4187  0.0019 -0.1126
  608MOL0     O81993   1.306   8.635   2.978  0.2617  0.5416  0.2513
  608MOL0     C81994   1.247   8.365   3.001 -0.3898 -0.3292 -0.8206
  608MOL0     C81995   1.269   8.224   3.011  0.4299 -0.5624 -0.6980
  608MOL0     N81996   1.533   7.444   3.451 -0.1129  0.3151 -0.0666
  608MOL0     N81997   1.599   7.409   3.555  0.1907  0.6878 -0.8913
  608MOL0     C81998   1.595   6.351   3.692  0.1008 -0.2710  0.9284
  608MOL0     C81999   1.526   6.233   3.718 -0.1196 -0.5518  0.8006
  608MOL0     C82000   1.200   5.952   3.803 -0.0979  0.0858  0.2317
  608MOL0     C82001   1.137   5.898   3.693 -0.0628  0.0722  0.0953
  608MOL0     C82002   1.025   5.811   3.707  0.4584  0.6787  0.8281
  608MOL0     C82003   0.967   5.780   3.828 -0.4521  0.3905  0.0823
  608MOL0     O82004   0.873   5.679   3.836  0.0932 -0.4231  0.0056
  608MOL0     C82005   0.809   5.616   3.715 -0.2586  1.0262 -0.4416
  608MOL0     C82006   0.721   5.493   3.761 -0.9544 -0.8962  0.0368
  608MOL0     C82007   0.803   5.385   3.830 -0.4181  0.1881  0.6186
  608MOL0     C82008   0.709   5.270   3.882 -0.1262 -0.7500 -0.0923
  608MOL0     C82009   0.657   5.189   3.763 -0.2184  0.0901 -0.4146
  608MOL0     C82010   0.596   5.144   3.673 -0.5374  0.2902 -0.0162
  608MOL0     C82011   1.036   5.839   3.941  1.0874 -0.1017  1.1582
  608MOL0     C82012   1.151   5.918   3.929  0.0086  0.0997  0.4164
  608MOL0     H82013   1.243   6.322   3.547  0.2828 -3.9174 -4.0434
  608MOL0     H82014   1.360   6.515   3.516  0.1633 -1.8601 -2.4015
  608MOL0     H82015   1.562   6.603   3.414  0.4320 -2.9728 -0.3335
  608MOL0     H82016   1.488   6.708   3.543  1.1930  0.9151 -1.0210
  608MOL0     H82017   1.777   6.739   3.453  0.2724  4.3793 -1.3468
  608MOL0     H82018   1.637   6.821   3.392  2.5669  1.8707 -0.5445
  608MOL0     H82019   1.624   6.917   3.644 -0.8207 -2.3486 -2.2795
  608MOL0     H82020   1.779   6.832   3.669 -0.3753 -0.1797  0.2402
  608MOL0     H82021   1.877   6.973   3.462  0.8817  0.6286  1.0228
  608MOL0     H82022   1.712   7.038   3.440  2.6340 -0.2844 -2.3683
  608MOL0     H82023   1.756   7.138   3.676 -2.1316 -1.9062 -1.0282
  608MOL0     H82024   1.913   7.062   3.684 -1.0858 -2.5981  1.1225
  608MOL0     H82025   1.966   7.186   3.465  1.6135  2.4626 -0.4686
  608MOL0     H82026   1.795   7.237   3.464 -1.3252 -2.5784  1.9943
  608MOL0     H82027   1.990   7.316   3.686  0.4976 -0.0898 -0.1147
  608MOL0     H82028   1.993   7.400   3.528 -1.0645  2.0318  0.2068
  608MOL0     H82029   1.880   7.535   3.683  1.4871  0.0205  0.0035
  608MOL0     H82030   1.801   7.403   3.754  1.5863  0.6239  0.1262
  608MOL0     H82031   1.783   7.663   3.445  0.6366 -0.9389  0.5373
  608MOL0     H82032   1.610   7.654   3.201  0.2305  4.9900  0.1209
  608MOL0     H82033   1.455   7.578   3.240 -1.2097  3.9653 -2.3906
  608MOL0     H82034   1.577   7.834   3.350  1.0494 -0.7179  0.6511
  608MOL0     H82035   1.425   7.772   3.414  3.0235  0.2230  2.4277
  608MOL0     H82036   1.313   7.797   3.209 -0.6643  0.8047 -0.1150
  608MOL0     H82037   1.448   7.810   3.104 -1.9499  2.1009 -1.7841
  608MOL0     H82038   1.510   8.028   3.224  1.0436 -3.9425 -0.6768
  608MOL0     H82039   1.369   8.007   3.327 -4.1217  1.5411 -1.8766
  608MOL0     H82040   1.330   8.223   3.356  1.9422 -0.0830  0.3144
  608MOL0     H82041   1.247   8.547   3.369 -0.8059 -0.3358 -0.3812
  608MOL0     H82042   1.362   8.410   3.439  0.4601 -1.2055 -0.4961
  608MOL0     H82043   1.421   8.547   3.339 -0.1447  0.3648  2.9919
  608MOL0     H82044   1.080   8.758   2.940 -0.3242  2.1260 -1.6455
  608MOL0     H82045   1.066   9.012   2.888 -1.1516  1.1619  0.5027
  608MOL0     H82046   0.988   9.243   3.182  0.7621 -3.0111 -1.8047
  608MOL0     H82047   1.156   9.302   3.210 -0.1546  0.4322  0.3787
  608MOL0     H82048   1.011   9.493   3.163  0.4306 -0.6115  0.2829
  608MOL0     H82049   1.116   9.474   3.031  2.4060 -1.8233  1.8546
  608MOL0     H82050   0.849   9.342   3.029  1.7783 -3.2046 -1.6423
  608MOL0     H82051   0.946   9.359   2.890  0.6098 -2.2855  1.2403
  608MOL0     H82052   0.817   9.592   3.043  2.4743 -1.7485  1.7418
  608MOL0     H82053   0.928   9.611   2.905  1.3116 -1.5188  0.2352
  608MOL0     H82054   0.641   9.509   2.884  1.1850 -1.7431 -1.0665
  608MOL0     H82055   0.739   9.455   2.765 -0.5197  3.9256 -4.8533
  608MOL0     H82056   0.824   9.684   2.696 -1.1642  3.8927 -0.0010
  608MOL0     H82057   0.656   9.650   2.662 -2.0540  0.8864  0.8897
  608MOL0     H82058   0.767   9.808   2.889  1.3947  1.7907 -1.6120
  608MOL0     H82059   0.589   9.783   2.873  0.2382  2.1086  1.2487
  608MOL0     H82060   0.573   9.933   2.698  0.6538  1.0004 -0.1439
  608MOL0     H82061   0.719   9.875   2.614  3.8192  2.1586 -0.0595
  608MOL0     H82062   1.243   9.116   3.258 -0.4333  2.6395 -1.9861
  608MOL0     H82063   1.264   8.873   3.315 -1.1186  1.7991  0.9886
  608MOL0     H82064   1.219   8.421   2.912  1.1495  0.2560 -0.9744
  608MOL0     H82065   1.252   8.158   2.926  2.1832 -2.1178  0.0818
  608MOL0     H82066   1.695   6.358   3.733  0.5074  1.1259 -0.2428
  608MOL0     H82067   1.563   6.159   3.789 -2.4399 -0.5104  2.1716
  608MOL0     H82068   1.168   5.923   3.592 -0.9392 -0.0369 -0.2020
  608MOL0     H82069   0.990   5.764   3.616  1.3705 -0.4851  1.0533
  608MOL0     H82070   0.738   5.681   3.664 -0.5927  1.5040  0.5910
  608MOL0     H82071   0.880   5.569   3.647 -1.8970 -1.5600 -0.5001
  608MOL0     H82072   0.675   5.455   3.670  1.1715 -1.3044 -0.9388
  608MOL0     H82073   0.642   5.538   3.823  1.0011 -1.1391  2.8944
  608MOL0     H82074   0.863   5.432   3.908 -1.9271  3.6696 -0.1367
  608MOL0     H82075   0.873   5.351   3.754 -0.8286 -2.3766  1.2898
  608MOL0     H82076   0.625   5.313   3.937 -0.6853  0.2596 -1.6545
  608MOL0     H82077   0.751   5.192   3.947 -4.9203 -2.9358  0.7634
  608MOL0     H82078   0.533   5.109   3.594 -0.6068 -0.1709  0.2409
  608MOL0     H82079   0.994   5.826   4.041 -3.1280 -0.4930 -0.4384
  608MOL0     H82080   1.189   5.971   4.016 -1.4959  0.9703  0.5618
  609MOL0     O82081   3.967   6.317  10.431  0.6897  0.2642  0.0299
  609MOL0     C82082   3.990   6.234  10.523 -0.2925 -0.5426  0.2217
  609MOL0     O82083   4.099   6.232  10.601  0.4038 -1.3538 -0.7627
  609MOL0     C82084   4.211   6.310  10.571  0.8504 -0.4518 -0.0669
  609MOL0     C82085   4.199   6.441  10.548  0.2416  0.1816  0.0555
  609MOL0     C82086   4.311   6.530  10.529 -0.0630  2.2830 -0.6194
  609MOL0     C82087   4.439   6.474  10.542 -0.0512  0.5651 -0.2220
  609MOL0     O82088   4.559   6.532  10.517 -0.4633 -0.2313  0.0948
  609MOL0     C82089   4.571   6.593  10.383 -0.5046 -0.2151 -0.4739
  609MOL0     C82090   4.718   6.634  10.348 -0.5236  0.2967 -0.5527
  609MOL0     C82091   4.807   6.512  10.332  0.1457  0.9499  0.0720
  609MOL0     C82092   4.948   6.550  10.269  0.0552 -0.1867 -0.5867
  609MOL0     C82093   5.041   6.437  10.240  0.2371 -0.5867  0.8016
  609MOL0     C82094   5.168   6.479  10.173  0.1009  0.1964 -0.4436
  609MOL0     C82095   5.271   6.543  10.258 -0.8118 -0.0667 -0.3758
  609MOL0     C82096   5.292   6.476  10.398  0.2401 -0.8251  0.5504
  609MOL0     N82097   5.201   6.532  10.491 -0.8775 -0.6081 -1.4464
  609MOL0     C82098   5.116   6.463  10.570 -0.8688 -0.1564 -0.7925
  609MOL0     C82099   5.064   6.541  10.661  0.1940 -0.1528 -0.4319
  609MOL0     C82100   4.968   6.505  10.767 -0.1069  0.4715  1.2347
  609MOL0     C82101   4.822   6.550  10.761  0.7120  0.5480 -0.3045
  609MOL0     C82102   4.744   6.507  10.892  0.4072 -0.7028 -0.0243
  609MOL0     C82103   4.598   6.557  10.890  0.9815 -1.0310  0.4194
  609MOL0     O82104   4.540   6.513  11.023 -0.0231  0.4808  0.0360
  609MOL0     C82105   4.450   6.412  11.028  0.1168  0.2690  0.5921
  609MOL0     C82106   4.445   6.338  11.147  0.5497  0.1140 -0.4030
  609MOL0     C82107   4.350   6.232  11.163  0.0721  1.3235 -1.7014
  609MOL0     C82108   4.353   6.179  11.316  0.2764  0.1300  0.5349
  609MOL0     C82109   4.262   6.194  11.061  0.7083 -0.6314 -0.3637
  609MOL0     C82110   4.152   6.093  11.074 -0.3997 -1.0657  0.0259
  609MOL0     O82111   4.054   6.102  10.982 -0.3621  1.2690  0.0064
  609MOL0     C82112   3.938   6.025  11.004 -0.1441  0.4492 -0.0717
  609MOL0     C82113   3.816   6.089  11.020 -0.8562  1.1853 -0.3230
  609MOL0     C82114   3.706   6.018  11.055 -1.5309 -0.7317  0.2517
  609MOL0     C82115   3.707   5.879  11.051 -0.3380  0.1525 -0.4464
  609MOL0     O82116   3.586   5.815  11.060 -0.1029  0.6462 -0.0014
  609MOL0     C82117   3.541   5.754  10.932 -0.7649 -0.5504 -0.1992
  609MOL0     C82118   3.425   5.657  10.954  1.0838  0.1329  0.8566
  609MOL0     C82119   3.355   5.591  10.826 -0.9368  0.2659  0.2611
  609MOL0     C82120   3.204   5.584  10.843  0.0324 -0.2180 -0.8302
  609MOL0     C82121   3.135   5.511  10.722  0.1753  0.4615 -0.0171
  609MOL0     C82122   3.058   5.610  10.636  0.5179 -0.4954  0.4173
  609MOL0     C82123   2.970   5.551  10.534  0.5441 -0.1058  0.6588
  609MOL0     C82124   2.927   5.645  10.414 -1.0857 -0.6418 -0.9473
  609MOL0    Cl82125   2.827   5.561  10.299 -0.4096  0.0047  0.1450
  609MOL0     C82126   3.824   5.810  11.025 -0.6484  0.0384  0.1939
  609MOL0     C82127   3.939   5.881  10.993  0.2917  0.5419 -0.3506
  609MOL0     O82128   4.168   6.001  11.159  0.5746 -0.3100  0.0947
  609MOL0     C82129   4.268   6.271  10.940 -0.8440  0.0930  0.7047
  609MOL0     C82130   4.373   6.366  10.923  0.1653 -0.6368  0.8798
  609MOL0     N82131   5.105   6.672  10.631  0.3893  0.4379 -0.0523
  609MOL0     N82132   5.174   6.664  10.516  0.2985  0.9816  0.1668
  609MOL0     C82133   4.447   6.341  10.588  0.4764 -0.3587 -0.0094
  609MOL0     C82134   4.333   6.256  10.600 -0.6656  0.7343 -0.2155
  609MOL0     C82135   3.885   6.140  10.524 -0.2975  1.0824  0.1130
  609MOL0     C82136   3.772   6.130  10.440 -0.4846  0.3810  0.2780
  609MOL0     C82137   3.675   6.026  10.451 -0.3490  1.0524 -0.0209
  609MOL0     C82138   3.687   5.936  10.558  1.0344 -0.2171  0.7655
  609MOL0     O82139   3.604   5.830  10.588  0.2981 -0.2556 -0.3359
  609MOL0     C82140   3.481   5.823  10.512  1.4846  0.1408  0.4300
  609MOL0     C82141   3.384   5.939  10.547 -0.0754  0.0447  0.7015
  609MOL0     C82142   3.253   5.928  10.477  0.3403  0.2313 -0.7602
  609MOL0     C82143   3.134   5.980  10.548  0.0371 -0.8598 -0.3480
  609MOL0     C82144   3.012   5.973  10.469 -0.5013  0.2073  0.0637
  609MOL0     C82145   2.909   5.960  10.409  0.6123  0.0561  0.6034
  609MOL0     C82146   3.795   5.951  10.645  0.4609  0.4922  0.9627
  609MOL0     C82147   3.892   6.048  10.625 -0.0032 -0.6067  0.1352
  609MOL0     H82148   4.097   6.467  10.522 -0.1548  0.4650  1.7752
  609MOL0     H82149   4.302   6.636  10.506  3.8031  3.0989  0.7960
  609MOL0     H82150   4.548   6.513  10.312  2.5732 -1.2202 -0.4858
  609MOL0     H82151   4.505   6.680  10.379 -0.1942  0.0063 -0.8119
  609MOL0     H82152   4.725   6.680  10.249  0.0029 -0.7332 -1.0084
  609MOL0     H82153   4.756   6.701  10.425 -2.3820  2.9301 -1.7733
  609MOL0     H82154   4.835   6.449  10.417  1.6622  0.7363 -0.5610
  609MOL0     H82155   4.742   6.449  10.271 -0.1233  0.2874  1.0186
  609MOL0     H82156   4.924   6.589  10.169  1.3005 -0.1330 -0.8866
  609MOL0     H82157   4.996   6.623  10.335 -0.1964 -1.7645  1.4159
  609MOL0     H82158   5.055   6.377  10.330 -1.0023 -0.0921  1.3441
  609MOL0     H82159   4.991   6.366  10.175  0.9683 -1.4245  1.1346
  609MOL0     H82160   5.206   6.394  10.115  0.8289  0.5824 -0.5492
  609MOL0     H82161   5.129   6.549  10.099 -1.3528  0.7251  0.7872
  609MOL0     H82162   5.358   6.522  10.195 -0.5033 -1.0677  0.3598
  609MOL0     H82163   5.265   6.651  10.279 -0.8798 -0.1170 -0.1325
  609MOL0     H82164   5.394   6.502  10.427 -0.1485 -1.2734  2.4371
  609MOL0     H82165   5.289   6.367  10.395 -1.2170 -0.8526  1.9638
  609MOL0     H82166   5.097   6.358  10.552  0.6447 -0.7219  0.5887
  609MOL0     H82167   4.964   6.396  10.778  2.2963  0.4085  1.9980
  609MOL0     H82168   5.009   6.529  10.866 -0.7016  1.6953  1.1963
  609MOL0     H82169   4.781   6.510  10.668 -1.5465  0.1712  0.7819
  609MOL0     H82170   4.817   6.659  10.751  0.1356  0.4810 -0.8031
  609MOL0     H82171   4.773   6.558  10.984 -2.5901 -0.2235  0.7603
  609MOL0     H82172   4.762   6.399  10.900 -0.2413 -0.7423  1.2103
  609MOL0     H82173   4.546   6.519  10.801 -2.1888 -0.8345  2.0391
  609MOL0     H82174   4.605   6.665  10.880  1.9702 -0.8335  2.6260
  609MOL0     H82175   4.519   6.374  11.218  0.8575 -0.3163 -0.4929
  609MOL0     H82176   4.360   6.070  11.312  1.3260  0.1940  0.5677
  609MOL0     H82177   4.441   6.222  11.363  1.2509 -0.0800 -1.0460
  609MOL0     H82178   4.264   6.206  11.374 -0.3139 -2.3161  0.9162
  609MOL0     H82179   3.816   6.198  11.028 -1.3934  1.3311 -2.0350
  609MOL0     H82180   3.615   6.066  11.087  0.1853  0.0911  4.6077
  609MOL0     H82181   3.510   5.837  10.869  0.9215  1.1299  1.0759
  609MOL0     H82182   3.616   5.703  10.872 -0.9970  2.1268 -3.0209
  609MOL0     H82183   3.465   5.576  11.017 -2.6268 -2.1295  0.5870
  609MOL0     H82184   3.354   5.703  11.023 -0.9032 -1.7234  0.1356
  609MOL0     H82185   3.394   5.492  10.802  0.7070  0.7062  0.9251
  609MOL0     H82186   3.379   5.655  10.740 -1.4505 -1.2081 -1.0153
  609MOL0     H82187   3.189   5.535  10.939 -1.9088  1.6206 -0.1164
  609MOL0     H82188   3.151   5.678  10.857 -0.6952 -0.3251 -2.6119
  609MOL0     H82189   3.064   5.435  10.756 -2.0873  2.5995  0.3192
  609MOL0     H82190   3.203   5.459  10.654 -0.2755  1.7415 -1.5146
  609MOL0     H82191   2.999   5.687  10.686  0.0107  0.3465 -1.4221
  609MOL0     H82192   3.138   5.664  10.585  1.0238 -1.3141  0.3219
  609MOL0     H82193   2.878   5.513  10.580  1.0296 -3.0354 -0.5312
  609MOL0     H82194   3.016   5.464  10.486  3.1608 -0.3859  3.3462
  609MOL0     H82195   3.005   5.697  10.358 -1.3132  0.5508 -0.1878
  609MOL0     H82196   2.859   5.715  10.463  0.2630 -0.6073  0.9902
  609MOL0     H82197   3.839   5.703  11.026  1.3188 -0.0056 -4.8032
  609MOL0     H82198   4.033   5.831  10.967  0.1897  0.7714 -1.1756
  609MOL0     H82199   4.208   6.250  10.852  3.6252  1.5799 -3.1103
  609MOL0     H82200   4.379   6.412  10.824 -0.5382  0.3994  1.3031
  609MOL0     H82201   4.541   6.293  10.614  0.6629 -1.1096 -1.8515
  609MOL0     H82202   4.340   6.152  10.627 -0.0110  1.0214  0.7568
  609MOL0     H82203   3.765   6.199  10.356  0.1234 -0.0788 -0.1698
  609MOL0     H82204   3.591   6.014  10.384  0.7211 -2.4804 -1.0050
  609MOL0     H82205   3.495   5.821  10.403 -0.9154 -3.3275  0.0076
  609MOL0     H82206   3.435   5.725  10.530 -1.8002  0.9598 -2.3542
  609MOL0     H82207   3.425   6.037  10.520 -0.8471 -0.3890 -2.4170
  609MOL0     H82208   3.374   5.940  10.656  1.3863 -0.8041  0.8703
  609MOL0     H82209   3.225   5.823  10.466 -0.2947  0.4207 -1.0203
  609MOL0     H82210   3.263   5.974  10.378 -0.1869 -0.2563 -1.0456
  609MOL0     H82211   3.147   6.086  10.573 -1.3274 -0.7562 -0.0305
  609MOL0     H82212   3.121   5.921  10.639 -3.0233 -0.5998 -0.5416
  609MOL0     H82213   2.827   5.954  10.340  1.3650  0.4121 -0.3394
  609MOL0     H82214   3.812   5.905  10.742  1.0165 -1.8266 -0.1741
  609MOL0     H82215   3.975   6.051  10.695 -0.2202  2.8276  0.3821
  610MOL0     O82216   7.064   5.411   6.324 -0.0880 -0.8218 -0.2492
  610MOL0     C82217   7.071   5.293   6.310 -0.4439  0.3083 -0.3360
  610MOL0     O82218   7.179   5.213   6.353  0.6606  0.4791  1.1141
  610MOL0     C82219   7.298   5.271   6.349 -0.5431 -0.3124 -1.1667
  610MOL0     C82220   7.390   5.263   6.457 -0.2715 -1.1524 -0.7340
  610MOL0     C82221   7.518   5.335   6.455  0.5746 -0.1629  0.1995
  610MOL0     C82222   7.554   5.403   6.333  0.0271  0.3620  0.6188
  610MOL0     O82223   7.678   5.472   6.320  0.1158 -0.8390 -0.2373
  610MOL0     C82224   7.702   5.577   6.420 -0.2619  0.2428 -0.0916
  610MOL0     C82225   7.855   5.609   6.411  0.1682  0.5653 -0.0816
  610MOL0     C82226   7.899   5.731   6.487  0.1560 -0.7407  0.0554
  610MOL0     C82227   7.847   5.732   6.632 -0.0285  0.9983 -0.1693
  610MOL0     C82228   7.908   5.850   6.711 -1.2198  0.6336  0.6106
  610MOL0     C82229   7.885   5.829   6.860  0.1282 -0.6719  0.1402
  610MOL0     C82230   7.880   5.963   6.941 -0.5514  0.9132 -0.3313
  610MOL0     C82231   8.006   6.041   6.927 -0.0491 -0.0979 -0.5271
  610MOL0     N82232   8.094   6.026   7.046 -0.7345 -0.4388  0.6227
  610MOL0     C82233   8.079   5.963   7.168  0.6562 -0.5459 -0.0286
  610MOL0     C82234   8.203   5.973   7.223  0.4040  0.0574  0.9243
  610MOL0     C82235   8.230   5.914   7.361 -0.8739 -1.4867  0.7390
  610MOL0     C82236   8.346   5.821   7.361  0.0714 -0.0119 -0.7092
  610MOL0     C82237   8.485   5.892   7.377  0.2352  0.5599  0.1288
  610MOL0     C82238   8.602   5.805   7.442 -1.2675 -0.3403  0.3752
  610MOL0     O82239   8.588   5.802   7.584 -0.4053 -0.2338  1.1343
  610MOL0     C82240   8.692   5.755   7.660 -0.7432 -0.0359 -0.2823
  610MOL0     C82241   8.785   5.853   7.709  0.0358  0.4855  0.9248
  610MOL0     C82242   8.905   5.803   7.765  0.1018 -0.2259  0.4972
  610MOL0     C82243   8.988   5.917   7.840  0.0612 -0.7786  0.2990
  610MOL0     C82244   8.931   5.666   7.780 -0.4862  0.1788 -0.0093
  610MOL0     C82245   9.038   5.608   7.855 -0.9340 -1.3993 -0.2065
  610MOL0     O82246   9.013   5.481   7.911 -0.5370 -0.3150 -0.4052
  610MOL0     C82247   9.114   5.430   7.987 -0.0610  0.4376 -0.6859
  610MOL0     C82248   9.237   5.379   7.933  0.6844 -0.4276  0.3024
  610MOL0     C82249   9.327   5.320   8.015  0.2211 -0.0544  0.7509
  610MOL0     C82250   9.310   5.315   8.152  0.1781 -0.0510 -0.4688
  610MOL0     O82251   9.405   5.254   8.235 -0.0654  1.0143 -0.7634
  610MOL0     C82252   9.344   5.158   8.331  0.0312  0.2033 -0.0037
  610MOL0     C82253   9.431   5.075   8.422 -0.7387  0.0271 -1.0590
  610MOL0     C82254   9.481   4.963   8.320 -0.5648  0.3114  0.3698
  610MOL0     C82255   9.587   4.864   8.386 -0.4211  0.4577  0.2258
  610MOL0     C82256   9.622   4.746   8.289 -1.1823  0.3033  0.4706
  610MOL0     C82257   9.705   4.627   8.347  0.3423 -1.2983  0.9812
  610MOL0     C82258   9.641   4.552   8.459  0.1843  0.0326 -0.3747
  610MOL0     C82259   9.693   4.405   8.479 -0.0714 -0.5189  0.6492
  610MOL0    Cl82260   9.592   4.337   8.614 -0.1269  0.0268 -0.1212
  610MOL0     C82261   9.195   5.362   8.207 -0.2471  0.1341 -0.2949
  610MOL0     C82262   9.097   5.416   8.126 -0.3330  0.3812 -0.2031
  610MOL0     O82263   9.148   5.674   7.865  1.0059  0.1863  0.4869
  610MOL0     C82264   8.837   5.579   7.731  0.5061  1.0591  0.4058
  610MOL0     C82265   8.716   5.619   7.677  0.2131  0.4736 -0.1314
  610MOL0     N82266   8.295   6.044   7.149  0.2497 -0.2156  0.5567
  610MOL0     N82267   8.218   6.085   7.048  0.4769  0.5530 -0.2163
  610MOL0     C82268   7.476   5.386   6.220 -0.9507  0.4004 -0.2457
  610MOL0     C82269   7.347   5.321   6.222 -0.9340  1.2795  0.4800
  610MOL0     C82270   6.959   5.215   6.258  0.2103  0.8003  0.8148
  610MOL0     C82271   6.824   5.268   6.269  0.2330  1.0836 -0.5872
  610MOL0     C82272   6.716   5.211   6.205  0.4901  0.0285  0.2840
  610MOL0     C82273   6.740   5.090   6.135 -0.0687  1.0902 -0.8439
  610MOL0     O82274   6.647   5.009   6.081  0.3290 -0.1534 -0.4344
  610MOL0     C82275   6.522   5.057   6.044 -0.2634 -0.0010 -0.8347
  610MOL0     C82276   6.444   4.952   5.974  0.5420  1.0799 -0.0518
  610MOL0     C82277   6.378   4.848   6.073  0.7671 -0.3207 -0.2826
  610MOL0     C82278   6.286   4.743   6.008 -0.1655 -0.6028  0.0131
  610MOL0     C82279   6.287   4.611   6.073  0.4915 -1.4576 -0.1518
  610MOL0     C82280   6.289   4.507   6.138  0.2200  0.7420 -0.5877
  610MOL0     C82281   6.875   5.026   6.146  0.7882  0.4884  0.4983
  610MOL0     C82282   6.987   5.092   6.201  0.1627  0.4786  0.5652
  610MOL0     H82283   7.353   5.228   6.553 -2.3215  2.5199  0.0214
  610MOL0     H82284   7.576   5.347   6.546  0.4979 -1.8093  0.5093
  610MOL0     H82285   7.653   5.670   6.390 -2.9579 -1.1037 -0.1711
  610MOL0     H82286   7.671   5.545   6.520 -0.5751  2.1225  0.4524
  610MOL0     H82287   7.915   5.520   6.432 -1.1934 -0.8047 -1.7728
  610MOL0     H82288   7.876   5.638   6.307  0.4397  2.1878  0.4008
  610MOL0     H82289   8.007   5.730   6.501 -0.0731  1.6493  2.8784
  610MOL0     H82290   7.875   5.820   6.429 -0.5980 -1.1924 -0.3482
  610MOL0     H82291   7.739   5.729   6.646  0.0652  0.4299  0.5249
  610MOL0     H82292   7.894   5.645   6.679  0.6117  1.0365 -0.7134
  610MOL0     H82293   8.015   5.838   6.692 -1.3049 -3.0206  1.7154
  610MOL0     H82294   7.870   5.948   6.680  2.2512  3.3319  3.8439
  610MOL0     H82295   7.784   5.789   6.871 -0.0676  0.1295  1.4523
  610MOL0     H82296   7.958   5.759   6.901  0.8373 -0.9042 -1.4328
  610MOL0     H82297   7.799   6.029   6.906  0.5236  3.6568  1.9874
  610MOL0     H82298   7.865   5.934   7.045 -2.6660 -3.7188 -1.6605
  610MOL0     H82299   7.989   6.147   6.907 -0.5782  0.7622  3.5874
  610MOL0     H82300   8.057   5.993   6.843  0.0449  1.2834 -1.2950
  610MOL0     H82301   7.983   5.927   7.203 -0.7044  2.5805 -0.2905
  610MOL0     H82302   8.262   5.994   7.428 -0.1999 -1.4820  0.4185
  610MOL0     H82303   8.144   5.866   7.408 -0.3079 -1.1880  2.1209
  610MOL0     H82304   8.348   5.755   7.273 -0.9278  1.1201 -1.6181
  610MOL0     H82305   8.333   5.760   7.451 -1.0834  1.3501  0.0872
  610MOL0     H82306   8.475   5.981   7.439  1.7870  1.9290 -1.5017
  610MOL0     H82307   8.520   5.934   7.283 -0.7689 -1.2991 -1.1355
  610MOL0     H82308   8.697   5.856   7.422  0.3737 -3.3105  0.0044
  610MOL0     H82309   8.606   5.699   7.415 -0.3435  0.1107 -1.4116
  610MOL0     H82310   8.762   5.956   7.685  0.7077  0.6315  0.9026
  610MOL0     H82311   9.090   5.923   7.800 -0.5980 -3.3432 -2.0068
  610MOL0     H82312   8.943   6.014   7.816  0.2539  0.2322  3.5526
  610MOL0     H82313   8.986   5.901   7.948 -0.5076  1.1504  0.6164
  610MOL0     H82314   9.245   5.397   7.827 -0.2052 -1.8708 -0.0395
  610MOL0     H82315   9.421   5.277   7.980 -0.7404 -1.5161 -0.1215
  610MOL0     H82316   9.271   5.205   8.399 -0.7290 -1.1294  0.1301
  610MOL0     H82317   9.290   5.089   8.266  1.8307 -0.1157 -1.2230
  610MOL0     H82318   9.508   5.134   8.472 -0.3555  2.6523 -4.3496
  610MOL0     H82319   9.370   5.009   8.484  1.2557 -0.5493  0.3696
  610MOL0     H82320   9.525   5.022   8.239 -0.7342 -3.0706 -2.4334
  610MOL0     H82321   9.395   4.908   8.281 -2.9077  4.2465 -0.5475
  610MOL0     H82322   9.677   4.922   8.410 -2.2313  2.4618  2.7219
  610MOL0     H82323   9.533   4.828   8.474 -0.0086 -2.6538 -0.6568
  610MOL0     H82324   9.666   4.791   8.199  0.1616 -1.7051  0.0510
  610MOL0     H82325   9.529   4.697   8.260 -0.6220  0.9984 -2.8481
  610MOL0     H82326   9.722   4.572   8.254  0.5287 -2.3865  1.6406
  610MOL0     H82327   9.800   4.671   8.380  1.2359 -2.9189  0.7157
  610MOL0     H82328   9.535   4.544   8.434  0.4986 -1.7318 -1.3279
  610MOL0     H82329   9.654   4.603   8.555 -0.5805 -1.3763  0.5256
  610MOL0     H82330   9.799   4.399   8.503  0.1112  2.2117  0.8033
  610MOL0     H82331   9.678   4.355   8.383  0.9477  0.4164 -0.0147
  610MOL0     H82332   9.176   5.347   8.312  3.2415 -0.0746  0.4246
  610MOL0     H82333   9.010   5.457   8.177 -1.2521 -2.2110  0.4787
  610MOL0     H82334   8.851   5.472   7.720  0.1334  1.0919 -0.4445
  610MOL0     H82335   8.660   5.535   7.638  1.2019 -0.5732  0.6087
  610MOL0     H82336   7.518   5.437   6.133 -1.1985 -1.3505 -1.4481
  610MOL0     H82337   7.289   5.318   6.131  0.0177 -0.8256 -0.1210
  610MOL0     H82338   6.811   5.349   6.340  0.6560 -1.1368  2.1580
  610MOL0     H82339   6.620   5.258   6.225  2.0582  2.9597  1.5868
  610MOL0     H82340   6.458   5.084   6.128  0.6455 -1.2196  0.2867
  610MOL0     H82341   6.520   5.144   5.977 -0.7476 -0.1045 -0.9557
  610MOL0     H82342   6.519   4.904   5.911  0.9840 -1.1152  2.0146
  610MOL0     H82343   6.365   4.992   5.909 -1.7432 -0.5606  1.5652
  610MOL0     H82344   6.325   4.914   6.142 -0.5618  0.2184 -1.7666
  610MOL0     H82345   6.462   4.800   6.125 -0.7703 -2.1693  0.6364
  610MOL0     H82346   6.308   4.744   5.900  3.2471  0.9548  0.5792
  610MOL0     H82347   6.185   4.780   6.023 -1.3969 -3.3962 -0.7049
  610MOL0     H82348   6.279   4.407   6.176 -1.8663  0.1268 -2.4809
  610MOL0     H82349   6.890   4.930   6.098 -0.1802  0.0350  1.0712
  610MOL0     H82350   7.086   5.047   6.196  0.6573  1.4680  1.2048
  611MOL0     O82351   2.232   3.128   9.364  0.2359 -1.0792  0.2603
  611MOL0     C82352   2.194   3.203   9.451 -1.2062 -1.0176 -0.7982
  611MOL0     O82353   2.073   3.204   9.513  0.5456 -0.2676  0.1021
  611MOL0     C82354   1.975   3.110   9.498 -0.1573  0.0758 -0.7897
  611MOL0     C82355   1.851   3.144   9.542 -0.5113  0.6998  0.0787
  611MOL0     C82356   1.746   3.051   9.532 -1.1183  0.2426 -0.3233
  611MOL0     C82357   1.766   2.928   9.479  0.3041  0.2300 -0.6588
  611MOL0     O82358   1.667   2.837   9.465 -0.3223  0.7036  0.4391
  611MOL0     C82359   1.576   2.809   9.577 -0.3272  0.8381  0.1505
  611MOL0     C82360   1.464   2.721   9.515 -0.9816 -0.1263  0.3801
  611MOL0     C82361   1.362   2.675   9.615  0.8695  0.6621 -0.5897
  611MOL0     C82362   1.271   2.567   9.567  0.4906  0.3180 -0.5884
  611MOL0     C82363   1.217   2.479   9.686  0.8644  0.1093  0.7758
  611MOL0     C82364   1.125   2.366   9.645  0.8965  0.6514 -0.5143
  611MOL0     C82365   1.078   2.293   9.772  0.4703  0.5845  0.4345
  611MOL0     C82366   0.999   2.172   9.733  0.6021  0.2968  0.5478
  611MOL0     N82367   0.851   2.198   9.714 -0.2657  0.0999  0.2344
  611MOL0     C82368   0.792   2.235   9.597  0.1743 -0.2561  0.5225
  611MOL0     C82369   0.652   2.259   9.637 -1.2044  0.7939 -0.0727
  611MOL0     C82370   0.538   2.300   9.542  0.5782 -0.4105 -0.8561
  611MOL0     C82371   0.530   2.232   9.409  1.0863  0.5422  0.4648
  611MOL0     C82372   0.431   2.282   9.303 -0.1875  0.5306 -0.4024
  611MOL0     C82373   0.406   2.437   9.310  1.0971  0.1046  0.2445
  611MOL0     O82374   0.362   2.473   9.178  0.4920  0.6583  0.3146
  611MOL0     C82375   0.305   2.592   9.153  0.2668 -0.0730 -1.2869
  611MOL0     C82376   0.199   2.585   9.062 -1.1548 -0.1144  0.3218
  611MOL0     C82377   0.111   2.685   9.040 -0.9646 -0.6012 -0.8207
  611MOL0     C82378  -0.008   2.658   8.954  0.2767 -0.3355 -0.2314
  611MOL0     C82379   0.133   2.805   9.117  0.0876 -0.9913  0.1375
  611MOL0     C82380   0.060   2.936   9.092 -0.3216 -0.2316  0.1824
  611MOL0     O82381   0.072   3.027   9.196 -1.0638  0.4728 -0.2220
  611MOL0     C82382  -0.007   3.135   9.218 -0.0955  0.0478 -0.3938
  611MOL0     C82383  -0.095   3.202   9.133 -0.3564 -0.5755 -0.1498
  611MOL0     C82384  -0.169   3.318   9.176  0.1269  0.1467 -0.4887
  611MOL0     C82385  -0.152   3.367   9.307  0.2922 -0.3033  0.2770
  611MOL0     O82386  -0.208   3.482   9.349  0.0426 -0.7141 -0.2837
  611MOL0     C82387  -0.334   3.520   9.293  0.8674 -0.4335  0.4949
  611MOL0     C82388  -0.451   3.449   9.353  0.5425  0.1720  0.1570
  611MOL0     C82389  -0.465   3.485   9.504  0.5012 -0.2491 -0.0166
  611MOL0     C82390  -0.415   3.352   9.581  0.0111  0.3178 -0.3603
  611MOL0     C82391  -0.392   3.360   9.736 -0.4293 -0.3921  0.6157
  611MOL0     C82392  -0.404   3.223   9.802 -0.4536 -0.4662 -0.6941
  611MOL0     C82393  -0.330   3.106   9.747 -0.3878 -0.2174 -0.6537
  611MOL0     C82394  -0.181   3.121   9.762 -1.3162 -0.5918 -0.1040
  611MOL0    Cl82395  -0.127   3.157   9.933 -0.1912 -0.0232  0.2585
  611MOL0     C82396  -0.077   3.288   9.394 -0.3126 -0.6939 -0.0534
  611MOL0     C82397   0.002   3.176   9.352 -0.1194  0.7766 -0.4841
  611MOL0     O82398  -0.027   2.941   9.000 -0.6789  0.2052 -0.1562
  611MOL0     C82399   0.230   2.805   9.213 -0.0574 -0.2377 -0.0841
  611MOL0     C82400   0.334   2.716   9.218  0.1397 -0.2703  0.5707
  611MOL0     N82401   0.642   2.239   9.770 -0.4314 -0.5267 -0.1551
  611MOL0     N82402   0.759   2.214   9.812 -0.2303 -0.9715 -1.3376
  611MOL0     C82403   1.898   2.898   9.441  1.2937 -0.1291  0.4111
  611MOL0     C82404   1.999   2.988   9.453  0.5441  0.0278 -0.4156
  611MOL0     C82405   2.300   3.306   9.493 -0.5928 -0.8996  0.1636
  611MOL0     C82406   2.432   3.290   9.449  0.4935  0.5342  0.3219
  611MOL0     C82407   2.537   3.369   9.506  0.3052  0.6199  0.6372
  611MOL0     C82408   2.502   3.470   9.602  0.0042  0.5784  0.0842
  611MOL0     O82409   2.614   3.539   9.642  0.5505 -0.8171 -0.3415
  611MOL0     C82410   2.608   3.588   9.773 -0.4602  0.1637 -0.6466
  611MOL0     C82411   2.746   3.619   9.828 -0.5061  0.8124 -0.1054
  611MOL0     C82412   2.826   3.709   9.732  0.3755 -0.7348 -0.2353
  611MOL0     C82413   2.978   3.722   9.753  0.3682  0.0193  0.2608
  611MOL0     C82414   2.993   3.804   9.876 -1.0683  0.4467  0.2630
  611MOL0     C82415   3.023   3.862   9.974  0.3490 -0.5699 -0.2285
  611MOL0     C82416   2.372   3.500   9.629  0.9180 -0.2561  0.7509
  611MOL0     C82417   2.270   3.421   9.569 -0.9317  0.1942  0.4531
  611MOL0     H82418   1.827   3.245   9.573  0.7652  0.7328  1.0316
  611MOL0     H82419   1.654   3.084   9.579 -0.3882  3.3078 -0.7978
  611MOL0     H82420   1.624   2.750   9.656 -1.1334  0.2284  0.2017
  611MOL0     H82421   1.530   2.897   9.621 -1.6271 -0.5410  1.7008
  611MOL0     H82422   1.420   2.765   9.426  0.7745 -1.6740 -1.3457
  611MOL0     H82423   1.517   2.636   9.471  0.2702  1.6400 -1.7506
  611MOL0     H82424   1.408   2.654   9.712  1.1309  0.7186 -0.7025
  611MOL0     H82425   1.300   2.760   9.643 -2.4352 -1.2844 -1.4434
  611MOL0     H82426   1.189   2.618   9.516  0.5850  1.7744  0.6498
  611MOL0     H82427   1.324   2.498   9.501  2.2429  1.6968 -0.6658
  611MOL0     H82428   1.302   2.431   9.736 -1.9712 -2.4343  3.5368
  611MOL0     H82429   1.154   2.530   9.759 -0.6306  0.1837 -0.5182
  611MOL0     H82430   1.039   2.395   9.585  0.3906 -1.8645 -1.1265
  611MOL0     H82431   1.176   2.288   9.588 -1.1433 -0.0675 -1.4292
  611MOL0     H82432   1.169   2.261   9.823  0.1470 -2.8740 -0.9162
  611MOL0     H82433   1.019   2.358   9.838  0.7686 -2.0767  3.5652
  611MOL0     H82434   1.021   2.093   9.805  4.7640  1.1025  0.3898
  611MOL0     H82435   1.045   2.119   9.649  0.2087 -1.8204  1.5959
  611MOL0     H82436   0.847   2.242   9.504  0.7249 -2.4738  0.6403
  611MOL0     H82437   0.437   2.295   9.583  0.2212  1.3099 -1.4544
  611MOL0     H82438   0.557   2.406   9.524  0.1500 -0.0867  0.4549
  611MOL0     H82439   0.514   2.125   9.427  0.8650  0.0276 -2.2957
  611MOL0     H82440   0.629   2.257   9.371  0.4545  3.8650  0.7069
  611MOL0     H82441   0.335   2.231   9.314  0.8036 -1.0809  1.3572
  611MOL0     H82442   0.471   2.269   9.202  1.0387  3.2228 -0.3570
  611MOL0     H82443   0.496   2.491   9.339  1.8491 -0.4440 -0.9652
  611MOL0     H82444   0.331   2.458   9.387  2.2006  0.4568  1.2541
  611MOL0     H82445   0.163   2.488   9.028 -1.9539 -0.2092  1.3824
  611MOL0     H82446  -0.101   2.686   9.005 -1.2933  1.3588 -3.7491
  611MOL0     H82447   0.002   2.719   8.864  1.1040 -0.4209 -0.2034
  611MOL0     H82448  -0.021   2.552   8.929 -1.0273 -0.5506  1.1698
  611MOL0     H82449  -0.097   3.170   9.029  0.6004  1.9386 -1.0137
  611MOL0     H82450  -0.229   3.362   9.097 -1.1306  0.6788  0.7200
  611MOL0     H82451  -0.351   3.624   9.324 -0.2609 -1.1520  2.4572
  611MOL0     H82452  -0.337   3.512   9.184  1.1072  2.3359  0.2093
  611MOL0     H82453  -0.539   3.489   9.303 -0.0934 -0.8355  0.4505
  611MOL0     H82454  -0.436   3.342   9.338  1.3198  0.2852  0.0744
  611MOL0     H82455  -0.567   3.514   9.531  0.8015  1.0521 -0.2350
  611MOL0     H82456  -0.395   3.564   9.532  0.5934 -1.0513  2.2153
  611MOL0     H82457  -0.470   3.262   9.552 -0.8439  0.9097 -0.5967
  611MOL0     H82458  -0.315   3.326   9.544 -0.1746 -0.5313 -0.2883
  611MOL0     H82459  -0.453   3.435   9.786  0.7756 -0.5211  2.3645
  611MOL0     H82460  -0.287   3.391   9.728 -0.0723 -1.9764 -1.8238
  611MOL0     H82461  -0.392   3.230   9.910 -2.3255  1.1188 -0.5299
  611MOL0     H82462  -0.511   3.204   9.791 -0.5988 -0.5172  0.6189
  611MOL0     H82463  -0.364   3.090   9.644  3.7064 -0.1566 -2.2120
  611MOL0     H82464  -0.350   3.012   9.799  2.0793 -2.2220 -2.9682
  611MOL0     H82465  -0.135   3.203   9.706  2.7034  0.0461  3.5959
  611MOL0     H82466  -0.133   3.027   9.734  1.4915  0.8334 -0.3787
  611MOL0     H82467  -0.068   3.332   9.493  0.6540 -0.6035 -0.1730
  611MOL0     H82468   0.053   3.117   9.428  1.3286 -0.0459 -2.0431
  611MOL0     H82469   0.238   2.890   9.281  0.3770  1.8989 -2.6310
  611MOL0     H82470   0.431   2.724   9.267  0.4299 -0.0993 -0.0316
  611MOL0     H82471   1.917   2.798   9.402  1.3918 -0.4527  1.2712
  611MOL0     H82472   2.102   2.960   9.433  0.7820  0.3008  0.3586
  611MOL0     H82473   2.462   3.210   9.382  1.0888  0.8731  0.1673
  611MOL0     H82474   2.636   3.355   9.462 -0.2911 -1.6901 -0.1381
  611MOL0     H82475   2.546   3.678   9.771  0.0056  0.4752 -1.3876
  611MOL0     H82476   2.564   3.506   9.831  2.3932 -2.0265 -1.3395
  611MOL0     H82477   2.794   3.522   9.836 -3.1709 -0.4773  2.0192
  611MOL0     H82478   2.738   3.671   9.924 -1.4334  3.4256 -1.4950
  611MOL0     H82479   2.785   3.809   9.712  3.4355  0.5762 -0.3769
  611MOL0     H82480   2.815   3.667   9.632 -0.2546  1.9005 -1.3632
  611MOL0     H82481   3.014   3.772   9.663  0.3550  1.9883  1.3063
  611MOL0     H82482   3.029   3.626   9.766  1.1610  0.6110  1.7427
  611MOL0     H82483   3.051   3.904  10.069  0.3726 -2.0978  0.4805
  611MOL0     H82484   2.346   3.595   9.675  0.8379  0.8505 -1.4252
  611MOL0     H82485   2.164   3.439   9.581 -0.5148  1.9487  2.1576
  612MOL0     O82486   7.847   6.013   5.281 -0.4000  0.5420 -1.0222
  612MOL0     C82487   7.865   5.988   5.397  0.1945  0.4363 -0.9337
  612MOL0     O82488   7.979   5.929   5.451 -0.3485  0.2780 -0.2601
  612MOL0     C82489   8.090   5.894   5.378  0.8365  0.7618  0.1760
  612MOL0     C82490   8.145   5.769   5.389  0.6559  0.9681  0.1676
  612MOL0     C82491   8.254   5.728   5.316 -0.2163  0.3576  0.8859
  612MOL0     C82492   8.304   5.810   5.226  0.2846  0.6404 -0.1562
  612MOL0     O82493   8.418   5.769   5.157 -0.6188  0.1100 -0.0826
  612MOL0     C82494   8.423   5.637   5.105 -0.5677  0.6610 -0.1686
  612MOL0     C82495   8.293   5.597   5.029  1.1065 -0.3229  0.4344
  612MOL0     C82496   8.299   5.454   4.971 -0.8853  0.3564  0.5151
  612MOL0     C82497   8.229   5.440   4.835 -0.7745  0.6215  0.8858
  612MOL0     C82498   8.309   5.507   4.718  0.6870  0.8680 -0.4966
  612MOL0     C82499   8.247   5.635   4.663 -1.6321 -0.1375  0.3309
  612MOL0     C82500   8.336   5.710   4.565 -0.8539 -0.1761 -0.4021
  612MOL0     C82501   8.320   5.660   4.422 -0.5051 -0.6812  0.4399
  612MOL0     N82502   8.376   5.752   4.320  0.5029 -0.4183  0.1043
  612MOL0     C82503   8.371   5.718   4.188 -0.1238 -0.4644 -0.0046
  612MOL0     C82504   8.460   5.816   4.134 -0.0755  0.0339  0.0483
  612MOL0     C82505   8.515   5.793   3.991  0.3942  0.8819  0.5684
  612MOL0     C82506   8.649   5.864   3.966 -0.0611  0.2166  0.0018
  612MOL0     C82507   8.768   5.786   4.034  0.0352 -0.6346 -0.4863
  612MOL0     C82508   8.907   5.827   3.986 -0.1502 -0.6260 -1.2038
  612MOL0     O82509   8.912   5.833   3.845 -0.4839 -0.7065 -0.0927
  612MOL0     C82510   9.015   5.896   3.765  0.3967 -0.8202 -0.1897
  612MOL0     C82511   8.976   5.960   3.645 -0.8712  0.2767  0.5507
  612MOL0     C82512   9.072   6.026   3.567  0.4618 -0.3847 -0.1567
  612MOL0     C82513   9.020   6.078   3.440  0.9443 -0.0768  0.0320
  612MOL0     C82514   9.203   6.040   3.615  0.7744  0.5948  0.5301
  612MOL0     C82515   9.313   6.114   3.545 -0.4714 -0.2804 -0.6652
  612MOL0     O82516   9.282   6.198   3.435 -0.4286  0.6634  0.4467
  612MOL0     C82517   9.377   6.272   3.368 -1.2710  1.2230 -0.2714
  612MOL0     C82518   9.486   6.342   3.433 -0.1433  0.5092  0.8488
  612MOL0     C82519   9.573   6.430   3.361  0.0623 -0.1784 -0.2589
  612MOL0     C82520   9.551   6.442   3.222  1.3825 -0.0158 -0.1591
  612MOL0     O82521   9.626   6.508   3.140  0.2219 -0.3339 -0.1882
  612MOL0     C82522   9.665   6.635   3.187 -1.2530  0.3662  0.1540
  612MOL0     C82523   9.704   6.722   3.067 -0.1779 -0.5347 -0.8046
  612MOL0     C82524   9.582   6.791   2.993 -0.5524  0.8066  0.8258
  612MOL0     C82525   9.472   6.694   2.943  0.9946 -0.4057 -0.0695
  612MOL0     C82526   9.384   6.755   2.832  0.8500 -0.5601 -0.1410
  612MOL0     C82527   9.298   6.879   2.881 -0.6610  0.2573 -0.2736
  612MOL0     C82528   9.176   6.894   2.798  0.0378 -1.0336 -0.4845
  612MOL0     C82529   9.058   6.961   2.871  0.8124  0.1563  0.2063
  612MOL0    Cl82530   9.006   6.857   3.011  0.3331  0.0984 -0.0349
  612MOL0     C82531   9.441   6.384   3.162 -0.0677  0.4149  0.0790
  612MOL0     C82532   9.355   6.303   3.228  0.5450 -0.0166 -0.2612
  612MOL0     O82533   9.421   6.101   3.591 -0.6066 -0.6437  1.1334
  612MOL0     C82534   9.241   5.977   3.735 -0.0178 -0.8293  0.5130
  612MOL0     C82535   9.147   5.914   3.810  0.3041  0.3473 -0.6272
  612MOL0     N82536   8.515   5.895   4.234 -0.4293  0.6118 -0.3414
  612MOL0     N82537   8.464   5.850   4.346 -0.0742 -0.1405 -0.7930
  612MOL0     C82538   8.251   5.939   5.208 -0.2385 -0.1512 -0.1595
  612MOL0     C82539   8.146   5.983   5.286 -0.3789 -0.3675  0.9068
  612MOL0     C82540   7.748   6.015   5.487 -0.2150  0.0154 -0.6792
  612MOL0     C82541   7.715   5.928   5.588  0.2256 -0.5533  0.3831
  612MOL0     C82542   7.605   5.961   5.670  0.1384  0.4710  1.0131
  612MOL0     C82543   7.518   6.078   5.653 -0.3761  0.3566 -0.5392
  612MOL0     O82544   7.404   6.105   5.728  0.0450 -0.5763 -0.0585
  612MOL0     C82545   7.331   6.004   5.798 -0.0115  0.4885 -0.3592
  612MOL0     C82546   7.275   6.050   5.927 -0.3455 -0.6332  0.8454
  612MOL0     C82547   7.198   6.187   5.918 -0.1493 -0.2942  0.7990
  612MOL0     C82548   7.179   6.229   6.065  0.2605 -0.0187  0.2749
  612MOL0     C82549   7.108   6.357   6.068 -0.4557 -0.2586 -0.7665
  612MOL0     C82550   7.036   6.458   6.083 -0.1556  0.3156  0.4778
  612MOL0     C82551   7.555   6.158   5.546 -0.4709 -0.2652  0.6199
  612MOL0     C82552   7.666   6.128   5.465 -0.4287  0.7571 -0.2821
  612MOL0     H82553   8.102   5.698   5.458  0.6463 -1.9713 -2.6452
  612MOL0     H82554   8.305   5.633   5.328  3.1526  2.2821  3.9284
  612MOL0     H82555   8.508   5.643   5.037 -2.3595 -1.4010 -2.8385
  612MOL0     H82556   8.454   5.560   5.176 -0.6206  1.9146  1.2810
  612MOL0     H82557   8.205   5.624   5.086  0.8293  2.5212 -1.1637
  612MOL0     H82558   8.295   5.669   4.947 -1.3982 -0.5593  0.1079
  612MOL0     H82559   8.403   5.427   4.955 -1.2801 -0.9305  0.0279
  612MOL0     H82560   8.261   5.376   5.038  0.8010 -1.2623 -0.3395
  612MOL0     H82561   8.205   5.334   4.820  0.4334  0.2226  1.6123
  612MOL0     H82562   8.134   5.494   4.836  0.2758  2.5574  1.4952
  612MOL0     H82563   8.411   5.517   4.756  0.8076  1.1176 -0.8817
  612MOL0     H82564   8.310   5.438   4.633 -1.8133 -0.6357  0.5900
  612MOL0     H82565   8.151   5.621   4.613 -0.9463 -1.6020 -0.6553
  612MOL0     H82566   8.226   5.697   4.750  0.1588  1.1039 -0.0511
  612MOL0     H82567   8.315   5.817   4.574  0.4589  0.0278  0.5016
  612MOL0     H82568   8.441   5.697   4.594 -0.2051  2.5473 -1.2308
  612MOL0     H82569   8.215   5.653   4.394 -0.8902  0.8281  1.4098
  612MOL0     H82570   8.384   5.571   4.430  4.1662  2.4572  2.4598
  612MOL0     H82571   8.334   5.628   4.141 -1.4322  0.1918 -0.2841
  612MOL0     H82572   8.518   5.692   3.950  2.5153  1.6944 -1.5668
  612MOL0     H82573   8.455   5.849   3.919  3.9947  2.1315 -1.7674
  612MOL0     H82574   8.646   5.968   4.001  3.4685 -0.5728  3.3230
  612MOL0     H82575   8.657   5.866   3.857 -2.6943  3.0552 -0.2646
  612MOL0     H82576   8.776   5.678   4.021  0.9424 -0.6432  0.0247
  612MOL0     H82577   8.758   5.804   4.141  0.1481  0.0344 -0.5830
  612MOL0     H82578   8.979   5.752   4.020  0.5057  0.3723 -0.3293
  612MOL0     H82579   8.935   5.921   4.035  0.4416 -2.9639  3.4897
  612MOL0     H82580   8.874   5.962   3.609 -1.0220  3.3658  0.9446
  612MOL0     H82581   8.913   6.060   3.429  0.3984 -1.4258  5.0746
  612MOL0     H82582   9.024   6.185   3.459 -1.6371  0.8340 -3.5690
  612MOL0     H82583   9.084   6.045   3.358  0.2040 -0.2999 -0.4676
  612MOL0     H82584   9.499   6.327   3.540  0.8892  0.3179  0.7055
  612MOL0     H82585   9.658   6.471   3.414 -0.0420  1.1967 -1.1080
  612MOL0     H82586   9.585   6.690   3.237  0.0022  2.2292  0.2188
  612MOL0     H82587   9.750   6.643   3.256 -0.8841  2.8805 -0.4730
  612MOL0     H82588   9.762   6.808   3.102  1.1338  1.4800 -6.8796
  612MOL0     H82589   9.777   6.665   3.009  0.5616 -4.0043  3.0094
  612MOL0     H82590   9.634   6.841   2.910  3.0210  0.0342  2.3973
  612MOL0     H82591   9.535   6.864   3.059  0.2808 -1.1158  3.7654
  612MOL0     H82592   9.526   6.606   2.906  3.1188 -0.1684  2.2032
  612MOL0     H82593   9.410   6.652   3.023  2.1348 -1.1512  0.4461
  612MOL0     H82594   9.321   6.682   2.782 -1.0908  0.9027  0.0402
  612MOL0     H82595   9.439   6.806   2.752 -1.7789  0.0367 -1.6567
  612MOL0     H82596   9.266   6.864   2.985 -0.9603 -1.5649 -0.5965
  612MOL0     H82597   9.344   6.978   2.880 -0.0010 -0.0457 -0.4554
  612MOL0     H82598   9.141   6.795   2.765 -2.2507 -0.6942  0.6767
  612MOL0     H82599   9.203   6.965   2.719  1.3498  1.3474  1.9767
  612MOL0     H82600   8.972   6.965   2.804  1.2100 -0.1674 -0.3321
  612MOL0     H82601   9.084   7.064   2.899  0.6822  0.4177 -0.6317
  612MOL0     H82602   9.423   6.410   3.058 -1.6715 -4.1136 -0.9988
  612MOL0     H82603   9.278   6.260   3.166  1.6790 -1.8616 -0.4708
  612MOL0     H82604   9.343   5.975   3.770  0.2888  3.0450  0.2014
  612MOL0     H82605   9.169   5.874   3.909 -0.0167 -2.6682 -1.6595
  612MOL0     H82606   8.293   6.003   5.132  1.3869 -0.4554  0.4284
  612MOL0     H82607   8.094   6.078   5.277 -0.8177 -0.6715  0.1664
  612MOL0     H82608   7.759   5.829   5.590  0.9440 -0.6113 -4.8674
  612MOL0     H82609   7.587   5.873   5.730  0.8942 -0.3240  0.1142
  612MOL0     H82610   7.247   5.959   5.745 -0.9210  0.9559  0.6394
  612MOL0     H82611   7.403   5.924   5.816 -1.7016 -1.1115 -0.4078
  612MOL0     H82612   7.365   6.063   5.987 -0.8781 -3.0385  2.2719
  612MOL0     H82613   7.214   5.976   5.980 -1.8995 -0.2992 -0.3878
  612MOL0     H82614   7.102   6.166   5.870  0.5538 -3.4605  0.5702
  612MOL0     H82615   7.253   6.259   5.857 -0.1698 -0.3800  0.6796
  612MOL0     H82616   7.275   6.238   6.116  0.2565 -0.7656  0.4290
  612MOL0     H82617   7.114   6.158   6.118 -1.5849 -1.8611 -3.9804
  612MOL0     H82618   6.985   6.551   6.093  3.2854  2.6654 -1.8453
  612MOL0     H82619   7.500   6.245   5.512  0.2868 -0.8150 -2.2961
  612MOL0     H82620   7.679   6.199   5.385 -3.8263 -1.2093 -2.8517
  613MOL0     O82621   2.489   6.689   7.796  0.1029  0.0928  0.4693
  613MOL0     C82622   2.366   6.680   7.816  0.6271 -0.4840 -0.3691
  613MOL0     O82623   2.275   6.748   7.739 -0.5426  0.1396 -0.7067
  613MOL0     C82624   2.307   6.778   7.610 -0.7051 -0.3573 -0.4876
  613MOL0     C82625   2.364   6.904   7.580 -0.0252 -0.0612 -0.6497
  613MOL0     C82626   2.371   6.950   7.452 -0.0820 -0.3662  0.2260
  613MOL0     C82627   2.369   6.860   7.344  0.8173 -0.9172  0.3511
  613MOL0     O82628   2.425   6.891   7.222  0.0011 -0.5700  0.0687
  613MOL0     C82629   2.481   7.020   7.183 -0.2103  0.3248 -1.0692
  613MOL0     C82630   2.538   7.031   7.040  0.3964 -0.4379  0.8024
  613MOL0     C82631   2.643   6.931   7.024 -0.8317  0.1789  0.4136
  613MOL0     C82632   2.697   6.937   6.875  0.1293  0.0164 -0.8179
  613MOL0     C82633   2.842   6.857   6.871 -0.3969  1.1479  0.1642
  613MOL0     C82634   2.905   6.864   6.732 -0.4295  0.7631 -0.6642
  613MOL0     C82635   2.967   7.003   6.714  0.1696 -0.2570 -0.2582
  613MOL0     C82636   3.056   7.010   6.591  0.1429  0.8403  0.0770
  613MOL0     N82637   3.183   6.945   6.614  0.2074  0.1598  0.0873
  613MOL0     C82638   3.230   6.841   6.540  0.4924  0.9944  0.8627
  613MOL0     C82639   3.346   6.813   6.607  0.5473  0.0056  0.7304
  613MOL0     C82640   3.454   6.711   6.579  0.0712  1.2065 -0.2606
  613MOL0     C82641   3.457   6.609   6.697  0.1000  0.0741  0.4597
  613MOL0     C82642   3.525   6.478   6.655  0.3364  0.7658  0.0759
  613MOL0     C82643   3.434   6.374   6.580 -0.1246 -0.7898  0.0881
  613MOL0     O82644   3.503   6.261   6.543  0.0325  0.3143  0.0680
  613MOL0     C82645   3.503   6.144   6.622  0.1971 -0.4381 -0.4850
  613MOL0     C82646   3.488   6.131   6.760  0.8937  0.4783 -0.1632
  613MOL0     C82647   3.488   6.006   6.826  0.9144  1.2209 -0.5769
  613MOL0     C82648   3.445   5.996   6.980  0.3954 -0.1208  0.3343
  613MOL0     C82649   3.522   5.884   6.758 -0.4251  0.7090  0.1477
  613MOL0     C82650   3.548   5.751   6.820 -0.8497 -0.8560  0.4466
  613MOL0     O82651   3.577   5.735   6.959 -0.0738 -0.8348 -0.5568
  613MOL0     C82652   3.677   5.649   6.986  1.2569 -0.6060  0.1038
  613MOL0     C82653   3.814   5.682   6.981  0.1805  0.2388  0.2502
  613MOL0     C82654   3.907   5.583   6.991  0.4857 -0.9686 -0.2012
  613MOL0     C82655   3.867   5.454   7.015 -0.2659  1.4390  0.2865
  613MOL0     O82656   3.966   5.359   7.013 -0.2861 -0.5147 -0.4970
  613MOL0     C82657   3.928   5.214   7.016  0.6430  0.4317  0.1355
  613MOL0     C82658   4.045   5.123   7.062 -1.5385  0.6833 -0.1555
  613MOL0     C82659   4.018   4.985   7.127  0.8808 -0.2654 -0.7998
  613MOL0     C82660   4.162   4.925   7.180  0.9660  0.8172  0.7483
  613MOL0     C82661   4.146   4.790   7.247 -0.2982  0.2173  0.0531
  613MOL0     C82662   4.082   4.802   7.393 -0.4038  0.0683  0.4045
  613MOL0     C82663   4.077   4.671   7.458  0.2246  0.1504  1.0861
  613MOL0     C82664   4.003   4.669   7.590 -1.1282  0.3421  0.8634
  613MOL0    Cl82665   3.831   4.646   7.568 -0.0375  0.2133  0.3356
  613MOL0     C82666   3.731   5.426   7.050 -0.2270  1.2677  0.5374
  613MOL0     C82667   3.632   5.528   7.028 -0.2682  0.3632  0.0518
  613MOL0     O82668   3.546   5.652   6.744  0.3442 -0.3030  0.1486
  613MOL0     C82669   3.540   5.898   6.620 -0.0097  0.2895 -0.3395
  613MOL0     C82670   3.523   6.027   6.554  1.4068  1.0458 -0.4456
  613MOL0     N82671   3.368   6.912   6.701  0.2835  0.9046  0.5993
  613MOL0     N82672   3.261   6.971   6.722  0.5390 -0.2807  0.0358
  613MOL0     C82673   2.335   6.723   7.368  0.0713 -0.7699  0.0576
  613MOL0     C82674   2.300   6.687   7.507 -0.6152 -0.2732 -0.2130
  613MOL0     C82675   2.317   6.585   7.920 -0.2401  0.9242 -0.4121
  613MOL0     C82676   2.408   6.498   7.994  0.1717 -0.4660 -0.2258
  613MOL0     C82677   2.366   6.406   8.089 -0.1253 -0.5432  0.6732
  613MOL0     C82678   2.225   6.384   8.102 -0.5073  0.6525 -0.5157
  613MOL0     O82679   2.197   6.277   8.181  0.4398  0.3277 -0.5344
  613MOL0     C82680   2.060   6.237   8.193 -0.0701  1.1826 -0.0231
  613MOL0     C82681   2.047   6.140   8.294 -1.1565  0.5978 -0.3020
  613MOL0     C82682   1.909   6.078   8.312 -0.4936  0.2333 -0.2401
  613MOL0     C82683   1.878   5.992   8.438 -0.4894  0.0529  0.2007
  613MOL0     C82684   1.974   5.876   8.453  0.7569  0.4581 -0.7051
  613MOL0     C82685   2.032   5.773   8.464  0.4555  0.4074 -1.2388
  613MOL0     C82686   2.133   6.469   8.043 -0.9463  0.1171  0.4522
  613MOL0     C82687   2.178   6.566   7.950  0.7383  0.8334 -0.3144
  613MOL0     H82688   2.363   6.977   7.660  0.1452 -1.0594  0.2805
  613MOL0     H82689   2.389   7.055   7.435 -0.6111 -0.6993 -3.2753
  613MOL0     H82690   2.397   7.091   7.184  0.0562  0.6451 -0.9451
  613MOL0     H82691   2.558   7.057   7.252  2.5251 -0.6807 -3.3952
  613MOL0     H82692   2.461   7.033   6.961 -1.7492 -0.4920  2.7849
  613MOL0     H82693   2.579   7.130   7.021 -0.9122 -0.2861 -1.6238
  613MOL0     H82694   2.729   6.952   7.088 -0.2212  1.8974 -0.8779
  613MOL0     H82695   2.605   6.830   7.037  0.2700 -0.2091  0.7005
  613MOL0     H82696   2.618   6.890   6.815  0.1344  1.6468 -2.1627
  613MOL0     H82697   2.702   7.041   6.844 -2.6795  1.1369  1.9647
  613MOL0     H82698   2.911   6.892   6.947 -0.4009 -1.9708  1.7759
  613MOL0     H82699   2.816   6.752   6.889  0.4165  0.5960 -1.6127
  613MOL0     H82700   2.983   6.788   6.738 -1.4425 -0.2354  0.4676
  613MOL0     H82701   2.832   6.828   6.659  1.4965 -2.9482 -0.9914
  613MOL0     H82702   2.896   7.085   6.698  1.9357  0.7141 -4.3777
  613MOL0     H82703   3.019   7.031   6.807  1.4825  2.1621 -1.6093
  613MOL0     H82704   3.059   7.118   6.572 -0.7278  0.9841  0.6649
  613MOL0     H82705   3.006   6.982   6.497 -1.1436  3.6360 -0.1676
  613MOL0     H82706   3.182   6.776   6.468  3.8850 -0.3463 -0.3937
  613MOL0     H82707   3.423   6.645   6.497 -1.1800 -2.8277  3.1041
  613MOL0     H82708   3.554   6.754   6.577  1.2751 -1.2213  1.7287
  613MOL0     H82709   3.353   6.597   6.728 -0.6827  3.5403 -0.4139
  613MOL0     H82710   3.509   6.658   6.780 -3.4210  1.6701  1.9406
  613MOL0     H82711   3.558   6.429   6.747  0.1602  0.0436 -0.2338
  613MOL0     H82712   3.606   6.500   6.586 -1.5811  1.5854 -2.0480
  613MOL0     H82713   3.380   6.408   6.491 -4.4633 -5.1235  0.5785
  613MOL0     H82714   3.354   6.335   6.644 -2.3213 -1.2669 -2.7168
  613MOL0     H82715   3.461   6.223   6.812 -2.7529  1.1473 -2.8523
  613MOL0     H82716   3.348   5.950   7.001  0.0693 -0.7120 -2.1484
  613MOL0     H82717   3.517   5.936   7.037 -0.4020 -0.5531  0.9001
  613MOL0     H82718   3.452   6.097   7.021 -1.9367  0.7572 -1.1937
  613MOL0     H82719   3.847   5.780   6.948  0.8932 -0.8930 -2.8102
  613MOL0     H82720   4.012   5.607   6.977  0.5164 -1.3438 -0.6351
  613MOL0     H82721   3.848   5.183   7.084 -0.8418  0.4096 -1.5550
  613MOL0     H82722   3.890   5.182   6.919  0.6301 -0.7542  0.5114
  613MOL0     H82723   4.105   5.115   6.971 -0.7927  1.1541  0.2842
  613MOL0     H82724   4.107   5.185   7.126 -1.0170 -0.0613  0.0741
  613MOL0     H82725   3.958   4.922   7.062 -0.0425  0.0740 -0.2974
  613MOL0     H82726   3.956   4.996   7.216  0.0771  1.2977 -1.4879
  613MOL0     H82727   4.215   4.899   7.087 -4.3003 -3.1549 -1.6876
  613MOL0     H82728   4.219   4.997   7.238 -3.0351  2.4640  3.0413
  613MOL0     H82729   4.243   4.742   7.260  0.9089  2.5464  0.1687
  613MOL0     H82730   4.081   4.734   7.179  0.2907  1.0046 -1.1859
  613MOL0     H82731   4.150   4.871   7.444  0.2234 -0.4208  0.2414
  613MOL0     H82732   3.980   4.839   7.389 -0.4141  0.4594  2.8669
  613MOL0     H82733   4.184   4.658   7.477  1.0046  2.5607 -1.0195
  613MOL0     H82734   4.043   4.591   7.392  1.1622 -0.1735  0.9683
  613MOL0     H82735   4.004   4.763   7.646  2.4815 -0.2408  2.0969
  613MOL0     H82736   4.050   4.583   7.640  1.5965  0.4642 -1.2463
  613MOL0     H82737   3.707   5.322   7.072  1.4258  0.6678 -0.2926
  613MOL0     H82738   3.529   5.497   7.043 -0.0729 -0.2735  0.1025
  613MOL0     H82739   3.565   5.813   6.558 -0.8774  1.4691 -2.3999
  613MOL0     H82740   3.525   6.038   6.447  1.7358  3.4777 -0.2290
  613MOL0     H82741   2.351   6.642   7.298  1.4634 -0.1192 -0.4138
  613MOL0     H82742   2.290   6.582   7.534 -0.9997  0.2894  2.0178
  613MOL0     H82743   2.507   6.522   7.957 -0.3462 -0.1818 -1.5130
  613MOL0     H82744   2.438   6.338   8.135  0.9825 -0.3715 -0.7624
  613MOL0     H82745   1.995   6.322   8.216 -0.5901  1.3073 -1.7753
  613MOL0     H82746   2.036   6.182   8.102  0.9189  1.1584 -0.2759
  613MOL0     H82747   2.081   6.183   8.389  4.9989 -1.3768 -1.1316
  613MOL0     H82748   2.118   6.060   8.269 -1.6488 -0.8438  2.5374
  613MOL0     H82749   1.884   6.036   8.214 -1.4191  1.4621 -0.5562
  613MOL0     H82750   1.840   6.163   8.318  1.4035  1.7986  0.6214
  613MOL0     H82751   1.771   5.968   8.444 -1.4850  3.7367 -0.1863
  613MOL0     H82752   1.889   6.063   8.521 -1.9990  1.4869 -0.7392
  613MOL0     H82753   2.082   5.681   8.485 -2.0291 -0.0269  4.3649
  613MOL0     H82754   2.028   6.449   8.057 -0.6808 -2.9181 -1.0330
  613MOL0     H82755   2.103   6.613   7.888 -1.7901  1.4565  2.9072
  614MOL0     O82756   8.335   5.310   4.186 -0.2364 -0.0569  0.4473
  614MOL0     C82757   8.405   5.323   4.092 -0.4148  0.1685 -0.0325
  614MOL0     O82758   8.533   5.355   4.104  0.4159  0.1790  0.0533
  614MOL0     C82759   8.586   5.370   4.226  0.6824  0.0355  0.4529
  614MOL0     C82760   8.640   5.499   4.254 -0.7158  0.1140  0.5345
  614MOL0     C82761   8.680   5.524   4.384 -0.6454  0.0079 -0.5875
  614MOL0     C82762   8.657   5.432   4.488 -0.2490  0.8096  0.4029
  614MOL0     O82763   8.683   5.457   4.621  0.2928 -0.5092 -0.2525
  614MOL0     C82764   8.786   5.558   4.665  0.9889  0.5786  0.0428
  614MOL0     C82765   8.849   5.513   4.801 -0.0493 -0.2915 -0.2194
  614MOL0     C82766   8.923   5.372   4.795 -1.3816  0.4875  0.1088
  614MOL0     C82767   9.052   5.401   4.714 -0.6210  0.2577 -0.2627
  614MOL0     C82768   9.158   5.283   4.715 -0.6205 -0.1792 -0.1381
  614MOL0     C82769   9.302   5.330   4.678  0.5375 -0.8156 -0.3101
  614MOL0     C82770   9.313   5.346   4.532  0.0921 -0.2834  1.0872
  614MOL0     C82771   9.445   5.406   4.478 -0.4581  0.0040 -0.4193
  614MOL0     N82772   9.553   5.338   4.541  0.2754 -0.7569 -0.3245
  614MOL0     C82773   9.609   5.390   4.656 -0.6652 -0.1317 -0.4249
  614MOL0     C82774   9.663   5.279   4.711 -0.6561  0.0137 -0.4297
  614MOL0     C82775   9.739   5.285   4.847  0.5897 -0.3407 -0.0032
  614MOL0     C82776   9.656   5.273   4.974 -1.6606  0.3537  0.6719
  614MOL0     C82777   9.724   5.342   5.095 -0.6178 -0.4517 -0.4185
  614MOL0     C82778   9.848   5.254   5.140  0.3259  0.7267 -1.3422
  614MOL0     O82779   9.937   5.334   5.219 -0.2612  0.0071  0.5065
  614MOL0     C82780  10.045   5.275   5.273 -1.4333  0.6654 -0.4040
  614MOL0     C82781  10.090   5.145   5.245 -0.2939  0.0079  0.2217
  614MOL0     C82782  10.207   5.093   5.296  0.0173  0.9431  0.2785
  614MOL0     C82783  10.261   4.962   5.245  0.3839  0.1763 -0.2757
  614MOL0     C82784  10.282   5.173   5.385 -0.9521  0.5530 -0.5493
  614MOL0     C82785  10.410   5.134   5.448  0.0747 -0.3598 -0.3761
  614MOL0     O82786  10.424   5.182   5.569  0.8270 -0.8285 -0.2664
  614MOL0     C82787  10.542   5.168   5.634  0.3382  0.6664 -0.2833
  614MOL0     C82788  10.538   5.154   5.773  0.0555  0.9767  0.0518
  614MOL0     C82789  10.650   5.141   5.848  1.0735  0.8718 -0.0067
  614MOL0     C82790  10.775   5.157   5.794  0.1444 -0.4254 -0.4232
  614MOL0     O82791  10.888   5.148   5.854  0.2636  0.0331 -0.3788
  614MOL0     C82792  10.897   5.092   5.984 -0.3351  0.8946 -0.7890
  614MOL0     C82793  11.047   5.066   6.018 -0.3371  0.2008  0.6059
  614MOL0     C82794  11.098   4.934   5.952 -0.4831 -0.1700 -0.3170
  614MOL0     C82795  11.221   4.881   6.029 -0.6118 -0.1288  0.8982
  614MOL0     C82796  11.256   4.740   5.973 -0.2538  1.1355 -0.1760
  614MOL0     C82797  11.360   4.668   6.059 -0.7920  0.3326 -0.3172
  614MOL0     C82798  11.382   4.519   6.020 -0.3188 -0.5714  0.6062
  614MOL0     C82799  11.423   4.437   6.138 -0.1972  0.1200  0.1672
  614MOL0    Cl82800  11.590   4.458   6.205  0.0233 -0.0462  0.3804
  614MOL0     C82801  10.782   5.166   5.658 -0.2928  0.3183  0.4008
  614MOL0     C82802  10.668   5.182   5.581  0.7155 -1.0222  0.5216
  614MOL0     O82803  10.487   5.057   5.398  0.3282 -0.2418  0.7203
  614MOL0     C82804  10.233   5.298   5.425 -0.2674 -0.0178 -0.0740
  614MOL0     C82805  10.117   5.351   5.363 -0.3037  0.6726 -1.6352
  614MOL0     N82806   9.645   5.171   4.633  0.1557  0.0162  0.6030
  614MOL0     N82807   9.579   5.208   4.527  0.0518  0.4353 -0.6531
  614MOL0     C82808   8.616   5.306   4.452  0.5921 -1.8645 -0.2327
  614MOL0     C82809   8.571   5.277   4.333 -0.2870 -0.4621  0.7624
  614MOL0     C82810   8.348   5.326   3.956  0.0844  0.1357 -0.9893
  614MOL0     C82811   8.213   5.308   3.933  0.0480  0.8971  0.3290
  614MOL0     C82812   8.165   5.301   3.798  0.3290 -0.8619  0.7263
  614MOL0     C82813   8.247   5.307   3.688  1.1206  0.1249  0.6418
  614MOL0     O82814   8.206   5.252   3.569  0.1025 -1.6737  0.7830
  614MOL0     C82815   8.288   5.235   3.451  0.7173 -1.1138 -1.0429
  614MOL0     C82816   8.310   5.373   3.379 -0.5762  1.0476 -0.3003
  614MOL0     C82817   8.180   5.443   3.338  0.7880  0.8845 -0.0530
  614MOL0     C82818   8.113   5.366   3.215 -0.1403 -0.6332  0.2888
  614MOL0     C82819   8.001   5.452   3.159 -0.2603 -0.2566 -0.1795
  614MOL0     C82820   7.900   5.501   3.114 -0.1253  0.1907 -0.5242
  614MOL0     C82821   8.385   5.331   3.718  0.2777 -0.4425  0.3501
  614MOL0     C82822   8.432   5.337   3.848  0.3285  0.2769  0.4868
  614MOL0     H82823   8.649   5.562   4.166 -1.7985 -0.0189  0.3082
  614MOL0     H82824   8.715   5.625   4.399 -2.6125  0.7956 -1.0466
  614MOL0     H82825   8.858   5.576   4.585 -0.3216 -1.2470 -1.6334
  614MOL0     H82826   8.738   5.654   4.687 -2.0748 -0.0598 -2.9781
  614MOL0     H82827   8.910   5.600   4.830  2.2262 -1.2173 -1.8688
  614MOL0     H82828   8.770   5.508   4.876 -2.5254  0.2231 -2.6431
  614MOL0     H82829   8.934   5.341   4.899  1.2898  1.7536  0.2853
  614MOL0     H82830   8.858   5.307   4.736  0.6178 -0.4658 -1.1811
  614MOL0     H82831   9.027   5.413   4.608  0.9358  2.8965 -0.4185
  614MOL0     H82832   9.097   5.493   4.752  1.4014  0.1995 -2.2897
  614MOL0     H82833   9.158   5.247   4.819 -2.7764 -0.5106 -0.2031
  614MOL0     H82834   9.127   5.191   4.665  2.1386 -0.8884 -0.7393
  614MOL0     H82835   9.337   5.417   4.733  0.6861  0.4586 -2.3227
  614MOL0     H82836   9.362   5.241   4.697 -0.2544 -1.6673 -1.6145
  614MOL0     H82837   9.298   5.252   4.478 -2.0043  1.6099 -1.9813
  614MOL0     H82838   9.246   5.426   4.498  1.8381  2.1507  2.9885
  614MOL0     H82839   9.463   5.514   4.486 -0.3959 -0.1211  1.7221
  614MOL0     H82840   9.447   5.378   4.372 -4.3796 -0.2332 -0.5810
  614MOL0     H82841   9.616   5.490   4.696  2.5549 -0.8118  1.0618
  614MOL0     H82842   9.817   5.209   4.848  1.7435  0.8087  0.6180
  614MOL0     H82843   9.792   5.381   4.852 -0.5712  0.6713 -3.8526
  614MOL0     H82844   9.628   5.169   4.991 -1.3251  0.1754  0.1536
  614MOL0     H82845   9.569   5.339   4.969 -0.9619  1.2188 -0.7045
  614MOL0     H82846   9.647   5.368   5.168 -0.7241 -0.0575 -0.6688
  614MOL0     H82847   9.759   5.436   5.051  0.3255 -0.8662 -0.5779
  614MOL0     H82848   9.892   5.216   5.048 -2.7471  1.0837 -3.0954
  614MOL0     H82849   9.825   5.161   5.193 -1.2031  0.8472 -1.7512
  614MOL0     H82850  10.031   5.083   5.178 -1.6790  1.5293 -0.0337
  614MOL0     H82851  10.338   4.980   5.169 -0.6010  2.0729 -0.8906
  614MOL0     H82852  10.298   4.892   5.321 -1.6644 -2.5675 -1.6722
  614MOL0     H82853  10.186   4.905   5.189  1.6628 -3.8917  1.7468
  614MOL0     H82854  10.439   5.147   5.817  1.1941  1.4966  2.9170
  614MOL0     H82855  10.630   5.132   5.954  1.0546 -1.4779 -0.1581
  614MOL0     H82856  10.866   5.166   6.058  3.0285  3.1309 -1.3333
  614MOL0     H82857  10.843   4.998   5.996 -0.5632  1.2805  1.4704
  614MOL0     H82858  11.115   5.148   5.994 -0.8019  0.6553  0.8081
  614MOL0     H82859  11.067   5.055   6.125 -3.2030  2.3200  1.4886
  614MOL0     H82860  11.137   4.960   5.853  2.3449  0.7073  0.9297
  614MOL0     H82861  11.015   4.863   5.956  0.5977 -1.4280  0.5253
  614MOL0     H82862  11.304   4.950   6.015 -1.8650  1.0418 -1.3420
  614MOL0     H82863  11.205   4.891   6.136  0.6803  1.5579  0.9766
  614MOL0     H82864  11.300   4.737   5.873  2.9196  1.3402  1.0799
  614MOL0     H82865  11.165   4.680   5.981  0.8821 -0.5420  0.8059
  614MOL0     H82866  11.458   4.716   6.052 -1.2353  1.0634 -2.5152
  614MOL0     H82867  11.332   4.680   6.164  0.0134 -1.0147  0.0717
  614MOL0     H82868  11.457   4.516   5.941 -2.1022  0.8712 -1.2468
  614MOL0     H82869  11.290   4.483   5.974 -0.1529 -1.2100  0.7574
  614MOL0     H82870  11.413   4.338   6.094 -4.3912  0.8901 -0.9898
  614MOL0     H82871  11.353   4.450   6.222  1.4015 -0.0179  1.5889
  614MOL0     H82872  10.875   5.168   5.602 -1.0845  1.6371 -0.9350
  614MOL0     H82873  10.677   5.193   5.473  0.1926 -0.2074  0.5467
  614MOL0     H82874  10.278   5.367   5.495  0.6137 -0.8601  0.2059
  614MOL0     H82875  10.094   5.454   5.384  2.4680  1.6184 -2.7753
  614MOL0     H82876   8.611   5.221   4.518  0.4612 -0.9905  0.9065
  614MOL0     H82877   8.535   5.176   4.319  1.1163 -0.8697 -0.0378
  614MOL0     H82878   8.144   5.302   4.016  0.2820  3.6277  0.8067
  614MOL0     H82879   8.059   5.277   3.788  0.4762 -0.7002 -1.7945
  614MOL0     H82880   8.382   5.185   3.477  2.6464  3.0682  0.8915
  614MOL0     H82881   8.230   5.170   3.384  3.5204 -1.7258 -3.0511
  614MOL0     H82882   8.366   5.355   3.287 -1.4413  1.5988 -0.9482
  614MOL0     H82883   8.364   5.449   3.435 -1.1261  0.9512  0.3809
  614MOL0     H82884   8.189   5.549   3.312 -2.8231  1.5293  0.8451
  614MOL0     H82885   8.111   5.435   3.423 -1.0362  4.0821 -1.0830
  614MOL0     H82886   8.058   5.281   3.256  0.1499  0.0524  2.2015
  614MOL0     H82887   8.183   5.337   3.136 -0.5574  0.5263 -0.5331
  614MOL0     H82888   7.819   5.539   3.055  1.1398  1.6772 -1.3464
  614MOL0     H82889   8.462   5.330   3.641 -0.3726 -0.2105 -0.3147
  614MOL0     H82890   8.540   5.343   3.851  0.2723  1.2886  1.7877
  615MOL0     O82891   8.922   3.771   9.467 -0.5409 -0.2109  0.4786
  615MOL0     C82892   8.872   3.766   9.355 -0.0695  0.5473  0.0615
  615MOL0     O82893   8.742   3.715   9.336 -0.2113  0.8242 -1.0479
  615MOL0     C82894   8.684   3.649   9.442  0.5982 -0.6123  0.2129
  615MOL0     C82895   8.594   3.728   9.522 -0.1209 -0.5174 -0.2762
  615MOL0     C82896   8.541   3.663   9.635  0.5521 -0.3157 -0.1481
  615MOL0     C82897   8.574   3.525   9.668 -0.4722 -0.1526 -0.0535
  615MOL0     O82898   8.526   3.461   9.780  0.4985  0.2273  1.2360
  615MOL0     C82899   8.550   3.530   9.907 -0.4138  0.0742  0.7746
  615MOL0     C82900   8.531   3.459  10.043 -0.4271 -0.5178  0.2550
  615MOL0     C82901   8.606   3.544  10.145  0.0098 -0.7176  0.2739
  615MOL0     C82902   8.593   3.497  10.289  0.4300 -0.6339  0.4561
  615MOL0     C82903   8.712   3.402  10.337  0.2142 -0.5550  1.1768
  615MOL0     C82904   8.690   3.374  10.489 -0.4089  0.4047 -0.2201
  615MOL0     C82905   8.825   3.314  10.542 -0.2020  0.3467 -0.6180
  615MOL0     C82906   8.816   3.290  10.691 -0.1690  0.4260  0.3544
  615MOL0     N82907   8.814   3.409  10.774 -0.3836  0.3527 -1.0826
  615MOL0     C82908   8.748   3.419  10.899 -0.0676  0.8563  1.2132
  615MOL0     C82909   8.777   3.550  10.944  0.2291  1.1652 -0.8086
  615MOL0     C82910   8.774   3.617  11.080 -0.8098 -0.0443  0.0637
  615MOL0     C82911   8.905   3.674  11.141 -0.4288 -0.9619 -0.5851
  615MOL0     C82912   9.014   3.579  11.187  0.0834 -0.7507 -0.0530
  615MOL0     C82913   9.125   3.645  11.265 -0.3847  0.0125  0.2831
  615MOL0     O82914   9.258   3.582  11.220  0.3094 -0.0402  0.1566
  615MOL0     C82915   9.357   3.597  11.307 -0.5548  0.3508  0.0399
  615MOL0     C82916   9.486   3.610  11.254  0.1771  0.0086  0.0634
  615MOL0     C82917   9.595   3.641  11.330 -0.7368  0.4133 -0.7660
  615MOL0     C82918   9.727   3.673  11.265  0.7690 -0.4239  0.4182
  615MOL0     C82919   9.578   3.656  11.468  0.8576  0.6530 -0.5387
  615MOL0     C82920   9.689   3.678  11.569 -0.8783  1.1458  0.1466
  615MOL0     O82921   9.647   3.744  11.680  0.1832  0.1663 -1.2821
  615MOL0     C82922   9.730   3.766  11.793  1.1158  0.2393 -0.4230
  615MOL0     C82923   9.784   3.655  11.863 -0.0386 -1.0174 -0.7229
  615MOL0     C82924   9.843   3.683  11.991  0.0274 -0.5961 -0.1974
  615MOL0     C82925   9.852   3.814  12.037  0.0632 -0.3797 -1.2719
  615MOL0     O82926   9.906   3.846  12.159  0.2908  0.1262  0.7987
  615MOL0     C82927   9.855   3.781  12.276  1.3729  0.9216 -0.6957
  615MOL0     C82928   9.857   3.867  12.397 -0.2220 -0.8177  0.9704
  615MOL0     C82929   9.992   3.903  12.455 -0.3226  0.8206 -0.0411
  615MOL0     C82930   9.969   3.992  12.573  0.1297  0.1353  1.3181
  615MOL0     C82931  10.099   4.035  12.631 -1.1209  0.4427 -0.5477
  615MOL0     C82932  10.065   4.168  12.701 -0.9392 -0.2727 -1.2572
  615MOL0     C82933   9.999   4.154  12.840  0.5055 -0.7870  0.1759
  615MOL0     C82934  10.025   4.281  12.935 -0.2537  0.2973 -0.4245
  615MOL0    Cl82935   9.981   4.246  13.097 -0.4519  0.5746  0.1224
  615MOL0     C82936   9.797   3.921  11.959 -0.6728 -0.2899 -0.2010
  615MOL0     C82937   9.729   3.897  11.845 -0.1369 -0.2040  0.2096
  615MOL0     O82938   9.809   3.634  11.550  0.4676 -0.1873 -0.0741
  615MOL0     C82939   9.447   3.632  11.525  0.2569  0.8224  0.8427
  615MOL0     C82940   9.342   3.602  11.447  0.7176 -0.2124  0.0604
  615MOL0     N82941   8.851   3.611  10.848 -0.0031 -0.5718  0.0030
  615MOL0     N82942   8.885   3.531  10.754 -0.3271 -0.0824  0.0845
  615MOL0     C82943   8.646   3.450   9.571 -0.2738  1.2974 -1.1574
  615MOL0     C82944   8.706   3.514   9.463  0.6190  0.6319  0.6498
  615MOL0     C82945   8.942   3.817   9.238  0.1319  0.4835  0.6000
  615MOL0     C82946   8.900   3.779   9.103  0.4195 -0.1743  0.0975
  615MOL0     C82947   8.976   3.814   8.990 -0.6567 -0.2590 -0.7714
  615MOL0     C82948   9.096   3.891   9.001  0.3998  0.5984  1.0475
  615MOL0     O82949   9.174   3.914   8.894 -0.0762 -0.9196  0.4766
  615MOL0     C82950   9.288   3.997   8.913 -1.2200  0.5911 -0.4662
  615MOL0     C82951   9.239   4.140   8.920  0.1180 -0.2177  0.0008
  615MOL0     C82952   9.355   4.233   8.962 -1.1946  0.0854 -0.5836
  615MOL0     C82953   9.345   4.277   9.110 -1.3218 -0.5674 -0.4945
  615MOL0     C82954   9.429   4.190   9.196 -0.2794 -0.2703  0.1789
  615MOL0     C82955   9.485   4.115   9.272  0.2275  0.7478  1.0509
  615MOL0     C82956   9.140   3.929   9.134  0.7486  0.0964  0.4427
  615MOL0     C82957   9.068   3.889   9.246  0.7545 -0.1134  0.5650
  615MOL0     H82958   8.588   3.835   9.511  1.5481 -0.5807 -2.3405
  615MOL0     H82959   8.489   3.730   9.703  0.0349  2.7064 -3.2564
  615MOL0     H82960   8.657   3.556   9.905  0.5775 -3.4502  0.6181
  615MOL0     H82961   8.493   3.622   9.915  0.8074  0.8862  0.3860
  615MOL0     H82962   8.426   3.473  10.072 -0.2828  2.0916 -0.2883
  615MOL0     H82963   8.575   3.361  10.065  3.2048  0.6005 -1.3026
  615MOL0     H82964   8.709   3.535  10.109  0.0009  1.3369 -0.3551
  615MOL0     H82965   8.573   3.648  10.140 -1.0863 -0.9844  1.3803
  615MOL0     H82966   8.584   3.593  10.340  0.1079 -0.8617  0.8346
  615MOL0     H82967   8.496   3.447  10.297  0.2120 -0.7797 -2.1553
  615MOL0     H82968   8.711   3.310  10.278  2.2221 -0.4194  0.8809
  615MOL0     H82969   8.800   3.459  10.307 -1.1113  0.6286 -0.7206
  615MOL0     H82970   8.659   3.464  10.543  1.5928 -0.2747  2.2273
  615MOL0     H82971   8.611   3.298  10.488 -2.1243  2.0493 -2.4075
  615MOL0     H82972   8.838   3.219  10.489  2.0181  0.1116  0.2596
  615MOL0     H82973   8.899   3.393  10.527  0.1397  0.3979  1.1210
  615MOL0     H82974   8.903   3.238  10.731  0.6006  1.4218  0.0183
  615MOL0     H82975   8.728   3.229  10.715  2.0671 -2.8754  0.6996
  615MOL0     H82976   8.688   3.346  10.952  0.3820 -0.8822 -0.5374
  615MOL0     H82977   8.704   3.701  11.077  1.2424  1.7358 -0.9718
  615MOL0     H82978   8.729   3.548  11.152  1.0237  0.1794  1.5010
  615MOL0     H82979   8.879   3.736  11.227 -2.2822 -1.6773 -0.5850
  615MOL0     H82980   8.948   3.747  11.073  0.1874  1.2028  1.9428
  615MOL0     H82981   9.068   3.529  11.105  2.0464  0.1465  0.6373
  615MOL0     H82982   8.965   3.499  11.243 -0.5182  0.0230  0.5402
  615MOL0     H82983   9.102   3.639  11.371 -2.1421 -0.5343 -0.1030
  615MOL0     H82984   9.139   3.752  11.249  0.8319 -0.0170  1.0045
  615MOL0     H82985   9.494   3.605  11.145 -3.7011  4.0023 -0.6930
  615MOL0     H82986   9.699   3.706  11.164 -1.6818 -2.1064  0.4526
  615MOL0     H82987   9.785   3.748  11.319 -0.6826 -0.9941  2.8953
  615MOL0     H82988   9.785   3.580  11.265  1.5123  0.0297  0.7860
  615MOL0     H82989   9.781   3.554  11.823  2.8775 -1.1996 -0.6957
  615MOL0     H82990   9.864   3.594  12.050 -1.9266 -0.9988 -0.0532
  615MOL0     H82991   9.753   3.747  12.259  1.5500  1.0952 -2.2336
  615MOL0     H82992   9.922   3.697  12.297 -2.9666 -2.7187 -0.0613
  615MOL0     H82993   9.800   3.959  12.380 -0.9986 -0.9435  2.6529
  615MOL0     H82994   9.806   3.809  12.475 -0.1536 -1.7642  0.3303
  615MOL0     H82995  10.064   3.952  12.389  1.9708 -1.0759  0.9241
  615MOL0     H82996  10.034   3.809  12.490 -1.2697  0.5880  0.5039
  615MOL0     H82997   9.908   4.072  12.531 -1.4929 -0.5444  2.3032
  615MOL0     H82998   9.906   3.944  12.648  0.1046 -1.4276  0.3439
  615MOL0     H82999  10.175   4.055  12.554 -0.6715  0.6498 -0.0562
  615MOL0     H83000  10.137   3.961  12.701  0.5508 -0.9544 -2.7771
  615MOL0     H83001  10.155   4.228  12.717 -1.2268 -0.0514 -0.3949
  615MOL0     H83002   9.989   4.222  12.642  0.3354  0.4787 -2.2583
  615MOL0     H83003  10.028   4.058  12.883 -1.4664 -1.1120  0.8509
  615MOL0     H83004   9.890   4.153  12.836  0.2802 -1.7523  3.7773
  615MOL0     H83005   9.965   4.364  12.896 -1.4211 -0.6947 -0.8031
  615MOL0     H83006  10.130   4.306  12.918 -0.1581  1.0605  1.1346
  615MOL0     H83007   9.808   4.021  11.999  2.8686 -2.5453  5.8190
  615MOL0     H83008   9.676   3.974  11.790  0.2952 -0.2813 -0.3240
  615MOL0     H83009   9.442   3.633  11.634 -1.7010  0.1599  0.7982
  615MOL0     H83010   9.252   3.565  11.496 -0.2576 -0.2057 -1.6473
  615MOL0     H83011   8.671   3.346   9.589  0.2158  1.6977  0.6744
  615MOL0     H83012   8.782   3.463   9.405  1.2393  3.2550 -1.0265
  615MOL0     H83013   8.804   3.729   9.093 -0.6124  1.0731  2.7607
  615MOL0     H83014   8.944   3.779   8.892  2.1357 -1.7410 -1.2832
  615MOL0     H83015   9.350   3.959   8.995  0.9437  3.2761 -0.7018
  615MOL0     H83016   9.356   3.993   8.827 -0.0746 -0.1873  0.4342
  615MOL0     H83017   9.163   4.146   8.999  1.4460 -1.6703  1.4695
  615MOL0     H83018   9.193   4.164   8.823 -0.5240 -2.6309 -0.3404
  615MOL0     H83019   9.353   4.310   8.884  0.4312  1.9737  1.1030
  615MOL0     H83020   9.449   4.178   8.949 -0.3449  1.2082  0.5085
  615MOL0     H83021   9.248   4.294   9.157 -0.3267  1.0270  1.1216
  615MOL0     H83022   9.391   4.377   9.103  1.1345 -1.4740  1.3504
  615MOL0     H83023   9.542   4.037   9.319 -0.2228 -2.5205 -3.1907
  615MOL0     H83024   9.227   3.989   9.158 -1.1702  2.7226  1.2325
  615MOL0     H83025   9.102   3.914   9.346  2.1146  0.6654 -0.0623
  616MOL0     O83026   0.571   6.725   3.706 -0.3608  0.2202  0.2896
  616MOL0     C83027   0.629   6.646   3.779 -0.4105  0.2697 -0.2691
  616MOL0     O83028   0.625   6.511   3.757 -0.1641  0.3714 -0.2819
  616MOL0     C83029   0.529   6.472   3.675 -0.6560  1.1795  0.2385
  616MOL0     C83030   0.565   6.419   3.554  0.4611  0.1013  0.9543
  616MOL0     C83031   0.481   6.345   3.481 -0.1341  0.3148 -0.0729
  616MOL0     C83032   0.361   6.309   3.526  1.3339  0.7257  0.1234
  616MOL0     O83033   0.290   6.228   3.450 -0.5312  0.0327 -0.9158
  616MOL0     C83034   0.150   6.209   3.482  1.2948 -0.4133 -0.4681
  616MOL0     C83035   0.083   6.135   3.372 -0.5104  0.6904 -0.2240
  616MOL0     C83036   0.106   5.989   3.409  0.6387  0.1411 -0.2864
  616MOL0     C83037   0.008   5.899   3.330 -0.1366  0.0419 -0.2233
  616MOL0     C83038  -0.008   5.764   3.393 -0.5626 -1.0754  0.7731
  616MOL0     C83039  -0.008   5.754   3.549  0.0376 -0.6728  0.6041
  616MOL0     C83040  -0.064   5.632   3.608 -0.1022 -0.0449  0.0703
  616MOL0     C83041   0.022   5.505   3.610 -0.3497 -1.2605 -1.0770
  616MOL0     N83042   0.148   5.524   3.698  0.2445 -0.0203  0.7273
  616MOL0     C83043   0.151   5.557   3.827 -0.2333  0.6540 -1.1053
  616MOL0     C83044   0.282   5.586   3.854 -0.2943 -0.8526 -0.6342
  616MOL0     C83045   0.332   5.641   3.986 -0.3283 -0.7269  0.8557
  616MOL0     C83046   0.314   5.551   4.109 -0.8242 -0.9276 -0.5731
  616MOL0     C83047   0.406   5.421   4.104  0.4088  0.2296 -0.4694
  616MOL0     C83048   0.426   5.351   4.234 -0.2041  0.3916 -1.1923
  616MOL0     O83049   0.520   5.415   4.332  0.2915  0.0738  0.9688
  616MOL0     C83050   0.560   5.345   4.441 -0.1356  0.9120 -0.5982
  616MOL0     C83051   0.486   5.235   4.487  0.1215 -0.2483  0.8959
  616MOL0     C83052   0.531   5.160   4.595 -0.5354  0.3767 -0.9117
  616MOL0     C83053   0.435   5.059   4.655  0.8401  0.2988 -0.5691
  616MOL0     C83054   0.646   5.208   4.664  0.1094  0.3903  0.1251
  616MOL0     C83055   0.708   5.157   4.789  0.1422 -0.2270 -0.1674
  616MOL0     O83056   0.623   5.075   4.860 -0.7171  0.5646 -0.0985
  616MOL0     C83057   0.675   5.036   4.976 -0.8721  0.3560  0.0104
  616MOL0     C83058   0.789   4.947   4.988  0.4418 -0.6584  0.5433
  616MOL0     C83059   0.828   4.888   5.112  0.1883  0.4928 -0.0600
  616MOL0     C83060   0.766   4.926   5.234 -0.3365  0.0311 -1.2053
  616MOL0     O83061   0.795   4.861   5.352 -0.6037  0.8827  0.3532
  616MOL0     C83062   0.695   4.778   5.402 -0.1168 -0.5293  0.0579
  616MOL0     C83063   0.709   4.629   5.350  0.3814 -1.4455 -0.3143
  616MOL0     C83064   0.853   4.580   5.348 -0.3247 -0.4287 -0.4705
  616MOL0     C83065   0.868   4.452   5.272  0.7665  0.5981 -0.0690
  616MOL0     C83066   1.014   4.401   5.262  0.2710  0.1036 -1.2744
  616MOL0     C83067   1.101   4.352   5.382  0.3360 -0.5445  0.2054
  616MOL0     C83068   1.046   4.223   5.446 -0.6886 -0.7533  0.0058
  616MOL0     C83069   1.108   4.098   5.374 -0.7065 -0.2363 -0.8519
  616MOL0    Cl83070   1.292   4.104   5.373 -0.1115  0.1125 -0.1071
  616MOL0     C83071   0.659   5.022   5.226 -0.5837 -0.1904  0.4027
  616MOL0     C83072   0.616   5.077   5.103  0.3361 -0.2542 -0.3926
  616MOL0     O83073   0.808   5.218   4.841  0.3795 -0.3897 -0.1392
  616MOL0     C83074   0.726   5.301   4.599 -0.9809  0.1361 -0.2168
  616MOL0     C83075   0.680   5.377   4.497  0.1502  0.3752  0.0265
  616MOL0     N83076   0.348   5.574   3.735 -0.7318 -0.7604 -1.0272
  616MOL0     N83077   0.274   5.537   3.643  0.3342 -0.2392  0.5708
  616MOL0     C83078   0.323   6.358   3.653 -0.8394  0.8213 -0.6584
  616MOL0     C83079   0.409   6.439   3.725  0.6086  0.1467  0.3858
  616MOL0     C83080   0.732   6.686   3.880 -0.5399  1.0115 -0.0039
  616MOL0     C83081   0.752   6.816   3.918  0.3231  0.0299  0.4230
  616MOL0     C83082   0.830   6.853   4.021  0.1667 -0.8084 -0.1919
  616MOL0     C83083   0.899   6.763   4.099  0.1057 -0.2931  0.1604
  616MOL0     O83084   0.968   6.792   4.214 -1.0561  0.6257  0.2420
  616MOL0     C83085   1.112   6.753   4.222  0.6622 -0.1487  0.3777
  616MOL0     C83086   1.143   6.696   4.358 -1.1799  0.0833  0.1228
  616MOL0     C83087   1.110   6.777   4.476  0.2364 -0.4641 -0.0434
  616MOL0     C83088   1.144   6.694   4.601  0.3671  1.4245  0.4330
  616MOL0     C83089   1.094   6.772   4.722  0.3215  0.0989  0.6252
  616MOL0     C83090   1.072   6.862   4.793  0.4969 -1.0132 -0.3332
  616MOL0     C83091   0.885   6.624   4.065 -1.2035 -0.5076  0.6474
  616MOL0     C83092   0.798   6.590   3.956  0.1236 -0.9812 -0.6382
  616MOL0     H83093   0.656   6.452   3.505  0.2529 -1.4791 -0.6073
  616MOL0     H83094   0.512   6.311   3.383  0.5855 -0.5827  0.4423
  616MOL0     H83095   0.137   6.162   3.580  2.5350  2.4679  1.1935
  616MOL0     H83096   0.100   6.305   3.498 -0.8779 -1.1910 -2.0360
  616MOL0     H83097  -0.024   6.157   3.381  0.1300  3.3303  3.0418
  616MOL0     H83098   0.120   6.167   3.275 -2.9221  0.9924 -1.1163
  616MOL0     H83099   0.211   5.970   3.385  0.7062  0.0204  0.0955
  616MOL0     H83100   0.108   5.973   3.517 -1.2109  1.6328  0.0226
  616MOL0     H83101  -0.090   5.945   3.316 -0.4788 -0.3889  0.6521
  616MOL0     H83102   0.028   5.890   3.223 -0.2524 -0.3912 -0.2113
  616MOL0     H83103  -0.092   5.710   3.348 -1.2107  0.5164 -0.0216
  616MOL0     H83104   0.072   5.705   3.348 -0.3346  0.2604 -0.6697
  616MOL0     H83105   0.098   5.764   3.573 -0.0600 -1.2421  1.3087
  616MOL0     H83106  -0.054   5.843   3.593  2.4572  0.1767  1.5533
  616MOL0     H83107  -0.075   5.658   3.714 -0.8222 -1.4990  0.3769
  616MOL0     H83108  -0.166   5.607   3.575 -0.6260 -0.3916  1.8371
  616MOL0     H83109   0.042   5.458   3.514 -1.3591 -4.4712  0.1363
  616MOL0     H83110  -0.040   5.438   3.672 -0.0803  0.7456  1.5812
  616MOL0     H83111   0.068   5.560   3.897  1.4933  2.0243  1.0015
  616MOL0     H83112   0.438   5.663   3.966 -1.2127  1.4298 -2.0574
  616MOL0     H83113   0.290   5.740   4.000  0.6336  0.2901 -2.4316
  616MOL0     H83114   0.207   5.533   4.125 -0.7653  0.0390  1.1603
  616MOL0     H83115   0.351   5.605   4.197 -1.6539 -1.5633  0.1901
  616MOL0     H83116   0.507   5.462   4.093 -0.0729  1.2820 -1.1111
  616MOL0     H83117   0.385   5.349   4.025  2.6243  1.1744 -2.0438
  616MOL0     H83118   0.478   5.258   4.209  0.3769  0.6482 -0.9455
  616MOL0     H83119   0.328   5.351   4.285 -0.4090  1.2759 -1.5625
  616MOL0     H83120   0.391   5.201   4.446  1.5038 -0.6681 -2.3267
  616MOL0     H83121   0.407   5.074   4.760 -2.9805 -2.6048 -0.9244
  616MOL0     H83122   0.341   5.070   4.601  0.7731  1.5443 -0.2270
  616MOL0     H83123   0.473   4.958   4.634 -1.0303 -0.3522 -1.0595
  616MOL0     H83124   0.832   4.913   4.895  0.7771 -0.6421  0.6921
  616MOL0     H83125   0.899   4.806   5.114  0.6708  0.9149  0.2627
  616MOL0     H83126   0.685   4.783   5.510  2.2079 -0.3345  0.3223
  616MOL0     H83127   0.598   4.816   5.368 -0.1578 -0.8521 -0.1906
  616MOL0     H83128   0.654   4.577   5.429  0.6295 -1.8322 -0.3931
  616MOL0     H83129   0.660   4.607   5.255  0.1094 -2.9930  0.1432
  616MOL0     H83130   0.893   4.566   5.448 -2.2962  4.8105  1.3824
  616MOL0     H83131   0.906   4.656   5.291 -0.4075 -0.1924 -0.2307
  616MOL0     H83132   0.804   4.385   5.330  0.4376  1.9051  1.1501
  616MOL0     H83133   0.829   4.468   5.171  2.7690 -0.1364 -1.0156
  616MOL0     H83134   1.064   4.496   5.240 -1.7762  0.8258 -3.1333
  616MOL0     H83135   1.029   4.323   5.186  0.7868 -1.3949  0.2896
  616MOL0     H83136   1.208   4.343   5.361  0.9397  3.1219  1.0192
  616MOL0     H83137   1.095   4.432   5.456 -0.9162  0.9337 -1.4073
  616MOL0     H83138   0.939   4.213   5.426 -0.8029  2.4802 -1.5405
  616MOL0     H83139   1.072   4.211   5.552  3.1427 -0.8203 -0.8066
  616MOL0     H83140   1.071   4.093   5.271  1.4809  0.0415 -1.6921
  616MOL0     H83141   1.077   4.012   5.434 -0.5478  0.7241  0.6583
  616MOL0     H83142   0.630   5.038   5.330 -0.7833 -1.0095  0.4788
  616MOL0     H83143   0.538   5.153   5.098 -0.0176 -0.3938  1.7457
  616MOL0     H83144   0.824   5.328   4.637 -2.0877  0.4786  2.6323
  616MOL0     H83145   0.739   5.459   4.458  0.3663  1.4105  2.3551
  616MOL0     H83146   0.234   6.331   3.709  1.7578 -3.9007  1.7540
  616MOL0     H83147   0.384   6.483   3.821 -1.3861  3.5870 -1.5002
  616MOL0     H83148   0.699   6.899   3.873 -0.3608 -0.0893  1.0002
  616MOL0     H83149   0.844   6.955   4.054 -1.9899 -1.1922  2.2172
  616MOL0     H83150   1.146   6.679   4.149  3.1461  0.4092  0.8626
  616MOL0     H83151   1.176   6.840   4.207 -0.5558  0.9929  1.5949
  616MOL0     H83152   1.251   6.683   4.372 -0.2140 -1.1835 -5.9501
  616MOL0     H83153   1.099   6.596   4.372 -0.4043 -0.0286  2.1628
  616MOL0     H83154   1.009   6.818   4.469  1.2077  2.7835  2.5945
  616MOL0     H83155   1.153   6.876   4.461 -2.9468  0.9030 -0.8505
  616MOL0     H83156   1.250   6.671   4.608  0.0026 -0.4556  0.1730
  616MOL0     H83157   1.082   6.604   4.605 -0.3535  1.9554  3.1060
  616MOL0     H83158   1.054   6.929   4.875  2.0134 -2.1414  0.9752
  616MOL0     H83159   0.939   6.550   4.123 -0.7658 -2.1311 -1.6698
  616MOL0     H83160   0.784   6.486   3.927 -0.3569 -0.3421 -2.9740
  617MOL0     O83161   7.821   0.386   7.510  0.0332 -0.5565  0.8053
  617MOL0     C83162   7.943   0.383   7.504 -0.0979  0.0974 -0.5742
  617MOL0     O83163   8.028   0.283   7.461  0.3618  0.0753  0.7496
  617MOL0     C83164   7.983   0.149   7.459  0.0005 -0.1103  0.9074
  617MOL0     C83165   7.896   0.091   7.551  0.5453  0.9505  0.5411
  617MOL0     C83166   7.868  -0.044   7.554  0.1119 -0.0482 -0.9962
  617MOL0     C83167   7.931  -0.124   7.468 -0.4118  0.4763 -0.2596
  617MOL0     O83168   7.914  -0.264   7.476 -0.0105 -1.1250 -0.0668
  617MOL0     C83169   7.878  -0.332   7.345 -0.8948 -0.8434  0.4349
  617MOL0     C83170   7.737  -0.379   7.367  0.2854 -0.0620  0.8838
  617MOL0     C83171   7.655  -0.391   7.237 -0.1880 -0.7378  0.9222
  617MOL0     C83172   7.505  -0.355   7.264 -0.2313  0.2476  0.1929
  617MOL0     C83173   7.415  -0.338   7.133  0.0191 -0.0660 -0.2470
  617MOL0     C83174   7.370  -0.470   7.064  0.3853 -0.7225 -1.7281
  617MOL0     C83175   7.259  -0.444   6.958 -0.9210 -0.5627  1.0891
  617MOL0     C83176   7.227  -0.559   6.870  0.3351 -0.4723  0.0599
  617MOL0     N83177   7.307  -0.551   6.749  0.4130 -0.6048 -0.1749
  617MOL0     C83178   7.424  -0.609   6.731  0.5987  0.3054 -0.8070
  617MOL0     C83179   7.476  -0.573   6.613  0.6152  0.1271 -0.0530
  617MOL0     C83180   7.613  -0.612   6.566  0.3686 -0.2520  0.1742
  617MOL0     C83181   7.720  -0.546   6.653  0.2176 -0.0615 -0.6775
  617MOL0     C83182   7.780  -0.411   6.597 -0.2975  1.5005  0.7384
  617MOL0     C83183   7.869  -0.423   6.470  0.0326 -0.9397 -0.1522
  617MOL0     O83184   7.965  -0.521   6.496 -0.7596 -0.0765 -0.8883
  617MOL0     C83185   8.066  -0.524   6.401 -0.6864  0.0305 -1.2014
  617MOL0     C83186   8.195  -0.532   6.452 -0.3885 -0.6327 -0.3891
  617MOL0     C83187   8.307  -0.552   6.368 -0.3829 -0.7970 -0.2201
  617MOL0     C83188   8.440  -0.579   6.429  0.8787  0.5377  0.3090
  617MOL0     C83189   8.296  -0.535   6.223  0.0961 -0.1101 -1.0697
  617MOL0     C83190   8.411  -0.537   6.128  0.0148  0.4209 -0.5877
  617MOL0     O83191   8.540  -0.552   6.173 -0.7149 -0.6787 -0.6415
  617MOL0     C83192   8.642  -0.576   6.080 -0.1712  0.0302  0.3159
  617MOL0     C83193   8.638  -0.665   5.972 -1.0320  0.0199  0.5656
  617MOL0     C83194   8.740  -0.660   5.879  0.9246  0.3612  1.1491
  617MOL0     C83195   8.853  -0.583   5.893  0.1127 -0.4447  0.1382
  617MOL0     O83196   8.952  -0.588   5.793  0.9664  0.2010 -0.0057
  617MOL0     C83197   8.910  -0.539   5.668 -0.1970  0.3478  0.8321
  617MOL0     C83198   8.995  -0.419   5.628 -1.4261  0.6253 -0.0377
  617MOL0     C83199   9.136  -0.413   5.688 -0.4729  0.2153 -0.8238
  617MOL0     C83200   9.230  -0.313   5.613  0.2647  0.0906 -0.1663
  617MOL0     C83201   9.289  -0.196   5.701 -0.1875  0.1732  0.6132
  617MOL0     C83202   9.397  -0.131   5.618  0.7302  0.6309 -0.4317
  617MOL0     C83203   9.417   0.009   5.665 -0.1387  0.2620 -0.5384
  617MOL0     C83204   9.506   0.083   5.577 -0.1759 -0.2899 -0.3246
  617MOL0    Cl83205   9.449   0.101   5.407 -0.0304 -0.3627 -0.0224
  617MOL0     C83206   8.854  -0.497   6.002  0.0698  0.3675 -0.4426
  617MOL0     C83207   8.749  -0.493   6.094 -1.3219  0.2543 -1.0723
  617MOL0     O83208   8.385  -0.514   6.012  0.2556  0.9160  0.1129
  617MOL0     C83209   8.168  -0.511   6.177  0.2981 -0.7985  0.1466
  617MOL0     C83210   8.058  -0.510   6.257  0.2308  0.6332 -0.9624
  617MOL0     N83211   7.383  -0.485   6.546  0.7670  0.1328  0.1820
  617MOL0     N83212   7.285  -0.482   6.632  0.3125  0.0249  0.5553
  617MOL0     C83213   8.027  -0.081   7.381 -0.0855 -0.3401 -0.5143
  617MOL0     C83214   8.054   0.060   7.379  0.4074 -0.2543 -0.0800
  617MOL0     C83215   8.013   0.506   7.540 -0.7376  0.0460 -0.5740
  617MOL0     C83216   7.951   0.630   7.508  0.1620  0.2757  0.4527
  617MOL0     C83217   8.026   0.746   7.525 -0.1799  0.0793 -0.5134
  617MOL0     C83218   8.151   0.757   7.576  0.2906  0.4839  0.1795
  617MOL0     O83219   8.211   0.876   7.600  0.5332  0.3845 -0.5626
  617MOL0     C83220   8.157   0.995   7.544 -0.5663  0.3243 -0.3084
  617MOL0     C83221   8.192   1.004   7.399  0.7190 -0.4427 -0.3196
  617MOL0     C83222   8.072   1.067   7.329 -0.4138 -0.6335  0.0937
  617MOL0     C83223   8.073   1.033   7.184  0.2318  0.3034 -0.2015
  617MOL0     C83224   8.199   1.089   7.125  0.5593  0.0509  0.6797
  617MOL0     C83225   8.290   1.151   7.078 -0.3737  0.2349 -0.0324
  617MOL0     C83226   8.208   0.629   7.619  0.3618  0.1915 -0.5732
  617MOL0     C83227   8.145   0.508   7.593  0.1187 -0.6603  0.0766
  617MOL0     H83228   7.839   0.151   7.621 -0.0706  0.0720  0.8227
  617MOL0     H83229   7.787  -0.093   7.607 -0.3232 -1.3881 -2.8125
  617MOL0     H83230   7.873  -0.265   7.258 -1.4756 -2.4157 -0.7749
  617MOL0     H83231   7.946  -0.416   7.330 -0.1514 -0.5736  2.0355
  617MOL0     H83232   7.747  -0.482   7.404  4.0216 -1.5439 -3.3426
  617MOL0     H83233   7.686  -0.315   7.439 -1.5659  0.3392 -0.6978
  617MOL0     H83234   7.695  -0.327   7.158  1.8273 -2.6561  0.2729
  617MOL0     H83235   7.663  -0.491   7.193 -2.2077  0.2941 -2.0627
  617MOL0     H83236   7.463  -0.435   7.325 -1.1524 -0.3232 -1.1265
  617MOL0     H83237   7.494  -0.258   7.313  0.2296  1.3256 -1.7128
  617MOL0     H83238   7.331  -0.284   7.175 -0.3143 -0.3282 -0.5704
  617MOL0     H83239   7.465  -0.280   7.054  0.8479 -1.4510 -0.7885
  617MOL0     H83240   7.455  -0.525   7.023  0.3553 -0.2307 -2.4659
  617MOL0     H83241   7.333  -0.528   7.149  0.7759  2.1479  0.5782
  617MOL0     H83242   7.169  -0.409   7.009 -1.9568  1.4807 -1.8389
  617MOL0     H83243   7.296  -0.358   6.901 -0.9145 -0.3426  1.4243
  617MOL0     H83244   7.123  -0.566   6.839 -0.0674  1.2958  0.8444
  617MOL0     H83245   7.253  -0.648   6.927 -0.0618 -1.3603 -1.1123
  617MOL0     H83246   7.466  -0.688   6.792  0.3416  0.4620 -0.4264
  617MOL0     H83247   7.621  -0.721   6.567  1.8422 -0.1673  1.0209
  617MOL0     H83248   7.635  -0.581   6.464  2.0369  0.2092  0.6322
  617MOL0     H83249   7.802  -0.612   6.682  1.4418  2.9620  3.7209
  617MOL0     H83250   7.666  -0.511   6.741 -1.6812  1.6856 -2.4336
  617MOL0     H83251   7.844  -0.368   6.676 -0.4042 -0.3374  1.8946
  617MOL0     H83252   7.691  -0.348   6.595 -2.3441 -1.0865  2.4852
  617MOL0     H83253   7.904  -0.321   6.453 -2.6357  0.6413  2.6287
  617MOL0     H83254   7.796  -0.455   6.395 -0.9292 -0.2535  0.4643
  617MOL0     H83255   8.206  -0.534   6.560  2.1817 -2.1051 -0.5793
  617MOL0     H83256   8.499  -0.488   6.413 -1.1145  1.6263 -1.3271
  617MOL0     H83257   8.432  -0.604   6.535  3.2742 -0.5336  0.2992
  617MOL0     H83258   8.481  -0.663   6.372 -0.7312 -0.1374  0.0839
  617MOL0     H83259   8.543  -0.710   5.943 -0.9367  0.8024 -1.1025
  617MOL0     H83260   8.740  -0.716   5.786  3.4855 -2.3244  2.5715
  617MOL0     H83261   8.903  -0.620   5.594 -1.0184  1.0636  0.1046
  617MOL0     H83262   8.804  -0.512   5.666 -0.7687 -1.6950  0.9238
  617MOL0     H83263   8.998  -0.418   5.519 -0.9140 -0.5209 -0.0500
  617MOL0     H83264   8.941  -0.327   5.652 -0.1074  1.0564  1.4439
  617MOL0     H83265   9.158  -0.520   5.689 -6.2679 -1.2820  0.1613
  617MOL0     H83266   9.121  -0.389   5.794  1.1174 -5.1865  0.9646
  617MOL0     H83267   9.315  -0.375   5.584 -0.3588 -0.9327  0.1380
  617MOL0     H83268   9.186  -0.277   5.520 -0.6876 -1.4016 -0.3269
  617MOL0     H83269   9.338  -0.212   5.798 -1.3471  0.9064  1.3461
  617MOL0     H83270   9.206  -0.125   5.709 -1.2559 -0.6844 -1.8328
  617MOL0     H83271   9.495  -0.177   5.629  0.4420  0.2602  0.7316
  617MOL0     H83272   9.363  -0.137   5.514  4.0378 -0.5769 -1.5750
  617MOL0     H83273   9.472  -0.003   5.758  0.6751  0.1669 -1.0233
  617MOL0     H83274   9.321   0.061   5.663  0.8287  2.2213  0.8705
  617MOL0     H83275   9.603   0.034   5.565 -0.7487 -1.7599  0.7236
  617MOL0     H83276   9.529   0.179   5.624  0.9580  0.0326 -1.4661
  617MOL0     H83277   8.936  -0.427   6.014 -1.3191  1.8040  1.1484
  617MOL0     H83278   8.740  -0.411   6.165 -2.9354  0.2717 -1.2717
  617MOL0     H83279   8.156  -0.513   6.069  2.8372  4.0599 -0.4765
  617MOL0     H83280   7.961  -0.491   6.212 -1.5936 -3.5611  0.7202
  617MOL0     H83281   8.080  -0.146   7.312  1.3065  1.2429 -0.9941
  617MOL0     H83282   8.140   0.092   7.320  0.0004 -2.5064 -2.0646
  617MOL0     H83283   7.855   0.630   7.457  0.9119 -2.0848 -1.1119
  617MOL0     H83284   7.964   0.832   7.504  1.1450  0.9348 -1.0867
  617MOL0     H83285   8.049   1.006   7.561 -0.7531 -1.7844  0.1130
  617MOL0     H83286   8.187   1.092   7.585 -1.5270  0.0944  0.9852
  617MOL0     H83287   8.216   0.908   7.353  2.0185  0.1606 -0.9396
  617MOL0     H83288   8.281   1.068   7.398  0.7819 -0.5122  0.2805
  617MOL0     H83289   8.084   1.175   7.341  3.1855 -0.8868 -0.0533
  617MOL0     H83290   7.981   1.026   7.373 -0.2236 -1.1097  0.0476
  617MOL0     H83291   7.984   1.080   7.140  0.4078  2.1609  1.2667
  617MOL0     H83292   8.064   0.926   7.168 -0.0136  0.5641 -1.9912
  617MOL0     H83293   8.370   1.198   7.025  1.4560 -0.8963  1.5744
  617MOL0     H83294   8.303   0.617   7.670  0.2678  0.7576 -0.2512
  617MOL0     H83295   8.214   0.426   7.605  2.6398  1.0091 -1.9110
  618MOL0     O83296  10.819   7.203   0.586 -0.3798  0.0072  0.2097
  618MOL0     C83297  10.762   7.272   0.676 -1.5808 -0.6145 -0.2296
  618MOL0     O83298  10.680   7.224   0.786 -0.8715  0.2721 -0.0432
  618MOL0     C83299  10.665   7.087   0.816  0.4516  0.5995  0.7845
  618MOL0     C83300  10.709   6.971   0.742  0.0643 -0.4872 -0.4301
  618MOL0     C83301  10.691   6.840   0.795 -0.7065  0.4181  0.5496
  618MOL0     C83302  10.637   6.820   0.918  0.2649 -0.4825 -0.8874
  618MOL0     O83303  10.633   6.709   0.995  0.3284 -0.4274  0.0742
  618MOL0     C83304  10.639   6.580   0.932 -0.0941 -0.6168  0.8440
  618MOL0     C83305  10.592   6.466   1.019 -0.6343 -0.6318  0.3988
  618MOL0     C83306  10.685   6.435   1.145  0.6309 -0.5629  0.7667
  618MOL0     C83307  10.654   6.296   1.205  0.1469  0.6081 -0.4807
  618MOL0     C83308  10.742   6.262   1.331 -0.2832  0.2385  0.9784
  618MOL0     C83309  10.725   6.125   1.391 -0.2953  0.6021 -0.2073
  618MOL0     C83310  10.862   6.075   1.451 -0.3593 -1.0538  0.1251
  618MOL0     C83311  10.849   5.941   1.502  0.3996  0.5436  0.1842
  618MOL0     N83312  10.815   5.834   1.408 -0.5531  0.0297  0.6701
  618MOL0     C83313  10.724   5.740   1.419  0.3779  0.1695  0.0728
  618MOL0     C83314  10.718   5.672   1.299  0.1907 -1.0824  0.5376
  618MOL0     C83315  10.637   5.554   1.254  0.6892  1.5011 -0.4225
  618MOL0     C83316  10.563   5.483   1.363  0.9427  0.9523 -0.6877
  618MOL0     C83317  10.665   5.389   1.438  0.0062 -0.1999  0.0777
  618MOL0     C83318  10.589   5.312   1.546  0.2252 -0.9371 -0.3552
  618MOL0     O83319  10.605   5.404   1.659  0.3008  0.3631 -0.0966
  618MOL0     C83320  10.595   5.336   1.781  0.1671  0.5955 -0.0146
  618MOL0     C83321  10.511   5.229   1.820 -0.2080  0.1754  0.3759
  618MOL0     C83322  10.505   5.193   1.955 -1.4384 -0.2255 -0.2751
  618MOL0     C83323  10.427   5.062   1.967  0.0136  0.1618  0.8377
  618MOL0     C83324  10.577   5.254   2.061 -0.7906  0.1613  1.0552
  618MOL0     C83325  10.575   5.219   2.202 -0.3833  0.4760 -0.7915
  618MOL0     O83326  10.695   5.250   2.276 -0.1545  0.3598 -0.5462
  618MOL0     C83327  10.726   5.206   2.407 -0.0453 -0.3087 -0.2175
  618MOL0     C83328  10.854   5.190   2.453 -0.2175  0.0126  1.4594
  618MOL0     C83329  10.884   5.145   2.578 -0.2523 -0.1935  0.3142
  618MOL0     C83330  10.781   5.165   2.681 -0.9657  0.6715  0.2598
  618MOL0     O83331  10.800   5.117   2.807  0.0487  0.2021 -0.2316
  618MOL0     C83332  10.829   5.233   2.892 -0.4740  0.2579 -0.0180
  618MOL0     C83333  10.835   5.182   3.035  0.4829  0.0598 -0.9034
  618MOL0     C83334  10.910   5.291   3.115  1.0662  0.3434 -1.1244
  618MOL0     C83335  10.813   5.378   3.194  0.7994 -0.1531 -0.1728
  618MOL0     C83336  10.764   5.319   3.324 -0.9242  0.7182  0.2782
  618MOL0     C83337  10.671   5.406   3.407  0.3518 -0.6651  0.0262
  618MOL0     C83338  10.642   5.344   3.543  0.2323  1.1312 -0.4346
  618MOL0     C83339  10.538   5.413   3.625  0.0273  0.0430 -0.1001
  618MOL0    Cl83340  10.584   5.424   3.798  0.1809 -0.2397  0.5034
  618MOL0     C83341  10.650   5.169   2.638 -0.1036  0.4542 -0.1677
  618MOL0     C83342  10.622   5.192   2.502 -0.0927  0.9058  0.0775
  618MOL0     O83343  10.484   5.150   2.250 -1.3844 -0.9237 -0.7625
  618MOL0     C83344  10.670   5.349   2.017 -0.1446  0.5695  0.0473
  618MOL0     C83345  10.681   5.389   1.878  0.3857 -1.2230 -0.7733
  618MOL0     N83346  10.817   5.722   1.222 -0.0695 -0.0193  0.1463
  618MOL0     N83347  10.883   5.818   1.286 -0.0536 -0.1801 -0.5787
  618MOL0     C83348  10.580   6.932   0.981  0.5586  0.1868  0.5010
  618MOL0     C83349  10.599   7.064   0.932  0.2714  0.7207  0.7544
  618MOL0     C83350  10.790   7.418   0.669 -0.2927 -0.9518 -0.3304
  618MOL0     C83351  10.853   7.487   0.559  0.6614 -0.0403  0.3186
  618MOL0     C83352  10.861   7.626   0.565  0.5412 -0.4811  0.1844
  618MOL0     C83353  10.810   7.696   0.670 -0.3270  0.2692 -0.8328
  618MOL0     O83354  10.806   7.829   0.665  0.2916 -0.7713 -0.0151
  618MOL0     C83355  10.674   7.889   0.652 -0.4653  0.1988  0.2393
  618MOL0     C83356  10.657   7.965   0.784  0.7203 -0.3242 -0.3048
  618MOL0     C83357  10.772   8.059   0.815 -0.6267 -0.4675  0.6211
  618MOL0     C83358  10.853   7.997   0.927 -0.1802 -0.4274 -0.2322
  618MOL0     C83359  10.956   8.082   0.976  0.7611  0.2051 -0.4661
  618MOL0     C83360  11.046   8.152   1.015  0.6767 -0.2743 -0.5057
  618MOL0     C83361  10.754   7.639   0.778 -0.0746  0.3201 -0.5477
  618MOL0     C83362  10.743   7.498   0.780 -0.7680 -0.2539  1.0468
  618MOL0     H83363  10.778   6.980   0.659  0.3954 -0.9823 -0.2116
  618MOL0     H83364  10.743   6.763   0.739 -3.4337 -2.1511  1.3073
  618MOL0     H83365  10.571   6.591   0.846  2.6044  1.3044 -1.2178
  618MOL0     H83366  10.743   6.563   0.905  0.3495 -0.1797  2.1963
  618MOL0     H83367  10.489   6.484   1.052 -1.4657 -0.2887 -2.1525
  618MOL0     H83368  10.602   6.378   0.955  2.1884 -1.8462  2.3111
  618MOL0     H83369  10.792   6.432   1.121  0.7922 -0.7275  1.4710
  618MOL0     H83370  10.664   6.520   1.209  1.7676  1.9230 -1.9436
  618MOL0     H83371  10.552   6.296   1.245  0.5389 -3.6666  0.9985
  618MOL0     H83372  10.648   6.216   1.131 -0.3809  0.8733 -0.7266
  618MOL0     H83373  10.837   6.274   1.278 -2.0168  1.0030 -2.2233
  618MOL0     H83374  10.738   6.336   1.411  2.5307  1.6272 -0.0379
  618MOL0     H83375  10.653   6.123   1.474  0.4214  2.0308  0.4816
  618MOL0     H83376  10.706   6.053   1.310 -2.8862 -0.8739  1.5507
  618MOL0     H83377  10.937   6.057   1.374 -3.4266 -0.0469 -3.3799
  618MOL0     H83378  10.906   6.148   1.519  2.3040  1.4340 -3.8877
  618MOL0     H83379  10.765   5.952   1.572 -0.7679  2.5336 -1.4013
  618MOL0     H83380  10.940   5.907   1.553 -0.2894 -1.6019  0.0798
  618MOL0     H83381  10.665   5.726   1.510 -0.5501  2.6024 -0.0888
  618MOL0     H83382  10.555   5.587   1.190  1.5336  2.2558 -1.1447
  618MOL0     H83383  10.691   5.480   1.195  3.2735  2.1318  0.9980
  618MOL0     H83384  10.488   5.422   1.312  3.3844 -1.4063 -1.6921
  618MOL0     H83385  10.506   5.552   1.426 -0.8077  0.6620 -1.8840
  618MOL0     H83386  10.753   5.446   1.470 -1.1101  1.7928 -0.2347
  618MOL0     H83387  10.700   5.303   1.379  1.7125  0.7839 -0.4183
  618MOL0     H83388  10.626   5.211   1.566 -1.8783 -1.6454  0.2642
  618MOL0     H83389  10.481   5.304   1.530 -0.2225  4.5369 -2.1989
  618MOL0     H83390  10.441   5.189   1.747 -2.5679  2.9870  0.9040
  618MOL0     H83391  10.367   5.044   2.057  0.1460 -0.4003  0.8149
  618MOL0     H83392  10.365   5.047   1.878  1.3634  1.1399 -0.3192
  618MOL0     H83393  10.495   4.977   1.972  1.0890  1.0398  2.1130
  618MOL0     H83394  10.936   5.195   2.383  1.0430 -3.2405  2.4956
  618MOL0     H83395  10.984   5.106   2.591  1.1858  2.6929 -1.1503
  618MOL0     H83396  10.919   5.282   2.853 -0.3917  2.2389  2.4365
  618MOL0     H83397  10.755   5.314   2.883  1.8364  2.3006 -2.8694
  618MOL0     H83398  10.733   5.185   3.077  0.4043  4.5957 -1.0272
  618MOL0     H83399  10.887   5.087   3.049  0.9566  0.5837  1.2623
  618MOL0     H83400  10.961   5.361   3.048 -0.3178 -1.2278 -4.0193
  618MOL0     H83401  10.980   5.235   3.178  0.6764  1.0967  0.0132
  618MOL0     H83402  10.853   5.479   3.212 -0.9632  1.0785 -2.5865
  618MOL0     H83403  10.726   5.405   3.134 -0.3854  2.4482  2.4211
  618MOL0     H83404  10.850   5.303   3.390 -0.5169 -2.4283 -0.8380
  618MOL0     H83405  10.712   5.225   3.304  1.0261 -0.9421  2.4246
  618MOL0     H83406  10.704   5.507   3.430  0.6384 -0.8135  0.2700
  618MOL0     H83407  10.582   5.402   3.344 -0.4326 -2.6257  1.1624
  618MOL0     H83408  10.740   5.329   3.589  0.6175 -2.9727 -2.1433
  618MOL0     H83409  10.595   5.248   3.516 -1.7196  1.3397  1.8130
  618MOL0     H83410  10.444   5.357   3.632  0.9782 -1.5777  0.2192
  618MOL0     H83411  10.511   5.507   3.575  0.1118 -0.8801 -1.9508
  618MOL0     H83412  10.577   5.148   2.715  1.3601  0.0851  1.1582
  618MOL0     H83413  10.518   5.181   2.473  0.8240 -1.9727 -2.7662
  618MOL0     H83414  10.722   5.410   2.090 -1.0008 -1.7680  2.8054
  618MOL0     H83415  10.751   5.464   1.841  1.1252 -0.6477  1.5927
  618MOL0     H83416  10.535   6.914   1.078 -0.0301  2.8150  0.7849
  618MOL0     H83417  10.543   7.134   0.994 -0.8108 -0.3210  0.9966
  618MOL0     H83418  10.901   7.428   0.482 -1.4401 -0.5895 -0.6427
  618MOL0     H83419  10.910   7.679   0.483  0.6030 -0.0451  0.5021
  618MOL0     H83420  10.672   7.969   0.576 -0.2253 -0.3967 -0.4048
  618MOL0     H83421  10.594   7.816   0.639 -1.8951  1.2696  2.4752
  618MOL0     H83422  10.631   7.907   0.873  1.2381  0.5323  0.4273
  618MOL0     H83423  10.572   8.033   0.779  2.1933  1.7842  1.4294
  618MOL0     H83424  10.744   8.162   0.840 -1.4739 -0.4168 -0.5025
  618MOL0     H83425  10.837   8.068   0.727 -0.9376  1.2177  0.5442
  618MOL0     H83426  10.902   7.904   0.895  1.6634  0.2376  0.5017
  618MOL0     H83427  10.793   7.957   1.009  2.7534 -0.3565  2.1122
  618MOL0     H83428  11.135   8.199   1.052  0.8723 -1.1995  0.2322
  618MOL0     H83429  10.716   7.703   0.857  0.4034  2.9968 -2.3726
  618MOL0     H83430  10.672   7.465   0.855 -1.5327  1.2561  1.0068
  619MOL0     O83431   1.496   7.667   8.394 -0.3078 -0.4904  0.2866
  619MOL0     C83432   1.413   7.593   8.343  0.4695  0.4563  0.3813
  619MOL0     O83433   1.282   7.588   8.375 -0.6551  0.3675 -0.4883
  619MOL0     C83434   1.213   7.673   8.453  0.4556  0.5365 -0.4554
  619MOL0     C83435   1.250   7.800   8.509 -0.1614 -0.1064 -0.3648
  619MOL0     C83436   1.160   7.879   8.585 -0.2258  0.2460  0.1723
  619MOL0     C83437   1.031   7.828   8.613 -0.8827 -0.1556  0.9993
  619MOL0     O83438   0.939   7.900   8.681 -0.1672  0.2107 -0.3069
  619MOL0     C83439   0.938   8.042   8.669 -0.1247  0.5157  1.1700
  619MOL0     C83440   0.889   8.093   8.527  0.2698  1.2103 -1.4541
  619MOL0     C83441   0.898   8.247   8.504 -0.2573  0.1701  0.0304
  619MOL0     C83442   0.871   8.297   8.364 -1.1743 -0.2411  0.6566
  619MOL0     C83443   0.849   8.448   8.344 -0.8218  0.7371 -0.2406
  619MOL0     C83444   0.800   8.478   8.198  0.4186  0.2748 -0.5659
  619MOL0     C83445   0.778   8.629   8.188  0.1515  0.1616  0.3840
  619MOL0     C83446   0.759   8.680   8.032 -0.1669  0.1289 -0.7852
  619MOL0     N83447   0.881   8.651   7.947 -0.6686 -0.5334 -1.3796
  619MOL0     C83448   0.903   8.611   7.812 -0.4493 -0.1501 -0.3908
  619MOL0     C83449   1.032   8.646   7.791 -0.5895  0.2812  0.1776
  619MOL0     C83450   1.103   8.636   7.654  0.2563  0.1861 -0.2788
  619MOL0     C83451   1.209   8.530   7.661 -0.4599  0.6208  0.3398
  619MOL0     C83452   1.167   8.386   7.711 -0.4995 -0.2974 -0.3318
  619MOL0     C83453   1.055   8.338   7.623  0.5264  0.3387  0.1627
  619MOL0     O83454   1.074   8.353   7.480 -0.2300  0.5355  0.1987
  619MOL0     C83455   0.964   8.336   7.394 -0.5678 -0.0220  0.8038
  619MOL0     C83456   0.988   8.409   7.277  0.1407 -0.8640  0.5812
  619MOL0     C83457   0.886   8.404   7.180 -0.4120 -0.1287 -0.7982
  619MOL0     C83458   0.920   8.496   7.059  0.4235  0.0084  0.1363
  619MOL0     C83459   0.769   8.334   7.202  0.2255  0.2529 -0.4762
  619MOL0     C83460   0.658   8.335   7.098  0.2433 -0.4528 -1.7148
  619MOL0     O83461   0.674   8.408   6.986 -0.4113  0.1860  0.5703
  619MOL0     C83462   0.571   8.409   6.901  0.3207 -0.3946 -0.5142
  619MOL0     C83463   0.604   8.408   6.763  0.2895  0.3915  0.2790
  619MOL0     C83464   0.504   8.422   6.658 -0.1818 -0.7120  0.2285
  619MOL0     C83465   0.374   8.462   6.699  0.3708 -0.6677  0.4944
  619MOL0     O83466   0.294   8.486   6.592  0.0128 -0.4905  0.9247
  619MOL0     C83467   0.149   8.457   6.609  0.6774 -1.2179  1.1013
  619MOL0     C83468   0.108   8.430   6.459 -0.3924  0.2014  0.1207
  619MOL0     C83469  -0.030   8.467   6.433 -0.2109 -1.0554  0.4281
  619MOL0     C83470  -0.041   8.615   6.402  0.3817 -0.1119 -0.2905
  619MOL0     C83471  -0.193   8.658   6.392  0.1132  0.7329  0.4653
  619MOL0     C83472  -0.190   8.804   6.338 -0.0407  0.6204 -0.3955
  619MOL0     C83473  -0.331   8.853   6.292 -0.2762  0.9539  0.4279
  619MOL0     C83474  -0.427   8.905   6.406  0.2429  0.3128  0.0295
  619MOL0    Cl83475  -0.344   9.016   6.525 -0.7380 -0.1062  0.2249
  619MOL0     C83476   0.342   8.481   6.836 -0.3014  0.3122 -0.0640
  619MOL0     C83477   0.435   8.436   6.935  0.9356 -0.4187 -0.6869
  619MOL0     O83478   0.558   8.259   7.120 -0.2447  0.3509  0.9848
  619MOL0     C83479   0.758   8.255   7.318 -0.3944 -0.4073  0.5270
  619MOL0     C83480   0.851   8.265   7.423 -0.1393  0.1870 -1.0099
  619MOL0     N83481   1.099   8.678   7.906  0.3886 -0.0244 -0.4876
  619MOL0     N83482   1.008   8.682   7.994  0.1482 -0.1181  0.2313
  619MOL0     C83483   1.006   7.693   8.574  0.8907  0.0339  0.1493
  619MOL0     C83484   1.090   7.621   8.495  1.0721  0.5127 -0.1990
  619MOL0     C83485   1.475   7.500   8.248 -0.1145 -0.1458 -0.0647
  619MOL0     C83486   1.613   7.488   8.232  1.6970  0.2953 -0.4719
  619MOL0     C83487   1.669   7.399   8.151  0.6270 -1.3277 -0.1218
  619MOL0     C83488   1.598   7.298   8.097  0.6508  0.7756 -0.0378
  619MOL0     O83489   1.671   7.211   8.039 -0.1756  0.7306  0.2581
  619MOL0     C83490   1.625   7.166   7.907  0.2691 -1.4720  0.2470
  619MOL0     C83491   1.613   7.286   7.817  0.7843 -0.1156  0.2163
  619MOL0     C83492   1.564   7.217   7.683  0.6390  0.3345  0.2589
  619MOL0     C83493   1.576   7.314   7.560  1.0957  0.0922  0.4585
  619MOL0     C83494   1.517   7.447   7.592  0.4748  0.8956 -0.4207
  619MOL0     C83495   1.468   7.557   7.624 -0.0358  0.8610  0.6727
  619MOL0     C83496   1.452   7.299   8.103 -0.1608 -0.5461  0.0867
  619MOL0     C83497   1.393   7.404   8.183 -0.4610  0.5424 -1.1210
  619MOL0     H83498   1.338   7.844   8.465 -0.3341 -0.0327 -0.6401
  619MOL0     H83499   1.185   7.981   8.613 -0.0013  0.1252  0.4131
  619MOL0     H83500   0.864   8.073   8.744 -2.3590 -0.0822 -0.6724
  619MOL0     H83501   1.029   8.095   8.700 -1.0303  2.2935  0.9054
  619MOL0     H83502   0.951   8.047   8.449  2.2625  0.1262  0.6141
  619MOL0     H83503   0.787   8.056   8.520  0.2035  0.6032  1.4182
  619MOL0     H83504   0.817   8.299   8.556  0.6727  0.9733  0.7155
  619MOL0     H83505   0.997   8.277   8.540  0.9744 -3.6112  0.2819
  619MOL0     H83506   0.957   8.275   8.300 -0.4880  2.1195  0.6710
  619MOL0     H83507   0.781   8.246   8.327 -2.1100  0.6770  1.5999
  619MOL0     H83508   0.775   8.472   8.421 -0.9516  0.8683 -0.4073
  619MOL0     H83509   0.941   8.507   8.345 -2.1618  2.9431 -1.0677
  619MOL0     H83510   0.882   8.438   8.137  2.6778  0.8202  1.9254
  619MOL0     H83511   0.705   8.424   8.186 -0.8266  1.8863  1.5187
  619MOL0     H83512   0.693   8.660   8.249 -0.0558  0.3918 -0.0195
  619MOL0     H83513   0.865   8.685   8.226  0.7741  0.5766 -1.5175
  619MOL0     H83514   0.743   8.788   8.039 -2.8748 -0.2079 -0.8267
  619MOL0     H83515   0.666   8.638   7.994  0.2960 -2.5154  0.7796
  619MOL0     H83516   0.839   8.572   7.733  2.7252 -0.9669 -2.7482
  619MOL0     H83517   1.022   8.615   7.583 -1.3266 -0.4380  1.6012
  619MOL0     H83518   1.140   8.734   7.625 -1.0873  0.4170 -1.3220
  619MOL0     H83519   1.298   8.566   7.714  0.7624  1.8573 -2.3823
  619MOL0     H83520   1.239   8.524   7.556 -2.7796  2.4356 -0.4994
  619MOL0     H83521   1.147   8.392   7.819  0.6144  0.5153 -0.1528
  619MOL0     H83522   1.258   8.327   7.702  0.8562  1.4099  1.3564
  619MOL0     H83523   0.960   8.381   7.657  2.5632  1.9834  4.4071
  619MOL0     H83524   1.032   8.234   7.647  0.1141  0.7348  1.5853
  619MOL0     H83525   1.073   8.477   7.272 -0.1926 -0.5392 -1.6483
  619MOL0     H83526   1.023   8.532   7.053  0.8776 -1.0202  1.3910
  619MOL0     H83527   0.906   8.439   6.966  1.7954 -2.1979  1.1996
  619MOL0     H83528   0.858   8.586   7.048 -0.2045 -0.4038  0.2843
  619MOL0     H83529   0.708   8.387   6.738  1.9277  1.4673  5.0428
  619MOL0     H83530   0.527   8.421   6.552  1.1828 -1.9021  0.5048
  619MOL0     H83531   0.130   8.373   6.676 -5.4831  0.8016  2.5521
  619MOL0     H83532   0.100   8.543   6.655 -1.9161 -2.2208  0.4005
  619MOL0     H83533   0.168   8.479   6.383 -1.4279 -2.1320 -2.3669
  619MOL0     H83534   0.119   8.322   6.449 -1.5895  0.0733 -0.0218
  619MOL0     H83535  -0.097   8.435   6.513 -3.7645 -1.0762 -2.2666
  619MOL0     H83536  -0.066   8.411   6.346 -0.2556  1.8639 -1.6172
  619MOL0     H83537   0.009   8.684   6.471  0.9568  1.3163 -2.0475
  619MOL0     H83538   0.015   8.629   6.309 -1.0161  0.3036 -1.0948
  619MOL0     H83539  -0.259   8.668   6.478 -3.0527  2.4698 -1.9568
  619MOL0     H83540  -0.243   8.584   6.328 -0.6532 -1.8816  3.8061
  619MOL0     H83541  -0.154   8.868   6.419  3.1559  1.8010 -2.5533
  619MOL0     H83542  -0.116   8.820   6.260 -0.3961  0.7319 -0.7129
  619MOL0     H83543  -0.385   8.784   6.227 -0.9356  0.5020  1.4177
  619MOL0     H83544  -0.315   8.942   6.231 -0.8609  1.6822  1.3032
  619MOL0     H83545  -0.463   8.821   6.467 -0.4952 -0.8327 -1.8902
  619MOL0     H83546  -0.510   8.962   6.362  0.8543  0.1255 -1.4331
  619MOL0     H83547   0.242   8.513   6.865  0.1788  0.5847  1.3679
  619MOL0     H83548   0.391   8.440   7.034  1.6224 -3.0342 -0.2037
  619MOL0     H83549   0.676   8.186   7.330 -0.0394 -0.5106  2.7028
  619MOL0     H83550   0.836   8.204   7.511 -3.6308  2.9322  0.5298
  619MOL0     H83551   0.911   7.652   8.606  1.8366 -2.5816 -0.1387
  619MOL0     H83552   1.056   7.527   8.455  1.7004 -0.3788  1.2679
  619MOL0     H83553   1.679   7.556   8.284  0.9701  0.0314  0.8202
  619MOL0     H83554   1.775   7.386   8.132  0.6252 -1.2574 -0.1803
  619MOL0     H83555   1.706   7.106   7.865  2.0530  0.8207  0.2140
  619MOL0     H83556   1.529   7.117   7.926 -1.2563  1.9583  2.3664
  619MOL0     H83557   1.702   7.339   7.781 -0.5499  0.2674 -2.8560
  619MOL0     H83558   1.530   7.350   7.847 -0.2453 -1.1576 -0.3392
  619MOL0     H83559   1.461   7.188   7.707  0.3687  0.8012 -0.2944
  619MOL0     H83560   1.610   7.122   7.654 -0.4820  0.7492 -3.3311
  619MOL0     H83561   1.520   7.290   7.470  0.0555  6.5787 -1.1241
  619MOL0     H83562   1.682   7.319   7.535  1.3133 -1.9155  0.8139
  619MOL0     H83563   1.436   7.647   7.672 -0.5548 -0.8259  3.7695
  619MOL0     H83564   1.382   7.231   8.056 -1.5057  3.1472 -3.8642
  619MOL0     H83565   1.291   7.421   8.215 -0.5832 -0.5303 -0.8820
  620MOL0     O83566   0.790   0.575   1.434 -0.1774 -0.2157  0.6942
  620MOL0     C83567   0.716   0.669   1.413  0.2855 -0.0127  0.3231
  620MOL0     O83568   0.611   0.674   1.319  0.0696 -0.1488  0.0638
  620MOL0     C83569   0.598   0.581   1.224  0.2907  0.3926  0.0902
  620MOL0     C83570   0.607   0.442   1.247 -0.6271 -0.8571 -0.0360
  620MOL0     C83571   0.612   0.355   1.136  0.3109  0.0733  0.0197
  620MOL0     C83572   0.609   0.400   1.010  0.4688 -0.3773 -0.1880
  620MOL0     O83573   0.616   0.308   0.910  0.4357  0.2332 -0.1073
  620MOL0     C83574   0.511   0.336   0.803 -0.1453  0.1329 -0.5408
  620MOL0     C83575   0.538   0.221   0.693 -0.5883 -0.0245  0.1289
  620MOL0     C83576   0.451   0.238   0.573  0.2859  1.1807  0.8532
  620MOL0     C83577   0.445   0.110   0.486 -0.5121 -0.6750 -0.5784
  620MOL0     C83578   0.379   0.154   0.351 -0.0092 -0.3934  1.2902
  620MOL0     C83579   0.484   0.222   0.255  1.1563 -0.3253  0.3541
  620MOL0     C83580   0.404   0.307   0.153  0.2496  0.2635 -0.0140
  620MOL0     C83581   0.395   0.460   0.192 -0.5697  0.7644 -0.3799
  620MOL0     N83582   0.345   0.547   0.086  0.2968 -0.4305  0.6903
  620MOL0     C83583   0.234   0.523   0.001 -0.2875  0.5907 -0.7981
  620MOL0     C83584   0.238   0.615  -0.093  0.9124 -0.6616 -0.4380
  620MOL0     C83585   0.162   0.631  -0.225  0.0594  0.5916 -0.2121
  620MOL0     C83586   0.018   0.675  -0.207  0.1072  0.5048  1.2215
  620MOL0     C83587  -0.054   0.565  -0.130  0.6194  0.8761 -0.5847
  620MOL0     C83588  -0.202   0.613  -0.117 -1.0250  0.5054 -0.2864
  620MOL0     O83589  -0.288   0.561  -0.222  0.6758  0.1754 -0.1727
  620MOL0     C83590  -0.430   0.585  -0.211 -1.3204  0.0433 -0.8426
  620MOL0     C83591  -0.479   0.676  -0.114 -0.4103  0.0746  0.5079
  620MOL0     C83592  -0.620   0.693  -0.102 -0.5019 -0.4623 -0.5271
  620MOL0     C83593  -0.662   0.771   0.023  0.4107  0.0764  0.4248
  620MOL0     C83594  -0.709   0.636  -0.195  0.7171 -0.1685 -1.8150
  620MOL0     C83595  -0.862   0.661  -0.198  0.1063  0.5997  0.0599
  620MOL0     O83596  -0.919   0.636  -0.324 -0.5675  0.2244 -0.3554
  620MOL0     C83597  -1.051   0.604  -0.331 -0.4617 -0.0318 -0.2294
  620MOL0     C83598  -1.157   0.681  -0.271  0.3040  0.0970 -0.3691
  620MOL0     C83599  -1.284   0.649  -0.314 -0.2475 -0.3812  0.7324
  620MOL0     C83600  -1.316   0.558  -0.406  0.3634 -0.1213 -0.5669
  620MOL0     O83601  -1.440   0.560  -0.459 -0.1051 -0.5301  0.2406
  620MOL0     C83602  -1.478   0.461  -0.563  1.6327  0.8600  0.8793
  620MOL0     C83603  -1.623   0.468  -0.577  0.9006 -1.0005 -0.1437
  620MOL0     C83604  -1.681   0.371  -0.688  0.5302  0.4752 -0.6351
  620MOL0     C83605  -1.808   0.312  -0.633 -1.2133  0.1906  0.2669
  620MOL0     C83606  -1.846   0.196  -0.725 -0.8627 -0.2001  1.0336
  620MOL0     C83607  -1.776   0.064  -0.698 -0.6031 -0.2598 -0.2151
  620MOL0     C83608  -1.777  -0.031  -0.822  0.0288 -0.3159  0.0198
  620MOL0     C83609  -1.698  -0.163  -0.805 -0.4261 -0.9074  0.2361
  620MOL0    Cl83610  -1.532  -0.136  -0.749  0.1063  0.3191  0.3548
  620MOL0     C83611  -1.214   0.469  -0.454  0.2635 -0.0503 -0.3565
  620MOL0     C83612  -1.090   0.497  -0.416 -0.6814 -0.6558 -0.0446
  620MOL0     O83613  -0.919   0.696  -0.092 -0.1305  0.7372 -0.2579
  620MOL0     C83614  -0.647   0.554  -0.287  0.1920  0.5981  0.2131
  620MOL0     C83615  -0.514   0.530  -0.307  0.1139 -0.8238  0.2681
  620MOL0     N83616   0.345   0.703  -0.066  0.2620 -0.1232  0.0799
  620MOL0     N83617   0.396   0.664   0.037 -0.2428  0.3749 -0.7350
  620MOL0     C83618   0.607   0.541   0.988 -0.1142  0.0576  0.4311
  620MOL0     C83619   0.600   0.632   1.094  0.5584  1.2248  0.3013
  620MOL0     C83620   0.748   0.791   1.497 -0.8837  0.6489  0.2105
  620MOL0     C83621   0.859   0.790   1.579 -0.2032  0.1704 -1.2728
  620MOL0     C83622   0.882   0.890   1.671  0.1209  0.9045 -0.1796
  620MOL0     C83623   0.811   1.001   1.661  0.3936 -0.0833 -0.2490
  620MOL0     O83624   0.859   1.097   1.745 -0.3252  0.8323  0.3221
  620MOL0     C83625   0.769   1.179   1.806  0.7424 -0.3082  0.4947
  620MOL0     C83626   0.848   1.265   1.906  0.2807  0.7856 -0.2172
  620MOL0     C83627   0.774   1.361   2.006  0.1529 -0.4337  0.2286
  620MOL0     C83628   0.715   1.459   1.916  0.0044 -0.9553 -1.4172
  620MOL0     C83629   0.682   1.575   2.002  0.3425  0.6837 -0.2903
  620MOL0     C83630   0.682   1.668   2.087 -0.5467 -0.3673  0.3903
  620MOL0     C83631   0.697   1.004   1.575 -0.3156 -0.2777  0.8035
  620MOL0     C83632   0.664   0.903   1.493 -0.3965  0.1601 -0.3954
  620MOL0     H83633   0.614   0.410   1.351 -0.4026  0.3181  0.3248
  620MOL0     H83634   0.611   0.250   1.163 -1.8809 -1.5410 -5.0405
  620MOL0     H83635   0.414   0.333   0.853  1.0342  3.8748  2.4091
  620MOL0     H83636   0.516   0.433   0.752 -0.3609  0.6010  0.3188
  620MOL0     H83637   0.644   0.240   0.674  1.1095 -2.6409  5.0806
  620MOL0     H83638   0.533   0.127   0.749  3.3673  1.1932  2.9850
  620MOL0     H83639   0.349   0.254   0.608 -0.7663 -2.0805 -0.3402
  620MOL0     H83640   0.490   0.326   0.520 -1.0469  1.1018 -0.3237
  620MOL0     H83641   0.540   0.061   0.466 -1.5278 -1.2421 -5.0154
  620MOL0     H83642   0.383   0.035   0.536  0.2431 -0.4114  0.7861
  620MOL0     H83643   0.333   0.070   0.299  0.7417  0.4066 -0.7639
  620MOL0     H83644   0.303   0.225   0.384  0.3407 -0.2430  1.7874
  620MOL0     H83645   0.550   0.281   0.320 -1.0078  2.4668  0.1641
  620MOL0     H83646   0.549   0.155   0.198 -1.1981 -1.3771 -1.2464
  620MOL0     H83647   0.457   0.308   0.057  0.3489 -2.6502 -0.0748
  620MOL0     H83648   0.301   0.271   0.146 -0.7595  2.4472  2.0880
  620MOL0     H83649   0.494   0.491   0.227 -1.2053  2.0771  0.3274
  620MOL0     H83650   0.336   0.472   0.283  2.6197 -0.5979  2.0733
  620MOL0     H83651   0.166   0.438   0.002  0.7836 -0.3054 -0.0478
  620MOL0     H83652   0.218   0.707  -0.280  3.2452 -0.9196  0.7092
  620MOL0     H83653   0.164   0.542  -0.289  4.3347  0.5521 -0.2946
  620MOL0     H83654  -0.018   0.677  -0.311  1.7068  0.4768  0.6499
  620MOL0     H83655   0.008   0.775  -0.163  0.6797  0.9753  0.3218
  620MOL0     H83656  -0.030   0.559  -0.024 -0.6085  0.4917 -0.3089
  620MOL0     H83657  -0.059   0.463  -0.169  0.4635  0.3773  0.6869
  620MOL0     H83658  -0.204   0.722  -0.127  3.0092  0.9724  1.7684
  620MOL0     H83659  -0.235   0.580  -0.018 -1.0652 -0.9259 -0.7466
  620MOL0     H83660  -0.420   0.731  -0.041 -2.5684  1.8419  1.0246
  620MOL0     H83661  -0.578   0.792   0.089 -1.9048 -0.4211  3.7771
  620MOL0     H83662  -0.719   0.859  -0.008 -5.2890 -3.3579 -0.3466
  620MOL0     H83663  -0.735   0.723   0.088  1.9216 -2.0464  0.6713
  620MOL0     H83664  -1.139   0.758  -0.197  2.4844  1.1279 -1.8474
  620MOL0     H83665  -1.357   0.717  -0.271 -1.2799 -0.4301 -0.8496
  620MOL0     H83666  -1.432   0.496  -0.656 -3.1191  1.6375 -1.5364
  620MOL0     H83667  -1.460   0.356  -0.538 -0.8655  0.9099  3.3332
  620MOL0     H83668  -1.668   0.443  -0.480  1.4446  0.5544  0.5293
  620MOL0     H83669  -1.670   0.562  -0.607 -2.8562 -2.0934  1.6007
  620MOL0     H83670  -1.622   0.279  -0.702 -1.3579 -1.3378  2.1858
  620MOL0     H83671  -1.697   0.415  -0.787 -0.9445  0.4103 -0.4537
  620MOL0     H83672  -1.791   0.271  -0.533  2.1103  2.1243  0.6460
  620MOL0     H83673  -1.883   0.391  -0.634  0.1652  1.5454 -1.3425
  620MOL0     H83674  -1.829   0.222  -0.830  1.7987 -2.4512  0.7883
  620MOL0     H83675  -1.955   0.184  -0.728 -0.7642 -0.9121 -0.6424
  620MOL0     H83676  -1.671   0.082  -0.672 -0.3895 -0.4382 -0.9510
  620MOL0     H83677  -1.832   0.017  -0.616  0.7925 -0.8290  0.4547
  620MOL0     H83678  -1.736   0.033  -0.900 -1.1013  1.3979  0.7558
  620MOL0     H83679  -1.880  -0.067  -0.834 -0.3304  0.2040  1.3072
  620MOL0     H83680  -1.688  -0.199  -0.908  2.0499  0.1962  0.0091
  620MOL0     H83681  -1.744  -0.242  -0.745  1.2816 -3.1480 -1.2295
  620MOL0     H83682  -1.238   0.383  -0.516  0.7951  0.5971 -1.5106
  620MOL0     H83683  -1.021   0.428  -0.463 -1.6688 -1.1420 -0.8315
  620MOL0     H83684  -0.712   0.497  -0.353  1.6461 -2.5141  1.2826
  620MOL0     H83685  -0.460   0.465  -0.375 -0.3253 -1.0808  0.1646
  620MOL0     H83686   0.608   0.575   0.885 -0.5113  0.6443  0.6193
  620MOL0     H83687   0.591   0.739   1.080 -2.5423  0.9675 -0.4624
  620MOL0     H83688   0.924   0.703   1.580  0.3327  0.5103  1.7882
  620MOL0     H83689   0.963   0.871   1.741 -0.6253 -0.1372  0.4392
  620MOL0     H83690   0.730   1.240   1.724  2.3445  2.0249  1.3472
  620MOL0     H83691   0.688   1.131   1.862  1.7550 -0.5457  1.8179
  620MOL0     H83692   0.922   1.320   1.847  0.2736 -1.2477 -2.2658
  620MOL0     H83693   0.901   1.195   1.971 -1.6361  0.0814  0.6283
  620MOL0     H83694   0.847   1.409   2.071 -0.5017  1.0383 -0.0958
  620MOL0     H83695   0.704   1.315   2.077 -1.4996 -0.5691 -1.4016
  620MOL0     H83696   0.628   1.419   1.861 -2.3264  0.4442  1.0020
  620MOL0     H83697   0.793   1.500   1.852  2.0703 -1.7975  0.4660
  620MOL0     H83698   0.699   1.740   2.165  1.3983  3.1593 -2.9391
  620MOL0     H83699   0.638   1.095   1.574  0.4491  0.4248 -4.2553
  620MOL0     H83700   0.574   0.896   1.431 -0.3940  2.1678 -0.6833
  621MOL0     O83701   1.153   7.468   4.261  0.2587  0.5051  0.0043
  621MOL0     C83702   1.124   7.475   4.375  0.3760 -0.7647  0.5086
  621MOL0     O83703   1.157   7.580   4.462  0.3330 -0.1506  0.6925
  621MOL0     C83704   1.221   7.692   4.411 -0.0416 -0.7646  0.3672
  621MOL0     C83705   1.203   7.760   4.288  0.1987  0.8279  0.5627
  621MOL0     C83706   1.289   7.856   4.240 -1.0413  0.1461 -0.3964
  621MOL0     C83707   1.385   7.919   4.328  0.6940  0.5732  0.0474
  621MOL0     O83708   1.456   8.025   4.278 -0.3265 -0.2990  0.0606
  621MOL0     C83709   1.569   8.091   4.347 -0.0979  0.3458  0.3933
  621MOL0     C83710   1.603   8.217   4.273 -0.5127  1.2800  0.2633
  621MOL0     C83711   1.651   8.195   4.131  0.1604  0.0795  0.3109
  621MOL0     C83712   1.782   8.117   4.125 -0.1939 -0.6289  0.3212
  621MOL0     C83713   1.809   8.067   3.982  0.2503  0.6649 -0.2170
  621MOL0     C83714   1.943   7.996   3.950  0.3645 -0.3718  0.1224
  621MOL0     C83715   1.917   7.847   3.926  0.7077  0.2563  0.6780
  621MOL0     C83716   1.857   7.826   3.783  0.1270 -0.2260 -1.3750
  621MOL0     N83717   1.962   7.829   3.671  1.0006 -0.3034 -0.6098
  621MOL0     C83718   2.073   7.753   3.671 -0.1836  0.4378  1.2843
  621MOL0     C83719   2.138   7.786   3.557  1.0609  0.3813 -0.0683
  621MOL0     C83720   2.271   7.727   3.505 -0.2490  0.0568 -0.1014
  621MOL0     C83721   2.403   7.768   3.586  1.3560 -0.0623 -0.3164
  621MOL0     C83722   2.411   7.919   3.622  0.0023  0.6067  0.5035
  621MOL0     C83723   2.552   7.971   3.660  1.0363 -0.7583 -0.8684
  621MOL0     O83724   2.558   8.116   3.655 -0.3288  0.2933 -0.1379
  621MOL0     C83725   2.569   8.186   3.771  0.5112  0.2930  0.0206
  621MOL0     C83726   2.449   8.185   3.857 -0.5542  0.0387  0.5678
  621MOL0     C83727   2.446   8.237   3.988 -0.2846  0.1547  0.0790
  621MOL0     C83728   2.306   8.250   4.065  0.1905 -0.1280  0.5406
  621MOL0     C83729   2.559   8.301   4.041 -0.5997 -0.5167 -1.2448
  621MOL0     C83730   2.556   8.380   4.166 -0.0949 -0.8649 -0.1941
  621MOL0     O83731   2.671   8.456   4.194 -0.2927 -0.2722 -0.4351
  621MOL0     C83732   2.672   8.536   4.304 -0.4107 -0.4315  0.7688
  621MOL0     C83733   2.795   8.553   4.365  0.4617 -0.2033 -0.4288
  621MOL0     C83734   2.813   8.641   4.475 -1.5856 -0.3794  0.6695
  621MOL0     C83735   2.708   8.711   4.527  0.2835 -1.0383 -0.4857
  621MOL0     O83736   2.734   8.807   4.621  0.0730 -0.4585 -0.3753
  621MOL0     C83737   2.705   8.945   4.583  0.4163  0.5564 -0.1969
  621MOL0     C83738   2.775   9.045   4.675  0.0343 -0.0356 -0.0195
  621MOL0     C83739   2.922   9.055   4.645  0.5466  0.2881 -0.0773
  621MOL0     C83740   2.996   9.147   4.743 -0.4223 -0.7051 -0.6548
  621MOL0     C83741   3.152   9.111   4.751 -0.0839  0.4349  0.1409
  621MOL0     C83742   3.240   9.216   4.828  0.2430  0.2729  0.0277
  621MOL0     C83743   3.228   9.364   4.782 -0.5009  0.1803  0.8347
  621MOL0     C83744   3.337   9.456   4.842 -0.1785  0.0470  0.3611
  621MOL0    Cl83745   3.265   9.546   4.977 -0.1836  0.0338 -0.1073
  621MOL0     C83746   2.582   8.704   4.465  0.9725 -0.2528  0.3404
  621MOL0     C83747   2.561   8.610   4.367 -0.3854 -0.6128  0.2000
  621MOL0     O83748   2.454   8.376   4.238  0.0828  0.4561  0.5273
  621MOL0     C83749   2.681   8.284   3.968 -0.0428 -0.0790  0.8474
  621MOL0     C83750   2.683   8.226   3.841 -0.3014 -0.3266 -0.2850
  621MOL0     N83751   2.067   7.886   3.499 -0.2402  0.6106  0.9074
  621MOL0     N83752   1.964   7.918   3.565 -0.0834  0.2749 -0.3594
  621MOL0     C83753   1.384   7.863   4.456 -0.2048 -0.0370 -0.6126
  621MOL0     C83754   1.317   7.745   4.498 -0.7076 -1.5852  0.7574
  621MOL0     C83755   1.048   7.351   4.428 -0.5101 -0.2005  0.1890
  621MOL0     C83756   1.033   7.231   4.359  0.2204 -0.0954 -0.3588
  621MOL0     C83757   0.934   7.141   4.405  0.1759 -0.4855 -0.2700
  621MOL0     C83758   0.877   7.157   4.535  0.1841 -0.0019 -0.2112
  621MOL0     O83759   0.791   7.073   4.594  0.0982  0.8250  0.9048
  621MOL0     C83760   0.673   7.033   4.515  0.5468  0.2509 -0.4955
  621MOL0     C83761   0.618   7.150   4.420  0.5455  0.4608 -0.6248
  621MOL0     C83762   0.531   7.264   4.492  0.0532  0.8610  0.3337
  621MOL0     C83763   0.396   7.239   4.552  0.0110 -0.1093  0.3889
  621MOL0     C83764   0.327   7.163   4.449  0.2708  0.4435 -0.2705
  621MOL0     C83765   0.261   7.086   4.381  0.5897  0.4502  0.0201
  621MOL0     C83766   0.913   7.268   4.608  0.2294  0.4193  0.5443
  621MOL0     C83767   0.988   7.364   4.552  0.3221 -0.8540  0.4245
  621MOL0     H83768   1.131   7.716   4.220  1.1328 -1.3052  0.8715
  621MOL0     H83769   1.264   7.899   4.143  0.9289  1.1997 -0.4699
  621MOL0     H83770   1.539   8.122   4.448  1.6167 -1.1446  1.4266
  621MOL0     H83771   1.655   8.026   4.366 -1.6737 -2.8281 -2.3314
  621MOL0     H83772   1.514   8.281   4.266  1.2121  3.8099  0.1348
  621MOL0     H83773   1.671   8.273   4.337 -1.2738  1.8419  0.6044
  621MOL0     H83774   1.578   8.141   4.070  2.2886  0.7398 -3.0747
  621MOL0     H83775   1.671   8.291   4.082  3.3868 -1.0807 -0.9043
  621MOL0     H83776   1.863   8.183   4.156 -0.8879  0.6922 -0.5845
  621MOL0     H83777   1.769   8.042   4.203  0.1524  0.9186  1.9230
  621MOL0     H83778   1.724   8.009   3.944  0.9097 -0.2275 -0.3549
  621MOL0     H83779   1.812   8.168   3.939 -1.2799  1.3277  1.1555
  621MOL0     H83780   1.988   8.039   3.860 -0.2426 -1.0342 -0.5141
  621MOL0     H83781   2.006   8.022   4.036 -3.9143 -0.6116  3.6823
  621MOL0     H83782   2.012   7.794   3.929 -0.7613 -2.5271  1.1399
  621MOL0     H83783   1.858   7.808   4.010  0.5881  0.4189  0.6705
  621MOL0     H83784   1.769   7.888   3.771 -2.8112 -3.0275  2.8164
  621MOL0     H83785   1.809   7.728   3.794 -0.8857  0.4021  0.2213
  621MOL0     H83786   2.121   7.686   3.741 -1.4538 -0.7525  1.0429
  621MOL0     H83787   2.258   7.618   3.509 -0.2486  0.0878  0.8354
  621MOL0     H83788   2.290   7.761   3.402  2.2478 -2.8816 -0.7564
  621MOL0     H83789   2.485   7.724   3.528  1.6243 -0.2309  0.1893
  621MOL0     H83790   2.413   7.718   3.682 -1.1014  0.8120  0.4681
  621MOL0     H83791   2.341   7.935   3.705 -0.7563  0.3452 -0.0766
  621MOL0     H83792   2.372   7.975   3.536 -1.2532  1.0054  1.3023
  621MOL0     H83793   2.636   7.936   3.599  2.3497 -0.8233  0.9085
  621MOL0     H83794   2.574   7.928   3.758 -1.8176  1.0199  0.7000
  621MOL0     H83795   2.359   8.139   3.816 -0.7241  0.0843  0.8900
  621MOL0     H83796   2.302   8.195   4.160 -2.3337  3.6411  2.8838
  621MOL0     H83797   2.273   8.354   4.075 -1.6890 -0.8936  3.8421
  621MOL0     H83798   2.230   8.208   3.999 -1.7638  2.1474  1.1988
  621MOL0     H83799   2.878   8.492   4.331  1.5559  0.4873  0.8934
  621MOL0     H83800   2.907   8.633   4.527  1.2255 -3.3606 -4.0743
  621MOL0     H83801   2.731   8.963   4.479 -0.2623 -0.4665 -0.5571
  621MOL0     H83802   2.598   8.968   4.589  0.5834  2.4389 -2.9108
  621MOL0     H83803   2.725   9.142   4.667 -2.3644 -1.3180 -1.3994
  621MOL0     H83804   2.750   9.012   4.776  0.9560  0.9359  0.5567
  621MOL0     H83805   2.959   9.080   4.546  2.1528  0.9947  0.6675
  621MOL0     H83806   2.950   8.950   4.659 -1.4354 -0.2701  0.0648
  621MOL0     H83807   2.973   9.247   4.704 -4.6496 -0.9244  0.8127
  621MOL0     H83808   2.957   9.142   4.845  0.5915  2.1959 -0.0189
  621MOL0     H83809   3.190   9.110   4.648  2.7652 -0.8794  1.1079
  621MOL0     H83810   3.153   9.010   4.792 -1.9518  1.3453  2.6542
  621MOL0     H83811   3.215   9.212   4.935 -1.1305 -0.1975 -0.2939
  621MOL0     H83812   3.347   9.192   4.827  0.0474 -0.9678 -3.2057
  621MOL0     H83813   3.136   9.405   4.823  0.1488  2.5456  0.1055
  621MOL0     H83814   3.233   9.371   4.673  0.0890 -4.6063  0.3054
  621MOL0     H83815   3.376   9.530   4.772  3.0862 -0.5108  1.4329
  621MOL0     H83816   3.424   9.401   4.879 -0.1866 -1.1121 -1.2633
  621MOL0     H83817   2.498   8.765   4.497  1.4426 -0.1568  1.4360
  621MOL0     H83818   2.466   8.616   4.313 -0.0704  0.3925 -0.2517
  621MOL0     H83819   2.780   8.300   4.011  0.2443  1.2226 -0.1880
  621MOL0     H83820   2.776   8.201   3.790  0.4179  2.4086 -0.4640
  621MOL0     H83821   1.455   7.914   4.520  0.8393  0.0602 -1.8039
  621MOL0     H83822   1.323   7.712   4.601  0.8236  2.3944  2.1643
  621MOL0     H83823   1.062   7.210   4.257  0.8881  4.1239 -1.2060
  621MOL0     H83824   0.916   7.049   4.351  2.9048 -1.9313  1.0686
  621MOL0     H83825   0.720   6.952   4.459 -0.1579  0.0088 -0.7365
  621MOL0     H83826   0.598   6.984   4.578 -0.5027  1.0951 -1.0584
  621MOL0     H83827   0.542   7.108   4.353 -2.4497 -1.3201  3.4634
  621MOL0     H83828   0.698   7.183   4.353  1.3127 -1.0150 -0.4671
  621MOL0     H83829   0.525   7.348   4.423 -2.5869  0.5338  0.0710
  621MOL0     H83830   0.587   7.299   4.579  1.0121 -2.9735  1.4580
  621MOL0     H83831   0.351   7.336   4.576  3.1369  0.8036  3.2711
  621MOL0     H83832   0.384   7.196   4.652 -1.0376  1.0058  0.7688
  621MOL0     H83833   0.212   7.014   4.319  1.0515  0.5806 -0.4983
  621MOL0     H83834   0.883   7.279   4.712  0.0952  1.1245  0.4352
  621MOL0     H83835   1.010   7.453   4.612 -0.1610 -0.4819  0.0545
  622MOL0     O83836  10.131  11.202  11.521 -0.1372 -0.0037 -0.4904
  622MOL0     C83837  10.167  11.170  11.632  0.4867  0.4134 -0.2558
  622MOL0     O83838  10.179  11.042  11.682  0.2142 -0.3796 -0.8199
  622MOL0     C83839  10.163  10.926  11.620 -0.6889 -0.6744  0.4994
  622MOL0     C83840  10.213  10.820  11.698 -0.0752  1.0276  0.7068
  622MOL0     C83841  10.200  10.697  11.648  0.2101  0.0231  0.6018
  622MOL0     C83842  10.145  10.674  11.520  0.2714  0.5335  0.6269
  622MOL0     O83843  10.122  10.545  11.461 -0.2614 -0.6120  0.0309
  622MOL0     C83844  10.226  10.451  11.479 -0.5401 -0.0872 -0.4943
  622MOL0     C83845  10.242  10.393  11.338  2.0721 -0.0304  0.5137
  622MOL0     C83846  10.340  10.287  11.346  0.5115  0.6875  0.0242
  622MOL0     C83847  10.275  10.153  11.326  0.4788  0.2558  0.3476
  622MOL0     C83848  10.383  10.046  11.317 -0.1502 -1.1658 -0.2330
  622MOL0     C83849  10.332   9.902  11.348  0.7727 -0.2004 -0.1371
  622MOL0     C83850  10.438   9.808  11.400 -0.2728 -0.1094 -0.2031
  622MOL0     C83851  10.499   9.875  11.532  0.0340  0.5287  0.4085
  622MOL0     N83852  10.529   9.757  11.626  1.0331 -0.4544  1.0131
  622MOL0     C83853  10.437   9.670  11.685 -0.1236  0.2868  0.3517
  622MOL0     C83854  10.495   9.564  11.735 -0.3255  0.0109  0.8527
  622MOL0     C83855  10.438   9.447  11.807  0.7796  0.5607 -0.4888
  622MOL0     C83856  10.390   9.355  11.699 -0.0460 -0.8217 -0.0069
  622MOL0     C83857  10.307   9.238  11.754  0.2625  0.1639  0.9271
  622MOL0     C83858  10.205   9.189  11.646 -0.2353 -0.0892  0.0736
  622MOL0     O83859  10.164   9.055  11.675 -0.3297  0.8422 -0.6761
  622MOL0     C83860  10.080   8.993  11.587 -0.5749  0.2526  0.1112
  622MOL0     C83861  10.075   9.028  11.453  0.6238  0.0777  0.1694
  622MOL0     C83862   9.992   8.962  11.360 -0.5667  0.6859 -0.4323
  622MOL0     C83863   9.996   8.995  11.219 -0.5902  0.6394  0.5058
  622MOL0     C83864   9.914   8.858  11.412 -0.1454  0.4694 -1.3085
  622MOL0     C83865   9.827   8.771  11.329  0.3735  0.4784  0.5626
  622MOL0     O83866   9.719   8.723  11.398 -0.6987  0.6077  1.3813
  622MOL0     C83867   9.640   8.636  11.331  0.2802  1.0152 -1.1193
  622MOL0     C83868   9.682   8.500  11.337  0.5411  0.0388 -0.2762
  622MOL0     C83869   9.597   8.408  11.261 -0.6327 -0.7609  0.6333
  622MOL0     C83870   9.488   8.446  11.187 -0.9209  0.0591 -0.0249
  622MOL0     O83871   9.415   8.356  11.118 -0.2476 -1.5541 -0.2846
  622MOL0     C83872   9.444   8.373  10.973  0.5127  0.1154 -0.6101
  622MOL0     C83873   9.314   8.338  10.886 -0.0310 -0.3051 -0.9771
  622MOL0     C83874   9.216   8.452  10.893  1.0416 -0.6845  0.3408
  622MOL0     C83875   9.078   8.422  10.820 -0.7889  0.4867 -0.6722
  622MOL0     C83876   8.992   8.551  10.842  0.0938  0.6844 -0.0928
  622MOL0     C83877   8.923   8.552  10.987  0.6012  0.3765 -0.8531
  622MOL0     C83878   8.852   8.685  10.996  0.1934  0.3306 -0.6303
  622MOL0     C83879   8.794   8.708  11.138 -0.6335 -0.1181  0.2342
  622MOL0    Cl83880   8.914   8.811  11.231 -0.3648  0.6434 -0.1358
  622MOL0     C83881   9.452   8.582  11.177 -0.3400 -0.6590 -0.4101
  622MOL0     C83882   9.525   8.673  11.255 -0.8302  0.0347  0.1517
  622MOL0     O83883   9.866   8.737  11.213 -1.0956  0.4180  0.2378
  622MOL0     C83884   9.918   8.824  11.553 -0.1858  0.3642  0.5694
  622MOL0     C83885  10.008   8.885  11.636 -1.3852  0.4551 -0.2899
  622MOL0     N83886  10.630   9.581  11.703 -0.7151  0.5550 -0.2043
  622MOL0     N83887  10.645   9.695  11.641 -0.2419 -0.2797 -0.6067
  622MOL0     C83888  10.090  10.784  11.441  0.2904 -0.3372 -0.3140
  622MOL0     C83889  10.096  10.913  11.495 -0.6479  0.1962 -0.3379
  622MOL0     C83890  10.228  11.272  11.723 -0.1397 -0.7982 -0.4522
  622MOL0     C83891  10.310  11.245  11.830  0.8984 -0.4840  0.3284
  622MOL0     C83892  10.366  11.340  11.919  0.0864 -0.3278 -0.0996
  622MOL0     C83893  10.328  11.468  11.910  0.0314 -0.3687 -0.8583
  622MOL0     O83894  10.363  11.572  11.999  0.3936  1.2156  0.2986
  622MOL0     C83895  10.435  11.529  12.116  0.9362  0.4833  0.9082
  622MOL0     C83896  10.483  11.633  12.222 -1.1302  0.6103  0.0531
  622MOL0     C83897  10.374  11.694  12.314 -1.0608  0.0965 -0.3157
  622MOL0     C83898  10.449  11.753  12.428  1.9541  0.6862  0.5398
  622MOL0     C83899  10.343  11.814  12.509  0.3317 -0.1628 -0.3698
  622MOL0     C83900  10.244  11.855  12.574 -0.3743 -0.2539  1.0514
  622MOL0     C83901  10.249  11.504  11.796  0.3881  0.1347  0.7242
  622MOL0     C83902  10.205  11.410  11.704  0.1184 -0.1379  0.9146
  622MOL0     H83903  10.261  10.837  11.794 -0.4667  0.7609  0.9535
  622MOL0     H83904  10.222  10.614  11.715 -0.2532  0.3385  1.1573
  622MOL0     H83905  10.323  10.498  11.501  2.1096 -4.8353 -0.6564
  622MOL0     H83906  10.205  10.382  11.562  2.8175  0.8813  1.3545
  622MOL0     H83907  10.146  10.364  11.295  3.1122 -0.6865 -1.5004
  622MOL0     H83908  10.281  10.474  11.276 -2.3377  3.2634  1.5564
  622MOL0     H83909  10.416  10.296  11.268  3.9660  1.6829  3.2450
  622MOL0     H83910  10.392  10.272  11.441  0.1853 -3.1691 -0.2405
  622MOL0     H83911  10.208  10.128  11.409 -0.9495  0.5057 -0.6987
  622MOL0     H83912  10.224  10.151  11.230  0.5093 -0.4914  0.3403
  622MOL0     H83913  10.418  10.042  11.213 -0.5837 -0.9018 -0.3938
  622MOL0     H83914  10.476  10.067  11.371 -0.5867 -1.2183  0.5480
  622MOL0     H83915  10.242   9.913  11.411 -0.0271  0.2755 -1.3307
  622MOL0     H83916  10.286   9.865  11.256  0.4091  0.0180 -0.0486
  622MOL0     H83917  10.387   9.713  11.417  1.2763 -1.0344 -0.5612
  622MOL0     H83918  10.517   9.802  11.324 -0.2521 -1.1379 -0.1146
  622MOL0     H83919  10.421   9.929  11.586  0.5101  0.3451  1.3139
  622MOL0     H83920  10.589   9.931  11.506  0.3396 -1.7902 -4.6148
  622MOL0     H83921  10.329   9.674  11.681 -0.0667  1.1674 -1.2386
  622MOL0     H83922  10.511   9.403  11.876 -2.6092  1.1664  3.9562
  622MOL0     H83923  10.357   9.478  11.873 -0.1339  1.4931 -2.0041
  622MOL0     H83924  10.475   9.323  11.638 -0.2312 -2.0963  0.3565
  622MOL0     H83925  10.323   9.423  11.646 -2.1173 -2.4657  0.3205
  622MOL0     H83926  10.256   9.278  11.842  2.1629  0.2043  2.0639
  622MOL0     H83927  10.371   9.153  11.782  0.3916 -0.5206 -1.2771
  622MOL0     H83928  10.253   9.184  11.548 -1.9154 -2.8434 -0.7336
  622MOL0     H83929  10.124   9.261  11.632  1.1665  2.5464  3.9357
  622MOL0     H83930  10.133   9.113  11.417  2.0823 -0.6819  0.6385
  622MOL0     H83931  10.079   8.949  11.165 -1.0704 -0.5326  0.7379
  622MOL0     H83932   9.902   8.958  11.175 -0.3326  0.2104  0.3084
  622MOL0     H83933  10.002   9.103  11.199  1.1334  0.0711 -2.8812
  622MOL0     H83934   9.769   8.477  11.397 -0.6918 -1.5151  0.9867
  622MOL0     H83935   9.606   8.300  11.251  1.3158 -0.9013  3.1024
  622MOL0     H83936   9.470   8.473  10.937  2.1814 -0.3922 -0.9521
  622MOL0     H83937   9.526   8.308  10.939  0.8049 -0.1598  0.5748
  622MOL0     H83938   9.328   8.325  10.778  1.4966 -0.6777 -0.7470
  622MOL0     H83939   9.257   8.251  10.920 -3.1517  1.0120 -2.3933
  622MOL0     H83940   9.262   8.535  10.839  0.2899 -0.0088  0.7118
  622MOL0     H83941   9.188   8.477  10.995 -1.1445  0.0853 -0.3757
  622MOL0     H83942   9.081   8.409  10.712 -0.8687 -0.9030 -0.5267
  622MOL0     H83943   9.039   8.329  10.863 -0.8982  1.1153  0.6507
  622MOL0     H83944   8.906   8.552  10.774  0.2198 -0.3471 -0.2724
  622MOL0     H83945   9.059   8.638  10.840  3.2782 -1.6119 -0.1768
  622MOL0     H83946   8.854   8.466  10.990 -0.6050  1.3499  1.2456
  622MOL0     H83947   8.991   8.522  11.067 -1.8153  0.4079  1.3702
  622MOL0     H83948   8.773   8.674  10.921  0.3618 -1.2461 -0.6116
  622MOL0     H83949   8.925   8.764  10.976  2.8098 -2.2427 -2.0153
  622MOL0     H83950   8.753   8.627  11.199  0.7561 -0.4844  0.7261
  622MOL0     H83951   8.711   8.778  11.122 -0.1972 -0.0198 -1.7958
  622MOL0     H83952   9.376   8.604  11.103 -0.4684  2.1018  0.4232
  622MOL0     H83953   9.501   8.779  11.254 -0.5229  0.1208  0.9052
  622MOL0     H83954   9.855   8.752  11.604 -1.4586  0.2141 -1.1227
  622MOL0     H83955  10.020   8.859  11.740 -0.1683  1.6748 -0.0962
  622MOL0     H83956  10.036  10.795  11.347  0.8835  1.6925 -0.4688
  622MOL0     H83957  10.053  11.003  11.452  1.3368  1.4625  0.2058
  622MOL0     H83958  10.338  11.144  11.858 -0.2113 -0.2590  2.4681
  622MOL0     H83959  10.444  11.312  11.990 -0.6358  0.0238  0.8486
  622MOL0     H83960  10.359  11.466  12.164  0.1129  0.7346 -0.0225
  622MOL0     H83961  10.528  11.473  12.102  2.1252  1.7314  3.2404
  622MOL0     H83962  10.547  11.702  12.166  0.9358 -1.9339 -0.9536
  622MOL0     H83963  10.546  11.577  12.292 -0.0501 -1.0165 -2.1185
  622MOL0     H83964  10.302  11.618  12.347 -1.0528  0.3233  0.2287
  622MOL0     H83965  10.324  11.765  12.248 -0.2335  0.0723 -0.9926
  622MOL0     H83966  10.522  11.828  12.399  0.5127  2.3489  1.0209
  622MOL0     H83967  10.490  11.668  12.484 -0.6628 -0.9514  0.1519
  622MOL0     H83968  10.160  11.892  12.630 -0.9076  2.6605 -1.4448
  622MOL0     H83969  10.216  11.606  11.779 -0.2515 -0.3683 -1.4676
  622MOL0     H83970  10.121  11.439  11.641  0.3597  0.3941  0.8265
  623MOL0     O83971   9.087   3.096   9.787  0.8135  0.0789  0.0556
  623MOL0     C83972   9.129   3.176   9.869  0.4323  0.2359  0.3480
  623MOL0     O83973   9.226   3.150   9.962 -0.8043 -0.0051 -0.3253
  623MOL0     C83974   9.311   3.050   9.926 -0.5860 -0.2500  0.0066
  623MOL0     C83975   9.399   3.054   9.817  0.8717 -1.2873 -0.5248
  623MOL0     C83976   9.478   2.948   9.773 -0.1924  0.1470  0.4520
  623MOL0     C83977   9.462   2.817   9.829 -0.9146 -0.4857  0.6090
  623MOL0     O83978   9.515   2.711   9.759  0.2882  0.1104  0.3480
  623MOL0     C83979   9.547   2.723   9.617 -0.5614  0.0812 -0.5860
  623MOL0     C83980   9.587   2.594   9.556  0.3027 -0.0442 -0.1799
  623MOL0     C83981   9.474   2.493   9.558  0.5172 -0.1686  0.3286
  623MOL0     C83982   9.399   2.494   9.424  0.3605  0.1096  0.3940
  623MOL0     C83983   9.308   2.372   9.390 -0.2726  1.8110  1.1516
  623MOL0     C83984   9.295   2.366   9.240  1.6131  0.7281  0.0725
  623MOL0     C83985   9.194   2.260   9.207 -0.7471 -0.2413 -0.3234
  623MOL0     C83986   9.270   2.123   9.211 -0.0273  0.1937  0.2399
  623MOL0     N83987   9.177   2.004   9.204 -1.1758  0.6092  0.5654
  623MOL0     C83988   9.104   1.975   9.089  0.2023  0.2416 -0.3125
  623MOL0     C83989   9.028   1.872   9.131 -0.6684  0.5606  0.0896
  623MOL0     C83990   8.934   1.799   9.048 -0.7345  0.2236  0.3710
  623MOL0     C83991   8.793   1.862   9.057 -0.0219 -0.1404  0.3201
  623MOL0     C83992   8.752   1.929   8.920 -0.9476  0.0666 -0.9272
  623MOL0     C83993   8.825   2.041   8.851 -0.4262 -0.3405  0.0128
  623MOL0     O83994   8.847   2.138   8.952 -0.4280  0.6265 -0.1204
  623MOL0     C83995   8.861   2.275   8.919  0.7318  0.9395  0.2879
  623MOL0     C83996   8.863   2.319   8.783 -0.4854 -1.0682 -0.4523
  623MOL0     C83997   8.890   2.459   8.760 -0.1131  0.0405  0.5291
  623MOL0     C83998   8.911   2.509   8.615 -0.0364 -0.0776 -0.0743
  623MOL0     C83999   8.916   2.557   8.869 -0.1624  1.5571 -0.0780
  623MOL0     C84000   8.949   2.699   8.850  0.9757  0.0210 -0.3845
  623MOL0     O84001   8.889   2.777   8.948  0.2195 -0.0487  0.8504
  623MOL0     C84002   8.917   2.913   8.948 -1.0543  0.0068  0.5237
  623MOL0     C84003   8.879   3.016   8.854  0.1811 -0.6016 -0.3967
  623MOL0     C84004   8.899   3.151   8.871  0.2507  0.1873  0.3138
  623MOL0     C84005   8.956   3.201   8.980  0.7067 -0.1235 -0.0631
  623MOL0     O84006   8.973   3.331   8.994  0.4638 -0.7943 -0.5990
  623MOL0     C84007   9.107   3.388   9.030 -0.1616 -0.3219 -0.2275
  623MOL0     C84008   9.207   3.353   8.924 -0.2444  0.0740 -0.2517
  623MOL0     C84009   9.162   3.412   8.795  0.3563 -0.5125  0.2589
  623MOL0     C84010   9.255   3.394   8.673  0.5603 -0.3471 -0.1972
  623MOL0     C84011   9.251   3.494   8.557  0.7440 -0.5577  0.4596
  623MOL0     C84012   9.323   3.621   8.613  0.5378 -1.3104 -0.9123
  623MOL0     C84013   9.335   3.724   8.509 -0.1410 -0.7744  0.2001
  623MOL0     C84014   9.366   3.857   8.596  0.1167 -0.2062  0.1130
  623MOL0    Cl84015   9.542   3.846   8.646  0.4161  0.0129 -0.6740
  623MOL0     C84016   8.996   3.116   9.086 -0.2770 -0.1699  0.4425
  623MOL0     C84017   8.972   2.973   9.070  0.2934 -0.5992  0.8628
  623MOL0     O84018   9.012   2.733   8.751  0.5614 -0.6356 -1.0459
  623MOL0     C84019   8.891   2.508   8.997  0.2178 -0.3877  0.2361
  623MOL0     C84020   8.880   2.367   9.022  0.7844 -0.9259 -0.2255
  623MOL0     N84021   9.073   1.831   9.254 -0.6874 -0.4316  0.5361
  623MOL0     N84022   9.159   1.913   9.305  0.7503  0.3487  1.0296
  623MOL0     C84023   9.387   2.811   9.943 -0.6554 -1.0879  0.1253
  623MOL0     C84024   9.315   2.927   9.993 -0.3271  0.3536  0.8750
  623MOL0     C84025   9.063   3.312   9.872 -0.0703 -0.0816  1.6361
  623MOL0     C84026   9.020   3.383   9.755 -0.5705  0.7126 -0.6950
  623MOL0     C84027   8.968   3.508   9.777 -0.8966 -0.5099  0.4514
  623MOL0     C84028   8.980   3.578   9.902 -0.4556 -0.8707 -0.9106
  623MOL0     O84029   8.954   3.711   9.930  0.4228  0.1011 -0.0022
  623MOL0     C84030   8.944   3.787   9.807  0.8309 -0.3920  0.6394
  623MOL0     C84031   8.994   3.923   9.843 -0.6461  0.6249  0.1258
  623MOL0     C84032   8.971   4.033   9.733 -0.2507  0.6196 -0.9145
  623MOL0     C84033   9.100   4.132   9.721  0.7742 -0.5352 -1.0694
  623MOL0     C84034   9.205   4.064   9.653 -1.5125 -0.8672  0.0209
  623MOL0     C84035   9.291   3.998   9.597 -0.2274 -0.4586 -0.0257
  623MOL0     C84036   9.004   3.500  10.016 -0.1573  1.4402  0.0718
  623MOL0     C84037   9.041   3.370  10.002 -0.0175  0.5057  0.0921
  623MOL0     H84038   9.406   3.148   9.763  0.0578 -0.7151  0.3370
  623MOL0     H84039   9.540   2.953   9.683  1.8992 -0.0151  1.8057
  623MOL0     H84040   9.455   2.752   9.564 -0.6676 -0.5596 -0.7645
  623MOL0     H84041   9.631   2.789   9.594 -0.3210 -0.3923 -1.0827
  623MOL0     H84042   9.624   2.621   9.457  3.1764  0.8348  1.0513
  623MOL0     H84043   9.674   2.559   9.612  2.3494  1.7829 -2.0225
  623MOL0     H84044   9.503   2.390   9.584 -1.6645  0.1507  5.1275
  623MOL0     H84045   9.405   2.511   9.641  1.3679 -0.2872  1.0731
  623MOL0     H84046   9.338   2.585   9.427  0.7647  0.3605  1.2363
  623MOL0     H84047   9.473   2.522   9.349  2.2318  2.1818  2.8337
  623MOL0     H84048   9.364   2.285   9.425  0.0296  0.9841 -1.2460
  623MOL0     H84049   9.210   2.390   9.436 -0.1535 -0.1207  2.2485
  623MOL0     H84050   9.246   2.457   9.205 -1.2006 -1.0814 -1.0339
  623MOL0     H84051   9.391   2.356   9.189  1.1154 -0.2758 -0.7059
  623MOL0     H84052   9.110   2.262   9.277 -1.0666 -2.8466 -0.4987
  623MOL0     H84053   9.144   2.283   9.112 -0.9572  2.7405  0.4255
  623MOL0     H84054   9.333   2.113   9.301 -0.7862  1.0869  0.9013
  623MOL0     H84055   9.333   2.114   9.122  2.9807  0.0370  2.2243
  623MOL0     H84056   9.099   2.027   8.994  0.3699 -1.0165 -1.0268
  623MOL0     H84057   8.980   1.789   8.950 -1.3670 -0.3832  0.1339
  623MOL0     H84058   8.930   1.695   9.082  2.4343 -1.7448 -4.3226
  623MOL0     H84059   8.786   1.935   9.138 -2.1800  1.8947 -1.5565
  623MOL0     H84060   8.713   1.789   9.072 -1.5606  0.3624 -3.9909
  623MOL0     H84061   8.652   1.971   8.936 -0.5607  0.8437 -0.4481
  623MOL0     H84062   8.764   1.845   8.851  3.5345 -1.1691  0.9865
  623MOL0     H84063   8.785   2.059   8.750  0.7199 -3.5193 -1.1386
  623MOL0     H84064   8.927   2.013   8.822  0.4501  1.3877  1.2344
  623MOL0     H84065   8.853   2.259   8.693  2.8807 -1.3245 -0.7701
  623MOL0     H84066   9.010   2.552   8.601 -0.0013 -1.0078 -4.2160
  623MOL0     H84067   8.889   2.427   8.547  1.6211  1.1609 -2.2413
  623MOL0     H84068   8.847   2.594   8.589  0.6917  0.6249  0.3936
  623MOL0     H84069   8.834   2.996   8.757 -1.7931  0.9852  0.1156
  623MOL0     H84070   8.870   3.221   8.793  0.0610 -0.1336  0.0951
  623MOL0     H84071   9.099   3.493   9.059 -0.9792 -0.8510  1.6866
  623MOL0     H84072   9.145   3.333   9.117 -1.1013 -2.3369 -1.0306
  623MOL0     H84073   9.310   3.374   8.951  0.4149 -0.5925 -2.0738
  623MOL0     H84074   9.200   3.247   8.900 -0.3054  0.2862 -1.2128
  623MOL0     H84075   9.151   3.518   8.820  0.4998 -0.1412 -1.1953
  623MOL0     H84076   9.062   3.372   8.774 -1.2581  1.9076  2.6600
  623MOL0     H84077   9.354   3.397   8.719  0.7087  2.4504 -0.5474
  623MOL0     H84078   9.234   3.292   8.638  0.9489 -0.0460 -1.3259
  623MOL0     H84079   9.151   3.527   8.528  0.3291  1.3272  3.5889
  623MOL0     H84080   9.299   3.449   8.470  1.8759 -2.1844  1.8376
  623MOL0     H84081   9.268   3.658   8.700  3.9193  4.1116 -0.6297
  623MOL0     H84082   9.424   3.593   8.644  2.5317  3.8381 -1.8589
  623MOL0     H84083   9.240   3.738   8.456 -0.8292  0.9106  1.7566
  623MOL0     H84084   9.418   3.682   8.452  0.1490 -3.0373  2.1234
  623MOL0     H84085   9.303   3.862   8.685 -0.5840  3.7449 -0.4170
  623MOL0     H84086   9.352   3.950   8.540  1.7625 -1.0703 -1.8681
  623MOL0     H84087   9.051   3.150   9.174 -2.6210 -1.8163  2.6813
  623MOL0     H84088   9.001   2.904   9.149 -0.2984 -3.8060 -1.5612
  623MOL0     H84089   8.887   2.587   9.072 -0.0648  0.4022 -0.5987
  623MOL0     H84090   8.869   2.331   9.124 -0.5374  1.0059  0.3696
  623MOL0     H84091   9.372   2.714   9.991  1.7838 -1.4977  0.1880
  623MOL0     H84092   9.240   2.898  10.066 -1.0760  1.0189  0.3831
  623MOL0     H84093   9.019   3.333   9.659 -1.2188 -0.1410 -0.2592
  623MOL0     H84094   8.922   3.548   9.687  0.0808  1.9932  0.9993
  623MOL0     H84095   9.002   3.758   9.719 -1.6995 -0.5535 -1.0718
  623MOL0     H84096   8.837   3.787   9.783  0.3022  0.2777  2.8069
  623MOL0     H84097   9.101   3.912   9.866 -0.5368  1.1260 -0.1342
  623MOL0     H84098   8.944   3.953   9.935 -2.8404 -1.3181 -0.3239
  623MOL0     H84099   8.880   4.091   9.753 -0.0423  0.7677 -0.3878
  623MOL0     H84100   8.961   3.991   9.632 -0.1745  0.3026 -0.7885
  623MOL0     H84101   9.139   4.169   9.816  1.4477  2.3268 -2.3466
  623MOL0     H84102   9.057   4.220   9.671 -1.0747 -1.6298 -1.4954
  623MOL0     H84103   9.366   3.942   9.544  0.3327  3.2541 -3.5688
  623MOL0     H84104   9.003   3.545  10.115 -1.8293  1.8009 -0.0830
  623MOL0     H84105   9.077   3.311  10.086  0.5518  0.1141 -0.4232
  624MOL0     O84106   6.003   5.608   2.716 -0.6530  0.3614  0.1614
  624MOL0     C84107   6.095   5.685   2.717 -0.2580  0.3897 -0.0337
  624MOL0     O84108   6.177   5.714   2.605  0.4184  0.4060  0.3756
  624MOL0     C84109   6.134   5.701   2.477  0.7081  0.3680  0.1073
  624MOL0     C84110   6.253   5.681   2.403 -0.1802  0.1829 -0.0473
  624MOL0     C84111   6.226   5.661   2.264  0.0550 -0.0034 -0.2635
  624MOL0     C84112   6.102   5.688   2.210 -0.1408  1.0313 -0.7064
  624MOL0     O84113   6.101   5.660   2.074  0.1658  0.4806 -0.2560
  624MOL0     C84114   5.973   5.668   2.007 -0.4078  0.4577 -0.8580
  624MOL0     C84115   5.971   5.615   1.866 -0.5117 -0.1199 -0.2366
  624MOL0     C84116   6.057   5.709   1.777 -1.3996 -0.2499 -0.3211
  624MOL0     C84117   6.011   5.851   1.774 -1.1924 -1.4774 -1.1564
  624MOL0     C84118   6.038   5.921   1.637 -0.1390  0.3047  0.9513
  624MOL0     C84119   5.946   6.041   1.619 -0.2221 -1.0086  0.7609
  624MOL0     C84120   5.995   6.141   1.512 -0.5944 -0.7958  0.7640
  624MOL0     C84121   6.030   6.089   1.369  0.7627  0.7506 -0.2298
  624MOL0     N84122   5.907   6.076   1.283 -0.8355 -0.2874 -0.0370
  624MOL0     C84123   5.823   6.180   1.261  0.7079  0.0484 -0.5105
  624MOL0     C84124   5.719   6.125   1.185  0.4095  0.4184 -0.4022
  624MOL0     C84125   5.600   6.196   1.152  0.8663 -0.3953 -0.4247
  624MOL0     C84126   5.502   6.224   1.264 -0.1216 -0.2431  0.8070
  624MOL0     C84127   5.403   6.114   1.320 -0.6760 -0.1393  0.2349
  624MOL0     C84128   5.330   6.047   1.197  0.6992 -1.1058  0.8509
  624MOL0     O84129   5.255   5.931   1.243 -1.2701 -0.1888  0.0486
  624MOL0     C84130   5.137   5.959   1.300  0.1449  0.9803  0.0130
  624MOL0     C84131   5.077   6.083   1.327 -0.3889 -1.1146 -0.3561
  624MOL0     C84132   4.953   6.097   1.391 -0.3566 -0.3896  0.3323
  624MOL0     C84133   4.903   6.228   1.437 -0.3235 -0.6869  0.9265
  624MOL0     C84134   4.886   5.978   1.425 -0.7930 -0.1051  0.4681
  624MOL0     C84135   4.753   5.970   1.481  0.0147 -1.2288  0.0022
  624MOL0     O84136   4.743   6.042   1.608 -0.2896 -0.4403 -0.2387
  624MOL0     C84137   4.637   6.016   1.685  0.0842  0.5467  0.5117
  624MOL0     C84138   4.639   5.896   1.758  0.6439 -0.0903 -0.3113
  624MOL0     C84139   4.524   5.860   1.831  0.5148 -0.6665 -0.4863
  624MOL0     C84140   4.413   5.942   1.847  0.2783  0.6866  0.5037
  624MOL0     O84141   4.295   5.917   1.907  0.5887 -0.3898  0.0756
  624MOL0     C84142   4.296   5.849   2.036  0.8886 -0.0827 -0.4645
  624MOL0     C84143   4.153   5.854   2.104 -0.5192 -0.3086  0.0513
  624MOL0     C84144   4.092   5.992   2.125  0.5478 -0.2874  0.2663
  624MOL0     C84145   3.990   5.983   2.242 -0.0122  0.2984  0.3147
  624MOL0     C84146   3.948   6.128   2.263 -0.4179 -0.6729  0.1950
  624MOL0     C84147   3.854   6.149   2.374  0.7964 -0.2656  0.7587
  624MOL0     C84148   3.895   6.100   2.514  0.6315  0.1484 -0.3271
  624MOL0     C84149   4.011   6.173   2.576 -0.6312 -0.0750 -0.4166
  624MOL0    Cl84150   3.989   6.136   2.744 -0.6119  0.4059  0.2587
  624MOL0     C84151   4.416   6.060   1.774 -0.6365 -0.9457 -0.4134
  624MOL0     C84152   4.524   6.101   1.691  0.3936  0.4333  0.3577
  624MOL0     O84153   4.662   5.904   1.438  0.8280  0.6817  0.6595
  624MOL0     C84154   4.931   5.853   1.380  0.4227 -0.2361  0.7215
  624MOL0     C84155   5.062   5.843   1.329  0.1549  0.0522  0.4377
  624MOL0     N84156   5.759   5.994   1.141 -0.0320 -0.4421  0.3070
  624MOL0     N84157   5.871   5.973   1.204 -0.8835  0.2508 -0.0406
  624MOL0     C84158   5.984   5.695   2.292 -0.2829  0.5188 -0.7798
  624MOL0     C84159   6.009   5.720   2.429 -0.7765 -0.6406  0.8299
  624MOL0     C84160   6.140   5.736   2.843  0.1102 -0.8482 -0.4757
  624MOL0     C84161   6.045   5.735   2.951  0.4559 -0.4634 -0.9616
  624MOL0     C84162   6.085   5.815   3.063  0.5345  0.3363 -1.2325
  624MOL0     C84163   6.216   5.872   3.080  0.0699  0.5961  0.2238
  624MOL0     O84164   6.264   5.939   3.191 -0.3012 -0.1216  0.0807
  624MOL0     C84165   6.159   5.997   3.272 -0.3831  0.6488  0.4395
  624MOL0     C84166   6.225   6.063   3.390 -0.0579  0.1355  0.3758
  624MOL0     C84167   6.275   6.207   3.354  0.2404 -0.1526 -0.0914
  624MOL0     C84168   6.394   6.254   3.432 -0.5827  0.8311 -0.0022
  624MOL0     C84169   6.366   6.253   3.572  0.3070 -0.8992 -0.8283
  624MOL0     C84170   6.346   6.245   3.693 -0.1782  0.5191 -0.1663
  624MOL0     C84171   6.309   5.839   2.981  0.4906  0.1899  0.4501
  624MOL0     C84172   6.272   5.784   2.856 -0.3502  0.1504  0.3151
  624MOL0     H84173   6.343   5.670   2.462 -1.5786 -0.4978  2.1266
  624MOL0     H84174   6.312   5.647   2.199  2.7489  0.7856  2.8680
  624MOL0     H84175   5.902   5.614   2.071  0.0188 -0.5176 -1.1866
  624MOL0     H84176   5.945   5.773   2.002 -0.0891  0.4755 -2.7979
  624MOL0     H84177   6.011   5.513   1.864  0.6740  0.2934  1.0316
  624MOL0     H84178   5.866   5.605   1.834 -0.7549 -1.3869  0.8584
  624MOL0     H84179   6.159   5.707   1.816 -1.7160 -0.5483  0.5214
  624MOL0     H84180   6.055   5.673   1.674 -3.4167  0.1405 -0.4670
  624MOL0     H84181   5.905   5.852   1.801 -0.9993 -0.7443 -0.3811
  624MOL0     H84182   6.064   5.909   1.850  0.0905 -1.8768 -1.7141
  624MOL0     H84183   6.144   5.946   1.626 -0.4052  1.0764  0.0343
  624MOL0     H84184   6.011   5.845   1.563 -3.8883  4.3210 -2.3713
  624MOL0     H84185   5.848   6.003   1.586 -1.5501  3.4158 -1.1408
  624MOL0     H84186   5.941   6.094   1.714  1.0797  2.1574 -0.7867
  624MOL0     H84187   5.918   6.218   1.504 -0.8369 -0.9045  1.8830
  624MOL0     H84188   6.093   6.178   1.544 -1.3960  0.5484  1.7680
  624MOL0     H84189   6.090   5.997   1.377  0.8464  0.8885  0.9472
  624MOL0     H84190   6.087   6.167   1.317  0.0627  0.6794 -1.1219
  624MOL0     H84191   5.828   6.281   1.301  1.4405  0.3788 -1.4071
  624MOL0     H84192   5.629   6.289   1.102  2.4254 -0.4992  0.2222
  624MOL0     H84193   5.542   6.147   1.074 -3.0556 -1.1237  2.6806
  624MOL0     H84194   5.438   6.308   1.234 -2.9380 -2.3051  0.7387
  624MOL0     H84195   5.557   6.256   1.353  0.6746 -0.0907  0.2723
  624MOL0     H84196   5.327   6.153   1.389 -0.0044 -1.0373  1.5261
  624MOL0     H84197   5.463   6.038   1.370  1.2333  1.1411 -0.0181
  624MOL0     H84198   5.406   6.009   1.128  3.4478  1.4771  2.2049
  624MOL0     H84199   5.271   6.123   1.146  0.7029 -1.3871  0.4265
  624MOL0     H84200   5.132   6.172   1.297 -1.2472  0.1088  1.4773
  624MOL0     H84201   4.814   6.253   1.380 -0.3943 -0.4410  1.1403
  624MOL0     H84202   4.867   6.235   1.540 -0.5634 -1.6622  0.9183
  624MOL0     H84203   4.971   6.311   1.414 -0.8012 -1.1657 -2.8464
  624MOL0     H84204   4.721   5.825   1.749  1.0728  0.3828 -0.1396
  624MOL0     H84205   4.517   5.775   1.898  0.2726  1.0064  1.7228
  624MOL0     H84206   4.321   5.743   2.032  0.3688 -0.2167 -0.2824
  624MOL0     H84207   4.361   5.907   2.102 -0.5213 -0.6858  1.5346
  624MOL0     H84208   4.095   5.799   2.029 -1.7559  0.7021  0.2442
  624MOL0     H84209   4.171   5.789   2.190  3.0298 -1.8467 -1.6567
  624MOL0     H84210   4.046   6.029   2.033 -1.2464 -1.5452  0.5979
  624MOL0     H84211   4.172   6.062   2.151  1.1915 -1.2762  1.0449
  624MOL0     H84212   3.904   5.925   2.208  0.2845  1.5173 -2.8687
  624MOL0     H84213   4.024   5.936   2.334  0.4044  1.5486  0.8253
  624MOL0     H84214   3.896   6.160   2.173 -1.8831 -0.4377  1.0862
  624MOL0     H84215   4.030   6.197   2.283 -0.0635 -0.8038 -0.7733
  624MOL0     H84216   3.829   6.254   2.386  2.1105  0.7743 -3.8419
  624MOL0     H84217   3.758   6.102   2.351  0.1836  1.9871 -1.6865
  624MOL0     H84218   3.908   5.991   2.507 -1.6745 -0.0651 -3.6862
  624MOL0     H84219   3.806   6.113   2.577  0.3212 -1.0827 -0.4747
  624MOL0     H84220   4.006   6.282   2.566 -1.7349  0.1057  1.6876
  624MOL0     H84221   4.104   6.150   2.522 -1.6918  1.1994 -2.9785
  624MOL0     H84222   4.328   6.123   1.778  0.4808  0.6309  2.4480
  624MOL0     H84223   4.513   6.191   1.632 -0.4200 -1.1485 -2.0510
  624MOL0     H84224   4.870   5.764   1.394 -0.7236  0.4804  0.3898
  624MOL0     H84225   5.096   5.744   1.302 -2.0193 -0.5266 -0.4313
  624MOL0     H84226   5.880   5.696   2.260 -0.1161  0.2320 -1.3452
  624MOL0     H84227   5.921   5.748   2.487 -1.7195 -0.4954 -0.6161
  624MOL0     H84228   5.946   5.692   2.953 -0.3032  1.2410  0.4541
  624MOL0     H84229   6.011   5.828   3.141 -1.7204  0.5459 -3.2746
  624MOL0     H84230   6.080   6.055   3.224  0.4905  2.4057  1.0382
  624MOL0     H84231   6.118   5.903   3.310  1.4628 -0.8631 -1.1419
  624MOL0     H84232   6.314   6.004   3.409  0.3777  1.1625  1.7050
  624MOL0     H84233   6.160   6.054   3.478  0.8444 -1.2815  0.9277
  624MOL0     H84234   6.196   6.283   3.359  2.9527  2.8668 -0.2430
  624MOL0     H84235   6.290   6.199   3.246 -1.2838  1.6131 -0.4940
  624MOL0     H84236   6.406   6.356   3.394 -1.0264  2.4333  3.7586
  624MOL0     H84237   6.482   6.193   3.412 -1.4708 -0.2643 -0.7083
  624MOL0     H84238   6.331   6.243   3.799  1.0394 -0.1168  0.0113
  624MOL0     H84239   6.403   5.890   2.999 -0.7414  2.5453  0.6663
  624MOL0     H84240   6.344   5.784   2.775  0.2433  2.0616  0.7962
  625MOL0     O84241   1.640   9.902   5.947  0.5368 -0.0349  0.0057
  625MOL0     C84242   1.718   9.996   5.952 -0.3128 -0.4983 -0.0948
  625MOL0     O84243   1.855   9.987   5.986 -0.2952  0.3119  0.5767
  625MOL0     C84244   1.904   9.862   6.001 -0.4821  0.5913  0.4283
  625MOL0     C84245   1.967   9.832   6.124  0.3495  0.2067  0.0138
  625MOL0     C84246   2.043   9.718   6.142 -0.3140  0.3790 -0.4082
  625MOL0     C84247   2.041   9.614   6.044 -0.3630  0.4573  0.6049
  625MOL0     O84248   2.111   9.497   6.065 -0.7276  0.2402  0.9558
  625MOL0     C84249   2.164   9.461   6.192  0.2092 -1.3904 -0.2105
  625MOL0     C84250   2.245   9.336   6.171  0.1566  0.6807  0.5917
  625MOL0     C84251   2.158   9.206   6.177 -0.5728  0.3324  0.1322
  625MOL0     C84252   2.257   9.084   6.163  0.3583 -0.5768  1.0327
  625MOL0     C84253   2.187   8.949   6.146 -1.1134 -0.3015 -0.1322
  625MOL0     C84254   2.290   8.840   6.169 -0.0270  0.7143  0.0988
  625MOL0     C84255   2.354   8.836   6.309 -0.3028  0.2719 -0.1899
  625MOL0     C84256   2.253   8.774   6.409 -0.2313  0.1749  0.2539
  625MOL0     N84257   2.301   8.726   6.539  0.9219 -1.2259  0.4517
  625MOL0     C84258   2.289   8.800   6.655  0.1565  0.4237 -1.0637
  625MOL0     C84259   2.358   8.725   6.746 -0.4296 -0.2414  0.0202
  625MOL0     C84260   2.411   8.766   6.887  0.2730  0.3928 -0.4893
  625MOL0     C84261   2.304   8.851   6.961  0.0505  0.2444 -0.2397
  625MOL0     C84262   2.302   8.998   6.927 -0.2289 -0.3681 -0.2501
  625MOL0     C84263   2.167   9.071   6.978 -0.1637  0.4221  0.5570
  625MOL0     O84264   2.184   9.216   6.994  0.3985  0.0847  0.6255
  625MOL0     C84265   2.122   9.258   7.114  0.2719 -0.6043  0.6967
  625MOL0     C84266   2.001   9.335   7.115  1.1439  0.2513 -0.3184
  625MOL0     C84267   1.930   9.351   7.239  0.7820 -0.5534  0.2516
  625MOL0     C84268   1.806   9.450   7.237  0.3260 -0.5023 -0.3759
  625MOL0     C84269   1.983   9.312   7.364  0.0946  0.3731  0.0631
  625MOL0     C84270   1.921   9.333   7.496 -0.1004 -0.7188  0.0443
  625MOL0     O84271   1.987   9.285   7.606  0.5958  0.0934 -0.1228
  625MOL0     C84272   1.940   9.331   7.721 -0.8859 -0.5361 -0.4010
  625MOL0     C84273   1.944   9.469   7.758  0.1558 -0.5550  0.7541
  625MOL0     C84274   1.903   9.507   7.886  0.0247 -0.3046  0.6224
  625MOL0     C84275   1.851   9.424   7.982  0.0291 -0.3807  0.0153
  625MOL0     O84276   1.800   9.471   8.098  0.3688 -0.5595 -0.7223
  625MOL0     C84277   1.866   9.411   8.211 -0.6767 -0.7271 -0.1998
  625MOL0     C84278   1.779   9.319   8.283 -0.0248  0.2046  0.1065
  625MOL0     C84279   1.809   9.305   8.432  0.0168 -0.1266 -0.5181
  625MOL0     C84280   1.691   9.227   8.486  0.0276  0.2758 -0.7449
  625MOL0     C84281   1.719   9.208   8.636  0.1283  0.5920  0.1754
  625MOL0     C84282   1.599   9.146   8.702  0.2092  0.1013 -0.5360
  625MOL0     C84283   1.647   9.112   8.846  0.5398 -0.6521 -0.5397
  625MOL0     C84284   1.541   9.019   8.921 -0.6731 -0.2553  0.6566
  625MOL0    Cl84285   1.565   8.993   9.103 -0.2159  0.2496 -0.5205
  625MOL0     C84286   1.853   9.290   7.952  0.1380 -0.8977 -0.0750
  625MOL0     C84287   1.905   9.244   7.824  0.6329 -0.4803  0.2509
  625MOL0     O84288   1.820   9.396   7.504 -0.0302  0.9678  0.3885
  625MOL0     C84289   2.106   9.237   7.357 -1.0872  0.1802 -0.6401
  625MOL0     C84290   2.173   9.220   7.237 -0.1531  0.1010 -0.5660
  625MOL0     N84291   2.391   8.609   6.689 -0.0021  0.0041  0.1756
  625MOL0     N84292   2.356   8.610   6.564 -0.1334  0.6489 -0.1806
  625MOL0     C84293   1.975   9.644   5.919 -0.7512  0.4182  0.1896
  625MOL0     C84294   1.908   9.766   5.900 -0.0255 -1.2068  0.7649
  625MOL0     C84295   1.661  10.131   5.920  0.4448 -0.8606  0.0896
  625MOL0     C84296   1.526  10.144   5.871 -0.0284 -0.8717 -0.2249
  625MOL0     C84297   1.479  10.263   5.832  0.3419  0.0469 -0.0107
  625MOL0     C84298   1.553  10.382   5.855  0.5523 -0.2667  0.2001
  625MOL0     O84299   1.491  10.502   5.822  0.3368  0.1359 -0.2775
  625MOL0     C84300   1.559  10.629   5.831  0.0170 -0.5104  0.3152
  625MOL0     C84301   1.447  10.734   5.776 -0.1616  0.4018  0.2931
  625MOL0     C84302   1.505  10.873   5.804  0.3219  0.3356 -0.4982
  625MOL0     C84303   1.398  10.990   5.800 -0.3730  0.2407  0.1552
  625MOL0     C84304   1.332  11.005   5.927 -0.2110 -0.5557 -0.6292
  625MOL0     C84305   1.263  11.000   6.025 -0.2207 -0.3817 -0.1408
  625MOL0     C84306   1.685  10.375   5.908  0.0943 -0.3126  0.4258
  625MOL0     C84307   1.733  10.251   5.950 -0.2954 -0.8515 -0.0383
  625MOL0     H84308   1.967   9.916   6.193 -1.7608 -0.0455  0.3715
  625MOL0     H84309   2.101   9.717   6.234 -1.1628  2.3970  0.2073
  625MOL0     H84310   2.236   9.538   6.221 -1.9415  0.1890  1.3640
  625MOL0     H84311   2.096   9.446   6.277  1.4858 -3.8265  0.4835
  625MOL0     H84312   2.295   9.346   6.074 -2.7045  0.5933 -0.9820
  625MOL0     H84313   2.323   9.338   6.248  1.1886  0.3379 -0.4278
  625MOL0     H84314   2.137   9.201   6.284 -1.2740  0.0438 -0.0157
  625MOL0     H84315   2.065   9.193   6.122 -0.5574  2.6150 -0.5589
  625MOL0     H84316   2.315   9.114   6.076  2.1666 -0.3792  2.2537
  625MOL0     H84317   2.332   9.092   6.242  0.9939 -0.5950  0.4359
  625MOL0     H84318   2.106   8.942   6.220  1.3868 -0.1209  2.8553
  625MOL0     H84319   2.145   8.928   6.048  0.9581 -0.3489 -1.0574
  625MOL0     H84320   2.257   8.739   6.143  4.2811 -0.7426 -0.5440
  625MOL0     H84321   2.368   8.851   6.092 -1.3559  2.6353 -1.0678
  625MOL0     H84322   2.443   8.774   6.292  0.8350  1.5124  1.0128
  625MOL0     H84323   2.378   8.933   6.353 -1.6218  0.3497  0.4179
  625MOL0     H84324   2.200   8.690   6.364  1.2954 -0.5652 -0.2110
  625MOL0     H84325   2.178   8.851   6.431  0.1506  1.0424 -1.3113
  625MOL0     H84326   2.242   8.895   6.676  0.5190  0.5038 -0.6068
  625MOL0     H84327   2.413   8.670   6.938 -1.1368  0.5079 -0.1686
  625MOL0     H84328   2.510   8.811   6.886  0.3652  0.6886  4.0022
  625MOL0     H84329   2.309   8.840   7.070 -2.4004  1.8874  0.1042
  625MOL0     H84330   2.209   8.808   6.929 -0.4657 -1.0741  2.6781
  625MOL0     H84331   2.312   9.011   6.819  2.6043  0.3661  0.0088
  625MOL0     H84332   2.391   9.047   6.969  1.3074 -0.8631 -2.7013
  625MOL0     H84333   2.143   9.030   7.076 -0.2267  0.2619  0.4751
  625MOL0     H84334   2.079   9.058   6.915  1.5684 -4.5062 -1.4066
  625MOL0     H84335   1.946   9.370   7.027 -1.6662 -3.2836 -0.2049
  625MOL0     H84336   1.719   9.402   7.282  1.1524 -1.0021  0.7257
  625MOL0     H84337   1.825   9.535   7.303  0.0121 -1.4792  1.0200
  625MOL0     H84338   1.784   9.486   7.136 -0.1930  0.7657  0.1723
  625MOL0     H84339   1.981   9.543   7.688  1.2384 -2.0343 -0.2954
  625MOL0     H84340   1.923   9.612   7.900 -1.1902  0.0895 -0.3770
  625MOL0     H84341   1.963   9.364   8.191  0.5440  1.5731 -0.0203
  625MOL0     H84342   1.895   9.490   8.280 -4.0347  1.0268 -0.5904
  625MOL0     H84343   1.678   9.358   8.269  0.4223  1.3431 -0.0381
  625MOL0     H84344   1.781   9.219   8.239 -1.7606  1.1133 -2.2344
  625MOL0     H84345   1.810   9.409   8.466 -1.2709 -0.0897 -0.5469
  625MOL0     H84346   1.901   9.248   8.448  0.6407  0.8568 -0.5153
  625MOL0     H84347   1.592   9.272   8.478 -0.2103  0.0762  0.8822
  625MOL0     H84348   1.695   9.124   8.448  2.3749 -0.8829  2.2541
  625MOL0     H84349   1.745   9.309   8.670  0.1783  1.0753 -1.2273
  625MOL0     H84350   1.807   9.144   8.646  0.6373  0.7437 -2.4782
  625MOL0     H84351   1.520   9.220   8.689  1.1497  0.9917 -1.3688
  625MOL0     H84352   1.575   9.046   8.664 -4.6537  1.0827 -0.6732
  625MOL0     H84353   1.665   9.207   8.897  0.1663 -0.1766 -1.2746
  625MOL0     H84354   1.747   9.069   8.849  0.2190 -1.3751  0.3260
  625MOL0     H84355   1.553   8.919   8.877  0.6070 -0.3024  1.0542
  625MOL0     H84356   1.437   9.046   8.905 -1.1638 -1.8195  0.9926
  625MOL0     H84357   1.821   9.204   8.012 -0.8094 -2.1233 -2.2158
  625MOL0     H84358   1.903   9.139   7.797  3.0386 -0.0808 -1.8812
  625MOL0     H84359   2.160   9.185   7.435 -0.0510  1.3139 -0.5677
  625MOL0     H84360   2.277   9.187   7.236  0.9701  3.2101 -1.9317
  625MOL0     H84361   1.998   9.577   5.836  2.2723  1.4566  0.0641
  625MOL0     H84362   1.857   9.796   5.810 -3.7687  1.1730  3.3717
  625MOL0     H84363   1.461  10.058   5.859 -2.0753 -0.1971  3.9593
  625MOL0     H84364   1.381  10.286   5.792  0.5096 -1.2983 -1.3127
  625MOL0     H84365   1.578  10.647   5.937 -4.1013 -2.4347  1.5775
  625MOL0     H84366   1.641  10.643   5.760  0.5093 -0.0709  0.9620
  625MOL0     H84367   1.344  10.723   5.813 -0.2546 -0.7836 -0.2696
  625MOL0     H84368   1.438  10.727   5.668 -2.0419  0.6313  0.4012
  625MOL0     H84369   1.560  10.905   5.715 -1.0360  1.2384 -1.0415
  625MOL0     H84370   1.570  10.867   5.892 -0.1476 -2.3263 -0.2410
  625MOL0     H84371   1.317  10.969   5.730 -2.1307  1.2630  1.7826
  625MOL0     H84372   1.449  11.085   5.778 -0.8406  0.1639 -1.3771
  625MOL0     H84373   1.219  10.999   6.122 -0.6746 -3.9333 -0.2484
  625MOL0     H84374   1.745  10.464   5.918  0.2995 -0.5584  1.6038
  625MOL0     H84375   1.832  10.244   5.995  0.7976 -1.3983 -2.3678
  626MOL0     O84376   3.453  10.857   7.037 -0.6610 -0.5587 -0.3398
  626MOL0     C84377   3.485  10.893   6.929  0.1110  0.3313  0.2787
  626MOL0     O84378   3.391  10.920   6.822 -0.5209  0.4806 -0.6706
  626MOL0     C84379   3.266  10.970   6.854  0.1543 -0.6665  0.7530
  626MOL0     C84380   3.178  10.999   6.750 -0.4646  0.7219  0.1802
  626MOL0     C84381   3.055  11.048   6.757  0.3656 -0.1855  0.7854
  626MOL0     C84382   3.000  11.073   6.879  0.9748  0.6753 -0.8656
  626MOL0     O84383   2.871  11.117   6.909  0.1780 -0.5159 -0.8431
  626MOL0     C84384   2.782  11.100   6.798  0.4213  0.6256  0.2257
  626MOL0     C84385   2.643  11.133   6.864 -0.4312  0.5085  0.4957
  626MOL0     C84386   2.580  11.000   6.886 -0.0530  0.0819 -0.6369
  626MOL0     C84387   2.479  11.007   6.998  0.7331  0.7477  0.8361
  626MOL0     C84388   2.429  10.867   7.050  0.3100 -0.7427  0.5388
  626MOL0     C84389   2.309  10.881   7.140  0.1017  0.6591 -1.1202
  626MOL0     C84390   2.265  10.765   7.226  0.6806  1.0487 -0.0380
  626MOL0     C84391   2.195  10.657   7.145  0.4887  0.5530  0.3823
  626MOL0     N84392   2.121  10.567   7.232 -0.2118  0.1262 -0.5265
  626MOL0     C84393   2.172  10.522   7.351 -0.0384  0.3530  0.0918
  626MOL0     C84394   2.084  10.425   7.378 -0.5012  0.6541 -0.8529
  626MOL0     C84395   2.114  10.322   7.483  0.0344  0.7280 -0.7517
  626MOL0     C84396   2.177  10.193   7.440  0.4588  0.6127 -0.3135
  626MOL0     C84397   2.176  10.094   7.559 -0.5165 -0.3445  0.8662
  626MOL0     C84398   2.200   9.948   7.522 -1.9930  0.6734 -0.0169
  626MOL0     O84399   2.345   9.926   7.551 -0.1403 -0.2071 -0.4315
  626MOL0     C84400   2.430   9.950   7.444  1.4060  0.0854  0.5619
  626MOL0     C84401   2.396   9.936   7.309  0.0563 -0.0470  0.0906
  626MOL0     C84402   2.485   9.981   7.206 -0.2312 -0.1710  1.4354
  626MOL0     C84403   2.431   9.960   7.064 -0.2439  0.9497  0.2066
  626MOL0     C84404   2.618  10.010   7.248  0.5225 -0.1219 -0.3214
  626MOL0     C84405   2.722  10.032   7.144 -0.3632 -0.1636 -1.6066
  626MOL0     O84406   2.828   9.961   7.166  0.6949  0.5884 -0.2632
  626MOL0     C84407   2.941   9.978   7.084 -0.7024 -0.4770 -0.2747
  626MOL0     C84408   3.060  10.054   7.112  0.2931  0.0133 -0.1897
  626MOL0     C84409   3.173  10.059   7.027  0.7007  0.1008 -0.7070
  626MOL0     C84410   3.173   9.981   6.910 -1.1267 -0.9567 -0.0665
  626MOL0     O84411   3.274   9.967   6.822  0.6485  1.7856  0.2541
  626MOL0     C84412   3.381  10.063   6.814  0.0852  0.1850 -0.1755
  626MOL0     C84413   3.499  10.036   6.901  0.4926 -1.6848 -0.4364
  626MOL0     C84414   3.613  10.125   6.862  0.1547  0.9129  0.2237
  626MOL0     C84415   3.680  10.062   6.747 -0.4220  0.0266  0.3515
  626MOL0     C84416   3.700  10.158   6.626 -0.1526  0.6756  0.1103
  626MOL0     C84417   3.807  10.096   6.531  0.6440 -0.5991  0.2421
  626MOL0     C84418   3.803  10.148   6.387 -0.1262 -0.7998  0.7781
  626MOL0     C84419   3.921  10.099   6.296  0.4620  0.3730 -0.1988
  626MOL0    Cl84420   4.080  10.185   6.331  0.2033 -0.4883 -0.4011
  626MOL0     C84421   3.065   9.905   6.887  0.1365  0.5607 -0.2529
  626MOL0     C84422   2.953   9.903   6.970 -0.9051 -0.3590  0.8201
  626MOL0     O84423   2.703  10.117   7.061  0.4966 -0.1824  0.3203
  626MOL0     C84424   2.654  10.016   7.383  0.4585 -0.3105  0.7720
  626MOL0     C84425   2.554   9.988   7.474  0.1526  0.1446  0.4386
  626MOL0     N84426   1.977  10.420   7.291  0.4610  0.1612 -0.2458
  626MOL0     N84427   2.005  10.509   7.198  0.1843  0.4862 -0.4302
  626MOL0     C84428   3.081  11.050   6.988  0.5777  0.4085 -0.3456
  626MOL0     C84429   3.214  10.998   6.981  0.8428 -0.2958 -0.6846
  626MOL0     C84430   3.627  10.860   6.888 -0.2195  0.4673  0.4322
  626MOL0     C84431   3.717  10.817   6.987 -0.5601  0.3404 -0.9701
  626MOL0     C84432   3.848  10.778   6.943  0.1780 -0.1166 -1.0898
  626MOL0     C84433   3.888  10.801   6.809 -0.9475  0.9666 -1.4178
  626MOL0     O84434   4.026  10.775   6.795  0.2526 -0.0771 -0.5318
  626MOL0     C84435   4.067  10.762   6.664 -1.4019 -0.0386  0.3203
  626MOL0     C84436   4.221  10.773   6.667  0.4802 -0.1899 -1.6544
  626MOL0     C84437   4.278  10.788   6.524  0.4386 -0.1540  0.1742
  626MOL0     C84438   4.425  10.744   6.522  0.8632  0.5117 -0.3444
  626MOL0     C84439   4.470  10.736   6.378 -0.6558  0.3230  0.4974
  626MOL0     C84440   4.488  10.713   6.257 -0.1166  0.2389 -0.1008
  626MOL0     C84441   3.798  10.851   6.712  0.0734  0.0579 -0.4520
  626MOL0     C84442   3.666  10.872   6.753  0.8931 -0.7638  0.0396
  626MOL0     H84443   3.218  10.984   6.650  0.4668 -0.0523  0.6467
  626MOL0     H84444   3.004  11.073   6.665 -1.4549 -0.8005  1.5723
  626MOL0     H84445   2.801  11.171   6.717  2.5533  1.6272  1.5303
  626MOL0     H84446   2.778  10.994   6.769 -4.1835  0.7504 -0.4805
  626MOL0     H84447   2.645  11.188   6.958 -2.5296  3.4402 -1.0055
  626MOL0     H84448   2.583  11.199   6.801  0.0223  1.6372  1.2169
  626MOL0     H84449   2.527  10.966   6.797 -0.3695  0.0408 -0.4353
  626MOL0     H84450   2.652  10.928   6.925  0.6037  0.8947 -0.3353
  626MOL0     H84451   2.535  11.056   7.078  3.9343  1.6977 -1.7469
  626MOL0     H84452   2.386  11.057   6.969 -0.2622 -0.1578  2.3023
  626MOL0     H84453   2.398  10.812   6.960  1.0945  0.0113 -0.2225
  626MOL0     H84454   2.508  10.808   7.096 -1.1682 -2.1660  1.3270
  626MOL0     H84455   2.336  10.965   7.204 -2.6514  3.5837 -3.4842
  626MOL0     H84456   2.224  10.919   7.083 -1.4213  1.6685  1.6147
  626MOL0     H84457   2.348  10.708   7.270 -1.7944 -2.2618  0.6798
  626MOL0     H84458   2.200  10.803   7.305  0.8199  0.4297  0.3786
  626MOL0     H84459   2.273  10.589   7.109 -0.7193 -1.7538  1.8831
  626MOL0     H84460   2.144  10.698   7.057 -0.1950  0.5269  0.7616
  626MOL0     H84461   2.272  10.543   7.388  1.6110 -2.0240 -2.6162
  626MOL0     H84462   2.184  10.367   7.553  0.5211  0.8826 -1.3365
  626MOL0     H84463   2.025  10.297   7.542  0.1374  0.5854 -0.6550
  626MOL0     H84464   2.283  10.209   7.416  1.1294 -0.8906  1.3261
  626MOL0     H84465   2.122  10.141   7.361 -1.3404 -1.8316  2.3215
  626MOL0     H84466   2.079  10.110   7.606 -0.9931  1.5425 -0.6260
  626MOL0     H84467   2.262  10.119   7.621  1.1986 -2.6051 -0.4318
  626MOL0     H84468   2.171   9.912   7.423 -0.0652 -0.8744 -0.0825
  626MOL0     H84469   2.144   9.886   7.592 -3.9308  1.0295 -1.1821
  626MOL0     H84470   2.311   9.877   7.275 -0.5062 -0.3852  1.9352
  626MOL0     H84471   2.424  10.057   7.013  0.8467  0.2912 -1.2945
  626MOL0     H84472   2.499   9.900   7.002 -0.6039 -0.2057  0.8909
  626MOL0     H84473   2.344   9.895   7.050  0.8932 -0.0755 -3.0728
  626MOL0     H84474   3.062  10.112   7.203 -2.1075 -0.7212  0.4013
  626MOL0     H84475   3.260  10.119   7.051  0.0344  1.1940 -0.9900
  626MOL0     H84476   3.425  10.061   6.714  0.1350 -0.3809 -0.1434
  626MOL0     H84477   3.335  10.161   6.828 -2.1371 -0.7391 -0.4998
  626MOL0     H84478   3.479  10.043   7.008 -1.7070  0.6970 -0.9102
  626MOL0     H84479   3.521   9.929   6.894 -1.2641 -2.1518  0.4957
  626MOL0     H84480   3.688  10.128   6.941  2.9806 -1.6409 -2.0962
  626MOL0     H84481   3.575  10.225   6.839 -1.4388  0.3355  0.1749
  626MOL0     H84482   3.781  10.044   6.787 -1.1420  0.2355  2.3957
  626MOL0     H84483   3.644   9.964   6.716 -1.8972 -0.1297  2.3759
  626MOL0     H84484   3.734  10.255   6.664  0.1471 -0.0313  1.7295
  626MOL0     H84485   3.607  10.181   6.574 -0.2174  4.1468  1.5105
  626MOL0     H84486   3.905  10.124   6.571  1.2689 -1.0059 -0.9376
  626MOL0     H84487   3.782   9.989   6.532 -2.7205  0.0712 -0.6464
  626MOL0     H84488   3.791  10.257   6.396 -4.3704 -1.2627  4.6450
  626MOL0     H84489   3.715  10.112   6.332  0.2900 -0.6273 -0.0170
  626MOL0     H84490   3.885  10.089   6.193  0.1630  0.3358 -0.0911
  626MOL0     H84491   3.934   9.995   6.327 -3.5442 -0.5154 -0.9640
  626MOL0     H84492   3.053   9.835   6.804 -1.8530  0.3260  0.1891
  626MOL0     H84493   2.880   9.828   6.941 -3.0589  1.1747  1.9692
  626MOL0     H84494   2.757  10.035   7.411  1.2210 -0.2530 -1.8080
  626MOL0     H84495   2.586   9.995   7.577 -1.8425 -1.1074  1.1951
  626MOL0     H84496   3.048  11.077   7.087  0.8979 -1.0572  0.1919
  626MOL0     H84497   3.274  10.988   7.071  0.6109 -1.3515 -0.6280
  626MOL0     H84498   3.705  10.806   7.094  2.4595  1.1486 -0.4725
  626MOL0     H84499   3.920  10.740   7.015 -1.6658 -0.5717  0.6023
  626MOL0     H84500   4.037  10.661   6.633  0.7186 -1.0343  1.3327
  626MOL0     H84501   4.034  10.842   6.597 -2.3126 -0.1979  0.5705
  626MOL0     H84502   4.258  10.683   6.717  3.3167  0.7950 -1.8457
  626MOL0     H84503   4.248  10.850   6.740  1.8805 -0.9164 -1.3845
  626MOL0     H84504   4.260  10.887   6.480 -0.6696 -0.4621 -0.1102
  626MOL0     H84505   4.223  10.718   6.461  0.7867  1.0923 -1.6101
  626MOL0     H84506   4.434  10.644   6.566 -0.1256 -0.0432 -1.3387
  626MOL0     H84507   4.489  10.815   6.574  0.3863  1.0399 -0.4627
  626MOL0     H84508   4.483  10.693   6.152 -1.4778  0.2616 -0.0653
  626MOL0     H84509   3.817  10.855   6.605 -2.1331 -2.0677 -1.0205
  626MOL0     H84510   3.594  10.894   6.675  2.9929 -0.8847 -2.0213
  627MOL0     O84511   6.593   2.105   0.016 -0.4687 -0.3942  0.7607
  627MOL0     C84512   6.680   2.171   0.073 -1.2072 -0.1160 -0.4891
  627MOL0     O84513   6.665   2.224   0.200  0.7833 -0.0160  0.7937
  627MOL0     C84514   6.548   2.200   0.270  1.0819 -0.0566  0.3973
  627MOL0     C84515   6.554   2.184   0.412  0.7320 -0.2612 -0.2641
  627MOL0     C84516   6.436   2.154   0.488 -0.1795  0.1342  0.7687
  627MOL0     C84517   6.307   2.154   0.434  0.4941  0.5003  0.5266
  627MOL0     O84518   6.196   2.119   0.495  0.5645 -0.3175 -0.1103
  627MOL0     C84519   6.206   2.010   0.578 -0.6315 -0.4627 -0.6774
  627MOL0     C84520   6.097   1.903   0.541 -0.1598 -0.1075 -0.0314
  627MOL0     C84521   6.092   1.872   0.389  0.1930 -0.6058 -0.8793
  627MOL0     C84522   6.231   1.825   0.333  0.4233  0.6847 -0.0489
  627MOL0     C84523   6.215   1.784   0.186  0.0576 -0.3786 -0.1573
  627MOL0     C84524   6.291   1.663   0.145 -0.1180 -0.0808 -0.8485
  627MOL0     C84525   6.434   1.694   0.112 -0.2170  0.5277 -0.6280
  627MOL0     C84526   6.473   1.781   0.003 -0.7328 -0.4366  0.0676
  627MOL0     N84527   6.405   1.727  -0.112 -0.1835 -0.2101  0.4734
  627MOL0     C84528   6.287   1.769  -0.165 -0.6206 -0.2737 -0.2201
  627MOL0     C84529   6.245   1.670  -0.246  0.2979  1.1692 -0.3210
  627MOL0     C84530   6.110   1.665  -0.325  0.0419 -0.3453  0.5654
  627MOL0     C84531   5.988   1.695  -0.241  0.0487 -0.1254  0.7356
  627MOL0     C84532   5.864   1.639  -0.313  0.0558 -0.1067  0.2702
  627MOL0     C84533   5.821   1.723  -0.440 -0.2927  1.1453 -1.2846
  627MOL0     O84534   5.912   1.712  -0.551  0.1246 -0.2064  0.4580
  627MOL0     C84535   5.886   1.774  -0.672  0.1000 -0.4995  1.0637
  627MOL0     C84536   5.942   1.716  -0.780 -1.5967  0.2756  0.2431
  627MOL0     C84537   5.925   1.773  -0.911 -0.5806  0.1657 -1.1695
  627MOL0     C84538   5.994   1.697  -1.023  0.6283 -0.1058 -1.1814
  627MOL0     C84539   5.863   1.898  -0.923  0.0371 -0.3491 -0.1654
  627MOL0     C84540   5.852   1.964  -1.060  0.4062  0.4466 -1.0764
  627MOL0     O84541   5.731   1.984  -1.105  0.0388  0.2890  0.0243
  627MOL0     C84542   5.717   2.031  -1.234 -0.4435  0.1251 -0.2511
  627MOL0     C84543   5.617   2.130  -1.260 -0.0754  0.2614  0.3613
  627MOL0     C84544   5.587   2.171  -1.391 -0.9355  0.0748 -0.5524
  627MOL0     C84545   5.645   2.089  -1.492  0.8349 -0.0263  0.2492
  627MOL0     O84546   5.612   2.129  -1.626 -0.1753  0.3661 -0.3196
  627MOL0     C84547   5.628   2.036  -1.735  0.4513 -0.7250 -0.2978
  627MOL0     C84548   5.546   2.094  -1.859  0.5957  0.7148 -1.2266
  627MOL0     C84549   5.574   2.033  -2.003 -0.4346 -0.3263 -0.0806
  627MOL0     C84550   5.580   1.872  -1.996 -0.5666 -0.2154 -0.3180
  627MOL0     C84551   5.565   1.796  -2.128  0.0108  0.2785  0.3257
  627MOL0     C84552   5.631   1.660  -2.131 -0.0885  0.2550  0.5369
  627MOL0     C84553   5.606   1.579  -2.259 -0.0497  0.3580  0.0313
  627MOL0     C84554   5.688   1.630  -2.376  0.1750  0.1964  0.6226
  627MOL0    Cl84555   5.688   1.507  -2.512 -0.1223 -0.3175 -0.2624
  627MOL0     C84556   5.735   1.984  -1.470 -0.8476  1.1550  0.3494
  627MOL0     C84557   5.783   1.957  -1.338  1.5625 -0.3671  0.8163
  627MOL0     O84558   5.956   2.011  -1.108 -0.3437  0.2822 -0.2733
  627MOL0     C84559   5.808   1.964  -0.812 -0.2344  0.5962 -0.9375
  627MOL0     C84560   5.828   1.901  -0.687 -0.1820 -0.4030  1.4240
  627MOL0     N84561   6.336   1.569  -0.247 -0.7188 -0.6353  0.0965
  627MOL0     N84562   6.426   1.595  -0.158 -0.4995 -1.0682  0.1526
  627MOL0     C84563   6.302   2.179   0.292  0.0712 -0.4919  0.4568
  627MOL0     C84564   6.415   2.201   0.218 -0.0914 -0.2579  0.2467
  627MOL0     C84565   6.814   2.204  -0.004  0.5956 -0.0688 -0.2561
  627MOL0     C84566   6.911   2.290   0.047  0.8362 -1.4026 -0.9202
  627MOL0     C84567   7.020   2.328  -0.014 -0.6684 -0.1725 -0.5725
  627MOL0     C84568   7.057   2.278  -0.145 -0.3802 -0.3142 -0.4377
  627MOL0     O84569   7.172   2.284  -0.212 -0.1087 -0.0186 -0.0963
  627MOL0     C84570   7.262   2.396  -0.203  0.3273  0.0372 -0.9969
  627MOL0     C84571   7.203   2.531  -0.253  0.6282  0.7867  0.1633
  627MOL0     C84572   7.166   2.532  -0.400 -0.0726  0.4263 -0.0033
  627MOL0     C84573   7.171   2.670  -0.462 -0.0630  0.7439  0.2726
  627MOL0     C84574   7.127   2.678  -0.606  0.2747  0.0130 -0.8347
  627MOL0     C84575   7.083   2.684  -0.714  0.0806  0.4070 -0.0274
  627MOL0     C84576   6.963   2.188  -0.204 -1.1781  0.0015 -0.3169
  627MOL0     C84577   6.845   2.160  -0.133 -1.3666  0.5767  0.4063
  627MOL0     H84578   6.650   2.202   0.460  0.4854 -0.8101  0.4450
  627MOL0     H84579   6.442   2.156   0.596 -2.7260  2.4189  0.9802
  627MOL0     H84580   6.304   1.961   0.579 -0.2805  0.2236  0.4943
  627MOL0     H84581   6.191   2.037   0.683  1.0477 -1.6724 -0.0823
  627MOL0     H84582   6.118   1.812   0.598  0.7810 -0.6378 -1.1847
  627MOL0     H84583   6.000   1.940   0.574  0.2143 -0.0307  1.0115
  627MOL0     H84584   6.010   1.801   0.378 -1.6950  1.0818  1.3270
  627MOL0     H84585   6.054   1.957   0.332 -2.5669 -0.4613  0.9823
  627MOL0     H84586   6.306   1.903   0.341  1.7644 -0.5114 -0.6272
  627MOL0     H84587   6.275   1.740   0.386  2.2288  0.5305 -1.7039
  627MOL0     H84588   6.112   1.767   0.156  0.4761  2.1855 -3.6188
  627MOL0     H84589   6.251   1.868   0.126 -3.6006 -0.1064 -2.2505
  627MOL0     H84590   6.287   1.591   0.227 -0.0577  3.8528  2.9343
  627MOL0     H84591   6.252   1.615   0.054 -1.8074  3.1826 -1.9822
  627MOL0     H84592   6.491   1.715   0.203 -3.5222 -1.1766  2.0008
  627MOL0     H84593   6.477   1.597   0.083  0.4068  1.7162 -4.2524
  627MOL0     H84594   6.582   1.776  -0.010 -0.3585 -0.9951  2.8579
  627MOL0     H84595   6.453   1.886   0.026  1.5712 -0.1835  1.1727
  627MOL0     H84596   6.231   1.859  -0.140  0.7041  0.5264 -0.0445
  627MOL0     H84597   6.117   1.735  -0.408  1.7859  0.5621  1.4066
  627MOL0     H84598   6.103   1.566  -0.372 -0.5310  0.4980 -1.1607
  627MOL0     H84599   5.984   1.802  -0.221  1.0700 -0.0977  0.8652
  627MOL0     H84600   6.004   1.643  -0.146 -2.5158 -1.4633  0.5175
  627MOL0     H84601   5.785   1.639  -0.238 -1.1356 -0.5291 -0.9420
  627MOL0     H84602   5.887   1.536  -0.342 -2.0863 -0.8497  1.0500
  627MOL0     H84603   5.802   1.824  -0.403 -0.1561 -0.4351  4.0414
  627MOL0     H84604   5.728   1.690  -0.486  0.1031 -1.6398 -0.2833
  627MOL0     H84605   5.990   1.618  -0.778 -3.9672 -0.9464  1.5283
  627MOL0     H84606   6.086   1.654  -0.984 -0.0900 -2.0781 -1.5193
  627MOL0     H84607   5.913   1.624  -1.037 -1.1940  1.9131 -1.8177
  627MOL0     H84608   6.020   1.763  -1.106  1.7565  2.7645  1.2986
  627MOL0     H84609   5.574   2.172  -1.170 -1.7153  1.6120 -0.9982
  627MOL0     H84610   5.503   2.237  -1.406 -0.9359  0.1288 -0.3192
  627MOL0     H84611   5.736   2.033  -1.757  0.5725 -1.7905  0.3852
  627MOL0     H84612   5.586   1.940  -1.705  1.2024 -1.9119 -2.7531
  627MOL0     H84613   5.439   2.095  -1.834  1.3405  0.1905  2.4188
  627MOL0     H84614   5.583   2.197  -1.856  3.1952 -0.1796  0.8323
  627MOL0     H84615   5.673   2.057  -2.041 -1.2629  1.9855 -0.9530
  627MOL0     H84616   5.494   2.065  -2.071 -2.9944 -0.0490  2.8421
  627MOL0     H84617   5.679   1.848  -1.957 -1.3053 -0.8168  1.2861
  627MOL0     H84618   5.509   1.845  -1.917 -1.3700  2.5245 -0.0058
  627MOL0     H84619   5.608   1.863  -2.203 -3.7711  2.9890  0.3125
  627MOL0     H84620   5.460   1.800  -2.158 -0.1419  0.3438  0.8538
  627MOL0     H84621   5.740   1.674  -2.131 -0.0210 -0.1560 -0.8989
  627MOL0     H84622   5.585   1.597  -2.054  1.6821 -3.2843 -1.0754
  627MOL0     H84623   5.500   1.586  -2.286 -0.1346  0.4748  0.3899
  627MOL0     H84624   5.623   1.472  -2.244 -0.5863  0.4364  1.3236
  627MOL0     H84625   5.786   1.654  -2.335 -0.2564  4.8054 -0.5474
  627MOL0     H84626   5.633   1.711  -2.424  0.4439  0.2509  0.4082
  627MOL0     H84627   5.756   1.924  -1.558 -0.7045  2.9530 -0.8930
  627MOL0     H84628   5.857   1.881  -1.314  4.1170  2.0781  1.1845
  627MOL0     H84629   5.751   2.057  -0.821  0.1497  0.9344 -0.0147
  627MOL0     H84630   5.791   1.964  -0.606 -3.5821  0.9328 -0.9140
  627MOL0     H84631   6.217   2.169   0.226  0.3556 -0.7515  0.1290
  627MOL0     H84632   6.405   2.221   0.112  0.1684 -1.2733  0.0174
  627MOL0     H84633   6.896   2.334   0.145 -1.3892 -0.8779 -1.4452
  627MOL0     H84634   7.080   2.390   0.052 -0.1717 -0.9608 -0.2675
  627MOL0     H84635   7.302   2.396  -0.102  1.1932 -0.2563 -1.3287
  627MOL0     H84636   7.338   2.374  -0.279 -0.0402 -0.9475 -1.0976
  627MOL0     H84637   7.279   2.609  -0.241  0.7302  1.3912 -3.3881
  627MOL0     H84638   7.113   2.546  -0.193  0.6332 -2.8915  1.3395
  627MOL0     H84639   7.063   2.497  -0.401  0.5003 -1.7888 -4.0475
  627MOL0     H84640   7.220   2.460  -0.462  0.8614  3.4914 -3.0962
  627MOL0     H84641   7.277   2.697  -0.460  1.3313 -3.7958 -0.6822
  627MOL0     H84642   7.112   2.745  -0.409 -0.2992 -0.6046  2.0277
  627MOL0     H84643   7.057   2.694  -0.818 -0.1833 -0.5803 -0.0687
  627MOL0     H84644   6.974   2.142  -0.302  0.7820 -3.1577  1.2540
  627MOL0     H84645   6.782   2.087  -0.183  0.5850 -1.8133  1.1748
  628MOL0     O84646   3.816   9.465   1.557  0.5933  0.5818  0.0620
  628MOL0     C84647   3.900   9.386   1.513  0.3068 -0.5473 -0.0476
  628MOL0     O84648   3.987   9.319   1.588 -0.2827 -0.6390 -0.2826
  628MOL0     C84649   3.981   9.326   1.727  0.3995 -0.0685  0.3984
  628MOL0     C84650   3.922   9.227   1.793  0.3751  0.1149  0.2121
  628MOL0     C84651   3.899   9.225   1.932 -1.1347 -0.7540 -0.2270
  628MOL0     C84652   3.941   9.340   2.005  0.2460  0.4466  0.2692
  628MOL0     O84653   3.947   9.352   2.141 -0.0584 -0.4667  0.2900
  628MOL0     C84654   3.997   9.251   2.229 -0.7443 -0.2066  0.6605
  628MOL0     C84655   4.058   9.307   2.346 -0.0967  1.1293 -0.6381
  628MOL0     C84656   4.004   9.434   2.404  0.2981 -0.5853  0.1255
  628MOL0     C84657   4.067   9.488   2.534  0.3726  1.4315 -0.7390
  628MOL0     C84658   4.223   9.496   2.522  1.3222  0.7047 -0.6774
  628MOL0     C84659   4.263   9.588   2.395  0.4032  0.3194 -0.9155
  628MOL0     C84660   4.421   9.599   2.389 -0.6126 -0.2901 -0.3010
  628MOL0     C84661   4.493   9.468   2.342  0.3758 -0.3013  0.3246
  628MOL0     N84662   4.429   9.388   2.233 -0.4239  0.2027  0.6545
  628MOL0     C84663   4.375   9.425   2.116  0.0139 -0.8493  0.2934
  628MOL0     C84664   4.338   9.313   2.053 -0.3747 -0.4117 -0.0461
  628MOL0     C84665   4.281   9.312   1.913 -0.1782 -0.1402  0.6045
  628MOL0     C84666   4.391   9.275   1.811 -0.2603  0.2060 -0.5838
  628MOL0     C84667   4.382   9.353   1.684  0.2591  0.4861  0.5867
  628MOL0     C84668   4.452   9.489   1.694 -0.0878 -0.1157  0.0549
  628MOL0     O84669   4.450   9.545   1.566  0.0588 -0.0666 -0.3518
  628MOL0     C84670   4.331   9.583   1.507 -1.2846  0.3560 -0.1199
  628MOL0     C84671   4.219   9.647   1.566 -0.6515  0.8780  0.1490
  628MOL0     C84672   4.106   9.695   1.496  0.2198 -1.0756  0.4140
  628MOL0     C84673   4.001   9.776   1.568  0.7125 -0.1413  0.3736
  628MOL0     C84674   4.100   9.673   1.356 -0.6045 -0.1743 -0.0762
  628MOL0     C84675   3.986   9.715   1.275  0.8704 -0.6221 -0.0541
  628MOL0     O84676   4.014   9.745   1.142 -0.0455 -0.5421 -0.0876
  628MOL0     C84677   3.905   9.780   1.075 -0.1067  0.7659  0.0387
  628MOL0     C84678   3.849   9.704   0.976  0.0300 -0.8979 -0.4974
  628MOL0     C84679   3.738   9.758   0.917  0.5167 -0.3835  0.2012
  628MOL0     C84680   3.696   9.897   0.946  0.0717 -0.7182 -0.1207
  628MOL0     O84681   3.593   9.963   0.891  0.2778  0.5934 -0.3684
  628MOL0     C84682   3.547   9.909   0.770  0.8044  0.2507  0.1057
  628MOL0     C84683   3.427  10.001   0.737 -0.3946 -0.0201 -0.5503
  628MOL0     C84684   3.454  10.151   0.728 -0.8224  0.2039  0.3922
  628MOL0     C84685   3.329  10.221   0.674  0.1738  0.0058 -0.8542
  628MOL0     C84686   3.340  10.382   0.654  0.6509  0.4463  0.2135
  628MOL0     C84687   3.214  10.448   0.619 -0.3261  0.0852  0.5786
  628MOL0     C84688   3.098  10.399   0.702 -0.6442  0.3824 -0.2258
  628MOL0     C84689   3.002  10.518   0.730  0.3637 -0.3837  0.2536
  628MOL0    Cl84690   2.945  10.589   0.571  0.6206  0.5773 -0.1613
  628MOL0     C84691   3.774   9.975   1.037  0.1279 -0.2223  0.9758
  628MOL0     C84692   3.873   9.910   1.108  0.6033  0.1312 -0.6287
  628MOL0     O84693   3.872   9.708   1.327  0.1148 -0.3342 -0.0871
  628MOL0     C84694   4.201   9.598   1.301  0.0525  0.3259  0.2386
  628MOL0     C84695   4.321   9.559   1.369 -0.4231 -0.2313  0.8261
  628MOL0     N84696   4.361   9.208   2.133  0.6598 -0.0605 -1.2243
  628MOL0     N84697   4.429   9.254   2.228  0.0411 -0.1714 -0.9434
  628MOL0     C84698   3.981   9.451   1.932  0.6296 -0.3388  0.0441
  628MOL0     C84699   3.993   9.447   1.792  0.9386 -0.4533 -0.4679
  628MOL0     C84700   3.889   9.341   1.370 -0.0847 -0.1270  0.9582
  628MOL0     C84701   3.773   9.329   1.281 -0.2889 -0.2261  0.2011
  628MOL0     C84702   3.780   9.275   1.149 -0.4306 -0.3367  0.1463
  628MOL0     C84703   3.903   9.235   1.098 -0.5047  0.7379  0.5218
  628MOL0     O84704   3.897   9.188   0.967 -0.6772 -0.5834  0.4713
  628MOL0     C84705   4.022   9.182   0.905 -0.7281  0.0761  0.1150
  628MOL0     C84706   3.996   9.184   0.759  0.1538 -0.0122  0.6246
  628MOL0     C84707   4.096   9.273   0.685 -0.6424  0.0913 -0.3802
  628MOL0     C84708   4.243   9.214   0.671  0.4491  0.4134 -0.1056
  628MOL0     C84709   4.305   9.292   0.560  0.0633  0.0210  0.4055
  628MOL0     C84710   4.354   9.369   0.477  0.7838 -0.0818 -0.1560
  628MOL0     C84711   4.020   9.245   1.185 -0.0631  1.2502 -0.4345
  628MOL0     C84712   4.008   9.297   1.310 -0.9346 -0.8425  0.1526
  628MOL0     H84713   3.895   9.132   1.747 -0.6449  1.7095 -2.7220
  628MOL0     H84714   3.848   9.143   1.980 -3.2860  0.8306  0.3119
  628MOL0     H84715   3.917   9.185   2.264 -0.6429 -0.0455  1.1979
  628MOL0     H84716   4.061   9.184   2.171 -0.5537  0.8259 -0.3703
  628MOL0     H84717   4.059   9.236   2.429  2.1393 -2.0609 -3.1058
  628MOL0     H84718   4.165   9.325   2.329 -0.1610  0.8602 -1.3889
  628MOL0     H84719   4.014   9.508   2.324  0.6581 -1.0993 -0.3091
  628MOL0     H84720   3.898   9.413   2.416  0.5300 -2.7113 -1.0317
  628MOL0     H84721   4.030   9.588   2.558  1.8238  1.5843  1.0609
  628MOL0     H84722   4.055   9.415   2.615  0.4506 -0.5647 -2.4287
  628MOL0     H84723   4.267   9.539   2.613 -0.2130  0.0705  0.4251
  628MOL0     H84724   4.264   9.395   2.517  2.8887  1.1372  1.6573
  628MOL0     H84725   4.230   9.542   2.302  0.4671 -2.0394  0.1741
  628MOL0     H84726   4.211   9.684   2.407  1.5132  0.8382 -0.0205
  628MOL0     H84727   4.452   9.672   2.313  2.7491 -3.7105 -2.5759
  628MOL0     H84728   4.465   9.612   2.488  0.5710 -3.7071 -0.2470
  628MOL0     H84729   4.502   9.401   2.428 -2.1769  1.2120  1.9168
  628MOL0     H84730   4.591   9.512   2.318 -0.4312  1.5537  0.2352
  628MOL0     H84731   4.348   9.525   2.083  1.9529 -0.9787 -1.9195
  628MOL0     H84732   4.204   9.234   1.912 -0.8596  0.5169 -0.3619
  628MOL0     H84733   4.233   9.405   1.883 -0.8756 -1.3105 -2.2430
  628MOL0     H84734   4.388   9.168   1.788  0.6484 -1.0763  4.2381
  628MOL0     H84735   4.493   9.290   1.846 -0.8479 -0.8430  1.7803
  628MOL0     H84736   4.278   9.378   1.661  0.4937 -1.0478 -2.9357
  628MOL0     H84737   4.417   9.293   1.599 -1.7310  0.1103 -0.0416
  628MOL0     H84738   4.560   9.477   1.706  0.0354 -0.8629 -1.6169
  628MOL0     H84739   4.407   9.552   1.772  0.0442  2.3123 -1.6948
  628MOL0     H84740   4.227   9.652   1.674  0.6801 -2.8828  0.3436
  628MOL0     H84741   3.918   9.710   1.594  0.3260  0.4712  0.7354
  628MOL0     H84742   4.037   9.824   1.660 -1.1792  0.2367  0.9673
  628MOL0     H84743   3.968   9.856   1.501  0.2565 -0.4926  0.1767
  628MOL0     H84744   3.891   9.606   0.956  2.6013 -0.6816  2.9256
  628MOL0     H84745   3.686   9.702   0.841  1.0704  1.2836 -1.4757
  628MOL0     H84746   3.628   9.931   0.701 -1.0590  3.5453 -1.2464
  628MOL0     H84747   3.516   9.804   0.771 -0.3081  0.5236 -1.4869
  628MOL0     H84748   3.406   9.957   0.639  1.9684 -1.3629 -0.5306
  628MOL0     H84749   3.353   9.979   0.815  0.1888  1.2454  0.4028
  628MOL0     H84750   3.531  10.160   0.650 -0.2594  2.3815  1.1379
  628MOL0     H84751   3.492  10.184   0.825 -0.6671 -1.6316  1.0056
  628MOL0     H84752   3.308  10.180   0.575  3.9812 -0.1145 -1.7746
  628MOL0     H84753   3.257  10.194   0.751  1.8801  0.8836  1.1422
  628MOL0     H84754   3.420  10.405   0.582  2.2349  3.1694  2.6373
  628MOL0     H84755   3.390  10.426   0.741  2.2720  0.3245 -0.6034
  628MOL0     H84756   3.220  10.557   0.626 -3.3231  0.7515 -3.4982
  628MOL0     H84757   3.181  10.433   0.516 -0.4745 -0.5491  0.7171
  628MOL0     H84758   3.132  10.349   0.793  0.0282  0.5709 -0.3704
  628MOL0     H84759   3.037  10.320   0.657 -0.7282 -1.0067  2.1465
  628MOL0     H84760   3.053  10.596   0.787 -0.5755  1.3766 -1.2113
  628MOL0     H84761   2.914  10.477   0.781 -0.2138 -0.0247 -0.4472
  628MOL0     H84762   3.747  10.071   1.079  0.3066 -1.4915  4.3085
  628MOL0     H84763   3.931   9.972   1.176 -0.9320  4.4062 -2.8918
  628MOL0     H84764   4.201   9.581   1.194 -1.0305  1.3213  0.0586
  628MOL0     H84765   4.394   9.505   1.309 -2.0981 -0.9846 -0.6321
  628MOL0     H84766   4.002   9.544   1.983  0.4338 -1.1062  1.5755
  628MOL0     H84767   4.003   9.538   1.735  2.5308 -0.2135  0.1431
  628MOL0     H84768   3.682   9.365   1.329 -0.1452  0.4412 -0.0193
  628MOL0     H84769   3.695   9.264   1.083 -1.2723  0.6332  1.0229
  628MOL0     H84770   4.089   9.267   0.923  1.8582 -1.0985 -2.9661
  628MOL0     H84771   4.088   9.098   0.925  1.0540  1.1122 -1.0600
  628MOL0     H84772   3.903   9.237   0.735  0.6347 -0.1764 -1.7689
  628MOL0     H84773   3.992   9.085   0.712 -0.2602  0.6618 -0.7929
  628MOL0     H84774   4.099   9.378   0.714 -1.2744  0.6386 -2.1490
  628MOL0     H84775   4.055   9.282   0.583  1.5983 -0.1010 -1.3467
  628MOL0     H84776   4.220   9.109   0.651 -0.5100  0.6157 -0.1411
  628MOL0     H84777   4.292   9.226   0.767  1.2703  1.0499 -0.5888
  628MOL0     H84778   4.398   9.446   0.417 -0.3125  1.3756  0.8415
  628MOL0     H84779   4.117   9.206   1.155  0.9129  1.7041  1.8795
  628MOL0     H84780   4.100   9.292   1.368  0.2481  2.4598 -1.2388
  629MOL0     O84781   7.358   4.863   1.635  0.1043  0.8807 -0.4701
  629MOL0     C84782   7.278   4.950   1.677 -0.1297  1.2018  1.0766
  629MOL0     O84783   7.154   4.931   1.721 -0.2388  0.1818 -0.5272
  629MOL0     C84784   7.091   4.817   1.750  0.1979 -0.0297 -0.8233
  629MOL0     C84785   6.993   4.818   1.849  0.7304  0.5292 -0.6672
  629MOL0     C84786   6.917   4.698   1.875 -0.5708  0.2220  0.4566
  629MOL0     C84787   6.944   4.575   1.805  0.1340 -0.8229  0.0643
  629MOL0     O84788   6.871   4.473   1.854 -0.0936  0.4006 -0.2515
  629MOL0     C84789   6.850   4.369   1.757 -0.8936  0.1905 -0.2020
  629MOL0     C84790   6.766   4.264   1.819 -0.4684  0.0260 -0.2185
  629MOL0     C84791   6.802   4.224   1.963 -0.2225 -0.4355 -1.2135
  629MOL0     C84792   6.711   4.130   2.016  0.2736  1.0420  0.3773
  629MOL0     C84793   6.713   4.134   2.172 -0.9234  0.0756 -0.2904
  629MOL0     C84794   6.833   4.056   2.219  0.2901 -0.2611 -0.2085
  629MOL0     C84795   6.801   3.997   2.363 -0.5203 -0.5525  0.8166
  629MOL0     C84796   6.928   3.957   2.427  0.4937 -0.4641 -0.3116
  629MOL0     N84797   6.906   3.906   2.567  0.1262 -0.8470  0.2324
  629MOL0     C84798   6.793   3.927   2.650  0.3724  0.6693  1.3101
  629MOL0     C84799   6.826   3.876   2.770  0.0363 -0.1730  0.5341
  629MOL0     C84800   6.747   3.883   2.894 -0.2120  0.3222  0.2043
  629MOL0     C84801   6.838   3.934   2.999  1.1330  0.7412  0.1200
  629MOL0     C84802   6.779   4.016   3.120  0.3669  0.5333  0.2283
  629MOL0     C84803   6.685   3.929   3.200  0.1337  0.0288 -0.9097
  629MOL0     O84804   6.633   3.996   3.307 -0.3894  0.2579 -0.1698
  629MOL0     C84805   6.507   4.048   3.308 -0.3499  0.4004  0.5318
  629MOL0     C84806   6.478   4.180   3.323  0.0267 -0.3935 -0.0043
  629MOL0     C84807   6.345   4.239   3.351  0.1222 -0.4802  0.8494
  629MOL0     C84808   6.339   4.390   3.364 -0.5907  0.5249  0.4930
  629MOL0     C84809   6.232   4.150   3.344  0.4533  0.2918  0.1520
  629MOL0     C84810   6.093   4.201   3.346  0.2835  0.4191  0.6525
  629MOL0     O84811   6.006   4.111   3.396 -0.6617  0.6928 -0.3172
  629MOL0     C84812   5.897   4.175   3.445 -0.2392  1.8344  0.5362
  629MOL0     C84813   5.784   4.187   3.367 -0.4589 -0.1673 -0.8182
  629MOL0     C84814   5.690   4.260   3.430  0.0338  0.2892  0.3773
  629MOL0     C84815   5.716   4.339   3.540  0.6769 -0.9052 -1.5333
  629MOL0     O84816   5.596   4.400   3.579 -0.0299  1.2988  0.0330
  629MOL0     C84817   5.591   4.461   3.711 -0.5894 -0.8136 -0.3652
  629MOL0     C84818   5.455   4.519   3.732 -0.0837  1.0978 -0.2167
  629MOL0     C84819   5.351   4.402   3.735  0.0697 -1.3183 -0.6810
  629MOL0     C84820   5.215   4.458   3.780  0.1439 -0.1019  0.1502
  629MOL0     C84821   5.201   4.472   3.933 -0.7582  0.4524  0.9798
  629MOL0     C84822   5.069   4.490   3.984  0.5015  0.6453 -0.7353
  629MOL0     C84823   5.005   4.608   3.920 -0.5016 -0.1473 -0.3277
  629MOL0     C84824   4.882   4.665   3.999 -0.7587 -0.1926  0.0870
  629MOL0    Cl84825   4.782   4.529   4.051 -0.3200  0.9540  0.0821
  629MOL0     C84826   5.829   4.313   3.613  0.3143 -0.3514 -0.7380
  629MOL0     C84827   5.912   4.229   3.574 -0.5459  0.0394  1.5459
  629MOL0     O84828   6.074   4.311   3.302  0.1926 -0.2546  0.4915
  629MOL0     C84829   6.262   4.006   3.335  0.5198 -0.6923 -0.6651
  629MOL0     C84830   6.395   3.961   3.328 -1.0023 -1.6514 -0.7646
  629MOL0     N84831   6.945   3.807   2.750  0.4835 -0.0480  0.5204
  629MOL0     N84832   6.992   3.823   2.625 -0.8111 -0.7346 -0.0029
  629MOL0     C84833   7.043   4.578   1.705  0.6412  0.2764 -0.2831
  629MOL0     C84834   7.113   4.697   1.678  1.5675 -0.6782 -0.1791
  629MOL0     C84835   7.338   5.087   1.691  0.5850 -0.3234  0.5289
  629MOL0     C84836   7.315   5.174   1.803  0.5286  0.3862  0.8308
  629MOL0     C84837   7.390   5.291   1.826  1.1318  0.0249  0.5169
  629MOL0     C84838   7.495   5.315   1.727 -0.4319 -0.7358 -0.7450
  629MOL0     O84839   7.571   5.419   1.783 -0.4457 -0.2709  0.2969
  629MOL0     C84840   7.674   5.477   1.696 -0.4420  0.0074 -0.3018
  629MOL0     C84841   7.621   5.575   1.584 -0.4291 -0.3687 -0.2390
  629MOL0     C84842   7.715   5.605   1.465 -0.3740  0.4978  0.1427
  629MOL0     C84843   7.853   5.668   1.505 -0.0483  0.3037  0.0600
  629MOL0     C84844   7.939   5.589   1.602  1.3858  0.5921  0.4411
  629MOL0     C84845   7.995   5.526   1.687 -0.9001 -0.1067  0.1220
  629MOL0     C84846   7.513   5.240   1.612 -0.4894  0.9786  0.1997
  629MOL0     C84847   7.436   5.121   1.591 -0.4281  0.0792 -0.2770
  629MOL0     H84848   6.966   4.913   1.893  1.0941  1.1415 -1.7453
  629MOL0     H84849   6.836   4.685   1.946 -0.3588 -0.0760  0.6475
  629MOL0     H84850   6.812   4.423   1.670  1.6340  1.5141 -0.5923
  629MOL0     H84851   6.950   4.327   1.743 -0.4175  0.7960  1.2775
  629MOL0     H84852   6.658   4.280   1.806 -0.0024  1.8896 -2.3141
  629MOL0     H84853   6.770   4.173   1.758  1.6331  0.9002 -1.4693
  629MOL0     H84854   6.905   4.187   1.973 -1.6876 -5.0796 -1.4331
  629MOL0     H84855   6.791   4.312   2.029 -0.6031 -2.0683  1.0285
  629MOL0     H84856   6.612   4.149   1.972  1.2770 -2.2083 -3.9321
  629MOL0     H84857   6.734   4.030   1.981  0.3112  0.6547  1.4763
  629MOL0     H84858   6.703   4.234   2.214 -4.0125  1.1105 -3.1059
  629MOL0     H84859   6.621   4.083   2.199  0.2231 -3.3217 -2.1371
  629MOL0     H84860   6.855   3.974   2.151  0.7503  0.6821 -1.2268
  629MOL0     H84861   6.920   4.123   2.221 -1.5514  2.3065 -0.8449
  629MOL0     H84862   6.750   4.081   2.412 -0.0730  1.0682 -1.3062
  629MOL0     H84863   6.728   3.916   2.360  0.0185 -1.1072  2.1478
  629MOL0     H84864   7.011   4.028   2.435  2.1156 -2.3244  0.5917
  629MOL0     H84865   6.981   3.882   2.367 -0.7929 -0.9244 -0.8941
  629MOL0     H84866   6.699   3.974   2.619 -1.0992 -1.7808  1.7788
  629MOL0     H84867   6.660   3.945   2.875  1.2820  1.4637 -3.8219
  629MOL0     H84868   6.730   3.780   2.929  1.8836 -0.7325 -1.6472
  629MOL0     H84869   6.913   3.996   2.949  1.8852 -0.3289 -0.1171
  629MOL0     H84870   6.905   3.855   3.037  0.8311 -1.9794 -4.3438
  629MOL0     H84871   6.732   4.097   3.063  0.7086 -1.1575 -2.6538
  629MOL0     H84872   6.864   4.057   3.175  0.4125  0.5020  0.1827
  629MOL0     H84873   6.742   3.844   3.239 -1.4698  0.4385  2.7181
  629MOL0     H84874   6.608   3.880   3.140 -0.0318 -0.8065 -0.0417
  629MOL0     H84875   6.570   4.235   3.306 -0.9432  0.2172 -4.5957
  629MOL0     H84876   6.306   4.441   3.273  0.4404 -0.1779 -0.2973
  629MOL0     H84877   6.271   4.418   3.445 -0.2553  3.5509 -0.1425
  629MOL0     H84878   6.438   4.426   3.396 -1.1190  3.0711 -0.4451
  629MOL0     H84879   5.767   4.133   3.274 -0.2700  0.8805 -1.4789
  629MOL0     H84880   5.595   4.266   3.378 -0.3702 -2.4441  0.6581
  629MOL0     H84881   5.594   4.393   3.797 -2.0258  2.1645  2.2696
  629MOL0     H84882   5.663   4.543   3.712 -2.7129  1.1458 -0.8253
  629MOL0     H84883   5.443   4.553   3.835  0.5724  1.2058 -0.1703
  629MOL0     H84884   5.424   4.594   3.660 -3.1202  2.6287  2.4432
  629MOL0     H84885   5.385   4.332   3.812  1.0503  0.7795  0.8822
  629MOL0     H84886   5.341   4.351   3.639  1.0130  1.0945 -2.1523
  629MOL0     H84887   5.200   4.555   3.733 -4.0543 -0.4709  0.3046
  629MOL0     H84888   5.142   4.393   3.729  0.2213  0.4043 -0.6195
  629MOL0     H84889   5.279   4.545   3.955  2.2096 -1.7191 -1.3522
  629MOL0     H84890   5.239   4.385   3.987 -0.5367 -0.5673 -0.7371
  629MOL0     H84891   5.004   4.409   3.949  3.0217 -0.2517 -3.7950
  629MOL0     H84892   5.076   4.489   4.093 -2.4464 -3.2639 -0.3303
  629MOL0     H84893   4.966   4.590   3.819 -0.8150 -0.9396 -0.0651
  629MOL0     H84894   5.083   4.685   3.918 -0.6672  0.1721  2.3414
  629MOL0     H84895   4.832   4.730   3.927  0.8867 -1.8259 -2.7144
  629MOL0     H84896   4.913   4.733   4.079 -0.0899 -0.0569 -0.2806
  629MOL0     H84897   5.858   4.357   3.708 -0.4591 -2.3239  0.4626
  629MOL0     H84898   5.999   4.201   3.632  1.6644 -1.4757 -2.1049
  629MOL0     H84899   6.181   3.934   3.331 -0.9762  0.6150  2.6185
  629MOL0     H84900   6.421   3.856   3.326  3.0760 -0.8811  1.4230
  629MOL0     H84901   7.048   4.493   1.638 -2.1900  0.8881 -1.3836
  629MOL0     H84902   7.168   4.697   1.585  0.3013 -2.8161 -0.9855
  629MOL0     H84903   7.251   5.142   1.885  0.5337 -1.0837  0.2840
  629MOL0     H84904   7.381   5.361   1.908  1.1738 -0.1483  0.6695
  629MOL0     H84905   7.736   5.531   1.768 -1.6913  2.8660 -1.2183
  629MOL0     H84906   7.739   5.405   1.646 -1.1550 -0.0367 -1.1835
  629MOL0     H84907   7.588   5.665   1.636  1.2519  0.9983 -1.3955
  629MOL0     H84908   7.531   5.534   1.538 -1.5017  0.6201  0.9192
  629MOL0     H84909   7.669   5.673   1.393  0.6615  3.2193  1.8940
  629MOL0     H84910   7.730   5.512   1.410 -0.3831  1.6562 -1.9089
  629MOL0     H84911   7.835   5.757   1.566  2.6632  0.7178  0.3752
  629MOL0     H84912   7.924   5.678   1.423  0.2218 -1.6617 -0.0096
  629MOL0     H84913   8.058   5.501   1.770  0.9030 -0.1247 -1.2099
  629MOL0     H84914   7.587   5.262   1.536 -0.1942 -1.8677 -0.4545
  629MOL0     H84915   7.458   5.052   1.511  1.4566 -3.1749  2.7727
  630MOL0     O84916  10.696   4.543   4.687  0.3241  0.2568  0.3637
  630MOL0     C84917  10.810   4.554   4.640 -0.2625 -0.2941 -0.3177
  630MOL0     O84918  10.848   4.625   4.529 -0.8119  0.1187 -0.5050
  630MOL0     C84919  10.746   4.701   4.472 -0.1467 -0.1958 -0.0245
  630MOL0     C84920  10.726   4.703   4.330  0.4834  0.5189  0.6826
  630MOL0     C84921  10.619   4.767   4.255 -0.9210 -0.7988 -0.1976
  630MOL0     C84922  10.545   4.855   4.325 -0.1387 -1.0751 -0.1207
  630MOL0     O84923  10.456   4.945   4.263  0.7121  0.3886 -0.1684
  630MOL0     C84924  10.414   4.930   4.133  0.7870 -0.4070  0.4707
  630MOL0     C84925  10.330   5.053   4.096  1.0564 -0.0210 -0.3992
  630MOL0     C84926  10.416   5.183   4.112 -0.0171  0.3472 -0.4827
  630MOL0     C84927  10.341   5.305   4.061  0.9220  0.8128 -1.4756
  630MOL0     C84928  10.236   5.350   4.168 -0.7958  0.6798 -0.5683
  630MOL0     C84929  10.138   5.471   4.129  0.4262  0.2979 -0.3889
  630MOL0     C84930  10.069   5.549   4.242  0.3778  0.0988 -0.0170
  630MOL0     C84931   9.981   5.452   4.330 -0.0864 -0.3811 -0.7451
  630MOL0     N84932   9.856   5.414   4.266  0.4469  0.5141  0.3282
  630MOL0     C84933   9.831   5.301   4.183 -0.1483  0.6654 -0.4607
  630MOL0     C84934   9.693   5.301   4.162 -0.0807  0.9792  0.1992
  630MOL0     C84935   9.604   5.204   4.080 -0.0519  0.0457 -0.0145
  630MOL0     C84936   9.676   5.153   3.950 -0.2443 -0.6972 -0.8090
  630MOL0     C84937   9.697   5.259   3.845 -0.4407  0.8920 -0.0666
  630MOL0     C84938   9.800   5.370   3.875  0.4072 -0.8744 -0.6237
  630MOL0     O84939   9.932   5.336   3.902  1.6411  0.0532 -0.1662
  630MOL0     C84940   9.996   5.265   3.801 -0.6567 -0.3429  0.4056
  630MOL0     C84941  10.052   5.137   3.809 -0.6187  0.2734 -0.3049
  630MOL0     C84942  10.132   5.082   3.704  0.5100 -0.3740 -0.4171
  630MOL0     C84943  10.191   4.948   3.739 -0.0057 -0.1753  0.6718
  630MOL0     C84944  10.156   5.168   3.591 -0.5289 -0.6969  0.3297
  630MOL0     C84945  10.224   5.115   3.470 -0.6558  0.0812 -0.1979
  630MOL0     O84946  10.286   5.211   3.384 -0.4967  0.6613  0.6045
  630MOL0     C84947  10.280   5.195   3.254  0.4836  0.0396  1.1203
  630MOL0     C84948  10.157   5.198   3.186 -1.1001 -0.8608  1.0349
  630MOL0     C84949  10.144   5.187   3.048 -1.1212 -0.5954  1.0733
  630MOL0     C84950  10.260   5.166   2.965 -0.3334 -0.8656  0.4774
  630MOL0     O84951  10.248   5.142   2.831 -0.2998 -1.0798  0.2322
  630MOL0     C84952  10.226   5.257   2.750  0.2927 -0.5150 -0.1670
  630MOL0     C84953  10.238   5.216   2.607  0.1929 -0.2776  0.7844
  630MOL0     C84954  10.254   5.330   2.516 -0.1893 -0.6977 -0.1526
  630MOL0     C84955  10.154   5.448   2.526 -0.5969 -0.8275 -0.4588
  630MOL0     C84956  10.128   5.521   2.390  0.5724  0.1288  0.8572
  630MOL0     C84957  10.044   5.641   2.403 -0.5897  0.5631  0.4658
  630MOL0     C84958  10.132   5.764   2.448 -1.1802  0.2826 -0.0456
  630MOL0     C84959  10.038   5.882   2.504 -0.7500  0.0807  0.3666
  630MOL0    Cl84960   9.883   5.926   2.427 -0.5083  0.6489  0.0700
  630MOL0     C84961  10.384   5.157   3.028  0.3974 -0.8184 -0.0793
  630MOL0     C84962  10.394   5.170   3.168  0.2547  0.0432 -0.4173
  630MOL0     O84963  10.206   5.000   3.438  0.1889  0.3162 -0.0890
  630MOL0     C84964  10.106   5.304   3.585 -1.3227  1.1898  0.2626
  630MOL0     C84965  10.022   5.340   3.688 -0.5505  0.1705 -0.0603
  630MOL0     N84966   9.643   5.421   4.214 -0.1430  0.5153 -0.2677
  630MOL0     N84967   9.740   5.480   4.273 -0.1739 -0.3048 -0.1203
  630MOL0     C84968  10.566   4.865   4.465 -0.3953  0.8964  0.4635
  630MOL0     C84969  10.658   4.791   4.537 -0.9190  1.6934  0.4005
  630MOL0     C84970  10.915   4.476   4.722 -0.4105 -0.4387 -0.2933
  630MOL0     C84971  11.042   4.495   4.679  0.7878 -0.1108  0.5283
  630MOL0     C84972  11.148   4.419   4.734 -0.0298 -0.0518  0.5504
  630MOL0     C84973  11.128   4.349   4.858 -0.2244 -0.1176  1.3407
  630MOL0     O84974  11.245   4.294   4.915 -0.4360 -0.3312  0.1434
  630MOL0     C84975  11.283   4.306   5.053  0.4787  0.5847  0.2411
  630MOL0     C84976  11.298   4.442   5.111 -0.8042  0.4662 -0.7436
  630MOL0     C84977  11.406   4.527   5.042  0.4397 -0.4953 -0.5663
  630MOL0     C84978  11.419   4.678   5.087 -0.7064  0.6714  0.6072
  630MOL0     C84979  11.413   4.677   5.235  1.4252  1.0942 -0.3923
  630MOL0     C84980  11.447   4.685   5.351 -0.0723  0.4989  0.1856
  630MOL0     C84981  11.010   4.335   4.913  0.8071  0.4851 -0.3434
  630MOL0     C84982  10.900   4.394   4.845  0.3574 -1.0477  0.0682
  630MOL0     H84983  10.805   4.648   4.280 -1.0631  1.0388 -2.6161
  630MOL0     H84984  10.602   4.759   4.148 -2.9830  0.0603  0.0053
  630MOL0     H84985  10.499   4.927   4.063  0.3982  1.9674 -0.1620
  630MOL0     H84986  10.345   4.846   4.121  0.8820 -0.2672 -1.2966
  630MOL0     H84987  10.295   5.034   3.994  2.2395  2.8060 -1.4282
  630MOL0     H84988  10.250   5.063   4.170 -0.6738 -0.2050 -2.1651
  630MOL0     H84989  10.465   5.201   4.208  3.7710 -0.7735 -2.0064
  630MOL0     H84990  10.504   5.168   4.050 -1.7010 -4.4902 -2.2061
  630MOL0     H84991  10.415   5.386   4.061  1.3533  0.5610  1.8873
  630MOL0     H84992  10.294   5.295   3.963 -2.8809 -3.7269  0.4187
  630MOL0     H84993  10.181   5.263   4.204 -0.9267  1.1961  0.5273
  630MOL0     H84994  10.290   5.373   4.261 -1.9302  1.8177 -0.1705
  630MOL0     H84995  10.210   5.543   4.090  0.7774 -0.0634 -0.4151
  630MOL0     H84996  10.069   5.447   4.047 -0.0692  3.0015 -0.8768
  630MOL0     H84997  10.134   5.610   4.306 -0.5061  1.1535 -0.0944
  630MOL0     H84998   9.998   5.616   4.193 -5.2522 -4.9011  0.1212
  630MOL0     H84999   9.954   5.505   4.422 -0.2194 -0.7923 -0.5424
  630MOL0     H85000  10.030   5.361   4.368  2.1098  0.6334 -1.0114
  630MOL0     H85001   9.904   5.225   4.159  0.6312  0.7278  1.5285
  630MOL0     H85002   9.604   5.103   4.122  1.1441 -0.0285 -0.1313
  630MOL0     H85003   9.506   5.243   4.050 -1.0305 -1.2909  1.3466
  630MOL0     H85004   9.610   5.090   3.889 -0.0032 -0.1586 -1.6429
  630MOL0     H85005   9.767   5.099   3.975 -0.1104  0.0967  0.5139
  630MOL0     H85006   9.605   5.304   3.807 -0.5255 -2.1088 -3.9959
  630MOL0     H85007   9.728   5.214   3.750  2.2289  6.7268 -2.5183
  630MOL0     H85008   9.766   5.432   3.958  1.3581 -0.7023 -0.3548
  630MOL0     H85009   9.810   5.442   3.793  2.0502  1.7836  1.7295
  630MOL0     H85010  10.039   5.070   3.894 -1.2081 -1.3356 -1.5908
  630MOL0     H85011  10.179   4.919   3.844  1.4797 -1.1383  0.6059
  630MOL0     H85012  10.143   4.876   3.673  0.5524  1.6103 -1.8185
  630MOL0     H85013  10.298   4.951   3.716 -0.2342 -2.4092 -1.0006
  630MOL0     H85014  10.061   5.200   3.235 -2.0315 -0.6055 -0.7068
  630MOL0     H85015  10.054   5.200   2.989  0.4400  0.2813 -1.2812
  630MOL0     H85016  10.123   5.289   2.769  1.1613  3.7524 -1.5805
  630MOL0     H85017  10.302   5.334   2.764  1.2857 -1.4970  0.0134
  630MOL0     H85018  10.326   5.157   2.581  1.1015  1.9386 -1.5977
  630MOL0     H85019  10.161   5.146   2.573 -0.6961  0.5286  1.0718
  630MOL0     H85020  10.244   5.296   2.413  1.8164 -3.9384  0.5642
  630MOL0     H85021  10.355   5.372   2.521  0.4735 -2.3461  2.0009
  630MOL0     H85022  10.062   5.392   2.548 -0.4034 -0.5840  1.0691
  630MOL0     H85023  10.173   5.512   2.613 -2.3537  0.9509 -1.2969
  630MOL0     H85024  10.073   5.451   2.326  0.9369 -0.5982  1.3200
  630MOL0     H85025  10.223   5.533   2.338 -0.0028  0.9442 -0.0400
  630MOL0     H85026  10.001   5.670   2.307  0.1927 -1.6732 -0.6162
  630MOL0     H85027   9.964   5.623   2.475 -1.3260 -0.9295 -0.6792
  630MOL0     H85028  10.189   5.796   2.360 -2.9763  2.0312 -0.6575
  630MOL0     H85029  10.202   5.760   2.532 -1.0791  2.3155  0.0161
  630MOL0     H85030  10.105   5.968   2.496  3.9610 -3.2085 -0.2270
  630MOL0     H85031  10.016   5.856   2.608 -0.2348  1.7169  0.9116
  630MOL0     H85032  10.468   5.124   2.967 -0.8767 -0.2269 -2.2518
  630MOL0     H85033  10.491   5.147   3.212  0.4250  3.4917  1.3108
  630MOL0     H85034  10.130   5.373   3.504  2.5100 -1.7248 -1.4226
  630MOL0     H85035   9.999   5.445   3.678 -0.8988  0.1277  0.2366
  630MOL0     H85036  10.494   4.935   4.507  0.8820  1.4113  1.8769
  630MOL0     H85037  10.652   4.788   4.646  0.2336 -0.9726  0.4756
  630MOL0     H85038  11.064   4.544   4.585 -1.4188 -0.4574 -0.2125
  630MOL0     H85039  11.248   4.406   4.696 -0.4118 -0.9893 -0.1460
  630MOL0     H85040  11.200   4.255   5.104  0.1797  0.7164 -0.1106
  630MOL0     H85041  11.373   4.246   5.069 -2.3300 -3.2797  3.7088
  630MOL0     H85042  11.303   4.431   5.220 -2.1476 -1.0683 -0.7802
  630MOL0     H85043  11.203   4.488   5.085 -0.8820 -0.8652 -3.1041
  630MOL0     H85044  11.400   4.523   4.933  0.7029 -2.0446 -0.5391
  630MOL0     H85045  11.503   4.480   5.063  0.9303 -1.1727 -3.8299
  630MOL0     H85046  11.341   4.738   5.038 -1.6373 -0.0279  1.1923
  630MOL0     H85047  11.518   4.709   5.053  1.8649  1.2554  7.1471
  630MOL0     H85048  11.496   4.694   5.447 -1.5717 -0.9395  1.1470
  630MOL0     H85049  11.011   4.276   5.005 -0.2729  0.8735 -0.0628
  630MOL0     H85050  10.800   4.391   4.887 -0.3000 -2.8248 -1.4963
  631MOL0     O85051  11.127   3.797  11.535  1.0869  0.2601  0.6155
  631MOL0     C85052  11.059   3.708  11.591 -0.9066  0.4274  0.0124
  631MOL0     O85053  10.925   3.684  11.586 -0.1458 -0.9204  0.3068
  631MOL0     C85054  10.853   3.803  11.569  0.9068  0.2708 -0.0607
  631MOL0     C85055  10.773   3.818  11.452  0.3143 -0.2271 -0.3568
  631MOL0     C85056  10.709   3.944  11.426 -0.1304  1.2130  0.2603
  631MOL0     C85057  10.720   4.044  11.528 -0.1784  1.4745  1.7654
  631MOL0     O85058  10.660   4.166  11.521  0.7033  0.0044 -0.3994
  631MOL0     C85059  10.566   4.192  11.420 -0.0084 -0.6782 -0.6765
  631MOL0     C85060  10.484   4.322  11.444  0.3415 -0.2615  0.3498
  631MOL0     C85061  10.344   4.310  11.386  0.9049 -0.5548 -0.4728
  631MOL0     C85062  10.255   4.424  11.440 -0.5072  0.1807  0.0980
  631MOL0     C85063  10.190   4.492  11.321  0.1273  0.2975 -0.4414
  631MOL0     C85064  10.278   4.587  11.249  0.2261  0.3861  0.2028
  631MOL0     C85065  10.226   4.613  11.099 -0.1652  0.1692  0.1067
  631MOL0     C85066  10.285   4.745  11.048  0.5635 -0.5632 -0.7376
  631MOL0     N85067  10.245   4.767  10.907 -0.2477 -0.1886 -0.2244
  631MOL0     C85068  10.297   4.878  10.844 -0.6727  0.7367  0.5802
  631MOL0     C85069  10.211   4.886  10.741 -0.0221  0.3236  1.1844
  631MOL0     C85070  10.214   5.010  10.653 -0.9337 -0.1958 -0.9839
  631MOL0     C85071  10.121   5.002  10.528  0.6588 -0.1769  1.1093
  631MOL0     C85072  10.180   4.891  10.435 -0.0871  0.6888 -0.2667
  631MOL0     C85073  10.310   4.923  10.362 -0.1284 -0.4847 -0.3769
  631MOL0     O85074  10.421   4.874  10.437  1.1130 -0.4902  0.1347
  631MOL0     C85075  10.552   4.909  10.401  0.3746  0.5844 -0.8046
  631MOL0     C85076  10.659   4.875  10.484 -0.3195 -1.0859 -1.4409
  631MOL0     C85077  10.795   4.915  10.465 -0.9073  0.8707  0.4599
  631MOL0     C85078  10.914   4.866  10.549  0.8553  1.0208  0.5501
  631MOL0     C85079  10.819   4.988  10.340 -0.1132  0.6129 -0.5093
  631MOL0     C85080  10.957   5.032  10.294 -1.5935  0.4839 -0.3184
  631MOL0     O85081  10.975   5.035  10.152  0.6983 -0.2879  0.4535
  631MOL0     C85082  11.082   5.105  10.101  0.2276 -1.0867 -0.1301
  631MOL0     C85083  11.208   5.103  10.148 -0.8480 -0.7381 -0.5497
  631MOL0     C85084  11.312   5.174  10.099 -0.0184 -0.1921 -0.5477
  631MOL0     C85085  11.290   5.265   9.997 -0.2455  0.7117 -0.4163
  631MOL0     O85086  11.380   5.350   9.939  0.1185  0.1158 -0.0966
  631MOL0     C85087  11.488   5.381  10.029 -0.0588  0.3164 -0.0768
  631MOL0     C85088  11.563   5.511   9.989 -1.0312  1.1149 -0.6121
  631MOL0     C85089  11.483   5.638  10.002  0.1572  0.6397 -0.0299
  631MOL0     C85090  11.453   5.680  10.158 -0.0910 -0.6549 -0.0215
  631MOL0     C85091  11.377   5.806  10.153 -0.5833 -0.8775 -0.8532
  631MOL0     C85092  11.460   5.929  10.177  0.4594 -0.5071  0.7887
  631MOL0     C85093  11.518   5.944  10.315  0.6071 -0.5981  0.8542
  631MOL0     C85094  11.564   6.088  10.352  0.7095  0.1172 -0.1600
  631MOL0    Cl85095  11.728   6.112  10.265  0.4091  0.0286 -0.4208
  631MOL0     C85096  11.165   5.266   9.943 -0.3905 -0.9997  0.1153
  631MOL0     C85097  11.058   5.192   9.993 -0.0448 -0.1348 -0.2228
  631MOL0     O85098  11.037   5.086  10.379 -0.3536  0.2908 -0.2547
  631MOL0     C85099  10.709   5.016  10.248 -0.2829 -0.1901 -0.1966
  631MOL0     C85100  10.579   4.975  10.277 -0.1095  0.7059 -0.0419
  631MOL0     N85101  10.103   4.804  10.755  0.1270 -0.3822 -1.0922
  631MOL0     N85102  10.132   4.723  10.856  0.0643 -1.3079  0.3316
  631MOL0     C85103  10.805   4.030  11.637 -0.7760  0.3858 -0.0225
  631MOL0     C85104  10.881   3.915  11.656  0.0042 -0.4171  1.0137
  631MOL0     C85105  11.140   3.605  11.663  1.1964  0.6475  0.2925
  631MOL0     C85106  11.273   3.576  11.639 -0.0308 -0.3723  1.1649
  631MOL0     C85107  11.338   3.471  11.703  0.7532  0.3165  0.6603
  631MOL0     C85108  11.284   3.407  11.810  0.3567 -0.1395 -0.8804
  631MOL0     O85109  11.369   3.325  11.889  0.6746 -0.1373  0.0748
  631MOL0     C85110  11.359   3.183  11.851 -0.1563 -0.1484  0.0566
  631MOL0     C85111  11.414   3.162  11.709 -0.3680 -0.1736  0.9397
  631MOL0     C85112  11.464   3.019  11.689 -0.0884 -0.3791  0.8547
  631MOL0     C85113  11.343   2.917  11.675  0.7969  0.0414  0.6372
  631MOL0     C85114  11.404   2.784  11.642 -0.3566 -0.8917 -0.4255
  631MOL0     C85115  11.475   2.690  11.627  0.0003 -0.1764 -0.2198
  631MOL0     C85116  11.154   3.438  11.853 -0.2369 -0.0461 -0.4437
  631MOL0     C85117  11.081   3.534  11.784 -0.6464 -0.4276 -0.5654
  631MOL0     H85118  10.765   3.732  11.386  0.7996 -0.1382 -0.5306
  631MOL0     H85119  10.656   3.956  11.332 -1.4484 -1.7211  0.5347
  631MOL0     H85120  10.624   4.193  11.327  0.5737  3.6733 -0.4559
  631MOL0     H85121  10.493   4.110  11.417 -1.0618  0.0968  1.5878
  631MOL0     H85122  10.478   4.355  11.548 -1.6401  0.5212  0.0367
  631MOL0     H85123  10.530   4.402  11.386  0.9124 -1.3241 -0.7174
  631MOL0     H85124  10.353   4.310  11.277  0.9211  2.5679 -0.5580
  631MOL0     H85125  10.306   4.210  11.408 -0.2819  0.1263  0.7451
  631MOL0     H85126  10.177   4.375  11.498  0.4892  0.2632  1.5491
  631MOL0     H85127  10.306   4.507  11.490 -1.5489  2.7685 -2.7859
  631MOL0     H85128  10.165   4.409  11.254 -1.2574  1.4003 -1.3446
  631MOL0     H85129  10.093   4.534  11.348  0.0004 -1.3615  1.9968
  631MOL0     H85130  10.294   4.682  11.301 -0.6397 -0.7709  2.8044
  631MOL0     H85131  10.372   4.533  11.238 -0.3439 -0.2599 -1.8502
  631MOL0     H85132  10.255   4.530  11.033 -1.5612 -0.4830  0.2769
  631MOL0     H85133  10.118   4.625  11.098 -1.1751 -5.7477  0.5508
  631MOL0     H85134  10.394   4.746  11.059  0.3975 -0.3589  1.2086
  631MOL0     H85135  10.237   4.822  11.108 -1.0412 -2.3295  0.3229
  631MOL0     H85136  10.367   4.951  10.882  2.5745 -1.3093 -1.0786
  631MOL0     H85137  10.178   5.094  10.713 -1.7809 -1.1162 -0.1560
  631MOL0     H85138  10.317   5.027  10.620 -1.8380  2.9324 -2.5865
  631MOL0     H85139  10.125   5.095  10.470 -3.3204 -1.0767 -0.9450
  631MOL0     H85140  10.015   5.006  10.552  1.0564 -0.0437  2.9890
  631MOL0     H85141  10.101   4.865  10.363 -1.9790  1.9838  1.2480
  631MOL0     H85142  10.178   4.801  10.497 -2.3747 -0.4922 -1.8772
  631MOL0     H85143  10.333   5.028  10.345  1.0150 -0.6769 -0.0938
  631MOL0     H85144  10.308   4.869  10.267  1.3128  0.3907 -0.9362
  631MOL0     H85145  10.635   4.800  10.558 -0.9774 -0.9742 -1.5353
  631MOL0     H85146  11.009   4.851  10.497  1.9188 -0.5644  2.7991
  631MOL0     H85147  10.928   4.940  10.629  1.1609  0.7216  0.7743
  631MOL0     H85148  10.890   4.768  10.590  0.7622  1.7300  2.2605
  631MOL0     H85149  11.231   5.036  10.230 -0.3748  0.3267  0.1976
  631MOL0     H85150  11.405   5.162  10.152 -1.5080 -3.5733  1.6221
  631MOL0     H85151  11.448   5.405  10.128 -1.2991  2.0520 -0.9372
  631MOL0     H85152  11.564   5.303  10.037  1.0713  0.7758 -4.0731
  631MOL0     H85153  11.650   5.497  10.055 -1.3923 -2.1303 -0.6889
  631MOL0     H85154  11.594   5.505   9.884 -1.7494 -0.9278 -0.7379
  631MOL0     H85155  11.390   5.635   9.944  1.6238  2.4549 -2.6229
  631MOL0     H85156  11.546   5.720   9.969  0.6071  0.6968  0.9306
  631MOL0     H85157  11.390   5.607  10.210 -1.0823  1.6204  2.2112
  631MOL0     H85158  11.544   5.682  10.218  0.3541 -2.8586 -0.5400
  631MOL0     H85159  11.317   5.785  10.242  0.3667 -1.5250 -0.3427
  631MOL0     H85160  11.312   5.809  10.065 -1.9015 -1.9168  0.0411
  631MOL0     H85161  11.546   5.929  10.109 -0.4069  1.8364 -0.4360
  631MOL0     H85162  11.399   6.017  10.156  5.4289  2.5438 -3.6812
  631MOL0     H85163  11.603   5.880  10.342  1.7245  0.1771 -0.6813
  631MOL0     H85164  11.439   5.911  10.383  0.2486 -1.7370 -0.0771
  631MOL0     H85165  11.589   6.084  10.458  0.6650  0.2361 -0.1457
  631MOL0     H85166  11.482   6.156  10.326 -1.4175 -2.1474  0.2140
  631MOL0     H85167  11.134   5.319   9.853 -1.7454 -3.5955 -1.0618
  631MOL0     H85168  10.960   5.192   9.945 -2.0250  2.2644  3.3596
  631MOL0     H85169  10.729   5.070  10.156 -0.8420 -1.3933 -1.0541
  631MOL0     H85170  10.499   4.994  10.205  0.0808 -0.3748 -0.5529
  631MOL0     H85171  10.827   4.099  11.719 -0.6220 -0.4440  0.6518
  631MOL0     H85172  10.954   3.901  11.735 -0.8999 -2.0386  1.6199
  631MOL0     H85173  11.327   3.650  11.581 -0.3751  2.5631  4.2547
  631MOL0     H85174  11.437   3.445  11.668 -0.2430 -3.0144 -0.0993
  631MOL0     H85175  11.411   3.126  11.929 -0.4125 -0.2979  0.1199
  631MOL0     H85176  11.252   3.159  11.851 -0.8289  2.2425 -2.8671
  631MOL0     H85177  11.495   3.234  11.690 -2.2525  2.4215  2.1786
  631MOL0     H85178  11.352   3.183  11.621 -0.3279 -2.7724  0.1915
  631MOL0     H85179  11.517   2.988  11.779 -3.5316 -1.3950  2.7229
  631MOL0     H85180  11.525   3.005  11.599 -4.0726 -1.5338 -1.9467
  631MOL0     H85181  11.276   2.940  11.592  1.5038 -2.8082 -0.8516
  631MOL0     H85182  11.276   2.919  11.762 -0.2514 -1.2582 -0.1055
  631MOL0     H85183  11.527   2.597  11.614 -1.0715 -1.7517  4.7347
  631MOL0     H85184  11.126   3.376  11.938  0.4568 -0.6351 -0.6278
  631MOL0     H85185  10.975   3.551  11.804 -0.9664  1.4644 -3.2186
  632MOL0     O85186   6.418   1.874   8.195 -0.4534  0.2584  0.1074
  632MOL0     C85187   6.318   1.933   8.224  0.3157 -0.4686 -0.3969
  632MOL0     O85188   6.261   1.936   8.350 -0.4933 -0.3244  1.1736
  632MOL0     C85189   6.312   1.869   8.460  0.3298  0.1280 -0.3399
  632MOL0     C85190   6.254   1.918   8.579  0.1005  0.3818 -0.6599
  632MOL0     C85191   6.294   1.853   8.698  1.4345  0.9558  0.6045
  632MOL0     C85192   6.379   1.746   8.707 -0.7059  0.6447 -0.2672
  632MOL0     O85193   6.412   1.717   8.834  0.9040 -0.3975 -0.5702
  632MOL0     C85194   6.464   1.584   8.850  0.5718  1.3147  0.3142
  632MOL0     C85195   6.427   1.535   8.984 -0.7480  0.0013  0.3825
  632MOL0     C85196   6.511   1.414   9.013  0.0231 -0.4483  0.0957
  632MOL0     C85197   6.459   1.334   9.133  0.3055 -0.4797  0.1708
  632MOL0     C85198   6.559   1.216   9.142 -0.4340  0.2910 -0.3907
  632MOL0     C85199   6.534   1.141   9.269 -0.2842 -0.1568 -0.4342
  632MOL0     C85200   6.618   1.013   9.280 -0.0852  0.5404 -0.0810
  632MOL0     C85201   6.625   0.942   9.427 -0.4240 -0.1024  0.3427
  632MOL0     N85202   6.624   1.036   9.543 -0.5217  0.5657  0.1974
  632MOL0     C85203   6.733   1.114   9.587  0.4615 -0.5969 -0.1078
  632MOL0     C85204   6.672   1.195   9.678  0.2339 -0.0050  0.3573
  632MOL0     C85205   6.750   1.263   9.794  0.2426 -0.3107  0.8332
  632MOL0     C85206   6.673   1.384   9.859 -0.3906 -1.2663  0.8188
  632MOL0     C85207   6.617   1.491   9.754 -0.1385 -1.0419 -0.7330
  632MOL0     C85208   6.588   1.624   9.822  1.5003 -0.4346 -0.4898
  632MOL0     O85209   6.643   1.734   9.758 -0.6769 -0.4202  0.0983
  632MOL0     C85210   6.588   1.781   9.643 -0.7441 -0.5262 -0.3943
  632MOL0     C85211   6.658   1.891   9.589  0.0401 -0.5453 -0.2041
  632MOL0     C85212   6.621   1.954   9.465  0.4218 -0.5698  0.1350
  632MOL0     C85213   6.681   2.088   9.441  0.0675  0.1226 -0.3226
  632MOL0     C85214   6.507   1.898   9.393 -0.5649  0.0835 -0.5531
  632MOL0     C85215   6.444   1.956   9.265 -0.6989 -0.9546 -0.6473
  632MOL0     O85216   6.521   2.047   9.196  0.0188 -0.9191 -0.3573
  632MOL0     C85217   6.476   2.101   9.075 -0.7338 -0.0482  0.0804
  632MOL0     C85218   6.363   2.071   9.000 -0.3583  0.3421  0.6087
  632MOL0     C85219   6.328   2.142   8.884 -0.4074 -0.2491 -0.4888
  632MOL0     C85220   6.407   2.249   8.840 -0.0416 -0.5541 -0.1190
  632MOL0     O85221   6.383   2.329   8.724  0.0288  0.2090 -0.8998
  632MOL0     C85222   6.312   2.268   8.610 -0.6065  0.8315  0.5807
  632MOL0     C85223   6.343   2.349   8.494  0.5079 -0.5320 -0.3576
  632MOL0     C85224   6.477   2.350   8.432  0.4951  0.3263 -0.4610
  632MOL0     C85225   6.498   2.425   8.293  0.5998 -1.4254 -0.2717
  632MOL0     C85226   6.571   2.344   8.187 -0.0313 -0.2503 -0.0828
  632MOL0     C85227   6.600   2.422   8.055  0.6312  0.1556 -0.3566
  632MOL0     C85228   6.669   2.561   8.063  1.1414  1.0750 -0.5879
  632MOL0     C85229   6.816   2.553   8.106 -0.5910 -0.4435 -0.5195
  632MOL0    Cl85230   6.874   2.727   8.112  0.2184 -0.3966  0.2920
  632MOL0     C85231   6.518   2.282   8.918  0.4830  0.5095 -0.9907
  632MOL0     C85232   6.560   2.205   9.033  1.1382 -0.0123  0.4437
  632MOL0     O85233   6.336   1.910   9.235  0.0295 -0.1755  0.0346
  632MOL0     C85234   6.446   1.788   9.450 -0.2462 -0.4093  0.8732
  632MOL0     C85235   6.483   1.730   9.570 -0.4466 -0.3434  0.0057
  632MOL0     N85236   6.538   1.178   9.677  0.1870  0.2739 -0.3635
  632MOL0     N85237   6.505   1.084   9.594 -0.8564  0.2972 -0.0597
  632MOL0     C85238   6.440   1.692   8.584 -0.1346 -0.9138 -0.1108
  632MOL0     C85239   6.390   1.755   8.463 -0.3572 -0.0877 -0.2775
  632MOL0     C85240   6.258   2.023   8.109  0.1854 -0.7669  0.7196
  632MOL0     C85241   6.347   2.059   8.000 -1.0326 -0.3693 -0.2442
  632MOL0     C85242   6.300   2.142   7.906 -0.7312  0.6459 -0.8888
  632MOL0     C85243   6.168   2.180   7.895  0.3218  0.7111 -0.5275
  632MOL0     O85244   6.126   2.242   7.782 -0.7178 -0.3355  0.7085
  632MOL0     C85245   6.197   2.364   7.742 -0.5881 -0.1436 -0.3933
  632MOL0     C85246   6.165   2.491   7.831  0.4169 -0.2251  0.8982
  632MOL0     C85247   6.152   2.627   7.760 -0.0306 -0.2726 -0.4002
  632MOL0     C85248   6.027   2.658   7.675 -1.0301  0.9276  0.2972
  632MOL0     C85249   5.903   2.662   7.749  0.1106 -1.0195 -1.0366
  632MOL0     C85250   5.802   2.668   7.809  0.2843 -0.2156  0.5162
  632MOL0     C85251   6.086   2.138   7.999  0.2266  0.2135 -0.2475
  632MOL0     C85252   6.132   2.068   8.114  0.7209  0.1070  0.2575
  632MOL0     H85253   6.180   1.997   8.589  0.3669  0.9254 -2.5714
  632MOL0     H85254   6.251   1.887   8.791 -1.2187  0.8201 -0.4833
  632MOL0     H85255   6.421   1.517   8.777 -0.7734 -0.1881  2.3737
  632MOL0     H85256   6.572   1.593   8.835  0.5912  0.6835  0.0764
  632MOL0     H85257   6.425   1.602   9.070  0.9017  0.1480  0.3221
  632MOL0     H85258   6.320   1.518   8.965 -1.4405  4.0837 -0.1641
  632MOL0     H85259   6.507   1.347   8.927  0.5768 -0.8709  0.3921
  632MOL0     H85260   6.614   1.443   9.035 -0.0267 -0.2921  0.1211
  632MOL0     H85261   6.468   1.403   9.217  1.8107  0.5023 -0.7536
  632MOL0     H85262   6.352   1.311   9.128 -0.6908  2.3716  3.8265
  632MOL0     H85263   6.551   1.146   9.058  1.7101 -1.5503  0.8415
  632MOL0     H85264   6.663   1.250   9.142  0.4731 -2.2809  0.3822
  632MOL0     H85265   6.549   1.211   9.352  0.7985  0.4141 -1.0844
  632MOL0     H85266   6.430   1.109   9.270 -0.0712 -0.8601  0.3570
  632MOL0     H85267   6.578   0.941   9.208 -1.1044 -1.3976  2.2704
  632MOL0     H85268   6.719   1.048   9.256  0.6492 -1.1303  0.4222
  632MOL0     H85269   6.714   0.878   9.434 -0.2602  0.2475  2.1511
  632MOL0     H85270   6.535   0.880   9.427 -0.8512  0.4699 -1.2098
  632MOL0     H85271   6.835   1.089   9.560  0.6040 -1.6341  1.2685
  632MOL0     H85272   6.774   1.191   9.872  1.7737 -0.0729  0.6116
  632MOL0     H85273   6.850   1.294   9.766  0.1558  1.0936  1.9857
  632MOL0     H85274   6.739   1.434   9.930  0.7701  1.5509 -1.9893
  632MOL0     H85275   6.588   1.332   9.904 -3.2938  1.6580 -0.7588
  632MOL0     H85276   6.532   1.459   9.694 -1.0096 -1.8552  0.8551
  632MOL0     H85277   6.705   1.508   9.691 -0.1796 -0.2027 -0.5717
  632MOL0     H85278   6.623   1.629   9.925 -1.9543 -1.7215  0.9059
  632MOL0     H85279   6.479   1.618   9.826  1.5490 -1.8134 -0.7978
  632MOL0     H85280   6.728   1.938   9.657  0.5881 -0.6274 -0.6993
  632MOL0     H85281   6.718   2.099   9.338  1.8783  2.4382  0.4916
  632MOL0     H85282   6.620   2.175   9.466 -2.4309 -1.6874  0.3491
  632MOL0     H85283   6.763   2.105   9.511 -0.0831  1.3226 -0.4256
  632MOL0     H85284   6.301   1.990   9.036  0.0585  0.1847  0.9773
  632MOL0     H85285   6.244   2.110   8.822  1.7031 -4.4188 -1.5559
  632MOL0     H85286   6.353   2.167   8.598 -1.0149  0.5135  1.7329
  632MOL0     H85287   6.208   2.242   8.633 -0.8720 -2.4914 -3.2570
  632MOL0     H85288   6.271   2.319   8.416 -0.9666  0.9351  0.3832
  632MOL0     H85289   6.305   2.450   8.513 -2.4058 -1.3379 -1.2836
  632MOL0     H85290   6.501   2.244   8.419  0.5610  0.3586 -0.6076
  632MOL0     H85291   6.555   2.382   8.501 -0.2561 -0.7780  0.9411
  632MOL0     H85292   6.401   2.459   8.256  2.0165  4.3638  0.3449
  632MOL0     H85293   6.553   2.516   8.315 -0.2469 -1.2956  1.5805
  632MOL0     H85294   6.512   2.256   8.162  2.3968 -1.5414 -1.5582
  632MOL0     H85295   6.658   2.292   8.226 -2.5038 -3.9683  0.9684
  632MOL0     H85296   6.664   2.362   7.990  0.4913 -1.2494  0.7540
  632MOL0     H85297   6.505   2.440   8.004 -0.4568  6.6470  2.9831
  632MOL0     H85298   6.611   2.627   8.128  1.7429  2.3098 -1.2818
  632MOL0     H85299   6.660   2.600   7.961  0.5613  0.2380 -0.8714
  632MOL0     H85300   6.883   2.493   8.043 -1.1102 -0.6789 -0.8507
  632MOL0     H85301   6.823   2.516   8.208 -0.3866  1.5640  0.2444
  632MOL0     H85302   6.575   2.369   8.887  0.5545  1.1600  0.8181
  632MOL0     H85303   6.652   2.225   9.087 -0.2719 -3.3486  4.5730
  632MOL0     H85304   6.358   1.742   9.407  1.1957 -3.4583  0.8768
  632MOL0     H85305   6.434   1.640   9.603  2.7713 -2.3972 -0.3736
  632MOL0     H85306   6.496   1.599   8.581  1.9415 -0.0112  3.9800
  632MOL0     H85307   6.419   1.699   8.374  2.0012 -0.8716  0.9124
  632MOL0     H85308   6.452   2.034   7.994 -0.6014  1.4539 -1.0794
  632MOL0     H85309   6.368   2.157   7.823  0.7636  0.0199  0.1662
  632MOL0     H85310   6.306   2.356   7.738 -0.1268  2.0546  3.1971
  632MOL0     H85311   6.171   2.392   7.640  3.8053  3.7582 -0.7781
  632MOL0     H85312   6.242   2.494   7.908 -0.1041 -0.3636  1.4390
  632MOL0     H85313   6.071   2.485   7.888  1.8935  2.7953  4.0114
  632MOL0     H85314   6.240   2.636   7.696 -0.0035 -3.4434 -0.9790
  632MOL0     H85315   6.147   2.709   7.832  0.9045  1.8284 -2.6207
  632MOL0     H85316   6.038   2.575   7.604 -0.0633  0.1645  1.3085
  632MOL0     H85317   6.044   2.745   7.611  2.2053  0.6461  0.5943
  632MOL0     H85318   5.716   2.676   7.872  1.5281 -0.5265  2.3203
  632MOL0     H85319   5.989   2.186   7.989 -0.1058  0.6817  3.6424
  632MOL0     H85320   6.071   2.028   8.195 -1.6317 -4.4791 -3.2753
  633MOL0     O85321   5.081   1.171   1.799  0.1547 -0.2840  0.7848
  633MOL0     C85322   5.098   1.050   1.791 -0.7793  0.3548  0.5525
  633MOL0     O85323   5.205   0.989   1.843 -0.5251  0.1585 -0.9215
  633MOL0     C85324   5.278   1.067   1.932 -0.5257  0.6704 -0.1274
  633MOL0     C85325   5.377   1.162   1.891 -0.0212  0.3861 -0.3104
  633MOL0     C85326   5.445   1.239   1.987  0.0450  0.2865  0.6600
  633MOL0     C85327   5.432   1.214   2.127  0.1947  0.5970 -0.2461
  633MOL0     O85328   5.497   1.264   2.232 -0.5647 -0.5876  1.0797
  633MOL0     C85329   5.600   1.364   2.197  0.2695  0.4310  0.3096
  633MOL0     C85330   5.626   1.444   2.327 -0.3050 -0.4528  0.7955
  633MOL0     C85331   5.755   1.524   2.326  1.1763  0.6435 -0.6262
  633MOL0     C85332   5.800   1.555   2.463 -0.4752  0.8505 -0.2432
  633MOL0     C85333   5.908   1.655   2.453 -0.2602 -0.8805 -0.9488
  633MOL0     C85334   6.034   1.624   2.370  0.1333 -0.1609 -0.2507
  633MOL0     C85335   6.144   1.734   2.395 -0.1300  0.0790  0.1054
  633MOL0     C85336   6.121   1.868   2.320  0.5224 -0.6721  0.1694
  633MOL0     N85337   6.243   1.945   2.331 -1.1087 -0.0725 -0.6260
  633MOL0     C85338   6.252   2.055   2.411 -0.3982 -0.8781  1.1992
  633MOL0     C85339   6.364   2.124   2.369 -0.5179  0.4795 -0.1491
  633MOL0     C85340   6.421   2.253   2.404  0.2471 -0.3132  1.0738
  633MOL0     C85341   6.567   2.218   2.448 -0.3182  0.2972  0.0457
  633MOL0     C85342   6.644   2.332   2.522  0.7128  0.2453 -0.4511
  633MOL0     C85343   6.777   2.298   2.565  0.3603 -0.6925  0.5258
  633MOL0     O85344   6.849   2.413   2.608  0.0323 -1.3350 -0.3123
  633MOL0     C85345   6.983   2.389   2.645 -0.1383  1.0643 -0.2694
  633MOL0     C85346   7.064   2.278   2.615  0.1552 -0.1999 -0.4469
  633MOL0     C85347   7.199   2.257   2.660  0.5232 -1.0900 -0.2707
  633MOL0     C85348   7.261   2.119   2.641  0.6593 -0.4214  0.2062
  633MOL0     C85349   7.267   2.369   2.728  1.1917  0.1958  0.7087
  633MOL0     C85350   7.410   2.358   2.775 -0.5114  0.8185 -0.0045
  633MOL0     O85351   7.492   2.273   2.717 -0.4950 -0.2363  0.3501
  633MOL0     C85352   7.625   2.258   2.741  0.3477  1.3554  1.2193
  633MOL0     C85353   7.702   2.367   2.732 -0.8440 -0.3493 -0.1243
  633MOL0     C85354   7.842   2.360   2.710 -0.8108 -1.0027  0.4415
  633MOL0     C85355   7.909   2.234   2.726  0.4893  0.6316  0.7367
  633MOL0     O85356   8.043   2.225   2.717  0.2687 -0.1286  0.2170
  633MOL0     C85357   8.111   2.138   2.814 -0.9800 -1.4208  0.6010
  633MOL0     C85358   8.263   2.154   2.823  0.7746  0.2016 -0.6240
  633MOL0     C85359   8.321   2.047   2.929  0.4836 -0.6395 -0.1227
  633MOL0     C85360   8.417   1.958   2.864 -0.3621  0.1544 -0.2974
  633MOL0     C85361   8.432   1.837   2.964  0.1262  0.1138  0.0065
  633MOL0     C85362   8.560   1.755   2.922  0.3346  0.3439 -0.3671
  633MOL0     C85363   8.601   1.641   3.023  0.5676  0.5094  0.5937
  633MOL0     C85364   8.664   1.711   3.152 -0.2801 -0.2263  1.2842
  633MOL0    Cl85365   8.809   1.809   3.126  0.3489 -0.1515 -0.2242
  633MOL0     C85366   7.822   2.124   2.730  0.3963  0.9239  0.3669
  633MOL0     C85367   7.681   2.133   2.740 -0.0482 -0.8067 -0.7669
  633MOL0     O85368   7.447   2.430   2.877  0.6197  0.3697  0.7890
  633MOL0     C85369   7.184   2.480   2.755 -0.8558  0.0904 -0.2400
  633MOL0     C85370   7.057   2.490   2.704  0.1354 -0.0541 -0.1869
  633MOL0     N85371   6.430   2.042   2.284  0.1859 -0.2852  0.4186
  633MOL0     N85372   6.359   1.937   2.251  0.4614  0.4204  0.4720
  633MOL0     C85373   5.341   1.106   2.164 -0.2110 -0.6464 -0.5760
  633MOL0     C85374   5.259   1.043   2.069  0.1390  0.7931  0.5108
  633MOL0     C85375   5.005   0.961   1.719  0.1151 -0.6588  0.1296
  633MOL0     C85376   4.912   1.012   1.620  0.4029 -1.0324  0.0309
  633MOL0     C85377   4.816   0.927   1.569  0.5944  0.0095 -0.1535
  633MOL0     C85378   4.816   0.787   1.602 -0.1477  0.2348  0.3639
  633MOL0     O85379   4.718   0.699   1.572  0.0589 -0.2043  0.7998
  633MOL0     C85380   4.590   0.738   1.523  0.1553  0.6655 -0.3183
  633MOL0     C85381   4.501   0.728   1.649  0.3159  0.0962  0.1846
  633MOL0     C85382   4.357   0.720   1.594 -0.4969 -0.4808 -0.0238
  633MOL0     C85383   4.267   0.656   1.701 -0.2894  0.1039 -0.2966
  633MOL0     C85384   4.228   0.741   1.814 -0.6604 -0.3149  0.3896
  633MOL0     C85385   4.200   0.812   1.904 -0.2777  1.1976 -0.3392
  633MOL0     C85386   4.916   0.737   1.681  1.1367 -0.4082 -0.4315
  633MOL0     C85387   5.011   0.823   1.742 -0.0125  0.9545 -0.1557
  633MOL0     H85388   5.385   1.156   1.783 -0.2106 -3.2149 -0.2261
  633MOL0     H85389   5.512   1.313   1.944 -1.1596 -0.7157 -3.4739
  633MOL0     H85390   5.692   1.314   2.166  2.1194  1.8522  3.0880
  633MOL0     H85391   5.574   1.439   2.121  2.8439  2.0357  0.8646
  633MOL0     H85392   5.548   1.517   2.350  2.0744  1.3409  4.1266
  633MOL0     H85393   5.619   1.387   2.420  0.2129  0.9881  1.7549
  633MOL0     H85394   5.831   1.461   2.280 -1.0415 -4.0171  1.4686
  633MOL0     H85395   5.728   1.614   2.270 -3.4335 -1.0867 -1.6750
  633MOL0     H85396   5.722   1.589   2.533 -0.6111 -1.9545  1.1136
  633MOL0     H85397   5.844   1.469   2.515  1.5437  1.9056 -0.1045
  633MOL0     H85398   5.880   1.760   2.441 -2.1144 -1.3162 -0.7820
  633MOL0     H85399   5.932   1.661   2.560  0.8701  0.3268 -1.2535
  633MOL0     H85400   6.070   1.530   2.413 -2.2761  0.0995  2.6906
  633MOL0     H85401   6.024   1.606   2.263  2.1022 -2.0142 -0.2084
  633MOL0     H85402   6.151   1.750   2.503 -4.1572 -0.2619  0.5788
  633MOL0     H85403   6.232   1.687   2.352 -1.4052 -0.8764 -1.5950
  633MOL0     H85404   6.042   1.934   2.359  3.0260  1.1295  2.6017
  633MOL0     H85405   6.111   1.860   2.211  1.7043  0.4963 -0.0570
  633MOL0     H85406   6.182   2.092   2.486  0.0869  0.2005  1.1397
  633MOL0     H85407   6.421   2.329   2.325 -1.2760 -0.7414  0.6324
  633MOL0     H85408   6.359   2.291   2.486 -3.2121 -3.2182  0.0557
  633MOL0     H85409   6.634   2.180   2.371  0.9502 -1.7307  2.0037
  633MOL0     H85410   6.560   2.135   2.520 -0.0934  0.6911  0.5319
  633MOL0     H85411   6.591   2.359   2.614  1.1318  6.2695 -1.5620
  633MOL0     H85412   6.638   2.425   2.464  2.3788  0.6533 -0.0348
  633MOL0     H85413   6.827   2.255   2.477  1.5895 -1.6804  1.6703
  633MOL0     H85414   6.777   2.216   2.637 -1.2813 -1.5593 -0.4035
  633MOL0     H85415   7.028   2.193   2.558  0.7358  0.3367 -1.6447
  633MOL0     H85416   7.304   2.092   2.737  1.0011  2.6622  1.0454
  633MOL0     H85417   7.197   2.039   2.603  0.6155  0.0598 -0.7692
  633MOL0     H85418   7.348   2.140   2.578 -0.0923  2.0965 -0.0981
  633MOL0     H85419   7.656   2.465   2.735 -1.8693 -0.7739 -1.0496
  633MOL0     H85420   7.907   2.446   2.698 -2.2971 -0.0995 -2.0933
  633MOL0     H85421   8.077   2.162   2.915 -0.1879  1.0927  0.3229
  633MOL0     H85422   8.080   2.034   2.797  2.0016 -2.1994 -0.8032
  633MOL0     H85423   8.310   2.142   2.725  1.0854 -0.3822 -0.4118
  633MOL0     H85424   8.286   2.256   2.854  0.5009 -0.4911  2.1088
  633MOL0     H85425   8.245   1.988   2.980  0.1729  1.3691  1.9140
  633MOL0     H85426   8.360   2.100   3.017 -1.1326 -1.6864  1.2901
  633MOL0     H85427   8.385   1.919   2.767 -1.0012 -2.8256  0.9834
  633MOL0     H85428   8.507   2.019   2.854 -0.1939  0.3083  1.6736
  633MOL0     H85429   8.348   1.767   2.962 -0.1736  0.4767 -0.1797
  633MOL0     H85430   8.434   1.861   3.070 -0.1850 -3.5107  0.9735
  633MOL0     H85431   8.519   1.706   2.834 -1.7442  0.2092  0.6116
  633MOL0     H85432   8.644   1.817   2.891  1.6188  0.6659  3.2285
  633MOL0     H85433   8.673   1.579   2.969  0.6505  2.9597 -2.3893
  633MOL0     H85434   8.524   1.565   3.035 -0.9598  0.9180 -4.4052
  633MOL0     H85435   8.689   1.642   3.233  1.2833  0.5764  1.5062
  633MOL0     H85436   8.591   1.774   3.203 -4.1732 -0.8775 -2.7948
  633MOL0     H85437   7.858   2.023   2.747 -2.1482  0.3658  3.3143
  633MOL0     H85438   7.604   2.057   2.750 -0.4976 -0.4817 -1.6574
  633MOL0     H85439   7.228   2.558   2.816 -0.3676  2.1494 -3.0067
  633MOL0     H85440   7.011   2.589   2.708 -1.1850 -0.5799 -1.3999
  633MOL0     H85441   5.327   1.080   2.268  0.1949 -3.3837 -1.1278
  633MOL0     H85442   5.179   0.978   2.099  0.7863  0.0594  0.6727
  633MOL0     H85443   4.926   1.119   1.608 -0.7575 -0.7580  0.9062
  633MOL0     H85444   4.739   0.977   1.512  0.0003 -0.1549  0.4879
  633MOL0     H85445   4.585   0.843   1.491 -0.7747  0.5567 -0.5549
  633MOL0     H85446   4.561   0.675   1.439 -0.5263  2.4747 -1.4949
  633MOL0     H85447   4.507   0.808   1.725 -1.1251  1.9468 -1.5382
  633MOL0     H85448   4.531   0.645   1.713 -1.9935  0.6114  2.0826
  633MOL0     H85449   4.343   0.660   1.504 -0.3196  0.8531 -0.9845
  633MOL0     H85450   4.321   0.814   1.552 -0.9626 -1.5428 -2.1323
  633MOL0     H85451   4.324   0.567   1.729  1.1560  0.6528 -1.4028
  633MOL0     H85452   4.172   0.635   1.650 -1.9887  0.8038  2.3515
  633MOL0     H85453   4.174   0.863   1.994 -2.3531  1.5298 -1.0581
  633MOL0     H85454   4.925   0.630   1.696 -2.0304 -0.6909  0.2295
  633MOL0     H85455   5.093   0.778   1.797  0.4567  0.4530 -1.2494
  634MOL0     O85456   5.885   6.846   6.526 -0.3977  0.9248  0.3206
  634MOL0     C85457   5.972   6.925   6.490  0.0925  0.8687 -0.2805
  634MOL0     O85458   6.033   7.025   6.564  0.0175  0.9496 -0.3026
  634MOL0     C85459   6.016   7.059   6.704  0.9526  0.9739  0.1140
  634MOL0     C85460   5.942   6.981   6.798 -0.1709  1.0429 -0.8424
  634MOL0     C85461   5.938   7.012   6.930 -0.5202  0.1385 -0.0806
  634MOL0     C85462   6.012   7.124   6.974 -0.4365 -0.1040 -0.2282
  634MOL0     O85463   6.019   7.161   7.105 -0.0733 -0.0901  0.2485
  634MOL0     C85464   5.944   7.094   7.206  0.8802  0.3341  0.0615
  634MOL0     C85465   5.993   7.138   7.349  0.1966  2.0922  0.2327
  634MOL0     C85466   5.878   7.120   7.445 -0.6254 -0.5150  0.0772
  634MOL0     C85467   5.913   7.041   7.575 -0.4586 -0.4758 -0.5149
  634MOL0     C85468   5.801   7.053   7.690 -0.3302  0.1557 -0.0169
  634MOL0     C85469   5.833   6.960   7.814 -0.0533  0.0260 -0.9243
  634MOL0     C85470   5.735   6.849   7.864 -0.0482 -0.2734 -0.3924
  634MOL0     C85471   5.722   6.723   7.786  0.3818  0.5015  0.3860
  634MOL0     N85472   5.643   6.618   7.850 -0.2684  1.1970 -0.1050
  634MOL0     C85473   5.659   6.565   7.971  0.8918  0.2435  0.5301
  634MOL0     C85474   5.588   6.447   7.973 -0.6472 -0.7294 -0.3879
  634MOL0     C85475   5.578   6.342   8.081  0.6322 -1.2223 -1.1974
  634MOL0     C85476   5.526   6.208   8.051  0.5497  0.3273 -0.0770
  634MOL0     C85477   5.371   6.181   8.013 -0.5448  0.8086 -0.4746
  634MOL0     C85478   5.285   6.304   8.044  0.5494 -0.0152  0.1036
  634MOL0     O85479   5.279   6.327   8.180  0.2185 -0.4158 -0.5126
  634MOL0     C85480   5.218   6.248   8.274 -0.1960 -0.5375  0.8893
  634MOL0     C85481   5.108   6.168   8.242  0.8443  0.2129 -0.5953
  634MOL0     C85482   5.037   6.086   8.330 -0.2498  1.6179  0.7412
  634MOL0     C85483   4.912   6.015   8.285  0.9291  0.8558  0.6312
  634MOL0     C85484   5.090   6.082   8.469 -0.8472  0.1065  0.2517
  634MOL0     C85485   5.024   6.008   8.579  0.6808  0.7156 -0.0359
  634MOL0     O85486   5.101   5.973   8.689  0.0009  0.8412  0.1909
  634MOL0     C85487   5.042   5.913   8.809 -0.1356  0.8241 -0.2254
  634MOL0     C85488   4.959   5.803   8.800 -0.0148  0.0479  0.4156
  634MOL0     C85489   4.907   5.741   8.919 -1.0641 -0.0806  0.7908
  634MOL0     C85490   4.936   5.801   9.048 -0.0387  0.3854  0.2678
  634MOL0     O85491   4.866   5.760   9.155  0.2595 -0.5915 -0.6375
  634MOL0     C85492   4.939   5.697   9.266 -0.7169  0.1721  0.3282
  634MOL0     C85493   4.966   5.544   9.236 -0.7052  1.1547  0.6356
  634MOL0     C85494   4.836   5.466   9.239  0.2835  0.3976  0.4822
  634MOL0     C85495   4.806   5.383   9.120  0.3763  0.9924 -0.3970
  634MOL0     C85496   4.772   5.235   9.169  0.4139 -0.6918 -0.5607
  634MOL0     C85497   4.675   5.161   9.068 -0.1624  0.3199  0.2194
  634MOL0     C85498   4.711   5.176   8.920  0.5645  1.5891  0.7432
  634MOL0     C85499   4.599   5.106   8.840  0.8029 -0.3627  1.1541
  634MOL0    Cl85500   4.635   5.062   8.672  0.7793  0.5256  0.1588
  634MOL0     C85501   5.023   5.898   9.056 -0.6770 -0.6331  0.0013
  634MOL0     C85502   5.082   5.953   8.938 -0.5944 -0.1745 -0.0399
  634MOL0     O85503   4.900   6.012   8.578  0.0413 -0.0961  0.3173
  634MOL0     C85504   5.219   6.135   8.490  0.5624  0.4557 -0.1641
  634MOL0     C85505   5.280   6.216   8.397  0.5173  0.1700  0.3903
  634MOL0     N85506   5.525   6.431   7.852 -1.0098 -0.1058 -0.3890
  634MOL0     N85507   5.555   6.538   7.786  0.1505 -0.0222 -0.3641
  634MOL0     C85508   6.086   7.206   6.879 -0.4426 -0.9573  0.5306
  634MOL0     C85509   6.086   7.166   6.743 -0.0832  0.3197 -0.5457
  634MOL0     C85510   6.015   6.902   6.357  0.3314  0.1915 -0.5235
  634MOL0     C85511   6.132   6.952   6.307  0.1758  1.2502  1.1210
  634MOL0     C85512   6.169   6.943   6.172 -0.0685 -0.1480 -0.0193
  634MOL0     C85513   6.090   6.880   6.078  0.9940 -0.4140  0.8343
  634MOL0     O85514   6.134   6.876   5.951  0.2757 -0.2563 -1.4114
  634MOL0     C85515   6.038   6.874   5.842  0.8893 -0.2070  0.2465
  634MOL0     C85516   6.118   6.849   5.713 -0.2785 -0.1245  0.4286
  634MOL0     C85517   6.093   6.707   5.655  0.3834 -0.6166  0.1505
  634MOL0     C85518   5.957   6.679   5.585 -0.0340 -0.7713  0.1911
  634MOL0     C85519   5.934   6.785   5.485  0.3494 -0.3635  1.3161
  634MOL0     C85520   5.900   6.862   5.398  0.0114 -0.2894  0.5966
  634MOL0     C85521   5.971   6.831   6.127  0.6201 -0.2870  0.2235
  634MOL0     C85522   5.931   6.833   6.262 -0.8587  0.2967 -0.4801
  634MOL0     H85523   5.876   6.897   6.777  2.6950 -1.3551 -0.8386
  634MOL0     H85524   5.895   6.941   6.999 -1.0427  1.7200  1.3064
  634MOL0     H85525   5.840   7.114   7.179  0.4523 -4.2305 -2.6394
  634MOL0     H85526   5.948   6.984   7.203 -4.8136 -0.2573  1.2322
  634MOL0     H85527   6.080   7.074   7.366 -1.5786 -0.3675  0.4741
  634MOL0     H85528   6.027   7.242   7.346 -0.9491  2.4590 -1.2656
  634MOL0     H85529   5.833   7.217   7.468 -0.6678  0.0780 -2.3124
  634MOL0     H85530   5.787   7.073   7.406 -3.6167  2.1260  3.2371
  634MOL0     H85531   5.937   6.937   7.551 -1.1074 -0.2815 -2.0662
  634MOL0     H85532   6.006   7.074   7.623 -0.8037  1.8693 -1.3194
  634MOL0     H85533   5.808   7.160   7.713  1.8740  0.0721 -0.1702
  634MOL0     H85534   5.707   7.031   7.638  1.0485  1.5434 -3.3327
  634MOL0     H85535   5.936   6.924   7.805 -0.2968 -0.5176 -1.7335
  634MOL0     H85536   5.839   7.027   7.899 -0.2399 -0.0265 -0.8706
  634MOL0     H85537   5.756   6.834   7.971 -3.1256 -0.1412  0.3338
  634MOL0     H85538   5.639   6.900   7.850  0.8581  1.5588 -0.2708
  634MOL0     H85539   5.824   6.687   7.772  1.5318  2.5278  2.7651
  634MOL0     H85540   5.671   6.739   7.690  0.5476  1.2751  0.4194
  634MOL0     H85541   5.719   6.598   8.055  1.7944 -2.4999  1.0790
  634MOL0     H85542   5.677   6.336   8.127  0.6704 -0.1846 -1.1200
  634MOL0     H85543   5.508   6.384   8.154  1.2211  1.0958 -1.8677
  634MOL0     H85544   5.554   6.137   8.130 -2.3957 -0.3863  0.4424
  634MOL0     H85545   5.579   6.169   7.964  1.2530 -0.2122  0.5792
  634MOL0     H85546   5.334   6.107   8.085  1.4090  0.3718  0.1371
  634MOL0     H85547   5.362   6.134   7.915 -2.4851 -1.8150  0.8416
  634MOL0     H85548   5.186   6.291   8.000  0.6425  0.5901 -0.2852
  634MOL0     H85549   5.311   6.400   8.000  2.2326 -0.7360 -0.5761
  634MOL0     H85550   5.080   6.162   8.137 -0.4898 -2.2313 -0.1757
  634MOL0     H85551   4.920   5.982   8.181  1.5644 -1.3842  1.3452
  634MOL0     H85552   4.899   5.922   8.341 -0.0409  0.2114 -0.6243
  634MOL0     H85553   4.826   6.082   8.302 -0.6737 -0.7922 -0.6557
  634MOL0     H85554   4.921   5.781   8.701  0.4124  1.7907 -0.1603
  634MOL0     H85555   4.834   5.660   8.914 -0.2487 -0.8343  0.9205
  634MOL0     H85556   5.029   5.755   9.288 -0.2989 -1.5059  3.7477
  634MOL0     H85557   4.872   5.711   9.351 -2.9542 -0.8193 -1.2003
  634MOL0     H85558   5.016   5.532   9.139  0.8883 -0.9313  1.6232
  634MOL0     H85559   5.033   5.498   9.310  1.4370 -0.7149 -2.2209
  634MOL0     H85560   4.749   5.527   9.263 -0.2528  0.0137 -0.4436
  634MOL0     H85561   4.846   5.402   9.327  0.9346  3.0501  2.4725
  634MOL0     H85562   4.721   5.427   9.065  0.5985  1.2542 -0.5326
  634MOL0     H85563   4.892   5.369   9.054 -0.0632  2.0048 -1.2179
  634MOL0     H85564   4.713   5.230   9.261 -3.1010  1.0082 -2.4815
  634MOL0     H85565   4.857   5.167   9.176  1.9469  0.8896 -2.8051
  634MOL0     H85566   4.677   5.059   9.106 -1.2094  0.6931  1.3481
  634MOL0     H85567   4.578   5.199   9.101 -0.0690  0.8616 -0.1083
  634MOL0     H85568   4.802   5.119   8.900  0.4074  0.7166  2.3343
  634MOL0     H85569   4.709   5.280   8.886 -3.2258  1.1037 -1.1056
  634MOL0     H85570   4.508   5.167   8.843  1.7529  1.1433  0.6520
  634MOL0     H85571   4.590   5.008   8.887  2.2497 -0.6066  0.9622
  634MOL0     H85572   5.055   5.953   9.144 -0.3344  0.4273 -0.7629
  634MOL0     H85573   5.139   6.045   8.947 -0.4511 -0.3499  1.0889
  634MOL0     H85574   5.273   6.126   8.584 -0.8562 -1.1398  0.5538
  634MOL0     H85575   5.363   6.284   8.403 -1.9399  3.6082 -1.3765
  634MOL0     H85576   6.161   7.273   6.921 -1.3689  0.5373 -0.1222
  634MOL0     H85577   6.141   7.228   6.674 -0.2381 -1.2713 -2.1627
  634MOL0     H85578   6.206   6.991   6.375  1.5511 -0.8717  0.9318
  634MOL0     H85579   6.263   6.986   6.139  1.3240 -2.1201  1.1597
  634MOL0     H85580   5.961   6.797   5.854  1.3279 -1.0270 -1.7889
  634MOL0     H85581   6.000   6.976   5.830  2.4568  1.1168  4.4561
  634MOL0     H85582   6.224   6.851   5.744 -1.0552 -1.7988  3.7188
  634MOL0     H85583   6.094   6.923   5.636 -0.0027 -1.8785 -1.3977
  634MOL0     H85584   6.110   6.625   5.725  0.8631 -2.3053 -1.8562
  634MOL0     H85585   6.179   6.694   5.589 -1.1468  2.8614 -2.8966
  634MOL0     H85586   5.883   6.676   5.666  0.7667 -1.6442  0.9075
  634MOL0     H85587   5.960   6.580   5.538  0.2968 -0.3434 -0.7065
  634MOL0     H85588   5.878   6.922   5.312 -2.1670 -1.0674  0.5282
  634MOL0     H85589   5.902   6.785   6.057  0.6113  0.3224 -0.1776
  634MOL0     H85590   5.834   6.788   6.285 -1.6945  2.5307  0.7195
  635MOL0     O85591   5.186   1.887   0.873  0.2756  0.6925  0.2191
  635MOL0     C85592   5.235   2.000   0.859  0.6892 -0.5502 -0.5169
  635MOL0     O85593   5.341   2.029   0.771 -0.7488 -0.2161 -0.8947
  635MOL0     C85594   5.362   1.939   0.669 -0.1771 -0.3362 -0.1668
  635MOL0     C85595   5.261   1.871   0.594  0.2216  0.0230 -0.2618
  635MOL0     C85596   5.289   1.777   0.501  0.5654  1.5794 -0.5706
  635MOL0     C85597   5.429   1.750   0.465 -0.0814  0.8572 -0.3244
  635MOL0     O85598   5.488   1.659   0.380 -0.4028  0.4010  0.5847
  635MOL0     C85599   5.456   1.682   0.245  0.1275 -0.1271  0.5005
  635MOL0     C85600   5.502   1.576   0.163 -0.4881  0.0716  0.1544
  635MOL0     C85601   5.470   1.606   0.017 -1.2493  0.2552 -1.0421
  635MOL0     C85602   5.333   1.535  -0.003 -0.2205 -0.2396  0.3024
  635MOL0     C85603   5.296   1.523  -0.145 -0.3406 -0.8115  0.1750
  635MOL0     C85604   5.152   1.472  -0.149  0.3005  0.5576  0.5105
  635MOL0     C85605   5.122   1.450  -0.306  0.1353  0.0884 -0.3409
  635MOL0     C85606   4.970   1.444  -0.325 -0.7305 -0.5855 -0.4384
  635MOL0     N85607   4.902   1.568  -0.286  0.3804  0.0617  0.0592
  635MOL0     C85608   4.933   1.689  -0.332  0.8766 -0.0057  0.4972
  635MOL0     C85609   4.861   1.770  -0.259 -0.2879 -0.8538  0.2542
  635MOL0     C85610   4.878   1.919  -0.251 -0.9464 -0.5500  0.1533
  635MOL0     C85611   5.020   1.946  -0.197 -0.3376 -0.3692  0.3143
  635MOL0     C85612   5.029   1.921  -0.043 -0.4744  0.1947  0.9599
  635MOL0     C85613   5.178   1.929   0.003 -0.2667 -0.2174 -0.1119
  635MOL0     O85614   5.181   1.901   0.141  0.0342  0.3834 -0.1606
  635MOL0     C85615   5.255   1.986   0.211  0.8509 -0.2418 -0.1792
  635MOL0     C85616   5.392   2.007   0.191  0.4231  0.1338  0.2306
  635MOL0     C85617   5.467   2.101   0.255  0.2374 -0.2010  0.2956
  635MOL0     C85618   5.606   2.130   0.214 -0.5446  0.3092  0.0454
  635MOL0     C85619   5.406   2.170   0.370 -0.8516 -0.2412  1.1116
  635MOL0     C85620   5.469   2.256   0.467 -0.0011 -1.1076  0.5462
  635MOL0     O85621   5.394   2.296   0.576 -0.6830  0.5742 -0.4936
  635MOL0     C85622   5.453   2.382   0.679  1.1614 -0.4713 -0.4867
  635MOL0     C85623   5.378   2.493   0.733 -0.6414  0.0496 -0.3936
  635MOL0     C85624   5.419   2.583   0.835  0.2590 -0.6996  0.4210
  635MOL0     C85625   5.547   2.550   0.880 -1.2615  1.3097  0.2937
  635MOL0     O85626   5.603   2.624   0.979  0.8525  0.0149 -0.1361
  635MOL0     C85627   5.604   2.768   0.952  0.6985 -1.2042 -0.3879
  635MOL0     C85628   5.660   2.797   0.810 -0.4057 -0.2408 -0.1935
  635MOL0     C85629   5.708   2.950   0.810 -0.3078  0.5235 -0.2529
  635MOL0     C85630   5.778   2.980   0.672 -0.3367 -0.2407  0.4237
  635MOL0     C85631   5.811   3.134   0.665  0.3871  0.9025  0.2923
  635MOL0     C85632   5.890   3.166   0.535  0.7843 -0.0180  0.1434
  635MOL0     C85633   5.985   3.057   0.479 -0.1760  0.7172 -0.7921
  635MOL0     C85634   6.057   3.108   0.348 -0.1105  0.6169 -0.1598
  635MOL0    Cl85635   6.181   3.240   0.359  0.2005 -0.4416 -0.3236
  635MOL0     C85636   5.622   2.435   0.834 -1.0180  0.1609  0.5009
  635MOL0     C85637   5.572   2.350   0.744 -1.1447 -0.3732  0.0449
  635MOL0     O85638   5.588   2.295   0.454  0.6579  0.9115  0.3105
  635MOL0     C85639   5.263   2.145   0.383 -0.3965 -0.7329 -0.0944
  635MOL0     C85640   5.189   2.055   0.305  1.0703 -1.0012 -0.4746
  635MOL0     N85641   4.777   1.704  -0.169 -0.0639  0.8243  0.4907
  635MOL0     N85642   4.796   1.580  -0.194  0.9080  0.9908 -0.2220
  635MOL0     C85643   5.531   1.833   0.524  0.7171  0.6673 -0.4762
  635MOL0     C85644   5.501   1.924   0.629  0.0453 -0.2890  0.0745
  635MOL0     C85645   5.188   2.117   0.945 -0.1672  0.2801 -0.3381
  635MOL0     C85646   5.176   2.242   0.889  0.0837 -0.3257 -0.0967
  635MOL0     C85647   5.144   2.350   0.972  0.1151 -0.5285  1.0214
  635MOL0     C85648   5.119   2.330   1.106  0.6153 -0.3194 -0.4236
  635MOL0     O85649   5.075   2.429   1.187  0.3238 -0.2503 -0.2055
  635MOL0     C85650   5.038   2.562   1.135  0.7877  0.2404  0.4487
  635MOL0     C85651   5.010   2.670   1.232 -0.3910  0.6478  0.2097
  635MOL0     C85652   5.004   2.801   1.167 -1.1203 -0.4743  0.2416
  635MOL0     C85653   4.985   2.919   1.258  0.1774  0.0384 -0.2623
  635MOL0     C85654   5.104   2.933   1.332 -0.6542  0.3658 -0.9740
  635MOL0     C85655   5.204   2.963   1.400 -0.7846  0.1994 -0.0710
  635MOL0     C85656   5.119   2.206   1.167 -0.3427  0.1815 -0.2012
  635MOL0     C85657   5.165   2.101   1.086 -0.3852 -0.1474  1.0166
  635MOL0     H85658   5.161   1.905   0.620 -0.7528 -0.5393 -2.8989
  635MOL0     H85659   5.210   1.721   0.452 -0.9682  2.5470  0.7241
  635MOL0     H85660   5.349   1.705   0.239  0.1554 -0.1309 -0.0584
  635MOL0     H85661   5.507   1.773   0.210 -3.8691  2.3971  0.6651
  635MOL0     H85662   5.610   1.575   0.175 -0.3749 -3.3791 -0.1606
  635MOL0     H85663   5.463   1.482   0.205 -0.6652  0.5241  1.0086
  635MOL0     H85664   5.454   1.712  -0.007  4.3330  2.3681  2.5478
  635MOL0     H85665   5.544   1.570  -0.054 -1.0972  1.0812 -1.3095
  635MOL0     H85666   5.350   1.434   0.036 -0.2751  0.1817  1.4483
  635MOL0     H85667   5.255   1.589   0.051  0.4151  2.4504 -1.3113
  635MOL0     H85668   5.322   1.610  -0.206  0.6524 -0.6338  0.8228
  635MOL0     H85669   5.359   1.444  -0.187  2.1091  0.9725  0.2873
  635MOL0     H85670   5.146   1.374  -0.100 -1.0394  1.0419  1.3856
  635MOL0     H85671   5.087   1.552  -0.113  2.2982  3.3243 -1.6319
  635MOL0     H85672   5.177   1.521  -0.369  0.9293  0.3391  0.6034
  635MOL0     H85673   5.182   1.362  -0.330  4.4067  1.7517  2.9512
  635MOL0     H85674   4.937   1.361  -0.260  0.2371  1.4446  2.8924
  635MOL0     H85675   4.948   1.425  -0.430 -1.7438  0.3864 -0.4182
  635MOL0     H85676   5.019   1.735  -0.380  1.2291 -1.0896  0.0648
  635MOL0     H85677   4.855   1.961  -0.349 -1.5573  0.0019  0.5266
  635MOL0     H85678   4.803   1.968  -0.189 -2.0309 -2.2826  0.2958
  635MOL0     H85679   5.057   2.045  -0.225  0.3717 -1.3701 -2.6408
  635MOL0     H85680   5.097   1.887  -0.247  3.9778  2.1767  3.2404
  635MOL0     H85681   4.980   1.825  -0.027 -5.1919  1.8028 -1.6384
  635MOL0     H85682   4.975   1.995   0.018  0.8286  0.7377  1.4843
  635MOL0     H85683   5.209   2.032  -0.017  0.7223  0.0351  2.3562
  635MOL0     H85684   5.236   1.858  -0.058 -1.7716 -0.3086 -1.5015
  635MOL0     H85685   5.439   1.946   0.114 -1.9717 -4.0928  1.7615
  635MOL0     H85686   5.682   2.082   0.277  1.2453 -0.0865 -2.2487
  635MOL0     H85687   5.627   2.100   0.111 -0.5917 -0.7613  0.3407
  635MOL0     H85688   5.628   2.237   0.228 -1.9109  0.4217  1.5381
  635MOL0     H85689   5.277   2.505   0.697 -0.7768  2.6525  0.6007
  635MOL0     H85690   5.359   2.665   0.874 -2.2099 -2.9661  1.8064
  635MOL0     H85691   5.506   2.808   0.979  1.7801 -0.9065  3.8558
  635MOL0     H85692   5.666   2.818   1.027 -1.0279 -1.1591  1.0776
  635MOL0     H85693   5.748   2.733   0.800 -0.1187  0.3761 -1.9622
  635MOL0     H85694   5.583   2.780   0.735  0.8507 -0.4767 -1.4807
  635MOL0     H85695   5.785   2.967   0.886 -0.3958  1.8741 -0.4454
  635MOL0     H85696   5.617   3.009   0.826 -0.6703  0.6214 -2.3436
  635MOL0     H85697   5.869   2.921   0.664 -0.4570 -0.2630 -1.3997
  635MOL0     H85698   5.697   2.957   0.601 -0.8282  0.6480  0.6784
  635MOL0     H85699   5.867   3.158   0.755  1.6896  1.1853 -0.5598
  635MOL0     H85700   5.722   3.198   0.669  0.2114  0.6512  0.4583
  635MOL0     H85701   5.819   3.191   0.455 -0.5728 -1.4209  0.8504
  635MOL0     H85702   5.947   3.257   0.554  3.4339 -1.7637  1.2372
  635MOL0     H85703   5.913   2.981   0.445 -2.8113  3.0558 -0.8636
  635MOL0     H85704   6.061   3.028   0.551 -0.2337  0.2827 -0.8998
  635MOL0     H85705   5.980   3.120   0.271 -2.3752  0.2955  1.9418
  635MOL0     H85706   6.120   3.022   0.322 -2.2120  0.0283 -4.1306
  635MOL0     H85707   5.718   2.414   0.881 -0.9960 -1.2355 -0.1175
  635MOL0     H85708   5.630   2.264   0.714 -0.8126  0.4910 -1.9508
  635MOL0     H85709   5.214   2.206   0.458  1.7056  2.2196 -0.9379
  635MOL0     H85710   5.081   2.050   0.312  0.8410  2.4862 -0.1071
  635MOL0     H85711   5.633   1.831   0.487  0.7976 -1.1016 -0.2336
  635MOL0     H85712   5.578   1.989   0.669  1.0357 -0.5145 -1.3872
  635MOL0     H85713   5.193   2.258   0.783 -1.6781 -2.6754 -0.8272
  635MOL0     H85714   5.119   2.439   0.916 -0.8153  1.5244  4.4349
  635MOL0     H85715   5.113   2.610   1.071  0.2124  0.7973  0.1871
  635MOL0     H85716   4.952   2.552   1.068  0.4962  1.0293  0.7047
  635MOL0     H85717   5.080   2.678   1.315 -0.6754 -0.9687  0.6418
  635MOL0     H85718   4.911   2.643   1.269 -1.0190  1.2714 -0.9385
  635MOL0     H85719   4.923   2.811   1.095 -0.9242 -0.0167  0.0804
  635MOL0     H85720   5.099   2.819   1.116 -0.7811 -0.2312  0.9430
  635MOL0     H85721   4.889   2.911   1.309 -0.2544  1.2998 -0.8143
  635MOL0     H85722   4.977   3.007   1.192 -2.6898 -0.9939 -1.4516
  635MOL0     H85723   5.289   2.995   1.457 -1.5082  1.3468  0.4086
  635MOL0     H85724   5.093   2.190   1.271  0.8423  1.1725  0.2772
  635MOL0     H85725   5.169   1.996   1.115  0.9122 -0.8166 -1.3370
  636MOL0     O85726   6.700   8.824   3.086 -1.1458 -0.1122  0.1405
  636MOL0     C85727   6.594   8.773   3.126  0.1652 -0.5826 -0.4671
  636MOL0     O85728   6.490   8.737   3.059  0.4618  0.5693 -0.6635
  636MOL0     C85729   6.504   8.756   2.923 -0.9548  0.8699 -0.4075
  636MOL0     C85730   6.592   8.687   2.836  0.3063  0.6306  0.0848
  636MOL0     C85731   6.589   8.709   2.692  0.0070 -0.7598  0.1743
  636MOL0     C85732   6.497   8.797   2.637 -0.9436 -0.0026  0.2526
  636MOL0     O85733   6.507   8.811   2.496 -1.1639 -0.0487  0.0642
  636MOL0     C85734   6.464   8.936   2.446 -0.5666  0.0179 -0.1420
  636MOL0     C85735   6.542   8.951   2.304 -0.1627  0.0655 -0.4203
  636MOL0     C85736   6.566   9.100   2.270 -0.6059  0.1856 -0.6212
  636MOL0     C85737   6.673   9.172   2.358  0.8069  0.4553 -0.1192
  636MOL0     C85738   6.622   9.288   2.432  0.3397  0.2710  0.4533
  636MOL0     C85739   6.743   9.353   2.497 -0.2099  0.0114 -0.5080
  636MOL0     C85740   6.736   9.482   2.579  0.3476 -0.8529  0.2348
  636MOL0     C85741   6.863   9.486   2.659 -0.5666  0.0735  0.3174
  636MOL0     N85742   6.968   9.551   2.574  0.1149  0.7996 -0.4457
  636MOL0     C85743   6.970   9.644   2.469 -0.3184  0.1914 -1.0102
  636MOL0     C85744   7.105   9.667   2.449  0.4549  0.3686 -1.1176
  636MOL0     C85745   7.163   9.761   2.358 -0.6242  0.3573  0.4023
  636MOL0     C85746   7.249   9.687   2.249  0.0834 -0.4977  0.1553
  636MOL0     C85747   7.267   9.761   2.113 -0.6183 -0.0777 -0.5237
  636MOL0     C85748   7.140   9.745   2.033  0.6773  0.0276  0.8902
  636MOL0     O85749   7.152   9.827   1.915  0.3016  0.4826 -0.0100
  636MOL0     C85750   7.244   9.784   1.826 -0.4147 -0.1500 -0.0722
  636MOL0     C85751   7.268   9.650   1.797  1.0114  0.4038 -0.5250
  636MOL0     C85752   7.369   9.613   1.710  0.1442  0.1422  0.3537
  636MOL0     C85753   7.387   9.472   1.675 -0.9275  0.9583 -0.1516
  636MOL0     C85754   7.476   9.713   1.671  1.0438  0.5026 -0.6396
  636MOL0     C85755   7.595   9.685   1.586  0.9612  0.1088 -0.5814
  636MOL0     O85756   7.643   9.807   1.532 -0.3478 -0.4583  0.9054
  636MOL0     C85757   7.739   9.830   1.436  0.0187 -0.5258  0.8129
  636MOL0     C85758   7.790   9.961   1.427 -1.0438  0.1637 -0.3468
  636MOL0     C85759   7.888   9.976   1.328  0.4389 -0.2741 -0.2483
  636MOL0     C85760   7.940   9.869   1.249 -0.2854  0.0561  0.5580
  636MOL0     O85761   8.038   9.888   1.153 -0.5587 -0.4857 -0.1559
  636MOL0     C85762   8.155   9.969   1.189 -0.3217 -1.0182 -0.3491
  636MOL0     C85763   8.245  10.005   1.075  0.2644 -0.2636  1.1121
  636MOL0     C85764   8.187  10.116   0.983 -0.1769 -0.4834 -0.1994
  636MOL0     C85765   8.287  10.167   0.881 -0.2704  0.3269  0.4957
  636MOL0     C85766   8.251  10.293   0.804 -0.3756 -0.1068  0.4146
  636MOL0     C85767   8.191  10.260   0.665 -0.4899 -0.6276  0.6692
  636MOL0     C85768   8.056  10.192   0.644 -0.9591  0.6361  0.1181
  636MOL0     C85769   8.049  10.155   0.498 -0.8355 -0.6240 -0.3457
  636MOL0    Cl85770   7.883  10.161   0.431 -0.3326  0.0457  0.2329
  636MOL0     C85771   7.872   9.745   1.256  1.2644  0.8989 -0.7175
  636MOL0     C85772   7.770   9.731   1.341  1.3076  0.4381 -0.8873
  636MOL0     O85773   7.651   9.578   1.589 -0.4001  0.0602  0.6445
  636MOL0     C85774   7.448   9.842   1.700  0.0511 -0.7296 -0.2987
  636MOL0     C85775   7.330   9.878   1.768  0.3162  0.5152  0.6222
  636MOL0     N85776   7.180   9.580   2.532 -0.1402  1.2907  0.0075
  636MOL0     N85777   7.095   9.522   2.615  0.1243 -0.2042  0.6589
  636MOL0     C85778   6.425   8.882   2.726  0.8598 -0.5050 -0.3592
  636MOL0     C85779   6.424   8.843   2.861  0.0539 -0.6031  0.4046
  636MOL0     C85780   6.589   8.733   3.266 -0.3316  0.8436 -0.0559
  636MOL0     C85781   6.707   8.702   3.341  0.3249 -0.2899  0.4245
  636MOL0     C85782   6.699   8.667   3.478 -0.4052  0.5912  0.0385
  636MOL0     C85783   6.576   8.637   3.546  1.2755 -0.3287  0.1515
  636MOL0     O85784   6.578   8.590   3.672  0.3383  0.1443  0.5597
  636MOL0     C85785   6.447   8.564   3.729 -0.1382  0.5105 -1.0946
  636MOL0     C85786   6.468   8.493   3.865  0.3763 -0.2672 -0.4923
  636MOL0     C85787   6.541   8.354   3.864 -0.7802 -0.0314 -0.7084
  636MOL0     C85788   6.443   8.240   3.867 -0.4053 -0.3617  0.0313
  636MOL0     C85789   6.347   8.241   3.973  0.2725 -0.1598 -0.6254
  636MOL0     C85790   6.275   8.263   4.072  0.4004 -0.5682  1.2676
  636MOL0     C85791   6.467   8.671   3.474  0.6879 -0.4246  0.3709
  636MOL0     C85792   6.464   8.714   3.338 -0.3173  0.9671  0.3595
  636MOL0     H85793   6.662   8.614   2.875  1.2905  0.1219 -2.4542
  636MOL0     H85794   6.658   8.655   2.628 -0.0498  0.4709 -0.9897
  636MOL0     H85795   6.356   8.951   2.432  0.0189  2.5969 -2.9039
  636MOL0     H85796   6.506   9.022   2.499 -1.3103  0.4684 -0.2776
  636MOL0     H85797   6.634   8.894   2.311  0.5152  1.0832 -0.8106
  636MOL0     H85798   6.480   8.904   2.226 -1.5661 -0.7116  1.0972
  636MOL0     H85799   6.591   9.113   2.165  1.2712  1.9102 -0.0282
  636MOL0     H85800   6.471   9.153   2.281 -0.6933 -0.1792  0.5124
  636MOL0     H85801   6.722   9.109   2.433 -1.9623 -0.9803  0.6056
  636MOL0     H85802   6.754   9.202   2.290  0.6197  2.0794  0.3306
  636MOL0     H85803   6.579   9.358   2.360  2.1742 -1.4282 -2.5012
  636MOL0     H85804   6.536   9.272   2.498 -0.8300 -2.0578 -1.4999
  636MOL0     H85805   6.789   9.286   2.570 -0.5276 -0.2762 -0.5663
  636MOL0     H85806   6.812   9.379   2.416  0.8743 -2.2173 -0.3816
  636MOL0     H85807   6.729   9.571   2.516  0.2808 -0.5470  0.6665
  636MOL0     H85808   6.651   9.491   2.648  1.6584 -2.5946  2.2025
  636MOL0     H85809   6.901   9.390   2.696  2.4631  2.0951  2.8498
  636MOL0     H85810   6.849   9.549   2.747  1.6714  0.0142  0.7566
  636MOL0     H85811   6.897   9.703   2.413 -0.0190  2.9358  1.2601
  636MOL0     H85812   7.095   9.835   2.315  0.5782  2.6847  2.2897
  636MOL0     H85813   7.234   9.819   2.417 -1.1607  0.6669  0.7492
  636MOL0     H85814   7.213   9.584   2.239 -1.4458  0.1605 -1.7899
  636MOL0     H85815   7.349   9.670   2.289 -0.0610 -0.9169  0.3457
  636MOL0     H85816   7.359   9.744   2.056  0.4760  4.0389 -0.3054
  636MOL0     H85817   7.281   9.867   2.138  2.4445  0.3688 -3.3326
  636MOL0     H85818   7.048   9.788   2.074  0.8466 -2.6239  4.6209
  636MOL0     H85819   7.123   9.640   2.008 -1.5907  0.2895  1.0729
  636MOL0     H85820   7.216   9.562   1.833  0.8493  0.6276 -0.2123
  636MOL0     H85821   7.407   9.475   1.568  0.8853  0.8533  0.1598
  636MOL0     H85822   7.464   9.429   1.740  0.0037  1.5124 -0.8588
  636MOL0     H85823   7.293   9.420   1.697 -0.4962 -0.4586 -1.4818
  636MOL0     H85824   7.769  10.042   1.498 -0.6847 -1.5318  1.7985
  636MOL0     H85825   7.920  10.077   1.303  0.4391 -0.0000  0.8160
  636MOL0     H85826   8.133  10.063   1.239 -1.8875 -0.6883 -1.5657
  636MOL0     H85827   8.205   9.898   1.255 -3.4273 -4.3016 -1.1368
  636MOL0     H85828   8.341  10.035   1.119 -1.0415  0.1020  3.8863
  636MOL0     H85829   8.260   9.916   1.013 -0.7795 -1.9251  3.1183
  636MOL0     H85830   8.170  10.209   1.039  0.8453  0.3687 -1.2584
  636MOL0     H85831   8.089  10.084   0.947 -0.5910 -0.4952  0.8985
  636MOL0     H85832   8.381  10.179   0.935  0.0505  1.1522 -0.2167
  636MOL0     H85833   8.303  10.088   0.807  1.4064 -0.7901  1.9858
  636MOL0     H85834   8.342  10.353   0.791  0.2436 -1.1125  0.0373
  636MOL0     H85835   8.170  10.351   0.849 -1.0595 -1.3484  0.8280
  636MOL0     H85836   8.186  10.357   0.615  0.9837  0.0586  1.7688
  636MOL0     H85837   8.258  10.205   0.598 -2.1306  0.1976 -1.7491
  636MOL0     H85838   7.984  10.259   0.692 -2.4667 -1.8251  1.4857
  636MOL0     H85839   8.061  10.101   0.705 -0.1572 -0.2592 -1.2402
  636MOL0     H85840   8.087  10.053   0.487  4.7004  1.2067 -1.3483
  636MOL0     H85841   8.125  10.201   0.435  1.3148 -4.7465 -1.1134
  636MOL0     H85842   7.912   9.661   1.200 -0.4748 -2.5713  2.7519
  636MOL0     H85843   7.716   9.637   1.334  1.1239  0.4791 -0.0607
  636MOL0     H85844   7.511   9.926   1.671 -4.2849  3.9127  2.0290
  636MOL0     H85845   7.290   9.977   1.790 -3.8346 -1.4236  2.9776
  636MOL0     H85846   6.372   8.968   2.686  2.3236  1.1329  1.0744
  636MOL0     H85847   6.358   8.898   2.928  1.8449  1.1528  0.8353
  636MOL0     H85848   6.802   8.716   3.291 -1.5688  1.5248 -3.0448
  636MOL0     H85849   6.788   8.659   3.539  0.5947 -0.2746 -1.4560
  636MOL0     H85850   6.390   8.653   3.757  0.2186  0.2923  0.4180
  636MOL0     H85851   6.388   8.497   3.667 -0.0492 -0.9114  0.2974
  636MOL0     H85852   6.367   8.488   3.906  0.9842  3.3832  1.9453
  636MOL0     H85853   6.522   8.554   3.938 -2.3872  0.4652  1.0563
  636MOL0     H85854   6.611   8.344   3.947  0.1873  4.4457 -0.7260
  636MOL0     H85855   6.601   8.349   3.772 -3.7437  2.3523 -3.0241
  636MOL0     H85856   6.498   8.145   3.866 -1.1136 -0.7769 -0.9485
  636MOL0     H85857   6.397   8.249   3.768  2.1236  0.1396 -1.1902
  636MOL0     H85858   6.212   8.297   4.152  0.8973  1.6046  0.8048
  636MOL0     H85859   6.374   8.667   3.530  0.3238 -0.3518 -0.2227
  636MOL0     H85860   6.375   8.744   3.284  1.1527  1.3092 -2.0513
  637MOL0     O85861  10.554  11.523   1.426  0.4777 -0.1909 -0.1113
  637MOL0     C85862  10.671  11.547   1.441  0.5800  0.3190  0.5902
  637MOL0     O85863  10.777  11.497   1.368  0.2613  0.3229  0.4732
  637MOL0     C85864  10.753  11.445   1.245 -0.0955 -0.1149  0.8784
  637MOL0     C85865  10.727  11.306   1.232  0.0816 -0.5592 -0.5004
  637MOL0     C85866  10.692  11.256   1.109  0.5140 -0.2846 -0.2485
  637MOL0     C85867  10.677  11.336   0.996  0.6247 -0.2742 -0.3790
  637MOL0     O85868  10.633  11.287   0.877 -0.1950 -0.7453  0.2158
  637MOL0     C85869  10.494  11.223   0.877 -0.0182  0.0878  0.7845
  637MOL0     C85870  10.464  11.185   0.739  0.0528 -0.0634  0.0908
  637MOL0     C85871  10.561  11.071   0.688 -0.0361  0.1212  0.5527
  637MOL0     C85872  10.565  11.050   0.540  0.3372  0.5679  1.5433
  637MOL0     C85873  10.644  10.921   0.503  1.0203  0.0593 -0.5199
  637MOL0     C85874  10.673  10.913   0.348 -1.4607 -0.4577 -0.0244
  637MOL0     C85875  10.708  10.770   0.314 -0.5227  0.3275 -0.4331
  637MOL0     C85876  10.792  10.740   0.185  0.2488 -0.2285 -0.4604
  637MOL0     N85877  10.927  10.775   0.206  0.0119 -0.2364  0.5047
  637MOL0     C85878  11.007  10.700   0.286 -0.0851 -0.5786  0.1128
  637MOL0     C85879  11.118  10.769   0.285 -0.3030  0.0047 -0.6221
  637MOL0     C85880  11.242  10.724   0.357 -0.3115 -0.0773 -0.3790
  637MOL0     C85881  11.366  10.741   0.271 -0.9164 -0.1392  0.0116
  637MOL0     C85882  11.494  10.671   0.321  0.6212 -0.2894 -0.4383
  637MOL0     C85883  11.608  10.723   0.237  0.0393  0.3833  0.0259
  637MOL0     O85884  11.700  10.808   0.306  0.1645 -0.0847  0.1861
  637MOL0     C85885  11.686  10.940   0.258 -0.1317  1.0285 -0.1985
  637MOL0     C85886  11.745  10.983   0.141  0.4742 -0.1715  0.4596
  637MOL0     C85887  11.731  11.114   0.099 -0.0342 -0.2570  0.3750
  637MOL0     C85888  11.799  11.140  -0.027  0.8237  1.0438 -0.8558
  637MOL0     C85889  11.661  11.211   0.170  0.1886 -0.7038  0.6389
  637MOL0     C85890  11.642  11.361   0.146  0.1488  0.6055 -0.8665
  637MOL0     O85891  11.539  11.425   0.220 -0.3827  0.0588 -0.7154
  637MOL0     C85892  11.517  11.565   0.214  0.1787 -0.1492  0.4064
  637MOL0     C85893  11.568  11.642   0.318 -0.3917  0.0012 -0.2070
  637MOL0     C85894  11.566  11.778   0.316  0.3997 -0.3617  0.3151
  637MOL0     C85895  11.507  11.842   0.197  0.2807  0.2874 -0.2537
  637MOL0     O85896  11.491  11.978   0.196 -0.0269 -0.3096  0.1227
  637MOL0     C85897  11.532  12.050   0.312 -0.8728 -0.3464  0.1342
  637MOL0     C85898  11.501  12.204   0.292 -0.1883  0.5396 -0.8515
  637MOL0     C85899  11.555  12.286   0.410  0.3630 -0.0133 -1.5104
  637MOL0     C85900  11.702  12.303   0.399 -0.7031 -0.1378  0.4783
  637MOL0     C85901  11.779  12.280   0.528 -0.4209  0.7723 -1.6306
  637MOL0     C85902  11.757  12.390   0.631 -0.5726 -0.3472 -0.5346
  637MOL0     C85903  11.816  12.360   0.768  0.5830  0.4993 -0.0616
  637MOL0     C85904  11.803  12.494   0.842  0.0630 -0.7235  0.1009
  637MOL0    Cl85905  11.904  12.462   0.995 -0.0724  0.1060  0.0464
  637MOL0     C85906  11.446  11.759   0.095 -0.7119 -0.2788 -0.4439
  637MOL0     C85907  11.454  11.621   0.107 -0.4253  0.3406  0.0089
  637MOL0     O85908  11.713  11.416   0.064 -0.0682 -1.1024 -0.5338
  637MOL0     C85909  11.593  11.160   0.279  0.3228 -0.4139  0.2764
  637MOL0     C85910  11.606  11.035   0.323 -0.5905  0.4442 -0.5234
  637MOL0     N85911  11.118  10.882   0.201  0.3577 -0.8185  0.9059
  637MOL0     N85912  10.994  10.886   0.156 -0.0811 -0.6639 -0.4960
  637MOL0     C85913  10.719  11.471   1.007  0.7718  0.3168 -0.3533
  637MOL0     C85914  10.753  11.526   1.137  0.0693  0.6160 -0.1543
  637MOL0     C85915  10.710  11.625   1.557 -0.2652 -1.1080 -0.1886
  637MOL0     C85916  10.848  11.649   1.571  0.8450 -0.1107  0.2697
  637MOL0     C85917  10.884  11.694   1.694  0.1390  0.1873 -0.5521
  637MOL0     C85918  10.799  11.730   1.800  0.1250 -0.7401 -0.4508
  637MOL0     O85919  10.838  11.804   1.912  0.2047 -0.2560 -0.1941
  637MOL0     C85920  10.976  11.830   1.933 -0.2723  0.3844 -0.0896
  637MOL0     C85921  11.050  11.755   2.046  1.1246 -1.5157  0.9256
  637MOL0     C85922  11.042  11.815   2.191 -0.5297  0.1983  0.5151
  637MOL0     C85923  11.166  11.793   2.278 -0.3456 -0.0507 -0.1064
  637MOL0     C85924  11.176  11.666   2.344  0.1081 -0.5637 -0.1169
  637MOL0     C85925  11.181  11.562   2.404 -0.3007 -0.0497  0.5858
  637MOL0     C85926  10.667  11.713   1.777  0.5308  0.3036  0.3702
  637MOL0     C85927  10.616  11.669   1.658 -0.3234  0.2283  0.2811
  637MOL0     H85928  10.736  11.239   1.318 -1.9763  1.0225  1.0707
  637MOL0     H85929  10.657  11.153   1.115 -3.3808  0.8690 -0.7490
  637MOL0     H85930  10.499  11.135   0.942  0.5332 -0.7096 -0.2970
  637MOL0     H85931  10.420  11.297   0.907 -1.8986 -0.4647 -2.0830
  637MOL0     H85932  10.363  11.142   0.741  0.1151 -0.1980  0.4264
  637MOL0     H85933  10.465  11.279   0.683 -1.5840  0.0917  0.2493
  637MOL0     H85934  10.661  11.088   0.727  0.6060 -1.8538 -0.1160
  637MOL0     H85935  10.520  10.977   0.728  4.3962 -1.6125  1.5987
  637MOL0     H85936  10.460  11.045   0.510  0.6954  1.4857 -0.0045
  637MOL0     H85937  10.604  11.127   0.473 -0.9112 -1.7262 -2.1657
  637MOL0     H85938  10.740  10.913   0.555 -0.5207 -2.5089  2.2015
  637MOL0     H85939  10.583  10.839   0.541 -1.0596  0.4099 -2.8727
  637MOL0     H85940  10.588  10.951   0.289  0.1123  0.5135 -1.7753
  637MOL0     H85941  10.764  10.971   0.329  1.4463 -3.3562  3.5822
  637MOL0     H85942  10.749  10.737   0.410 -4.0763  1.7131  1.7542
  637MOL0     H85943  10.616  10.711   0.311  0.5858 -1.4562 -0.9158
  637MOL0     H85944  10.751  10.801   0.103  1.5796  2.0712  0.4953
  637MOL0     H85945  10.788  10.635   0.153  1.8398 -0.1824 -0.8710
  637MOL0     H85946  10.987  10.609   0.340  2.1865 -1.8392 -1.0233
  637MOL0     H85947  11.247  10.777   0.453  0.2796 -0.7256 -0.0387
  637MOL0     H85948  11.224  10.619   0.380  0.5970 -0.5692 -1.7781
  637MOL0     H85949  11.389  10.847   0.258  0.4277 -0.0088  2.6958
  637MOL0     H85950  11.341  10.699   0.173  0.2505  3.0695 -1.8033
  637MOL0     H85951  11.485  10.562   0.317 -2.5836 -0.3493  3.0526
  637MOL0     H85952  11.507  10.703   0.424  1.9695  1.3669 -1.0837
  637MOL0     H85953  11.581  10.762   0.138 -0.9755 -1.4911 -0.4818
  637MOL0     H85954  11.666  10.635   0.207 -2.4103 -1.4856  0.5059
  637MOL0     H85955  11.810  10.912   0.092  0.8253  0.1219  0.4939
  637MOL0     H85956  11.729  11.172  -0.104 -1.5140  1.2517  1.2154
  637MOL0     H85957  11.884  11.204  -0.002  0.2195  1.9285 -1.0163
  637MOL0     H85958  11.840  11.045  -0.061 -3.0595 -1.3915  0.4995
  637MOL0     H85959  11.618  11.606   0.408  0.7668  1.0936 -0.3868
  637MOL0     H85960  11.593  11.832   0.407  0.4120  0.4363 -0.1578
  637MOL0     H85961  11.475  12.012   0.398 -0.0619  0.9746  1.3034
  637MOL0     H85962  11.639  12.030   0.321 -0.8918 -0.1563  0.8336
  637MOL0     H85963  11.544  12.245   0.200  2.3126  1.8956  0.8199
  637MOL0     H85964  11.393  12.221   0.287 -0.5283 -0.6863  1.3065
  637MOL0     H85965  11.531  12.223   0.496 -1.8053  0.2747 -1.8219
  637MOL0     H85966  11.512  12.386   0.427  1.0598 -0.0093  0.4458
  637MOL0     H85967  11.737  12.229   0.327  1.3581  0.7705  0.4760
  637MOL0     H85968  11.738  12.394   0.350  0.3971 -0.7143  0.1767
  637MOL0     H85969  11.882  12.255   0.504 -0.9407  0.1059 -3.2795
  637MOL0     H85970  11.743  12.187   0.572  1.4865  0.7357  0.0032
  637MOL0     H85971  11.803  12.482   0.592  0.5684  0.5215  2.5450
  637MOL0     H85972  11.650  12.413   0.631 -0.5444 -0.1901  0.0099
  637MOL0     H85973  11.922  12.335   0.765  0.5738  0.0837  2.0019
  637MOL0     H85974  11.755  12.278   0.808  2.5571 -1.6208 -1.1515
  637MOL0     H85975  11.705  12.535   0.870  1.3362  1.2568  1.9169
  637MOL0     H85976  11.865  12.574   0.802  2.7977 -1.8039  1.9143
  637MOL0     H85977  11.394  11.790   0.005 -1.6798 -2.0657 -0.5417
  637MOL0     H85978  11.425  11.558   0.023 -0.6987  0.6329 -0.1154
  637MOL0     H85979  11.535  11.224   0.344 -1.7247 -2.1081  0.2351
  637MOL0     H85980  11.546  11.008   0.409  1.6992  0.1058  1.0607
  637MOL0     H85981  10.720  11.535   0.920  2.6671 -0.3337 -0.8662
  637MOL0     H85982  10.763  11.633   1.155  0.5958  0.8294 -1.6395
  637MOL0     H85983  10.917  11.637   1.488  3.3020  1.0423  2.0209
  637MOL0     H85984  10.991  11.710   1.695  0.2203  1.1067  4.3235
  637MOL0     H85985  11.033  11.814   1.841 -2.9708  0.6686 -1.9491
  637MOL0     H85986  10.988  11.932   1.969 -1.7365 -0.8972  4.7894
  637MOL0     H85987  11.154  11.760   2.015  0.2764 -1.4645 -2.3374
  637MOL0     H85988  11.017  11.651   2.053  0.6482 -1.6549 -2.0970
  637MOL0     H85989  10.965  11.760   2.245 -1.7894 -0.2417 -1.6217
  637MOL0     H85990  11.030  11.924   2.195  0.0417  0.2525  0.8688
  637MOL0     H85991  11.166  11.876   2.349  3.0057 -1.8269  2.1896
  637MOL0     H85992  11.257  11.806   2.219  0.2969  1.0841  1.0902
  637MOL0     H85993  11.179  11.466   2.452  0.4023 -1.8933 -2.8331
  637MOL0     H85994  10.591  11.738   1.850 -0.8522  1.2214 -1.3162
  637MOL0     H85995  10.513  11.667   1.624 -0.3670  1.3414  0.3006
  638MOL0     O85996   3.773   3.562   2.578  0.4732 -0.3138  0.2680
  638MOL0     C85997   3.851   3.652   2.621 -0.0785  0.2677  0.3497
  638MOL0     O85998   3.849   3.780   2.577  0.0082  0.7121 -0.4877
  638MOL0     C85999   3.754   3.801   2.478  0.0965 -0.2398 -1.6228
  638MOL0     C86000   3.801   3.832   2.357  0.1259  0.5569 -0.1748
  638MOL0     C86001   3.708   3.882   2.271  1.0005 -0.8616 -0.1205
  638MOL0     C86002   3.576   3.913   2.303  0.6069 -0.2947 -0.7067
  638MOL0     O86003   3.482   3.979   2.227  0.6596  0.6730 -0.4921
  638MOL0     C86004   3.530   4.017   2.103  0.4344  0.2321  0.1516
  638MOL0     C86005   3.406   4.058   2.029  0.2971 -0.5067  0.9650
  638MOL0     C86006   3.439   4.104   1.881  0.4602 -0.1044 -0.0237
  638MOL0     C86007   3.319   4.141   1.810  0.1475 -0.5619 -0.7720
  638MOL0     C86008   3.311   4.122   1.663 -0.1711 -0.9418  1.7381
  638MOL0     C86009   3.433   4.172   1.587 -0.5858 -0.4045  0.0216
  638MOL0     C86010   3.420   4.143   1.434 -0.2885 -0.4685 -0.1283
  638MOL0     C86011   3.447   3.987   1.405  0.5358 -0.2648  0.0760
  638MOL0     N86012   3.476   3.952   1.253  0.3301  0.7783 -0.1072
  638MOL0     C86013   3.505   3.835   1.199  0.1526 -0.5482 -0.1976
  638MOL0     C86014   3.535   3.860   1.074 -0.6065 -0.4377 -0.1747
  638MOL0     C86015   3.584   3.756   0.980 -0.9237  1.0891 -1.0044
  638MOL0     C86016   3.505   3.625   0.990 -0.2496  0.1829 -1.2418
  638MOL0     C86017   3.353   3.625   0.969  0.9054  0.1812 -0.1736
  638MOL0     C86018   3.315   3.708   0.857 -0.2068 -0.6704  0.2639
  638MOL0     O86019   3.175   3.706   0.824 -0.5366  0.3966  0.6770
  638MOL0     C86020   3.084   3.792   0.878  0.0171 -0.3521  0.2769
  638MOL0     C86021   3.115   3.875   0.986  0.3236 -0.0192 -0.0485
  638MOL0     C86022   3.026   3.971   1.028  0.3914 -0.2055  0.1205
  638MOL0     C86023   3.079   4.058   1.140 -0.2108  0.7592  0.5609
  638MOL0     C86024   2.898   3.985   0.971  0.2044 -0.6301 -0.8656
  638MOL0     C86025   2.785   4.080   1.010  0.7111  1.0616 -0.4429
  638MOL0     O86026   2.825   4.193   1.082 -0.0623 -0.1308  0.4063
  638MOL0     C86027   2.732   4.292   1.103 -0.0541  0.3831  0.0322
  638MOL0     C86028   2.715   4.344   1.237 -0.8878  0.0589  0.6309
  638MOL0     C86029   2.622   4.446   1.254 -0.0206  0.1996 -0.3015
  638MOL0     C86030   2.547   4.498   1.153  0.7062 -0.6655 -0.3521
  638MOL0     O86031   2.455   4.595   1.199  0.1063  0.0472 -0.3820
  638MOL0     C86032   2.322   4.597   1.151  0.5840  0.0853  0.2205
  638MOL0     C86033   2.250   4.702   1.230 -0.1161  0.3157 -0.2722
  638MOL0     C86034   2.222   4.641   1.371 -0.8511 -0.3512  0.3273
  638MOL0     C86035   2.155   4.748   1.465 -0.2617 -0.1798  0.0017
  638MOL0     C86036   2.113   4.680   1.600  0.3056  0.3793  0.4508
  638MOL0     C86037   2.083   4.796   1.696  0.4600  0.7408  0.3925
  638MOL0     C86038   2.042   4.727   1.834 -0.1624 -0.2112 -0.6086
  638MOL0     C86039   2.010   4.827   1.938  0.5156 -0.1739 -0.0805
  638MOL0    Cl86040   1.900   4.957   1.877  0.1194  0.1950 -0.0535
  638MOL0     C86041   2.562   4.450   1.020  0.1102  0.6962 -0.2571
  638MOL0     C86042   2.660   4.350   0.997 -0.6001  0.1416  0.0001
  638MOL0     O86043   2.677   4.068   0.960  0.6587  0.5126 -0.1906
  638MOL0     C86044   2.863   3.893   0.872 -0.3005  0.3246 -0.8681
  638MOL0     C86045   2.952   3.796   0.833  0.4799 -0.0616  0.2901
  638MOL0     N86046   3.538   3.992   1.061 -0.0248 -0.6094 -0.3850
  638MOL0     N86047   3.481   4.050   1.161  0.2858 -0.4553 -0.2934
  638MOL0     C86048   3.533   3.874   2.428 -0.6769 -0.3579 -0.1986
  638MOL0     C86049   3.626   3.826   2.518  0.4643  0.8007 -1.1024
  638MOL0     C86050   3.944   3.615   2.732 -0.2390  0.6086 -0.3133
  638MOL0     C86051   3.915   3.498   2.807 -0.2006 -0.1522 -0.3086
  638MOL0     C86052   3.999   3.465   2.919 -0.0227 -0.0118  0.1021
  638MOL0     C86053   4.090   3.557   2.969 -0.2317  0.2004  0.6062
  638MOL0     O86054   4.176   3.532   3.072 -0.0482  0.1130  0.0860
  638MOL0     C86055   4.152   3.443   3.182 -0.7934 -0.1242 -0.6817
  638MOL0     C86056   4.013   3.456   3.239 -0.2682  0.1521  0.2648
  638MOL0     C86057   4.017   3.397   3.378 -0.1286 -0.1318 -0.0117
  638MOL0     C86058   3.888   3.432   3.461 -0.1000  0.3714  0.0161
  638MOL0     C86059   3.841   3.573   3.482 -0.0287 -0.6393 -0.7069
  638MOL0     C86060   3.814   3.684   3.507 -0.9070  0.1389 -0.0177
  638MOL0     C86061   4.117   3.669   2.894  0.6103 -0.2340  0.1160
  638MOL0     C86062   4.042   3.703   2.780  0.1629 -0.2781 -0.2666
  638MOL0     H86063   3.903   3.807   2.329 -0.0064 -1.1160  0.6973
  638MOL0     H86064   3.732   3.889   2.165  2.1946 -0.6770  0.1508
  638MOL0     H86065   3.606   4.095   2.109  2.1208 -1.2722 -0.6436
  638MOL0     H86066   3.583   3.942   2.044 -2.6283  0.3885 -3.1239
  638MOL0     H86067   3.336   3.975   2.035  2.1242 -2.3087 -0.6898
  638MOL0     H86068   3.371   4.145   2.085  1.2418  3.3526 -3.7643
  638MOL0     H86069   3.512   4.186   1.880  0.6101 -0.2333  0.2518
  638MOL0     H86070   3.489   4.022   1.830  0.1801  0.3644 -1.0779
  638MOL0     H86071   3.234   4.088   1.856 -1.6932  1.2723 -1.8666
  638MOL0     H86072   3.302   4.245   1.838  0.3487 -1.1570  1.8255
  638MOL0     H86073   3.294   4.018   1.636  1.8147 -0.6027 -1.2779
  638MOL0     H86074   3.227   4.180   1.622  0.8418 -0.9803 -0.5398
  638MOL0     H86075   3.444   4.280   1.596  1.6819 -0.5905  0.0508
  638MOL0     H86076   3.523   4.130   1.632 -2.4688 -2.9523  1.7128
  638MOL0     H86077   3.319   4.166   1.400  0.6762 -1.4730 -4.2505
  638MOL0     H86078   3.499   4.199   1.383 -0.5861 -1.7345 -2.1008
  638MOL0     H86079   3.353   3.936   1.430 -2.0217  3.9372 -0.0540
  638MOL0     H86080   3.521   3.942   1.472  1.6410  1.6172  0.1836
  638MOL0     H86081   3.495   3.743   1.254 -2.6863 -0.5579 -0.5570
  638MOL0     H86082   3.603   3.774   0.874  4.2446 -0.8317 -0.6585
  638MOL0     H86083   3.680   3.723   1.019 -1.8370 -0.6977 -0.1629
  638MOL0     H86084   3.520   3.587   1.091 -1.4520  3.5780  0.3861
  638MOL0     H86085   3.554   3.552   0.926  1.7673 -0.5910  1.0356
  638MOL0     H86086   3.303   3.658   1.061 -0.2585  0.4431 -0.8817
  638MOL0     H86087   3.310   3.527   0.950 -0.6730  0.1424  2.9308
  638MOL0     H86088   3.365   3.677   0.765 -2.2031  2.6348 -2.1678
  638MOL0     H86089   3.344   3.813   0.872  1.2871 -0.7388 -1.7817
  638MOL0     H86090   3.202   3.852   1.048  0.0727 -1.6128 -0.2455
  638MOL0     H86091   3.184   4.032   1.155 -0.8162 -2.1091  0.4986
  638MOL0     H86092   3.075   4.162   1.108  2.8637  0.8941  0.3500
  638MOL0     H86093   3.020   4.041   1.230 -0.1240  1.5878  0.7824
  638MOL0     H86094   2.782   4.295   1.308  2.0728 -0.0703 -2.0120
  638MOL0     H86095   2.597   4.484   1.352 -0.6170  2.2811 -1.2078
  638MOL0     H86096   2.329   4.633   1.048  0.5575  0.9737  0.5123
  638MOL0     H86097   2.271   4.501   1.159 -2.4210  1.7184  4.0137
  638MOL0     H86098   2.307   4.794   1.244  2.1030 -1.0517  0.1921
  638MOL0     H86099   2.152   4.716   1.182 -1.9806  0.9730  3.3502
  638MOL0     H86100   2.316   4.613   1.420 -0.9350  1.5143  1.6608
  638MOL0     H86101   2.170   4.545   1.359  0.4895 -1.0142 -0.3987
  638MOL0     H86102   2.231   4.824   1.479  0.1786 -0.4138 -0.9762
  638MOL0     H86103   2.068   4.800   1.424  0.4992  3.3292  2.4288
  638MOL0     H86104   2.196   4.613   1.623  0.2063 -0.5562 -1.6568
  638MOL0     H86105   2.022   4.619   1.591 -0.3423  0.1227  5.6905
  638MOL0     H86106   2.176   4.855   1.691  0.0581  1.3456 -0.0801
  638MOL0     H86107   1.993   4.843   1.656  2.0920  0.3837 -4.2973
  638MOL0     H86108   2.129   4.672   1.871  1.4846  2.3547 -0.4721
  638MOL0     H86109   1.955   4.664   1.809 -0.9834  1.6515 -2.7534
  638MOL0     H86110   2.097   4.884   1.973 -0.3696 -0.1552  2.2543
  638MOL0     H86111   1.964   4.787   2.029  1.7449 -3.2001 -0.6822
  638MOL0     H86112   2.489   4.493   0.952  1.3443  1.6718 -1.0209
  638MOL0     H86113   2.669   4.317   0.894  0.4319  3.8277 -1.2536
  638MOL0     H86114   2.771   3.901   0.815  0.4201  0.4586 -2.0431
  638MOL0     H86115   2.914   3.718   0.768 -0.2163  1.1032 -0.7560
  638MOL0     H86116   3.429   3.892   2.453 -0.7896 -0.1682 -0.7630
  638MOL0     H86117   3.593   3.790   2.615  1.0778 -0.2150 -1.2507
  638MOL0     H86118   3.842   3.429   2.764 -0.6428  1.2494 -1.9477
  638MOL0     H86119   3.995   3.368   2.968  2.2415  1.1524  2.8841
  638MOL0     H86120   4.179   3.338   3.168  0.2143 -0.6973  3.7879
  638MOL0     H86121   4.218   3.465   3.267 -0.2275 -1.4853 -0.7350
  638MOL0     H86122   3.943   3.403   3.175 -1.0416  1.6350 -0.1645
  638MOL0     H86123   3.982   3.561   3.237 -1.2748 -0.1312 -1.8555
  638MOL0     H86124   4.104   3.429   3.436  0.8691 -3.4767  0.5686
  638MOL0     H86125   4.050   3.292   3.372  2.1326  0.3982  1.7619
  638MOL0     H86126   3.902   3.386   3.559 -2.0711 -1.2020 -0.3879
  638MOL0     H86127   3.810   3.371   3.417 -0.8402 -0.5605  2.4286
  638MOL0     H86128   3.774   3.779   3.536 -0.1781  0.4596 -0.0430
  638MOL0     H86129   4.194   3.740   2.921 -1.2955  2.1251 -0.2936
  638MOL0     H86130   4.073   3.790   2.723  0.6954 -2.3641 -3.4617
  639MOL0     O86131  10.555   9.861   5.185  0.0685 -0.6227 -0.4121
  639MOL0     C86132  10.501   9.808   5.280 -1.0844  0.5275  0.8859
  639MOL0     O86133  10.398   9.724   5.281  0.2625  0.0174 -0.2158
  639MOL0     C86134  10.332   9.701   5.163 -0.0801  0.7954  0.5998
  639MOL0     C86135  10.203   9.664   5.188 -0.3793  1.1946  0.2287
  639MOL0     C86136  10.115   9.615   5.087  0.3225 -0.7334  1.0556
  639MOL0     C86137  10.162   9.597   4.958  0.1595 -1.2529 -0.6989
  639MOL0     O86138  10.081   9.566   4.856  0.7224 -0.1574  0.0074
  639MOL0     C86139   9.963   9.478   4.880 -0.5784 -0.2954 -0.6871
  639MOL0     C86140   9.998   9.349   4.799 -0.3120  0.1120 -0.2092
  639MOL0     C86141   9.905   9.221   4.826 -0.7645 -0.0746 -0.2789
  639MOL0     C86142   9.958   9.116   4.936 -0.3957 -0.3960  0.3038
  639MOL0     C86143   9.997   8.984   4.871 -1.1191  0.1912 -0.1492
  639MOL0     C86144  10.112   9.009   4.770 -0.0342 -0.7170  0.5511
  639MOL0     C86145  10.160   8.884   4.692  0.1129  0.0663 -0.2419
  639MOL0     C86146  10.052   8.816   4.606  0.0811  0.6985 -0.6393
  639MOL0     N86147   9.967   8.905   4.532  0.1535 -0.0713 -0.0294
  639MOL0     C86148  10.004   9.015   4.462 -0.6985 -0.4585 -0.0691
  639MOL0     C86149   9.901   9.050   4.387 -0.0001  0.1271  0.7259
  639MOL0     C86150   9.897   9.156   4.276  0.5185  0.0394 -0.1033
  639MOL0     C86151  10.023   9.131   4.188 -0.3536  0.2138  0.7108
  639MOL0     C86152  10.055   8.980   4.141 -0.3401 -1.0420  0.4407
  639MOL0     C86153   9.935   8.897   4.101  0.5933 -0.4923 -0.0796
  639MOL0     O86154   9.861   8.970   4.001 -0.0342  0.1360  0.0306
  639MOL0     C86155   9.775   8.902   3.922  1.5591 -0.3897 -0.6674
  639MOL0     C86156   9.651   8.958   3.894  0.2790  0.2986  0.6400
  639MOL0     C86157   9.558   8.895   3.811  0.0666 -0.3099 -0.4115
  639MOL0     C86158   9.423   8.960   3.791 -0.7390 -0.1303 -0.0102
  639MOL0     C86159   9.583   8.765   3.762 -0.3021  0.2491  0.6781
  639MOL0     C86160   9.476   8.691   3.682  0.6155  0.3236 -0.0982
  639MOL0     O86161   9.514   8.567   3.653  0.2304  0.3725 -0.5934
  639MOL0     C86162   9.438   8.480   3.574  0.0300  0.4967  0.5286
  639MOL0     C86163   9.377   8.516   3.449  1.0446 -0.5605  0.5511
  639MOL0     C86164   9.295   8.419   3.390 -0.6490  0.1288  0.1570
  639MOL0     C86165   9.273   8.287   3.450  0.8502  0.3997 -0.5771
  639MOL0     O86166   9.197   8.182   3.403  0.1457  0.3036 -0.3031
  639MOL0     C86167   9.080   8.236   3.332 -0.0023  0.5107  0.5555
  639MOL0     C86168   8.985   8.127   3.290 -0.2188  0.8483 -0.9437
  639MOL0     C86169   8.952   8.028   3.405 -0.1917 -0.1919 -0.0897
  639MOL0     C86170   8.840   8.086   3.500 -0.5808  0.2989 -0.4827
  639MOL0     C86171   8.831   7.998   3.633  0.9518 -0.2971 -0.0074
  639MOL0     C86172   8.715   8.056   3.707 -0.1453 -0.0198 -0.0597
  639MOL0     C86173   8.689   8.011   3.849  0.4006  0.5244  0.1147
  639MOL0     C86174   8.554   8.059   3.916  0.5910 -0.2776  0.3841
  639MOL0    Cl86175   8.542   7.977   4.075  0.2246  0.2628 -0.5259
  639MOL0     C86176   9.346   8.256   3.561  0.9421  0.2496 -0.1123
  639MOL0     C86177   9.424   8.354   3.623  0.5717  0.1302  1.0189
  639MOL0     O86178   9.370   8.741   3.642 -0.2260 -0.2359  0.1832
  639MOL0     C86179   9.702   8.699   3.788  0.1267 -0.2404 -0.3199
  639MOL0     C86180   9.803   8.774   3.861  0.4975 -0.5758 -1.2164
  639MOL0     N86181   9.796   8.970   4.411  0.4663  0.6571  0.0873
  639MOL0     N86182   9.834   8.879   4.498 -0.2770  0.6109  0.4435
  639MOL0     C86183  10.294   9.650   4.933  0.3083  0.3284  0.8733
  639MOL0     C86184  10.381   9.695   5.037  0.0056  0.2035  1.0612
  639MOL0     C86185  10.572   9.821   5.410  0.2002  0.0451  0.7139
  639MOL0     C86186  10.569   9.720   5.513 -0.6733 -0.0050  0.8245
  639MOL0     C86187  10.645   9.730   5.630 -0.0612 -0.3068 -0.1634
  639MOL0     C86188  10.724   9.845   5.658  0.1670  0.3481  0.1597
  639MOL0     O86189  10.798   9.855   5.767 -0.2212  0.1201  0.5596
  639MOL0     C86190  10.744   9.957   5.854  0.0410  0.8070  0.4744
  639MOL0     C86191  10.816   9.934   5.988  1.2112 -0.5036 -1.0888
  639MOL0     C86192  10.752  10.028   6.099 -0.1897 -0.9522 -0.4393
  639MOL0     C86193  10.692   9.950   6.225 -0.4523  0.8893 -0.1908
  639MOL0     C86194  10.772   9.826   6.265 -0.4575 -0.4064 -0.0719
  639MOL0     C86195  10.830   9.723   6.298 -0.1524  0.3428  0.3168
  639MOL0     C86196  10.729   9.941   5.559  0.0820  0.3252  0.7358
  639MOL0     C86197  10.657   9.928   5.442 -0.4877 -0.1210 -0.1738
  639MOL0     H86198  10.171   9.674   5.291  0.1187  4.5281  0.1780
  639MOL0     H86199  10.013   9.597   5.120 -0.2688 -0.6042 -0.6172
  639MOL0     H86200   9.937   9.458   4.985  0.4247 -0.0393 -0.3776
  639MOL0     H86201   9.880   9.537   4.841  1.1680  2.3249 -0.7160
  639MOL0     H86202   9.983   9.379   4.695 -0.1325  3.8233  0.7063
  639MOL0     H86203  10.105   9.329   4.810  0.3282  2.9935 -0.5428
  639MOL0     H86204   9.802   9.254   4.848  0.6876  4.8317  0.4358
  639MOL0     H86205   9.893   9.169   4.731 -2.0127 -0.4385  0.0518
  639MOL0     H86206  10.048   9.160   4.979 -0.0089 -1.3336  0.4601
  639MOL0     H86207   9.878   9.100   5.010  0.0435 -3.3052  0.2694
  639MOL0     H86208  10.039   8.922   4.950 -2.9289  2.2059  2.6189
  639MOL0     H86209   9.909   8.934   4.829 -0.1529 -2.7860  1.1293
  639MOL0     H86210  10.080   9.083   4.697  3.9767  0.9504  0.2020
  639MOL0     H86211  10.203   9.047   4.817  1.8887 -2.5175 -1.4406
  639MOL0     H86212  10.233   8.916   4.617 -1.8348  0.6153 -2.0044
  639MOL0     H86213  10.194   8.812   4.767  2.0236  1.6518  0.4882
  639MOL0     H86214   9.995   8.759   4.680  2.1677  3.4733  3.4379
  639MOL0     H86215  10.105   8.745   4.541  1.5830 -1.4430  2.6787
  639MOL0     H86216  10.103   9.059   4.459 -1.1114  0.4467 -2.2424
  639MOL0     H86217   9.804   9.151   4.217 -0.0670  2.6422  0.5020
  639MOL0     H86218   9.894   9.253   4.325 -0.1021  2.0012 -3.6887
  639MOL0     H86219  10.112   9.176   4.232 -0.7223  1.7221 -0.0184
  639MOL0     H86220  10.005   9.174   4.089  5.0973 -2.3555 -1.8018
  639MOL0     H86221  10.107   8.931   4.224  2.0406  0.6992  0.0446
  639MOL0     H86222  10.118   8.988   4.052 -0.1360 -0.4449  0.6396
  639MOL0     H86223   9.870   8.862   4.182  0.2087 -1.1870 -0.6763
  639MOL0     H86224   9.980   8.807   4.057  1.0273  0.0182 -0.7028
  639MOL0     H86225   9.606   9.046   3.939 -1.4375  1.5334 -3.1185
  639MOL0     H86226   9.345   8.917   3.855 -1.7706  2.2282  0.4573
  639MOL0     H86227   9.432   9.067   3.813 -0.8197 -0.5968  2.6786
  639MOL0     H86228   9.379   8.958   3.691  0.9397 -1.6990 -0.7570
  639MOL0     H86229   9.388   8.617   3.411  0.4076 -0.9504 -0.7125
  639MOL0     H86230   9.241   8.444   3.300 -1.8589 -1.8485  0.2731
  639MOL0     H86231   9.023   8.312   3.386 -1.2340  0.3956 -0.5276
  639MOL0     H86232   9.113   8.283   3.239  2.4375 -2.2231 -0.1224
  639MOL0     H86233   8.888   8.171   3.263 -0.3859  1.1642  0.0860
  639MOL0     H86234   9.016   8.064   3.207  1.0768  1.1045 -0.6766
  639MOL0     H86235   9.039   8.008   3.468 -0.4231  0.7489  0.5513
  639MOL0     H86236   8.910   7.937   3.362 -0.8363  0.8519 -1.7735
  639MOL0     H86237   8.876   8.187   3.522  0.3635  0.3691 -2.1976
  639MOL0     H86238   8.743   8.086   3.450 -0.4703 -0.5970 -0.7186
  639MOL0     H86239   8.925   8.004   3.687  0.3487 -1.3375  1.2019
  639MOL0     H86240   8.808   7.893   3.614  4.2760 -0.8109 -1.8840
  639MOL0     H86241   8.720   8.165   3.713  1.3526 -0.0534 -0.3635
  639MOL0     H86242   8.626   8.020   3.656 -1.1350 -0.4466  1.8538
  639MOL0     H86243   8.771   8.055   3.906 -0.7052  1.4303  1.0506
  639MOL0     H86244   8.684   7.902   3.861  0.3934  0.5625  0.4739
  639MOL0     H86245   8.468   8.039   3.851 -0.3542  0.7488  1.2792
  639MOL0     H86246   8.559   8.167   3.933 -1.6180  0.1977 -1.5542
  639MOL0     H86247   9.335   8.161   3.611  2.0979  0.5618  0.7956
  639MOL0     H86248   9.473   8.309   3.709  0.5075 -3.0857 -0.4856
  639MOL0     H86249   9.732   8.602   3.749 -2.0500 -1.1999  0.2350
  639MOL0     H86250   9.906   8.743   3.871  1.0168  1.5854  2.0540
  639MOL0     H86251  10.337   9.638   4.834  1.6224 -1.6023  1.6180
  639MOL0     H86252  10.482   9.719   5.006 -0.3498 -1.3258 -1.5680
  639MOL0     H86253  10.505   9.633   5.495  0.0546 -0.0695 -1.9374
  639MOL0     H86254  10.633   9.650   5.702 -2.7541 -0.7378 -1.0062
  639MOL0     H86255  10.765  10.056   5.812  0.1952  0.7159  0.3411
  639MOL0     H86256  10.635   9.949   5.869 -0.2594 -2.1373 -2.2644
  639MOL0     H86257  10.914   9.974   5.960  0.5095  0.9637 -1.5876
  639MOL0     H86258  10.819   9.832   6.026 -0.6520 -0.3985 -0.5589
  639MOL0     H86259  10.682  10.105   6.068 -1.7705 -0.2275  4.0664
  639MOL0     H86260  10.830  10.090   6.143  1.6453 -3.8993  0.7729
  639MOL0     H86261  10.591   9.915   6.201 -0.6039  1.0608  0.1953
  639MOL0     H86262  10.689  10.014   6.313  2.3578  1.5370 -0.4770
  639MOL0     H86263  10.901   9.654   6.338 -0.4575 -1.7207 -2.3749
  639MOL0     H86264  10.787  10.031   5.579 -0.2117  1.0086 -1.2602
  639MOL0     H86265  10.657  10.003   5.364 -2.4647  0.6809  0.5440
  640MOL0     O86266   9.738   6.554   6.163  0.3449 -0.6437  0.9082
  640MOL0     C86267   9.751   6.650   6.242 -0.3609 -0.0390  0.4393
  640MOL0     O86268   9.880   6.696   6.294  0.2116 -0.9354  0.3111
  640MOL0     C86269   9.977   6.601   6.277 -1.1394  0.4038 -0.5538
  640MOL0     C86270  10.080   6.612   6.176 -0.2558 -0.8725 -0.8635
  640MOL0     C86271  10.181   6.513   6.161 -0.4779  0.7205  0.1379
  640MOL0     C86272  10.176   6.391   6.238 -0.1891  0.5817  0.6623
  640MOL0     O86273  10.270   6.288   6.238 -0.2673  0.2585 -0.0817
  640MOL0     C86274  10.379   6.283   6.147 -0.4903  0.5990  0.5634
  640MOL0     C86275  10.514   6.220   6.213 -0.2537 -0.8698  0.0936
  640MOL0     C86276  10.621   6.209   6.104 -1.7367 -0.6922  0.4036
  640MOL0     C86277  10.773   6.229   6.142  0.5993 -0.2043  0.0870
  640MOL0     C86278  10.836   6.106   6.203  0.8979  0.6645  0.7670
  640MOL0     C86279  10.975   6.149   6.272 -0.0678  0.3260  0.9392
  640MOL0     C86280  11.064   6.033   6.310  0.6716 -0.5322  0.6840
  640MOL0     C86281  11.202   6.080   6.366 -0.1315 -0.4290  0.1668
  640MOL0     N86282  11.293   5.970   6.379  0.0424  0.1097 -1.6753
  640MOL0     C86283  11.387   5.926   6.290 -0.4306  0.5644  0.7734
  640MOL0     C86284  11.475   5.852   6.367 -0.3022 -0.5290 -0.0619
  640MOL0     C86285  11.578   5.756   6.318 -0.7125 -0.0370 -0.1543
  640MOL0     C86286  11.712   5.780   6.381 -0.0798 -0.3394  0.3025
  640MOL0     C86287  11.831   5.697   6.318  0.2264 -0.5307  0.2136
  640MOL0     C86288  11.965   5.743   6.371  0.6347 -0.7023  0.0192
  640MOL0     O86289  11.999   5.867   6.309 -0.2435  0.8608 -0.1917
  640MOL0     C86290  12.027   5.969   6.390  0.2004  0.8637 -0.4619
  640MOL0     C86291  12.113   6.074   6.365  0.2171  0.5735 -1.1504
  640MOL0     C86292  12.117   6.195   6.440  0.9502 -0.4818 -0.6309
  640MOL0     C86293  12.220   6.297   6.416 -0.5923 -0.2311  0.5012
  640MOL0     C86294  12.013   6.221   6.535 -0.7558 -0.3967 -0.3400
  640MOL0     C86295  11.973   6.357   6.602 -1.2031  0.1724  0.2127
  640MOL0     O86296  11.896   6.350   6.709 -0.0977  0.3170  0.1209
  640MOL0     C86297  11.838   6.464   6.758 -0.5896  0.8342 -0.6397
  640MOL0     C86298  11.820   6.591   6.700 -0.4134 -0.2715  0.6892
  640MOL0     C86299  11.759   6.697   6.770  0.0254 -0.4420  0.1802
  640MOL0     C86300  11.704   6.675   6.892 -0.0710 -0.0204 -0.7412
  640MOL0     O86301  11.635   6.786   6.946  0.1139  0.3653 -0.1583
  640MOL0     C86302  11.496   6.781   6.988 -0.0230  0.1712  0.9049
  640MOL0     C86303  11.401   6.724   6.875 -0.0100  0.0328  0.0134
  640MOL0     C86304  11.345   6.835   6.779 -0.3028  0.0509  1.0340
  640MOL0     C86305  11.355   6.787   6.634  0.1097 -0.1399 -0.5014
  640MOL0     C86306  11.262   6.672   6.599  0.4807 -0.8300 -0.3921
  640MOL0     C86307  11.243   6.669   6.446  1.0923 -0.2777  0.0811
  640MOL0     C86308  11.104   6.601   6.417  0.6016  0.0012  0.1119
  640MOL0     C86309  11.098   6.550   6.273  0.2835  1.3656  0.1137
  640MOL0    Cl86310  10.943   6.510   6.211 -0.3686  0.1145 -0.4014
  640MOL0     C86311  11.716   6.548   6.960 -0.4186 -1.4325  0.3739
  640MOL0     C86312  11.777   6.443   6.884  0.8753 -0.6835  1.0630
  640MOL0     O86313  12.011   6.457   6.551  0.3174  0.2674 -0.3050
  640MOL0     C86314  11.934   6.117   6.573 -1.6081  0.9760 -0.3207
  640MOL0     C86315  11.948   5.996   6.508  0.9795  0.1676  0.1836
  640MOL0     N86316  11.440   5.884   6.499 -0.0196 -0.5505  0.6108
  640MOL0     N86317  11.324   5.940   6.510 -0.6942 -0.1079  0.6460
  640MOL0     C86318  10.072   6.387   6.327  0.1492  0.3629  0.5050
  640MOL0     C86319   9.982   6.485   6.354 -0.1538 -1.2129  0.6083
  640MOL0     C86320   9.644   6.731   6.288  0.0742 -0.2242  0.4545
  640MOL0     C86321   9.513   6.690   6.266 -0.6509 -0.6255  0.2363
  640MOL0     C86322   9.405   6.775   6.311 -1.0349  0.5177  0.4136
  640MOL0     C86323   9.431   6.892   6.375 -0.3606  0.7736  1.0426
  640MOL0     O86324   9.332   6.973   6.420 -0.6364  0.1759  0.6407
  640MOL0     C86325   9.196   6.923   6.430 -0.0681 -0.0650 -0.0371
  640MOL0     C86326   9.133   6.980   6.543 -0.2806  0.6882  0.2937
  640MOL0     C86327   8.995   6.923   6.581  0.7682  0.1134  0.8250
  640MOL0     C86328   8.905   6.999   6.665 -0.2035  0.3420  0.3649
  640MOL0     C86329   8.936   7.016   6.803  0.0504 -0.2251 -0.5236
  640MOL0     C86330   8.964   7.053   6.916 -0.4244  0.0133  0.8328
  640MOL0     C86331   9.553   6.927   6.404 -0.7497  0.1703  0.7842
  640MOL0     C86332   9.667   6.853   6.362 -1.0520 -0.2414  0.2232
  640MOL0     H86333  10.064   6.704   6.121 -1.2364  0.3922  1.3810
  640MOL0     H86334  10.262   6.532   6.091  0.7406 -1.9168  0.7061
  640MOL0     H86335  10.346   6.220   6.064  0.0402 -0.1635  0.9291
  640MOL0     H86336  10.403   6.376   6.095 -2.7328  2.4235  2.5353
  640MOL0     H86337  10.557   6.276   6.297 -2.1367 -3.1397  2.7522
  640MOL0     H86338  10.496   6.118   6.246 -0.1710 -0.3643  1.8026
  640MOL0     H86339  10.610   6.109   6.063 -0.7646 -1.4584  1.9108
  640MOL0     H86340  10.593   6.277   6.023 -3.9890 -2.4729 -0.4064
  640MOL0     H86341  10.825   6.275   6.058 -1.3383  5.7114  1.6396
  640MOL0     H86342  10.783   6.322   6.200  0.8681  0.9453 -1.7336
  640MOL0     H86343  10.767   6.064   6.277  1.7715 -0.0703  1.1846
  640MOL0     H86344  10.856   6.037   6.121  0.0784  0.8338  0.4130
  640MOL0     H86345  11.026   6.208   6.195 -0.2943  2.2828  2.2115
  640MOL0     H86346  10.958   6.205   6.365 -2.3396  1.5760 -0.1453
  640MOL0     H86347  11.008   5.975   6.384  1.2103 -0.9064  0.8074
  640MOL0     H86348  11.078   5.977   6.217  1.8193 -0.2372  0.6640
  640MOL0     H86349  11.191   6.132   6.462  0.0059 -0.6334  0.2934
  640MOL0     H86350  11.248   6.153   6.299  0.3448 -3.3183 -2.9497
  640MOL0     H86351  11.384   5.935   6.182 -0.7681  0.1718  0.7517
  640MOL0     H86352  11.535   5.657   6.332 -1.2031  0.2903  0.7730
  640MOL0     H86353  11.588   5.779   6.211  0.3688  0.7306  0.0939
  640MOL0     H86354  11.701   5.770   6.490 -1.0385 -2.4333  0.0567
  640MOL0     H86355  11.733   5.885   6.357 -1.9244 -0.0943 -0.3880
  640MOL0     H86356  11.837   5.693   6.209 -0.5761 -1.9071  0.1937
  640MOL0     H86357  11.815   5.594   6.352 -2.2415 -0.1558  0.3599
  640MOL0     H86358  12.032   5.658   6.354  0.3705 -1.4225  2.1960
  640MOL0     H86359  11.961   5.738   6.480 -1.5382  0.0551  0.0152
  640MOL0     H86360  12.179   6.062   6.280 -0.3160  1.8055 -1.7632
  640MOL0     H86361  12.313   6.255   6.375 -0.0459  0.2044  1.2696
  640MOL0     H86362  12.193   6.376   6.345  0.3762  0.7303  1.1742
  640MOL0     H86363  12.245   6.347   6.510 -1.5432 -1.1030  1.2373
  640MOL0     H86364  11.867   6.620   6.607 -1.0646  1.8581  0.9846
  640MOL0     H86365  11.747   6.794   6.724 -0.1728 -0.8098 -0.5564
  640MOL0     H86366  11.496   6.735   7.088  0.7284  0.7076  1.1654
  640MOL0     H86367  11.470   6.887   6.996  1.6352  1.2355 -4.3442
  640MOL0     H86368  11.453   6.645   6.820  0.2290 -1.2057  1.9165
  640MOL0     H86369  11.311   6.681   6.920  0.3423  1.4236  2.1953
  640MOL0     H86370  11.395   6.929   6.802  2.1425 -1.2090  1.2721
  640MOL0     H86371  11.242   6.859   6.808  0.5363  6.3682  0.1582
  640MOL0     H86372  11.336   6.875   6.572  3.4470  0.7653 -0.4377
  640MOL0     H86373  11.458   6.757   6.617 -0.1281 -1.6714  0.5760
  640MOL0     H86374  11.164   6.694   6.642  0.5601  2.8601 -1.7720
  640MOL0     H86375  11.309   6.583   6.642  2.5670  1.7485  3.2117
  640MOL0     H86376  11.224   6.771   6.411  0.3076 -0.0041  1.2445
  640MOL0     H86377  11.322   6.635   6.379  0.5297  1.3209 -1.4763
  640MOL0     H86378  11.022   6.673   6.419  1.8319  1.4220  1.4315
  640MOL0     H86379  11.078   6.528   6.494  1.2442 -2.2118 -1.6517
  640MOL0     H86380  11.156   6.459   6.256 -0.0383  1.0966  0.4422
  640MOL0     H86381  11.127   6.632   6.207 -2.0410  3.1557  1.1642
  640MOL0     H86382  11.679   6.517   7.057  0.4338 -1.5013  0.6775
  640MOL0     H86383  11.783   6.346   6.933 -1.1309 -1.8407 -0.7834
  640MOL0     H86384  11.854   6.119   6.646 -1.4752  2.0274 -0.1866
  640MOL0     H86385  11.867   5.929   6.536  1.9533 -0.2930  2.0850
  640MOL0     H86386  10.058   6.307   6.398 -2.5375  0.5949  0.3266
  640MOL0     H86387   9.910   6.469   6.434  0.4061 -1.7665  1.0134
  640MOL0     H86388   9.480   6.607   6.204  0.9957 -0.3592 -1.0688
  640MOL0     H86389   9.314   6.728   6.275 -0.7546  0.9451 -0.9389
  640MOL0     H86390   9.141   6.935   6.337 -1.0170 -0.2078  0.4934
  640MOL0     H86391   9.193   6.816   6.454  3.5618 -0.3109 -0.1223
  640MOL0     H86392   9.135   7.089   6.541  2.6309  0.7086 -0.0154
  640MOL0     H86393   9.184   6.960   6.638 -1.6729 -2.8449  0.4645
  640MOL0     H86394   9.016   6.826   6.628  0.1658 -0.7585 -0.6457
  640MOL0     H86395   8.936   6.896   6.494 -1.2845 -0.1999  2.2379
  640MOL0     H86396   8.807   6.950   6.660 -0.8834  1.1802  3.1426
  640MOL0     H86397   8.888   7.100   6.627 -2.3165  0.6841  2.0016
  640MOL0     H86398   8.974   7.083   7.019 -0.4191 -4.0630  2.2003
  640MOL0     H86399   9.562   7.019   6.461  0.3224  1.6865 -1.6942
  640MOL0     H86400   9.759   6.892   6.405 -1.0177 -1.8467  1.7055
  641MOL0     O86401   7.365   8.199   9.386 -0.1874 -0.5202 -0.3717
  641MOL0     C86402   7.354   8.083   9.345 -1.1133 -0.7261  0.2695
  641MOL0     O86403   7.251   8.036   9.270 -0.5004 -0.1764 -0.1739
  641MOL0     C86404   7.149   8.126   9.247  0.2077 -0.4577 -0.4042
  641MOL0     C86405   7.170   8.237   9.158 -0.2986 -0.1593 -0.4633
  641MOL0     C86406   7.050   8.312   9.124 -0.6261  0.1135 -0.0755
  641MOL0     C86407   6.929   8.289   9.191 -0.1930 -0.8624 -0.4070
  641MOL0     O86408   6.824   8.377   9.157  0.2185  0.2191 -0.1057
  641MOL0     C86409   6.768   8.334   9.028 -0.5072  0.7986  0.5829
  641MOL0     C86410   6.619   8.360   9.029  0.6551 -0.1979  0.7151
  641MOL0     C86411   6.533   8.356   9.154 -0.0820 -0.1970 -0.0777
  641MOL0     C86412   6.514   8.213   9.202  0.8733 -1.2355 -0.4731
  641MOL0     C86413   6.438   8.202   9.332 -0.0721 -0.9576  0.6238
  641MOL0     C86414   6.289   8.267   9.321  0.0768  0.3424 -0.6024
  641MOL0     C86415   6.222   8.260   9.453  0.1675  0.2977 -0.3870
  641MOL0     C86416   6.086   8.330   9.455 -0.6979 -0.2947 -0.5896
  641MOL0     N86417   5.983   8.279   9.363 -0.2201  0.2950  0.6890
  641MOL0     C86418   5.920   8.357   9.265 -0.4029 -1.1639  0.5108
  641MOL0     C86419   5.840   8.272   9.203  0.4750 -0.7675 -0.2305
  641MOL0     C86420   5.757   8.298   9.082 -0.1261  0.3510  1.0517
  641MOL0     C86421   5.635   8.190   9.074 -0.1465 -0.1225 -0.4137
  641MOL0     C86422   5.537   8.186   8.959 -0.1931 -0.1521 -0.4339
  641MOL0     C86423   5.603   8.161   8.826  0.6401  0.4649 -0.1470
  641MOL0     O86424   5.646   8.290   8.772  0.5816 -0.0233  0.4656
  641MOL0     C86425   5.706   8.293   8.646 -0.1362 -0.0363 -0.4138
  641MOL0     C86426   5.772   8.412   8.623  0.2853  0.0276  0.1672
  641MOL0     C86427   5.844   8.427   8.504 -0.3053 -0.1067 -0.4892
  641MOL0     C86428   5.910   8.560   8.485 -0.5069  0.1570 -0.4574
  641MOL0     C86429   5.834   8.329   8.398  0.0350 -1.0904 -0.2634
  641MOL0     C86430   5.896   8.342   8.265 -0.6266 -0.2186  0.5810
  641MOL0     O86431   5.959   8.459   8.243 -0.6011  0.2605  0.4971
  641MOL0     C86432   6.002   8.487   8.112 -0.5316  0.3380 -0.1370
  641MOL0     C86433   6.139   8.507   8.080 -0.0801  0.4258 -0.4078
  641MOL0     C86434   6.184   8.561   7.961  0.7569  0.1611  0.5875
  641MOL0     C86435   6.093   8.581   7.860  0.4782  0.1829  0.5013
  641MOL0     O86436   6.119   8.602   7.730  0.0466 -0.1560 -0.2315
  641MOL0     C86437   6.253   8.627   7.679 -0.5641  0.0739  0.8930
  641MOL0     C86438   6.243   8.761   7.604 -0.0424  0.2464  0.5228
  641MOL0     C86439   6.159   8.734   7.473  0.3741 -0.4729 -0.1190
  641MOL0     C86440   6.010   8.667   7.484 -0.4270  0.7910 -0.1720
  641MOL0     C86441   5.924   8.672   7.356  0.4028 -0.5272  0.1038
  641MOL0     C86442   5.799   8.573   7.364 -0.6047  0.1976 -0.3781
  641MOL0     C86443   5.716   8.555   7.491 -0.1382 -1.0223 -1.0085
  641MOL0     C86444   5.635   8.424   7.499  0.2156 -0.8879 -1.1467
  641MOL0    Cl86445   5.568   8.411   7.659 -0.0757 -0.1089 -0.1093
  641MOL0     C86446   5.959   8.574   7.893  0.6451 -0.3181  0.3954
  641MOL0     C86447   5.914   8.514   8.009  0.0718 -0.1690  0.8524
  641MOL0     O86448   5.882   8.262   8.176 -0.1069  0.3415  0.3564
  641MOL0     C86449   5.754   8.212   8.419 -0.4649  0.0868  0.4157
  641MOL0     C86450   5.700   8.194   8.546 -0.9413  0.3621 -0.6843
  641MOL0     N86451   5.850   8.153   9.264 -0.6306  0.9135  0.3087
  641MOL0     N86452   5.931   8.154   9.365 -0.2680  0.4147 -0.2890
  641MOL0     C86453   6.917   8.175   9.285 -0.0419  1.1346  0.6751
  641MOL0     C86454   7.024   8.092   9.297 -0.0849  1.0977 -0.0613
  641MOL0     C86455   7.471   7.991   9.374  0.0744  1.2010  0.3819
  641MOL0     C86456   7.588   8.035   9.440  1.0884 -0.0216 -0.7263
  641MOL0     C86457   7.694   7.945   9.453  0.2982 -0.9504  0.8267
  641MOL0     C86458   7.689   7.817   9.410  0.1559 -0.0318  0.3833
  641MOL0     O86459   7.795   7.734   9.424 -0.2209 -0.3757 -1.3593
  641MOL0     C86460   7.825   7.637   9.328 -0.4062  0.0204  0.0315
  641MOL0     C86461   7.951   7.570   9.368  0.0039  0.7003  0.1442
  641MOL0     C86462   8.026   7.515   9.246  0.0624  0.9815  0.4515
  641MOL0     C86463   8.131   7.409   9.293  0.1729 -0.2647  1.0031
  641MOL0     C86464   8.234   7.386   9.197  0.1627  0.0623 -0.6876
  641MOL0     C86465   8.300   7.359   9.104 -0.4873  0.4257  0.0133
  641MOL0     C86466   7.571   7.764   9.346 -0.0733 -1.0154 -0.0710
  641MOL0     C86467   7.463   7.852   9.339 -0.0005 -0.5574  0.9493
  641MOL0     H86468   7.268   8.248   9.114  0.1732 -4.4700 -0.9341
  641MOL0     H86469   7.054   8.382   9.040 -0.3311  0.0646 -0.1053
  641MOL0     H86470   6.822   8.381   8.946 -1.7676 -0.1595 -0.8497
  641MOL0     H86471   6.786   8.229   9.006 -0.5429  1.5016 -3.5951
  641MOL0     H86472   6.591   8.457   8.987  2.5176 -0.2205 -0.6971
  641MOL0     H86473   6.569   8.295   8.957  0.3538  0.7849  0.0189
  641MOL0     H86474   6.583   8.411   9.235  1.1534 -0.2936 -0.7515
  641MOL0     H86475   6.436   8.405   9.137 -1.5484 -0.0910  6.0380
  641MOL0     H86476   6.455   8.166   9.122 -2.7631  3.2576 -0.8594
  641MOL0     H86477   6.611   8.166   9.214  1.9573  1.3084  1.6729
  641MOL0     H86478   6.423   8.095   9.350 -0.8523 -1.2001 -1.2560
  641MOL0     H86479   6.498   8.248   9.411  0.6543  1.1175 -1.0424
  641MOL0     H86480   6.292   8.370   9.284 -2.2760  1.6075  2.3182
  641MOL0     H86481   6.231   8.208   9.249  1.6209 -1.5169 -0.4138
  641MOL0     H86482   6.194   8.157   9.477  1.1825 -0.5384 -2.5451
  641MOL0     H86483   6.274   8.314   9.534 -3.9100  1.3882  1.7662
  641MOL0     H86484   6.089   8.437   9.431 -4.2995  0.4018  1.2686
  641MOL0     H86485   6.046   8.320   9.556 -2.4590 -0.9967 -1.3107
  641MOL0     H86486   5.937   8.461   9.238 -1.7995 -1.3955 -1.4426
  641MOL0     H86487   5.728   8.404   9.082 -2.8725 -0.3072 -0.1472
  641MOL0     H86488   5.816   8.269   8.995 -1.5021 -1.1789  0.5698
  641MOL0     H86489   5.581   8.211   9.167  2.7609 -0.9940  1.6636
  641MOL0     H86490   5.672   8.088   9.087 -2.5874 -1.3647 -2.4910
  641MOL0     H86491   5.497   8.288   8.960 -0.3077 -0.2017  0.0950
  641MOL0     H86492   5.460   8.111   8.979  0.1138 -0.6348 -1.0362
  641MOL0     H86493   5.529   8.120   8.756  1.2274 -1.0606  0.0824
  641MOL0     H86494   5.679   8.083   8.831  1.5009  1.2190 -0.9749
  641MOL0     H86495   5.796   8.481   8.704 -0.8441  0.3711  0.2219
  641MOL0     H86496   6.007   8.556   8.434 -0.5819 -0.2246 -0.5745
  641MOL0     H86497   5.837   8.623   8.433 -1.3085 -1.5353 -1.4621
  641MOL0     H86498   5.947   8.600   8.580 -1.4711  0.2468 -0.1029
  641MOL0     H86499   6.216   8.507   8.157 -1.3987 -0.6635  0.9553
  641MOL0     H86500   6.291   8.567   7.942  1.6265 -2.7902  3.5668
  641MOL0     H86501   6.338   8.644   7.746  0.9203  1.3620 -1.1658
  641MOL0     H86502   6.283   8.554   7.602 -0.0429 -0.9391  2.0303
  641MOL0     H86503   6.181   8.837   7.652 -1.3561 -0.0263 -0.6589
  641MOL0     H86504   6.336   8.809   7.573 -0.8093  0.1065 -2.3281
  641MOL0     H86505   6.217   8.672   7.404 -0.7586 -0.0424 -1.5147
  641MOL0     H86506   6.139   8.832   7.429 -2.2908 -0.8831  0.0340
  641MOL0     H86507   6.040   8.563   7.502  2.2418  1.4863 -0.0590
  641MOL0     H86508   5.961   8.710   7.572  0.2479  1.1940  0.0151
  641MOL0     H86509   5.991   8.652   7.273  1.9007  2.1095  0.5567
  641MOL0     H86510   5.887   8.775   7.359 -0.7758 -0.9381  0.1265
  641MOL0     H86511   5.727   8.600   7.286 -1.7216 -0.1456  0.5098
  641MOL0     H86512   5.846   8.474   7.360 -2.1940 -0.7004  1.5498
  641MOL0     H86513   5.655   8.646   7.494 -0.2589 -0.9231 -3.9228
  641MOL0     H86514   5.779   8.564   7.580 -2.2650  4.6788  0.3522
  641MOL0     H86515   5.703   8.349   7.458 -2.1872 -4.8243  1.4654
  641MOL0     H86516   5.552   8.422   7.428 -1.9241 -0.7505  1.2302
  641MOL0     H86517   5.894   8.592   7.808  2.0056 -0.0543 -0.6158
  641MOL0     H86518   5.808   8.502   8.028 -0.6710  0.9343 -2.0658
  641MOL0     H86519   5.748   8.134   8.344 -0.6890  0.8577 -0.3800
  641MOL0     H86520   5.643   8.103   8.563 -1.6728  1.4502  4.4438
  641MOL0     H86521   6.833   8.146   9.347  2.0004 -0.9176  2.7068
  641MOL0     H86522   7.007   7.996   9.343 -1.7195  1.1969 -0.3913
  641MOL0     H86523   7.593   8.135   9.482  0.6779 -0.4611  0.4137
  641MOL0     H86524   7.783   7.985   9.500  0.5122 -1.8340  1.1934
  641MOL0     H86525   7.744   7.563   9.323  0.1504 -0.5426 -0.7763
  641MOL0     H86526   7.838   7.699   9.239  0.9395 -1.9393 -1.1988
  641MOL0     H86527   7.942   7.490   9.443  3.5750 -2.2788 -2.2147
  641MOL0     H86528   8.011   7.645   9.420 -1.2198  1.4116  0.5657
  641MOL0     H86529   8.079   7.582   9.177  2.1106 -1.6481 -0.7263
  641MOL0     H86530   7.950   7.467   9.184 -1.1779  1.1921  1.7521
  641MOL0     H86531   8.083   7.312   9.312 -1.7457  0.4122 -0.0975
  641MOL0     H86532   8.177   7.459   9.379 -1.2837  1.3095  0.9232
  641MOL0     H86533   8.359   7.327   9.020 -1.5200 -2.9221  0.4112
  641MOL0     H86534   7.551   7.659   9.328 -1.0277 -0.6743 -1.0941
  641MOL0     H86535   7.369   7.811   9.301 -0.4930  0.5304  0.9522
  642MOL0     O86536   3.361   9.856   0.010  0.4257  0.8988 -0.3508
  642MOL0     C86537   3.268   9.947   0.017 -0.5932 -0.1139 -0.6731
  642MOL0     O86538   3.276  10.058   0.099  0.5665  0.7829  0.0088
  642MOL0     C86539   3.387  10.116   0.157 -0.1437 -0.2367 -0.0349
  642MOL0     C86540   3.381  10.166   0.286  0.2513  0.0377  0.0310
  642MOL0     C86541   3.496  10.186   0.360 -1.2347 -0.5119  0.2346
  642MOL0     C86542   3.612  10.181   0.297  0.4321  0.4158  0.1047
  642MOL0     O86543   3.726  10.195   0.375 -0.1984 -0.2005 -0.0154
  642MOL0     C86544   3.819  10.085   0.369  0.3497 -0.5761  0.4727
  642MOL0     C86545   3.925  10.095   0.482  0.6251 -0.0659 -0.6505
  642MOL0     C86546   3.867  10.060   0.623 -1.0327 -0.2741  0.5865
  642MOL0     C86547   3.950  10.106   0.743  0.7179  0.0244 -1.8170
  642MOL0     C86548   4.095  10.082   0.717 -0.2513 -0.5663  0.1989
  642MOL0     C86549   4.172  10.123   0.845 -0.7536  0.2307  0.5254
  642MOL0     C86550   4.192  10.280   0.841 -0.1811 -1.1602 -0.0589
  642MOL0     C86551   4.293  10.331   0.735  0.4353  0.4150  0.3062
  642MOL0     N86552   4.421  10.258   0.734  0.0432  0.2376 -0.2965
  642MOL0     C86553   4.511  10.239   0.842  0.5575 -0.4844  0.3135
  642MOL0     C86554   4.600  10.142   0.801  1.6331 -0.0849 -0.5417
  642MOL0     C86555   4.703  10.073   0.895  0.6691 -0.6517 -0.2506
  642MOL0     C86556   4.831  10.056   0.815 -0.7041 -0.9387  0.5627
  642MOL0     C86557   4.829   9.915   0.743 -0.1586 -0.2358  0.3921
  642MOL0     C86558   4.977   9.903   0.709 -0.0418 -0.2546 -0.0657
  642MOL0     O86559   5.016   9.785   0.629  0.8125 -0.6613  0.0744
  642MOL0     C86560   5.070   9.809   0.507  0.2732  0.3446  0.5123
  642MOL0     C86561   5.000   9.844   0.391  1.2957 -0.7622  0.4365
  642MOL0     C86562   5.063   9.870   0.269 -0.8738  0.0506 -0.3798
  642MOL0     C86563   4.981   9.911   0.154  0.2737 -0.8370  0.7677
  642MOL0     C86564   5.209   9.860   0.259  0.6029 -0.8875  0.5664
  642MOL0     C86565   5.286   9.877   0.133  0.2466 -0.2251 -0.6859
  642MOL0     O86566   5.423   9.831   0.129  0.4322  0.2154  0.7103
  642MOL0     C86567   5.503   9.854   0.013 -0.5458  0.3201  0.7918
  642MOL0     C86568   5.632   9.896   0.023 -0.4206 -0.3107  0.1499
  642MOL0     C86569   5.711   9.911  -0.091  0.3431 -0.2810  0.0603
  642MOL0     C86570   5.664   9.879  -0.222 -0.5171  0.0156 -0.3064
  642MOL0     O86571   5.745   9.871  -0.330 -0.9843 -0.4952 -1.5301
  642MOL0     C86572   5.879   9.922  -0.337 -0.2754 -0.3330  0.5533
  642MOL0     C86573   5.888  10.075  -0.368  0.0327 -0.4986  0.1117
  642MOL0     C86574   5.886  10.172  -0.245 -0.1522 -0.0682  0.2667
  642MOL0     C86575   5.930  10.307  -0.288 -0.0749 -0.4084 -0.9762
  642MOL0     C86576   5.948  10.402  -0.167  0.6961 -0.9382  0.6871
  642MOL0     C86577   5.821  10.450  -0.099 -0.3947 -0.0565 -0.1571
  642MOL0     C86578   5.717  10.508  -0.196 -0.0353 -0.0634 -0.6361
  642MOL0     C86579   5.677  10.658  -0.172  0.0003 -0.2815 -0.4569
  642MOL0    Cl86580   5.615  10.735  -0.328  0.4844 -0.2402  0.2793
  642MOL0     C86581   5.536   9.832  -0.236  0.3487  0.7221  0.8990
  642MOL0     C86582   5.465   9.823  -0.119 -0.3936  0.4504  0.9823
  642MOL0     O86583   5.230   9.941   0.047 -0.2633 -0.2305  0.6634
  642MOL0     C86584   5.266   9.812   0.378  0.3270 -0.1326  0.3229
  642MOL0     C86585   5.203   9.792   0.505  0.1038  0.1414  0.4975
  642MOL0     N86586   4.569  10.111   0.667  0.0293  0.5217 -0.1275
  642MOL0     N86587   4.464  10.178   0.633  0.1385 -0.0666  0.2651
  642MOL0     C86588   3.622  10.158   0.159  0.3212  0.0457 -0.0803
  642MOL0     C86589   3.507  10.123   0.089  0.8938  0.4932  0.4612
  642MOL0     C86590   3.141   9.919  -0.044  0.6799  0.1581 -0.1738
  642MOL0     C86591   3.023   9.987  -0.005 -0.3467  0.9387 -0.9138
  642MOL0     C86592   2.901   9.968  -0.065  0.3915  0.1303 -0.5289
  642MOL0     C86593   2.893   9.886  -0.177  0.2329  0.3118 -0.1072
  642MOL0     O86594   2.766   9.890  -0.236 -0.2151 -0.5318  0.0261
  642MOL0     C86595   2.735   9.807  -0.352 -0.2191 -0.6289 -0.0871
  642MOL0     C86596   2.772   9.857  -0.485 -0.5568 -0.4025  0.9848
  642MOL0     C86597   2.924   9.855  -0.519 -0.9422  0.6979 -0.5575
  642MOL0     C86598   2.988   9.726  -0.555 -0.1475 -0.3303  0.5799
  642MOL0     C86599   2.985   9.689  -0.703  0.4748 -0.7091  0.8419
  642MOL0     C86600   2.994   9.675  -0.823  0.4756 -0.2391  0.0411
  642MOL0     C86601   3.007   9.802  -0.220 -0.7193 -0.0635 -0.1177
  642MOL0     C86602   3.135   9.831  -0.158 -0.9293 -0.8025 -0.2753
  642MOL0     H86603   3.283  10.189   0.327  0.3555 -1.1328  1.0083
  642MOL0     H86604   3.498  10.226   0.460 -4.2761  1.5808 -0.3955
  642MOL0     H86605   3.772   9.987   0.371  0.8052 -0.8026  0.2318
  642MOL0     H86606   3.866  10.098   0.271 -3.0492  1.8607 -1.0419
  642MOL0     H86607   3.999  10.023   0.446 -2.5831 -2.2418 -3.4727
  642MOL0     H86608   3.959  10.199   0.471 -2.4851  0.8323 -3.6811
  642MOL0     H86609   3.768  10.107   0.634 -1.4822 -1.5271  2.3090
  642MOL0     H86610   3.845   9.953   0.614 -0.0850 -0.5722  1.6368
  642MOL0     H86611   3.936  10.210   0.775  2.3398 -0.4867  0.9059
  642MOL0     H86612   3.927  10.042   0.829 -2.3191  0.4087 -2.2301
  642MOL0     H86613   4.102   9.975   0.694 -5.6939 -1.2004  0.0197
  642MOL0     H86614   4.117  10.142   0.629 -2.8105 -2.0432 -1.5946
  642MOL0     H86615   4.111  10.089   0.929  2.1957  2.5439  3.9507
  642MOL0     H86616   4.268  10.072   0.850  0.3865  2.1782 -0.2809
  642MOL0     H86617   4.099  10.333   0.818 -0.5436  0.0896  3.5912
  642MOL0     H86618   4.234  10.317   0.935  1.7781 -3.9114  0.2840
  642MOL0     H86619   4.311  10.435   0.762  4.8638  0.5548 -2.2233
  642MOL0     H86620   4.242  10.338   0.638  0.6525  0.9957  0.2261
  642MOL0     H86621   4.521  10.291   0.936  1.4480  4.2948 -2.1265
  642MOL0     H86622   4.721  10.118   0.993 -2.6440 -0.9882  0.6561
  642MOL0     H86623   4.661   9.979   0.932  0.0931 -0.7513 -1.1313
  642MOL0     H86624   4.910  10.057   0.890  0.5538  1.1601 -0.7177
  642MOL0     H86625   4.845  10.136   0.741 -1.4564  1.0972  2.5099
  642MOL0     H86626   4.768   9.927   0.653  0.7095 -2.1820 -0.5236
  642MOL0     H86627   4.791   9.830   0.801 -3.5170  0.4400 -0.5642
  642MOL0     H86628   5.026   9.902   0.807 -1.8133 -1.1771  0.8604
  642MOL0     H86629   5.001   9.990   0.648 -1.2416  0.0557 -0.1140
  642MOL0     H86630   4.902   9.882   0.418  0.9396  0.4117 -2.2318
  642MOL0     H86631   4.878   9.893   0.186  0.7468 -1.8427  1.7977
  642MOL0     H86632   5.004  10.016   0.131 -1.9096  0.0918  2.4464
  642MOL0     H86633   4.996   9.858   0.059 -1.6434 -0.8693  0.4479
  642MOL0     H86634   5.676   9.909   0.122 -0.3768 -0.7236  0.1889
  642MOL0     H86635   5.815   9.923  -0.064  0.8067 -2.1258 -0.7523
  642MOL0     H86636   5.930   9.896  -0.244 -0.6482 -1.9708  0.3243
  642MOL0     H86637   5.932   9.876  -0.421 -0.3742  0.1696  0.2100
  642MOL0     H86638   5.983  10.083  -0.422  0.0287 -0.3254  0.1305
  642MOL0     H86639   5.804  10.107  -0.429  1.1400 -3.3651 -3.2948
  642MOL0     H86640   5.953  10.135  -0.167 -0.8778 -2.3644 -0.1019
  642MOL0     H86641   5.779  10.170  -0.222 -0.6563  0.5265 -1.8325
  642MOL0     H86642   6.032  10.297  -0.326 -0.5640 -2.4687 -1.8263
  642MOL0     H86643   5.860  10.343  -0.364  0.1918  3.1170  0.2238
  642MOL0     H86644   6.008  10.488  -0.195 -1.5687  1.3478  2.3564
  642MOL0     H86645   6.007  10.341  -0.098  0.9439 -0.6879  0.6954
  642MOL0     H86646   5.772  10.360  -0.059 -0.0913 -0.9743 -1.7720
  642MOL0     H86647   5.855  10.518  -0.020 -1.3048 -0.4552  0.6103
  642MOL0     H86648   5.622  10.456  -0.184 -0.5269  0.7536 -0.8820
  642MOL0     H86649   5.753  10.488  -0.297  0.7949 -1.2200 -0.1414
  642MOL0     H86650   5.742  10.727  -0.119 -2.9013  0.2976  2.7410
  642MOL0     H86651   5.595  10.643  -0.101 -1.3298  2.2009 -1.3412
  642MOL0     H86652   5.493   9.814  -0.334 -0.4912  3.7570  0.5875
  642MOL0     H86653   5.365   9.782  -0.113 -1.4541  3.0099  2.6413
  642MOL0     H86654   5.374   9.808   0.366  0.1935 -0.3237 -1.0022
  642MOL0     H86655   5.261   9.769   0.594  1.5040 -0.3146 -0.4761
  642MOL0     H86656   3.719  10.154   0.113  0.2206 -0.9077 -0.2292
  642MOL0     H86657   3.517  10.086  -0.013  1.2338 -2.3364  1.4402
  642MOL0     H86658   3.038  10.063   0.071 -1.5090  1.2232 -0.9368
  642MOL0     H86659   2.809  10.014  -0.032  1.2219 -1.1513  4.3631
  642MOL0     H86660   2.783   9.710  -0.339  1.9997  0.3196 -0.6237
  642MOL0     H86661   2.629   9.783  -0.340 -0.2479  0.4172  2.4216
  642MOL0     H86662   2.737   9.959  -0.503 -1.1667 -0.8202 -0.3873
  642MOL0     H86663   2.723   9.788  -0.555 -4.2589  1.4710  1.5147
  642MOL0     H86664   2.970   9.912  -0.438 -0.0721  1.3596 -1.5031
  642MOL0     H86665   2.940   9.925  -0.602  2.2668  1.0768  0.2826
  642MOL0     H86666   2.946   9.650  -0.489 -1.0304 -1.6694 -1.4074
  642MOL0     H86667   3.093   9.749  -0.539 -0.7614  3.9282 -0.3058
  642MOL0     H86668   3.015   9.663  -0.927  0.7474  0.3699  0.0211
  642MOL0     H86669   2.984   9.723  -0.291 -0.6709 -1.7270  1.6291
  642MOL0     H86670   3.231   9.791  -0.187  1.1989  2.9701  0.8617
  643MOL0     O86671   5.768   2.074   6.158  0.3419  0.3205  0.6316
  643MOL0     C86672   5.818   2.030   6.268 -0.3616  0.0950  0.0122
  643MOL0     O86673   5.929   2.078   6.326 -0.7828  0.7031  0.0627
  643MOL0     C86674   6.021   2.161   6.273  0.7526 -0.2110 -0.9584
  643MOL0     C86675   6.114   2.205   6.366  0.2716 -1.0885  0.0192
  643MOL0     C86676   6.227   2.285   6.315  0.2390  0.6773 -0.8614
  643MOL0     C86677   6.246   2.322   6.181 -0.3939  0.1328 -0.0556
  643MOL0     O86678   6.352   2.392   6.140 -0.4678 -0.4705 -0.0122
  643MOL0     C86679   6.310   2.505   6.059  0.2919  0.0472 -0.4487
  643MOL0     C86680   6.430   2.594   6.032 -0.3914  0.5772  0.3520
  643MOL0     C86681   6.388   2.727   5.960 -0.5928 -0.5026  0.5618
  643MOL0     C86682   6.509   2.817   5.937 -0.9359 -0.3892  0.2666
  643MOL0     C86683   6.471   2.955   5.881 -0.0791  0.5404 -0.1740
  643MOL0     C86684   6.596   3.031   5.845 -0.2603 -0.0495 -0.0129
  643MOL0     C86685   6.577   3.179   5.802 -1.3140 -0.2909 -1.2838
  643MOL0     C86686   6.723   3.219   5.751  0.4134  0.0670  0.6181
  643MOL0     N86687   6.727   3.359   5.726  0.5200 -0.3692  0.0989
  643MOL0     C86688   6.743   3.470   5.808 -0.1309  0.0539  1.1435
  643MOL0     C86689   6.743   3.581   5.723  0.3692 -0.2757 -0.6223
  643MOL0     C86690   6.784   3.715   5.774  0.2631 -0.4382 -1.0596
  643MOL0     C86691   6.685   3.771   5.872  0.3509 -0.9260 -0.1997
  643MOL0     C86692   6.536   3.742   5.844  0.5426  0.9190  0.9020
  643MOL0     C86693   6.488   3.804   5.706 -0.6392 -0.2620 -0.0825
  643MOL0     O86694   6.497   3.935   5.729  0.1914  0.1204  0.7930
  643MOL0     C86695   6.414   4.003   5.653  0.7483  0.1423  0.9444
  643MOL0     C86696   6.348   4.118   5.713  1.1008  0.7496  0.8444
  643MOL0     C86697   6.263   4.192   5.635  0.6913  0.3579 -0.1238
  643MOL0     C86698   6.197   4.300   5.709  0.4292 -0.4171 -0.2510
  643MOL0     C86699   6.238   4.171   5.497 -0.2328 -0.4148 -1.8409
  643MOL0     C86700   6.140   4.247   5.417  0.9487  0.3723 -0.0629
  643MOL0     O86701   6.018   4.262   5.481  1.0035  0.5800 -0.2338
  643MOL0     C86702   5.922   4.338   5.414  0.9583  0.5546  0.3863
  643MOL0     C86703   5.939   4.470   5.396  0.2270  0.5997  0.5019
  643MOL0     C86704   5.832   4.546   5.350  0.2683 -0.5625  0.9223
  643MOL0     C86705   5.720   4.485   5.296 -0.1762  0.1330 -0.5251
  643MOL0     O86706   5.619   4.550   5.243 -0.8751  0.0405 -0.3658
  643MOL0     C86707   5.647   4.672   5.182  1.0570  0.3065 -0.3248
  643MOL0     C86708   5.536   4.713   5.086  0.0145 -0.1179 -0.4593
  643MOL0     C86709   5.400   4.735   5.161 -0.5246 -1.3967 -0.4722
  643MOL0     C86710   5.290   4.783   5.075 -0.4150  0.8346 -0.1814
  643MOL0     C86711   5.164   4.818   5.159  0.3032 -1.1846  0.3924
  643MOL0     C86712   5.044   4.882   5.083  0.2728 -0.4741 -0.7631
  643MOL0     C86713   4.923   4.897   5.175  0.5129  0.1530 -0.0189
  643MOL0     C86714   4.805   4.976   5.102  0.4965  0.0045 -0.3083
  643MOL0    Cl86715   4.847   5.141   5.052  0.0039  0.1217 -0.0419
  643MOL0     C86716   5.694   4.354   5.321  0.1304 -0.5876  0.4829
  643MOL0     C86717   5.796   4.273   5.377  0.2956 -1.1549 -0.7085
  643MOL0     O86718   6.175   4.282   5.306 -0.3073 -0.6161  0.8209
  643MOL0     C86719   6.309   4.067   5.432 -0.9205 -1.2313 -0.2032
  643MOL0     C86720   6.386   3.985   5.512  0.0128  0.5814 -1.2694
  643MOL0     N86721   6.723   3.536   5.598  0.0728 -0.3203  0.4733
  643MOL0     N86722   6.710   3.411   5.602 -0.0813  0.5557 -0.1206
  643MOL0     C86723   6.135   2.282   6.100 -1.1081 -0.3421 -0.2737
  643MOL0     C86724   6.030   2.199   6.143 -0.2688 -0.2040  0.1358
  643MOL0     C86725   5.745   1.925   6.335 -0.1243 -0.7242 -0.5503
  643MOL0     C86726   5.806   1.872   6.454 -0.5917  0.9827  0.0353
  643MOL0     C86727   5.744   1.773   6.524  0.5946  0.0750  0.3970
  643MOL0     C86728   5.620   1.721   6.482  0.3416  0.0945 -0.6676
  643MOL0     O86729   5.575   1.606   6.540 -0.2065  0.2723 -0.3332
  643MOL0     C86730   5.434   1.552   6.530  0.0113 -0.5544  0.7645
  643MOL0     C86731   5.349   1.575   6.653 -0.4484  0.1857  0.1300
  643MOL0     C86732   5.288   1.715   6.644  0.8482  0.2298  0.6019
  643MOL0     C86733   5.165   1.725   6.730  0.0332 -0.9321  0.2506
  643MOL0     C86734   5.035   1.671   6.666 -1.0538 -0.7908 -0.0901
  643MOL0     C86735   4.932   1.623   6.630  1.3934  0.0450 -0.0504
  643MOL0     C86736   5.551   1.781   6.376 -0.0942 -0.0277 -0.0256
  643MOL0     C86737   5.617   1.884   6.304  0.5644  1.5893 -0.7161
  643MOL0     H86738   6.112   2.171   6.469  0.3577  1.4671  0.9360
  643MOL0     H86739   6.301   2.308   6.391 -1.1156 -0.8832  1.0193
  643MOL0     H86740   6.258   2.465   5.971  1.0328 -2.3523  0.1268
  643MOL0     H86741   6.237   2.557   6.121 -1.9996 -2.8755 -0.5111
  643MOL0     H86742   6.470   2.623   6.129 -0.3262 -0.1703  0.5568
  643MOL0     H86743   6.512   2.538   5.988 -2.4395 -3.5196  1.1824
  643MOL0     H86744   6.360   2.701   5.858 -0.9465  1.9881 -0.0518
  643MOL0     H86745   6.304   2.770   6.015 -1.6114  0.4938 -1.6589
  643MOL0     H86746   6.562   2.826   6.032 -0.2045  1.1203 -0.2549
  643MOL0     H86747   6.578   2.773   5.863  1.0176  4.3781 -1.1361
  643MOL0     H86748   6.418   2.937   5.787 -1.3658 -1.0595  0.8124
  643MOL0     H86749   6.408   3.007   5.953  1.1750 -0.9910  2.1564
  643MOL0     H86750   6.666   3.029   5.930  2.9129 -0.2162 -2.4300
  643MOL0     H86751   6.649   2.977   5.766 -0.6209  2.2724 -1.9302
  643MOL0     H86752   6.512   3.173   5.715  1.4587 -4.6511 -3.4060
  643MOL0     H86753   6.552   3.243   5.887  0.6276 -1.2665  0.0849
  643MOL0     H86754   6.748   3.176   5.653 -0.7217  2.3672 -0.7641
  643MOL0     H86755   6.794   3.183   5.826  1.2183  1.4830  0.5726
  643MOL0     H86756   6.752   3.465   5.916 -2.5967 -1.7043  1.3623
  643MOL0     H86757   6.882   3.701   5.820 -0.2612  0.1172  0.2542
  643MOL0     H86758   6.780   3.775   5.682  0.0653 -1.3224 -1.6443
  643MOL0     H86759   6.698   3.880   5.869  2.9547 -1.2021 -1.5382
  643MOL0     H86760   6.713   3.740   5.973 -0.6932 -0.0163  0.3901
  643MOL0     H86761   6.487   3.789   5.930  1.3141  0.7715  1.4369
  643MOL0     H86762   6.513   3.635   5.837  0.5470  0.9927 -0.3606
  643MOL0     H86763   6.381   3.784   5.698 -1.6838  4.2576 -0.0130
  643MOL0     H86764   6.542   3.770   5.617  0.5016  0.7095  0.2016
  643MOL0     H86765   6.357   4.140   5.819  1.4596  0.5338  0.8617
  643MOL0     H86766   6.231   4.398   5.675 -1.7032  0.2519 -0.5792
  643MOL0     H86767   6.088   4.305   5.712  0.2281 -0.7050 -3.5657
  643MOL0     H86768   6.235   4.308   5.811 -2.1795  0.0194  0.7463
  643MOL0     H86769   6.034   4.500   5.439  0.5552  0.0453  0.1783
  643MOL0     H86770   5.851   4.652   5.359  2.4496 -0.9849  2.1146
  643MOL0     H86771   5.657   4.750   5.258  1.7840 -1.9340  2.0098
  643MOL0     H86772   5.741   4.673   5.127  1.0468  1.8126 -0.3581
  643MOL0     H86773   5.566   4.806   5.037 -0.8319  0.4035 -0.0214
  643MOL0     H86774   5.527   4.637   5.008  0.3580 -1.4017  0.7211
  643MOL0     H86775   5.424   4.812   5.235  1.1572 -2.6248  0.3340
  643MOL0     H86776   5.383   4.640   5.212 -2.5637  0.3313  2.3845
  643MOL0     H86777   5.318   4.864   5.008  0.3049  0.6335 -0.1267
  643MOL0     H86778   5.259   4.698   5.013 -1.5754 -1.1197  2.8486
  643MOL0     H86779   5.190   4.892   5.235 -1.8589 -0.2347  0.2794
  643MOL0     H86780   5.121   4.730   5.209 -4.3941 -0.4167 -1.7550
  643MOL0     H86781   5.068   4.981   5.043  2.1511  0.8593  3.1688
  643MOL0     H86782   5.023   4.817   4.998  1.7613 -0.5697 -1.0814
  643MOL0     H86783   4.943   4.932   5.277 -0.9385  0.9766  0.0140
  643MOL0     H86784   4.881   4.796   5.187 -3.8716  1.8212  0.4279
  643MOL0     H86785   4.719   4.973   5.169  2.4519 -3.0548  2.3738
  643MOL0     H86786   4.793   4.930   5.003  0.7108 -4.4828  1.4995
  643MOL0     H86787   5.598   4.320   5.284 -0.0431 -1.2514  1.4954
  643MOL0     H86788   5.765   4.176   5.413  0.7638 -0.4280  1.8700
  643MOL0     H86789   6.287   4.032   5.332 -6.3325 -0.9329  0.5515
  643MOL0     H86790   6.430   3.905   5.453 -1.4291 -0.1655 -1.3718
  643MOL0     H86791   6.126   2.315   5.997 -0.8305  0.6877  0.0171
  643MOL0     H86792   5.957   2.182   6.064  1.9171  0.5993 -2.1755
  643MOL0     H86793   5.899   1.914   6.490 -0.1153  1.4292 -1.6402
  643MOL0     H86794   5.787   1.726   6.611  0.7020 -3.2968 -1.3457
  643MOL0     H86795   5.381   1.587   6.442 -0.6029 -1.3445  0.8087
  643MOL0     H86796   5.448   1.447   6.504  4.3959 -0.0013  0.0177
  643MOL0     H86797   5.407   1.563   6.745  0.1405  0.4290 -0.2010
  643MOL0     H86798   5.276   1.494   6.643  0.1305 -0.3575  0.2449
  643MOL0     H86799   5.243   1.722   6.544  0.5184 -1.0029  0.6432
  643MOL0     H86800   5.358   1.797   6.659  1.0736  0.1727 -0.0914
  643MOL0     H86801   5.138   1.828   6.758 -0.3076 -0.4917 -1.5613
  643MOL0     H86802   5.172   1.662   6.819  0.6019  1.9252  2.3617
  643MOL0     H86803   4.844   1.579   6.586  1.5901  2.2943 -2.9903
  643MOL0     H86804   5.452   1.754   6.342  0.0671 -1.7298  0.7882
  643MOL0     H86805   5.565   1.932   6.222 -3.6907  1.8326  1.8514
  644MOL0     O86806   0.533   0.910   5.761  0.2003  0.8218 -0.8249
  644MOL0     C86807   0.470   0.980   5.834 -0.1166 -0.0881 -0.3659
  644MOL0     O86808   0.466   1.113   5.827 -1.2272  0.2155  0.3965
  644MOL0     C86809   0.569   1.182   5.762 -0.2670  0.5957  0.4773
  644MOL0     C86810   0.533   1.304   5.714 -0.0315 -0.4140  0.3744
  644MOL0     C86811   0.627   1.382   5.646 -0.1641  0.1933  0.4650
  644MOL0     C86812   0.763   1.346   5.628  1.0017  0.8765 -0.2862
  644MOL0     O86813   0.849   1.427   5.567 -0.7069  0.1001 -0.3574
  644MOL0     C86814   0.852   1.401   5.417  0.0538 -0.5608 -0.4686
  644MOL0     C86815   0.994   1.369   5.365 -0.6312  0.4929 -0.1398
  644MOL0     C86816   1.092   1.480   5.382 -0.2593 -0.1423  0.8951
  644MOL0     C86817   1.159   1.492   5.517 -0.1051 -0.4325 -0.2871
  644MOL0     C86818   1.215   1.635   5.515  0.3286  0.1215  0.3850
  644MOL0     C86819   1.314   1.658   5.629  0.9106  0.0969  0.5697
  644MOL0     C86820   1.455   1.633   5.593  1.1992 -0.2047  0.0176
  644MOL0     C86821   1.537   1.703   5.702 -1.2580  0.3389  0.3951
  644MOL0     N86822   1.541   1.861   5.709 -0.0334  0.4129 -0.2302
  644MOL0     C86823   1.606   1.935   5.616  1.7556  0.3773  0.8939
  644MOL0     C86824   1.591   2.065   5.655 -0.1800  0.2298 -0.0193
  644MOL0     C86825   1.659   2.194   5.600 -0.1593  0.6006  0.8777
  644MOL0     C86826   1.775   2.241   5.684  0.3096 -0.4678 -0.9235
  644MOL0     C86827   1.889   2.135   5.695  0.3685  0.4382 -0.5430
  644MOL0     C86828   1.871   2.069   5.834  0.0766 -0.6171 -0.2617
  644MOL0     O86829   1.991   1.998   5.887  0.5105  0.0614  0.4742
  644MOL0     C86830   1.976   1.865   5.846 -0.9880  0.6416 -1.3858
  644MOL0     C86831   1.891   1.770   5.911  0.2182  0.1813  0.4916
  644MOL0     C86832   1.895   1.638   5.869 -0.7117  0.8483 -0.6828
  644MOL0     C86833   1.808   1.540   5.940 -0.2465  0.4366 -0.3827
  644MOL0     C86834   1.968   1.595   5.755  1.1438 -0.3166 -0.8478
  644MOL0     C86835   1.975   1.456   5.695  0.2756  0.6016 -1.0800
  644MOL0     O86836   2.082   1.424   5.615 -0.2312 -0.1064 -0.5484
  644MOL0     C86837   2.102   1.286   5.581 -0.1483 -0.3506  0.4138
  644MOL0     C86838   2.110   1.247   5.445  0.3984 -0.8101  0.0040
  644MOL0     C86839   2.114   1.117   5.418  0.0728 -0.4116  0.0445
  644MOL0     C86840   2.099   1.021   5.516 -0.0733  1.2120 -0.2659
  644MOL0     O86841   2.080   0.890   5.488  0.3059 -0.2898  0.5812
  644MOL0     C86842   2.145   0.787   5.557 -0.5556 -0.8498 -0.5197
  644MOL0     C86843   2.109   0.662   5.479  0.3186  0.0277  0.7033
  644MOL0     C86844   2.222   0.558   5.469  0.9940 -0.4484 -0.1177
  644MOL0     C86845   2.336   0.551   5.582 -0.2036 -0.1792  0.1504
  644MOL0     C86846   2.432   0.434   5.570  0.0523 -0.3976  0.0835
  644MOL0     C86847   2.457   0.345   5.701  0.0248  0.0610 -0.9109
  644MOL0     C86848   2.545   0.421   5.799 -0.4705  1.2249 -0.5471
  644MOL0     C86849   2.614   0.306   5.893 -0.1836  0.5192  0.5153
  644MOL0    Cl86850   2.493   0.264   6.023 -0.5158  0.2587 -0.3756
  644MOL0     C86851   2.115   1.061   5.650  0.1599  0.4429 -0.8753
  644MOL0     C86852   2.113   1.190   5.677 -0.4668  0.0687  0.5803
  644MOL0     O86853   1.877   1.382   5.710 -0.1386 -0.1036 -0.4575
  644MOL0     C86854   2.048   1.695   5.700  0.5847 -0.3648  0.4180
  644MOL0     C86855   2.054   1.823   5.745  0.5127  0.1963  0.2674
  644MOL0     N86856   1.518   2.064   5.773  1.1736  0.1166 -0.0605
  644MOL0     N86857   1.492   1.939   5.807 -0.3581 -1.0518  0.2158
  644MOL0     C86858   0.796   1.220   5.675  0.2353  0.5300 -0.7395
  644MOL0     C86859   0.705   1.141   5.745  0.7790 -0.1609  0.2200
  644MOL0     C86860   0.366   0.913   5.929  0.7062  0.3231 -1.0781
  644MOL0     C86861   0.296   0.975   6.040 -1.1040  0.3537  0.1566
  644MOL0     C86862   0.223   0.899   6.126 -0.2842 -0.2771 -0.1335
  644MOL0     C86863   0.196   0.762   6.102 -0.0282  0.4200 -0.0490
  644MOL0     O86864   0.112   0.685   6.172  0.6490  0.1782  0.5228
  644MOL0     C86865   0.111   0.697   6.317  0.2365 -0.2405  0.6843
  644MOL0     C86866  -0.027   0.737   6.368  0.5388 -0.2455  0.8838
  644MOL0     C86867  -0.124   0.625   6.331 -0.0328 -0.2218 -0.3378
  644MOL0     C86868  -0.209   0.653   6.204  0.1276 -0.4171 -0.4315
  644MOL0     C86869  -0.317   0.558   6.183  0.5691 -0.4044 -1.4309
  644MOL0     C86870  -0.408   0.475   6.172 -0.9689  1.2155 -0.4259
  644MOL0     C86871   0.255   0.702   5.982  0.2238  0.1389  0.0999
  644MOL0     C86872   0.340   0.780   5.900  0.3541 -0.1906 -0.3442
  644MOL0     H86873   0.432   1.345   5.716  1.1419  2.8971 -1.0290
  644MOL0     H86874   0.589   1.475   5.606 -3.1547 -1.1257 -0.0943
  644MOL0     H86875   0.793   1.315   5.384  0.0816 -1.0479  0.7031
  644MOL0     H86876   0.798   1.487   5.377 -0.2789  0.7153  2.4214
  644MOL0     H86877   1.036   1.279   5.412  0.6602  1.5741  0.8326
  644MOL0     H86878   0.987   1.333   5.262 -2.3918  1.1542 -0.2812
  644MOL0     H86879   1.175   1.468   5.312 -1.0168  1.3539 -0.3034
  644MOL0     H86880   1.057   1.581   5.362  2.2319  0.2470 -2.2218
  644MOL0     H86881   1.075   1.489   5.587 -1.2763 -0.4379 -1.6563
  644MOL0     H86882   1.224   1.406   5.537 -1.3567 -1.6459 -1.2934
  644MOL0     H86883   1.266   1.652   5.420  3.4944  0.2004  1.9774
  644MOL0     H86884   1.133   1.707   5.524  0.2196  0.2815 -1.4389
  644MOL0     H86885   1.299   1.765   5.645  4.9008  0.7443  1.0990
  644MOL0     H86886   1.277   1.609   5.719 -2.4307 -0.0887 -0.7712
  644MOL0     H86887   1.465   1.525   5.580  0.0714 -0.4819  1.1180
  644MOL0     H86888   1.489   1.678   5.500 -0.0901  0.6082 -0.0825
  644MOL0     H86889   1.636   1.666   5.676 -1.1509  1.9880 -1.8771
  644MOL0     H86890   1.519   1.666   5.803 -1.2647  3.6454  1.7379
  644MOL0     H86891   1.649   1.888   5.528 -0.5384  1.3121 -0.7979
  644MOL0     H86892   1.697   2.156   5.505 -1.0785  1.6286  0.0710
  644MOL0     H86893   1.594   2.277   5.572 -3.2911 -1.3230  2.0406
  644MOL0     H86894   1.733   2.283   5.776 -1.2973  0.2603 -1.9381
  644MOL0     H86895   1.817   2.326   5.630 -0.5274 -0.4099 -1.5090
  644MOL0     H86896   1.988   2.181   5.692  0.4902  0.2960  0.8756
  644MOL0     H86897   1.883   2.047   5.629 -0.2388  2.5734 -3.5730
  644MOL0     H86898   1.782   2.007   5.844 -0.0004 -0.2363  1.9144
  644MOL0     H86899   1.866   2.153   5.903 -1.7281 -1.3074  0.4955
  644MOL0     H86900   1.831   1.821   5.985  0.3847  0.7340  0.2520
  644MOL0     H86901   1.735   1.494   5.874  1.0569 -2.6923  0.1757
  644MOL0     H86902   1.856   1.461   5.999  1.3967  1.7201  0.0943
  644MOL0     H86903   1.750   1.604   6.007 -0.0091  1.3552 -1.0396
  644MOL0     H86904   2.103   1.321   5.366 -0.3309 -1.1718 -0.2739
  644MOL0     H86905   2.108   1.084   5.315 -1.8358 -0.6372  0.1816
  644MOL0     H86906   2.252   0.807   5.563 -0.6758 -0.0247 -0.8789
  644MOL0     H86907   2.104   0.774   5.658  1.6215 -0.3139  0.4899
  644MOL0     H86908   2.021   0.617   5.526  0.9187 -0.6061  1.2336
  644MOL0     H86909   2.076   0.677   5.376  3.4500  0.5017 -0.3568
  644MOL0     H86910   2.258   0.581   5.368 -3.6830  3.6947 -1.2796
  644MOL0     H86911   2.177   0.458   5.475  2.0927 -0.8725  2.0592
  644MOL0     H86912   2.402   0.639   5.576  0.5436 -0.7060  0.4639
  644MOL0     H86913   2.277   0.548   5.674 -0.6324  3.8551  0.2092
  644MOL0     H86914   2.522   0.473   5.522 -1.3157  2.6424 -0.2528
  644MOL0     H86915   2.391   0.363   5.497  2.7057 -3.1659  1.0725
  644MOL0     H86916   2.359   0.319   5.741 -0.1347  0.6388 -0.9168
  644MOL0     H86917   2.492   0.248   5.665  2.0065 -0.2038  1.4711
  644MOL0     H86918   2.496   0.504   5.850  1.7199  2.4731 -0.3429
  644MOL0     H86919   2.624   0.458   5.734 -0.0613 -1.1898 -1.5211
  644MOL0     H86920   2.710   0.335   5.938  0.2291 -0.9473  0.6283
  644MOL0     H86921   2.644   0.211   5.850  2.3671 -0.5265  4.1500
  644MOL0     H86922   2.106   0.992   5.733 -1.6937  1.3420 -0.2694
  644MOL0     H86923   2.111   1.217   5.782  1.1009 -4.4324  2.0078
  644MOL0     H86924   2.118   1.661   5.624 -1.1897 -2.2420 -0.4915
  644MOL0     H86925   2.119   1.893   5.693  0.0216 -0.0526 -0.7155
  644MOL0     H86926   0.900   1.202   5.649  0.5571  1.1366  0.0745
  644MOL0     H86927   0.733   1.040   5.773 -1.8347 -0.5078  1.9320
  644MOL0     H86928   0.309   1.082   6.047  0.1184  0.0955  3.3540
  644MOL0     H86929   0.186   0.953   6.213  3.2057  2.3668 -0.1025
  644MOL0     H86930   0.137   0.595   6.348  2.4997 -0.1485 -0.6886
  644MOL0     H86931   0.188   0.759   6.362  2.1922 -3.0490  1.5038
  644MOL0     H86932  -0.071   0.830   6.330 -1.4689 -3.0133 -4.7180
  644MOL0     H86933  -0.012   0.753   6.475  1.4491  3.3081  0.3700
  644MOL0     H86934  -0.182   0.620   6.424  0.6502  0.8947  0.1720
  644MOL0     H86935  -0.078   0.526   6.330  0.2587 -0.0881 -0.2099
  644MOL0     H86936  -0.146   0.659   6.115 -1.1819  2.3028 -1.2764
  644MOL0     H86937  -0.255   0.752   6.209 -2.9743 -1.6673 -1.8126
  644MOL0     H86938  -0.473   0.396   6.140  1.8308 -1.9440  1.0739
  644MOL0     H86939   0.230   0.597   5.964  2.6937 -1.0416  2.8193
  644MOL0     H86940   0.386   0.740   5.810  2.0803  5.1401 -2.1815
  645MOL0     O86941  10.481   6.498  10.771 -0.0838 -0.2003 -0.2389
  645MOL0     C86942  10.546   6.402  10.738 -0.8903  0.8892 -0.2601
  645MOL0     O86943  10.499   6.269  10.740 -0.0129 -0.2939  1.3591
  645MOL0     C86944  10.364   6.240  10.747  0.5562  0.2363  0.1523
  645MOL0     C86945  10.256   6.332  10.732 -0.0122  0.8070 -0.5955
  645MOL0     C86946  10.124   6.294  10.752  0.3296 -1.5178 -0.5603
  645MOL0     C86947  10.098   6.165  10.804  1.1818  0.2840 -0.3507
  645MOL0     O86948   9.978   6.126  10.858  0.5943 -0.4077 -0.4668
  645MOL0     C86949   9.957   6.180  10.986 -0.0606 -0.3596  0.3990
  645MOL0     C86950   9.806   6.199  11.007 -0.6641  0.8742  0.3669
  645MOL0     C86951   9.757   6.253  11.136  0.7287 -0.1599  0.7817
  645MOL0     C86952   9.756   6.149  11.243  0.1616  0.4310 -0.2854
  645MOL0     C86953   9.762   6.201  11.388 -0.1407 -0.8117  0.2532
  645MOL0     C86954   9.766   6.104  11.500 -0.1310  1.0273  0.3754
  645MOL0     C86955   9.763   6.163  11.645 -0.6886  1.1088 -0.4656
  645MOL0     C86956   9.774   6.048  11.750  0.3692  0.4328  0.1737
  645MOL0     N86957   9.899   5.971  11.741 -0.9354  0.4981  0.0366
  645MOL0     C86958   9.941   5.857  11.803 -0.7306 -0.3150  0.2795
  645MOL0     C86959  10.072   5.849  11.789  0.5071  0.1176  0.9862
  645MOL0     C86960  10.166   5.738  11.829 -0.1916  0.1130  1.1496
  645MOL0     C86961  10.222   5.774  11.967 -0.6052  0.1221  0.4744
  645MOL0     C86962  10.302   5.653  12.013  0.3601  0.2814  0.8357
  645MOL0     C86963  10.392   5.656  12.136 -1.0258  0.4753  0.3929
  645MOL0     O86964  10.321   5.723  12.243  0.2250 -0.5228  0.3488
  645MOL0     C86965  10.208   5.666  12.296 -0.2355 -1.6415  0.2066
  645MOL0     C86966  10.180   5.531  12.314 -0.1343  0.7630 -0.2657
  645MOL0     C86967  10.066   5.487  12.388  0.4318 -0.2937 -0.0706
  645MOL0     C86968  10.050   5.341  12.380 -0.3557  0.6343 -0.7078
  645MOL0     C86969   9.982   5.580  12.457  0.2443  0.4484 -0.0495
  645MOL0     C86970   9.851   5.542  12.511 -0.2969 -0.0297 -0.2758
  645MOL0     O86971   9.756   5.644  12.507  0.4720  0.0978 -0.6570
  645MOL0     C86972   9.641   5.633  12.576 -0.2570 -0.3740  0.3196
  645MOL0     C86973   9.517   5.674  12.525  0.0643 -1.3884 -0.4445
  645MOL0     C86974   9.406   5.674  12.612  0.6207 -0.1004  0.1398
  645MOL0     C86975   9.407   5.627  12.745  0.3524  0.7657 -0.0027
  645MOL0     O86976   9.300   5.613  12.830  0.3510 -0.1247 -0.6481
  645MOL0     C86977   9.165   5.671  12.799 -1.2254  0.3660  1.0484
  645MOL0     C86978   9.063   5.659  12.906 -0.4323 -0.2911  0.7212
  645MOL0     C86979   8.970   5.541  12.897 -0.2002 -0.0198 -0.0111
  645MOL0     C86980   8.887   5.539  12.764 -0.0560 -0.3552 -0.2248
  645MOL0     C86981   8.773   5.434  12.771 -0.8731  0.6620 -0.5214
  645MOL0     C86982   8.664   5.463  12.661 -0.3699 -0.7843  0.2366
  645MOL0     C86983   8.593   5.329  12.634 -0.4759 -0.0495  0.5558
  645MOL0     C86984   8.497   5.322  12.517  0.3927 -0.2684 -0.6511
  645MOL0    Cl86985   8.603   5.334  12.375 -0.2718  0.5500 -0.1535
  645MOL0     C86986   9.525   5.590  12.795  1.1155 -0.9457  0.4652
  645MOL0     C86987   9.637   5.591  12.712 -0.3632  0.1591  0.9602
  645MOL0     O86988   9.828   5.438  12.567 -0.1304  0.0923 -0.0387
  645MOL0     C86989  10.024   5.718  12.454  0.1324 -0.0131  0.6457
  645MOL0     C86990  10.134   5.758  12.368  1.2632 -1.1537 -0.0460
  645MOL0     N86991  10.119   5.947  11.703 -0.1498  0.2002  0.4045
  645MOL0     N86992  10.008   6.010  11.667  0.5444 -0.2201 -0.2424
  645MOL0     C86993  10.200   6.070  10.820  0.9066  0.6760 -0.2427
  645MOL0     C86994  10.332   6.108  10.779  0.3783 -0.0635  0.0475
  645MOL0     C86995  10.687   6.426  10.705 -1.1468  0.2430  0.4626
  645MOL0     C86996  10.770   6.327  10.659 -0.2287  0.1961  0.7218
  645MOL0     C86997  10.907   6.358  10.634 -0.7166 -0.0254 -0.9789
  645MOL0     C86998  10.963   6.479  10.652  0.1975 -0.2220  0.2939
  645MOL0     O86999  11.100   6.491  10.625  0.5436 -1.3553  0.3178
  645MOL0     C87000  11.149   6.628  10.621  0.7412 -0.1733  0.4073
  645MOL0     C87001  11.283   6.630  10.556  0.6196  0.7771  0.9543
  645MOL0     C87002  11.386   6.595  10.652 -1.1127 -0.8633  0.0267
  645MOL0     C87003  11.530   6.579  10.584  0.1857 -0.3732  0.3255
  645MOL0     C87004  11.537   6.509  10.455  0.9596 -0.3531 -0.3101
  645MOL0     C87005  11.550   6.447  10.354 -0.8155 -0.0021  0.0805
  645MOL0     C87006  10.878   6.579  10.694  0.5385  0.1324 -0.1946
  645MOL0     C87007  10.741   6.555  10.709  0.3507 -0.0130 -0.2720
  645MOL0     H87008  10.273   6.433  10.697 -1.3983  1.7268  1.1849
  645MOL0     H87009  10.049   6.371  10.738 -1.4722 -3.3737 -1.7603
  645MOL0     H87010   9.995   6.105  11.055 -0.5678 -1.3018 -0.3314
  645MOL0     H87011  10.001   6.279  11.005  1.8130 -0.9219 -0.7550
  645MOL0     H87012   9.765   6.264  10.929 -1.9491 -1.7751 -1.3137
  645MOL0     H87013   9.754   6.103  10.996 -0.1823  0.7648 -1.1367
  645MOL0     H87014   9.831   6.319  11.181  1.8203 -0.6109 -0.2928
  645MOL0     H87015   9.659   6.300  11.126  0.4678 -0.7302  0.5653
  645MOL0     H87016   9.667   6.090  11.220  2.4552 -2.4887 -2.5910
  645MOL0     H87017   9.844   6.086  11.225 -0.3946 -2.0404  4.1835
  645MOL0     H87018   9.857   6.251  11.408  0.9684 -2.9505  0.6586
  645MOL0     H87019   9.679   6.271  11.403  0.8187  0.2559  0.8131
  645MOL0     H87020   9.684   6.034  11.480  1.5958 -0.1631 -3.6112
  645MOL0     H87021   9.858   6.047  11.482 -0.8407  0.0615 -0.2867
  645MOL0     H87022   9.855   6.221  11.660  1.4067 -2.2388  0.8796
  645MOL0     H87023   9.675   6.223  11.669 -0.7539  0.3072  1.5068
  645MOL0     H87024   9.692   5.975  11.753  2.8005 -2.6955 -2.5280
  645MOL0     H87025   9.784   6.094  11.849  2.3145 -1.0285  0.7160
  645MOL0     H87026   9.883   5.797  11.873  0.9424  0.4621  2.4258
  645MOL0     H87027  10.101   5.650  11.833  0.6919 -0.6891 -0.7646
  645MOL0     H87028  10.252   5.719  11.764  0.3959 -1.4154  2.2903
  645MOL0     H87029  10.137   5.793  12.033 -1.2398  1.1036 -0.5880
  645MOL0     H87030  10.296   5.854  11.972  2.0684 -2.1788  0.3550
  645MOL0     H87031  10.364   5.616  11.932  0.7242  0.3022  1.1026
  645MOL0     H87032  10.230   5.571  12.018 -1.4526  1.6513 -1.0856
  645MOL0     H87033  10.476   5.723  12.114  0.5976 -1.0974  1.5462
  645MOL0     H87034  10.446   5.564  12.160 -1.6893  0.1292  0.5788
  645MOL0     H87035  10.246   5.450  12.284 -1.8263 -1.7980  2.4058
  645MOL0     H87036   9.971   5.303  12.446 -1.2889  0.7990 -1.6919
  645MOL0     H87037  10.011   5.316  12.280 -0.6804 -0.4273 -0.3273
  645MOL0     H87038  10.143   5.291  12.410 -1.7344 -0.7975  1.4237
  645MOL0     H87039   9.494   5.717  12.428  0.3371  1.5938  0.7237
  645MOL0     H87040   9.311   5.705  12.571  1.7640  3.2660 -0.2288
  645MOL0     H87041   9.181   5.778  12.783 -0.0118  0.3031  1.7592
  645MOL0     H87042   9.125   5.632  12.705  1.6316  0.5495 -0.3579
  645MOL0     H87043   9.109   5.671  13.005  1.3647 -2.1029  0.1749
  645MOL0     H87044   8.995   5.745  12.901 -1.0491 -0.7795  0.6168
  645MOL0     H87045   8.894   5.544  12.976  0.9820 -1.1634  1.2111
  645MOL0     H87046   9.022   5.448  12.919  0.5666  0.5016  0.4244
  645MOL0     H87047   8.850   5.639  12.740  2.2995  0.0882 -2.6034
  645MOL0     H87048   8.952   5.515  12.679  2.1679 -0.6989  1.5011
  645MOL0     H87049   8.729   5.433  12.871  0.7057  0.7691  0.2104
  645MOL0     H87050   8.831   5.342  12.755  1.5976  1.4985  2.4842
  645MOL0     H87051   8.597   5.541  12.699  1.3989  1.0016 -0.1250
  645MOL0     H87052   8.712   5.491  12.567 -1.4605 -1.3862 -0.5246
  645MOL0     H87053   8.529   5.310  12.721  2.5296 -2.4292  2.4326
  645MOL0     H87054   8.667   5.249  12.622 -2.0166 -1.3506 -0.6182
  645MOL0     H87055   8.437   5.413  12.528 -0.2671 -0.8878  1.2052
  645MOL0     H87056   8.439   5.231  12.503  3.3231 -2.1157 -1.9091
  645MOL0     H87057   9.523   5.541  12.892 -2.6295  1.9073  2.0786
  645MOL0     H87058   9.730   5.562  12.760 -0.1320 -0.8978 -0.0870
  645MOL0     H87059   9.974   5.803  12.500 -2.9269 -0.8971 -0.7491
  645MOL0     H87060  10.155   5.864  12.364  0.6338 -0.9893  0.7900
  645MOL0     H87061  10.177   5.968  10.847  0.9270  0.5604 -0.6682
  645MOL0     H87062  10.410   6.033  10.775 -0.6751 -1.1811  0.0888
  645MOL0     H87063  10.721   6.232  10.635 -3.0248  2.0383 -1.6212
  645MOL0     H87064  10.969   6.276  10.598 -1.2902 -1.6746  1.5134
  645MOL0     H87065  11.081   6.685  10.556  0.9909 -0.7020 -0.3312
  645MOL0     H87066  11.149   6.674  10.720 -2.0887  3.6890 -1.1081
  645MOL0     H87067  11.301   6.729  10.513 -0.5757  1.6133  2.2796
  645MOL0     H87068  11.286   6.563  10.470 -2.2303  1.8195 -0.0878
  645MOL0     H87069  11.370   6.511  10.720 -0.8759 -0.5402  0.4860
  645MOL0     H87070  11.393   6.681  10.719 -1.7909  0.0287 -0.9980
  645MOL0     H87071  11.591   6.521  10.654 -0.6040 -0.2772  1.1149
  645MOL0     H87072  11.578   6.674  10.562 -2.0749  0.9157  0.6609
  645MOL0     H87073  11.555   6.377  10.274 -1.5684 -1.4341  1.2226
  645MOL0     H87074  10.920   6.678  10.709 -1.8456  0.8479  2.6657
  645MOL0     H87075  10.678   6.635  10.746  0.8140 -0.6441  2.0793
  646MOL0     O87076   4.146   1.805   5.011 -0.9775 -0.2715 -0.4514
  646MOL0     C87077   4.194   1.696   5.031 -0.8552 -0.2265 -0.0422
  646MOL0     O87078   4.314   1.669   5.102 -0.0866  0.0742  0.1596
  646MOL0     C87079   4.363   1.779   5.173 -0.5518  0.7812  0.8805
  646MOL0     C87080   4.285   1.833   5.274  0.1785 -1.4405  0.8005
  646MOL0     C87081   4.332   1.951   5.328  0.7682  0.2441 -0.2100
  646MOL0     C87082   4.461   2.003   5.297 -0.7238  0.0648  1.3643
  646MOL0     O87083   4.514   2.100   5.379  0.8968 -0.1167 -0.0723
  646MOL0     C87084   4.616   2.063   5.476 -0.2026  0.3307  0.6486
  646MOL0     C87085   4.570   2.113   5.608 -0.1488  1.0627 -0.4095
  646MOL0     C87086   4.663   2.055   5.716  0.3034  0.2826  0.0314
  646MOL0     C87087   4.609   2.083   5.854  0.6420 -0.5761  0.0015
  646MOL0     C87088   4.494   1.995   5.907  0.2896 -0.2642 -0.3263
  646MOL0     C87089   4.472   1.996   6.057  0.0788  0.0272 -0.0782
  646MOL0     C87090   4.348   1.916   6.102 -0.0387 -0.1738 -0.0853
  646MOL0     C87091   4.227   2.012   6.117  0.2963  1.0269 -0.4887
  646MOL0     N87092   4.114   1.926   6.132 -0.1869 -0.6242  0.1558
  646MOL0     C87093   4.019   1.900   6.032 -0.2331  0.3169  0.0437
  646MOL0     C87094   3.923   1.832   6.097 -1.6830  0.2479 -1.1954
  646MOL0     C87095   3.802   1.782   6.034  0.0069  0.3147 -0.4101
  646MOL0     C87096   3.681   1.848   6.102 -0.2472 -0.1917  0.2256
  646MOL0     C87097   3.555   1.815   6.023  0.8948 -0.2205 -0.0587
  646MOL0     C87098   3.430   1.893   6.083 -0.3415 -0.4786 -0.2574
  646MOL0     O87099   3.328   1.874   5.987 -0.0465 -0.1119 -0.3647
  646MOL0     C87100   3.270   1.971   5.901 -0.8441  0.5478 -1.5046
  646MOL0     C87101   3.145   1.935   5.843 -0.1176 -0.0894  1.4517
  646MOL0     C87102   3.076   2.017   5.750  1.6265 -0.1077 -0.0456
  646MOL0     C87103   2.940   1.969   5.696 -0.9675  0.6962  0.2991
  646MOL0     C87104   3.138   2.134   5.711 -0.6985  0.6189 -1.3670
  646MOL0     C87105   3.088   2.231   5.606  0.9648  0.5285 -1.1221
  646MOL0     O87106   3.157   2.338   5.591  0.1207  0.5067 -0.2224
  646MOL0     C87107   3.137   2.443   5.504 -0.1740  0.0947 -0.8114
  646MOL0     C87108   3.132   2.412   5.372 -0.2259 -0.0854 -1.0163
  646MOL0     C87109   3.120   2.509   5.274 -0.1955 -0.5244  0.1340
  646MOL0     C87110   3.108   2.646   5.312  0.4872  0.1990 -0.4102
  646MOL0     O87111   3.100   2.744   5.219  0.5524 -0.6805  0.1628
  646MOL0     C87112   3.165   2.722   5.088  0.9174  0.0657 -0.6712
  646MOL0     C87113   3.178   2.858   5.024 -0.0880  0.3538 -0.2634
  646MOL0     C87114   3.302   2.860   4.929  0.0366 -1.3814  0.8411
  646MOL0     C87115   3.293   2.984   4.838  0.4148 -0.0547 -0.0365
  646MOL0     C87116   3.418   3.021   4.758  0.8671  0.3118  0.0364
  646MOL0     C87117   3.428   2.941   4.630  0.4457  0.6431  0.1583
  646MOL0     C87118   3.560   2.970   4.560  0.0919  0.2581 -0.1555
  646MOL0     C87119   3.578   2.890   4.428 -0.2637  0.5829 -0.1273
  646MOL0    Cl87120   3.747   2.896   4.349  0.0601 -0.2023 -0.2182
  646MOL0     C87121   3.103   2.678   5.450 -0.8126  0.0343 -0.0634
  646MOL0     C87122   3.123   2.575   5.547 -0.0711  0.3055  0.9480
  646MOL0     O87123   2.986   2.207   5.543  1.3411 -0.1276 -0.0107
  646MOL0     C87124   3.260   2.176   5.784  0.3015 -0.7205  0.2108
  646MOL0     C87125   3.324   2.098   5.876 -0.0135  1.6590 -0.1772
  646MOL0     N87126   3.947   1.822   6.233 -0.1922  0.5711 -0.7679
  646MOL0     N87127   4.055   1.882   6.250 -0.8481  0.7133  0.3337
  646MOL0     C87128   4.549   1.937   5.207  0.3426 -0.4889  0.4507
  646MOL0     C87129   4.487   1.831   5.136  0.0411  1.0735  0.4297
  646MOL0     C87130   4.131   1.572   4.963 -0.5151 -0.0172  0.1777
  646MOL0     C87131   4.163   1.443   5.010 -0.3976 -0.1373 -0.1614
  646MOL0     C87132   4.084   1.331   4.961  0.2523  0.7928  0.1398
  646MOL0     C87133   3.976   1.342   4.874  0.1140 -0.0833  0.1813
  646MOL0     O87134   3.904   1.222   4.853  0.3944 -0.2160  0.4308
  646MOL0     C87135   3.792   1.241   4.775 -0.5406  1.1790 -0.3370
  646MOL0     C87136   3.668   1.295   4.849  0.0930 -0.4008  0.4483
  646MOL0     C87137   3.571   1.342   4.738  0.0129  0.2003 -0.2437
  646MOL0     C87138   3.436   1.353   4.804 -0.1549 -1.1552 -0.0114
  646MOL0     C87139   3.443   1.489   4.880  0.5989  0.2708 -0.3665
  646MOL0     C87140   3.441   1.591   4.948 -0.4413 -0.1517  0.3085
  646MOL0     C87141   3.965   1.472   4.806  0.2201  0.0019 -0.3058
  646MOL0     C87142   4.037   1.580   4.855 -0.2948 -0.2182 -0.0845
  646MOL0     H87143   4.192   1.784   5.300 -0.6223 -0.3020  0.1467
  646MOL0     H87144   4.267   2.002   5.398 -0.1518  2.2479 -2.4063
  646MOL0     H87145   4.629   1.955   5.483  2.6126  0.5966  0.5637
  646MOL0     H87146   4.716   2.091   5.441  0.4052 -4.4174 -2.3070
  646MOL0     H87147   4.567   2.222   5.599  4.1453  1.1960 -3.3401
  646MOL0     H87148   4.479   2.059   5.636  0.5095 -1.4759 -2.7705
  646MOL0     H87149   4.693   1.950   5.703  2.5972  0.1849  4.3536
  646MOL0     H87150   4.759   2.108   5.710  0.6445 -0.3488 -0.2157
  646MOL0     H87151   4.696   2.074   5.919  1.4980  1.3251 -0.7945
  646MOL0     H87152   4.576   2.187   5.865  0.4408 -0.7869  1.5173
  646MOL0     H87153   4.397   2.003   5.858  1.1620 -1.4323 -2.3797
  646MOL0     H87154   4.527   1.893   5.884  2.4428  0.5918 -1.3437
  646MOL0     H87155   4.566   1.964   6.102  1.7317  2.7887 -1.2708
  646MOL0     H87156   4.472   2.096   6.102 -1.2006 -0.0034  0.0150
  646MOL0     H87157   4.328   1.848   6.019 -0.5869 -0.1708  0.0421
  646MOL0     H87158   4.367   1.858   6.193  2.3968 -1.5837 -1.3676
  646MOL0     H87159   4.211   2.085   6.037 -0.3979 -0.3801 -1.6783
  646MOL0     H87160   4.249   2.073   6.205  1.0183 -0.0973  0.1213
  646MOL0     H87161   4.016   1.933   5.928  1.0084  0.1458 -0.0640
  646MOL0     H87162   3.806   1.818   5.931  0.8853  0.3651 -0.3603
  646MOL0     H87163   3.782   1.675   6.030  1.5196 -0.0665  1.0449
  646MOL0     H87164   3.689   1.957   6.097 -3.4683  0.1414  0.2884
  646MOL0     H87165   3.677   1.808   6.204  3.2949 -0.8664  0.2365
  646MOL0     H87166   3.530   1.710   6.007  3.1888 -0.7584 -0.5026
  646MOL0     H87167   3.562   1.845   5.918 -3.5348 -3.4712 -1.5727
  646MOL0     H87168   3.459   1.997   6.105  0.2518 -1.0624  1.9399
  646MOL0     H87169   3.395   1.841   6.172 -0.5285 -0.4250 -0.3006
  646MOL0     H87170   3.100   1.842   5.877  0.3225 -1.2369 -0.9135
  646MOL0     H87171   2.929   1.869   5.739  0.5238  1.3827  2.4439
  646MOL0     H87172   2.861   2.037   5.726  0.0853  1.6838  0.9339
  646MOL0     H87173   2.935   1.958   5.587 -4.7321 -1.3240  0.5133
  646MOL0     H87174   3.150   2.312   5.335 -1.5994 -0.0354 -1.8986
  646MOL0     H87175   3.120   2.468   5.173  1.4120 -3.4209  1.1780
  646MOL0     H87176   3.258   2.666   5.095  0.5723 -0.3876  0.7268
  646MOL0     H87177   3.088   2.664   5.037 -1.9514  0.9559  2.2795
  646MOL0     H87178   3.089   2.876   4.963  1.1166  0.5550 -2.0254
  646MOL0     H87179   3.192   2.944   5.090  1.3806 -0.8357  1.0504
  646MOL0     H87180   3.283   2.776   4.862 -2.1165 -0.6270  0.4336
  646MOL0     H87181   3.396   2.855   4.985  0.6137 -1.9458 -0.1425
  646MOL0     H87182   3.203   2.977   4.776  0.3121  1.1318 -0.0535
  646MOL0     H87183   3.283   3.068   4.908 -2.5444 -1.9031  1.9583
  646MOL0     H87184   3.502   3.003   4.826  0.1535 -0.7086  0.6729
  646MOL0     H87185   3.423   3.125   4.727  1.3196 -0.0839 -1.2782
  646MOL0     H87186   3.410   2.836   4.658 -3.6994  1.2344  0.4291
  646MOL0     H87187   3.337   2.956   4.570 -0.0567 -1.3220  0.3456
  646MOL0     H87188   3.650   2.945   4.616  0.9958 -2.6939 -2.6171
  646MOL0     H87189   3.562   3.077   4.537 -1.6364  0.0567 -1.4762
  646MOL0     H87190   3.504   2.931   4.358 -2.2870  0.9406  2.1089
  646MOL0     H87191   3.562   2.784   4.448  0.3575  0.4624 -0.2555
  646MOL0     H87192   3.094   2.781   5.485 -2.3416 -0.4297  0.9818
  646MOL0     H87193   3.125   2.595   5.654 -1.9354  1.0582  0.8800
  646MOL0     H87194   3.284   2.282   5.776  1.0989 -1.0709 -3.8523
  646MOL0     H87195   3.406   2.136   5.936 -2.3409  3.1362  2.2926
  646MOL0     H87196   4.651   1.972   5.199  0.2282 -0.1941  0.2317
  646MOL0     H87197   4.532   1.808   5.040 -2.6604 -0.0350 -0.6768
  646MOL0     H87198   4.237   1.424   5.088  1.0569  0.8440 -1.2485
  646MOL0     H87199   4.088   1.228   4.994 -2.3949  1.1838  1.9638
  646MOL0     H87200   3.809   1.300   4.684  1.0546  0.6713 -0.4049
  646MOL0     H87201   3.756   1.146   4.735  1.2492 -0.8977  2.6773
  646MOL0     H87202   3.686   1.383   4.911  1.2834  0.5461 -1.1542
  646MOL0     H87203   3.629   1.215   4.913 -0.3862  0.0197  0.6916
  646MOL0     H87204   3.569   1.273   4.653 -1.1210  0.4340 -0.4116
  646MOL0     H87205   3.594   1.441   4.698  0.9188  0.3638  0.6333
  646MOL0     H87206   3.415   1.273   4.876  0.0690 -2.2202 -1.1103
  646MOL0     H87207   3.354   1.364   4.733  1.6526 -0.6214 -2.1119
  646MOL0     H87208   3.452   1.682   5.003 -4.5367  1.1213 -0.5921
  646MOL0     H87209   3.883   1.498   4.740 -0.1843  3.1300  1.2606
  646MOL0     H87210   4.024   1.677   4.809  1.2281  0.0009 -0.1149
  647MOL0     O87211   3.015   5.172   1.058 -0.0511  1.1590 -0.0449
  647MOL0     C87212   2.942   5.245   0.989 -1.1663  0.2155 -0.4267
  647MOL0     O87213   2.855   5.328   1.047  0.7825  0.4353 -0.5901
  647MOL0     C87214   2.847   5.367   1.180  0.6080  0.0755 -0.1509
  647MOL0     C87215   2.728   5.422   1.226  0.4878  0.4194 -0.8957
  647MOL0     C87216   2.714   5.449   1.365 -0.4500  1.2303  0.7826
  647MOL0     C87217   2.802   5.417   1.454 -0.9019  0.0547  0.4348
  647MOL0     O87218   2.775   5.466   1.580  0.0579 -0.0765  0.0622
  647MOL0     C87219   2.830   5.389   1.686 -0.2698 -0.1652 -0.4069
  647MOL0     C87220   2.717   5.292   1.744 -0.0242 -0.5622 -0.4802
  647MOL0     C87221   2.731   5.293   1.904 -0.2055 -0.3411 -0.6131
  647MOL0     C87222   2.626   5.192   1.960  0.7239 -0.9671 -0.2035
  647MOL0     C87223   2.643   5.156   2.103  0.6815  0.4127  0.0418
  647MOL0     C87224   2.739   5.044   2.146 -0.4336 -0.0264  0.1144
  647MOL0     C87225   2.707   4.982   2.288 -0.2475  0.0717 -0.3987
  647MOL0     C87226   2.820   4.901   2.359  0.3794  0.1932  0.0999
  647MOL0     N87227   2.864   4.790   2.271  0.8648 -0.3845 -0.4848
  647MOL0     C87228   2.983   4.725   2.251  1.1906  0.1731 -0.4867
  647MOL0     C87229   2.948   4.621   2.167  0.0543 -0.7600  0.2648
  647MOL0     C87230   3.042   4.521   2.105  0.5949  0.1930  0.2978
  647MOL0     C87231   3.008   4.373   2.136  0.9936 -0.3023 -0.3813
  647MOL0     C87232   3.048   4.260   2.038 -0.4854  0.5464  1.4239
  647MOL0     C87233   2.982   4.125   2.080  0.1765 -0.0922 -0.5575
  647MOL0     O87234   3.023   4.028   1.983  0.5363 -0.1314  0.1520
  647MOL0     C87235   2.958   3.908   1.995  0.1410  1.0151 -0.3274
  647MOL0     C87236   2.957   3.821   1.878  0.4450 -0.1247  0.3962
  647MOL0     C87237   2.903   3.696   1.883  0.0288 -0.4962 -1.2329
  647MOL0     C87238   2.917   3.630   1.750 -0.9297 -0.0359 -0.4704
  647MOL0     C87239   2.850   3.639   1.999 -0.5917 -0.2257  0.1936
  647MOL0     C87240   2.805   3.503   2.009  0.9016  0.0751 -0.7422
  647MOL0     O87241   2.866   3.407   1.935 -0.0569  0.7454  0.3596
  647MOL0     C87242   2.859   3.272   1.981 -0.3419 -0.0459 -0.1733
  647MOL0     C87243   2.755   3.186   1.941  0.0624  0.4885 -0.8353
  647MOL0     C87244   2.757   3.051   1.978  0.4255  0.4031  0.5612
  647MOL0     C87245   2.859   3.002   2.052  0.0191  0.6434 -1.2707
  647MOL0     O87246   2.880   2.868   2.084  0.5601  0.7785  0.3708
  647MOL0     C87247   2.934   2.782   1.979 -0.1306  0.3342  0.2660
  647MOL0     C87248   2.926   2.636   2.012 -0.7710  0.1114 -0.2021
  647MOL0     C87249   2.994   2.602   2.138 -0.2719  0.1057  1.0834
  647MOL0     C87250   2.989   2.448   2.153 -0.3381  0.1230 -0.5743
  647MOL0     C87251   3.019   2.379   2.286 -0.0791  0.4280  0.0557
  647MOL0     C87252   3.027   2.225   2.286  0.1157 -0.4732  0.1619
  647MOL0     C87253   3.151   2.179   2.370 -0.1674  0.4416  0.4004
  647MOL0     C87254   3.208   2.055   2.319  0.6062 -0.0197  0.1782
  647MOL0    Cl87255   3.098   1.927   2.374 -0.0264 -0.2302  0.0372
  647MOL0     C87256   2.971   3.083   2.070 -0.6523 -0.6546 -0.7513
  647MOL0     C87257   2.972   3.215   2.055  0.4266  0.2792  0.0413
  647MOL0     O87258   2.715   3.476   2.088  0.5649  0.8089  1.0465
  647MOL0     C87259   2.857   3.724   2.106  0.0434  0.9916 -0.0937
  647MOL0     C87260   2.908   3.848   2.109  0.0065 -0.8850 -0.7668
  647MOL0     N87261   2.815   4.629   2.142  0.3171 -0.5506  0.1030
  647MOL0     N87262   2.766   4.729   2.209 -0.0566  1.0334  0.2720
  647MOL0     C87263   2.926   5.363   1.414  0.2157  0.2245  0.4071
  647MOL0     C87264   2.949   5.330   1.279 -0.1232 -0.2971  0.7390
  647MOL0     C87265   2.919   5.199   0.864 -1.1834 -0.9962 -0.3438
  647MOL0     C87266   2.999   5.098   0.806 -0.8713  0.3940 -0.5898
  647MOL0     C87267   2.997   5.064   0.665 -0.6298  0.1063 -0.4870
  647MOL0     C87268   2.894   5.124   0.583 -0.3309 -0.1711 -0.4226
  647MOL0     O87269   2.881   5.098   0.449  0.7579  0.2582 -0.0607
  647MOL0     C87270   2.935   4.971   0.409 -0.8537 -0.6799  0.3852
  647MOL0     C87271   2.910   4.934   0.265  0.7999 -0.1052  1.2567
  647MOL0     C87272   2.765   4.895   0.233 -0.6092 -0.6678 -0.3833
  647MOL0     C87273   2.737   4.892   0.079 -0.1378  0.2441 -0.9813
  647MOL0     C87274   2.734   5.028   0.021 -0.7744  0.4261  1.0213
  647MOL0     C87275   2.733   5.138  -0.026 -0.3177 -0.9682 -0.4443
  647MOL0     C87276   2.812   5.224   0.638  0.4827 -0.4883  0.2149
  647MOL0     C87277   2.825   5.266   0.776  0.5491 -0.1377  0.8906
  647MOL0     H87278   2.649   5.447   1.155 -0.1642  0.8891 -0.0295
  647MOL0     H87279   2.627   5.504   1.398 -1.6039 -0.1953  0.2486
  647MOL0     H87280   2.928   5.345   1.665  1.7608  4.6764 -2.5005
  647MOL0     H87281   2.862   5.462   1.761  1.6741 -3.0366  1.7946
  647MOL0     H87282   2.614   5.326   1.730 -1.4759 -2.1304  4.2684
  647MOL0     H87283   2.733   5.193   1.701  0.4953  0.2079 -2.1405
  647MOL0     H87284   2.825   5.243   1.927 -1.0038 -2.5643 -1.8218
  647MOL0     H87285   2.716   5.390   1.952 -0.2938 -1.2774  1.3300
  647MOL0     H87286   2.522   5.223   1.947  0.3563 -2.6148 -1.5639
  647MOL0     H87287   2.628   5.103   1.895 -0.9891 -2.6447  1.8785
  647MOL0     H87288   2.673   5.241   2.165  3.9530 -0.3830 -0.2785
  647MOL0     H87289   2.541   5.125   2.129  1.1931 -3.4012 -1.7365
  647MOL0     H87290   2.744   4.963   2.072  1.2962 -1.5592  1.8001
  647MOL0     H87291   2.838   5.086   2.168 -0.3953 -2.0041  4.6620
  647MOL0     H87292   2.679   5.064   2.354 -2.1066  2.1092 -3.4593
  647MOL0     H87293   2.623   4.914   2.266  0.4606 -1.4171  1.2897
  647MOL0     H87294   2.785   4.864   2.455 -1.6031  2.1689  0.2074
  647MOL0     H87295   2.908   4.963   2.378  0.4048 -0.4436  2.2457
  647MOL0     H87296   3.077   4.751   2.298  0.5003  1.7877  0.0821
  647MOL0     H87297   3.051   4.532   1.996  1.3932 -4.3536 -0.2940
  647MOL0     H87298   3.140   4.537   2.151  0.3402  1.6880  0.3731
  647MOL0     H87299   2.900   4.364   2.152  1.3357 -1.4785  1.6062
  647MOL0     H87300   3.044   4.343   2.234  1.7327  1.1150 -0.1944
  647MOL0     H87301   3.155   4.241   2.028 -0.9463 -2.4804  1.2514
  647MOL0     H87302   3.001   4.295   1.945  1.0080 -0.3992  0.2620
  647MOL0     H87303   2.874   4.129   2.098  0.4098 -0.3040  1.0443
  647MOL0     H87304   3.018   4.108   2.181  1.4877  1.7111 -0.6824
  647MOL0     H87305   3.006   3.857   1.788 -0.8859 -3.9708 -2.1599
  647MOL0     H87306   2.865   3.695   1.680 -2.6611 -1.1047 -0.2496
  647MOL0     H87307   3.021   3.629   1.717 -0.3803 -0.1972  1.1645
  647MOL0     H87308   2.866   3.533   1.742 -0.3208 -0.4829  0.7610
  647MOL0     H87309   2.675   3.225   1.879 -0.5820 -1.9659 -1.6860
  647MOL0     H87310   2.676   2.984   1.950  1.1561 -0.8782  1.3792
  647MOL0     H87311   2.898   2.804   1.878  2.6256 -1.6528 -1.3023
  647MOL0     H87312   3.038   2.816   1.976 -0.8396  2.6007 -2.3031
  647MOL0     H87313   2.821   2.607   2.015  0.1715 -3.6802  0.6613
  647MOL0     H87314   2.966   2.578   1.928  1.2259  2.9077 -1.3748
  647MOL0     H87315   2.947   2.655   2.222  0.6492  0.9483  1.0815
  647MOL0     H87316   3.100   2.630   2.143 -0.1470 -0.4392  1.6094
  647MOL0     H87317   2.894   2.412   2.112  0.6687 -0.1593 -2.8215
  647MOL0     H87318   3.060   2.411   2.079 -0.0054 -0.5580  0.0701
  647MOL0     H87319   2.964   2.417   2.373  2.4804  0.0815  1.9320
  647MOL0     H87320   3.119   2.421   2.296 -0.1660  0.8498 -0.7302
  647MOL0     H87321   2.924   2.200   2.316 -1.2686  2.5893 -1.5194
  647MOL0     H87322   3.035   2.186   2.184  0.2233 -2.1043  0.7751
  647MOL0     H87323   3.107   2.167   2.470 -1.2817 -0.7054 -0.1964
  647MOL0     H87324   3.232   2.251   2.384 -0.7677  0.7379  3.0356
  647MOL0     H87325   3.305   2.034   2.364  1.1509  2.0561  0.0894
  647MOL0     H87326   3.212   2.057   2.209 -2.3532  2.4603 -0.0397
  647MOL0     H87327   3.062   3.045   2.114 -2.5437 -2.2089  2.1522
  647MOL0     H87328   3.045   3.283   2.098  1.8771 -2.1931  1.7751
  647MOL0     H87329   2.829   3.698   2.208  0.0849  0.7326 -0.1472
  647MOL0     H87330   2.936   3.893   2.204  1.5373  0.0331 -1.6012
  647MOL0     H87331   3.010   5.354   1.482  1.2566 -1.1147 -0.9765
  647MOL0     H87332   3.040   5.281   1.247 -0.5769 -2.5218  2.6404
  647MOL0     H87333   3.087   5.056   0.852 -0.9557 -1.6177 -2.1310
  647MOL0     H87334   3.054   4.979   0.627 -2.4334 -2.3145  1.8068
  647MOL0     H87335   3.043   4.978   0.420 -0.8206 -2.8812  2.0943
  647MOL0     H87336   2.897   4.895   0.478 -1.6302  0.9955  1.8813
  647MOL0     H87337   2.968   4.845   0.240 -0.9780 -1.3350  1.2747
  647MOL0     H87338   2.941   5.020   0.206  3.3788 -3.1242 -2.2980
  647MOL0     H87339   2.708   4.964   0.296  0.4749 -1.5261  1.6258
  647MOL0     H87340   2.763   4.797   0.281  1.2864 -0.2009  0.7736
  647MOL0     H87341   2.638   4.848   0.065 -0.5472 -0.3733  2.8123
  647MOL0     H87342   2.812   4.822   0.041  2.3335  0.5212  2.7932
  647MOL0     H87343   2.710   5.234  -0.067  2.0708  1.9502  4.2390
  647MOL0     H87344   2.739   5.265   0.569 -2.6720 -0.6519  3.1692
  647MOL0     H87345   2.757   5.343   0.812 -0.0186  1.0733 -2.3721
  648MOL0     O87346   8.722   9.441   0.492 -0.1711 -0.2032  0.6755
  648MOL0     C87347   8.840   9.401   0.480  0.3456  1.1885  0.2979
  648MOL0     O87348   8.880   9.275   0.444  0.7878 -0.1247 -0.3752
  648MOL0     C87349   8.784   9.183   0.404  0.0400 -0.9191 -0.6879
  648MOL0     C87350   8.677   9.157   0.495  0.1844  0.1013  0.1158
  648MOL0     C87351   8.606   9.039   0.476 -0.0071  0.1160  0.2071
  648MOL0     C87352   8.632   8.956   0.364  0.2899  0.4111 -0.3518
  648MOL0     O87353   8.550   8.841   0.354  0.8795 -0.6136  0.0432
  648MOL0     C87354   8.611   8.720   0.379 -0.0050  0.4098 -0.4247
  648MOL0     C87355   8.553   8.641   0.505  0.7412 -0.2399 -0.3117
  648MOL0     C87356   8.400   8.620   0.514 -0.6057  0.2951  0.2161
  648MOL0     C87357   8.349   8.501   0.435 -0.4252 -0.0959 -0.0196
  648MOL0     C87358   8.348   8.516   0.287  0.2935 -0.6430  1.2309
  648MOL0     C87359   8.207   8.490   0.230  0.5985  0.4687  0.4714
  648MOL0     C87360   8.098   8.594   0.276 -0.2010 -0.3057  0.5974
  648MOL0     C87361   8.000   8.624   0.156  0.2757  0.9755  0.6896
  648MOL0     N87362   8.055   8.726   0.068  0.3121  0.2374  0.2618
  648MOL0     C87363   8.019   8.869   0.054  0.1462 -0.1758  0.1951
  648MOL0     C87364   8.100   8.902  -0.055  0.0769 -0.9171 -0.2800
  648MOL0     C87365   8.079   9.039  -0.129 -0.1576  0.3696 -0.9655
  648MOL0     C87366   7.986   9.034  -0.247 -0.1614 -0.5176  0.6523
  648MOL0     C87367   8.021   8.923  -0.338  0.0350  0.2011 -0.9144
  648MOL0     C87368   7.919   8.917  -0.451 -0.3190  0.5334 -0.3070
  648MOL0     O87369   7.957   8.817  -0.544 -0.4585 -0.0585  0.4704
  648MOL0     C87370   7.956   8.854  -0.671  0.2367  1.5304 -0.1234
  648MOL0     C87371   7.855   8.941  -0.725  1.0218  0.4008  0.9698
  648MOL0     C87372   7.838   8.969  -0.862  0.4805 -0.7060 -0.4470
  648MOL0     C87373   7.737   9.062  -0.914 -0.6490 -1.0171  0.2880
  648MOL0     C87374   7.932   8.913  -0.951 -0.1995 -0.7375  0.1760
  648MOL0     C87375   7.942   8.947  -1.101 -0.3196  0.1821  0.4307
  648MOL0     O87376   7.836   8.997  -1.162  0.0468  0.0130  0.1503
  648MOL0     C87377   7.853   9.029  -1.292  0.3939 -0.3952  0.5414
  648MOL0     C87378   7.884   9.166  -1.319 -0.2332 -0.2107  0.5522
  648MOL0     C87379   7.886   9.212  -1.452 -0.8044  0.6853 -0.3165
  648MOL0     C87380   7.881   9.126  -1.555 -0.6878 -0.5990 -0.2393
  648MOL0     O87381   7.890   9.191  -1.677 -0.2537 -0.4446 -0.5479
  648MOL0     C87382   7.906   9.107  -1.791  0.1119  0.3030  0.5661
  648MOL0     C87383   7.935   9.189  -1.913 -0.4804 -0.2694  0.1409
  648MOL0     C87384   7.820   9.253  -1.995 -0.2970  0.2723  0.1789
  648MOL0     C87385   7.823   9.411  -1.994  0.3884  0.3846  0.1418
  648MOL0     C87386   7.684   9.469  -2.027  0.5915  0.9268  0.6067
  648MOL0     C87387   7.627   9.411  -2.161  0.6803  0.0805 -0.7996
  648MOL0     C87388   7.692   9.457  -2.291  0.1301 -0.3402 -0.4698
  648MOL0     C87389   7.664   9.370  -2.412  0.3606  0.9996 -0.4198
  648MOL0    Cl87390   7.490   9.336  -2.427  0.0774  0.0376 -0.3022
  648MOL0     C87391   7.858   8.990  -1.529 -0.5299  0.2852 -0.3036
  648MOL0     C87392   7.836   8.945  -1.401 -0.4979  0.4811  0.4303
  648MOL0     O87393   8.052   8.926  -1.162 -0.0317 -0.3099  0.1260
  648MOL0     C87394   8.026   8.816  -0.897  0.5247  0.0131  0.4507
  648MOL0     C87395   8.040   8.792  -0.762  0.2553  0.3907  0.1237
  648MOL0     N87396   8.173   8.796  -0.107  0.5794  0.4761 -0.0718
  648MOL0     N87397   8.134   8.690  -0.040 -0.4971  0.7368  0.1259
  648MOL0     C87398   8.736   8.986   0.266  0.0813 -0.7867 -0.1387
  648MOL0     C87399   8.819   9.097   0.294 -0.1672  0.2491  0.3282
  648MOL0     C87400   8.954   9.495   0.510  0.0857  0.1250  1.3263
  648MOL0     C87401   8.932   9.636   0.506  0.2862  0.3805 -0.1291
  648MOL0     C87402   9.041   9.723   0.536  0.1585 -0.0259  0.4174
  648MOL0     C87403   9.167   9.670   0.576 -0.3476  1.4591  0.9786
  648MOL0     O87404   9.246   9.774   0.611 -0.5414 -0.1972 -0.7218
  648MOL0     C87405   9.387   9.758   0.595 -0.0372  0.8724  0.1457
  648MOL0     C87406   9.448   9.873   0.654  0.8217 -0.7564 -0.1061
  648MOL0     C87407   9.586   9.862   0.713  0.1137 -0.2012  1.2061
  648MOL0     C87408   9.679   9.824   0.593  0.6010 -0.5094  0.2140
  648MOL0     C87409   9.806   9.889   0.618  0.2214  0.1568  0.3387
  648MOL0     C87410   9.924   9.927   0.634  0.3639 -0.2652  0.6713
  648MOL0     C87411   9.186   9.534   0.564 -0.0135 -0.3167 -1.0573
  648MOL0     C87412   9.080   9.447   0.539  1.1067  0.5181 -0.6671
  648MOL0     H87413   8.662   9.214   0.586 -1.1985  0.8861 -0.5664
  648MOL0     H87414   8.530   9.001   0.544 -1.0082  2.9055  0.8001
  648MOL0     H87415   8.603   8.650   0.295  1.5670 -0.0992 -0.1954
  648MOL0     H87416   8.716   8.737   0.405  0.0972 -0.2589 -0.3809
  648MOL0     H87417   8.601   8.543   0.510 -1.0805 -1.1009  2.1604
  648MOL0     H87418   8.584   8.693   0.596  0.7434  2.4291 -1.7307
  648MOL0     H87419   8.385   8.582   0.615  1.4975 -3.1924 -0.6109
  648MOL0     H87420   8.341   8.710   0.496 -0.5063  0.0346 -1.6843
  648MOL0     H87421   8.415   8.419   0.465  1.1167  1.4746  1.0846
  648MOL0     H87422   8.253   8.473   0.480  0.6987 -0.0499  2.5969
  648MOL0     H87423   8.384   8.618   0.271 -0.0246 -0.8989 -1.5241
  648MOL0     H87424   8.423   8.445   0.253 -1.6451 -1.5583 -1.4372
  648MOL0     H87425   8.225   8.490   0.122  0.2122 -2.6546  0.3005
  648MOL0     H87426   8.183   8.386   0.255  0.4048 -0.0822 -1.7767
  648MOL0     H87427   8.039   8.552   0.358 -1.0556 -2.2130 -0.9131
  648MOL0     H87428   8.146   8.689   0.299 -1.8124  0.7934 -0.3808
  648MOL0     H87429   7.905   8.660   0.195  0.8276  2.8955  0.3442
  648MOL0     H87430   7.986   8.528   0.104  0.3388 -0.1968  2.7398
  648MOL0     H87431   7.957   8.936   0.113  0.1677  1.7729 -1.8359
  648MOL0     H87432   8.027   9.102  -0.056  0.3743  0.1640 -0.3961
  648MOL0     H87433   8.176   9.080  -0.156 -1.9557  3.7412 -2.9954
  648MOL0     H87434   8.012   9.127  -0.299  2.3227  0.1174  2.8294
  648MOL0     H87435   7.882   9.020  -0.214 -0.9820 -1.6428 -2.0885
  648MOL0     H87436   8.035   8.822  -0.298  1.2583  0.0535 -1.6540
  648MOL0     H87437   8.121   8.950  -0.375  0.0870  0.1356 -0.8227
  648MOL0     H87438   7.909   9.016  -0.498 -1.9280  0.3546 -0.3917
  648MOL0     H87439   7.820   8.905  -0.406 -1.3069  1.8477 -1.9937
  648MOL0     H87440   7.781   8.986  -0.660 -1.1127  0.3728 -1.2722
  648MOL0     H87441   7.683   9.113  -0.834 -0.5790  1.0801 -0.9215
  648MOL0     H87442   7.797   9.148  -0.946 -0.7911  0.4992  3.6744
  648MOL0     H87443   7.665   9.018  -0.984 -0.4135 -0.5758 -0.2376
  648MOL0     H87444   7.897   9.243  -1.244 -0.9881  1.3329 -0.8487
  648MOL0     H87445   7.896   9.319  -1.465 -0.4741  0.9698  1.9268
  648MOL0     H87446   7.990   9.037  -1.791 -0.5248 -0.7119 -3.4021
  648MOL0     H87447   7.833   9.028  -1.811  4.2007 -2.9954 -3.2392
  648MOL0     H87448   8.005   9.270  -1.887 -1.5374  0.5964  0.3799
  648MOL0     H87449   7.984   9.118  -1.979 -1.2980  1.5069 -2.5707
  648MOL0     H87450   7.726   9.219  -1.952 -0.3657 -0.5302 -0.5759
  648MOL0     H87451   7.828   9.205  -2.093 -3.3998 -3.4357  1.5205
  648MOL0     H87452   7.852   9.441  -1.893 -0.4520  0.8259  0.2656
  648MOL0     H87453   7.887   9.449  -2.073  0.4613 -1.9427 -1.0178
  648MOL0     H87454   7.705   9.576  -2.014  7.4055  0.0932  0.1384
  648MOL0     H87455   7.612   9.443  -1.949  0.9096  2.3725  1.4365
  648MOL0     H87456   7.625   9.301  -2.159 -1.7878  0.0748  1.1845
  648MOL0     H87457   7.523   9.446  -2.160  1.3455  2.3002  1.8219
  648MOL0     H87458   7.799   9.470  -2.274  0.3191 -2.2759 -0.0327
  648MOL0     H87459   7.658   9.556  -2.324 -0.4693  0.1119  1.3700
  648MOL0     H87460   7.721   9.277  -2.402  0.2501  1.0820  1.1173
  648MOL0     H87461   7.700   9.424  -2.500  1.6839  2.0444  0.7314
  648MOL0     H87462   7.836   8.929  -1.616 -1.3741  2.2840 -1.5699
  648MOL0     H87463   7.833   8.838  -1.383  4.7726 -0.0347 -0.3419
  648MOL0     H87464   8.084   8.750  -0.961 -1.4269  0.8437 -2.3709
  648MOL0     H87465   8.109   8.721  -0.717  2.8452  2.3088 -0.6250
  648MOL0     H87466   8.762   8.917   0.186  2.5820 -3.3336  2.6001
  648MOL0     H87467   8.901   9.113   0.225  0.5170 -1.5696  0.6567
  648MOL0     H87468   8.834   9.678   0.484 -0.0813  0.4103  1.4418
  648MOL0     H87469   9.027   9.830   0.547  0.8524 -0.0119  1.2919
  648MOL0     H87470   9.421   9.668   0.647 -1.5383  1.4630  2.3162
  648MOL0     H87471   9.418   9.759   0.491  2.9596 -0.5000  0.9124
  648MOL0     H87472   9.391   9.910   0.739 -0.0155  1.8653 -1.7065
  648MOL0     H87473   9.444   9.960   0.588  0.9216 -0.5499  0.1550
  648MOL0     H87474   9.586   9.779   0.785  0.2254 -0.7224  0.6142
  648MOL0     H87475   9.605   9.957   0.764  0.3422  1.3128 -1.5553
  648MOL0     H87476   9.632   9.846   0.496 -1.6810 -0.2282  1.3316
  648MOL0     H87477   9.684   9.715   0.585  1.7694 -0.3771 -1.3546
  648MOL0     H87478  10.023   9.963   0.656 -0.7068  1.2299  3.6042
  648MOL0     H87479   9.283   9.499   0.598  0.7380  2.1592 -0.4187
  648MOL0     H87480   9.098   9.341   0.559  0.0346  0.5723  0.7400
  649MOL0     O87481   7.730  10.158   5.161 -0.6110  0.4840  0.1881
  649MOL0     C87482   7.718  10.218   5.056 -0.4826  0.9550 -0.3328
  649MOL0     O87483   7.690  10.353   5.044 -0.2801 -0.0563  0.3780
  649MOL0     C87484   7.654  10.439   5.151 -0.1580 -0.3217  0.2091
  649MOL0     C87485   7.676  10.583   5.136  0.1529 -0.7422 -0.0342
  649MOL0     C87486   7.640  10.679   5.233 -0.5703 -0.3787 -0.1851
  649MOL0     C87487   7.567  10.626   5.345  0.4148  0.3605  0.8897
  649MOL0     O87488   7.521  10.698   5.445  0.0505 -1.3106  0.4732
  649MOL0     C87489   7.589  10.687   5.567  0.7668 -0.7941 -0.4983
  649MOL0     C87490   7.483  10.721   5.678  0.0489 -0.5755  0.0673
  649MOL0     C87491   7.541  10.749   5.818 -0.7396 -0.6147  0.4296
  649MOL0     C87492   7.458  10.694   5.926 -0.3796  0.4628  0.0424
  649MOL0     C87493   7.516  10.757   6.059 -0.2982  0.4009 -0.3341
  649MOL0     C87494   7.407  10.784   6.168 -0.0672  0.0566  0.4940
  649MOL0     C87495   7.360  10.659   6.242  0.1095 -0.1105 -0.5216
  649MOL0     C87496   7.289  10.693   6.366 -0.7663 -0.8403 -0.1636
  649MOL0     N87497   7.286  10.575   6.459 -0.0873 -0.3594 -0.4554
  649MOL0     C87498   7.260  10.441   6.424 -0.5618  0.2783  0.4123
  649MOL0     C87499   7.258  10.383   6.544 -0.7308  0.1988 -1.2633
  649MOL0     C87500   7.245  10.234   6.569 -0.0778 -0.1429  0.3253
  649MOL0     C87501   7.113  10.210   6.653  0.1940  0.4719  0.1152
  649MOL0     C87502   6.987  10.219   6.565 -0.2750  0.9180 -1.4253
  649MOL0     C87503   6.850  10.164   6.644  0.6077  0.6177  1.3475
  649MOL0     O87504   6.758  10.148   6.537 -0.2815  0.3336 -0.0565
  649MOL0     C87505   6.628  10.109   6.568 -0.4268 -0.4088 -0.2486
  649MOL0     C87506   6.526  10.181   6.518 -0.2703 -0.4106 -0.6890
  649MOL0     C87507   6.395  10.161   6.544  0.4385  0.0224  0.1612
  649MOL0     C87508   6.300  10.275   6.506  1.0923 -1.4754  0.4901
  649MOL0     C87509   6.359  10.046   6.613 -0.0477  0.3043 -0.0632
  649MOL0     C87510   6.218  10.007   6.653  0.1099  0.0773 -0.2146
  649MOL0     O87511   6.122  10.093   6.642  1.0486 -0.0426 -0.0693
  649MOL0     C87512   5.993  10.052   6.680  0.6001  0.5072 -0.3957
  649MOL0     C87513   5.878  10.042   6.597 -1.0906  0.0367  0.1052
  649MOL0     C87514   5.751  10.005   6.649  0.9773 -0.5000 -0.0780
  649MOL0     C87515   5.736   9.988   6.789 -0.8702  0.2669 -0.1452
  649MOL0     O87516   5.612   9.965   6.840  0.0831  0.2894  0.7342
  649MOL0     C87517   5.592   9.932   6.983  0.6170 -0.1365  0.8693
  649MOL0     C87518   5.444   9.892   7.007 -0.3687  0.5207  0.5295
  649MOL0     C87519   5.412   9.752   6.968  0.6896  0.4414 -0.1214
  649MOL0     C87520   5.271   9.718   7.025  0.1094  0.8300 -0.0478
  649MOL0     C87521   5.232   9.577   6.984  0.3197 -0.5710  0.2119
  649MOL0     C87522   5.073   9.572   6.981 -0.1324 -0.1300 -0.0428
  649MOL0     C87523   5.034   9.566   7.125  0.2674  0.2083 -0.1454
  649MOL0     C87524   4.888   9.602   7.153 -0.7867 -0.1030  0.5772
  649MOL0    Cl87525   4.850   9.770   7.092 -0.1227  0.7373 -0.1804
  649MOL0     C87526   5.848   9.999   6.872  0.5364 -0.3339  0.1819
  649MOL0     C87527   5.972  10.026   6.820 -0.5328 -0.2727  0.8098
  649MOL0     O87528   6.197   9.895   6.692 -0.4943 -0.2930 -0.6506
  649MOL0     C87529   6.459   9.967   6.670  0.6868 -0.6056  1.5821
  649MOL0     C87530   6.593   9.999   6.647 -0.0664  0.6129  0.1653
  649MOL0     N87531   7.296  10.466   6.649  0.5794  0.3416  1.0442
  649MOL0     N87532   7.307  10.583   6.594  0.5072 -0.6026 -0.0560
  649MOL0     C87533   7.536  10.489   5.354  0.7893 -1.0142  0.2110
  649MOL0     C87534   7.579  10.398   5.263 -0.4377 -0.5808 -0.6840
  649MOL0     C87535   7.727  10.140   4.931  1.0131  0.6269 -0.3638
  649MOL0     C87536   7.678  10.193   4.814  0.3891 -0.1243 -0.2712
  649MOL0     C87537   7.661  10.117   4.699 -0.0967 -0.5141  0.9587
  649MOL0     C87538   7.696   9.987   4.695 -0.1013  0.2552  0.4612
  649MOL0     O87539   7.676   9.894   4.590  0.2581 -1.1833  0.2831
  649MOL0     C87540   7.614   9.935   4.467  0.2273 -0.1315 -0.3530
  649MOL0     C87541   7.719   9.978   4.358 -0.6472  0.2231 -0.1969
  649MOL0     C87542   7.796  10.109   4.384  0.2323  0.6561 -0.5359
  649MOL0     C87543   7.906  10.117   4.273 -0.5643 -0.1812  0.3134
  649MOL0     C87544   7.857  10.161   4.139 -0.2629 -0.3738  0.1358
  649MOL0     C87545   7.834  10.192   4.022  0.0776 -0.1663  0.5363
  649MOL0     C87546   7.738   9.920   4.815  0.1552 -0.2082  0.5063
  649MOL0     C87547   7.751   9.995   4.932 -0.1456  1.0320 -0.0399
  649MOL0     H87548   7.726  10.613   5.044  0.4673 -1.0364  0.0353
  649MOL0     H87549   7.664  10.785   5.224 -0.6285 -0.3825 -0.3860
  649MOL0     H87550   7.631  10.587   5.576  0.6681 -1.0442 -2.5041
  649MOL0     H87551   7.667  10.763   5.579 -1.0077  0.8281  1.6955
  649MOL0     H87552   7.437  10.811   5.637  2.5399 -0.1150 -1.9986
  649MOL0     H87553   7.408  10.641   5.678  0.0054 -0.5658  1.7264
  649MOL0     H87554   7.643  10.711   5.826 -1.5165 -2.7896  0.7076
  649MOL0     H87555   7.537  10.857   5.834  3.2799 -0.6375  3.0100
  649MOL0     H87556   7.357  10.734   5.918 -0.3839  0.2498 -1.0609
  649MOL0     H87557   7.455  10.585   5.921 -0.0032  0.3722  1.3780
  649MOL0     H87558   7.580  10.681   6.105 -3.0672 -2.0218 -0.2781
  649MOL0     H87559   7.583  10.843   6.043  4.6442 -3.1337 -0.8384
  649MOL0     H87560   7.442  10.864   6.232 -3.4285  3.0912 -1.0915
  649MOL0     H87561   7.324  10.827   6.110  1.3639 -0.0058 -1.7254
  649MOL0     H87562   7.299  10.593   6.181 -1.0536 -0.1612  0.6599
  649MOL0     H87563   7.446  10.602   6.279  1.0940  2.4245  1.4007
  649MOL0     H87564   7.186  10.721   6.341  0.5102  1.8327 -3.0702
  649MOL0     H87565   7.339  10.781   6.408  1.4401 -2.1733  0.1992
  649MOL0     H87566   7.252  10.393   6.327 -1.7693  0.3994  0.4353
  649MOL0     H87567   7.235  10.183   6.473 -3.4535  1.3306 -0.2476
  649MOL0     H87568   7.326  10.188   6.627  0.6498 -2.5110 -2.3351
  649MOL0     H87569   7.094  10.279   6.736 -4.1668 -1.5754  1.1557
  649MOL0     H87570   7.133  10.111   6.695 -0.2115 -1.0511 -3.0327
  649MOL0     H87571   6.997  10.148   6.482 -1.0930 -1.6557  0.5364
  649MOL0     H87572   6.981  10.321   6.528 -3.0302  1.0699 -0.7833
  649MOL0     H87573   6.818  10.232   6.724  0.7362  3.8368 -1.0925
  649MOL0     H87574   6.867  10.065   6.686  2.3817 -0.8259 -2.3214
  649MOL0     H87575   6.554  10.265   6.455  1.3045 -0.5696 -0.2269
  649MOL0     H87576   6.244  10.321   6.587  2.1072 -1.4117  1.1805
  649MOL0     H87577   6.353  10.364   6.471 -1.4689 -0.2786 -0.5839
  649MOL0     H87578   6.230  10.246   6.427 -0.3654  3.2781 -0.3191
  649MOL0     H87579   5.876  10.079   6.495 -3.4962 -1.6243 -0.5349
  649MOL0     H87580   5.669  10.009   6.579  2.8872 -0.3462 -2.4598
  649MOL0     H87581   5.658   9.857   7.025 -0.2848 -0.1846  2.2704
  649MOL0     H87582   5.616  10.028   7.030  1.6831 -0.2899  0.6589
  649MOL0     H87583   5.421   9.924   7.109 -2.8666 -2.3259  1.0053
  649MOL0     H87584   5.387   9.955   6.938 -1.4100 -0.2209  0.6841
  649MOL0     H87585   5.485   9.681   7.010 -0.5759 -1.1587 -0.5324
  649MOL0     H87586   5.410   9.731   6.861 -1.2961 -2.0232  0.3093
  649MOL0     H87587   5.276   9.740   7.132  2.1155  4.0067 -0.6764
  649MOL0     H87588   5.207   9.799   6.989  1.7040  1.6776 -1.0737
  649MOL0     H87589   5.275   9.505   7.055  0.5322 -4.3293 -3.3259
  649MOL0     H87590   5.279   9.553   6.888  1.5160  2.2377  0.0257
  649MOL0     H87591   5.018   9.650   6.928  0.8328  0.9437  0.4527
  649MOL0     H87592   5.037   9.480   6.936 -3.0327  1.2307 -0.7270
  649MOL0     H87593   5.086   9.637   7.189 -0.9745  1.3068 -0.3098
  649MOL0     H87594   5.055   9.462   7.152  0.5238  0.6359  1.4120
  649MOL0     H87595   4.864   9.588   7.258 -2.4953 -0.8158  0.1261
  649MOL0     H87596   4.819   9.535   7.100  2.3385 -1.5655 -2.0595
  649MOL0     H87597   5.837   9.977   6.978  0.7734 -0.5498  0.1640
  649MOL0     H87598   6.057  10.025   6.888 -0.3955  1.8785  0.7182
  649MOL0     H87599   6.427   9.879   6.726  2.2068 -2.1169  0.1663
  649MOL0     H87600   6.676   9.941   6.687 -1.1781 -0.6202  0.7539
  649MOL0     H87601   7.474  10.451   5.436 -0.7380 -1.3065 -1.0320
  649MOL0     H87602   7.556  10.292   5.275 -3.7337  0.3100  2.7198
  649MOL0     H87603   7.645  10.294   4.837  4.0258  1.2130 -0.2765
  649MOL0     H87604   7.622  10.164   4.610 -2.4980  3.4893  3.7912
  649MOL0     H87605   7.556   9.853   4.423  0.6926  0.6008 -2.4567
  649MOL0     H87606   7.545  10.018   4.481  1.2623  0.9517 -1.4708
  649MOL0     H87607   7.675   9.982   4.258 -2.2956 -1.9026  0.3694
  649MOL0     H87608   7.787   9.893   4.351  1.7370  1.9633  0.4134
  649MOL0     H87609   7.834  10.097   4.485 -2.3739  1.1211  0.5806
  649MOL0     H87610   7.723  10.190   4.393  0.6688  0.9566  0.4332
  649MOL0     H87611   7.952  10.018   4.272 -2.5517 -1.1680  0.9388
  649MOL0     H87612   7.996  10.175   4.299  3.0054 -4.7287 -0.5881
  649MOL0     H87613   7.801  10.221   3.924 -0.3360 -2.6423 -0.1308
  649MOL0     H87614   7.759   9.814   4.815 -1.5858 -0.5758  1.0745
  649MOL0     H87615   7.786   9.952   5.025  2.8174  0.2749 -1.3701
  650MOL0     O87616   1.978   1.982   4.186  1.4734  0.2401  0.2044
  650MOL0     C87617   1.934   1.899   4.259  0.0092  0.3995 -0.6478
  650MOL0     O87618   1.835   1.918   4.353  0.1950 -0.4290 -0.6200
  650MOL0     C87619   1.771   2.036   4.358 -0.2627  0.1704  0.0104
  650MOL0     C87620   1.647   2.056   4.294 -0.2114 -0.0203  0.1399
  650MOL0     C87621   1.573   2.175   4.319 -0.1576  0.5054 -0.3842
  650MOL0     C87622   1.623   2.277   4.403  0.2231  0.5403 -1.0889
  650MOL0     O87623   1.551   2.393   4.431 -0.6605  0.0104 -0.3432
  650MOL0     C87624   1.577   2.493   4.529 -0.8686  0.4287 -0.8090
  650MOL0     C87625   1.700   2.581   4.494 -0.0561 -0.4299  0.6094
  650MOL0     C87626   1.718   2.695   4.599  0.4322 -0.7500 -0.1257
  650MOL0     C87627   1.832   2.788   4.571 -0.3278  0.4323 -0.4811
  650MOL0     C87628   1.860   2.887   4.685  0.1066  1.9680  0.0670
  650MOL0     C87629   1.785   3.016   4.698  0.8409 -0.9681 -0.5521
  650MOL0     C87630   1.731   3.047   4.565  0.1712 -0.7664  0.6982
  650MOL0     C87631   1.641   3.175   4.553  0.5880 -0.4501  0.0993
  650MOL0     N87632   1.598   3.220   4.420  0.1461  0.5379 -0.5229
  650MOL0     C87633   1.570   3.137   4.313 -0.0580 -0.9309  0.8918
  650MOL0     C87634   1.510   3.213   4.224  0.1508  0.8535 -0.2482
  650MOL0     C87635   1.477   3.160   4.085  0.6977  0.2928  0.3077
  650MOL0     C87636   1.394   3.262   4.001  0.5189 -0.4919  0.1866
  650MOL0     C87637   1.336   3.183   3.891 -0.0856 -0.7183  0.2992
  650MOL0     C87638   1.252   3.268   3.789 -0.2345 -0.3412  0.4690
  650MOL0     O87639   1.234   3.196   3.668  0.6450 -0.1512 -0.3643
  650MOL0     C87640   1.101   3.171   3.637  0.1812  0.0602 -0.6122
  650MOL0     C87641   1.000   3.258   3.642  0.1999  1.1536 -0.6557
  650MOL0     C87642   0.865   3.221   3.603  0.2329  0.2015  0.5531
  650MOL0     C87643   0.767   3.337   3.593 -0.7689  0.2944 -0.2428
  650MOL0     C87644   0.826   3.085   3.584  0.4123  0.3000 -0.0841
  650MOL0     C87645   0.697   3.034   3.547  0.7341  0.8156 -0.9962
  650MOL0     O87646   0.600   3.113   3.475  0.3627  0.1091  0.1959
  650MOL0     C87647   0.479   3.068   3.448  0.1953 -0.0317 -0.3452
  650MOL0     C87648   0.450   2.938   3.398  0.7264 -0.0887 -0.4178
  650MOL0     C87649   0.329   2.908   3.341 -0.0484 -0.3254  0.4371
  650MOL0     C87650   0.229   2.993   3.323  0.2296 -0.0300  0.2252
  650MOL0     O87651   0.126   2.948   3.247 -0.9281  0.6057  0.4301
  650MOL0     C87652   0.018   3.032   3.204 -0.2017  0.6418  0.7230
  650MOL0     C87653  -0.059   2.963   3.089 -0.1861  0.5186  0.4159
  650MOL0     C87654  -0.170   3.048   3.013 -0.0625  0.5705 -0.5253
  650MOL0     C87655  -0.144   3.196   2.988 -0.6589  0.3477  0.4085
  650MOL0     C87656  -0.261   3.256   2.907  0.0948  0.4279 -0.6650
  650MOL0     C87657  -0.240   3.407   2.888  0.9484  0.0654  0.1705
  650MOL0     C87658  -0.334   3.450   2.782 -0.3416  0.3769  0.1568
  650MOL0     C87659  -0.317   3.601   2.724  0.1044  0.5219  0.4598
  650MOL0    Cl87660  -0.317   3.715   2.858  0.4541 -0.0861 -0.0600
  650MOL0     C87661   0.250   3.122   3.378  0.2433 -0.2632 -0.0851
  650MOL0     C87662   0.369   3.161   3.449  0.2602  0.4373 -0.2889
  650MOL0     O87663   0.675   2.914   3.583  0.3460 -0.8575 -0.8116
  650MOL0     C87664   0.930   2.988   3.593 -1.8971 -0.6561 -0.0959
  650MOL0     C87665   1.062   3.032   3.620 -0.1304  0.8168  0.6905
  650MOL0     N87666   1.478   3.329   4.287 -0.1369  0.1246  0.2570
  650MOL0     N87667   1.535   3.339   4.408  0.6971 -0.1099  0.1285
  650MOL0     C87668   1.735   2.244   4.471 -0.1923 -0.4158 -0.7727
  650MOL0     C87669   1.812   2.139   4.447 -1.1585 -0.0408  0.7429
  650MOL0     C87670   1.990   1.764   4.244  0.2325  0.6653 -0.7684
  650MOL0     C87671   2.049   1.718   4.129  0.2048 -0.4283 -0.1353
  650MOL0     C87672   2.079   1.580   4.107 -0.7630 -0.3345  0.1322
  650MOL0     C87673   2.058   1.484   4.202 -0.0534  0.7215  0.5297
  650MOL0     O87674   2.075   1.350   4.189  0.0897 -0.1397  0.5129
  650MOL0     C87675   2.082   1.297   4.056 -1.1396  0.2474  0.1509
  650MOL0     C87676   2.074   1.151   4.070 -0.6069  0.1441  0.2971
  650MOL0     C87677   1.991   1.096   4.183 -0.6096  0.3535  0.2684
  650MOL0     C87678   2.073   1.058   4.312 -0.1128 -0.5978  0.0232
  650MOL0     C87679   2.181   0.953   4.290  0.7330  0.2077  0.2442
  650MOL0     C87680   2.253   0.854   4.277 -0.2888  0.1125 -0.8342
  650MOL0     C87681   2.013   1.535   4.323  1.1122 -0.4035 -0.0373
  650MOL0     C87682   1.986   1.672   4.347  0.5425  1.3266  0.2519
  650MOL0     H87683   1.590   1.981   4.240  3.0757 -2.2372 -0.5067
  650MOL0     H87684   1.476   2.189   4.272  0.2002 -1.3780 -1.8055
  650MOL0     H87685   1.491   2.556   4.552  1.4377  3.4605  0.1958
  650MOL0     H87686   1.602   2.442   4.623 -0.6641 -1.2880 -1.7601
  650MOL0     H87687   1.793   2.526   4.510 -1.3452 -2.6678  0.9003
  650MOL0     H87688   1.687   2.613   4.390  0.4115 -4.4382 -0.8356
  650MOL0     H87689   1.622   2.748   4.594  1.2342  0.7142 -0.5034
  650MOL0     H87690   1.729   2.649   4.697  1.6330 -1.9864 -0.8041
  650MOL0     H87691   1.923   2.727   4.561 -0.0171  1.0528 -1.5506
  650MOL0     H87692   1.821   2.838   4.475  0.9329 -1.0579 -1.4662
  650MOL0     H87693   1.867   2.834   4.781 -3.1190 -0.8527 -1.0306
  650MOL0     H87694   1.964   2.910   4.661 -0.2921  2.3256 -1.3769
  650MOL0     H87695   1.711   3.005   4.778  1.3120  3.1634  0.6521
  650MOL0     H87696   1.858   3.094   4.719  2.0653 -2.8955  3.4161
  650MOL0     H87697   1.812   3.062   4.493  0.9285  0.0218  1.6738
  650MOL0     H87698   1.658   2.974   4.529 -0.3222 -0.6658  1.4689
  650MOL0     H87699   1.691   3.250   4.615 -1.1283  1.6094 -0.8547
  650MOL0     H87700   1.549   3.156   4.610 -0.4878  3.6466  0.0708
  650MOL0     H87701   1.597   3.034   4.291  1.4282 -0.1528 -1.3255
  650MOL0     H87702   1.571   3.122   4.043  1.3739  1.2374  0.9151
  650MOL0     H87703   1.416   3.071   4.101  0.3346 -0.1475 -2.8103
  650MOL0     H87704   1.452   3.347   3.964 -0.8482  0.0280 -0.8447
  650MOL0     H87705   1.309   3.287   4.064 -2.7237 -1.8021 -3.2934
  650MOL0     H87706   1.276   3.100   3.928 -0.1088 -0.5439  0.6565
  650MOL0     H87707   1.423   3.143   3.837  1.0195  1.7999  0.0669
  650MOL0     H87708   1.308   3.355   3.755  1.9384 -1.7993  0.0489
  650MOL0     H87709   1.160   3.303   3.836  0.0999 -0.0785  0.9413
  650MOL0     H87710   1.018   3.359   3.679  0.1314  1.0378 -0.3020
  650MOL0     H87711   0.790   3.408   3.674  0.3644  1.9158 -1.9050
  650MOL0     H87712   0.780   3.399   3.504  0.5892  0.9240  0.3613
  650MOL0     H87713   0.662   3.308   3.596 -0.0397 -2.5510  2.3186
  650MOL0     H87714   0.533   2.868   3.403 -0.0764 -1.0991  4.4361
  650MOL0     H87715   0.328   2.820   3.278  2.6454 -0.1284 -0.0198
  650MOL0     H87716  -0.050   3.049   3.288  0.1452  1.2206  0.8871
  650MOL0     H87717   0.043   3.138   3.194 -0.2323  0.7011  1.2143
  650MOL0     H87718   0.001   2.919   3.010 -1.4178  2.2070 -1.5619
  650MOL0     H87719  -0.108   2.873   3.127 -1.1782  0.7982 -0.1573
  650MOL0     H87720  -0.254   3.053   3.084  1.0367  0.8587  0.7980
  650MOL0     H87721  -0.208   2.989   2.929 -2.4645  0.7987  0.3119
  650MOL0     H87722  -0.129   3.231   3.090 -0.4540  2.0263 -0.1720
  650MOL0     H87723  -0.052   3.203   2.930  0.3478 -2.3526  1.5157
  650MOL0     H87724  -0.351   3.247   2.968  1.1283  0.6653  0.9418
  650MOL0     H87725  -0.263   3.198   2.814 -2.0022  0.4491 -0.6781
  650MOL0     H87726  -0.273   3.457   2.979  0.1677  0.7819 -0.4918
  650MOL0     H87727  -0.138   3.440   2.866  1.2516 -2.1836 -2.2692
  650MOL0     H87728  -0.436   3.451   2.821 -1.2415  3.2743 -1.9302
  650MOL0     H87729  -0.330   3.387   2.692  1.9750 -2.3860  1.9958
  650MOL0     H87730  -0.385   3.631   2.644  3.3143  0.4807 -2.5299
  650MOL0     H87731  -0.227   3.601   2.663 -0.4000 -1.1770 -0.3513
  650MOL0     H87732   0.169   3.192   3.362 -2.0449 -1.6152  4.1012
  650MOL0     H87733   0.379   3.265   3.480  1.3076  0.3605 -0.3280
  650MOL0     H87734   0.913   2.881   3.585 -1.9266 -0.8062  1.6738
  650MOL0     H87735   1.132   2.950   3.620  0.8350  1.5657 -1.3672
  650MOL0     H87736   1.775   2.311   4.546 -2.3099  0.3045 -0.2349
  650MOL0     H87737   1.904   2.128   4.505 -1.0772 -1.0939  0.4300
  650MOL0     H87738   2.075   1.776   4.041  2.2914  0.0378  0.7237
  650MOL0     H87739   2.109   1.553   4.006  1.3368  2.7392 -0.2026
  650MOL0     H87740   1.999   1.319   3.988 -1.4090 -0.2571  0.3106
  650MOL0     H87741   2.183   1.327   4.025 -0.6193  1.2402  2.5993
  650MOL0     H87742   2.179   1.129   4.092 -0.1316 -2.4283 -3.5427
  650MOL0     H87743   2.056   1.096   3.977 -3.0675 -0.5001  1.0794
  650MOL0     H87744   1.941   1.004   4.151 -1.4969  1.1854 -0.8305
  650MOL0     H87745   1.904   1.158   4.209 -0.7309  1.0399 -1.6533
  650MOL0     H87746   2.005   1.027   4.392 -0.6761 -0.1965 -0.2939
  650MOL0     H87747   2.140   1.134   4.354 -0.5083 -0.9365  1.3112
  650MOL0     H87748   2.326   0.786   4.239 -1.7088  0.3319 -4.2914
  650MOL0     H87749   2.007   1.467   4.407  1.2096 -2.0026 -1.2864
  650MOL0     H87750   1.941   1.696   4.443 -0.7642 -1.4940  0.4494
  651MOL0     O87751   6.978   4.685   4.675 -0.6656  0.1210  0.3209
  651MOL0     C87752   6.898   4.637   4.761 -0.3741  0.3035 -0.1398
  651MOL0     O87753   6.896   4.514   4.810 -0.6040 -0.1933 -0.5322
  651MOL0     C87754   6.991   4.431   4.754  0.3528 -0.0811  0.2328
  651MOL0     C87755   7.123   4.421   4.800  0.5653  0.8853 -0.0280
  651MOL0     C87756   7.194   4.319   4.741  0.3138  1.4559 -0.2261
  651MOL0     C87757   7.141   4.243   4.639  0.0587 -0.2257 -0.4951
  651MOL0     O87758   7.224   4.140   4.587  0.6288  0.5181 -0.4955
  651MOL0     C87759   7.198   4.073   4.468 -0.4065  0.2236  0.8144
  651MOL0     C87760   7.318   3.975   4.452 -0.2468  0.2254 -1.7126
  651MOL0     C87761   7.298   3.835   4.513  0.2470  0.2293  0.8038
  651MOL0     C87762   7.321   3.852   4.663 -0.1490  0.5955 -0.0020
  651MOL0     C87763   7.275   3.735   4.755 -0.1248 -0.4476  0.4342
  651MOL0     C87764   7.363   3.609   4.747 -0.5057 -0.6810 -0.4013
  651MOL0     C87765   7.492   3.629   4.845  0.3353 -1.3240  0.0655
  651MOL0     C87766   7.466   3.627   5.004 -0.3943  0.2052  0.2835
  651MOL0     N87767   7.419   3.496   5.042 -0.0093 -0.3050 -0.0311
  651MOL0     C87768   7.286   3.453   5.038  0.9742 -0.2586 -0.2526
  651MOL0     C87769   7.300   3.316   5.039  0.8006 -0.2799 -0.9378
  651MOL0     C87770   7.185   3.214   5.049 -0.4437 -1.0850  1.0440
  651MOL0     C87771   7.048   3.258   5.007  0.6916  0.2016 -0.1838
  651MOL0     C87772   6.970   3.333   5.124  0.4369  0.6243 -0.0197
  651MOL0     C87773   6.832   3.394   5.079 -0.0480 -0.3861  0.3334
  651MOL0     O87774   6.849   3.497   4.979 -0.3635 -0.0064 -0.4085
  651MOL0     C87775   6.750   3.500   4.888 -0.5483 -0.0591  0.9949
  651MOL0     C87776   6.786   3.451   4.767 -0.2208 -0.3307 -0.5461
  651MOL0     C87777   6.687   3.443   4.663  0.7445 -0.3739  0.3192
  651MOL0     C87778   6.728   3.373   4.548  0.3806 -0.3697 -0.7624
  651MOL0     C87779   6.556   3.512   4.675  0.5800 -0.4636  0.5880
  651MOL0     C87780   6.457   3.530   4.564  0.2648 -0.1676  0.3833
  651MOL0     O87781   6.333   3.549   4.600  0.0672 -0.4365 -0.0688
  651MOL0     C87782   6.256   3.627   4.509 -0.9114  0.7150  0.1513
  651MOL0     C87783   6.183   3.574   4.405  0.4467  0.0201 -0.5117
  651MOL0     C87784   6.103   3.651   4.320  0.2146  0.1821 -0.0887
  651MOL0     C87785   6.083   3.787   4.338 -0.5607 -0.1664 -0.7819
  651MOL0     O87786   5.997   3.854   4.251  0.4907  0.8936 -0.3121
  651MOL0     C87787   6.028   3.991   4.212  0.1396 -0.4091 -0.3428
  651MOL0     C87788   5.948   4.083   4.300 -0.2995 -0.5367  0.0733
  651MOL0     C87789   5.796   4.045   4.302 -0.4208 -0.1060 -0.4025
  651MOL0     C87790   5.718   4.161   4.365  0.9183  0.5489 -0.1533
  651MOL0     C87791   5.571   4.131   4.385 -0.8820  0.4095  0.4382
  651MOL0     C87792   5.506   4.241   4.469  0.3756  0.5180  0.2820
  651MOL0     C87793   5.350   4.224   4.480  0.4966 -0.4112 -0.1110
  651MOL0     C87794   5.270   4.349   4.480 -0.3687 -0.1149  0.5915
  651MOL0    Cl87795   5.260   4.397   4.314 -0.1119  0.5219 -0.0609
  651MOL0     C87796   6.154   3.849   4.455  0.3069  0.7220 -0.2786
  651MOL0     C87797   6.237   3.766   4.539 -0.6990  0.1440  0.4973
  651MOL0     O87798   6.502   3.553   4.455 -0.2610 -1.1558  0.4915
  651MOL0     C87799   6.527   3.569   4.805  1.1725  0.1525 -0.2827
  651MOL0     C87800   6.627   3.556   4.914  0.2626  0.6132  0.0174
  651MOL0     N87801   7.428   3.280   5.043 -0.5007 -1.1770  0.5320
  651MOL0     N87802   7.506   3.395   5.043  0.3940  0.8523  1.0572
  651MOL0     C87803   7.008   4.255   4.599  0.2010  0.1747 -0.0573
  651MOL0     C87804   6.933   4.350   4.663 -0.0938 -0.1828  1.0436
  651MOL0     C87805   6.799   4.732   4.820  0.8329 -0.4772  0.2868
  651MOL0     C87806   6.708   4.692   4.925 -0.0949 -0.2220 -0.2655
  651MOL0     C87807   6.621   4.778   4.988  0.1362  0.4031  0.0568
  651MOL0     C87808   6.598   4.905   4.945  0.2064 -0.2958 -0.1063
  651MOL0     O87809   6.484   4.977   4.985  0.3491  0.0734  0.0900
  651MOL0     C87810   6.510   5.049   5.099  0.2319  1.2920  0.0109
  651MOL0     C87811   6.373   5.067   5.160 -0.1504 -0.2690  0.7000
  651MOL0     C87812   6.394   5.168   5.284  0.2542  0.5315  0.1257
  651MOL0     C87813   6.290   5.170   5.392  0.8146  0.3147  0.0252
  651MOL0     C87814   6.183   5.274   5.364  0.3168  0.5542 -0.8528
  651MOL0     C87815   6.083   5.350   5.350 -0.8542 -0.7087  0.0148
  651MOL0     C87816   6.667   4.948   4.837 -0.8394 -0.4182 -0.5567
  651MOL0     C87817   6.770   4.867   4.778 -0.4270 -0.4475  0.6445
  651MOL0     H87818   7.154   4.497   4.871  1.7054  0.0283  0.4148
  651MOL0     H87819   7.299   4.299   4.760  0.0101 -0.6282 -0.5665
  651MOL0     H87820   7.099   4.030   4.452 -0.4844  0.7100 -0.0897
  651MOL0     H87821   7.199   4.154   4.394 -1.1076  0.1775  0.7466
  651MOL0     H87822   7.339   3.971   4.345 -1.3453  3.4174 -2.1434
  651MOL0     H87823   7.406   4.026   4.490  0.3571 -1.9537  0.0227
  651MOL0     H87824   7.192   3.806   4.507 -0.1064  1.5346  0.2798
  651MOL0     H87825   7.368   3.773   4.456  0.8081 -0.1422  1.8905
  651MOL0     H87826   7.421   3.885   4.691  1.9462 -3.0592 -2.3694
  651MOL0     H87827   7.248   3.923   4.703 -1.0771 -0.0836 -0.4258
  651MOL0     H87828   7.259   3.772   4.856 -3.5333  3.8909 -1.4034
  651MOL0     H87829   7.178   3.697   4.723  0.0519 -0.9743  0.5162
  651MOL0     H87830   7.313   3.515   4.774  4.4858 -2.7917  3.4656
  651MOL0     H87831   7.413   3.606   4.650  0.5011 -0.1097  0.0760
  651MOL0     H87832   7.567   3.551   4.825  0.4374 -1.6562  1.6414
  651MOL0     H87833   7.526   3.728   4.816 -6.9685  1.4493 -1.1384
  651MOL0     H87834   7.386   3.693   5.040  1.5450  2.6931  0.2899
  651MOL0     H87835   7.557   3.661   5.054  0.1601  1.0239 -1.2176
  651MOL0     H87836   7.197   3.513   5.026  0.2536 -1.1327  0.5688
  651MOL0     H87837   7.203   3.125   4.989  0.0144 -0.0613 -0.3971
  651MOL0     H87838   7.180   3.193   5.156  0.6810  1.8080  1.7803
  651MOL0     H87839   6.999   3.164   4.980  6.5015 -2.2524 -4.1513
  651MOL0     H87840   7.051   3.323   4.919 -1.4096  0.6559  0.0194
  651MOL0     H87841   7.036   3.402   5.177 -1.7321  2.2819  0.7149
  651MOL0     H87842   6.931   3.257   5.192  0.6750 -2.1512 -2.8035
  651MOL0     H87843   6.767   3.429   5.159 -1.7893 -2.7832  0.0649
  651MOL0     H87844   6.786   3.306   5.033 -2.0976  0.0724  1.4247
  651MOL0     H87845   6.889   3.418   4.759  0.4507  0.2139  3.5756
  651MOL0     H87846   6.766   3.281   4.593 -3.9089 -0.8580  2.4970
  651MOL0     H87847   6.653   3.342   4.474  1.0125  0.4339 -1.7528
  651MOL0     H87848   6.796   3.422   4.479  2.2020  0.4145  1.4683
  651MOL0     H87849   6.190   3.466   4.391 -0.2803  0.0152 -0.9249
  651MOL0     H87850   6.052   3.599   4.240  0.9840 -0.2687 -0.2902
  651MOL0     H87851   6.136   4.009   4.210  0.0277  0.7541 -3.8259
  651MOL0     H87852   6.009   3.995   4.104 -2.0017  1.1709  0.0261
  651MOL0     H87853   5.985   4.096   4.403  1.2971  0.8154 -0.6078
  651MOL0     H87854   5.953   4.188   4.267 -0.5806  0.0154  1.6673
  651MOL0     H87855   5.776   3.951   4.353 -2.3881  1.1707  1.3403
  651MOL0     H87856   5.754   4.033   4.201  2.3442 -0.4004 -1.6172
  651MOL0     H87857   5.743   4.175   4.471 -1.7376 -0.1754  0.6482
  651MOL0     H87858   5.711   4.258   4.315 -1.8122 -0.0793 -1.1913
  651MOL0     H87859   5.557   4.027   4.417 -0.1911 -0.3781 -1.6613
  651MOL0     H87860   5.535   4.129   4.282  2.2171  3.9880 -0.9193
  651MOL0     H87861   5.538   4.241   4.573 -1.8121 -0.5896  1.0245
  651MOL0     H87862   5.523   4.339   4.422  2.3877 -0.0833 -0.3588
  651MOL0     H87863   5.344   4.171   4.576  5.0346 -1.1703 -0.0554
  651MOL0     H87864   5.305   4.162   4.402 -2.3358  1.2263  0.0624
  651MOL0     H87865   5.312   4.432   4.536 -1.3806 -0.0093  1.2192
  651MOL0     H87866   5.175   4.308   4.516  0.1425 -0.9328  1.0408
  651MOL0     H87867   6.145   3.955   4.478  1.3541  0.5290  1.1760
  651MOL0     H87868   6.292   3.809   4.622  2.7093 -3.7224  0.5603
  651MOL0     H87869   6.439   3.623   4.838  0.7492 -1.4942  1.4499
  651MOL0     H87870   6.606   3.579   5.018  0.4407 -1.0488  0.4585
  651MOL0     H87871   6.962   4.194   4.523  0.0322  0.2426 -0.0107
  651MOL0     H87872   6.833   4.361   4.621  0.8300 -1.2338 -1.6767
  651MOL0     H87873   6.721   4.585   4.939 -2.5140 -0.8704 -2.2026
  651MOL0     H87874   6.562   4.737   5.069  0.8391 -0.7426 -0.0048
  651MOL0     H87875   6.576   5.003   5.173  2.8374  2.1735 -1.6145
  651MOL0     H87876   6.546   5.145   5.060 -0.6541  1.3669 -0.6374
  651MOL0     H87877   6.318   4.978   5.190 -1.3639  0.4437  0.6696
  651MOL0     H87878   6.301   5.106   5.087  0.4624 -0.1155  0.1699
  651MOL0     H87879   6.397   5.266   5.235 -0.5668  0.4285 -0.1432
  651MOL0     H87880   6.480   5.139   5.345 -1.1728 -1.1217  1.4346
  651MOL0     H87881   6.331   5.192   5.491  1.1716 -1.0640  0.2146
  651MOL0     H87882   6.245   5.070   5.396 -1.9101  1.4390 -0.2010
  651MOL0     H87883   5.991   5.401   5.329 -0.7870 -0.3787  0.4972
  651MOL0     H87884   6.643   5.043   4.790 -0.2987  1.7440  3.1516
  651MOL0     H87885   6.828   4.899   4.692  1.3212  1.1090  2.3257
  652MOL0     O87886  10.393   3.093   8.092 -0.3446  0.0058 -0.0412
  652MOL0     C87887  10.386   3.199   8.028  0.3832 -0.1274  0.3598
  652MOL0     O87888  10.473   3.301   8.040  0.1066 -0.6724 -0.1188
  652MOL0     C87889  10.600   3.260   8.088  0.3043 -0.5977  0.2831
  652MOL0     C87890  10.639   3.318   8.208 -0.9685  0.0501  0.6142
  652MOL0     C87891  10.776   3.312   8.248 -0.1554 -0.3465  0.1230
  652MOL0     C87892  10.853   3.222   8.179 -0.0193  1.1187 -1.1933
  652MOL0     O87893  10.970   3.201   8.235 -1.4563 -0.5507  0.3605
  652MOL0     C87894  11.096   3.243   8.161 -0.3363 -0.5960 -0.8788
  652MOL0     C87895  11.198   3.291   8.261  0.6802 -0.0823  1.0161
  652MOL0     C87896  11.168   3.436   8.309 -0.0983  0.9802  0.2457
  652MOL0     C87897  11.282   3.485   8.396 -0.8127 -0.7506  0.2355
  652MOL0     C87898  11.405   3.538   8.318 -0.6736  0.5225 -0.0882
  652MOL0     C87899  11.501   3.614   8.401 -0.5017  0.3866  0.2684
  652MOL0     C87900  11.614   3.674   8.321  0.4075  0.2398 -0.4503
  652MOL0     C87901  11.698   3.767   8.409 -0.0943 -0.1208 -0.1304
  652MOL0     N87902  11.623   3.894   8.434  0.1165 -0.3112  0.8130
  652MOL0     C87903  11.629   4.012   8.366 -0.1840  0.5225 -0.9807
  652MOL0     C87904  11.559   4.103   8.436 -0.5589  0.5181  0.6428
  652MOL0     C87905  11.555   4.253   8.408 -0.2313  0.0155 -0.2193
  652MOL0     C87906  11.690   4.301   8.349 -0.7408  0.3862 -0.2640
  652MOL0     C87907  11.693   4.449   8.329 -0.1451 -0.2107  0.3702
  652MOL0     C87908  11.839   4.500   8.294 -0.3612  0.6301  0.6646
  652MOL0     O87909  11.841   4.616   8.211 -1.1132 -0.0696  0.1485
  652MOL0     C87910  11.730   4.670   8.148 -0.0442 -0.1172 -0.0500
  652MOL0     C87911  11.699   4.800   8.173 -0.3307  0.2681  0.3477
  652MOL0     C87912  11.580   4.862   8.118 -0.5519  0.7458  0.8902
  652MOL0     C87913  11.540   4.997   8.168  0.7066  0.0992 -0.8786
  652MOL0     C87914  11.495   4.789   8.032  0.7814  1.1298  0.4939
  652MOL0     C87915  11.361   4.844   7.985  0.5740 -0.6975 -0.8773
  652MOL0     O87916  11.257   4.749   7.953  0.6328 -0.7005 -0.2497
  652MOL0     C87917  11.141   4.809   7.901 -0.9885  0.0106 -0.9081
  652MOL0     C87918  11.017   4.750   7.918 -0.1678  0.0552  0.5693
  652MOL0     C87919  10.890   4.792   7.870 -0.4626 -0.7995 -0.4930
  652MOL0     C87920  10.901   4.900   7.781 -0.4669 -0.2372  0.5702
  652MOL0     O87921  10.789   4.950   7.711 -1.2305  0.6777  0.5405
  652MOL0     C87922  10.663   4.923   7.771  0.1038  0.3187  0.7172
  652MOL0     C87923  10.568   5.034   7.729  0.5337  0.9355  0.1759
  652MOL0     C87924  10.596   5.175   7.784 -0.6123 -0.5242 -0.2079
  652MOL0     C87925  10.497   5.287   7.754 -0.7993  0.2954  0.3259
  652MOL0     C87926  10.514   5.417   7.843 -0.3238 -0.7717  0.2982
  652MOL0     C87927  10.601   5.533   7.783  0.7202 -0.3607  0.4189
  652MOL0     C87928  10.553   5.666   7.850 -0.5442  0.8810 -0.0036
  652MOL0     C87929  10.486   5.755   7.756  0.7185  0.5301 -0.3928
  652MOL0    Cl87930  10.448   5.922   7.845 -0.1377  0.3232  0.5274
  652MOL0     C87931  11.021   4.968   7.761  0.0073 -0.2171  0.0670
  652MOL0     C87932  11.143   4.914   7.802 -0.5013 -0.9311 -0.0592
  652MOL0     O87933  11.352   4.968   7.986  1.1850 -0.7560  0.0924
  652MOL0     C87934  11.532   4.657   7.996  1.1532 -0.4561  0.4130
  652MOL0     C87935  11.651   4.598   8.053  0.1031 -0.2254 -0.8072
  652MOL0     N87936  11.512   4.041   8.553 -0.2409  0.3762 -0.8920
  652MOL0     N87937  11.563   3.918   8.559 -0.1843 -0.2333  0.1513
  652MOL0     C87938  10.813   3.159   8.064  0.2192  0.1979 -0.6928
  652MOL0     C87939  10.685   3.174   8.009 -0.7455 -0.2406  0.0727
  652MOL0     C87940  10.266   3.214   7.926 -0.9658  0.6338  1.0215
  652MOL0     C87941  10.266   3.329   7.849 -0.3140 -0.6772  0.0765
  652MOL0     C87942  10.156   3.349   7.755 -0.3922  0.6134 -0.3606
  652MOL0     C87943  10.064   3.249   7.730  0.1431  0.7378  0.4697
  652MOL0     O87944   9.970   3.284   7.642  0.5428 -0.1866 -0.4575
  652MOL0     C87945   9.913   3.187   7.554  0.2958 -0.5194 -0.1840
  652MOL0     C87946   9.810   3.253   7.461  0.8180  0.1493 -0.2428
  652MOL0     C87947   9.679   3.308   7.531 -0.1341  0.2608 -0.3422
  652MOL0     C87948   9.593   3.366   7.426 -0.0188  0.1629 -0.3258
  652MOL0     C87949   9.512   3.261   7.359  0.0069  0.1931  0.5842
  652MOL0     C87950   9.429   3.186   7.312 -0.4013 -0.1399  0.1975
  652MOL0     C87951  10.075   3.121   7.791 -0.8534 -0.0301 -0.1127
  652MOL0     C87952  10.171   3.111   7.906 -0.3191  0.4886  0.5126
  652MOL0     H87953  10.561   3.360   8.271 -1.4214 -1.3452  1.0056
  652MOL0     H87954  10.806   3.358   8.342 -2.9631  0.5634  0.6383
  652MOL0     H87955  11.146   3.155   8.119 -0.0685  0.2694 -2.4706
  652MOL0     H87956  11.078   3.309   8.076  2.1472  0.4087 -0.7091
  652MOL0     H87957  11.197   3.217   8.341  0.7490  0.2952  1.3714
  652MOL0     H87958  11.299   3.288   8.220  2.3569  1.6824  4.6097
  652MOL0     H87959  11.164   3.502   8.222 -2.1336  0.9467  0.2711
  652MOL0     H87960  11.070   3.449   8.357 -0.4992  0.6599 -0.4718
  652MOL0     H87961  11.236   3.567   8.453  0.9973  1.1867 -0.9490
  652MOL0     H87962  11.318   3.397   8.450 -2.2046 -1.3738  0.2086
  652MOL0     H87963  11.451   3.458   8.260 -0.5617 -0.5153  1.3950
  652MOL0     H87964  11.367   3.602   8.238  0.9229 -0.9745 -2.1596
  652MOL0     H87965  11.459   3.698   8.455  1.7135  1.9598 -0.3175
  652MOL0     H87966  11.547   3.545   8.472  0.2715  0.6878  0.0738
  652MOL0     H87967  11.687   3.599   8.289 -0.5026 -0.5676 -0.6676
  652MOL0     H87968  11.575   3.730   8.236 -0.2341  0.0338 -0.3010
  652MOL0     H87969  11.801   3.780   8.375  0.3769  0.7812  1.5163
  652MOL0     H87970  11.706   3.718   8.507 -2.5484 -2.4787 -0.9960
  652MOL0     H87971  11.682   4.028   8.273 -0.0429  1.5262 -0.7476
  652MOL0     H87972  11.482   4.256   8.326 -1.6445 -2.2859  0.8538
  652MOL0     H87973  11.524   4.309   8.496 -0.3535 -3.1474  1.9076
  652MOL0     H87974  11.706   4.262   8.248 -0.5960  1.5203 -0.6958
  652MOL0     H87975  11.761   4.257   8.420 -2.4960 -2.8062 -0.3025
  652MOL0     H87976  11.668   4.497   8.425 -0.4297  0.1217  0.1354
  652MOL0     H87977  11.604   4.475   8.271 -3.0767 -4.1417  2.6050
  652MOL0     H87978  11.907   4.426   8.251  2.7174  2.3986  2.0895
  652MOL0     H87979  11.884   4.506   8.393  0.5447  0.2798  0.2855
  652MOL0     H87980  11.754   4.844   8.255 -0.9691  1.0566  0.3652
  652MOL0     H87981  11.618   5.041   8.232 -1.8954  1.7430  1.4227
  652MOL0     H87982  11.539   5.066   8.084 -0.2343 -1.6724 -2.3905
  652MOL0     H87983  11.450   4.989   8.230  0.1749 -1.2156 -1.7781
  652MOL0     H87984  11.013   4.657   7.974 -1.9458 -1.4811 -1.8750
  652MOL0     H87985  10.799   4.735   7.886 -2.2881  0.9423 -3.5687
  652MOL0     H87986  10.637   4.821   7.741 -0.5512  1.1388 -1.7415
  652MOL0     H87987  10.669   4.934   7.880  0.9437 -1.3019  0.8790
  652MOL0     H87988  10.572   5.041   7.620  3.3042 -2.1535 -0.0882
  652MOL0     H87989  10.463   5.013   7.751  0.6799  0.2075  0.2074
  652MOL0     H87990  10.686   5.203   7.728  0.1701  1.5431  1.8879
  652MOL0     H87991  10.628   5.155   7.887  3.1725 -0.3324 -1.1826
  652MOL0     H87992  10.498   5.308   7.647 -1.5136 -4.0505 -0.7420
  652MOL0     H87993  10.396   5.247   7.769 -1.3193  2.1032  2.0186
  652MOL0     H87994  10.567   5.390   7.935  2.2290 -0.6218 -1.0487
  652MOL0     H87995  10.415   5.457   7.866 -0.4814 -2.2200  2.4209
  652MOL0     H87996  10.710   5.533   7.794  1.1707  0.8729 -3.0699
  652MOL0     H87997  10.577   5.551   7.678 -2.1750  3.5234  1.5126
  652MOL0     H87998  10.643   5.716   7.889  0.3992  0.5904 -1.7051
  652MOL0     H87999  10.486   5.644   7.933 -1.6251  2.2928 -0.4719
  652MOL0     H88000  10.391   5.710   7.725  0.3820  1.7237 -1.1635
  652MOL0     H88001  10.546   5.768   7.665  1.2299 -1.2110 -0.3486
  652MOL0     H88002  11.013   5.057   7.699  2.4658 -0.9846 -1.4966
  652MOL0     H88003  11.237   4.955   7.766  0.5281 -2.5154  0.7232
  652MOL0     H88004  11.466   4.603   7.929  0.5722  1.6389 -0.7690
  652MOL0     H88005  11.682   4.494   8.045  0.1204 -0.4123  1.2614
  652MOL0     H88006  10.891   3.092   8.029 -1.4536 -1.8390 -0.7145
  652MOL0     H88007  10.658   3.120   7.919  0.3598  1.8750 -1.6114
  652MOL0     H88008  10.341   3.408   7.858  0.1453 -0.7703 -2.3703
  652MOL0     H88009  10.145   3.439   7.696 -4.0687  0.9889  0.6380
  652MOL0     H88010   9.989   3.143   7.489 -3.2658 -2.1170 -3.7023
  652MOL0     H88011   9.866   3.111   7.618 -0.8917  1.5054  1.4800
  652MOL0     H88012   9.777   3.178   7.388 -3.3943  0.8415  0.6785
  652MOL0     H88013   9.864   3.327   7.402 -1.2851  0.8063 -1.4861
  652MOL0     H88014   9.695   3.394   7.597 -0.3248 -0.0922  0.1675
  652MOL0     H88015   9.635   3.221   7.579 -3.7259 -0.0857 -3.7622
  652MOL0     H88016   9.648   3.429   7.356 -2.2862  0.8918 -1.5470
  652MOL0     H88017   9.519   3.425   7.481  0.1792 -0.6511  0.8672
  652MOL0     H88018   9.364   3.113   7.268 -2.0362  2.4923 -2.1356
  652MOL0     H88019  10.004   3.045   7.759 -0.1671  0.1133 -2.1382
  652MOL0     H88020  10.188   3.013   7.950  0.3523 -0.4309 -1.6448
  653MOL0     O88021  11.339   1.472   7.234  0.6554  0.0961 -0.2271
  653MOL0     C88022  11.258   1.387   7.274 -0.3310 -0.5029  0.3946
  653MOL0     O88023  11.157   1.314   7.211  0.7512 -0.8135 -0.2228
  653MOL0     C88024  11.163   1.347   7.075  0.6674 -0.3990  0.5486
  653MOL0     C88025  11.082   1.451   7.036  0.1366 -0.1478  0.9933
  653MOL0     C88026  11.085   1.482   6.901 -0.8098 -0.3907  1.4289
  653MOL0     C88027  11.157   1.423   6.803 -0.1562 -0.1905 -0.7784
  653MOL0     O88028  11.128   1.448   6.672  0.6814  0.0400 -0.1510
  653MOL0     C88029  11.230   1.432   6.577  0.6346 -0.2167 -0.1143
  653MOL0     C88030  11.181   1.501   6.449 -0.7786  0.1300 -0.3464
  653MOL0     C88031  11.185   1.656   6.463  0.2208 -0.0540  0.0689
  653MOL0     C88032  11.044   1.721   6.445  0.1235  0.2220 -0.1816
  653MOL0     C88033  11.061   1.876   6.455  0.1901  0.6358  0.8777
  653MOL0     C88034  10.935   1.958   6.475 -0.4785  1.0719 -0.1457
  653MOL0     C88035  10.965   2.103   6.509 -0.9440 -0.0822 -0.7038
  653MOL0     C88036  11.046   2.176   6.408 -1.1700  0.1061  0.1001
  653MOL0     N88037  11.032   2.324   6.419  0.2652  0.2752  0.3750
  653MOL0     C88038  10.913   2.386   6.434  0.4037  0.8209 -0.7592
  653MOL0     C88039  10.955   2.515   6.449  0.9745 -0.8971 -0.4972
  653MOL0     C88040  10.867   2.639   6.489 -0.3992 -0.0146 -0.5002
  653MOL0     C88041  10.866   2.643   6.647 -0.6557 -0.5525  0.0228
  653MOL0     C88042  10.788   2.525   6.715  0.0221 -0.1137 -0.0000
  653MOL0     C88043  10.649   2.508   6.661  0.3236 -0.1937  0.2919
  653MOL0     O88044  10.574   2.624   6.684 -0.0582  0.1151  1.0375
  653MOL0     C88045  10.442   2.618   6.664 -0.3026  0.2564 -0.2794
  653MOL0     C88046  10.368   2.731   6.698  0.7793 -0.8794  1.0847
  653MOL0     C88047  10.234   2.749   6.661  0.3565 -0.6277 -0.1728
  653MOL0     C88048  10.164   2.879   6.685  0.3236  0.0342  0.8448
  653MOL0     C88049  10.158   2.632   6.618 -0.8805  0.5511 -0.2718
  653MOL0     C88050  10.013   2.617   6.621 -0.5914  0.4987 -0.1138
  653MOL0     O88051   9.963   2.512   6.565 -0.2017  0.3094  0.4707
  653MOL0     C88052   9.827   2.490   6.548  0.4503  0.0029  0.9298
  653MOL0     C88053   9.770   2.376   6.614  0.2130 -0.1439  1.2289
  653MOL0     C88054   9.640   2.342   6.586 -0.1840 -0.1447 -0.6173
  653MOL0     C88055   9.551   2.437   6.510 -0.4467 -0.3118  0.2056
  653MOL0     O88056   9.415   2.421   6.488 -0.0875  0.1190  0.1897
  653MOL0     C88057   9.350   2.322   6.573 -0.7519  0.5207 -0.6041
  653MOL0     C88058   9.211   2.315   6.517  1.3395 -1.1592 -0.3668
  653MOL0     C88059   9.129   2.204   6.592  0.0133 -0.1319  0.8372
  653MOL0     C88060   9.003   2.188   6.502 -0.9292 -0.4167 -0.0578
  653MOL0     C88061   8.907   2.094   6.568  0.1348  0.9833 -0.4357
  653MOL0     C88062   8.840   2.009   6.462  1.2276 -0.5948  0.3358
  653MOL0     C88063   8.747   1.899   6.530 -0.4711 -0.3844 -0.6143
  653MOL0     C88064   8.826   1.761   6.516 -0.1649  0.8308  0.5284
  653MOL0    Cl88065   8.983   1.760   6.613  0.5869  0.0057  0.5929
  653MOL0     C88066   9.615   2.546   6.435 -0.0807 -0.4576  0.6594
  653MOL0     C88067   9.752   2.577   6.456  1.2334 -0.0637 -0.2283
  653MOL0     O88068   9.951   2.707   6.676  0.1432  0.0093  0.4229
  653MOL0     C88069  10.237   2.514   6.583  0.4618 -0.3958 -0.8058
  653MOL0     C88070  10.377   2.516   6.606  0.2009 -0.1226  0.5342
  653MOL0     N88071  11.086   2.532   6.434 -0.9606  0.1809  0.5533
  653MOL0     N88072  11.127   2.409   6.413  0.4057  0.0960 -0.1208
  653MOL0     C88073  11.254   1.322   6.856  0.7694 -0.2151  0.3228
  653MOL0     C88074  11.252   1.286   6.988  0.5524 -0.4573  0.2375
  653MOL0     C88075  11.283   1.350   7.410  0.7690  0.1629  0.6528
  653MOL0     C88076  11.394   1.411   7.487  0.6092 -1.0800  0.1142
  653MOL0     C88077  11.423   1.391   7.620  1.2337  0.1590 -0.1099
  653MOL0     C88078  11.332   1.314   7.691  1.2202  0.0682 -0.2143
  653MOL0     O88079  11.372   1.271   7.814  0.4180 -0.4844  0.3073
  653MOL0     C88080  11.294   1.311   7.927  0.2226 -0.7328 -0.0331
  653MOL0     C88081  11.246   1.186   8.005 -0.3933  1.0174 -0.0383
  653MOL0     C88082  11.354   1.076   8.050  0.0534 -0.1069  0.8959
  653MOL0     C88083  11.281   0.955   8.122  0.8846 -0.2557  0.3625
  653MOL0     C88084  11.275   0.835   8.038 -0.1456 -0.1756  0.5022
  653MOL0     C88085  11.260   0.733   7.973 -0.3394  0.3604 -0.1394
  653MOL0     C88086  11.226   1.256   7.625 -0.0940 -0.0582 -0.8961
  653MOL0     C88087  11.202   1.269   7.487  0.5832  0.0896  0.5991
  653MOL0     H88088  11.022   1.503   7.110  2.5224  2.8664  1.0373
  653MOL0     H88089  11.016   1.558   6.867 -1.2431 -1.3795  0.0080
  653MOL0     H88090  11.329   1.457   6.615  0.6440  0.8449 -0.7926
  653MOL0     H88091  11.221   1.324   6.563  1.9433 -0.5377  1.2705
  653MOL0     H88092  11.253   1.459   6.379 -0.3217 -3.6609  2.1185
  653MOL0     H88093  11.078   1.479   6.422 -1.2135  1.9256 -0.3063
  653MOL0     H88094  11.233   1.688   6.556  1.0063 -1.1537  0.0677
  653MOL0     H88095  11.251   1.687   6.382 -0.3088  0.0707 -0.3169
  653MOL0     H88096  10.998   1.699   6.348  0.0196  1.4648 -0.4260
  653MOL0     H88097  10.966   1.684   6.511 -0.9263  1.8289 -0.4768
  653MOL0     H88098  11.114   1.884   6.551  1.7765 -4.1069  0.6405
  653MOL0     H88099  11.119   1.923   6.375 -1.3060  0.4492 -0.3645
  653MOL0     H88100  10.872   1.958   6.386  3.6516 -1.9334 -3.4832
  653MOL0     H88101  10.873   1.913   6.553 -2.4003  0.6443 -1.8386
  653MOL0     H88102  10.863   2.143   6.514 -1.3242 -1.0722 -0.1597
  653MOL0     H88103  11.022   2.115   6.602  1.1691  0.5370 -2.0376
  653MOL0     H88104  11.013   2.146   6.308 -1.9269  1.7734 -0.1882
  653MOL0     H88105  11.152   2.154   6.420 -1.3938  0.0232  2.4007
  653MOL0     H88106  10.817   2.338   6.422  1.6924 -2.2439  0.0584
  653MOL0     H88107  10.908   2.730   6.444  2.1973 -0.3400  1.0031
  653MOL0     H88108  10.767   2.634   6.446 -0.7926 -2.2423  0.5491
  653MOL0     H88109  10.811   2.732   6.680  1.1752  2.1629 -3.5690
  653MOL0     H88110  10.966   2.633   6.689 -1.5852  1.4256  3.0016
  653MOL0     H88111  10.781   2.541   6.823  2.4230 -0.2677  0.2389
  653MOL0     H88112  10.850   2.437   6.696  0.0796 -0.3025  1.0105
  653MOL0     H88113  10.608   2.424   6.718 -2.5286  2.0770  1.8239
  653MOL0     H88114  10.649   2.482   6.554  1.3087 -1.0000  0.4725
  653MOL0     H88115  10.405   2.824   6.741  2.3650 -0.2013 -1.4799
  653MOL0     H88116  10.086   2.870   6.762  0.3507 -0.6166  0.8095
  653MOL0     H88117  10.232   2.956   6.722 -1.4811  2.0769  0.0942
  653MOL0     H88118  10.114   2.917   6.596 -0.2219 -2.1465  0.1535
  653MOL0     H88119   9.834   2.309   6.671 -0.5952 -3.5726 -1.5362
  653MOL0     H88120   9.591   2.261   6.639 -2.7417  0.7086 -1.5048
  653MOL0     H88121   9.404   2.227   6.577  2.9771  2.5127  1.0848
  653MOL0     H88122   9.353   2.363   6.674 -1.4348  0.7876 -0.6850
  653MOL0     H88123   9.156   2.409   6.526  1.3024 -1.3047  1.1208
  653MOL0     H88124   9.223   2.287   6.411  0.9148  2.4473 -1.4930
  653MOL0     H88125   9.108   2.234   6.695  2.1452 -0.1615  1.3101
  653MOL0     H88126   9.181   2.110   6.608  1.5089  0.9642  2.8270
  653MOL0     H88127   8.962   2.288   6.483  4.4998  2.4807  1.1791
  653MOL0     H88128   9.041   2.161   6.403  1.1205  3.3049 -0.4760
  653MOL0     H88129   8.837   2.146   6.634 -0.4841  1.5370 -1.4869
  653MOL0     H88130   8.962   2.026   6.632 -0.5008  1.5973  0.7938
  653MOL0     H88131   8.782   2.078   6.400  0.9352  1.1728  2.4365
  653MOL0     H88132   8.918   1.966   6.399  0.2985 -0.4872 -0.9175
  653MOL0     H88133   8.647   1.900   6.485  1.0157  1.1563 -4.2197
  653MOL0     H88134   8.737   1.906   6.639 -2.6335 -0.6983 -0.7400
  653MOL0     H88135   8.848   1.759   6.408  1.2919  1.8489  0.7701
  653MOL0     H88136   8.746   1.691   6.540  0.4212 -2.2939 -4.8461
  653MOL0     H88137   9.556   2.610   6.370 -1.2621 -1.4179  0.7740
  653MOL0     H88138   9.807   2.655   6.404 -0.7784  1.0713 -0.7563
  653MOL0     H88139  10.202   2.422   6.537  2.0870 -0.2234 -2.4799
  653MOL0     H88140  10.421   2.426   6.562 -1.2346  0.6985 -2.9386
  653MOL0     H88141  11.331   1.287   6.788  0.6319 -1.3868  0.7487
  653MOL0     H88142  11.293   1.197   7.034 -1.6389 -1.3686  0.5654
  653MOL0     H88143  11.455   1.485   7.436 -1.8935  1.6342  0.8089
  653MOL0     H88144  11.485   1.467   7.666 -0.0517  0.1964  1.6320
  653MOL0     H88145  11.355   1.375   7.991 -0.9330 -0.0423  0.4207
  653MOL0     H88146  11.204   1.369   7.903 -0.1326  1.1517  4.7170
  653MOL0     H88147  11.189   1.128   7.931 -0.1882  1.5563 -0.6310
  653MOL0     H88148  11.188   1.212   8.094  0.7432 -0.4297  1.1720
  653MOL0     H88149  11.429   1.121   8.116  0.5198  0.2963  0.1013
  653MOL0     H88150  11.410   1.031   7.968  1.7589 -0.5101  2.2209
  653MOL0     H88151  11.174   0.976   8.132  0.8161  2.7471 -3.6469
  653MOL0     H88152  11.315   0.939   8.224 -3.5062 -0.9378  1.9134
  653MOL0     H88153  11.238   0.638   7.928  1.0670 -1.0701  1.9823
  653MOL0     H88154  11.166   1.185   7.681  1.7442 -1.0188 -0.0398
  653MOL0     H88155  11.128   1.207   7.438  1.2539 -2.0265  2.0935
  654MOL0     O88156  10.812   2.214   9.127 -0.2819  0.0638  0.4111
  654MOL0     C88157  10.775   2.112   9.189  0.8320 -0.1310  0.3695
  654MOL0     O88158  10.679   2.109   9.277  0.2189 -0.3014  0.0597
  654MOL0     C88159  10.615   2.226   9.299  0.6644  0.2464  0.4962
  654MOL0     C88160  10.503   2.264   9.228  0.6534 -0.1658  0.2752
  654MOL0     C88161  10.423   2.378   9.270 -0.5648  0.3303 -0.1702
  654MOL0     C88162  10.462   2.456   9.376 -1.2419 -0.9930  0.4762
  654MOL0     O88163  10.406   2.570   9.420 -0.0289 -0.1698 -1.0268
  654MOL0     C88164  10.268   2.574   9.443 -0.0545 -0.6772  0.3765
  654MOL0     C88165  10.196   2.675   9.339  1.3117 -0.3269 -0.8139
  654MOL0     C88166  10.048   2.693   9.369 -0.3339  0.0529  0.3839
  654MOL0     C88167   9.954   2.659   9.261 -0.1887 -0.0991  0.4776
  654MOL0     C88168   9.953   2.515   9.217 -0.5546  0.2752  1.0057
  654MOL0     C88169   9.845   2.428   9.288 -0.0587 -0.3803 -0.2173
  654MOL0     C88170   9.846   2.286   9.232 -1.1730  0.7207 -0.2425
  654MOL0     C88171   9.705   2.232   9.219 -0.2977 -0.0707 -0.1178
  654MOL0     N88172   9.685   2.112   9.132 -0.2104  0.5714 -0.9264
  654MOL0     C88173   9.719   1.984   9.168 -0.6953 -0.1137 -0.9564
  654MOL0     C88174   9.630   1.911   9.098  0.2030  0.5587  0.2894
  654MOL0     C88175   9.596   1.769   9.121  1.0521 -0.4770  0.1946
  654MOL0     C88176   9.535   1.699   8.994 -0.4134 -0.0036 -0.4086
  654MOL0     C88177   9.386   1.715   8.978 -0.7207  0.2727 -0.6809
  654MOL0     C88178   9.330   1.668   8.850 -0.1027  0.1663  0.2063
  654MOL0     O88179   9.357   1.528   8.836 -0.9034  0.1943  0.5340
  654MOL0     C88180   9.342   1.480   8.704  0.1986 -0.2292  0.0786
  654MOL0     C88181   9.229   1.409   8.674 -0.3990 -0.4048 -0.6548
  654MOL0     C88182   9.214   1.350   8.543 -0.1433  0.2089  0.6372
  654MOL0     C88183   9.091   1.260   8.519 -0.2386 -0.0194 -0.3351
  654MOL0     C88184   9.315   1.356   8.440  1.0566 -0.4956 -0.1804
  654MOL0     C88185   9.321   1.281   8.315  0.5011 -0.2191 -1.2231
  654MOL0     O88186   9.290   1.152   8.319  0.0751 -0.3823  0.7241
  654MOL0     C88187   9.299   1.075   8.211  0.3669  0.6063  0.4832
  654MOL0     C88188   9.217   1.073   8.098  0.3344 -0.3555  0.2469
  654MOL0     C88189   9.248   1.009   7.981 -0.0050 -0.2106 -0.6056
  654MOL0     C88190   9.356   0.923   7.971 -0.7811  1.1557 -0.6236
  654MOL0     O88191   9.395   0.842   7.862  0.4443  0.4492  0.1915
  654MOL0     C88192   9.357   0.873   7.726 -0.0848  0.3199  0.2799
  654MOL0     C88193   9.420   0.775   7.621  0.4803 -0.3999 -0.0614
  654MOL0     C88194   9.433   0.842   7.482  0.0243  0.0708  0.0571
  654MOL0     C88195   9.539   0.953   7.480  0.4089  0.0580  0.2835
  654MOL0     C88196   9.682   0.902   7.528 -0.1133 -0.0830 -0.4764
  654MOL0     C88197   9.803   0.951   7.434  0.4323 -0.1569 -0.5804
  654MOL0     C88198   9.814   1.098   7.426 -0.5429  0.0416  0.1335
  654MOL0     C88199   9.950   1.155   7.487  0.1255  0.4744  0.2120
  654MOL0    Cl88200   9.954   1.336   7.471  0.1186 -0.1987  0.0419
  654MOL0     C88201   9.438   0.917   8.081 -0.5542  0.7375  0.2760
  654MOL0     C88202   9.407   0.979   8.201  0.7530 -0.1415 -0.0237
  654MOL0     O88203   9.369   1.344   8.222 -0.1876 -0.2804 -0.7884
  654MOL0     C88204   9.417   1.436   8.479  0.1817 -0.1522 -0.1142
  654MOL0     C88205   9.430   1.507   8.602  0.1960 -0.9198  0.2694
  654MOL0     N88206   9.577   1.995   8.996 -0.1951 -0.4999 -1.3915
  654MOL0     N88207   9.605   2.117   9.027  0.3056  0.1836  0.5637
  654MOL0     C88208  10.570   2.413   9.452 -0.6747  1.3665 -0.9616
  654MOL0     C88209  10.648   2.306   9.412  1.1446  0.6381 -0.5020
  654MOL0     C88210  10.847   1.994   9.149 -0.4498  0.6429  0.8560
  654MOL0     C88211  10.943   1.990   9.044 -1.5969 -0.3436  0.3016
  654MOL0     C88212  11.010   1.875   9.012 -0.1602  0.3915 -0.4945
  654MOL0     C88213  10.990   1.755   9.079 -0.3939  0.1854 -0.4094
  654MOL0     O88214  11.074   1.643   9.051 -0.6859 -0.5706  0.3249
  654MOL0     C88215  11.022   1.511   9.075  0.1492 -0.8810 -0.1697
  654MOL0     C88216  11.084   1.399   8.989 -0.4860  0.7503  0.4032
  654MOL0     C88217  11.243   1.401   8.974 -1.1042  0.3236 -0.5085
  654MOL0     C88218  11.295   1.254   8.927  0.1682  0.1644 -0.4165
  654MOL0     C88219  11.252   1.227   8.779 -0.4395 -0.1188  0.6099
  654MOL0     C88220  11.211   1.216   8.665 -0.0792 -0.4414 -0.2302
  654MOL0     C88221  10.902   1.758   9.192 -0.5774  0.2447 -0.1774
  654MOL0     C88222  10.834   1.877   9.221 -0.2404  0.4127  0.2117
  654MOL0     H88223  10.462   2.198   9.152  1.1037 -0.9408  0.6869
  654MOL0     H88224  10.327   2.392   9.221 -0.9086  0.1499  0.4504
  654MOL0     H88225  10.214   2.478   9.440 -1.6630  0.2239 -0.8271
  654MOL0     H88226  10.260   2.618   9.543 -2.1075 -0.3534  0.1064
  654MOL0     H88227  10.242   2.772   9.360  0.4375 -0.0349 -0.1930
  654MOL0     H88228  10.221   2.633   9.242  0.0425 -1.1840 -0.7945
  654MOL0     H88229  10.016   2.645   9.462  1.7647  1.1685  1.7446
  654MOL0     H88230  10.047   2.803   9.375  1.0521  0.2322 -1.6027
  654MOL0     H88231   9.851   2.694   9.277 -0.4014  1.2857 -3.0217
  654MOL0     H88232   9.984   2.713   9.170  1.6270  0.8171  1.5556
  654MOL0     H88233   9.936   2.519   9.109  0.4719 -1.4573  0.7395
  654MOL0     H88234  10.049   2.471   9.244 -0.2661  0.9696  1.1257
  654MOL0     H88235   9.863   2.423   9.396 -2.0000  0.5461  0.1953
  654MOL0     H88236   9.743   2.466   9.276  0.8828  2.6743  0.4249
  654MOL0     H88237   9.894   2.299   9.134  3.7591 -1.1723  1.5694
  654MOL0     H88238   9.910   2.211   9.280  0.8286  1.6529 -1.2999
  654MOL0     H88239   9.644   2.310   9.173 -3.1911 -2.4215 -0.6088
  654MOL0     H88240   9.661   2.206   9.315 -0.8171  1.9723  0.2251
  654MOL0     H88241   9.788   1.959   9.248  1.7437  0.9085 -2.6181
  654MOL0     H88242   9.691   1.717   9.139  0.4577 -0.5993  3.6733
  654MOL0     H88243   9.532   1.765   9.209 -0.5348  1.6650 -0.7637
  654MOL0     H88244   9.566   1.594   8.995 -2.8981 -0.8254 -1.8115
  654MOL0     H88245   9.584   1.728   8.901 -0.0846 -4.2052 -1.7311
  654MOL0     H88246   9.361   1.821   8.991 -1.5675  0.1725 -1.4103
  654MOL0     H88247   9.337   1.658   9.058 -1.5807  0.5267 -1.0114
  654MOL0     H88248   9.370   1.737   8.775 -0.5876 -2.6366 -2.8724
  654MOL0     H88249   9.223   1.687   8.837  0.2734  1.4857 -1.2423
  654MOL0     H88250   9.154   1.393   8.751 -0.9538  0.6773 -0.9396
  654MOL0     H88251   9.074   1.246   8.412  0.2689 -2.6772 -0.1538
  654MOL0     H88252   9.116   1.159   8.555 -1.8373 -1.2960 -2.5782
  654MOL0     H88253   8.998   1.296   8.564 -0.7829 -0.6121 -0.9690
  654MOL0     H88254   9.124   1.129   8.097  0.2574 -0.4399  1.4827
  654MOL0     H88255   9.175   1.026   7.903  0.1257  1.2664 -0.4369
  654MOL0     H88256   9.248   0.870   7.715  0.1829  0.3841 -3.9373
  654MOL0     H88257   9.402   0.972   7.715  3.3340 -1.1111  0.1841
  654MOL0     H88258   9.519   0.753   7.660  2.7359 -1.0414 -5.3054
  654MOL0     H88259   9.361   0.686   7.597 -1.7084  1.5945 -3.0149
  654MOL0     H88260   9.335   0.886   7.463  0.8204  1.9739  0.1156
  654MOL0     H88261   9.450   0.765   7.407  1.0522 -1.5629  1.8602
  654MOL0     H88262   9.546   0.991   7.378 -0.4184  0.3358  0.3229
  654MOL0     H88263   9.514   1.036   7.546 -0.9045 -0.6148  0.6529
  654MOL0     H88264   9.699   0.795   7.520  3.1112  0.2617  0.2177
  654MOL0     H88265   9.702   0.934   7.631  1.9362  2.1207 -1.4598
  654MOL0     H88266   9.898   0.907   7.468  0.5569  1.6620  1.6760
  654MOL0     H88267   9.794   0.922   7.329  0.5522 -1.1653 -0.3209
  654MOL0     H88268   9.732   1.146   7.481 -0.0200 -0.0889  1.0451
  654MOL0     H88269   9.800   1.129   7.322 -2.9676  3.4870  1.3061
  654MOL0     H88270  10.037   1.113   7.435 -0.3927  0.8696 -0.9977
  654MOL0     H88271   9.953   1.129   7.593  2.5314  0.7280  0.2666
  654MOL0     H88272   9.511   0.838   8.070 -0.4671  1.0309 -1.7511
  654MOL0     H88273   9.475   0.963   8.284 -0.1732 -2.2677  0.3766
  654MOL0     H88274   9.500   1.451   8.410  2.2215  2.5889  2.6389
  654MOL0     H88275   9.504   1.586   8.605 -2.5324  1.9124 -0.7238
  654MOL0     H88276  10.599   2.469   9.540  1.3372 -2.5065  1.0789
  654MOL0     H88277  10.722   2.258   9.475 -0.2765 -2.1665 -0.7693
  654MOL0     H88278  10.968   2.080   8.988  3.2641 -0.3736  1.9428
  654MOL0     H88279  11.076   1.884   8.925  0.2122 -1.7132 -0.4908
  654MOL0     H88280  11.030   1.481   9.180 -1.1665 -1.8608 -0.3265
  654MOL0     H88281  10.915   1.520   9.054  0.8568 -0.1542 -4.2050
  654MOL0     H88282  11.062   1.411   8.883 -3.6732 -1.3039  0.7125
  654MOL0     H88283  11.047   1.304   9.028 -3.1427  2.4407  2.4290
  654MOL0     H88284  11.287   1.423   9.072  1.2863 -0.2828 -1.3775
  654MOL0     H88285  11.278   1.474   8.901  1.8649 -1.3592 -0.9366
  654MOL0     H88286  11.252   1.185   9.000 -1.9689  1.2117 -0.5714
  654MOL0     H88287  11.404   1.258   8.932  0.1736  2.7554 -0.9465
  654MOL0     H88288  11.190   1.236   8.562  2.6648 -1.9635 -1.1948
  654MOL0     H88289  10.887   1.670   9.255  0.1182  1.9164  2.4940
  654MOL0     H88290  10.767   1.878   9.306 -0.5593 -1.3017  0.0223
  655MOL0     O88291   2.881   7.080   4.861 -0.3665  0.1771  0.4082
  655MOL0     C88292   2.817   7.046   4.757  0.8571  0.3216  0.1824
  655MOL0     O88293   2.705   6.971   4.756 -0.0704  0.1983 -0.4310
  655MOL0     C88294   2.694   6.875   4.856 -0.4602  0.7747  0.4040
  655MOL0     C88295   2.796   6.809   4.918 -0.5587  0.5652 -0.3153
  655MOL0     C88296   2.772   6.737   5.036  0.8534  0.0181  0.3923
  655MOL0     C88297   2.645   6.720   5.086 -0.5681  0.5826  0.4951
  655MOL0     O88298   2.609   6.657   5.201 -0.2235 -0.0442 -1.3364
  655MOL0     C88299   2.711   6.650   5.301  0.0884  0.5198  0.1774
  655MOL0     C88300   2.656   6.680   5.444  0.4384  0.2638  0.7237
  655MOL0     C88301   2.686   6.559   5.527 -0.6942  0.0819  0.5984
  655MOL0     C88302   2.624   6.418   5.497 -0.7678 -0.4904 -0.2885
  655MOL0     C88303   2.706   6.306   5.552 -0.3673 -0.2403 -0.0951
  655MOL0     C88304   2.623   6.180   5.532 -0.0055  0.2984  0.3321
  655MOL0     C88305   2.591   6.131   5.379 -0.1574  0.3082 -0.6237
  655MOL0     C88306   2.718   6.108   5.300 -0.2933  0.3168 -0.2247
  655MOL0     N88307   2.756   6.221   5.222 -0.3985 -0.2703  0.5119
  655MOL0     C88308   2.714   6.250   5.088 -0.5259  0.3357  0.1139
  655MOL0     C88309   2.795   6.350   5.043  0.5769  0.8322 -0.7117
  655MOL0     C88310   2.804   6.410   4.911 -0.8756 -0.1236  0.9141
  655MOL0     C88311   2.864   6.307   4.802  0.0389  0.0933  0.3308
  655MOL0     C88312   2.898   6.379   4.675 -0.1836 -0.7682 -0.1701
  655MOL0     C88313   2.938   6.290   4.550  0.6196  0.0455 -0.0058
  655MOL0     O88314   3.044   6.192   4.562 -0.3810  0.7152  0.4672
  655MOL0     C88315   3.019   6.069   4.506 -0.3572 -0.7045  0.1445
  655MOL0     C88316   2.971   6.049   4.375 -0.2372 -0.0135 -0.0293
  655MOL0     C88317   2.952   5.912   4.329 -0.2295 -0.5670 -0.3071
  655MOL0     C88318   2.915   5.901   4.182 -0.2987 -0.0674 -0.7286
  655MOL0     C88319   2.977   5.801   4.407  0.0212 -1.1886 -0.5260
  655MOL0     C88320   2.934   5.666   4.374 -0.4094 -0.4395 -0.0554
  655MOL0     O88321   2.801   5.641   4.373  0.3754  0.4225 -0.1643
  655MOL0     C88322   2.746   5.519   4.400 -0.0381 -0.5262 -1.0346
  655MOL0     C88323   2.727   5.423   4.295 -0.1103 -0.0522 -0.0942
  655MOL0     C88324   2.642   5.315   4.317  0.4436  0.1210 -0.2430
  655MOL0     C88325   2.563   5.313   4.444 -0.4553 -0.5007 -0.1622
  655MOL0     O88326   2.469   5.212   4.467  1.2757 -0.3751 -1.1430
  655MOL0     C88327   2.456   5.085   4.404  0.5031 -0.0954  0.4484
  655MOL0     C88328   2.347   5.010   4.475 -0.1091 -0.7191 -0.0852
  655MOL0     C88329   2.399   4.969   4.616  0.4050 -1.2410 -0.6271
  655MOL0     C88330   2.288   4.899   4.694  0.4570 -0.4476 -0.0474
  655MOL0     C88331   2.321   4.865   4.845 -0.0478  0.3320  0.1239
  655MOL0     C88332   2.430   4.750   4.863 -0.4023 -0.1519 -0.2599
  655MOL0     C88333   2.474   4.734   5.002  0.4982  0.7118  0.9183
  655MOL0     C88334   2.579   4.840   5.040  0.7442  0.2240  0.3195
  655MOL0    Cl88335   2.655   4.774   5.188 -0.4681  0.3120 -0.0463
  655MOL0     C88336   2.576   5.406   4.541 -0.7798 -0.6310  0.9393
  655MOL0     C88337   2.660   5.514   4.514 -0.1486  0.9000  0.4092
  655MOL0     O88338   3.018   5.576   4.363 -0.0729  0.3433 -1.0132
  655MOL0     C88339   3.025   5.823   4.532  1.4054 -0.2216 -0.3778
  655MOL0     C88340   3.055   5.953   4.578 -0.4976  0.1945 -0.1206
  655MOL0     N88341   2.889   6.368   5.140 -0.3345 -0.1091  0.5307
  655MOL0     N88342   2.870   6.293   5.250  0.4798 -1.2539  0.2958
  655MOL0     C88343   2.536   6.777   5.014 -0.5160  0.0096  0.0143
  655MOL0     C88344   2.564   6.852   4.900 -0.1618 -0.1697  0.3641
  655MOL0     C88345   2.857   7.119   4.636 -0.0019 -0.2120 -0.4394
  655MOL0     C88346   2.933   7.239   4.642 -0.6525 -0.9194 -0.0437
  655MOL0     C88347   2.978   7.293   4.521 -0.2467  0.0744 -0.1556
  655MOL0     C88348   2.930   7.262   4.397  0.4904 -1.2373  0.4557
  655MOL0     O88349   2.966   7.310   4.274  0.2373  0.1310  1.3980
  655MOL0     C88350   3.050   7.422   4.281 -0.0482 -0.2089 -0.3876
  655MOL0     C88351   3.201   7.386   4.282 -0.1284  0.1275 -0.5127
  655MOL0     C88352   3.293   7.506   4.237 -0.3604 -0.0838 -0.0685
  655MOL0     C88353   3.300   7.604   4.358 -0.1810 -0.2586  0.1098
  655MOL0     C88354   3.356   7.570   4.487  1.2164  0.9001 -0.1431
  655MOL0     C88355   3.429   7.553   4.579  0.1660  0.4299 -0.2633
  655MOL0     C88356   2.836   7.158   4.388  0.6122 -0.8720  0.1249
  655MOL0     C88357   2.806   7.080   4.498 -0.7342 -0.3205 -0.7955
  655MOL0     H88358   2.892   6.797   4.868  0.3360  2.7906  0.7556
  655MOL0     H88359   2.848   6.676   5.083  1.5792  2.2779  2.3437
  655MOL0     H88360   2.758   6.552   5.294  1.5732  1.2432 -0.2483
  655MOL0     H88361   2.791   6.723   5.285  1.7374 -1.5413 -1.5010
  655MOL0     H88362   2.699   6.767   5.493 -1.6330  0.6027  2.0568
  655MOL0     H88363   2.551   6.705   5.423  1.1810  1.8821 -1.4708
  655MOL0     H88364   2.794   6.541   5.519 -1.1299 -1.9343 -1.9387
  655MOL0     H88365   2.665   6.578   5.633 -0.2702 -1.8575  1.0654
  655MOL0     H88366   2.519   6.412   5.528 -1.3271 -2.5604 -2.3203
  655MOL0     H88367   2.622   6.403   5.389 -0.5144  1.2507 -0.5591
  655MOL0     H88368   2.799   6.283   5.500 -0.7981 -2.7148  0.1140
  655MOL0     H88369   2.739   6.326   5.655 -0.4458  1.0032 -0.3025
  655MOL0     H88370   2.677   6.098   5.580  1.3746  1.7077  1.2719
  655MOL0     H88371   2.525   6.187   5.582 -0.4447  3.3731 -0.7284
  655MOL0     H88372   2.544   6.032   5.379  0.8327 -0.2294  1.5358
  655MOL0     H88373   2.535   6.207   5.325  0.5107  2.7875  1.9320
  655MOL0     H88374   2.690   6.024   5.236  3.4271 -0.5682 -0.9405
  655MOL0     H88375   2.804   6.083   5.362  1.2293  3.1846 -0.9958
  655MOL0     H88376   2.625   6.217   5.037  0.2056  0.8476 -1.5510
  655MOL0     H88377   2.707   6.442   4.873 -0.5929 -0.3809 -0.0559
  655MOL0     H88378   2.866   6.499   4.923 -0.3377 -0.5235  1.1453
  655MOL0     H88379   2.811   6.213   4.787 -0.9621  0.9309 -1.7152
  655MOL0     H88380   2.963   6.271   4.833  0.5929  0.2457 -1.1868
  655MOL0     H88381   2.984   6.442   4.698 -0.2024  0.3688 -2.8526
  655MOL0     H88382   2.822   6.451   4.644  2.1350  1.5880 -0.6529
  655MOL0     H88383   2.956   6.356   4.464 -0.1948  0.2884  0.0043
  655MOL0     H88384   2.841   6.244   4.527  0.3132  2.0736 -3.5798
  655MOL0     H88385   2.951   6.133   4.309  0.2843 -1.0515 -1.5722
  655MOL0     H88386   2.807   5.896   4.163 -0.7276  0.9199  1.2077
  655MOL0     H88387   2.943   5.997   4.139 -1.4324  0.0739 -1.2014
  655MOL0     H88388   2.965   5.810   4.147 -1.9944 -0.4231 -2.4179
  655MOL0     H88389   2.768   5.435   4.196 -1.9221 -0.3646 -0.9255
  655MOL0     H88390   2.622   5.237   4.243 -2.6883  0.8129 -0.2638
  655MOL0     H88391   2.426   5.110   4.302 -0.0431  2.5264  1.1688
  655MOL0     H88392   2.536   5.015   4.378 -1.5323 -2.4091  0.0536
  655MOL0     H88393   2.262   5.075   4.493 -0.8718 -0.6910 -3.2101
  655MOL0     H88394   2.324   4.915   4.426  1.3998 -0.9573 -0.3962
  655MOL0     H88395   2.433   5.061   4.663  0.4169 -1.0341 -1.0367
  655MOL0     H88396   2.486   4.902   4.625  0.7488 -0.6475  0.7482
  655MOL0     H88397   2.209   4.974   4.689  2.8180  2.2138  0.2073
  655MOL0     H88398   2.258   4.812   4.634  0.7256 -0.4744 -0.1427
  655MOL0     H88399   2.222   4.857   4.891 -0.8192  3.0545 -0.8223
  655MOL0     H88400   2.361   4.961   4.881 -3.4891  1.3713  1.5426
  655MOL0     H88401   2.379   4.655   4.842 -0.1094  0.4810 -4.7299
  655MOL0     H88402   2.513   4.764   4.793 -1.6311 -2.8068 -2.4537
  655MOL0     H88403   2.520   4.635   5.016 -1.0824 -0.8314 -3.1828
  655MOL0     H88404   2.379   4.749   5.055  0.2581  0.4381  0.5713
  655MOL0     H88405   2.539   4.941   5.049  0.1979  0.3432 -2.4877
  655MOL0     H88406   2.651   4.842   4.957  1.9940 -1.1874  1.3006
  655MOL0     H88407   2.501   5.413   4.619 -0.8110  1.3824  0.7894
  655MOL0     H88408   2.674   5.585   4.594  0.1369  1.7012 -0.3345
  655MOL0     H88409   3.044   5.734   4.591 -1.3678 -2.0255 -1.9624
  655MOL0     H88410   3.082   5.959   4.683  1.7416  0.1107 -0.6418
  655MOL0     H88411   2.437   6.746   5.048 -0.1243 -0.2948  0.8972
  655MOL0     H88412   2.483   6.897   4.844 -1.7978 -2.5769  0.6495
  655MOL0     H88413   2.971   7.285   4.733 -0.4917  3.2596 -2.0243
  655MOL0     H88414   3.048   7.374   4.541  0.5388 -0.0728 -2.0827
  655MOL0     H88415   3.041   7.474   4.185 -3.2224 -2.6778 -1.6370
  655MOL0     H88416   3.019   7.481   4.367  4.7187  1.3204  0.5843
  655MOL0     H88417   3.202   7.300   4.215 -0.5642 -1.4453  1.4008
  655MOL0     H88418   3.217   7.345   4.382 -1.3137 -1.5794 -0.9770
  655MOL0     H88419   3.248   7.560   4.154 -1.4013 -1.1351 -0.2169
  655MOL0     H88420   3.390   7.460   4.217 -1.1450 -0.4358 -3.9564
  655MOL0     H88421   3.199   7.637   4.382 -0.2749 -0.4522 -0.0213
  655MOL0     H88422   3.356   7.695   4.333 -0.6146  0.1525  0.6227
  655MOL0     H88423   3.486   7.524   4.666 -2.3686 -1.8434  0.7631
  655MOL0     H88424   2.793   7.150   4.289 -0.9031  2.0555  0.4247
  655MOL0     H88425   2.740   6.996   4.482  1.4569 -2.2096 -0.4145
  656MOL0     O88426   1.740   0.722   9.779 -0.3798 -0.0006 -0.2892
  656MOL0     C88427   1.711   0.608   9.751  0.4647 -0.0574 -0.8843
  656MOL0     O88428   1.740   0.497   9.826  0.9272 -0.3894  0.3849
  656MOL0     C88429   1.811   0.498   9.941 -0.1833 -0.5473  0.1745
  656MOL0     C88430   1.829   0.606  10.037 -0.1628  0.5745  0.7931
  656MOL0     C88431   1.906   0.582  10.151  0.5014 -0.8690 -0.1047
  656MOL0     C88432   1.965   0.463  10.192  1.2215 -0.5532  1.4073
  656MOL0     O88433   2.052   0.455  10.289 -0.2405 -0.1440 -1.3223
  656MOL0     C88434   2.046   0.547  10.406  0.0551  0.5776 -0.4192
  656MOL0     C88435   2.089   0.463  10.522  0.2611 -1.2051  0.4167
  656MOL0     C88436   2.235   0.418  10.536 -0.9952 -0.5377  1.0405
  656MOL0     C88437   2.352   0.510  10.496  0.0211  0.1985 -0.2171
  656MOL0     C88438   2.490   0.437  10.513  0.3983  0.0512  0.1430
  656MOL0     C88439   2.495   0.314  10.420 -0.9283  0.3388  0.4840
  656MOL0     C88440   2.645   0.285  10.384 -1.1271  0.2986  0.3369
  656MOL0     C88441   2.714   0.229  10.511 -0.4997  1.8668 -0.1807
  656MOL0     N88442   2.857   0.268  10.522  0.3650 -0.2987  0.3309
  656MOL0     C88443   2.950   0.219  10.434 -0.5636 -0.4041  0.5598
  656MOL0     C88444   3.061   0.271  10.489 -0.2128  0.4079 -0.5967
  656MOL0     C88445   3.200   0.247  10.422  0.0962 -0.7992 -0.0023
  656MOL0     C88446   3.267   0.118  10.471 -0.0285  0.3846  0.2693
  656MOL0     C88447   3.417   0.131  10.468 -0.4001  0.6905  0.1629
  656MOL0     C88448   3.471   0.000  10.544  0.1636 -1.1239  0.0349
  656MOL0     O88449   3.610   0.035  10.569 -0.2857  0.0988 -1.0883
  656MOL0     C88450   3.647   0.112  10.681 -0.0760 -0.6646 -0.4547
  656MOL0     C88451   3.790   0.128  10.709  1.5577  0.9545 -0.0541
  656MOL0     C88452   3.838   0.195  10.816 -0.5522  0.3784 -0.1683
  656MOL0     C88453   3.982   0.217  10.816 -0.6720 -0.0496 -0.2697
  656MOL0     C88454   3.744   0.255  10.905  0.2253  0.7470 -1.0727
  656MOL0     C88455   3.789   0.322  11.021 -0.1064 -0.5122 -0.6807
  656MOL0     O88456   3.882   0.420  11.008  0.9316 -0.7205  0.3134
  656MOL0     C88457   3.915   0.509  11.107 -0.8086  0.2329 -1.4119
  656MOL0     C88458   4.040   0.574  11.090 -0.0615 -0.5421 -0.8218
  656MOL0     C88459   4.086   0.658  11.191  0.1295  1.2971 -0.7953
  656MOL0     C88460   4.020   0.689  11.306 -0.4222 -1.4674 -0.1204
  656MOL0     O88461   4.055   0.783  11.397  0.7743  0.4072 -0.3221
  656MOL0     C88462   4.191   0.835  11.401 -0.3363 -0.4768  0.0580
  656MOL0     C88463   4.201   0.915  11.529  0.1503  0.2782  0.2664
  656MOL0     C88464   4.186   0.813  11.646 -0.0489 -1.0214 -0.7822
  656MOL0     C88465   4.316   0.802  11.733 -0.5714  0.2237  1.1175
  656MOL0     C88466   4.306   0.690  11.835 -0.1141 -0.0606  0.3421
  656MOL0     C88467   4.227   0.732  11.960  0.1609  0.2937 -0.3287
  656MOL0     C88468   4.313   0.791  12.074 -0.0697  0.5206  0.4990
  656MOL0     C88469   4.238   0.898  12.147  0.2343 -0.6734 -0.0635
  656MOL0    Cl88470   4.103   0.816  12.241  0.1005 -0.1195 -0.3409
  656MOL0     C88471   3.893   0.629  11.322  1.6592 -0.0273  0.0093
  656MOL0     C88472   3.841   0.541  11.231 -0.4304  0.1915  0.2654
  656MOL0     O88473   3.743   0.286  11.127 -0.9214  0.6106 -0.5454
  656MOL0     C88474   3.607   0.228  10.889  0.0497  0.4537  0.1510
  656MOL0     C88475   3.561   0.161  10.773  0.0713  0.0664 -0.5259
  656MOL0     N88476   3.041   0.342  10.596  0.3858  0.0597  1.0205
  656MOL0     N88477   2.911   0.355  10.619 -0.3063 -0.6216 -0.3691
  656MOL0     C88478   1.950   0.366  10.094 -0.7513  0.0394 -0.4213
  656MOL0     C88479   1.875   0.374   9.976 -1.2329 -0.7263 -0.0114
  656MOL0     C88480   1.661   0.588   9.615  0.5467  0.4483 -0.6026
  656MOL0     C88481   1.641   0.697   9.524 -0.3634 -0.0120  0.2573
  656MOL0     C88482   1.609   0.665   9.380 -0.8769 -0.4332 -0.8527
  656MOL0     C88483   1.580   0.535   9.346  0.2382  0.5601  0.3565
  656MOL0     O88484   1.538   0.506   9.218 -0.5302 -0.5030 -0.3182
  656MOL0     C88485   1.405   0.467   9.210 -0.3903 -0.1381 -0.5608
  656MOL0     C88486   1.351   0.489   9.075 -0.3776  0.6514  0.0765
  656MOL0     C88487   1.436   0.438   8.957 -0.6086 -0.4330 -0.0105
  656MOL0     C88488   1.364   0.448   8.824 -0.0894  0.1346 -0.2362
  656MOL0     C88489   1.372   0.584   8.771  0.8033  0.3218  0.1482
  656MOL0     C88490   1.375   0.705   8.735 -0.0744  0.0410 -1.0213
  656MOL0     C88491   1.580   0.430   9.439 -0.5031  0.8110 -1.0191
  656MOL0     C88492   1.631   0.460   9.570 -0.0165 -0.7800 -0.7552
  656MOL0     H88493   1.779   0.701  10.023 -0.2345  0.6065  1.2458
  656MOL0     H88494   1.915   0.663  10.222  1.6218 -1.1717  0.1197
  656MOL0     H88495   2.126   0.619  10.386  0.3503  0.1612 -0.7570
  656MOL0     H88496   1.950   0.600  10.418 -0.1999  0.3625 -1.4115
  656MOL0     H88497   2.081   0.527  10.610  2.9545 -1.4376  0.9142
  656MOL0     H88498   2.045   0.363  10.529  0.9563 -1.6739 -1.3558
  656MOL0     H88499   2.262   0.382  10.636  0.8432  2.1613  1.6030
  656MOL0     H88500   2.240   0.332  10.468  0.9358  0.5862 -0.3313
  656MOL0     H88501   2.336   0.541  10.392 -0.4120  0.0744 -0.1910
  656MOL0     H88502   2.343   0.598  10.561  3.2692 -0.7060  1.6680
  656MOL0     H88503   2.558   0.521  10.493  0.1697 -0.0252 -0.9938
  656MOL0     H88504   2.515   0.412  10.616 -3.5015  1.8999  1.7542
  656MOL0     H88505   2.445   0.229  10.466 -1.4643  1.1332  1.4187
  656MOL0     H88506   2.428   0.330  10.335 -1.1958 -1.4672  0.3176
  656MOL0     H88507   2.653   0.204  10.310 -0.5893  0.2056  0.4946
  656MOL0     H88508   2.700   0.374  10.352  3.1820 -1.1586  2.8906
  656MOL0     H88509   2.694   0.123  10.524 -3.0322  2.2776 -0.1614
  656MOL0     H88510   2.665   0.265  10.602 -1.4908 -2.5752  1.2587
  656MOL0     H88511   2.935   0.165  10.341  1.2035  1.7420 -1.1218
  656MOL0     H88512   3.187   0.244  10.314  0.9516 -1.7217 -0.1028
  656MOL0     H88513   3.267   0.332  10.435 -0.6344 -0.4451  1.7200
  656MOL0     H88514   3.236   0.043  10.398 -0.2683  2.7243 -2.2207
  656MOL0     H88515   3.219   0.100  10.568 -4.2177  1.7723 -1.3097
  656MOL0     H88516   3.441   0.227  10.516 -0.5523  0.4572  0.7148
  656MOL0     H88517   3.448   0.124  10.363 -0.1991 -2.4734  0.3520
  656MOL0     H88518   3.467  -0.091  10.483 -2.1314 -0.4053 -0.9979
  656MOL0     H88519   3.414  -0.021  10.635 -0.4400  1.3985  0.3176
  656MOL0     H88520   3.871   0.083  10.652  0.0107 -1.6750 -0.3419
  656MOL0     H88521   4.047   0.135  10.782  0.4613  2.1499 -4.0478
  656MOL0     H88522   4.008   0.304  10.756  1.1348  0.5920  1.3486
  656MOL0     H88523   4.018   0.236  10.917 -1.3325 -2.7307  0.5577
  656MOL0     H88524   4.101   0.550  11.004  1.4002 -2.4757  0.6681
  656MOL0     H88525   4.176   0.714  11.167  1.9514 -0.7189  0.9358
  656MOL0     H88526   4.275   0.765  11.395  1.7958  1.8214  0.9244
  656MOL0     H88527   4.209   0.911  11.325 -2.7899  1.2652  1.0918
  656MOL0     H88528   4.306   0.943  11.524  0.4299 -0.6784  0.5398
  656MOL0     H88529   4.130   0.996  11.545  0.5225  0.6235  0.1674
  656MOL0     H88530   4.148   0.710  11.637 -0.1664 -1.2137  1.4093
  656MOL0     H88531   4.118   0.862  11.717  0.1579  0.8891 -1.8367
  656MOL0     H88532   4.393   0.779  11.658 -4.0346 -8.0990 -1.0720
  656MOL0     H88533   4.335   0.899  11.780  0.0069  0.7762 -0.1855
  656MOL0     H88534   4.407   0.667  11.870  0.8951  2.0431 -1.0008
  656MOL0     H88535   4.260   0.599  11.793  0.3811 -0.1925  0.0816
  656MOL0     H88536   4.145   0.799  11.934  0.6818  2.3429  2.8164
  656MOL0     H88537   4.180   0.641  11.999 -2.7430  2.2020  0.9811
  656MOL0     H88538   4.404   0.835  12.032  0.7615 -1.6837 -0.2118
  656MOL0     H88539   4.342   0.718  12.151 -2.7070 -1.5825 -0.3541
  656MOL0     H88540   4.208   0.982  12.083 -0.0368 -1.8953 -1.5921
  656MOL0     H88541   4.308   0.943  12.218  3.6547 -1.6103 -2.5719
  656MOL0     H88542   3.828   0.632  11.408 -1.3087 -2.3338 -1.9428
  656MOL0     H88543   3.747   0.496  11.259  1.0259 -2.2390  1.6080
  656MOL0     H88544   3.541   0.274  10.961 -0.3450  4.0285 -2.2187
  656MOL0     H88545   3.456   0.139  10.756  0.9158 -3.4663 -2.2042
  656MOL0     H88546   2.021   0.285  10.105  0.5224  0.8777 -2.0347
  656MOL0     H88547   1.870   0.292   9.905 -1.4652 -1.1081  0.4387
  656MOL0     H88548   1.657   0.801   9.550 -2.8004  0.4287  0.2101
  656MOL0     H88549   1.610   0.740   9.301  1.5109  1.2238  0.6126
  656MOL0     H88550   1.386   0.361   9.231 -0.0941 -0.0367  0.2554
  656MOL0     H88551   1.343   0.518   9.284 -0.2918 -1.0758  0.1856
  656MOL0     H88552   1.335   0.597   9.068  0.6475  0.9199  1.4360
  656MOL0     H88553   1.251   0.445   9.068 -1.0824  2.3459 -1.4996
  656MOL0     H88554   1.459   0.336   8.986  0.3177  0.8227  4.3130
  656MOL0     H88555   1.529   0.496   8.952 -0.9503  0.3448  1.8859
  656MOL0     H88556   1.262   0.412   8.841 -0.5913  2.5070  2.4084
  656MOL0     H88557   1.404   0.374   8.754 -0.5556 -1.3337  0.9991
  656MOL0     H88558   1.392   0.802   8.694  0.9480 -0.2228 -1.2382
  656MOL0     H88559   1.555   0.328   9.410  0.7046 -1.2134  4.0070
  656MOL0     H88560   1.633   0.385   9.648  0.5435  1.5117  1.5478
  657MOL0     O88561   8.711   0.560   1.987  0.1917  0.3048 -0.0391
  657MOL0     C88562   8.616   0.629   1.975 -0.0247 -1.0946  0.3730
  657MOL0     O88563   8.521   0.612   1.875 -0.5576 -0.6561  0.1772
  657MOL0     C88564   8.541   0.522   1.770 -0.1342 -0.7644 -0.5524
  657MOL0     C88565   8.633   0.423   1.741  0.4430  0.4746 -0.2417
  657MOL0     C88566   8.615   0.338   1.635  0.1097  0.1376 -0.8877
  657MOL0     C88567   8.514   0.344   1.549  0.2536  1.3266 -0.6500
  657MOL0     O88568   8.504   0.241   1.455  0.2676 -0.5520 -0.6603
  657MOL0     C88569   8.395   0.251   1.358  0.4362 -0.1742  0.1706
  657MOL0     C88570   8.444   0.164   1.240  0.4762 -0.0493  0.8491
  657MOL0     C88571   8.335   0.177   1.128 -0.4963 -0.3699  0.9762
  657MOL0     C88572   8.330   0.296   1.044  0.5372  0.6397 -0.0392
  657MOL0     C88573   8.269   0.273   0.912 -0.8625  0.2485  0.1707
  657MOL0     C88574   8.277   0.408   0.837  0.0955  0.8055  0.0533
  657MOL0     C88575   8.204   0.376   0.699 -0.1636  0.4522 -0.8209
  657MOL0     C88576   8.050   0.359   0.717 -0.3786  0.5006 -0.0436
  657MOL0     N88577   7.977   0.359   0.589 -0.4089  0.0656  0.2041
  657MOL0     C88578   7.984   0.256   0.500  0.7426  0.1683 -0.8144
  657MOL0     C88579   7.926   0.305   0.391 -0.0582 -0.6466  0.4860
  657MOL0     C88580   7.899   0.239   0.254 -0.3396  0.4798  0.1001
  657MOL0     C88581   8.044   0.224   0.188 -0.7186 -0.0311 -0.6326
  657MOL0     C88582   8.098   0.358   0.138  0.1175  0.1004  0.2635
  657MOL0     C88583   8.241   0.327   0.098 -0.0012  0.7460  0.0287
  657MOL0     O88584   8.293   0.441   0.018 -0.2460 -0.9661 -0.3797
  657MOL0     C88585   8.350   0.553   0.083 -0.2145  0.5784 -1.3323
  657MOL0     C88586   8.396   0.547   0.220 -0.0588  0.2598 -0.0446
  657MOL0     C88587   8.460   0.655   0.290  0.3814 -0.9822  0.3140
  657MOL0     C88588   8.492   0.652   0.438  0.0935 -0.0155 -0.1873
  657MOL0     C88589   8.488   0.772   0.210  0.5539  0.1283  0.6551
  657MOL0     C88590   8.558   0.890   0.253 -0.0352  0.4657  0.2575
  657MOL0     O88591   8.523   1.007   0.192  0.8485  0.6909 -0.1706
  657MOL0     C88592   8.594   1.128   0.201 -0.6657 -0.7077 -0.2813
  657MOL0     C88593   8.709   1.150   0.273 -0.8838 -0.7767 -0.4572
  657MOL0     C88594   8.772   1.274   0.259 -1.1852 -0.3602 -0.2569
  657MOL0     C88595   8.702   1.387   0.209  0.9410  0.0192 -0.6398
  657MOL0     O88596   8.754   1.505   0.240 -0.0323  0.5641  0.5419
  657MOL0     C88597   8.689   1.624   0.205  0.5578 -0.1486 -0.1252
  657MOL0     C88598   8.749   1.742   0.284  0.5123  0.7522  0.4946
  657MOL0     C88599   8.758   1.723   0.430 -0.7285 -0.2500  0.5705
  657MOL0     C88600   8.634   1.706   0.513  0.3110  0.4823 -0.4192
  657MOL0     C88601   8.657   1.719   0.664 -0.1212 -0.6865 -0.2468
  657MOL0     C88602   8.718   1.600   0.729 -0.1718 -0.3892 -0.2220
  657MOL0     C88603   8.738   1.619   0.882 -0.4283  0.5241  1.6608
  657MOL0     C88604   8.746   1.477   0.943  0.0976 -0.3063 -0.1042
  657MOL0    Cl88605   8.767   1.477   1.118 -0.1245  0.1554  0.1622
  657MOL0     C88606   8.596   1.361   0.127 -0.6477 -0.5330 -0.6453
  657MOL0     C88607   8.544   1.231   0.118 -0.5938 -0.5227 -0.0382
  657MOL0     O88608   8.642   0.878   0.341  0.0285 -0.1883  0.2038
  657MOL0     C88609   8.447   0.768   0.077 -0.1923  0.3302 -1.0896
  657MOL0     C88610   8.377   0.663   0.016 -0.1813 -0.4640 -0.8154
  657MOL0     N88611   7.894   0.434   0.411  0.7456 -0.9102  0.3771
  657MOL0     N88612   7.934   0.467   0.526  0.5145  0.6296 -0.3059
  657MOL0     C88613   8.415   0.438   1.582 -0.2785 -0.2442  0.4255
  657MOL0     C88614   8.431   0.529   1.682  0.0227  0.6181 -0.3221
  657MOL0     C88615   8.601   0.741   2.067  0.0033 -0.7840  0.4693
  657MOL0     C88616   8.495   0.833   2.039  0.5827  0.4962  0.2038
  657MOL0     C88617   8.486   0.949   2.113 -0.1215 -0.9596  0.0735
  657MOL0     C88618   8.577   0.972   2.216  0.8632 -0.4018 -0.5677
  657MOL0     O88619   8.552   1.075   2.301 -0.0351  0.1333  0.1042
  657MOL0     C88620   8.480   1.030   2.420 -0.9560  0.8015  0.5604
  657MOL0     C88621   8.481   1.119   2.542 -0.5037  0.6374  0.5885
  657MOL0     C88622   8.340   1.119   2.598  1.0738 -0.6536  0.3590
  657MOL0     C88623   8.338   1.210   2.730 -0.2080  0.5932  0.3594
  657MOL0     C88624   8.348   1.354   2.693 -0.0839  0.5592 -0.5043
  657MOL0     C88625   8.348   1.470   2.658 -0.0819  0.4874 -0.2671
  657MOL0     C88626   8.678   0.882   2.245 -0.5587  0.3068 -0.2850
  657MOL0     C88627   8.691   0.766   2.171  0.0133  0.7916 -0.5831
  657MOL0     H88628   8.718   0.404   1.806 -0.4289  0.1048  0.8311
  657MOL0     H88629   8.674   0.247   1.637 -3.1279 -2.1572 -0.6955
  657MOL0     H88630   8.300   0.207   1.389  2.3486 -3.5324  1.8721
  657MOL0     H88631   8.392   0.359   1.342  1.8649  0.3193  2.7418
  657MOL0     H88632   8.540   0.212   1.217  1.8237 -2.6876  0.6471
  657MOL0     H88633   8.461   0.059   1.265  2.8309 -0.9923 -3.6040
  657MOL0     H88634   8.355   0.095   1.057 -2.4911  1.5298 -1.9958
  657MOL0     H88635   8.235   0.160   1.168 -1.0212  3.0266  1.4019
  657MOL0     H88636   8.278   0.368   1.108  3.5001 -0.8745  4.5283
  657MOL0     H88637   8.434   0.328   1.035  0.0582  2.1947 -0.5991
  657MOL0     H88638   8.334   0.211   0.850 -2.8282 -0.0510 -1.7014
  657MOL0     H88639   8.171   0.225   0.905  0.2043 -2.1322  0.4753
  657MOL0     H88640   8.226   0.489   0.889 -1.8240  0.9753 -1.9361
  657MOL0     H88641   8.380   0.445   0.826  0.7442  0.9148  4.6637
  657MOL0     H88642   8.222   0.468   0.644 -0.7806  1.7107  0.9974
  657MOL0     H88643   8.243   0.296   0.636 -3.9282 -1.7636 -0.6752
  657MOL0     H88644   8.018   0.438   0.786 -1.0032  1.4110 -1.3548
  657MOL0     H88645   8.041   0.260   0.763  1.7912  0.3958  0.2469
  657MOL0     H88646   8.011   0.153   0.523 -0.7135 -0.2486 -0.8871
  657MOL0     H88647   7.866   0.138   0.278  1.6126  0.1063  1.4892
  657MOL0     H88648   7.844   0.298   0.180  0.1268 -0.1162 -0.7387
  657MOL0     H88649   8.038   0.151   0.107 -1.1358 -0.1286 -0.5130
  657MOL0     H88650   8.116   0.179   0.258 -4.4810 -0.9557  3.0210
  657MOL0     H88651   8.103   0.438   0.212 -0.7971  2.6561 -2.2542
  657MOL0     H88652   8.040   0.398   0.054 -0.6364  1.9305  1.5945
  657MOL0     H88653   8.261   0.236   0.041  1.3859  1.2201 -0.2980
  657MOL0     H88654   8.312   0.316   0.181  1.3302  0.9390 -1.0505
  657MOL0     H88655   8.394   0.454   0.276  2.2763  0.6686  0.8312
  657MOL0     H88656   8.426   0.720   0.492 -0.4424 -0.0264 -0.8143
  657MOL0     H88657   8.462   0.553   0.474 -0.0700 -0.0861 -0.5133
  657MOL0     H88658   8.598   0.674   0.456  0.0964 -0.3351  0.2019
  657MOL0     H88659   8.756   1.073   0.333  1.1511 -0.6429 -1.7501
  657MOL0     H88660   8.861   1.298   0.315 -0.1366 -1.4437 -1.4013
  657MOL0     H88661   8.702   1.643   0.098 -0.0171 -2.6881 -0.7015
  657MOL0     H88662   8.583   1.609   0.224  0.3639  0.0275 -1.0219
  657MOL0     H88663   8.849   1.758   0.242  0.4407  1.6710  0.6629
  657MOL0     H88664   8.696   1.836   0.269  1.2970  0.7816 -2.9893
  657MOL0     H88665   8.805   1.820   0.447  2.2310 -1.5785  0.6552
  657MOL0     H88666   8.826   1.642   0.461 -2.3592 -1.3284  1.4855
  657MOL0     H88667   8.576   1.791   0.479  1.0041  0.6950 -1.1045
  657MOL0     H88668   8.582   1.612   0.493  2.9250 -0.9435 -1.0582
  657MOL0     H88669   8.559   1.739   0.707  1.2623  2.5268  1.8644
  657MOL0     H88670   8.730   1.798   0.688  1.1218 -2.1157  0.9242
  657MOL0     H88671   8.653   1.517   0.703  2.2067 -2.6434  0.6262
  657MOL0     H88672   8.811   1.574   0.678  0.3388 -0.9607  0.9637
  657MOL0     H88673   8.647   1.665   0.922 -0.6398  0.8164  0.8557
  657MOL0     H88674   8.825   1.683   0.891 -0.7021  1.0098  0.9638
  657MOL0     H88675   8.838   1.433   0.902 -1.1164  1.5893 -5.7469
  657MOL0     H88676   8.661   1.425   0.898  0.4834 -1.7061  0.7161
  657MOL0     H88677   8.537   1.435   0.074  0.2871  0.6423 -0.0816
  657MOL0     H88678   8.459   1.220   0.051 -0.0444 -0.0681 -0.8279
  657MOL0     H88679   8.470   0.859   0.024 -1.6387  0.8909 -0.7954
  657MOL0     H88680   8.367   0.682  -0.091  1.8571  0.2702 -0.9248
  657MOL0     H88681   8.326   0.431   1.520  1.7004 -0.9534 -2.5673
  657MOL0     H88682   8.355   0.607   1.684  0.9481  1.5392  0.2912
  657MOL0     H88683   8.419   0.812   1.965  1.6110 -1.2933 -0.4092
  657MOL0     H88684   8.405   1.021   2.109 -0.5867 -1.3921  1.2951
  657MOL0     H88685   8.375   1.013   2.392 -0.4611  1.2906 -1.7979
  657MOL0     H88686   8.523   0.939   2.461  1.1429  2.0557  1.3068
  657MOL0     H88687   8.524   1.219   2.532 -3.1326  2.3759  4.3470
  657MOL0     H88688   8.543   1.079   2.623  0.9777  0.8092 -0.4152
  657MOL0     H88689   8.311   1.016   2.619 -0.1759 -0.0835  1.6603
  657MOL0     H88690   8.263   1.161   2.533  0.9761 -2.6293 -0.8874
  657MOL0     H88691   8.426   1.192   2.792  0.5118  3.9135  0.5142
  657MOL0     H88692   8.255   1.174   2.790  0.5511 -1.3062  0.3276
  657MOL0     H88693   8.347   1.573   2.627  0.6425  0.9519  1.1823
  657MOL0     H88694   8.740   0.907   2.330 -3.2347  4.3396  0.7598
  657MOL0     H88695   8.782   0.707   2.182  0.8065  1.9903 -0.5756
  658MOL0     O88696   1.688   9.684   9.080  0.4748  0.4416 -0.2839
  658MOL0     C88697   1.673   9.595   9.166  0.4095  0.1836  0.6483
  658MOL0     O88698   1.586   9.588   9.268  0.7763 -0.6594 -0.1404
  658MOL0     C88699   1.480   9.673   9.297 -0.4116 -0.2849  0.0253
  658MOL0     C88700   1.450   9.679   9.433  0.2964 -0.4706 -0.2964
  658MOL0     C88701   1.346   9.761   9.485  0.0535  0.0042  0.6354
  658MOL0     C88702   1.273   9.837   9.394 -0.4483  0.6119  0.2596
  658MOL0     O88703   1.168   9.914   9.426 -0.2275  0.6353  0.3429
  658MOL0     C88704   1.040   9.860   9.400  0.2085  0.2592 -0.0180
  658MOL0     C88705   0.930   9.945   9.452  0.5027  0.6210 -0.1379
  658MOL0     C88706   0.915  10.085   9.380  0.7549 -0.8508  0.3427
  658MOL0     C88707   0.808  10.168   9.453  1.0421 -0.1761 -0.2290
  658MOL0     C88708   0.791  10.298   9.383  1.0621 -0.5588 -0.1277
  658MOL0     C88709   0.751  10.407   9.480  0.5217  0.7955  0.4646
  658MOL0     C88710   0.620  10.380   9.544 -0.4344 -0.3330  0.0554
  658MOL0     C88711   0.564  10.516   9.604  0.4116  0.6422 -0.8674
  658MOL0     N88712   0.436  10.506   9.682  1.8132 -0.2284  0.2673
  658MOL0     C88713   0.317  10.577   9.654  0.6943 -0.4398  0.6565
  658MOL0     C88714   0.216  10.511   9.711  0.5832  0.8679  0.0645
  658MOL0     C88715   0.073  10.533   9.666 -0.2360 -0.1144  0.4600
  658MOL0     C88716   0.029  10.428   9.563  0.0958  0.5963 -0.3306
  658MOL0     C88717   0.062  10.280   9.611 -0.5761 -1.2307  0.7051
  658MOL0     C88718  -0.003  10.188   9.510 -0.7298  0.2997 -0.2554
  658MOL0     O88719   0.034  10.213   9.378 -0.5167 -0.0759 -0.5293
  658MOL0     C88720   0.152  10.185   9.324  1.4269 -0.2773 -0.4637
  658MOL0     C88721   0.177  10.232   9.196  0.1777 -0.5558  0.2001
  658MOL0     C88722   0.296  10.222   9.124 -0.5610  0.6309  0.4357
  658MOL0     C88723   0.305  10.270   8.974  0.7832  0.0970 -0.4983
  658MOL0     C88724   0.403  10.175   9.197  0.1248 -0.3186  0.1212
  658MOL0     C88725   0.534  10.147   9.130  1.3940  0.4245 -0.1402
  658MOL0     O88726   0.567  10.212   9.015  0.2058  0.8571 -0.4402
  658MOL0     C88727   0.660  10.156   8.935 -0.0089  0.7689 -0.2977
  658MOL0     C88728   0.792  10.184   8.954 -1.0299  0.5003  0.6966
  658MOL0     C88729   0.881  10.138   8.856 -0.2641 -0.1301 -1.3221
  658MOL0     C88730   0.843  10.076   8.740 -0.9196  0.6303 -0.6119
  658MOL0     O88731   0.931  10.028   8.643  0.1470  0.4715  0.0555
  658MOL0     C88732   1.008  10.129   8.581 -0.3382  0.9579  1.2697
  658MOL0     C88733   1.160  10.091   8.579  0.5010  0.0112 -0.3039
  658MOL0     C88734   1.240  10.200   8.514  0.1089 -0.0500  0.1878
  658MOL0     C88735   1.395  10.182   8.515  0.4456  0.2552  0.1058
  658MOL0     C88736   1.463  10.289   8.429  0.7612  0.9983 -0.3901
  658MOL0     C88737   1.611  10.263   8.422 -1.0670 -0.3085  0.4049
  658MOL0     C88738   1.686  10.325   8.542  0.3519  0.3366  0.1759
  658MOL0     C88739   1.757  10.452   8.495 -0.4668 -0.4930 -0.3120
  658MOL0    Cl88740   1.828  10.538   8.643  0.4910 -0.0579  0.0975
  658MOL0     C88741   0.706  10.046   8.722 -0.3205 -0.8625  0.1397
  658MOL0     C88742   0.620  10.085   8.817 -0.5223 -0.6437 -0.6072
  658MOL0     O88743   0.608  10.075   9.186 -0.6317 -0.9638 -0.9950
  658MOL0     C88744   0.384  10.134   9.331  0.0797 -0.3164 -0.5507
  658MOL0     C88745   0.261  10.138   9.390 -0.2083  0.7080  0.3584
  658MOL0     N88746   0.267  10.407   9.785 -0.7244  0.2896  0.3576
  658MOL0     N88747   0.394  10.412   9.772  0.0519 -0.9250  0.0064
  658MOL0     C88748   1.305   9.841   9.258  0.4519 -0.3536 -1.7328
  658MOL0     C88749   1.407   9.758   9.206  0.4687  0.5088  0.0173
  658MOL0     C88750   1.758   9.472   9.141  0.1070  0.4394  0.6989
  658MOL0     C88751   1.741   9.350   9.218  0.4656  0.3797 -0.1095
  658MOL0     C88752   1.811   9.231   9.193  0.2912  0.2526  0.7368
  658MOL0     C88753   1.896   9.220   9.083 -0.0303 -0.5649 -0.2867
  658MOL0     O88754   1.972   9.113   9.047 -0.1344  0.8803 -0.0960
  658MOL0     C88755   1.935   8.982   9.094 -0.1458  0.5127  0.0417
  658MOL0     C88756   2.037   8.884   9.067 -0.3028 -0.8981  0.9044
  658MOL0     C88757   2.036   8.851   8.917  1.1026 -0.7541  0.3614
  658MOL0     C88758   2.150   8.743   8.869  0.1709 -0.7570 -0.6087
  658MOL0     C88759   2.119   8.602   8.890 -0.0753  0.4778  0.8820
  658MOL0     C88760   2.057   8.497   8.883 -0.5899  0.2239 -0.3219
  658MOL0     C88761   1.910   9.332   9.004  0.0677  0.2975 -0.4448
  658MOL0     C88762   1.847   9.451   9.032 -0.8320 -0.4162  0.5078
  658MOL0     H88763   1.511   9.624   9.504 -0.3159  1.6083  2.0137
  658MOL0     H88764   1.316   9.757   9.589 -1.7481  0.1055  0.1379
  658MOL0     H88765   1.013   9.862   9.294 -1.2507  0.5574  0.3361
  658MOL0     H88766   1.035   9.761   9.445 -1.0611  0.0699 -0.5404
  658MOL0     H88767   0.840   9.886   9.434  0.1742  1.6158 -2.0688
  658MOL0     H88768   0.937   9.949   9.561  1.0808 -3.9638  0.1983
  658MOL0     H88769   1.010  10.138   9.373 -0.2120  1.0611  0.8196
  658MOL0     H88770   0.875  10.058   9.282 -1.6515  3.4785 -0.1607
  658MOL0     H88771   0.714  10.113   9.458 -0.6583  2.6194  1.4086
  658MOL0     H88772   0.853  10.179   9.552 -0.6746  0.6779  0.5089
  658MOL0     H88773   0.877  10.324   9.321  0.6595  0.1370 -0.4038
  658MOL0     H88774   0.709  10.285   9.311  1.7134  0.1377 -1.0231
  658MOL0     H88775   0.832  10.415   9.554  1.8501  0.3799 -0.8780
  658MOL0     H88776   0.747  10.507   9.436 -0.2730  0.1467 -0.9869
  658MOL0     H88777   0.551  10.346   9.466 -1.5213 -1.2569  1.3837
  658MOL0     H88778   0.640  10.307   9.623  0.6468 -3.1761 -2.5920
  658MOL0     H88779   0.530  10.581   9.523 -2.9707 -1.1280 -1.0715
  658MOL0     H88780   0.645  10.554   9.667  1.2454 -1.9268 -0.2515
  658MOL0     H88781   0.314  10.660   9.584 -0.9390 -0.5577  0.5549
  658MOL0     H88782   0.004  10.525   9.751 -0.4522 -1.8923  0.1548
  658MOL0     H88783   0.062  10.627   9.612 -1.9706 -1.0251 -0.8855
  658MOL0     H88784   0.093  10.443   9.475  1.9908  0.6924  0.9982
  658MOL0     H88785  -0.079  10.431   9.543 -0.1125 -3.2143 -0.4240
  658MOL0     H88786   0.021  10.276   9.712  3.1585  1.9995  2.6302
  658MOL0     H88787   0.168  10.263   9.594 -0.8704  0.3590 -4.5806
  658MOL0     H88788  -0.112  10.194   9.525 -1.3539  2.2906 -4.1468
  658MOL0     H88789   0.022  10.090   9.552 -2.0434 -0.0041 -0.1106
  658MOL0     H88790   0.104  10.276   9.129  0.5551  2.2558  1.4688
  658MOL0     H88791   0.203  10.290   8.938  0.1779  0.2475  1.2142
  658MOL0     H88792   0.364  10.361   8.974  2.1531 -0.6288  3.2353
  658MOL0     H88793   0.341  10.194   8.904  0.2369 -0.6183 -0.0266
  658MOL0     H88794   0.838  10.242   9.033  2.1763 -1.6461  0.6219
  658MOL0     H88795   0.985  10.161   8.880 -1.1081  2.2596  0.5015
  658MOL0     H88796   0.986  10.133   8.474 -2.0787  0.7447  1.5888
  658MOL0     H88797   1.000  10.225   8.633 -0.5590  1.3016  0.6030
  658MOL0     H88798   1.194  10.074   8.681 -0.4389 -0.8567 -0.1238
  658MOL0     H88799   1.177   9.999   8.523  0.8557 -0.0142 -0.1585
  658MOL0     H88800   1.211  10.282   8.580 -3.1877 -1.1018  0.1950
  658MOL0     H88801   1.191  10.218   8.418 -3.2700  0.2108  1.8347
  658MOL0     H88802   1.436  10.194   8.615  2.0743 -1.5501 -0.2924
  658MOL0     H88803   1.407  10.081   8.474 -0.0479  0.8385 -1.5901
  658MOL0     H88804   1.448  10.386   8.478 -0.2816 -0.2200  1.8504
  658MOL0     H88805   1.417  10.283   8.330  1.2820 -1.3195 -0.5417
  658MOL0     H88806   1.645  10.161   8.404  3.7148  1.0638  0.4684
  658MOL0     H88807   1.647  10.319   8.336  2.6073  1.6939  2.9801
  658MOL0     H88808   1.763  10.256   8.577 -2.0336 -1.5897  1.9038
  658MOL0     H88809   1.617  10.352   8.622 -1.4303  3.1100 -2.0730
  658MOL0     H88810   1.695  10.531   8.451  2.6310  2.0009 -0.5224
  658MOL0     H88811   1.846  10.430   8.436 -0.0172 -0.3316  0.3011
  658MOL0     H88812   0.674   9.988   8.637  0.2642 -0.5368 -0.3112
  658MOL0     H88813   0.514  10.061   8.816 -0.1297 -2.5839  0.0938
  658MOL0     H88814   0.470  10.100   9.388  2.1886  0.7661 -2.8936
  658MOL0     H88815   0.242  10.097   9.489 -2.6058 -4.2298 -1.8080
  658MOL0     H88816   1.249   9.912   9.197 -0.3605 -2.0906 -3.0842
  658MOL0     H88817   1.428   9.750   9.100 -1.4685  1.4227 -0.4742
  658MOL0     H88818   1.666   9.342   9.296  0.2539  0.5784 -0.2941
  658MOL0     H88819   1.790   9.156   9.269 -4.7831  1.0357  0.4542
  658MOL0     H88820   1.916   8.971   9.201  0.1407 -2.4395 -0.1386
  658MOL0     H88821   1.839   8.951   9.051 -0.7311 -1.0746  2.3195
  658MOL0     H88822   2.012   8.790   9.119  0.9998 -1.4279  0.6152
  658MOL0     H88823   2.129   8.930   9.102  0.0642 -0.7097 -0.2698
  658MOL0     H88824   2.065   8.942   8.864  0.8686 -1.0330 -0.2615
  658MOL0     H88825   1.937   8.820   8.881  1.3750 -1.3868  0.1325
  658MOL0     H88826   2.241   8.762   8.926  0.0971  0.0375 -0.7487
  658MOL0     H88827   2.162   8.760   8.761 -1.5321 -0.6388 -0.8081
  658MOL0     H88828   2.006   8.403   8.873 -1.6235  0.5720  1.3483
  658MOL0     H88829   1.972   9.335   8.914  3.6329 -1.6229  1.7295
  658MOL0     H88830   1.851   9.535   8.964 -0.0181  2.3552  3.6791
  659MOL0     O88831   0.262   9.547   7.555  0.2920 -0.2679 -0.4837
  659MOL0     C88832   0.328   9.626   7.619  0.3862 -1.2394 -0.2881
  659MOL0     O88833   0.442   9.681   7.578 -0.1249 -0.0941  0.5181
  659MOL0     C88834   0.510   9.644   7.462  0.9235 -0.1040 -0.2393
  659MOL0     C88835   0.626   9.723   7.446  0.8235 -0.4858 -0.2276
  659MOL0     C88836   0.704   9.703   7.334  0.3377 -0.2841 -0.8498
  659MOL0     C88837   0.678   9.600   7.238 -0.0086 -0.3480 -0.2051
  659MOL0     O88838   0.759   9.554   7.133  0.7103 -0.0632  0.0115
  659MOL0     C88839   0.871   9.637   7.094  0.1938  0.8938 -0.8961
  659MOL0     C88840   0.947   9.580   6.974  0.4638  0.1542  0.0263
  659MOL0     C88841   1.069   9.670   6.929 -0.5039  0.0255 -0.3983
  659MOL0     C88842   1.190   9.582   6.889  0.1892 -0.1888 -0.4034
  659MOL0     C88843   1.158   9.476   6.779 -0.1860  0.1763 -0.3964
  659MOL0     C88844   1.301   9.435   6.741  0.1334  0.0477  1.1269
  659MOL0     C88845   1.395   9.362   6.849 -0.1052  0.9246 -0.1119
  659MOL0     C88846   1.526   9.326   6.781  0.9943 -0.0505 -0.6381
  659MOL0     N88847   1.608   9.441   6.733  0.3705 -0.5579  0.3491
  659MOL0     C88848   1.605   9.501   6.608  0.3223  0.1470  0.1726
  659MOL0     C88849   1.716   9.579   6.591 -0.8306 -0.4478  0.5845
  659MOL0     C88850   1.753   9.677   6.472  0.9222 -0.2293 -0.1756
  659MOL0     C88851   1.687   9.659   6.333 -0.5440  0.2830 -0.9796
  659MOL0     C88852   1.732   9.535   6.266 -0.5831 -0.5174 -0.0995
  659MOL0     C88853   1.681   9.544   6.127 -0.0988 -0.4631 -0.5068
  659MOL0     O88854   1.725   9.437   6.038 -0.2727  0.1750 -0.5317
  659MOL0     C88855   1.680   9.314   6.080 -0.0218  0.5127  0.5371
  659MOL0     C88856   1.786   9.224   6.048 -0.3998  1.3297  0.6124
  659MOL0     C88857   1.772   9.077   6.055  0.0878 -1.4410 -0.5227
  659MOL0     C88858   1.890   9.005   5.987  0.5415 -0.2512  0.6761
  659MOL0     C88859   1.660   9.029   6.121  0.3143 -0.2868  0.0628
  659MOL0     C88860   1.626   8.885   6.112  0.6019 -0.6891 -0.6615
  659MOL0     O88861   1.692   8.808   6.019 -0.1932 -1.4549  0.0557
  659MOL0     C88862   1.644   8.681   5.995  0.5166  0.5722  0.7423
  659MOL0     C88863   1.714   8.564   6.010 -0.0665  0.2760 -0.4072
  659MOL0     C88864   1.654   8.447   5.977  0.2443 -0.1377 -0.4564
  659MOL0     C88865   1.521   8.433   5.938  0.8159 -0.4708  0.5919
  659MOL0     O88866   1.452   8.308   5.927  0.5133 -0.0552  1.1776
  659MOL0     C88867   1.505   8.180   5.965 -0.6739  0.4181 -0.2934
  659MOL0     C88868   1.421   8.072   5.897 -0.0788 -0.2614 -0.5722
  659MOL0     C88869   1.279   8.069   5.939 -0.1766  0.0442 -0.7253
  659MOL0     C88870   1.252   8.001   6.079 -0.6125 -0.5799 -0.5320
  659MOL0     C88871   1.125   7.929   6.107  0.2059 -0.4367  0.1248
  659MOL0     C88872   1.014   8.041   6.116 -1.0877  0.0276  0.1744
  659MOL0     C88873   1.007   8.099   6.258  0.2289 -0.7119 -0.3627
  659MOL0     C88874   0.876   8.149   6.302 -1.3478  1.3039  1.4822
  659MOL0    Cl88875   0.879   8.163   6.474 -0.1386 -0.2219 -0.0166
  659MOL0     C88876   1.447   8.548   5.925  0.0490 -1.2214  0.0269
  659MOL0     C88877   1.508   8.672   5.947  0.5495 -0.9732 -0.5038
  659MOL0     O88878   1.535   8.846   6.180  0.6638  0.0149 -0.2409
  659MOL0     C88879   1.562   9.118   6.171 -0.4136 -0.7178  0.1372
  659MOL0     C88880   1.570   9.260   6.151 -0.3193 -0.5652 -0.1780
  659MOL0     N88881   1.790   9.570   6.705  0.1378 -0.6278 -0.4043
  659MOL0     N88882   1.725   9.492   6.787  0.0290 -0.5443  0.0909
  659MOL0     C88883   0.555   9.524   7.255  0.3554 -0.3287  0.1905
  659MOL0     C88884   0.476   9.544   7.367  0.2678 -0.4101 -0.3272
  659MOL0     C88885   0.264   9.671   7.739 -0.0333  0.2769 -0.6462
  659MOL0     C88886   0.316   9.783   7.815 -0.2144  0.1148  0.0868
  659MOL0     C88887   0.250   9.833   7.928 -0.2041  0.3049  0.2104
  659MOL0     C88888   0.123   9.780   7.960  0.1497  0.1299 -0.3297
  659MOL0     O88889   0.035   9.831   8.047  0.5452  0.1939 -0.3322
  659MOL0     C88890   0.052   9.971   8.084 -1.5243 -0.2957 -0.3716
  659MOL0     C88891  -0.085  10.046   8.091 -0.9020  0.8879 -0.8339
  659MOL0     C88892  -0.157  10.052   7.957  0.1689  0.6398  0.2714
  659MOL0     C88893  -0.233  10.176   7.913 -0.5150 -0.1367 -0.0765
  659MOL0     C88894  -0.280  10.153   7.785 -0.0728 -0.2957 -0.2865
  659MOL0     C88895  -0.342  10.141   7.684  1.3381  0.3132 -0.5060
  659MOL0     C88896   0.080   9.669   7.886 -0.0839  0.2160  0.2387
  659MOL0     C88897   0.147   9.610   7.779  1.4075 -0.0755  0.1069
  659MOL0     H88898   0.657   9.801   7.514 -0.4669  0.3299 -0.5442
  659MOL0     H88899   0.794   9.763   7.326  0.5337 -0.5987 -1.0596
  659MOL0     H88900   0.842   9.742   7.085  0.6968  1.2685  1.2376
  659MOL0     H88901   0.942   9.633   7.177 -0.5517  0.3238 -0.2642
  659MOL0     H88902   0.986   9.481   6.996  0.6420 -0.5226 -2.8887
  659MOL0     H88903   0.884   9.567   6.886 -0.7907  0.6531  0.8253
  659MOL0     H88904   1.054   9.727   6.837  2.3060  2.5632  0.5216
  659MOL0     H88905   1.096   9.744   7.006  1.2518 -0.0785 -0.8755
  659MOL0     H88906   1.273   9.647   6.860 -0.2808  0.7500  0.2662
  659MOL0     H88907   1.210   9.525   6.980 -2.1701 -0.1193  0.2359
  659MOL0     H88908   1.107   9.387   6.817  0.7475 -0.9754 -1.7497
  659MOL0     H88909   1.098   9.522   6.700 -1.4467  0.9767  0.9625
  659MOL0     H88910   1.292   9.357   6.665 -0.2879  1.0030  0.1657
  659MOL0     H88911   1.355   9.524   6.705  0.5848 -0.7235 -0.1369
  659MOL0     H88912   1.407   9.433   6.931  2.7996  0.2158  0.1845
  659MOL0     H88913   1.351   9.277   6.903  2.0807  1.5595  2.8732
  659MOL0     H88914   1.495   9.275   6.689  1.2952 -2.0195  0.3031
  659MOL0     H88915   1.580   9.258   6.847 -2.9412  0.4013  3.5942
  659MOL0     H88916   1.522   9.507   6.539 -1.6516  0.1990  2.4528
  659MOL0     H88917   1.731   9.777   6.510  0.1624 -1.2572  2.2527
  659MOL0     H88918   1.862   9.668   6.471  1.1222 -0.7440  4.4765
  659MOL0     H88919   1.724   9.746   6.278 -0.2296  1.5575  1.1362
  659MOL0     H88920   1.578   9.661   6.341 -0.5032 -1.1930  0.1895
  659MOL0     H88921   1.686   9.447   6.313  0.4437 -1.5721 -1.0022
  659MOL0     H88922   1.840   9.523   6.264 -0.4282  0.7573  0.1308
  659MOL0     H88923   1.718   9.639   6.087 -0.3646 -1.0798 -2.3493
  659MOL0     H88924   1.572   9.554   6.136  0.1804  2.5934  0.5827
  659MOL0     H88925   1.868   9.278   6.001  0.0418 -0.4391 -0.7214
  659MOL0     H88926   1.936   8.932   6.053  3.0684  1.1697  0.6018
  659MOL0     H88927   1.862   8.957   5.893  0.4071 -1.4058  1.2906
  659MOL0     H88928   1.968   9.074   5.952  2.1871 -4.1250 -4.4672
  659MOL0     H88929   1.817   8.566   6.043  0.2734  0.9962 -1.4412
  659MOL0     H88930   1.710   8.356   5.994  0.2323 -0.0737 -0.0592
  659MOL0     H88931   1.611   8.162   5.943 -1.0043 -0.4476 -1.2534
  659MOL0     H88932   1.497   8.164   6.073 -0.1136  0.6843 -0.2112
  659MOL0     H88933   1.412   8.090   5.790 -1.1177 -1.7291 -0.7644
  659MOL0     H88934   1.461   7.971   5.912  1.1699  0.1846 -0.8292
  659MOL0     H88935   1.223   8.014   5.863 -1.2428 -2.0691  1.4595
  659MOL0     H88936   1.233   8.168   5.934 -4.2904 -1.6905 -1.6708
  659MOL0     H88937   1.318   7.917   6.103 -3.0606 -1.7469  2.8339
  659MOL0     H88938   1.277   8.069   6.161  2.9830 -2.6691  0.2926
  659MOL0     H88939   1.129   7.857   6.189  1.8680 -0.5184 -0.0072
  659MOL0     H88940   1.092   7.874   6.019 -2.5392  1.9088 -0.4694
  659MOL0     H88941   1.034   8.122   6.046 -0.5168  0.4080  0.7685
  659MOL0     H88942   0.919   7.999   6.081 -1.9885  2.2153 -0.2046
  659MOL0     H88943   1.067   8.188   6.276 -2.0020  0.2427  3.4349
  659MOL0     H88944   1.039   8.030   6.337 -1.4837  1.4136  2.3775
  659MOL0     H88945   0.790   8.089   6.270  0.3886 -0.1891 -0.6202
  659MOL0     H88946   0.865   8.250   6.260 -2.9644  0.3668 -0.5534
  659MOL0     H88947   1.340   8.545   5.907 -0.1216 -2.3399  1.1252
  659MOL0     H88948   1.444   8.760   5.944 -2.1615 -2.6217  2.4632
  659MOL0     H88949   1.475   9.072   6.216 -0.8008  0.3523  0.5186
  659MOL0     H88950   1.493   9.326   6.190 -3.3775 -3.4291 -1.0137
  659MOL0     H88951   0.525   9.448   7.184 -0.2251  0.1747 -0.1175
  659MOL0     H88952   0.393   9.475   7.381  0.0654 -0.0377  0.3815
  659MOL0     H88953   0.415   9.825   7.800  0.1371 -1.1550 -1.3028
  659MOL0     H88954   0.297   9.906   7.992  0.0155 -2.1343  3.0241
  659MOL0     H88955   0.110   9.968   8.176 -1.3998 -2.0547 -0.4580
  659MOL0     H88956   0.121  10.023   8.018 -1.8699  1.0376  0.2900
  659MOL0     H88957  -0.076  10.151   8.123  0.6003  0.0628  1.7275
  659MOL0     H88958  -0.147   9.993   8.164 -2.4692  2.6052 -0.8097
  659MOL0     H88959  -0.219   9.962   7.946 -0.3932  1.2186 -1.9355
  659MOL0     H88960  -0.075  10.049   7.884 -0.8247  0.4164 -0.8616
  659MOL0     H88961  -0.169  10.264   7.915  0.4104 -0.7037 -2.1031
  659MOL0     H88962  -0.317  10.198   7.981 -1.8378 -1.3267 -1.2606
  659MOL0     H88963  -0.409  10.143   7.601  2.8126  3.1159 -1.7552
  659MOL0     H88964  -0.003   9.618   7.934  0.7257 -0.0822  1.3790
  659MOL0     H88965   0.098   9.515   7.762  2.6572 -0.6272 -0.5097
  660MOL0     O88966   7.617   1.369   7.966 -0.3425  0.0988  0.4674
  660MOL0     C88967   7.717   1.322   8.024  1.2004  0.0807  1.4402
  660MOL0     O88968   7.847   1.303   7.969 -0.2338  0.0025  0.3076
  660MOL0     C88969   7.864   1.358   7.849  0.0331  0.3241  0.2786
  660MOL0     C88970   7.949   1.467   7.840  0.7406 -0.6245 -0.7427
  660MOL0     C88971   7.968   1.540   7.718  1.1049  0.5889  0.2580
  660MOL0     C88972   7.887   1.495   7.603 -0.3309 -0.2388 -0.8204
  660MOL0     O88973   7.908   1.572   7.491 -0.2062  0.4028  0.1781
  660MOL0     C88974   7.980   1.507   7.376 -0.1700 -0.3935  0.2003
  660MOL0     C88975   8.133   1.492   7.405  0.6072 -0.3316  0.2279
  660MOL0     C88976   8.189   1.631   7.431 -0.5466 -0.2200  0.2971
  660MOL0     C88977   8.333   1.616   7.473 -0.6784 -0.5784 -0.7698
  660MOL0     C88978   8.381   1.748   7.536  0.3983  1.0526 -0.3552
  660MOL0     C88979   8.396   1.871   7.440 -0.6895 -0.5913  0.4846
  660MOL0     C88980   8.521   1.846   7.337  0.7014 -0.5781 -0.0602
  660MOL0     C88981   8.655   1.863   7.395  0.2153 -1.1171  0.1624
  660MOL0     N88982   8.762   1.827   7.312 -0.7843 -0.4617 -0.3665
  660MOL0     C88983   8.815   1.889   7.204  0.6543 -0.2307  0.2755
  660MOL0     C88984   8.903   1.807   7.148  0.3191  0.1289 -1.0862
  660MOL0     C88985   8.984   1.819   7.017  0.2660  0.2887 -0.1617
  660MOL0     C88986   8.927   1.907   6.909  0.0364 -1.0626 -0.0299
  660MOL0     C88987   8.911   2.056   6.942 -0.0148 -0.5620 -0.6586
  660MOL0     C88988   9.005   2.119   7.040 -1.3627 -0.3233 -0.1668
  660MOL0     O88989   9.132   2.121   6.970  0.4288 -0.0390  0.6732
  660MOL0     C88990   9.222   2.225   7.006  0.4301  1.1937 -0.8233
  660MOL0     C88991   9.240   2.263   7.132 -0.4928 -0.8037  0.2996
  660MOL0     C88992   9.355   2.329   7.178 -0.4770 -0.4071 -0.8353
  660MOL0     C88993   9.359   2.340   7.332  0.1158 -0.6503  0.1551
  660MOL0     C88994   9.464   2.359   7.095  0.1835 -0.5118 -0.4020
  660MOL0     C88995   9.585   2.447   7.133 -1.0502  0.5822 -0.3890
  660MOL0     O88996   9.676   2.468   7.028 -0.6832  0.7810 -0.0709
  660MOL0     C88997   9.805   2.489   7.054  0.1435  0.1243  0.9948
  660MOL0     C88998   9.867   2.441   7.173 -0.3378 -0.0241 -0.1488
  660MOL0     C88999  10.009   2.465   7.195  0.3062 -0.3932  0.1938
  660MOL0     C89000  10.081   2.540   7.097 -0.2162 -0.0015 -0.6226
  660MOL0     O89001  10.213   2.575   7.118  0.1981  0.2177 -0.2037
  660MOL0     C89002  10.297   2.579   7.003 -0.2821 -0.1593  0.1988
  660MOL0     C89003  10.445   2.602   7.032  0.6644 -0.1025  0.3334
  660MOL0     C89004  10.465   2.743   7.053 -0.0394  0.0492 -0.1133
  660MOL0     C89005  10.599   2.765   7.131  0.4273  0.1734  0.2125
  660MOL0     C89006  10.730   2.728   7.062 -0.6295 -0.5739  0.0999
  660MOL0     C89007  10.857   2.737   7.150  0.3008 -0.2446 -0.0459
  660MOL0     C89008  10.994   2.715   7.069  0.3859 -0.6921  0.0020
  660MOL0     C89009  11.101   2.676   7.174  0.4766  0.7145 -0.5180
  660MOL0    Cl89010  11.265   2.668   7.102  0.5024  0.0866 -0.0642
  660MOL0     C89011  10.015   2.585   6.973  0.3576 -1.3817 -0.2627
  660MOL0     C89012   9.879   2.555   6.957 -0.0517 -0.3405  1.1204
  660MOL0     O89013   9.579   2.516   7.230 -1.0948 -0.2875 -0.2771
  660MOL0     C89014   9.445   2.316   6.960  0.5196  0.0592  0.0581
  660MOL0     C89015   9.323   2.259   6.915 -1.0118 -0.3370  0.4448
  660MOL0     N89016   8.912   1.694   7.227  0.2620 -0.7948 -0.3244
  660MOL0     N89017   8.827   1.711   7.324  0.3199 -0.8053 -0.6756
  660MOL0     C89018   7.796   1.391   7.618  0.8743  0.3270  0.3363
  660MOL0     C89019   7.789   1.322   7.738 -0.2637 -0.2089  0.4711
  660MOL0     C89020   7.697   1.302   8.174  0.1750  0.0935  0.1377
  660MOL0     C89021   7.804   1.290   8.264  0.7585  0.1007 -1.3466
  660MOL0     C89022   7.785   1.289   8.407 -0.9208 -0.1770  0.0539
  660MOL0     C89023   7.660   1.279   8.458  0.2526  0.0737 -0.2582
  660MOL0     O89024   7.652   1.286   8.601 -0.0289 -0.5185  0.2165
  660MOL0     C89025   7.544   1.367   8.648 -0.4897  0.2260  0.7625
  660MOL0     C89026   7.472   1.284   8.753 -0.2154  0.0376 -0.1240
  660MOL0     C89027   7.362   1.184   8.695 -0.2314 -0.0903 -1.3271
  660MOL0     C89028   7.297   1.104   8.808 -0.4592 -0.4665 -0.4123
  660MOL0     C89029   7.396   1.029   8.885  0.2026 -0.9538  0.5837
  660MOL0     C89030   7.478   0.985   8.966  0.4472 -0.2177 -0.5802
  660MOL0     C89031   7.552   1.281   8.371  1.2246 -0.5999 -0.4176
  660MOL0     C89032   7.566   1.293   8.232  0.4676 -0.2731 -0.5742
  660MOL0     H89033   8.004   1.499   7.928 -1.0029 -0.9877  0.5450
  660MOL0     H89034   8.027   1.630   7.707  1.5665  0.1156 -1.3394
  660MOL0     H89035   7.939   1.408   7.357  0.5794 -0.3902 -1.5702
  660MOL0     H89036   7.961   1.573   7.291 -2.1970 -0.9732  0.1569
  660MOL0     H89037   8.146   1.437   7.498 -3.8868 -0.9906  0.6866
  660MOL0     H89038   8.179   1.424   7.332 -1.2977 -2.4338  0.8943
  660MOL0     H89039   8.189   1.691   7.340 -0.2798 -2.6204 -1.3908
  660MOL0     H89040   8.134   1.689   7.506  0.7014  2.7370 -0.9467
  660MOL0     H89041   8.350   1.527   7.534  2.1362 -0.9961 -2.0449
  660MOL0     H89042   8.395   1.604   7.384 -0.1823 -0.6801 -0.4138
  660MOL0     H89043   8.310   1.772   7.615  0.6566 -0.5583  0.4014
  660MOL0     H89044   8.476   1.722   7.584 -0.9061 -0.7595  1.3836
  660MOL0     H89045   8.301   1.887   7.387 -0.5382  3.2377  1.0751
  660MOL0     H89046   8.418   1.960   7.500  3.3354 -0.8065 -0.4159
  660MOL0     H89047   8.524   1.749   7.287  1.0846  0.9026 -3.1409
  660MOL0     H89048   8.500   1.913   7.254  0.4839  2.4061  2.2083
  660MOL0     H89049   8.677   1.809   7.488  1.1300  3.3309  2.8263
  660MOL0     H89050   8.670   1.966   7.427 -4.6648 -0.7933  2.3003
  660MOL0     H89051   8.777   1.986   7.174 -1.2559 -1.1454 -0.4636
  660MOL0     H89052   9.083   1.856   7.048 -1.1083  2.5298  1.9303
  660MOL0     H89053   8.989   1.722   6.968 -1.2796 -1.2803  2.5347
  660MOL0     H89054   8.824   1.880   6.881 -0.9857 -2.0846  3.9769
  660MOL0     H89055   8.997   1.885   6.828  1.0550  0.1603  0.4881
  660MOL0     H89056   8.809   2.060   6.981  0.7074 -1.5983  1.5329
  660MOL0     H89057   8.910   2.120   6.854  2.7568 -0.1626 -0.4825
  660MOL0     H89058   9.007   2.069   7.137  2.1659  1.1280  0.6861
  660MOL0     H89059   8.981   2.225   7.054 -0.3463  0.0133 -0.8213
  660MOL0     H89060   9.164   2.224   7.199 -1.0072 -1.9240 -0.8839
  660MOL0     H89061   9.273   2.291   7.380 -0.2964 -0.8063 -0.7247
  660MOL0     H89062   9.445   2.284   7.369  1.9505  1.9399  0.0487
  660MOL0     H89063   9.368   2.444   7.365 -0.3757 -0.2003 -1.0541
  660MOL0     H89064   9.806   2.404   7.254 -2.4635  2.5868 -0.3897
  660MOL0     H89065  10.073   2.431   7.276  2.1325  0.4412 -0.8138
  660MOL0     H89066  10.274   2.492   6.941 -1.2692 -0.6824  1.2583
  660MOL0     H89067  10.272   2.658   6.931  0.2476 -1.0249 -0.9823
  660MOL0     H89068  10.483   2.548   7.119  0.2544  2.0273  1.9318
  660MOL0     H89069  10.501   2.592   6.939  1.1888 -0.8766  0.7168
  660MOL0     H89070  10.376   2.782   7.103 -0.0408 -1.2174  0.9240
  660MOL0     H89071  10.466   2.797   6.957 -1.9647 -0.8801 -0.7131
  660MOL0     H89072  10.600   2.871   7.157 -0.6165  0.3225 -0.2733
  660MOL0     H89073  10.593   2.698   7.217  4.4593 -0.8019 -0.0695
  660MOL0     H89074  10.741   2.803   6.983 -3.3188 -1.1586 -0.9315
  660MOL0     H89075  10.717   2.626   7.025 -1.9830 -0.5585  0.4804
  660MOL0     H89076  10.871   2.838   7.191 -1.6756 -1.3729  3.9584
  660MOL0     H89077  10.853   2.680   7.244 -1.1873  0.0926  0.1270
  660MOL0     H89078  11.020   2.799   7.005 -0.3058 -1.4156 -1.2544
  660MOL0     H89079  10.977   2.642   6.989 -2.6311  2.0769 -2.1530
  660MOL0     H89080  11.068   2.578   7.211 -2.4655  0.5888 -3.0278
  660MOL0     H89081  11.100   2.758   7.246 -2.8554  0.9156 -0.6398
  660MOL0     H89082  10.066   2.649   6.902  0.2277  0.3929  1.1688
  660MOL0     H89083   9.824   2.588   6.869 -1.0037  0.8818  2.1514
  660MOL0     H89084   9.526   2.331   6.889 -0.8235 -0.6545 -1.6928
  660MOL0     H89085   9.334   2.210   6.820  0.5325 -3.9123  2.2762
  660MOL0     H89086   7.734   1.369   7.531 -0.1121  0.5116  0.9807
  660MOL0     H89087   7.725   1.235   7.747  0.2212 -0.6996 -0.6453
  660MOL0     H89088   7.907   1.304   8.235  0.7306  2.8034 -0.4464
  660MOL0     H89089   7.869   1.293   8.476 -1.4588 -0.6605  0.7588
  660MOL0     H89090   7.602   1.438   8.708 -1.4133  0.0991  1.8392
  660MOL0     H89091   7.484   1.407   8.566 -0.1567 -3.4207 -1.5296
  660MOL0     H89092   7.427   1.339   8.837 -1.3791 -1.8655  0.5537
  660MOL0     H89093   7.539   1.213   8.801  0.7585  1.0185  0.0126
  660MOL0     H89094   7.418   1.108   8.640  2.1979 -0.5497  1.4903
  660MOL0     H89095   7.287   1.235   8.635 -0.7776  1.0189  0.2362
  660MOL0     H89096   7.219   1.038   8.769 -0.9637  0.9670 -1.9419
  660MOL0     H89097   7.242   1.175   8.870 -1.0438 -1.3898  0.1511
  660MOL0     H89098   7.535   0.926   9.035  4.3206  0.1603 -3.1005
  660MOL0     H89099   7.449   1.266   8.402  1.8468 -0.8059  1.6618
  660MOL0     H89100   7.474   1.309   8.177 -0.4628 -0.2321  0.9448
  661MOL0     O89101   2.894   3.655   2.483  0.7189  0.4908  0.1319
  661MOL0     C89102   3.010   3.615   2.492  0.3166  0.4758  0.4128
  661MOL0     O89103   3.117   3.695   2.531 -0.0272  0.4563  0.4797
  661MOL0     C89104   3.110   3.828   2.503  0.3645  0.7882 -0.8528
  661MOL0     C89105   3.178   3.894   2.402 -0.7054  0.5316 -0.2519
  661MOL0     C89106   3.158   4.038   2.389 -0.7658  0.9581 -0.1595
  661MOL0     C89107   3.084   4.106   2.486  1.2681 -0.6008  0.0489
  661MOL0     O89108   3.088   4.240   2.488 -0.1510  0.5533  0.4483
  661MOL0     C89109   3.179   4.291   2.587  0.9204  0.8621 -0.3822
  661MOL0     C89110   3.272   4.381   2.520  0.0617  0.7052  1.2377
  661MOL0     C89111   3.397   4.304   2.459  0.5612 -0.9066  0.1902
  661MOL0     C89112   3.491   4.244   2.556 -0.7669  0.7597 -0.6799
  661MOL0     C89113   3.630   4.212   2.498 -0.6191 -1.0154  0.5283
  661MOL0     C89114   3.729   4.228   2.602 -0.3997  0.3220  0.5231
  661MOL0     C89115   3.862   4.159   2.582 -0.1318  0.4378  0.6197
  661MOL0     C89116   3.963   4.196   2.697  0.5628 -0.6781  0.1010
  661MOL0     N89117   4.068   4.103   2.722  0.7287 -0.5699  0.3588
  661MOL0     C89118   4.156   4.057   2.626 -0.1724 -0.2494 -0.5254
  661MOL0     C89119   4.261   4.004   2.697  0.4311  0.3171  0.5639
  661MOL0     C89120   4.382   3.944   2.645 -0.9734 -0.1514  0.6587
  661MOL0     C89121   4.512   3.989   2.717  0.8082  0.3576  0.0663
  661MOL0     C89122   4.619   3.872   2.732  0.6285 -0.3285 -0.7226
  661MOL0     C89123   4.753   3.929   2.768 -0.6716  0.3195  0.6827
  661MOL0     O89124   4.857   3.832   2.775 -0.2620  0.0932 -1.6674
  661MOL0     C89125   4.884   3.764   2.890 -0.3238 -0.2158 -0.3690
  661MOL0     C89126   4.970   3.654   2.868 -0.1997 -0.8837 -0.1234
  661MOL0     C89127   5.030   3.584   2.978  0.0883  0.2894  0.2869
  661MOL0     C89128   5.120   3.453   2.960 -0.2071  0.3557 -0.0119
  661MOL0     C89129   4.990   3.621   3.112 -0.0467  0.6921 -1.3729
  661MOL0     C89130   5.038   3.555   3.241  0.1817  0.1201 -0.2718
  661MOL0     O89131   5.068   3.424   3.244 -0.0822  0.8849 -0.4559
  661MOL0     C89132   5.140   3.366   3.341 -0.0306  0.5568 -0.0270
  661MOL0     C89133   5.184   3.231   3.317 -0.0480  0.1492 -0.7730
  661MOL0     C89134   5.276   3.163   3.398 -1.5584  0.4777  0.4634
  661MOL0     C89135   5.342   3.237   3.500  1.1838  0.1903  0.7306
  661MOL0     O89136   5.440   3.185   3.587 -0.8519 -0.0009  0.1322
  661MOL0     C89137   5.412   3.055   3.648  0.6774 -1.1471 -0.2073
  661MOL0     C89138   5.335   3.067   3.779 -0.4099 -0.3599 -0.2322
  661MOL0     C89139   5.288   2.922   3.832 -0.1991  0.0742  0.4399
  661MOL0     C89140   5.406   2.842   3.899 -0.9855 -0.9989 -0.3847
  661MOL0     C89141   5.392   2.688   3.880  0.5882  0.3932  0.1326
  661MOL0     C89142   5.394   2.646   3.737  0.3324 -0.1491 -0.7023
  661MOL0     C89143   5.413   2.489   3.727  0.1339  0.3076  1.2074
  661MOL0     C89144   5.295   2.416   3.771 -0.1605  0.3550  0.1608
  661MOL0    Cl89145   5.300   2.243   3.724  0.0728  0.4498  0.4766
  661MOL0     C89146   5.291   3.359   3.525  1.1373 -0.2538 -0.2995
  661MOL0     C89147   5.187   3.424   3.452 -0.2962 -0.0930 -0.1291
  661MOL0     O89148   5.068   3.634   3.326 -0.2130  0.9175 -0.6023
  661MOL0     C89149   4.902   3.728   3.125 -0.4894  0.1702 -0.8925
  661MOL0     C89150   4.862   3.805   3.015 -0.4824  0.5392 -0.3747
  661MOL0     N89151   4.223   4.009   2.830 -0.7505 -0.2681  0.0731
  661MOL0     N89152   4.113   4.065   2.845 -0.6538 -0.1858  0.1729
  661MOL0     C89153   3.029   4.041   2.592  0.7347 -0.8836  0.0339
  661MOL0     C89154   3.029   3.904   2.593 -0.2450 -0.2039  0.6899
  661MOL0     C89155   3.026   3.470   2.486 -1.0907 -0.8105  0.3591
  661MOL0     C89156   3.092   3.399   2.595 -0.1720 -0.3520  0.3816
  661MOL0     C89157   3.091   3.265   2.588 -0.0345  0.2265  0.0532
  661MOL0     C89158   3.036   3.184   2.481  0.6638 -0.3588 -0.5421
  661MOL0     O89159   3.044   3.047   2.489 -0.3118  0.4629  0.9799
  661MOL0     C89160   2.927   2.968   2.466  0.1036  0.2948  0.0569
  661MOL0     C89161   2.932   2.852   2.556  0.3512  1.0610 -0.1290
  661MOL0     C89162   2.881   2.907   2.688 -0.4242 -0.2483 -0.0789
  661MOL0     C89163   2.877   2.801   2.801  0.1281  1.0697  0.1628
  661MOL0     C89164   2.782   2.695   2.775  0.4724  0.9867 -0.0588
  661MOL0     C89165   2.704   2.607   2.739 -0.5811  0.1355 -1.3314
  661MOL0     C89166   2.969   3.245   2.373 -0.4189 -0.1762  0.3402
  661MOL0     C89167   2.973   3.394   2.374  1.3344 -0.2369 -0.0236
  661MOL0     H89168   3.244   3.830   2.345  0.6702 -0.5969  2.3967
  661MOL0     H89169   3.206   4.102   2.316  2.4100  1.2661  1.9885
  661MOL0     H89170   3.135   4.360   2.660  1.9566  1.5391 -0.3869
  661MOL0     H89171   3.228   4.205   2.634 -0.0511  1.2214  1.3828
  661MOL0     H89172   3.210   4.412   2.435  2.8218 -2.0143 -2.0638
  661MOL0     H89173   3.309   4.462   2.584  2.0170  1.6751 -0.9471
  661MOL0     H89174   3.370   4.211   2.407  0.8062 -1.1504  0.4958
  661MOL0     H89175   3.453   4.364   2.386  2.5638 -2.7963  0.0600
  661MOL0     H89176   3.493   4.306   2.647 -1.8720  0.0716 -0.1669
  661MOL0     H89177   3.453   4.143   2.574  1.4894 -0.3477 -1.7611
  661MOL0     H89178   3.646   4.117   2.447  0.3658  0.7170 -2.6606
  661MOL0     H89179   3.643   4.278   2.412 -0.6055 -1.6724  0.0235
  661MOL0     H89180   3.756   4.333   2.587 -0.1459  0.0284 -1.3437
  661MOL0     H89181   3.697   4.214   2.706 -0.2872  1.3618  0.7120
  661MOL0     H89182   3.836   4.054   2.597  0.2560  0.5916  2.7045
  661MOL0     H89183   3.892   4.189   2.482  0.2042  0.2211  0.6544
  661MOL0     H89184   3.900   4.210   2.786  4.1405 -0.5544  2.8478
  661MOL0     H89185   4.013   4.292   2.683  0.3503 -0.4409  0.9212
  661MOL0     H89186   4.144   4.053   2.519  0.2364 -0.2196 -0.5746
  661MOL0     H89187   4.369   3.835   2.650  1.0935 -0.5219 -0.7827
  661MOL0     H89188   4.390   3.975   2.540  0.0600 -0.7741  0.5423
  661MOL0     H89189   4.478   4.021   2.816  0.1679 -0.2204  0.0427
  661MOL0     H89190   4.555   4.079   2.672  0.8871 -0.0659 -0.7180
  661MOL0     H89191   4.618   3.818   2.637  1.7210  0.1307 -1.0111
  661MOL0     H89192   4.599   3.802   2.815 -0.7495 -2.1455 -2.4968
  661MOL0     H89193   4.748   3.988   2.860  0.9968 -1.6636  2.1359
  661MOL0     H89194   4.771   4.001   2.687  1.6514  0.4561  1.2372
  661MOL0     H89195   4.994   3.627   2.765 -1.6650  3.1594 -1.7341
  661MOL0     H89196   5.187   3.446   2.874  0.5400  0.9079  0.5162
  661MOL0     H89197   5.191   3.450   3.042  0.2373 -4.1872 -0.3227
  661MOL0     H89198   5.044   3.375   2.950 -1.1711  1.4165 -1.4055
  661MOL0     H89199   5.156   3.180   3.225  4.8935 -1.7452 -1.5598
  661MOL0     H89200   5.316   3.066   3.372  0.6822  1.2883  0.6502
  661MOL0     H89201   5.354   2.989   3.583  0.4124 -0.3424 -0.8118
  661MOL0     H89202   5.509   3.005   3.657  0.3340 -1.6784  0.6091
  661MOL0     H89203   5.396   3.121   3.851 -3.9807  1.0393  1.9664
  661MOL0     H89204   5.244   3.126   3.762 -0.4376 -0.0209  1.0084
  661MOL0     H89205   5.253   2.875   3.739 -0.6084  1.6195 -0.2230
  661MOL0     H89206   5.201   2.933   3.896 -0.6799  1.0976 -0.3533
  661MOL0     H89207   5.504   2.876   3.864 -0.3496 -0.0815  2.0749
  661MOL0     H89208   5.404   2.867   4.006 -1.7917  1.0425 -0.8327
  661MOL0     H89209   5.297   2.658   3.924  1.1190  2.4959  3.0179
  661MOL0     H89210   5.470   2.634   3.933  0.3189 -1.9306 -1.6829
  661MOL0     H89211   5.302   2.674   3.684 -0.0477 -1.3202 -0.6724
  661MOL0     H89212   5.478   2.687   3.680  1.1627 -1.0933 -0.1719
  661MOL0     H89213   5.508   2.457   3.772 -0.9253 -0.7699  2.7442
  661MOL0     H89214   5.437   2.472   3.622  4.3767  2.8156  1.5185
  661MOL0     H89215   5.201   2.459   3.735 -0.5589 -0.9222 -0.3767
  661MOL0     H89216   5.279   2.406   3.879 -2.0709 -1.8411 -0.2327
  661MOL0     H89217   5.329   3.405   3.616  3.0779  1.0428 -1.6840
  661MOL0     H89218   5.145   3.508   3.506 -3.0594 -2.6721  2.1026
  661MOL0     H89219   4.868   3.764   3.222  2.1584 -0.1990  0.2469
  661MOL0     H89220   4.797   3.887   3.044 -0.6412  0.4218 -0.4004
  661MOL0     H89221   2.987   4.095   2.676  1.0679  2.6545 -1.8873
  661MOL0     H89222   2.968   3.859   2.671 -0.7909  0.1488  0.4672
  661MOL0     H89223   3.125   3.450   2.685 -0.2071 -3.1098  2.0455
  661MOL0     H89224   3.128   3.215   2.678 -0.2319 -2.3897 -1.2438
  661MOL0     H89225   2.835   3.027   2.476  0.4049  0.6045  1.0479
  661MOL0     H89226   2.929   2.938   2.361 -1.9120 -0.4234  0.1829
  661MOL0     H89227   3.030   2.805   2.567 -0.6160 -0.4655  2.9834
  661MOL0     H89228   2.870   2.774   2.511  3.1747 -0.5645 -1.4747
  661MOL0     H89229   2.778   2.943   2.683 -0.7833 -0.8416  2.1229
  661MOL0     H89230   2.949   2.983   2.727  0.4871 -0.6495 -0.8519
  661MOL0     H89231   2.850   2.858   2.891 -0.4258  1.0559  0.0095
  661MOL0     H89232   2.978   2.764   2.820  0.9671  2.6271 -0.9659
  661MOL0     H89233   2.631   2.530   2.724 -0.5799 -0.8404  2.6025
  661MOL0     H89234   2.918   3.194   2.292  2.2807  0.4559 -1.9169
  661MOL0     H89235   2.909   3.452   2.309 -1.2446  0.1642  2.6958
  662MOL0     O89236   1.696   6.008  10.504 -0.0765 -0.0501  0.6004
  662MOL0     C89237   1.629   5.902  10.507  0.4780 -0.1094  0.3562
  662MOL0     O89238   1.525   5.875  10.606  0.5917 -0.7349  0.6182
  662MOL0     C89239   1.476   5.975  10.681 -0.9006 -0.3326 -0.1600
  662MOL0     C89240   1.534   5.984  10.809 -1.0070 -0.7529  0.1433
  662MOL0     C89241   1.503   6.086  10.894 -0.1106 -0.4983 -0.0043
  662MOL0     C89242   1.391   6.167  10.870 -0.7338  2.1199  0.8163
  662MOL0     O89243   1.344   6.258  10.955  0.4258 -0.4551  1.0423
  662MOL0     C89244   1.396   6.265  11.082  0.2420 -0.4074  0.7263
  662MOL0     C89245   1.290   6.336  11.166 -0.9436 -0.8789 -0.5943
  662MOL0     C89246   1.340   6.375  11.308 -0.4034  0.3599  0.3774
  662MOL0     C89247   1.251   6.466  11.382 -0.3733  0.0082 -0.4930
  662MOL0     C89248   1.303   6.489  11.522 -0.6216  0.0316 -0.2128
  662MOL0     C89249   1.297   6.366  11.616  0.1498 -0.6714  0.5861
  662MOL0     C89250   1.344   6.397  11.759 -0.4297  0.4517  1.2557
  662MOL0     C89251   1.316   6.275  11.846 -0.5364  0.2587  0.4535
  662MOL0     N89252   1.325   6.300  11.984 -0.0566  0.2469 -0.5082
  662MOL0     C89253   1.291   6.210  12.084 -0.4526 -1.0425  0.3834
  662MOL0     C89254   1.316   6.284  12.204 -0.3268  0.2228 -0.3900
  662MOL0     C89255   1.310   6.220  12.336 -0.1219 -0.1722  0.2009
  662MOL0     C89256   1.412   6.109  12.360  0.3752 -0.6706 -0.5172
  662MOL0     C89257   1.391   5.967  12.300  0.0987 -0.2474 -0.0973
  662MOL0     C89258   1.483   5.859  12.349 -0.3278  0.5189 -0.3849
  662MOL0     O89259   1.456   5.730  12.284  0.8482  0.5288 -0.2176
  662MOL0     C89260   1.513   5.618  12.335  0.4071 -0.2198  0.1587
  662MOL0     C89261   1.488   5.510  12.250  0.1639  1.0433  0.4607
  662MOL0     C89262   1.525   5.377  12.275 -1.2004 -0.1355  0.0585
  662MOL0     C89263   1.480   5.268  12.182 -0.4363 -0.6428  0.0507
  662MOL0     C89264   1.590   5.362  12.396  1.3728 -0.6020  0.5674
  662MOL0     C89265   1.633   5.234  12.445 -0.6217  0.8494 -0.8337
  662MOL0     O89266   1.618   5.208  12.578  0.0516 -0.1669  0.4945
  662MOL0     C89267   1.663   5.086  12.627 -1.1807  0.4311  0.8753
  662MOL0     C89268   1.798   5.070  12.638  1.2742 -0.0563  0.4294
  662MOL0     C89269   1.846   4.958  12.692  0.1194 -0.2278 -0.2020
  662MOL0     C89270   1.765   4.858  12.742  0.4954 -0.4591 -0.4252
  662MOL0     O89271   1.823   4.744  12.786 -0.6095  0.2474 -0.9369
  662MOL0     C89272   1.748   4.640  12.840 -0.4941  0.2826 -0.0555
  662MOL0     C89273   1.826   4.519  12.857 -0.2543 -0.4360 -0.3565
  662MOL0     C89274   1.909   4.478  12.738 -0.2136  0.2603 -0.3350
  662MOL0     C89275   1.837   4.478  12.598  0.2746  0.9547  0.0887
  662MOL0     C89276   1.926   4.402  12.495 -0.2096 -0.0885 -0.7044
  662MOL0     C89277   2.026   4.489  12.421  0.2831  0.1341 -0.7488
  662MOL0     C89278   2.058   4.433  12.285 -0.2152  0.9752  0.3018
  662MOL0     C89279   2.212   4.434  12.246  1.6308  0.1521  0.0832
  662MOL0    Cl89280   2.284   4.596  12.252 -0.3025 -0.0632  0.0584
  662MOL0     C89281   1.630   4.879  12.744  0.2677  0.8658 -1.0917
  662MOL0     C89282   1.573   4.992  12.685  0.6248 -0.6088 -0.0918
  662MOL0     O89283   1.664   5.149  12.363  0.7738 -0.3660 -0.3713
  662MOL0     C89284   1.627   5.468  12.480  0.7313  0.6486  0.5278
  662MOL0     C89285   1.587   5.594  12.447  1.0868 -0.1321 -0.4683
  662MOL0     N89286   1.360   6.408  12.168  0.3879 -0.3393 -1.0842
  662MOL0     N89287   1.356   6.420  12.037 -0.1606  0.3744 -0.2022
  662MOL0     C89288   1.326   6.152  10.745 -0.1466 -0.3716  1.2511
  662MOL0     C89289   1.370   6.055  10.652 -0.0601 -0.6685 -0.7015
  662MOL0     C89290   1.650   5.796  10.408 -0.9328  1.0729  0.5959
  662MOL0     C89291   1.605   5.665  10.426 -0.1038 -0.4879 -0.5105
  662MOL0     C89292   1.601   5.572  10.319  0.1931  0.0966 -0.6307
  662MOL0     C89293   1.676   5.598  10.203 -0.6372 -0.7334 -0.4215
  662MOL0     O89294   1.679   5.502  10.103  0.4721 -0.2678 -0.2916
  662MOL0     C89295   1.796   5.499  10.025  0.1678 -0.3037 -0.0983
  662MOL0     C89296   1.934   5.470  10.083  0.6696  1.1423 -0.8933
  662MOL0     C89297   1.946   5.339  10.167 -0.3235  1.4681  0.1230
  662MOL0     C89298   2.085   5.302  10.212  1.0039  0.3958 -0.0060
  662MOL0     C89299   2.176   5.285  10.097  0.1907  0.0242 -0.0666
  662MOL0     C89300   2.253   5.272  10.010 -0.5615 -0.3084 -0.9887
  662MOL0     C89301   1.716   5.731  10.188  0.5236 -1.0586 -0.2771
  662MOL0     C89302   1.709   5.829  10.289 -0.7012  0.8797 -0.5420
  662MOL0     H89303   1.621   5.922  10.832  0.2888 -0.2940 -3.0470
  662MOL0     H89304   1.566   6.094  10.982  2.4745  2.4078 -1.9388
  662MOL0     H89305   1.429   6.168  11.121 -0.6035 -1.2891 -0.6518
  662MOL0     H89306   1.484   6.330  11.089  0.4490 -0.7459  1.3053
  662MOL0     H89307   1.253   6.424  11.112 -1.5146  0.4874  1.8472
  662MOL0     H89308   1.205   6.268  11.178 -1.2456 -0.3672  0.2792
  662MOL0     H89309   1.360   6.284  11.365  2.3007  2.5070  3.2091
  662MOL0     H89310   1.437   6.424  11.299 -0.4833  0.7245  1.3744
  662MOL0     H89311   1.238   6.561  11.331 -1.2533  0.1636 -0.0046
  662MOL0     H89312   1.150   6.426  11.395 -1.7728  3.1434 -0.9304
  662MOL0     H89313   1.410   6.513  11.516 -0.1476 -2.1434 -1.9943
  662MOL0     H89314   1.259   6.576  11.571  3.1951  1.2231  1.5520
  662MOL0     H89315   1.197   6.323  11.612  0.6528 -1.8129 -0.4385
  662MOL0     H89316   1.367   6.292  11.576  0.7838  1.5124 -2.6741
  662MOL0     H89317   1.451   6.420  11.762 -0.9007  4.0538 -1.9077
  662MOL0     H89318   1.289   6.487  11.788  0.0506  1.2883 -0.3360
  662MOL0     H89319   1.382   6.196  11.810 -0.7068  0.3344 -0.0279
  662MOL0     H89320   1.215   6.240  11.821  1.4479 -3.0009 -4.6911
  662MOL0     H89321   1.249   6.110  12.074 -2.4165 -0.1459 -0.9634
  662MOL0     H89322   1.323   6.296  12.413  0.1155 -0.3213  0.3096
  662MOL0     H89323   1.211   6.174  12.346 -2.5970  4.3379 -0.8192
  662MOL0     H89324   1.428   6.105  12.468  1.2062 -0.0832 -0.6045
  662MOL0     H89325   1.508   6.145  12.320  0.7194  1.3155  1.9072
  662MOL0     H89326   1.417   5.970  12.194  2.5329  0.0729  0.4618
  662MOL0     H89327   1.286   5.937  12.312  0.2009 -0.2608  0.8269
  662MOL0     H89328   1.466   5.845  12.457  4.0386 -3.4398  0.1417
  662MOL0     H89329   1.587   5.878  12.323 -0.5143  4.3385  1.1234
  662MOL0     H89330   1.430   5.526  12.160  1.5235  2.0110 -0.2748
  662MOL0     H89331   1.400   5.312  12.122 -1.7331 -0.0371  2.1154
  662MOL0     H89332   1.556   5.229  12.114 -1.0268 -1.4293 -0.1719
  662MOL0     H89333   1.439   5.188  12.244  0.7821 -0.0241  1.7671
  662MOL0     H89334   1.866   5.141  12.591  1.1271  0.3866  0.8718
  662MOL0     H89335   1.952   4.934  12.683  0.4759  0.0254  2.5344
  662MOL0     H89336   1.706   4.664  12.938  2.2528 -2.5885  2.0040
  662MOL0     H89337   1.676   4.612  12.762  2.9160  4.5132 -5.4725
  662MOL0     H89338   1.895   4.542  12.938  0.7172  1.1655 -1.6014
  662MOL0     H89339   1.760   4.435  12.885  1.5572 -0.7610  3.5976
  662MOL0     H89340   1.938   4.373  12.749  0.7246  0.6293  1.0775
  662MOL0     H89341   2.001   4.537  12.728  0.5580 -0.8351  0.0855
  662MOL0     H89342   1.738   4.431  12.606  0.1065  0.6717 -2.7223
  662MOL0     H89343   1.805   4.575  12.561  0.2753  0.3149 -1.6838
  662MOL0     H89344   1.854   4.356  12.427 -3.0579 -1.6823  3.0410
  662MOL0     H89345   1.983   4.319  12.538  1.5768  1.7544  0.6583
  662MOL0     H89346   1.992   4.592  12.427 -1.1358 -0.3997  3.0821
  662MOL0     H89347   2.115   4.486  12.485 -1.0262  0.7881  1.2029
  662MOL0     H89348   1.996   4.495  12.219 -0.2411  0.5694 -0.0555
  662MOL0     H89349   2.019   4.332  12.273 -0.3310  0.9296  0.9880
  662MOL0     H89350   2.215   4.401  12.142  4.2086  1.1199 -0.2141
  662MOL0     H89351   2.280   4.370  12.304  1.9555  0.7771  0.3986
  662MOL0     H89352   1.566   4.799  12.778  1.7704 -0.2391 -0.7367
  662MOL0     H89353   1.465   4.998  12.683  0.6815  0.5645 -0.8254
  662MOL0     H89354   1.672   5.440  12.575  1.6862 -1.7172 -0.5346
  662MOL0     H89355   1.621   5.676  12.510  1.8008  1.8553 -3.2246
  662MOL0     H89356   1.239   6.214  10.726 -0.0666 -0.9468 -1.5598
  662MOL0     H89357   1.311   6.042  10.562 -2.5088 -0.0245  0.7348
  662MOL0     H89358   1.558   5.642  10.521  2.2189 -1.0467  0.5720
  662MOL0     H89359   1.543   5.480  10.318 -1.4313  1.0802 -0.8165
  662MOL0     H89360   1.767   5.423   9.952 -0.3576 -0.0088 -0.2056
  662MOL0     H89361   1.806   5.594   9.971  1.1308  0.1779  0.8771
  662MOL0     H89362   1.958   5.557  10.146  0.1979 -0.5277  1.7451
  662MOL0     H89363   2.003   5.460   9.999  0.1564  0.4467 -1.2427
  662MOL0     H89364   1.916   5.253  10.107  1.8831 -0.1433  1.1778
  662MOL0     H89365   1.875   5.350  10.249 -0.4841  0.8129  0.0725
  662MOL0     H89366   2.081   5.212  10.274  3.5690 -0.2304 -0.6177
  662MOL0     H89367   2.115   5.376  10.286  1.1233 -1.2563  1.6773
  662MOL0     H89368   2.323   5.251   9.931  1.1197 -0.6974  0.5336
  662MOL0     H89369   1.746   5.759  10.087 -0.5019 -2.3720 -0.9844
  662MOL0     H89370   1.764   5.922  10.285  1.4305 -0.3000 -0.3550
  663MOL0     O89371   7.360  11.092  10.026  0.6663 -0.2467  0.5482
  663MOL0     C89372   7.287  11.052   9.935  0.5338  0.8320 -0.0557
  663MOL0     O89373   7.304  10.942   9.856  0.1358 -0.4236 -0.0634
  663MOL0     C89374   7.400  10.849   9.884 -1.0307 -0.0451  0.0222
  663MOL0     C89375   7.428  10.803  10.014 -0.9837 -0.6124 -0.8382
  663MOL0     C89376   7.537  10.712  10.034 -0.2413 -0.3800  0.6532
  663MOL0     C89377   7.614  10.673   9.924 -0.6326 -0.8566  0.7853
  663MOL0     O89378   7.718  10.577   9.928 -0.5800  0.2183  0.3521
  663MOL0     C89379   7.717  10.485  10.042  0.2038  0.4449  0.0522
  663MOL0     C89380   7.608  10.381  10.031  0.3807  1.0315 -0.7694
  663MOL0     C89381   7.608  10.319   9.887  0.1606  1.1352  0.5689
  663MOL0     C89382   7.579  10.168   9.902  0.0531  0.0722 -0.5855
  663MOL0     C89383   7.557  10.104   9.769 -0.2487 -0.0130  0.7717
  663MOL0     C89384   7.502   9.961   9.791  0.1346  0.5198  0.2647
  663MOL0     C89385   7.473   9.899   9.658  0.8996 -0.2984  0.4406
  663MOL0     C89386   7.346   9.954   9.583  0.0891 -0.2076 -0.4214
  663MOL0     N89387   7.227   9.936   9.666 -0.6068 -0.1527  0.3783
  663MOL0     C89388   7.160  10.034   9.733  0.0736  0.5962  0.0418
  663MOL0     C89389   7.049   9.974   9.784  0.3920  0.2373  0.4309
  663MOL0     C89390   6.929  10.051   9.837 -0.2826 -0.3129  0.4898
  663MOL0     C89391   6.823  10.079   9.729 -0.4095 -0.4913  1.3427
  663MOL0     C89392   6.683  10.123   9.776  0.0320  0.4455  0.2822
  663MOL0     C89393   6.687  10.221   9.888 -1.2611 -0.7334 -0.0992
  663MOL0     O89394   6.783  10.332   9.870 -0.1242 -0.8449  0.0919
  663MOL0     C89395   6.803  10.425   9.968  0.2632  0.5887 -0.1720
  663MOL0     C89396   6.919  10.501   9.950  0.0961  0.5881 -0.8066
  663MOL0     C89397   6.959  10.595  10.039 -0.4400 -0.1823  0.0413
  663MOL0     C89398   7.085  10.675   9.998 -0.2977  0.3848 -0.8673
  663MOL0     C89399   6.885  10.609  10.160  0.3723  0.0265  0.3239
  663MOL0     C89400   6.934  10.687  10.281 -0.1154  0.2441 -1.4324
  663MOL0     O89401   6.851  10.719  10.384 -0.1665  0.0171 -0.5571
  663MOL0     C89402   6.867  10.825  10.478 -0.0186  0.2620  0.3364
  663MOL0     C89403   6.921  10.953  10.462 -0.3360 -0.1690  0.3692
  663MOL0     C89404   6.894  11.052  10.549 -0.9113 -1.6969  0.3660
  663MOL0     C89405   6.820  11.040  10.661  0.4751  0.7881  0.0892
  663MOL0     O89406   6.812  11.142  10.753  0.0278  0.8994  0.9784
  663MOL0     C89407   6.736  11.245  10.710  0.1776 -0.6466 -0.0060
  663MOL0     C89408   6.598  11.238  10.775  0.3178 -0.4862 -0.5503
  663MOL0     C89409   6.583  11.320  10.897  0.4576  0.1562 -1.0208
  663MOL0     C89410   6.441  11.356  10.929 -0.6051 -0.3349 -0.1836
  663MOL0     C89411   6.438  11.415  11.076 -0.0342 -0.1021  0.9014
  663MOL0     C89412   6.500  11.566  11.088 -0.3088 -0.1068  0.0094
  663MOL0     C89413   6.474  11.630  11.226 -0.2072 -0.0228  0.7407
  663MOL0     C89414   6.333  11.689  11.245 -0.4470  0.0678  1.2154
  663MOL0    Cl89415   6.317  11.725  11.414 -0.0325  0.3081  0.0164
  663MOL0     C89416   6.766  10.914  10.687 -0.9501  0.3552  0.7251
  663MOL0     C89417   6.782  10.811  10.585 -0.4256  0.0090 -0.0873
  663MOL0     O89418   7.047  10.741  10.273  0.5626 -0.6590  0.5118
  663MOL0     C89419   6.771  10.522  10.177  0.2526 -0.2364 -0.4021
  663MOL0     C89420   6.736  10.432  10.080 -0.0375  0.2959 -0.7225
  663MOL0     N89421   7.065   9.828   9.767 -0.5603 -0.8746  0.4515
  663MOL0     N89422   7.163   9.817   9.692  0.0299 -0.1405  0.1908
  663MOL0     C89423   7.587  10.711   9.794  0.3810 -0.8894  0.2351
  663MOL0     C89424   7.476  10.797   9.771 -0.4903  0.4098  0.5155
  663MOL0     C89425   7.173  11.155   9.911  0.1053  0.4772  0.0717
  663MOL0     C89426   7.080  11.127   9.803 -0.4856 -1.1484  0.3782
  663MOL0     C89427   6.970  11.218   9.781 -0.6233  0.8621 -0.0436
  663MOL0     C89428   6.946  11.321   9.869  0.5373 -0.9909 -0.0850
  663MOL0     O89429   6.823  11.378   9.859  0.4125 -0.4670  0.8742
  663MOL0     C89430   6.789  11.507   9.904  0.7737 -0.2984  0.8639
  663MOL0     C89431   6.635  11.523   9.923 -0.3932  0.2569 -0.4569
  663MOL0     C89432   6.545  11.463   9.820 -0.7259 -0.7205 -0.9942
  663MOL0     C89433   6.401  11.506   9.831 -0.1809 -0.2337 -0.3170
  663MOL0     C89434   6.332  11.485   9.964  0.8560 -1.1357  1.4340
  663MOL0     C89435   6.269  11.466  10.062 -1.0469 -0.1531 -0.3145
  663MOL0     C89436   7.036  11.347   9.973 -0.4907  0.2141  0.8793
  663MOL0     C89437   7.151  11.269   9.999  0.6801 -0.8872 -0.0545
  663MOL0     H89438   7.368  10.847  10.094 -1.2090 -2.2075 -0.1012
  663MOL0     H89439   7.557  10.685  10.137 -1.4237 -1.1094  0.7096
  663MOL0     H89440   7.814  10.435  10.035 -0.2925 -0.7439  1.2728
  663MOL0     H89441   7.719  10.530  10.142  1.9367  2.4278 -0.7837
  663MOL0     H89442   7.624  10.306  10.109 -3.5680  0.9028  0.0848
  663MOL0     H89443   7.510  10.419  10.060  0.3240 -1.1917  2.4417
  663MOL0     H89444   7.526  10.353   9.822  1.1430 -0.2766 -1.5248
  663MOL0     H89445   7.700  10.330   9.829 -0.9456  0.3963 -1.4561
  663MOL0     H89446   7.651  10.113   9.963 -0.0210  0.9653  0.3311
  663MOL0     H89447   7.481  10.161   9.948 -1.0605 -0.8337 -2.9367
  663MOL0     H89448   7.499  10.158   9.694  2.7543 -1.6739 -3.0880
  663MOL0     H89449   7.657  10.095   9.726  0.0962  2.4602  0.9536
  663MOL0     H89450   7.565   9.892   9.847  0.2193  0.8281  0.5550
  663MOL0     H89451   7.407   9.963   9.845  0.5204 -1.1341  1.0675
  663MOL0     H89452   7.557   9.895   9.588  0.1121 -1.9637 -0.4724
  663MOL0     H89453   7.468   9.792   9.679 -0.2137 -0.3518 -0.0454
  663MOL0     H89454   7.335   9.891   9.494 -1.6085 -0.1970 -0.2460
  663MOL0     H89455   7.355  10.059   9.552 -2.3927  0.0680 -0.4568
  663MOL0     H89456   7.162  10.142   9.738 -1.3601  0.6206  1.2263
  663MOL0     H89457   6.879   9.990   9.913  1.7134 -1.9425  0.5774
  663MOL0     H89458   6.970  10.137   9.891  6.2378 -2.5326 -0.1474
  663MOL0     H89459   6.819   9.986   9.671 -0.9975 -0.6083  1.5577
  663MOL0     H89460   6.867  10.154   9.663 -3.1341 -2.2754 -2.9680
  663MOL0     H89461   6.622  10.036   9.804 -0.6997  0.9487  0.2738
  663MOL0     H89462   6.628  10.163   9.691 -2.2390  1.6688  2.2028
  663MOL0     H89463   6.705  10.169   9.983 -2.1012  3.3433  2.5878
  663MOL0     H89464   6.585  10.258   9.907 -0.4418  0.2919  2.9224
  663MOL0     H89465   6.984  10.482   9.865  0.7015  4.4611 -1.3999
  663MOL0     H89466   7.084  10.770  10.051  1.2728 -0.8571  1.5687
  663MOL0     H89467   7.179  10.624  10.022 -0.2564  0.5641 -0.6403
  663MOL0     H89468   7.088  10.698   9.891 -0.8297 -1.2896 -1.2785
  663MOL0     H89469   6.974  10.976  10.370  0.8516  0.9156  1.2887
  663MOL0     H89470   6.936  11.150  10.529 -0.5653 -1.8370  0.3964
  663MOL0     H89471   6.783  11.341  10.733 -1.0072  0.3272 -1.4758
  663MOL0     H89472   6.713  11.248  10.603 -2.2421 -1.9168  0.4191
  663MOL0     H89473   6.526  11.272  10.700  1.3915 -1.3873 -2.0771
  663MOL0     H89474   6.579  11.132  10.795 -1.2138 -0.6095 -2.2999
  663MOL0     H89475   6.637  11.415  10.895 -0.5940  0.7618 -3.3306
  663MOL0     H89476   6.625  11.262  10.980 -0.8365  0.4576 -0.1265
  663MOL0     H89477   6.412  11.430  10.854  2.4106  1.0687 -0.1466
  663MOL0     H89478   6.389  11.261  10.915 -0.8528 -0.3673  0.8645
  663MOL0     H89479   6.490  11.342  11.139 -1.5125 -1.1318  0.9898
  663MOL0     H89480   6.337  11.426  11.116  1.4564 -0.1120  5.0837
  663MOL0     H89481   6.606  11.587  11.070 -1.0137  3.2672 -0.9547
  663MOL0     H89482   6.454  11.635  11.017  1.2456  2.5734  1.4557
  663MOL0     H89483   6.526  11.724  11.247 -1.7805  1.3514 -1.2102
  663MOL0     H89484   6.492  11.558  11.307 -2.5617  0.7937  2.1103
  663MOL0     H89485   6.255  11.619  11.213 -0.7702  1.1274 -0.4542
  663MOL0     H89486   6.331  11.773  11.176  0.4000 -0.6852  0.2410
  663MOL0     H89487   6.705  10.886  10.772  0.3381  0.5238  1.7304
  663MOL0     H89488   6.722  10.721  10.597 -0.8382  0.4413  1.2649
  663MOL0     H89489   6.715  10.519  10.271 -0.1252 -0.5090 -0.6312
  663MOL0     H89490   6.653  10.365  10.101  2.8402 -2.9889  1.0983
  663MOL0     H89491   7.628  10.677   9.700 -0.9347  1.8451 -1.4461
  663MOL0     H89492   7.449  10.839   9.674 -0.9396  3.0476  1.6838
  663MOL0     H89493   7.097  11.050   9.728  1.7416  0.4286 -0.8874
  663MOL0     H89494   6.892  11.200   9.707 -0.6939 -2.1555  0.6387
  663MOL0     H89495   6.832  11.514  10.005  1.0202 -1.8723  0.9044
  663MOL0     H89496   6.844  11.583   9.848  2.2328 -0.9488  1.3442
  663MOL0     H89497   6.620  11.630   9.906 -0.2154  0.3067 -0.3005
  663MOL0     H89498   6.598  11.481  10.017  0.3279  0.0844 -0.2464
  663MOL0     H89499   6.566  11.356   9.821 -2.6405 -1.2003  2.1944
  663MOL0     H89500   6.577  11.508   9.725 -0.1476  4.0669  1.1977
  663MOL0     H89501   6.351  11.434   9.766 -0.7673 -2.4718  2.4189
  663MOL0     H89502   6.383  11.608   9.797 -1.4948  0.6028  2.5269
  663MOL0     H89503   6.203  11.440  10.142  0.9719  0.8548  1.7860
  663MOL0     H89504   7.001  11.430  10.034 -0.2773  1.3222 -0.4794
  663MOL0     H89505   7.217  11.280  10.085 -1.5116 -1.2687  1.7604
  664MOL0     O89506   4.418   0.975  11.212 -0.6225 -0.2403  0.6947
  664MOL0     C89507   4.393   0.937  11.096  0.6053 -0.3066  0.2895
  664MOL0     O89508   4.339   1.018  10.995  0.7042  0.0312 -0.1782
  664MOL0     C89509   4.324   1.153  11.019 -0.5288 -0.2752 -0.0871
  664MOL0     C89510   4.424   1.244  11.039 -0.5481  0.5638  0.3277
  664MOL0     C89511   4.402   1.378  11.061  0.1137  0.0603 -0.5229
  664MOL0     C89512   4.268   1.430  11.061  0.4592  0.6299 -0.1845
  664MOL0     O89513   4.249   1.557  11.064  0.0588  0.7749  0.9565
  664MOL0     C89514   4.149   1.621  10.982  0.6511 -0.6034 -0.4673
  664MOL0     C89515   4.232   1.692  10.860 -0.6285  0.3410 -0.4384
  664MOL0     C89516   4.147   1.689  10.739 -0.0143 -0.3185  0.2330
  664MOL0     C89517   4.220   1.764  10.628 -0.6616  0.7226  0.6605
  664MOL0     C89518   4.200   1.921  10.618  0.0439  1.4160  0.2346
  664MOL0     C89519   4.056   1.940  10.571  0.1099  0.2695 -0.1571
  664MOL0     C89520   4.022   2.073  10.509  0.2436  0.4227  0.6830
  664MOL0     C89521   4.054   2.199  10.591 -0.0243 -0.2872  0.0778
  664MOL0     N89522   4.024   2.317  10.518  0.8003 -0.1127 -1.3371
  664MOL0     C89523   4.115   2.409  10.465  0.7925 -1.0945  0.9630
  664MOL0     C89524   4.041   2.492  10.391  0.6817  0.3886 -0.3544
  664MOL0     C89525   4.095   2.601  10.292 -0.2404 -0.4242  0.8981
  664MOL0     C89526   4.205   2.692  10.361  1.1550 -0.2706  0.5809
  664MOL0     C89527   4.243   2.817  10.271 -0.7438  0.7981 -0.0966
  664MOL0     C89528   4.120   2.914  10.255 -0.1772 -1.3519  0.1289
  664MOL0     O89529   4.057   2.949  10.378  0.2112 -0.3387 -0.2091
  664MOL0     C89530   4.091   3.041  10.469 -0.1261  0.1652  0.3676
  664MOL0     C89531   4.190   3.136  10.455 -0.5095 -0.3074  0.1358
  664MOL0     C89532   4.227   3.228  10.557  0.7636  0.1695  0.2467
  664MOL0     C89533   4.337   3.327  10.519 -0.1768 -0.3238 -0.4140
  664MOL0     C89534   4.165   3.227  10.683  0.3032  0.8268  0.4627
  664MOL0     C89535   4.190   3.318  10.791  0.0731 -0.6738  0.0242
  664MOL0     O89536   4.157   3.270  10.923 -0.5633 -0.8179 -0.6871
  664MOL0     C89537   4.167   3.358  11.026 -0.2985  0.2125 -0.0678
  664MOL0     C89538   4.060   3.351  11.115 -0.4468 -0.3768 -0.6587
  664MOL0     C89539   4.063   3.423  11.244 -0.3759  0.2297  0.5324
  664MOL0     C89540   4.178   3.502  11.267 -0.6308 -1.1585 -0.0707
  664MOL0     O89541   4.208   3.561  11.382  0.0793  0.4745 -0.0433
  664MOL0     C89542   4.185   3.484  11.503  0.0799 -0.3078  0.0038
  664MOL0     C89543   4.220   3.568  11.629 -1.0818  0.2751  0.8120
  664MOL0     C89544   4.373   3.590  11.640 -0.1437 -0.2272  0.3425
  664MOL0     C89545   4.426   3.601  11.788  1.4165 -0.9331 -0.6337
  664MOL0     C89546   4.580   3.617  11.805  0.5565  0.0383  0.0211
  664MOL0     C89547   4.613   3.652  11.954  0.0965 -0.0575  0.5705
  664MOL0     C89548   4.755   3.689  11.969 -0.1596  0.0154 -0.9107
  664MOL0     C89549   4.796   3.698  12.119  0.7277  0.7708  0.4099
  664MOL0    Cl89550   4.848   3.534  12.169 -0.1248  0.1957  0.2056
  664MOL0     C89551   4.279   3.517  11.170  0.2144  0.2417  0.4459
  664MOL0     C89552   4.280   3.442  11.056  0.4557  0.3659  0.3666
  664MOL0     O89553   4.232   3.427  10.765  0.7174 -0.0942  0.2216
  664MOL0     C89554   4.064   3.127  10.697  0.2686 -0.1805 -1.1374
  664MOL0     C89555   4.033   3.043  10.592 -0.3108 -0.4874 -0.3753
  664MOL0     N89556   3.910   2.467  10.420 -1.0556 -0.1084  0.5046
  664MOL0     N89557   3.896   2.364  10.496  0.3766 -0.6160 -0.6448
  664MOL0     C89558   4.161   1.338  11.060 -0.4422  1.2559  0.8058
  664MOL0     C89559   4.190   1.202  11.029 -0.6988  0.1304 -0.1965
  664MOL0     C89560   4.396   0.794  11.057 -1.2352  0.2609 -0.4386
  664MOL0     C89561   4.364   0.739  10.929  0.9062 -0.0243  1.1288
  664MOL0     C89562   4.384   0.602  10.898 -0.6019  0.7523 -0.3276
  664MOL0     C89563   4.426   0.513  11.004  1.1300 -0.4108 -0.4676
  664MOL0     O89564   4.424   0.376  10.961 -0.1720 -0.1743  0.8509
  664MOL0     C89565   4.462   0.283  11.056 -0.5426  0.8981 -0.1353
  664MOL0     C89566   4.424   0.134  11.028  1.1626 -0.1508  1.2622
  664MOL0     C89567   4.485   0.094  10.894  0.0233 -0.2726 -0.0094
  664MOL0     C89568   4.626   0.029  10.893 -0.1958 -0.3178 -0.4496
  664MOL0     C89569   4.739   0.124  10.901 -0.2348  1.1185  1.3265
  664MOL0     C89570   4.825   0.208  10.913  1.0897 -0.2111  0.5976
  664MOL0     C89571   4.457   0.573  11.135  0.1115 -0.0064  0.5965
  664MOL0     C89572   4.436   0.704  11.154 -0.1809  0.4398 -1.0772
  664MOL0     H89573   4.532   1.229  11.032 -0.0159  2.9434  2.4305
  664MOL0     H89574   4.489   1.442  11.071  1.8518 -2.2387  0.1613
  664MOL0     H89575   4.072   1.545  10.961  0.2758 -1.1755  2.5019
  664MOL0     H89576   4.089   1.695  11.036  1.1583  0.6741 -1.5923
  664MOL0     H89577   4.255   1.796  10.888 -1.4768  0.7576 -1.2264
  664MOL0     H89578   4.309   1.617  10.843 -0.9100  0.3887 -2.1103
  664MOL0     H89579   4.123   1.583  10.723  0.8035 -0.9109  2.5380
  664MOL0     H89580   4.055   1.745  10.757 -0.0828  1.3960 -4.1295
  664MOL0     H89581   4.328   1.746  10.638 -0.2285  1.5977 -1.7315
  664MOL0     H89582   4.184   1.732  10.530  1.3991  0.0847  0.0457
  664MOL0     H89583   4.216   1.970  10.714  0.6698  0.1637  0.7920
  664MOL0     H89584   4.280   1.958  10.554  2.2678  0.9555  2.5936
  664MOL0     H89585   4.043   1.867  10.491  2.5329  0.2246 -0.5983
  664MOL0     H89586   3.986   1.913  10.650  0.4168  0.0755  0.0509
  664MOL0     H89587   4.088   2.079  10.422  3.9306 -1.3010  3.0922
  664MOL0     H89588   3.918   2.085  10.476  0.4457 -1.5686 -0.8651
  664MOL0     H89589   4.158   2.191  10.625 -0.6599  0.8640  2.5014
  664MOL0     H89590   4.010   2.184  10.690  1.9205 -0.7305  0.9201
  664MOL0     H89591   4.222   2.412  10.451  0.4527  2.8283 -3.0829
  664MOL0     H89592   4.146   2.554  10.208 -1.3612  0.2431 -0.1750
  664MOL0     H89593   4.009   2.657  10.255  0.7308  1.1899  0.9712
  664MOL0     H89594   4.290   2.624  10.372 -0.4687 -2.3522  0.9480
  664MOL0     H89595   4.166   2.711  10.461 -1.0528 -1.4129  0.0128
  664MOL0     H89596   4.285   2.787  10.175 -0.5487 -0.2940  0.3207
  664MOL0     H89597   4.322   2.866  10.328  0.1936  2.0259 -2.3410
  664MOL0     H89598   4.040   2.872  10.194  0.9766 -2.1889 -0.8723
  664MOL0     H89599   4.143   3.011  10.211 -1.1207  0.1874  2.8011
  664MOL0     H89600   4.246   3.141  10.362 -0.5349  0.5654  0.1542
  664MOL0     H89601   4.297   3.419  10.475 -0.3149  2.2997  4.5485
  664MOL0     H89602   4.394   3.353  10.608  1.2850 -0.4639 -1.2737
  664MOL0     H89603   4.407   3.287  10.445 -1.5788 -0.2337 -1.8403
  664MOL0     H89604   3.972   3.293  11.091 -0.9569 -0.2228  0.7352
  664MOL0     H89605   3.983   3.399  11.313 -0.9270 -1.5903 -0.6775
  664MOL0     H89606   4.080   3.457  11.515  0.1278  0.4700  2.8285
  664MOL0     H89607   4.243   3.391  11.508  0.3105 -0.2863 -1.7618
  664MOL0     H89608   4.172   3.667  11.633  1.1697  1.4682  0.0352
  664MOL0     H89609   4.205   3.514  11.722  1.9141 -3.1846 -0.4986
  664MOL0     H89610   4.396   3.682  11.586  1.3759 -0.9093 -0.2398
  664MOL0     H89611   4.429   3.522  11.574  1.4815  2.0873 -0.8166
  664MOL0     H89612   4.384   3.696  11.823  1.5032 -0.0825 -2.6768
  664MOL0     H89613   4.377   3.523  11.847  1.5127 -1.7229 -1.5744
  664MOL0     H89614   4.606   3.700  11.739  4.3468 -1.8991 -1.1755
  664MOL0     H89615   4.628   3.523  11.777 -1.5453 -1.8164  2.1222
  664MOL0     H89616   4.556   3.731  12.003  2.1219  1.3728  0.7266
  664MOL0     H89617   4.591   3.561  12.010 -4.9932  1.7630  2.0842
  664MOL0     H89618   4.781   3.781  11.918  3.8502  0.1069  0.9339
  664MOL0     H89619   4.821   3.615  11.922 -1.4742 -1.0433 -1.1686
  664MOL0     H89620   4.722   3.738  12.188  0.8649 -2.0542  2.3538
  664MOL0     H89621   4.877   3.771  12.126  0.5285  0.9979  0.3628
  664MOL0     H89622   4.358   3.590  11.187  0.3641  0.0620  0.5204
  664MOL0     H89623   4.354   3.445  10.977  0.3245 -2.1182  0.0466
  664MOL0     H89624   4.016   3.112  10.793 -1.2206 -3.4947 -2.2565
  664MOL0     H89625   3.959   2.965  10.608  0.8369 -1.9326 -1.8366
  664MOL0     H89626   4.054   1.355  11.067 -0.9469  1.2368 -3.7947
  664MOL0     H89627   4.104   1.137  11.041 -1.2686  1.1997  2.0861
  664MOL0     H89628   4.322   0.803  10.852  0.3810 -1.6352  0.0081
  664MOL0     H89629   4.352   0.572  10.799 -1.3615 -1.9176  0.6436
  664MOL0     H89630   4.565   0.270  11.092 -1.3527  0.8606  2.3472
  664MOL0     H89631   4.404   0.310  11.145 -0.9606  0.5039 -0.2858
  664MOL0     H89632   4.315   0.126  11.021  0.7844  3.3456  1.2273
  664MOL0     H89633   4.458   0.061  11.102  2.1455 -1.7349 -0.6398
  664MOL0     H89634   4.480   0.172  10.817 -1.4848 -1.2383 -0.9674
  664MOL0     H89635   4.430   0.012  10.847  1.8795 -1.0767 -0.8755
  664MOL0     H89636   4.632  -0.035  10.804 -1.9688  1.2941 -1.8256
  664MOL0     H89637   4.620  -0.033  10.983  0.9858  1.4247  0.8945
  664MOL0     H89638   4.905   0.267  10.955  1.2350 -0.6418  0.9273
  664MOL0     H89639   4.493   0.509  11.215 -0.8755 -2.8301 -1.0672
  664MOL0     H89640   4.456   0.728  11.258 -4.4590  0.1349  0.0141
  665MOL0     O89641   8.233   8.753   1.824  0.7277  0.0468  0.3759
  665MOL0     C89642   8.178   8.733   1.930  0.3744 -0.2017 -0.0948
  665MOL0     O89643   8.230   8.672   2.042  0.5007 -0.0423  0.2994
  665MOL0     C89644   8.364   8.663   2.061  0.2745 -0.2269  1.5018
  665MOL0     C89645   8.449   8.769   2.086 -0.4396  0.1707 -0.3365
  665MOL0     C89646   8.586   8.756   2.084 -0.2823  0.1159  0.5517
  665MOL0     C89647   8.640   8.631   2.054  0.2961  0.0448  0.4654
  665MOL0     O89648   8.776   8.613   2.051  0.5604 -0.0114  0.3401
  665MOL0     C89649   8.848   8.718   1.984 -0.2039 -0.6771 -0.0498
  665MOL0     C89650   8.965   8.664   1.911 -0.4902  0.2217  0.8124
  665MOL0     C89651   8.964   8.680   1.760  0.3959  1.3177 -0.3875
  665MOL0     C89652   9.102   8.620   1.717 -0.3643 -0.0831  1.1366
  665MOL0     C89653   9.119   8.651   1.565 -0.1836 -0.0877 -0.3069
  665MOL0     C89654   9.184   8.535   1.487  0.2411  0.9674  0.9815
  665MOL0     C89655   9.144   8.545   1.331  0.6942 -0.2470  0.1570
  665MOL0     C89656   9.246   8.476   1.244  0.1465 -0.4218 -0.5430
  665MOL0     N89657   9.353   8.567   1.198  0.6429 -0.2046 -0.1992
  665MOL0     C89658   9.451   8.623   1.268  0.3309 -0.3984 -0.8498
  665MOL0     C89659   9.539   8.674   1.188  1.5198 -0.0993 -0.2673
  665MOL0     C89660   9.662   8.754   1.221  0.5455 -0.6450 -0.5122
  665MOL0     C89661   9.648   8.892   1.145 -0.1464 -0.9655 -1.1767
  665MOL0     C89662   9.514   8.969   1.134  0.5416  0.7993 -0.1331
  665MOL0     C89663   9.507   9.067   1.014  0.0234 -0.3417 -0.3692
  665MOL0     O89664   9.501   8.982   0.898 -0.0020  0.0357  0.4088
  665MOL0     C89665   9.600   8.943   0.817 -0.9644 -0.3740  0.3090
  665MOL0     C89666   9.731   9.002   0.826  0.4131 -0.0311  0.8430
  665MOL0     C89667   9.826   8.973   0.726 -0.2417 -0.3828 -0.5762
  665MOL0     C89668   9.950   9.053   0.728  0.0458  0.4594  0.4253
  665MOL0     C89669   9.801   8.864   0.638 -1.0431 -0.2834  0.8701
  665MOL0     C89670   9.901   8.824   0.541 -0.7896 -0.0310 -0.3795
  665MOL0     O89671   9.999   8.747   0.592  0.2990 -0.0291 -0.1233
  665MOL0     C89672  10.083   8.688   0.507 -0.0577 -0.2159 -0.3408
  665MOL0     C89673  10.169   8.760   0.426  1.5541  0.5673 -0.1486
  665MOL0     C89674  10.256   8.702   0.333  0.2730  0.2782 -0.0798
  665MOL0     C89675  10.274   8.562   0.329  0.7101 -0.6326  0.9894
  665MOL0     O89676  10.347   8.491   0.242 -0.1372 -0.5316 -0.5994
  665MOL0     C89677  10.451   8.560   0.170 -0.0222 -0.0742  0.3300
  665MOL0     C89678  10.528   8.457   0.093  0.0112  0.9449  0.7374
  665MOL0     C89679  10.570   8.336   0.177  0.0960 -0.0129  0.2146
  665MOL0     C89680  10.688   8.256   0.112  0.2084  0.3275 -0.0948
  665MOL0     C89681  10.760   8.157   0.213 -1.4723  0.4196 -1.3508
  665MOL0     C89682  10.878   8.211   0.286  0.0261 -0.3291 -0.0597
  665MOL0     C89683  10.837   8.273   0.424  0.5817 -0.0325  1.1601
  665MOL0     C89684  10.967   8.302   0.501 -0.0299  0.8135 -0.7207
  665MOL0    Cl89685  10.938   8.401   0.648 -0.1368 -0.1505 -0.3767
  665MOL0     C89686  10.193   8.491   0.413 -0.1762 -0.9660 -0.4898
  665MOL0     C89687  10.093   8.546   0.495  0.0832 -0.1958  0.3976
  665MOL0     O89688   9.885   8.852   0.425 -0.0305  0.2845 -0.3657
  665MOL0     C89689   9.669   8.804   0.639 -0.0303 -0.0803 -0.1151
  665MOL0     C89690   9.576   8.844   0.726 -0.2563 -0.0398  0.3437
  665MOL0     N89691   9.484   8.650   1.060 -0.1630  0.7803  0.1432
  665MOL0     N89692   9.370   8.586   1.072  0.2893  0.6750  0.2067
  665MOL0     C89693   8.561   8.524   2.034 -0.6502 -0.1763 -0.1038
  665MOL0     C89694   8.418   8.541   2.046 -0.2550  0.0433  0.6027
  665MOL0     C89695   8.035   8.770   1.950  0.0015  0.7306 -0.7955
  665MOL0     C89696   7.974   8.867   1.872  0.0281  0.2571  0.6580
  665MOL0     C89697   7.841   8.887   1.880 -0.8130 -0.4445  0.0189
  665MOL0     C89698   7.754   8.800   1.950 -0.4029 -0.4814  0.3366
  665MOL0     O89699   7.615   8.818   1.956 -0.4918  0.5152 -0.1460
  665MOL0     C89700   7.550   8.810   1.827 -0.3976 -0.3523 -0.4896
  665MOL0     C89701   7.528   8.672   1.780  0.2515  0.3717  0.1984
  665MOL0     C89702   7.420   8.594   1.854  0.0450  0.8918 -0.2944
  665MOL0     C89703   7.452   8.436   1.873 -0.3450 -0.2327  0.5553
  665MOL0     C89704   7.551   8.430   1.976  0.4620 -0.1731 -0.6521
  665MOL0     C89705   7.620   8.423   2.070 -0.8418 -0.1692 -0.0179
  665MOL0     C89706   7.814   8.704   2.023  0.6712  0.9245 -0.8318
  665MOL0     C89707   7.955   8.690   2.034  0.8460  0.4759  0.3169
  665MOL0     H89708   8.406   8.865   2.114 -0.9530  0.4690 -2.0059
  665MOL0     H89709   8.639   8.847   2.111  2.8655 -1.6972  0.9635
  665MOL0     H89710   8.780   8.784   1.929 -0.4346  1.6790  2.7534
  665MOL0     H89711   8.893   8.788   2.056  0.9477  0.7149 -2.0236
  665MOL0     H89712   9.050   8.719   1.954 -2.1003  1.0747  3.1093
  665MOL0     H89713   8.988   8.560   1.934  1.9307  0.6402  0.6181
  665MOL0     H89714   8.882   8.621   1.718  1.9408  0.0585 -1.7802
  665MOL0     H89715   8.951   8.784   1.728  0.8060  1.4083 -0.2651
  665MOL0     H89716   9.190   8.670   1.759 -0.3655  0.3765  0.5934
  665MOL0     H89717   9.091   8.511   1.725  0.5336 -0.9392 -4.7648
  665MOL0     H89718   9.020   8.665   1.522 -0.6144 -2.4577 -0.2193
  665MOL0     H89719   9.173   8.746   1.560  0.0206 -0.2611 -1.5513
  665MOL0     H89720   9.292   8.546   1.483  0.6643 -1.9980  1.8310
  665MOL0     H89721   9.154   8.431   1.508  0.3604  0.2301 -2.0520
  665MOL0     H89722   9.045   8.500   1.322  0.3483  0.1293  1.7445
  665MOL0     H89723   9.131   8.650   1.304 -1.0214 -0.3207  0.5629
  665MOL0     H89724   9.203   8.428   1.156  1.2923  0.7033 -1.7676
  665MOL0     H89725   9.296   8.404   1.309 -0.9138  0.7031  1.6227
  665MOL0     H89726   9.455   8.630   1.376 -0.7176  0.1090 -0.8390
  665MOL0     H89727   9.677   8.761   1.329  0.8661 -0.3491 -0.5746
  665MOL0     H89728   9.756   8.715   1.182  1.7096  0.5424  0.9543
  665MOL0     H89729   9.680   8.860   1.046 -0.7374  0.2107 -1.7585
  665MOL0     H89730   9.715   8.962   1.195  0.4137 -2.7342  0.7475
  665MOL0     H89731   9.501   9.014   1.233 -1.7342  0.9672 -0.4530
  665MOL0     H89732   9.427   8.903   1.127  0.3603  0.9339  0.6867
  665MOL0     H89733   9.596   9.130   1.012  1.1998 -1.9166 -2.3573
  665MOL0     H89734   9.419   9.131   1.001  1.8297  2.0694 -1.5715
  665MOL0     H89735   9.760   9.079   0.897 -2.9900  3.0131 -0.7172
  665MOL0     H89736   9.942   9.158   0.761 -1.7135  1.3798 -2.5761
  665MOL0     H89737  10.026   8.996   0.783  0.6853  0.2379 -0.6613
  665MOL0     H89738   9.977   9.066   0.623 -2.9875  2.9906 -0.1962
  665MOL0     H89739  10.169   8.868   0.436  1.7951  0.6900 -1.4181
  665MOL0     H89740  10.321   8.768   0.276 -1.1016 -0.5362 -2.7704
  665MOL0     H89741  10.419   8.634   0.097 -0.7485  0.3659  1.0836
  665MOL0     H89742  10.515   8.614   0.241  0.5333 -0.3637  0.0545
  665MOL0     H89743  10.460   8.416   0.017  0.5108 -2.4625  1.9538
  665MOL0     H89744  10.613   8.497   0.036  1.6480 -1.7060  1.1600
  665MOL0     H89745  10.486   8.271   0.204 -0.0080  1.2757  3.3816
  665MOL0     H89746  10.602   8.368   0.276 -0.7222 -1.5401  1.0109
  665MOL0     H89747  10.648   8.199   0.028 -1.9355 -0.3094  1.2660
  665MOL0     H89748  10.756   8.334   0.077  1.7362 -0.1502  1.6369
  665MOL0     H89749  10.799   8.068   0.162 -1.3376 -1.0051  1.0774
  665MOL0     H89750  10.694   8.113   0.288 -0.3765  1.4634  0.2814
  665MOL0     H89751  10.951   8.130   0.301  1.0962 -0.0452 -3.1215
  665MOL0     H89752  10.933   8.287   0.230 -1.0960 -1.3126 -2.6648
  665MOL0     H89753  10.778   8.207   0.487  2.7596 -1.4399  1.8409
  665MOL0     H89754  10.790   8.369   0.402  0.1519 -0.3864  0.5140
  665MOL0     H89755  11.039   8.358   0.441  1.6760  0.6776  1.1124
  665MOL0     H89756  11.018   8.209   0.528 -2.2247 -0.6506 -1.3558
  665MOL0     H89757  10.191   8.382   0.414  1.0571 -1.0197 -1.3026
  665MOL0     H89758  10.016   8.484   0.540 -1.7675  1.5249 -0.2623
  665MOL0     H89759   9.653   8.741   0.553 -2.0006  2.2259 -1.5415
  665MOL0     H89760   9.476   8.801   0.727 -0.8984  1.3875 -0.3601
  665MOL0     H89761   8.610   8.428   2.023  1.5901  0.6972  1.4215
  665MOL0     H89762   8.354   8.455   2.026  1.8842 -1.5324  0.0776
  665MOL0     H89763   8.041   8.923   1.807 -0.1839 -0.9226 -0.6108
  665MOL0     H89764   7.789   8.964   1.823 -1.8338  0.0028  1.4669
  665MOL0     H89765   7.457   8.867   1.827  0.8980  1.8817 -1.3283
  665MOL0     H89766   7.608   8.864   1.751  0.9032  1.6687  1.8074
  665MOL0     H89767   7.624   8.621   1.777 -0.1657 -0.3937 -1.3199
  665MOL0     H89768   7.497   8.668   1.675 -1.9246 -0.2470  0.8106
  665MOL0     H89769   7.322   8.616   1.809 -0.5553  2.3889  1.5995
  665MOL0     H89770   7.394   8.626   1.956 -0.3945 -2.7113  0.8729
  665MOL0     H89771   7.475   8.385   1.779  7.7098 -0.1744  1.8165
  665MOL0     H89772   7.360   8.404   1.923  0.9148 -1.5612  2.1059
  665MOL0     H89773   7.690   8.425   2.151  1.5791 -1.2790 -1.9406
  665MOL0     H89774   7.756   8.641   2.090  0.5627 -0.5029 -2.2099
  665MOL0     H89775   7.996   8.621   2.106 -1.6075  1.1094  2.4778
  666MOL0     O89776   9.831   1.358   7.021  0.2404  0.3764 -0.5887
  666MOL0     C89777   9.921   1.334   6.942  0.2978  0.2055  0.3049
  666MOL0     O89778   9.950   1.397   6.823  0.2798 -0.8361 -0.1603
  666MOL0     C89779   9.852   1.483   6.768  0.6157 -0.1750 -0.3779
  666MOL0     C89780   9.888   1.593   6.692  0.1142  0.1031  0.4621
  666MOL0     C89781   9.795   1.673   6.621  0.3834  0.3831 -0.2201
  666MOL0     C89782   9.653   1.636   6.637  0.7718 -0.2133  0.0142
  666MOL0     O89783   9.562   1.721   6.575 -0.7994  0.2409  0.4900
  666MOL0     C89784   9.595   1.823   6.479 -1.0581  0.3744 -0.2154
  666MOL0     C89785   9.464   1.883   6.438 -0.1308 -0.8257  0.1470
  666MOL0     C89786   9.473   1.961   6.305  0.3930  0.2836  0.6827
  666MOL0     C89787   9.328   2.009   6.277 -0.6043  0.5798 -0.3586
  666MOL0     C89788   9.312   2.065   6.132  0.3962  0.6109 -0.2813
  666MOL0     C89789   9.195   2.161   6.120 -0.2884  0.2928  0.3617
  666MOL0     C89790   9.189   2.230   5.973 -0.4372 -0.2199  0.6625
  666MOL0     C89791   9.181   2.115   5.868 -0.5462  0.3278  0.4128
  666MOL0     N89792   9.123   2.163   5.735  0.8280 -0.6057  0.3753
  666MOL0     C89793   9.127   2.295   5.685 -0.0161 -0.0187 -0.2776
  666MOL0     C89794   9.050   2.287   5.573 -0.0587  0.0035 -0.1145
  666MOL0     C89795   9.015   2.403   5.473 -0.9496 -0.2172 -0.7327
  666MOL0     C89796   8.903   2.482   5.527 -0.8279  0.5876 -0.3055
  666MOL0     C89797   8.931   2.552   5.671 -1.5099  0.2390  0.2933
  666MOL0     C89798   8.812   2.628   5.716  0.0300  0.2735  0.6244
  666MOL0     O89799   8.836   2.677   5.847  0.7157 -0.0484 -0.2533
  666MOL0     C89800   8.790   2.600   5.945  0.9627  0.5523 -0.0337
  666MOL0     C89801   8.869   2.529   6.044  1.4645  0.5480 -0.2196
  666MOL0     C89802   8.801   2.466   6.151  0.1498 -0.2052 -0.6279
  666MOL0     C89803   8.886   2.367   6.230 -0.5544 -0.0326 -0.3855
  666MOL0     C89804   8.658   2.486   6.187 -0.0318 -0.0065  0.5299
  666MOL0     C89805   8.591   2.428   6.309 -0.8884  0.4288  0.3225
  666MOL0     O89806   8.655   2.467   6.423 -0.2426  0.3900  0.5219
  666MOL0     C89807   8.652   2.397   6.531 -0.1476  0.8499  0.5561
  666MOL0     C89808   8.692   2.443   6.657 -0.0822  0.2279  0.1743
  666MOL0     C89809   8.685   2.374   6.777 -0.3721  0.3890 -0.2595
  666MOL0     C89810   8.632   2.246   6.778  0.3446  0.2163  0.1506
  666MOL0     O89811   8.604   2.191   6.904 -0.8231  0.2421  0.0265
  666MOL0     C89812   8.468   2.205   6.958 -0.6395  0.2448 -0.3574
  666MOL0     C89813   8.416   2.060   6.974  0.6377 -0.7626  0.8314
  666MOL0     C89814   8.290   2.060   7.060 -0.0651 -0.2386 -0.3584
  666MOL0     C89815   8.230   1.927   7.055  0.2430  0.3970 -0.9233
  666MOL0     C89816   8.105   1.925   7.143  0.6845  0.1203 -0.3907
  666MOL0     C89817   7.972   1.870   7.085 -0.4283 -0.1732  0.1432
  666MOL0     C89818   8.009   1.736   7.014 -0.3813 -0.3077 -0.1508
  666MOL0     C89819   7.895   1.664   6.953  0.1519 -0.1147 -0.1667
  666MOL0    Cl89820   7.797   1.576   7.072  0.0985 -0.0831 -0.1065
  666MOL0     C89821   8.593   2.188   6.651 -0.2864 -0.3928 -0.7049
  666MOL0     C89822   8.616   2.261   6.528 -0.0641  0.2176  0.4385
  666MOL0     O89823   8.494   2.356   6.294  0.5450 -0.0965 -0.2872
  666MOL0     C89824   8.584   2.565   6.087  0.4256  0.9785 -0.1178
  666MOL0     C89825   8.650   2.619   5.972  0.7629  0.9122  0.0502
  666MOL0     N89826   8.996   2.154   5.569 -0.4430 -0.3648 -0.0517
  666MOL0     N89827   9.023   2.098   5.681 -0.7254  0.5862  0.3628
  666MOL0     C89828   9.619   1.521   6.715 -1.2034  0.0512  0.5608
  666MOL0     C89829   9.712   1.448   6.785 -1.4322  1.1380 -0.3916
  666MOL0     C89830  10.034   1.246   6.982 -0.6062  0.3516  1.0899
  666MOL0     C89831  10.103   1.167   6.887 -1.2677  0.0592  0.0320
  666MOL0     C89832  10.210   1.095   6.934  0.2462 -0.0146 -0.3170
  666MOL0     C89833  10.251   1.087   7.068  0.4940 -0.0194  0.2232
  666MOL0     O89834  10.351   1.001   7.096  0.7760 -0.1311 -0.4088
  666MOL0     C89835  10.420   1.015   7.220 -0.7236  0.7972  0.7860
  666MOL0     C89836  10.554   0.940   7.223 -0.6283 -0.4193  0.5020
  666MOL0     C89837  10.534   0.798   7.200 -0.4000 -0.0594  0.6903
  666MOL0     C89838  10.670   0.732   7.188 -0.5384  0.4715  0.0992
  666MOL0     C89839  10.644   0.583   7.161 -0.0734  0.4492 -0.4421
  666MOL0     C89840  10.633   0.470   7.142 -0.3162 -0.6047  0.0881
  666MOL0     C89841  10.175   1.158   7.157  0.6326 -0.4994  0.6665
  666MOL0     C89842  10.064   1.231   7.120 -0.2905 -0.1300 -0.0060
  666MOL0     H89843   9.994   1.608   6.671 -0.3012  0.1232 -1.8820
  666MOL0     H89844   9.826   1.755   6.558  3.9996 -1.5075 -1.1606
  666MOL0     H89845   9.648   1.906   6.527  0.0630 -1.0821  1.2010
  666MOL0     H89846   9.652   1.778   6.397  0.6445 -1.0231  1.6280
  666MOL0     H89847   9.392   1.802   6.425  0.1878 -0.9279 -1.1497
  666MOL0     H89848   9.440   1.952   6.519  2.4682 -1.2569  1.4060
  666MOL0     H89849   9.543   2.044   6.295 -0.4839  0.8336 -1.4691
  666MOL0     H89850   9.500   1.888   6.229  2.1816  0.3647  1.1921
  666MOL0     H89851   9.266   1.921   6.295 -0.5278  0.7779  1.0028
  666MOL0     H89852   9.296   2.075   6.358  0.8533  3.0546 -1.6574
  666MOL0     H89853   9.401   2.126   6.112  0.6386 -0.5538 -3.0774
  666MOL0     H89854   9.305   1.988   6.055  1.4315 -0.5491  0.7283
  666MOL0     H89855   9.109   2.100   6.149  2.3370 -1.4866  5.7136
  666MOL0     H89856   9.197   2.236   6.199  3.3846  0.2004  0.5176
  666MOL0     H89857   9.099   2.291   5.973 -2.2931 -2.7601  1.8550
  666MOL0     H89858   9.283   2.284   5.958  0.4318 -2.1068 -1.3197
  666MOL0     H89859   9.116   2.038   5.910  1.1194 -1.1661  0.3446
  666MOL0     H89860   9.288   2.092   5.861  0.1022  2.7859  1.2302
  666MOL0     H89861   9.183   2.378   5.727  1.2517 -0.9889 -0.0009
  666MOL0     H89862   9.093   2.479   5.461 -2.1139  0.7579 -2.6463
  666MOL0     H89863   9.009   2.372   5.369  1.5177  2.9233 -1.9492
  666MOL0     H89864   8.822   2.410   5.540 -1.2001  1.2461  1.4157
  666MOL0     H89865   8.878   2.559   5.453 -3.2326  0.0217 -0.1725
  666MOL0     H89866   9.015   2.623   5.668 -1.4191  0.1023 -0.7991
  666MOL0     H89867   8.964   2.476   5.742 -0.2442 -0.8317 -1.3749
  666MOL0     H89868   8.720   2.570   5.704 -0.5186  0.7531  2.3515
  666MOL0     H89869   8.795   2.718   5.657  2.4420 -0.8620 -2.0612
  666MOL0     H89870   8.977   2.528   6.047  1.4973  1.3752 -0.8268
  666MOL0     H89871   8.840   2.268   6.232  3.9661 -2.4546 -1.5841
  666MOL0     H89872   8.978   2.362   6.171  0.5881  1.1380  1.2358
  666MOL0     H89873   8.897   2.416   6.327  0.1207 -1.7053  0.4203
  666MOL0     H89874   8.723   2.546   6.672 -0.9892  0.6288 -0.6011
  666MOL0     H89875   8.733   2.412   6.867 -0.4860 -0.5584  0.2164
  666MOL0     H89876   8.467   2.239   7.062  2.7172 -2.0332  0.5957
  666MOL0     H89877   8.414   2.264   6.883 -1.2399 -1.0501 -0.9539
  666MOL0     H89878   8.402   2.023   6.872  3.3670 -2.6683  1.0319
  666MOL0     H89879   8.487   1.999   7.030  0.0388 -1.5845  0.7122
  666MOL0     H89880   8.223   2.140   7.028 -2.6249 -3.3176 -3.5277
  666MOL0     H89881   8.331   2.072   7.161  0.7702 -1.6872 -0.4966
  666MOL0     H89882   8.224   1.898   6.950  0.7602 -2.8391 -0.1465
  666MOL0     H89883   8.304   1.859   7.100 -2.9352 -2.0251  1.0855
  666MOL0     H89884   8.085   2.029   7.167  2.2963  1.0103 -2.5627
  666MOL0     H89885   8.122   1.861   7.230 -2.0089 -0.7445 -0.4215
  666MOL0     H89886   7.899   1.861   7.166 -0.0515 -2.1539  0.3161
  666MOL0     H89887   7.925   1.947   7.023 -1.7597  0.1470  1.4818
  666MOL0     H89888   8.065   1.671   7.082 -0.3920  0.4975  0.6439
  666MOL0     H89889   8.074   1.744   6.927 -1.2907 -0.6515 -0.8779
  666MOL0     H89890   7.938   1.600   6.875  3.5495  0.6111  0.9430
  666MOL0     H89891   7.831   1.738   6.904 -1.9285 -2.8563 -1.8474
  666MOL0     H89892   8.543   2.092   6.652 -0.5746 -0.2401  0.3072
  666MOL0     H89893   8.593   2.211   6.434 -0.4120 -1.4365  1.3611
  666MOL0     H89894   8.476   2.570   6.085  0.3764  2.3965  1.9173
  666MOL0     H89895   8.587   2.684   5.911  0.1736 -0.4332 -0.8134
  666MOL0     H89896   9.516   1.486   6.716 -1.1462 -0.1800 -0.5569
  666MOL0     H89897   9.681   1.356   6.835 -0.6907  0.3835 -1.2811
  666MOL0     H89898  10.079   1.178   6.781  3.0076 -2.7477 -1.4952
  666MOL0     H89899  10.250   1.026   6.860  0.6541  2.0957 -2.1793
  666MOL0     H89900  10.447   1.120   7.232 -0.2186  0.6778  0.7288
  666MOL0     H89901  10.367   0.982   7.310  0.4782 -1.7134  0.6794
  666MOL0     H89902  10.609   0.967   7.313  0.3768 -2.3215  0.4963
  666MOL0     H89903  10.618   0.986   7.147  0.4084 -1.6621  0.5976
  666MOL0     H89904  10.477   0.781   7.108  2.4889 -1.0728 -1.0284
  666MOL0     H89905  10.484   0.756   7.287 -0.5942 -0.4350  0.4009
  666MOL0     H89906  10.739   0.731   7.273 -0.2885 -0.4145 -0.0959
  666MOL0     H89907  10.728   0.767   7.102 -0.0412 -1.4687 -0.4088
  666MOL0     H89908  10.617   0.365   7.130  3.3942 -1.8309  3.4873
  666MOL0     H89909  10.209   1.161   7.260  3.2683  0.7938 -0.1539
  666MOL0     H89910  10.021   1.282   7.205  2.2410 -2.4272  2.9101
  667MOL0     O89911   9.401  11.059   1.180  0.0914 -0.8320 -0.8246
  667MOL0     C89912   9.442  11.022   1.290  0.1394 -0.0473  0.1871
  667MOL0     O89913   9.505  11.097   1.385 -0.2349  0.2502  0.4174
  667MOL0     C89914   9.542  11.233   1.356 -0.1368 -0.7737  0.4509
  667MOL0     C89915   9.647  11.285   1.435  0.3290  0.2071 -0.8330
  667MOL0     C89916   9.675  11.415   1.447 -0.1043 -0.7731  0.2376
  667MOL0     C89917   9.630  11.505   1.342 -0.9012  0.7545  0.9947
  667MOL0     O89918   9.655  11.636   1.366  0.9796  0.1204  0.2878
  667MOL0     C89919   9.724  11.719   1.272  0.3967  0.1677  0.4895
  667MOL0     C89920   9.872  11.678   1.261  0.7083  0.1457 -0.0382
  667MOL0     C89921   9.943  11.729   1.393  0.1729 -1.0903 -0.0368
  667MOL0     C89922  10.092  11.750   1.357 -0.4137 -0.5186  0.0930
  667MOL0     C89923  10.186  11.632   1.394  0.4698 -0.2020 -0.0519
  667MOL0     C89924  10.143  11.489   1.341 -0.3392  0.7413 -0.8160
  667MOL0     C89925  10.240  11.364   1.376 -0.1121 -1.7224  0.1361
  667MOL0     C89926  10.266  11.335   1.522 -0.0420  0.4243  0.8774
  667MOL0     N89927  10.348  11.214   1.535 -0.0941  0.1110 -0.4931
  667MOL0     C89928  10.301  11.088   1.573 -0.6275 -0.3581 -1.0462
  667MOL0     C89929  10.410  11.003   1.554  0.2767 -0.5526  0.4398
  667MOL0     C89930  10.423  10.850   1.581 -0.2209 -0.2594  0.2924
  667MOL0     C89931  10.478  10.834   1.716 -0.1318 -0.4653 -0.1907
  667MOL0     C89932  10.378  10.844   1.823  0.3974 -0.5226 -0.4861
  667MOL0     C89933  10.291  10.708   1.853 -0.1755  0.4009  0.8303
  667MOL0     O89934  10.227  10.674   1.734  0.1213  0.3987 -0.9151
  667MOL0     C89935  10.121  10.586   1.759  0.3560  0.0190  0.1776
  667MOL0     C89936  10.071  10.529   1.874  0.0072  0.6186  0.2320
  667MOL0     C89937   9.953  10.451   1.866  0.8826 -0.0125 -0.1647
  667MOL0     C89938   9.883  10.414   2.000 -0.0737 -0.2054 -1.5234
  667MOL0     C89939   9.887  10.421   1.740 -0.3466 -0.7371 -0.3552
  667MOL0     C89940   9.758  10.347   1.726 -0.8622 -0.5873 -0.6100
  667MOL0     O89941   9.744  10.302   1.593  0.2881  0.8086 -0.5499
  667MOL0     C89942   9.631  10.222   1.579 -0.0392 -0.3637  0.1996
  667MOL0     C89943   9.511  10.276   1.530  0.2300  0.2841 -0.4310
  667MOL0     C89944   9.405  10.189   1.493 -0.2179  0.5411 -0.3513
  667MOL0     C89945   9.426  10.047   1.491 -0.7874 -0.3301 -0.3430
  667MOL0     O89946   9.338   9.951   1.435 -0.4520  1.0013  0.3501
  667MOL0     C89947   9.201   9.995   1.440 -0.6881 -0.0423  0.9801
  667MOL0     C89948   9.128   9.971   1.574  0.6511  0.4299  0.4400
  667MOL0     C89949   8.979  10.023   1.565 -0.3554 -0.6159 -0.0116
  667MOL0     C89950   8.912  10.021   1.703  0.3652 -0.5635 -0.4548
  667MOL0     C89951   8.786  10.111   1.704 -0.7493 -0.5402  0.5543
  667MOL0     C89952   8.676  10.076   1.814  0.5758  0.3251 -0.1341
  667MOL0     C89953   8.557  10.172   1.799 -0.7077  0.6732 -0.2072
  667MOL0     C89954   8.450  10.145   1.902 -0.2932 -0.1282 -0.6684
  667MOL0    Cl89955   8.512  10.222   2.055 -0.1427 -0.0726 -0.0375
  667MOL0     C89956   9.552  10.002   1.538  1.3170  0.9484 -0.1783
  667MOL0     C89957   9.654  10.086   1.579  0.6951  0.8750 -0.5552
  667MOL0     O89958   9.669  10.349   1.809  0.7249  0.2118  0.2022
  667MOL0     C89959   9.951  10.470   1.622  0.5617  1.3079  0.9375
  667MOL0     C89960  10.058  10.559   1.635  0.3708  0.8144  0.7955
  667MOL0     N89961  10.516  11.081   1.515 -0.5837  0.8461  0.0999
  667MOL0     N89962  10.475  11.205   1.497 -0.2514  0.1558  0.4946
  667MOL0     C89963   9.532  11.458   1.249  0.7679 -0.3570 -0.4999
  667MOL0     C89964   9.484  11.322   1.258  0.8516  0.1138  0.3485
  667MOL0     C89965   9.417  10.877   1.325  1.0150 -0.8412 -0.3982
  667MOL0     C89966   9.485  10.813   1.437  0.0024  0.5179  0.4785
  667MOL0     C89967   9.438  10.683   1.475  0.0706 -0.5185 -0.6885
  667MOL0     C89968   9.319  10.627   1.428 -0.4521  0.0848  0.2526
  667MOL0     O89969   9.274  10.512   1.491 -0.3288 -0.2077  0.1467
  667MOL0     C89970   9.133  10.464   1.465 -0.5549  0.1752 -0.2141
  667MOL0     C89971   9.049  10.538   1.554  0.7150 -0.4439 -0.1514
  667MOL0     C89972   8.908  10.486   1.532 -0.4819  0.5081  0.2063
  667MOL0     C89973   8.806  10.563   1.613 -0.8261 -0.2916  0.2727
  667MOL0     C89974   8.671  10.508   1.592  0.9400  0.5060 -0.4774
  667MOL0     C89975   8.554  10.477   1.593  0.7720 -0.0191 -0.0042
  667MOL0     C89976   9.252  10.686   1.319 -0.7106 -0.2776 -0.4495
  667MOL0     C89977   9.299  10.814   1.272  0.4022 -0.6946 -0.1119
  667MOL0     H89978   9.681  11.204   1.498 -0.7547  0.2117 -0.2068
  667MOL0     H89979   9.751  11.461   1.509 -1.1293 -0.0758  1.0161
  667MOL0     H89980   9.674  11.711   1.175  1.7726  2.5779 -0.5141
  667MOL0     H89981   9.718  11.825   1.298 -1.0408  0.3350 -0.3983
  667MOL0     H89982   9.879  11.572   1.234 -1.8646  0.0736 -0.6371
  667MOL0     H89983   9.914  11.738   1.180  1.5634  0.7336  0.8135
  667MOL0     H89984   9.905  11.826   1.426 -0.9685 -1.3875 -0.4409
  667MOL0     H89985   9.929  11.666   1.480  1.8868  0.8039  1.7170
  667MOL0     H89986  10.107  11.766   1.250 -0.4457 -2.3581 -0.2256
  667MOL0     H89987  10.127  11.839   1.411 -0.0356  0.0287 -1.0208
  667MOL0     H89988  10.287  11.664   1.366  1.9428 -0.1935  4.5550
  667MOL0     H89989  10.184  11.625   1.503 -0.0146  3.3539  0.3043
  667MOL0     H89990  10.046  11.449   1.369  1.2883 -2.5767  0.6968
  667MOL0     H89991  10.135  11.512   1.234 -0.3424  0.5490 -0.8565
  667MOL0     H89992  10.194  11.279   1.326 -4.3871  1.0507 -1.2646
  667MOL0     H89993  10.335  11.398   1.332 -0.5672 -2.3354 -1.3958
  667MOL0     H89994  10.167  11.321   1.566 -1.0422  2.3420 -0.6080
  667MOL0     H89995  10.317  11.419   1.568  1.9178  0.9689 -2.0077
  667MOL0     H89996  10.206  11.063   1.621  1.1463 -2.3423  1.7361
  667MOL0     H89997  10.320  10.816   1.572  0.1781 -1.0474 -1.9585
  667MOL0     H89998  10.491  10.801   1.510  1.3961  0.8607  1.0001
  667MOL0     H89999  10.555  10.909   1.736 -1.3956  0.6557  0.6473
  667MOL0     H90000  10.529  10.737   1.724  0.0919 -0.7348 -3.6340
  667MOL0     H90001  10.313  10.927   1.795  0.5314  0.2764  1.4453
  667MOL0     H90002  10.425  10.872   1.918  3.2711  2.0238 -2.4832
  667MOL0     H90003  10.225  10.736   1.936 -0.3664  1.2867  0.3976
  667MOL0     H90004  10.354  10.622   1.878 -1.8224 -1.6570 -1.6203
  667MOL0     H90005  10.106  10.535   1.976 -0.4460  0.9610  0.3744
  667MOL0     H90006   9.811  10.333   1.998 -0.1942 -0.1287 -0.7048
  667MOL0     H90007   9.965  10.392   2.069  0.7092  0.0719 -2.3458
  667MOL0     H90008   9.836  10.501   2.048 -3.4205 -3.0876  0.8858
  667MOL0     H90009   9.503  10.384   1.519 -4.0609 -0.0654 -3.1954
  667MOL0     H90010   9.315  10.242   1.461 -0.8726  0.4503  1.2362
  667MOL0     H90011   9.181  10.097   1.407 -2.2424 -1.1952 -1.9878
  667MOL0     H90012   9.141   9.941   1.365 -1.1088 -1.8421  2.5324
  667MOL0     H90013   9.125   9.865   1.601 -1.2208  0.4373  0.4117
  667MOL0     H90014   9.189  10.025   1.647 -0.9103 -0.2509  2.3462
  667MOL0     H90015   8.921   9.963   1.495 -0.7961 -0.4332  0.1952
  667MOL0     H90016   8.978  10.124   1.523  1.3605 -0.4912  0.1662
  667MOL0     H90017   8.887   9.919   1.732 -1.4688 -0.1314 -0.3454
  667MOL0     H90018   8.973  10.073   1.778 -1.6283  2.1448 -0.5713
  667MOL0     H90019   8.734  10.101   1.609  0.3064 -1.4843  0.0495
  667MOL0     H90020   8.828  10.210   1.725 -0.5378  0.2498 -2.9449
  667MOL0     H90021   8.639   9.975   1.791  1.2600  0.8894 -4.5315
  667MOL0     H90022   8.712  10.065   1.917  0.0739 -1.9060 -0.1424
  667MOL0     H90023   8.515  10.161   1.698 -1.0164 -2.2550  0.1550
  667MOL0     H90024   8.578  10.279   1.806  1.1239  0.4757 -1.8680
  667MOL0     H90025   8.430  10.039   1.920 -1.0037 -0.0865 -1.1723
  667MOL0     H90026   8.358  10.200   1.879  0.5653  1.8463  0.4068
  667MOL0     H90027   9.550   9.893   1.537 -0.5649  0.9648 -0.4087
  667MOL0     H90028   9.742  10.042   1.625  0.5490 -1.4910 -2.3625
  667MOL0     H90029   9.928  10.431   1.523 -3.7928 -0.5660  2.4465
  667MOL0     H90030  10.102  10.600   1.544 -2.3152 -2.2779 -2.1376
  667MOL0     H90031   9.483  11.530   1.184  0.3745  0.9092  1.1202
  667MOL0     H90032   9.400  11.287   1.199  1.9855 -1.6294 -0.3223
  667MOL0     H90033   9.580  10.840   1.482 -0.7596 -1.1314  3.3490
  667MOL0     H90034   9.487  10.628   1.555 -3.4886 -2.2177  0.4980
  667MOL0     H90035   9.084  10.485   1.369  0.8977  2.3845 -0.5480
  667MOL0     H90036   9.130  10.358   1.493 -1.0756  0.6170  1.4821
  667MOL0     H90037   9.042  10.647   1.542  1.4967 -0.5191 -1.4674
  667MOL0     H90038   9.080  10.505   1.654 -2.3086 -0.5326  0.8532
  667MOL0     H90039   8.901  10.384   1.570 -2.4966  0.3148 -0.5734
  667MOL0     H90040   8.886  10.486   1.425 -2.7472  1.4572  0.6294
  667MOL0     H90041   8.826  10.669   1.597  2.0229 -0.8870 -0.7592
  667MOL0     H90042   8.836  10.548   1.718 -0.6007  1.4242  0.4909
  667MOL0     H90043   8.458  10.430   1.601 -0.0979  1.6769 -0.1034
  667MOL0     H90044   9.161  10.641   1.280  0.2931 -2.0025 -0.8728
  667MOL0     H90045   9.246  10.863   1.191  0.5777 -1.1970 -0.5290
  668MOL0     O90046   0.740   2.266   1.008  0.0239 -0.3141 -0.6394
  668MOL0     C90047   0.814   2.202   0.934 -0.0980  0.4477  0.7576
  668MOL0     O90048   0.923   2.127   0.967 -0.4220  0.1720 -0.0231
  668MOL0     C90049   0.951   2.112   1.101 -0.4666  0.2017  0.7719
  668MOL0     C90050   0.849   2.068   1.189 -0.0615 -0.1477 -0.5611
  668MOL0     C90051   0.879   2.051   1.326 -0.0666  0.6159  0.9143
  668MOL0     C90052   1.016   2.077   1.360 -0.0445  0.1706 -0.7497
  668MOL0     O90053   1.067   2.051   1.488 -0.0498 -0.5757 -0.0648
  668MOL0     C90054   0.972   2.035   1.603  0.5324 -0.8363  0.6556
  668MOL0     C90055   0.926   2.174   1.661 -0.8107  0.5243 -0.3221
  668MOL0     C90056   1.037   2.268   1.695  0.8995  0.1657  0.6363
  668MOL0     C90057   1.004   2.361   1.810 -0.7701  0.9235  0.5085
  668MOL0     C90058   1.042   2.305   1.946 -0.0070 -0.1677  1.0601
  668MOL0     C90059   1.007   2.415   2.049  0.1312 -0.2310 -1.1717
  668MOL0     C90060   1.026   2.347   2.181 -0.0518 -0.1679 -1.0777
  668MOL0     C90061   0.967   2.425   2.298 -0.6048 -0.9285  0.0417
  668MOL0     N90062   0.973   2.357   2.430  0.0214 -0.2747 -0.1323
  668MOL0     C90063   1.090   2.325   2.496  0.0141  0.2333 -0.4730
  668MOL0     C90064   1.054   2.271   2.614  0.0136 -0.7803 -0.7825
  668MOL0     C90065   1.138   2.189   2.713  0.3313  0.0620 -0.4802
  668MOL0     C90066   1.279   2.190   2.673  0.2935  0.4060  0.0623
  668MOL0     C90067   1.368   2.135   2.792 -0.5371  0.0005  0.2852
  668MOL0     C90068   1.333   1.987   2.818  0.2928  1.5997  0.6882
  668MOL0     O90069   1.422   1.954   2.924 -0.0852 -0.6460 -0.0697
  668MOL0     C90070   1.442   1.822   2.948  0.2000  0.4505  0.3499
  668MOL0     C90071   1.567   1.796   3.004 -0.3676 -0.0209 -0.5644
  668MOL0     C90072   1.611   1.665   3.044  0.4513 -0.1972 -0.5589
  668MOL0     C90073   1.742   1.632   3.114  0.3163  0.5533  0.3348
  668MOL0     C90074   1.519   1.558   3.016 -1.2037 -0.1927 -0.4126
  668MOL0     C90075   1.546   1.417   3.048  0.2729  0.3361  0.0380
  668MOL0     O90076   1.482   1.346   3.143 -1.5921 -0.3591 -0.0020
  668MOL0     C90077   1.387   1.397   3.222  0.5105  0.3869  0.2498
  668MOL0     C90078   1.420   1.490   3.324  0.8209 -0.7034  0.2096
  668MOL0     C90079   1.318   1.531   3.413 -0.4488  0.2349 -0.7291
  668MOL0     C90080   1.188   1.494   3.402 -0.8041 -0.2431 -0.2017
  668MOL0     O90081   1.089   1.539   3.482 -0.1690  0.2297 -0.0776
  668MOL0     C90082   1.103   1.510   3.615  0.1717  0.1879 -0.4916
  668MOL0     C90083   0.963   1.545   3.683 -0.3313  0.9720 -0.1989
  668MOL0     C90084   0.972   1.531   3.832 -0.0884 -0.4164  1.1442
  668MOL0     C90085   0.859   1.603   3.911  0.7997  0.8060 -0.2320
  668MOL0     C90086   0.877   1.565   4.062 -0.1033 -0.6684 -0.3061
  668MOL0     C90087   0.761   1.619   4.142  0.7253  0.0741 -0.7323
  668MOL0     C90088   0.791   1.625   4.291  0.6602  0.6598 -0.1725
  668MOL0     C90089   0.759   1.489   4.360 -1.1592 -0.1698 -0.2314
  668MOL0    Cl90090   0.875   1.357   4.322 -0.1447  0.5369  0.0321
  668MOL0     C90091   1.146   1.420   3.286 -0.2871  0.1294 -0.3580
  668MOL0     C90092   1.251   1.371   3.206  0.3081  0.1439  0.0262
  668MOL0     O90093   1.622   1.365   2.963 -0.4082  0.4843  0.2534
  668MOL0     C90094   1.398   1.591   2.946  0.0945 -0.8662  0.4780
  668MOL0     C90095   1.355   1.719   2.916  0.1934 -0.3120  0.3716
  668MOL0     N90096   0.913   2.274   2.623  0.9770 -0.0468  0.1626
  668MOL0     N90097   0.869   2.338   2.518 -0.8154  0.4392  0.0105
  668MOL0     C90098   1.115   2.103   1.270  1.1092 -0.5467  0.1197
  668MOL0     C90099   1.081   2.122   1.146 -1.2449 -0.6872 -0.0315
  668MOL0     C90100   0.767   2.188   0.788  0.5925  1.1078  0.5176
  668MOL0     C90101   0.854   2.161   0.677 -0.0238 -0.0600 -0.1986
  668MOL0     C90102   0.806   2.129   0.547  0.2237 -1.0333 -0.6962
  668MOL0     C90103   0.666   2.158   0.524 -0.3431 -0.4485  0.5454
  668MOL0     O90104   0.604   2.149   0.402  0.1665  0.0536  0.2450
  668MOL0     C90105   0.677   2.120   0.282  0.1789 -0.4867 -0.1605
  668MOL0     C90106   0.702   1.971   0.276 -0.9592  1.1000 -0.5450
  668MOL0     C90107   0.574   1.889   0.286  0.9034 -0.1408  0.0986
  668MOL0     C90108   0.602   1.732   0.292 -0.3266  0.9753 -0.6502
  668MOL0     C90109   0.642   1.680   0.163 -0.2286 -0.7006  0.1237
  668MOL0     C90110   0.689   1.638   0.057 -0.5444  0.6648  0.6495
  668MOL0     C90111   0.590   2.189   0.626 -0.1016 -0.8655 -0.2225
  668MOL0     C90112   0.630   2.205   0.756 -0.5150  0.0763 -1.0155
  668MOL0     H90113   0.748   2.048   1.155 -1.4556  0.0261  2.9619
  668MOL0     H90114   0.802   2.004   1.387 -1.4704 -2.2304 -2.7260
  668MOL0     H90115   0.885   1.974   1.580 -2.0060  2.2863  1.2858
  668MOL0     H90116   1.034   1.989   1.680  1.8089  2.5304  1.8404
  668MOL0     H90117   0.851   2.219   1.595 -3.2683 -1.7770  0.7470
  668MOL0     H90118   0.879   2.153   1.757  0.6992  2.2582  0.8632
  668MOL0     H90119   1.125   2.205   1.709  0.8946 -0.4867 -1.8111
  668MOL0     H90120   1.043   2.313   1.595 -3.0631 -1.5191 -0.5427
  668MOL0     H90121   1.065   2.451   1.805 -2.4512  2.1321  0.8382
  668MOL0     H90122   0.898   2.388   1.811 -1.0880  0.1198 -2.4002
  668MOL0     H90123   1.005   2.204   1.966  0.4015 -0.3706  0.8010
  668MOL0     H90124   1.150   2.291   1.937 -0.0461 -0.0843  0.4058
  668MOL0     H90125   1.062   2.509   2.042 -1.2534  0.8737  1.3099
  668MOL0     H90126   0.903   2.449   2.053  0.9242  2.3899 -0.7546
  668MOL0     H90127   0.985   2.245   2.180  1.8965 -0.9913 -1.9148
  668MOL0     H90128   1.134   2.332   2.191 -0.3807 -3.4658 -1.3324
  668MOL0     H90129   0.861   2.433   2.272  0.3706  0.7973 -4.3096
  668MOL0     H90130   1.014   2.523   2.288 -2.8163  0.1280 -0.6431
  668MOL0     H90131   1.192   2.334   2.458 -0.4993  0.9589 -1.7556
  668MOL0     H90132   1.130   2.245   2.807  0.8337 -2.0969  0.9061
  668MOL0     H90133   1.092   2.090   2.716  1.6428 -0.6232 -2.2366
  668MOL0     H90134   1.315   2.286   2.635  0.2265  0.1357 -0.7065
  668MOL0     H90135   1.285   2.118   2.591 -0.4824  0.5918 -0.1663
  668MOL0     H90136   1.350   2.183   2.888  2.4785  1.8063  0.0860
  668MOL0     H90137   1.474   2.153   2.775 -0.9187  1.8842 -0.2615
  668MOL0     H90138   1.339   1.927   2.727  1.3373  1.2540  0.9676
  668MOL0     H90139   1.228   1.980   2.848  0.4675  1.0551  1.1861
  668MOL0     H90140   1.628   1.884   3.021  0.7701  0.4663 -5.6194
  668MOL0     H90141   1.814   1.583   3.048 -0.9498  0.5627 -1.1040
  668MOL0     H90142   1.790   1.729   3.135  1.1340  0.3598 -0.5841
  668MOL0     H90143   1.718   1.571   3.201  0.6607 -1.5811 -0.9939
  668MOL0     H90144   1.518   1.529   3.350  0.6675 -0.4097  0.3545
  668MOL0     H90145   1.345   1.595   3.496  1.5807 -0.4376 -0.8121
  668MOL0     H90146   1.126   1.404   3.622  3.6231  0.6459 -2.5842
  668MOL0     H90147   1.184   1.571   3.658  0.5522 -1.4195  1.1761
  668MOL0     H90148   0.918   1.643   3.668 -1.3680  0.6975  0.9789
  668MOL0     H90149   0.892   1.468   3.649  0.4083  0.4637 -0.6296
  668MOL0     H90150   1.062   1.586   3.863 -0.2449  0.3193  0.3276
  668MOL0     H90151   0.981   1.426   3.859 -2.5275 -1.2228 -0.8430
  668MOL0     H90152   0.872   1.711   3.902  2.3867  0.7469  1.0180
  668MOL0     H90153   0.760   1.579   3.869  0.3866  2.1916 -0.1103
  668MOL0     H90154   0.977   1.596   4.093  0.4350 -1.9504 -0.7013
  668MOL0     H90155   0.883   1.456   4.074 -0.6525 -0.4556  2.7586
  668MOL0     H90156   0.732   1.714   4.096  0.8475 -0.6162 -2.2875
  668MOL0     H90157   0.676   1.556   4.116  1.1666 -1.1680  0.7360
  668MOL0     H90158   0.734   1.704   4.339  1.5912 -0.6239  3.3994
  668MOL0     H90159   0.894   1.654   4.315  2.5421 -3.9786 -1.4666
  668MOL0     H90160   0.656   1.466   4.333 -1.8560 -1.3491  2.9514
  668MOL0     H90161   0.764   1.504   4.468 -0.2069 -1.1048 -0.1340
  668MOL0     H90162   1.042   1.399   3.267 -0.1534 -4.1894  2.2906
  668MOL0     H90163   1.220   1.306   3.124  2.7130 -2.4968  1.0352
  668MOL0     H90164   1.327   1.513   2.922 -0.8129  0.0494  0.0999
  668MOL0     H90165   1.262   1.730   2.860 -0.5828 -1.4529  1.4002
  668MOL0     H90166   1.209   2.131   1.318  0.2156  0.4296  1.3950
  668MOL0     H90167   1.167   2.140   1.082 -1.0590 -0.1638  0.3569
  668MOL0     H90168   0.958   2.139   0.698 -0.2880  0.3268  1.6070
  668MOL0     H90169   0.874   2.109   0.465 -0.2365 -2.4191 -0.7556
  668MOL0     H90170   0.619   2.161   0.199 -0.3783 -1.5617 -0.3163
  668MOL0     H90171   0.766   2.181   0.301  0.2059 -0.7478  0.6149
  668MOL0     H90172   0.768   1.955   0.362 -0.1952  2.1703 -0.9135
  668MOL0     H90173   0.741   1.938   0.180  0.8614 -4.5389  1.6768
  668MOL0     H90174   0.509   1.913   0.202  0.1935 -2.5075 -0.0906
  668MOL0     H90175   0.527   1.917   0.381  1.0705  1.0200 -0.1421
  668MOL0     H90176   0.502   1.694   0.316  0.4772 -0.6811  0.2623
  668MOL0     H90177   0.671   1.710   0.374 -0.2559  1.8483 -0.4699
  668MOL0     H90178   0.728   1.605  -0.037  3.4213 -2.8860  3.1320
  668MOL0     H90179   0.482   2.191   0.617 -0.3762  2.3748  2.1091
  668MOL0     H90180   0.554   2.220   0.832  2.5094  3.6758  1.6639
  669MOL0     O90181  10.829   7.314   3.315 -0.1660  0.6646 -0.2244
  669MOL0     C90182  10.816   7.413   3.382 -0.5409 -0.8407  0.2579
  669MOL0     O90183  10.872   7.538   3.343  0.9699 -0.3135  0.0008
  669MOL0     C90184  10.928   7.535   3.213 -0.2654 -0.7252 -0.2152
  669MOL0     C90185  10.846   7.501   3.111 -0.3226  0.1613 -0.6140
  669MOL0     C90186  10.888   7.477   2.979  0.0083  0.7780 -1.1163
  669MOL0     C90187  11.018   7.515   2.939 -1.1313 -0.7938 -0.2007
  669MOL0     O90188  11.076   7.504   2.813 -0.2893 -0.0627  0.0196
  669MOL0     C90189  10.990   7.456   2.719 -1.2304  0.1442  1.2631
  669MOL0     C90190  11.064   7.470   2.585 -1.1414  0.4233  0.3322
  669MOL0     C90191  11.160   7.346   2.572 -0.7259  0.2431 -0.3866
  669MOL0     C90192  11.261   7.366   2.456  0.3350 -0.0682 -0.5028
  669MOL0     C90193  11.174   7.399   2.325 -0.5537  0.4846 -0.0181
  669MOL0     C90194  11.274   7.415   2.203  0.6497  0.8558 -0.0318
  669MOL0     C90195  11.220   7.517   2.100 -1.1138  0.7024 -0.9543
  669MOL0     C90196  11.344   7.577   2.032  0.5651  0.3266  0.0935
  669MOL0     N90197  11.299   7.662   1.920 -0.1986 -0.3742 -0.0050
  669MOL0     C90198  11.264   7.628   1.793  1.2260  0.5308 -0.1101
  669MOL0     C90199  11.233   7.742   1.731 -0.0197  1.1215 -0.6176
  669MOL0     C90200  11.219   7.753   1.575  0.0521 -0.2053 -0.0583
  669MOL0     C90201  11.064   7.755   1.553  0.6470 -0.1824 -1.3237
  669MOL0     C90202  11.020   7.830   1.428 -0.2116 -0.6355  1.3493
  669MOL0     C90203  11.057   7.759   1.303 -0.9140  0.1468 -1.9537
  669MOL0     O90204  10.998   7.631   1.294  0.0280 -0.2208  0.6709
  669MOL0     C90205  10.869   7.619   1.242 -0.2697 -0.2147  1.0534
  669MOL0     C90206  10.806   7.493   1.234 -0.6805 -0.4497  0.5011
  669MOL0     C90207  10.670   7.483   1.191  0.0595 -0.1694  0.3128
  669MOL0     C90208  10.619   7.334   1.201  0.1375 -0.2441 -0.5706
  669MOL0     C90209  10.601   7.598   1.145  0.2109  0.1641 -0.5035
  669MOL0     C90210  10.473   7.601   1.083 -0.0396 -0.3628 -0.1811
  669MOL0     O90211  10.440   7.723   1.021 -0.9967 -0.6799 -0.0784
  669MOL0     C90212  10.309   7.754   0.992 -0.2446 -0.6549 -0.0144
  669MOL0     C90213  10.194   7.694   1.045 -0.8625 -0.4459  1.1392
  669MOL0     C90214  10.074   7.737   0.999 -0.1022 -0.3408  0.8093
  669MOL0     C90215  10.054   7.850   0.909  0.1432  0.2431  0.5690
  669MOL0     O90216   9.933   7.888   0.859  0.3115  0.6901 -0.7056
  669MOL0     C90217   9.812   7.824   0.914 -0.0215 -0.4662  0.4611
  669MOL0     C90218   9.699   7.898   0.849 -1.1020 -0.7929  0.5665
  669MOL0     C90219   9.566   7.825   0.865 -0.0856  1.1469 -0.3637
  669MOL0     C90220   9.562   7.703   0.776  0.5671 -0.6139 -0.1415
  669MOL0     C90221   9.430   7.640   0.797 -0.0077 -0.0702  0.6169
  669MOL0     C90222   9.399   7.545   0.685  0.5197  0.1658 -0.4017
  669MOL0     C90223   9.276   7.459   0.725  0.6969  0.3873 -0.3531
  669MOL0     C90224   9.151   7.541   0.762  0.1951  0.5449 -0.3470
  669MOL0    Cl90225   8.990   7.453   0.765 -0.3394 -0.1138  0.5490
  669MOL0     C90226  10.171   7.912   0.864 -0.0275  0.8624  0.7394
  669MOL0     C90227  10.292   7.863   0.907 -0.5531 -0.5665  0.0156
  669MOL0     O90228  10.416   7.502   1.068  0.2116  0.2277  0.6716
  669MOL0     C90229  10.664   7.719   1.157  1.2482 -0.0774  0.0715
  669MOL0     C90230  10.791   7.731   1.206  0.8587 -0.2029 -0.8013
  669MOL0     N90231  11.222   7.846   1.820 -0.2627  0.5189  0.2592
  669MOL0     N90232  11.282   7.798   1.928  0.5596  0.8621  0.6571
  669MOL0     C90233  11.099   7.564   3.037  0.9788  1.2283  0.0721
  669MOL0     C90234  11.056   7.568   3.169  0.0924  0.8377 -0.5947
  669MOL0     C90235  10.760   7.410   3.514  0.5856  0.2072 -0.5666
  669MOL0     C90236  10.788   7.517   3.601 -0.8995 -0.1301  0.8059
  669MOL0     C90237  10.726   7.532   3.726 -0.0269 -0.4384  0.1623
  669MOL0     C90238  10.642   7.433   3.778 -0.1275 -0.3637  0.9962
  669MOL0     O90239  10.592   7.433   3.900 -0.1012  0.4248 -0.9454
  669MOL0     C90240  10.520   7.554   3.937  0.5457  0.2707  0.1890
  669MOL0     C90241  10.460   7.536   4.077  0.6144 -0.4204  0.0211
  669MOL0     C90242  10.560   7.488   4.185  1.0817 -0.1085 -0.4069
  669MOL0     C90243  10.498   7.414   4.308  0.9093 -0.4889 -0.2919
  669MOL0     C90244  10.404   7.503   4.378 -0.1932 -0.4536  0.4110
  669MOL0     C90245  10.318   7.558   4.445  0.2759  0.2432  0.3661
  669MOL0     C90246  10.614   7.330   3.687  0.4627  0.9200 -0.8212
  669MOL0     C90247  10.662   7.321   3.558  0.0338 -0.4619  0.4766
  669MOL0     H90248  10.743   7.471   3.127 -0.3848 -1.0976 -2.9134
  669MOL0     H90249  10.809   7.433   2.918 -1.5678  0.9844  0.6801
  669MOL0     H90250  10.953   7.354   2.723 -0.0461 -0.2923  1.4032
  669MOL0     H90251  10.901   7.519   2.707 -2.8683 -2.4279 -1.3768
  669MOL0     H90252  11.002   7.464   2.495  3.4295  1.4513 -3.2669
  669MOL0     H90253  11.117   7.564   2.569 -0.6360  0.0406 -0.3099
  669MOL0     H90254  11.227   7.343   2.659  1.1429 -0.1140 -1.7961
  669MOL0     H90255  11.118   7.246   2.565  2.1565 -1.1554  0.5440
  669MOL0     H90256  11.319   7.445   2.504  0.7056 -1.5958  1.7198
  669MOL0     H90257  11.314   7.272   2.440 -2.1326 -1.4066 -1.4620
  669MOL0     H90258  11.099   7.323   2.303 -2.3785  1.7536  1.4739
  669MOL0     H90259  11.123   7.496   2.328  1.0508  1.5517 -2.9344
  669MOL0     H90260  11.368   7.455   2.241  2.6361 -2.0666 -1.4790
  669MOL0     H90261  11.311   7.326   2.152  0.9696  1.1171 -0.2631
  669MOL0     H90262  11.155   7.467   2.028  0.0204 -0.1385 -1.4287
  669MOL0     H90263  11.171   7.600   2.151 -0.2090  1.7068 -1.6579
  669MOL0     H90264  11.410   7.492   2.008 -1.8733 -1.5916 -0.2312
  669MOL0     H90265  11.393   7.648   2.099  0.3220  0.7173 -0.1413
  669MOL0     H90266  11.259   7.533   1.740  1.8158  2.1533 -3.3282
  669MOL0     H90267  11.257   7.854   1.555  2.2000 -1.0971 -0.7205
  669MOL0     H90268  11.277   7.676   1.523 -0.2642 -2.5267  2.7511
  669MOL0     H90269  11.014   7.812   1.632  4.3325 -1.1535  2.0505
  669MOL0     H90270  11.034   7.650   1.551  0.4534 -0.1518 -0.4244
  669MOL0     H90271  11.077   7.923   1.413  1.1821 -1.6852 -0.2370
  669MOL0     H90272  10.913   7.849   1.434 -0.2299  1.2720 -2.3377
  669MOL0     H90273  11.165   7.746   1.318 -1.2065  0.0372  0.4157
  669MOL0     H90274  11.052   7.826   1.216 -1.9474  1.9192 -0.5855
  669MOL0     H90275  10.859   7.404   1.268  2.7871  1.0239 -0.6707
  669MOL0     H90276  10.646   7.304   1.302  0.2767  3.0788  0.4969
  669MOL0     H90277  10.510   7.322   1.198 -0.3360  2.8544  0.4095
  669MOL0     H90278  10.659   7.259   1.132 -0.2994 -3.7149  2.5995
  669MOL0     H90279  10.209   7.602   1.101  1.7799 -3.4300 -3.8099
  669MOL0     H90280   9.986   7.679   1.027 -1.9733  0.7474 -2.3054
  669MOL0     H90281   9.808   7.718   0.888 -0.3627 -0.2636 -0.3313
  669MOL0     H90282   9.805   7.829   1.023  1.1918  1.7518  0.4890
  669MOL0     H90283   9.691   7.995   0.900 -3.2794 -1.4723  1.6532
  669MOL0     H90284   9.732   7.905   0.745  1.0334 -1.0482  1.1738
  669MOL0     H90285   9.485   7.893   0.838 -1.9283  0.7243  3.3695
  669MOL0     H90286   9.548   7.799   0.970  2.6615 -1.0290 -0.3073
  669MOL0     H90287   9.585   7.719   0.670 -0.5499 -2.6250 -0.7518
  669MOL0     H90288   9.641   7.636   0.812  2.2153  1.3899  0.1864
  669MOL0     H90289   9.355   7.720   0.802 -0.1042 -0.2231  1.8415
  669MOL0     H90290   9.428   7.595   0.896  1.7768 -2.0393 -0.1601
  669MOL0     H90291   9.393   7.592   0.587  0.2004  1.2026  0.1100
  669MOL0     H90292   9.481   7.473   0.680 -0.1671 -0.7110  0.4885
  669MOL0     H90293   9.305   7.412   0.819  1.2351  2.6432  0.6865
  669MOL0     H90294   9.272   7.389   0.641 -2.2612  0.4176 -0.3349
  669MOL0     H90295   9.140   7.613   0.681 -0.2964  1.0228  0.1314
  669MOL0     H90296   9.143   7.585   0.862 -3.8743  0.1384 -0.3219
  669MOL0     H90297  10.166   7.996   0.796  0.2595  0.7684  0.6018
  669MOL0     H90298  10.374   7.908   0.853 -1.6670  0.1245 -1.1483
  669MOL0     H90299  10.609   7.805   1.120 -0.7254 -3.0171 -4.7722
  669MOL0     H90300  10.839   7.827   1.224  2.1043 -0.3921 -2.7323
  669MOL0     H90301  11.200   7.593   3.009  0.5382  1.2927 -1.6140
  669MOL0     H90302  11.121   7.606   3.247  0.4971  0.7341 -0.8815
  669MOL0     H90303  10.860   7.592   3.571 -0.6624 -0.1194  1.3900
  669MOL0     H90304  10.741   7.623   3.783  0.1910  0.5493 -1.4124
  669MOL0     H90305  10.589   7.638   3.940 -0.7309  1.4702 -1.8355
  669MOL0     H90306  10.454   7.586   3.855  1.4617  2.3508  0.2024
  669MOL0     H90307  10.369   7.474   4.079 -0.8730  1.6796  1.4090
  669MOL0     H90308  10.417   7.634   4.102 -0.4948 -0.9808  0.3889
  669MOL0     H90309  10.603   7.582   4.221  1.1156  0.3877 -1.7145
  669MOL0     H90310  10.647   7.434   4.146  0.5069  1.2060 -3.8223
  669MOL0     H90311  10.577   7.389   4.379 -3.1540  0.7073  5.3666
  669MOL0     H90312  10.443   7.325   4.275 -1.9166  1.0967 -0.1804
  669MOL0     H90313  10.242   7.590   4.514 -1.1259  0.3055 -1.1455
  669MOL0     H90314  10.546   7.255   3.728  2.6320  0.4760  2.2620
  669MOL0     H90315  10.619   7.243   3.495 -0.3242 -0.3734  0.6070
  670MOL0     O90316   7.102   3.399   5.602 -0.3801 -0.1736  0.4845
  670MOL0     C90317   7.128   3.484   5.689 -0.1751 -0.6719  0.4637
  670MOL0     O90318   7.143   3.617   5.661 -0.5063 -0.2303  0.0857
  670MOL0     C90319   7.153   3.649   5.530  0.3846  0.8554 -0.2478
  670MOL0     C90320   7.266   3.712   5.480 -0.2624 -0.8719 -0.7015
  670MOL0     C90321   7.265   3.757   5.351  0.4930 -0.3257  1.0458
  670MOL0     C90322   7.149   3.737   5.266 -0.4924 -0.4869  0.1942
  670MOL0     O90323   7.145   3.771   5.137 -0.8399 -0.1073  0.0426
  670MOL0     C90324   7.144   3.911   5.108 -0.6437  0.0893 -0.3953
  670MOL0     C90325   7.009   3.971   5.030 -0.7233 -0.2713  0.7309
  670MOL0     C90326   7.008   3.936   4.879  0.2735 -0.5459 -0.3044
  670MOL0     C90327   6.888   3.999   4.817 -0.1904 -0.2832  0.1325
  670MOL0     C90328   6.855   3.922   4.691  1.3850  0.0722  0.1644
  670MOL0     C90329   6.735   3.982   4.619  1.0121 -0.4053 -0.7904
  670MOL0     C90330   6.732   3.959   4.471 -0.1770  0.5883  0.2968
  670MOL0     C90331   6.752   3.809   4.428  1.3042  0.1201  0.8354
  670MOL0     N90332   6.752   3.792   4.280  0.4699  0.7029 -0.6693
  670MOL0     C90333   6.640   3.783   4.197 -0.5570  0.0563  0.0913
  670MOL0     C90334   6.686   3.799   4.072 -0.9549  0.9441 -1.1753
  670MOL0     C90335   6.606   3.838   3.949 -0.1227 -0.5866  0.9414
  670MOL0     C90336   6.689   3.902   3.837 -0.3666  0.6489  0.4849
  670MOL0     C90337   6.623   3.933   3.695 -0.6262 -0.2399 -0.2845
  670MOL0     C90338   6.506   4.027   3.721 -0.8196 -0.0219  0.3532
  670MOL0     O90339   6.545   4.154   3.781  0.1246 -0.1942 -0.9173
  670MOL0     C90340   6.439   4.237   3.811 -0.2918  0.4406  0.0615
  670MOL0     C90341   6.471   4.370   3.814 -0.0367  0.4672 -0.0839
  670MOL0     C90342   6.392   4.476   3.860  1.2492  0.5008 -0.0562
  670MOL0     C90343   6.459   4.615   3.880 -0.5738  0.0064 -0.9905
  670MOL0     C90344   6.251   4.443   3.872  0.8760  0.0837 -0.1524
  670MOL0     C90345   6.141   4.529   3.934 -0.7416 -0.7292 -0.3342
  670MOL0     O90346   6.019   4.471   3.948  1.4162 -0.1456  1.0207
  670MOL0     C90347   5.904   4.545   3.974  0.5133 -0.1624  0.0538
  670MOL0     C90348   5.802   4.465   4.022  0.0168  0.3209 -0.8036
  670MOL0     C90349   5.671   4.513   4.053 -0.0203  0.2429 -0.0708
  670MOL0     C90350   5.641   4.643   4.033  0.2020  1.1301 -0.0037
  670MOL0     O90351   5.516   4.690   4.057  0.1669 -0.1560 -0.2713
  670MOL0     C90352   5.468   4.683   4.194 -0.0366 -0.1422 -0.1511
  670MOL0     C90353   5.318   4.722   4.215 -0.0117 -0.4868  0.3245
  670MOL0     C90354   5.249   4.834   4.126 -0.1308  0.5447 -0.2324
  670MOL0     C90355   5.334   4.962   4.131 -0.1367 -0.1533  0.1531
  670MOL0     C90356   5.248   5.071   4.054 -0.0941 -0.7836 -0.7072
  670MOL0     C90357   5.325   5.197   4.024  0.9352  1.1759 -0.2244
  670MOL0     C90358   5.266   5.277   3.901 -0.8459  0.0925 -0.2135
  670MOL0     C90359   5.364   5.339   3.812 -0.8970 -0.6059  0.3837
  670MOL0    Cl90360   5.274   5.440   3.676  0.2596  0.1852 -0.3213
  670MOL0     C90361   5.741   4.731   3.980  0.3026  0.4734  0.1397
  670MOL0     C90362   5.872   4.686   3.961  0.0904 -0.0156  0.8079
  670MOL0     O90363   6.176   4.643   3.974  0.3392 -0.0728 -0.7041
  670MOL0     C90364   6.202   4.314   3.837 -0.4595 -0.7286  1.0485
  670MOL0     C90365   6.297   4.211   3.806  0.6974  0.2675 -0.6258
  670MOL0     N90366   6.827   3.826   4.088  0.0390  0.8342 -0.4649
  670MOL0     N90367   6.858   3.811   4.215  0.4484  0.6876  0.0264
  670MOL0     C90368   7.037   3.672   5.313 -0.1088  0.0165  0.2682
  670MOL0     C90369   7.036   3.632   5.443 -0.6474  0.0713  0.2755
  670MOL0     C90370   7.097   3.443   5.824 -0.7137  0.2608  0.2448
  670MOL0     C90371   7.059   3.311   5.847 -0.7961 -0.4965 -0.6142
  670MOL0     C90372   7.021   3.278   5.976  0.2539 -0.4055  0.5529
  670MOL0     C90373   7.033   3.360   6.082  0.0001 -0.7844  0.8472
  670MOL0     O90374   7.021   3.331   6.214  0.2872 -1.0204 -0.0219
  670MOL0     C90375   6.964   3.205   6.246  0.2080  0.1903 -0.1377
  670MOL0     C90376   6.814   3.199   6.220 -0.8066  0.6945  0.3405
  670MOL0     C90377   6.739   3.150   6.339 -0.4379 -0.4787 -0.4183
  670MOL0     C90378   6.591   3.183   6.323  0.0464  0.2577 -0.2107
  670MOL0     C90379   6.529   3.320   6.337 -0.8507 -0.4049  0.3536
  670MOL0     C90380   6.489   3.438   6.328 -0.4446 -0.6469 -0.1159
  670MOL0     C90381   7.065   3.490   6.050 -0.2414 -0.0034 -0.5678
  670MOL0     C90382   7.095   3.534   5.925  1.1946 -0.2986  0.2627
  670MOL0     H90383   7.356   3.733   5.536 -0.0739 -0.6366 -1.0904
  670MOL0     H90384   7.357   3.796   5.307 -0.5870 -0.8786 -1.9408
  670MOL0     H90385   7.148   3.964   5.203  0.7227 -2.5241  1.1264
  670MOL0     H90386   7.234   3.944   5.056 -1.6884 -0.7063 -2.8856
  670MOL0     H90387   6.911   3.946   5.070 -1.6078  0.8555 -0.6410
  670MOL0     H90388   7.029   4.078   5.043  3.1807 -0.9371  1.6780
  670MOL0     H90389   7.102   3.977   4.842  1.1233 -0.9055  1.3411
  670MOL0     H90390   7.003   3.827   4.866  2.8016 -1.0506  2.0105
  670MOL0     H90391   6.807   4.013   4.889 -0.0793  2.6007 -0.1968
  670MOL0     H90392   6.909   4.103   4.792 -0.3056 -0.3727 -0.3376
  670MOL0     H90393   6.935   3.907   4.618  0.5143 -2.5421 -0.3996
  670MOL0     H90394   6.813   3.821   4.703  0.5138  0.5607  1.4232
  670MOL0     H90395   6.645   3.938   4.663  0.3725  1.6583  0.0884
  670MOL0     H90396   6.727   4.089   4.642 -2.0666 -0.2729 -1.9629
  670MOL0     H90397   6.637   3.984   4.424 -0.0941  0.1613 -0.1014
  670MOL0     H90398   6.810   4.015   4.420 -1.4401 -1.3230 -4.2175
  670MOL0     H90399   6.680   3.745   4.479  1.5148 -3.6921 -3.0761
  670MOL0     H90400   6.844   3.763   4.466 -0.3293 -0.8143  4.0314
  670MOL0     H90401   6.533   3.789   4.214 -0.4929  1.4162  0.1155
  670MOL0     H90402   6.546   3.753   3.915 -3.0829  1.8691 -0.4447
  670MOL0     H90403   6.532   3.914   3.976  1.5517  0.8865  1.5377
  670MOL0     H90404   6.784   3.847   3.830 -1.5801 -1.6239  0.7773
  670MOL0     H90405   6.725   4.000   3.870  1.5630  0.5241 -1.0491
  670MOL0     H90406   6.588   3.847   3.637 -0.1353 -1.3227  0.9704
  670MOL0     H90407   6.702   3.984   3.640 -2.2414  1.3603 -1.2565
  670MOL0     H90408   6.435   3.971   3.783 -1.5263 -1.0656 -1.3349
  670MOL0     H90409   6.463   4.046   3.622  2.5770  3.1653 -0.7282
  670MOL0     H90410   6.573   4.390   3.782 -0.2223  0.8092 -0.4711
  670MOL0     H90411   6.550   4.616   3.819 -1.3816  1.0948 -2.2078
  670MOL0     H90412   6.398   4.699   3.845 -0.8784  0.3211  0.2356
  670MOL0     H90413   6.492   4.632   3.983  0.0696 -1.8971 -0.8451
  670MOL0     H90414   5.805   4.357   4.032  0.1866  0.3902 -0.0787
  670MOL0     H90415   5.604   4.453   4.114 -2.8034  3.7462  0.6178
  670MOL0     H90416   5.471   4.587   4.245 -0.9694  0.0675  0.3256
  670MOL0     H90417   5.528   4.758   4.247  3.5154 -3.3138  0.7782
  670MOL0     H90418   5.251   4.636   4.205 -1.3243  0.5924 -0.4407
  670MOL0     H90419   5.309   4.756   4.319 -4.3407 -1.1820  0.3404
  670MOL0     H90420   5.148   4.844   4.168  0.1120 -0.2403  0.5763
  670MOL0     H90421   5.248   4.809   4.020 -1.6841  2.9398 -0.8578
  670MOL0     H90422   5.366   4.995   4.230  3.3764  1.7610 -1.4519
  670MOL0     H90423   5.427   4.936   4.079 -1.8391  0.7411 -3.7196
  670MOL0     H90424   5.158   5.092   4.112  0.7624 -1.2417  0.8475
  670MOL0     H90425   5.213   5.029   3.960 -0.2575  0.7391 -1.3569
  670MOL0     H90426   5.325   5.263   4.112 -0.8908  0.5856  0.2768
  670MOL0     H90427   5.427   5.163   4.007  0.3346 -1.1770  0.4587
  670MOL0     H90428   5.205   5.352   3.952 -0.0807 -1.2348  2.8431
  670MOL0     H90429   5.207   5.207   3.841 -0.9019 -0.1640  0.1417
  670MOL0     H90430   5.422   5.258   3.767 -1.3477  0.5233 -2.4208
  670MOL0     H90431   5.441   5.408   3.849 -0.2107 -0.7921 -0.6555
  670MOL0     H90432   5.721   4.838   3.976 -0.2962  0.4425  1.6996
  670MOL0     H90433   5.951   4.755   3.936  0.2858  0.4382  2.5364
  670MOL0     H90434   6.096   4.291   3.833 -0.9362  1.3204 -1.8454
  670MOL0     H90435   6.255   4.112   3.790 -3.3765  2.0116 -2.2268
  670MOL0     H90436   6.950   3.650   5.252  1.3406  0.9358 -2.2861
  670MOL0     H90437   6.950   3.577   5.479 -1.2797 -1.2084 -2.8365
  670MOL0     H90438   7.043   3.229   5.778 -1.5246 -0.6529 -0.2779
  670MOL0     H90439   6.988   3.175   5.983 -0.4697 -0.3147 -1.0737
  670MOL0     H90440   7.015   3.124   6.192 -0.7235 -1.9303  1.9978
  670MOL0     H90441   6.995   3.187   6.349  0.3590  1.4332  0.0419
  670MOL0     H90442   6.798   3.137   6.131  1.8070 -0.0722  0.3226
  670MOL0     H90443   6.779   3.296   6.184  1.5862  0.5194 -2.9573
  670MOL0     H90444   6.777   3.192   6.433 -2.4918 -0.3728  0.4165
  670MOL0     H90445   6.743   3.042   6.355  0.4636 -0.1224  2.4482
  670MOL0     H90446   6.539   3.139   6.408  2.9496 -0.3900  1.3983
  670MOL0     H90447   6.564   3.151   6.222 -3.7071  0.4494  0.6108
  670MOL0     H90448   6.439   3.532   6.316 -1.3579 -0.7980  2.0416
  670MOL0     H90449   7.056   3.559   6.134 -3.4068 -0.5358 -0.3650
  670MOL0     H90450   7.129   3.636   5.909 -0.0980  0.0959 -0.1575
  671MOL0     O90451   1.651  10.378   6.788  0.3347  0.9295 -0.1204
  671MOL0     C90452   1.695  10.461   6.872 -0.0440  0.4349  0.0834
  671MOL0     O90453   1.655  10.478   6.999  0.4320 -0.6612 -0.7071
  671MOL0     C90454   1.547  10.401   7.032 -0.1816 -0.1130  0.0581
  671MOL0     C90455   1.553  10.260   7.045  0.1538  0.2416  0.3538
  671MOL0     C90456   1.434  10.184   7.068  0.0018  0.0197 -0.1563
  671MOL0     C90457   1.308  10.245   7.084  0.2983  0.3195  0.2612
  671MOL0     O90458   1.186  10.189   7.126  0.0429  0.2676 -0.1850
  671MOL0     C90459   1.166  10.050   7.102  1.4553 -0.8517 -0.4389
  671MOL0     C90460   1.007  10.040   7.114 -0.7997  0.5470  1.1178
  671MOL0     C90461   0.937  10.142   7.026 -0.2463  0.1338 -0.3214
  671MOL0     C90462   0.793  10.112   7.031  0.0405  0.0617 -0.4531
  671MOL0     C90463   0.732  10.151   7.160 -0.2855 -0.0415 -0.0541
  671MOL0     C90464   0.589  10.197   7.139  0.0598  0.4885  0.0381
  671MOL0     C90465   0.529  10.224   7.277 -0.4488  0.5189  0.5667
  671MOL0     C90466   0.387  10.267   7.269  0.4569 -0.2447 -0.1285
  671MOL0     N90467   0.388  10.410   7.256 -0.1159 -0.2206 -0.0409
  671MOL0     C90468   0.426  10.500   7.353 -0.2640  0.6732  0.1171
  671MOL0     C90469   0.430  10.615   7.284 -0.9858 -0.8344  0.2103
  671MOL0     C90470   0.477  10.743   7.355  0.2734 -0.0678 -0.2913
  671MOL0     C90471   0.368  10.827   7.420 -0.0415  0.4626  0.9649
  671MOL0     C90472   0.396  10.986   7.436  0.1716  0.3866  0.0762
  671MOL0     C90473   0.522  11.000   7.530  0.4724 -0.1117 -0.1260
  671MOL0     O90474   0.644  10.995   7.469  0.0840  0.3965 -0.0017
  671MOL0     C90475   0.691  11.117   7.415  1.2353  0.5375 -0.4773
  671MOL0     C90476   0.825  11.127   7.391  0.4633 -0.5498 -0.2491
  671MOL0     C90477   0.888  11.237   7.326 -0.1055  0.1105  0.0941
  671MOL0     C90478   1.031  11.209   7.280 -0.9433 -0.1771 -0.9572
  671MOL0     C90479   0.809  11.358   7.298 -0.7254  0.6276  0.2981
  671MOL0     C90480   0.853  11.478   7.228 -0.3463 -0.0394  0.3360
  671MOL0     O90481   0.955  11.459   7.125 -0.2610 -0.2119 -0.0032
  671MOL0     C90482   1.011  11.574   7.071  0.3547  0.5572 -0.3526
  671MOL0     C90483   0.951  11.630   6.955  0.9150 -0.3084 -0.3146
  671MOL0     C90484   1.011  11.745   6.902 -0.1101  0.6431 -0.3371
  671MOL0     C90485   1.121  11.808   6.971  0.4808 -0.5050  0.4722
  671MOL0     O90486   1.152  11.933   6.919 -0.2104 -0.0605  0.2675
  671MOL0     C90487   1.239  11.937   6.806  0.2428  0.1035  0.4842
  671MOL0     C90488   1.396  11.910   6.831  1.4373  0.1137 -0.2548
  671MOL0     C90489   1.478  12.037   6.861  0.7379  0.3011  0.4453
  671MOL0     C90490   1.476  12.048   7.014 -0.0366  0.9077  0.1517
  671MOL0     C90491   1.550  12.172   7.034  0.5860 -0.1569 -1.0050
  671MOL0     C90492   1.564  12.222   7.179  0.0585 -1.0035  0.0365
  671MOL0     C90493   1.680  12.323   7.191 -1.3205 -0.1047  0.5445
  671MOL0     C90494   1.724  12.345   7.335 -0.0219  0.5764 -0.1668
  671MOL0    Cl90495   1.815  12.504   7.338  0.7539 -0.0364  0.7259
  671MOL0     C90496   1.173  11.755   7.082  0.1434  0.1623 -0.4718
  671MOL0     C90497   1.120  11.638   7.130  0.7180 -0.5315 -0.7374
  671MOL0     O90498   0.792  11.581   7.244 -0.2055  0.1768 -0.6654
  671MOL0     C90499   0.676  11.352   7.338 -0.7212  0.0401 -0.3211
  671MOL0     C90500   0.617  11.240   7.394 -0.4382  0.2213  0.8712
  671MOL0     N90501   0.401  10.606   7.147  0.4322 -0.0349  0.0230
  671MOL0     N90502   0.384  10.478   7.135  0.3061  1.0655  0.3659
  671MOL0     C90503   1.307  10.382   7.084 -0.2211 -0.0910 -0.1952
  671MOL0     C90504   1.419  10.456   7.054  0.2637 -0.7043 -0.2825
  671MOL0     C90505   1.787  10.566   6.824 -0.1744  0.0342  0.0519
  671MOL0     C90506   1.808  10.580   6.689 -0.3584  0.2300  0.4794
  671MOL0     C90507   1.885  10.679   6.635  1.3804  0.0232 -1.2305
  671MOL0     C90508   1.946  10.769   6.719 -0.1107  0.7214 -0.3438
  671MOL0     O90509   2.038  10.857   6.669 -0.1988 -0.7809  0.9661
  671MOL0     C90510   1.973  10.961   6.594 -0.5342 -0.2013 -0.4629
  671MOL0     C90511   2.078  11.055   6.534  0.1361  0.6935 -0.8969
  671MOL0     C90512   2.169  11.112   6.638 -0.4230  0.0229 -0.7368
  671MOL0     C90513   2.291  11.189   6.598 -1.0727 -1.2108 -0.0351
  671MOL0     C90514   2.237  11.293   6.522  0.0411 -0.3630  0.1152
  671MOL0     C90515   2.163  11.373   6.470 -0.6809 -0.9229 -0.9821
  671MOL0     C90516   1.929  10.753   6.860 -0.6581 -0.5318 -0.2872
  671MOL0     C90517   1.851  10.655   6.912  0.0683 -1.0533  0.2443
  671MOL0     H90518   1.657  10.227   7.043 -0.3316 -1.3544  0.0704
  671MOL0     H90519   1.430  10.076   7.061  0.9475 -0.0775  0.7090
  671MOL0     H90520   1.189  10.021   6.999  1.0095  1.0614 -1.1092
  671MOL0     H90521   1.210   9.978   7.172 -3.2155 -2.8740  0.7883
  671MOL0     H90522   0.980   9.938   7.086 -0.4852  0.8442 -0.3412
  671MOL0     H90523   0.977  10.063   7.217 -0.3290 -2.9892  2.1853
  671MOL0     H90524   0.966  10.243   7.055 -0.2651 -0.8502  3.7506
  671MOL0     H90525   0.987  10.124   6.930 -2.4357 -0.0873 -1.4671
  671MOL0     H90526   0.737  10.167   6.955 -2.1098  0.5911  1.3878
  671MOL0     H90527   0.783  10.005   7.012  3.1945 -0.0986 -1.7976
  671MOL0     H90528   0.753  10.076   7.238  1.4174  0.9712  0.5206
  671MOL0     H90529   0.776  10.245   7.196 -1.2892  0.8831 -1.1764
  671MOL0     H90530   0.588  10.287   7.077  1.9273  2.0749  2.1232
  671MOL0     H90531   0.530  10.120   7.088 -0.1288 -0.4799  1.6542
  671MOL0     H90532   0.515  10.129   7.330 -1.6638  0.9022  0.9752
  671MOL0     H90533   0.589  10.293   7.337  0.8772 -0.0075 -0.1016
  671MOL0     H90534   0.326  10.246   7.357 -1.2729  0.1928 -1.1771
  671MOL0     H90535   0.331  10.225   7.184 -4.6158  0.1538  2.6280
  671MOL0     H90536   0.453  10.481   7.456  0.1315  1.3529  0.1432
  671MOL0     H90537   0.554  10.718   7.429  0.6323  1.8934  0.0647
  671MOL0     H90538   0.528  10.805   7.280  1.6015  0.3048  0.8663
  671MOL0     H90539   0.363  10.786   7.521 -1.2740 -1.1607  0.2965
  671MOL0     H90540   0.277  10.813   7.361  0.9218  1.6819 -0.9236
  671MOL0     H90541   0.308  11.018   7.493  0.6865  0.0197  1.1057
  671MOL0     H90542   0.416  11.043   7.345  0.6780 -1.5668 -1.0997
  671MOL0     H90543   0.519  10.922   7.607 -3.0154 -1.9326 -1.8533
  671MOL0     H90544   0.492  11.093   7.579 -2.1296  0.9377 -3.3672
  671MOL0     H90545   0.873  11.034   7.420 -0.0614 -1.8060 -3.1129
  671MOL0     H90546   1.082  11.306   7.287  0.2192 -0.8721  1.1869
  671MOL0     H90547   1.075  11.146   7.358  0.9818  1.7720 -0.3834
  671MOL0     H90548   1.040  11.183   7.175  0.3814  0.7166 -1.0889
  671MOL0     H90549   0.870  11.580   6.903  1.9236 -1.9420 -0.3979
  671MOL0     H90550   0.969  11.789   6.812 -1.9068 -0.2082  0.0420
  671MOL0     H90551   1.190  11.866   6.739  0.3913 -0.0613  0.5478
  671MOL0     H90552   1.240  12.037   6.762 -0.7586  0.9276  2.2210
  671MOL0     H90553   1.413  11.834   6.907  0.3626 -0.8564 -0.9643
  671MOL0     H90554   1.441  11.864   6.742  1.6867 -0.3705  0.1181
  671MOL0     H90555   1.425  12.124   6.822  1.7574  1.0136  0.6150
  671MOL0     H90556   1.576  12.033   6.813 -0.0789 -4.4900 -1.3554
  671MOL0     H90557   1.373  12.059   7.051 -0.1212  1.0110 -0.1090
  671MOL0     H90558   1.524  11.968   7.070 -2.6227  0.0605  1.3029
  671MOL0     H90559   1.500  12.250   6.977 -4.0246 -1.3891  0.9429
  671MOL0     H90560   1.648  12.158   6.988  2.0626 -1.5408  2.2137
  671MOL0     H90561   1.471  12.264   7.217  1.0069  1.7935 -0.4423
  671MOL0     H90562   1.575  12.130   7.237 -0.3511 -0.6234  0.7306
  671MOL0     H90563   1.651  12.420   7.151 -2.4043  1.3682  4.3869
  671MOL0     H90564   1.764  12.292   7.128 -0.3912 -0.4353  1.8991
  671MOL0     H90565   1.774  12.257   7.376 -2.5293 -2.6420 -3.3868
  671MOL0     H90566   1.638  12.366   7.399  0.7337 -0.9358  1.3988
  671MOL0     H90567   1.257  11.811   7.122  0.5461  1.4740 -2.9675
  671MOL0     H90568   1.162  11.586   7.216 -1.4786  1.2581  1.5659
  671MOL0     H90569   0.618  11.443   7.326 -0.4295 -0.0260 -2.5700
  671MOL0     H90570   0.508  11.241   7.402 -0.9364 -0.6840 -3.1621
  671MOL0     H90571   1.223  10.449   7.094 -0.7539 -0.2250 -3.0259
  671MOL0     H90572   1.418  10.563   7.034  2.1790 -0.6129 -0.0137
  671MOL0     H90573   1.773  10.511   6.612 -1.5302  2.0246 -0.6722
  671MOL0     H90574   1.919  10.678   6.532 -2.8629 -0.7355 -2.8581
  671MOL0     H90575   1.913  10.913   6.516 -2.3006 -2.7610  2.2433
  671MOL0     H90576   1.909  11.018   6.662 -2.2043 -0.8054 -1.4582
  671MOL0     H90577   2.011  11.133   6.496  0.7282  2.0743  0.7364
  671MOL0     H90578   2.135  11.010   6.452 -0.3196 -0.4803 -0.5906
  671MOL0     H90579   2.205  11.025   6.694  1.8158 -0.2174 -2.4374
  671MOL0     H90580   2.107  11.168   6.709 -2.2456 -3.3770  0.6231
  671MOL0     H90581   2.361  11.135   6.534 -0.4721 -0.2415 -0.2135
  671MOL0     H90582   2.334  11.227   6.690 -4.6253 -0.2754  1.4096
  671MOL0     H90583   2.103  11.443   6.416  1.3053  1.2497 -0.5258
  671MOL0     H90584   1.977  10.817   6.933 -3.4771 -0.2282  1.4390
  671MOL0     H90585   1.834  10.660   7.019 -2.5685 -2.0910 -0.0376
  672MOL0     O90586   1.919   5.700   2.627  0.2214  0.1028 -0.3288
  672MOL0     C90587   1.855   5.712   2.526  1.1209 -0.4763  0.9016
  672MOL0     O90588   1.857   5.820   2.442  0.2616  0.1808 -0.0334
  672MOL0     C90589   1.921   5.930   2.493  0.8492 -0.4356  0.2280
  672MOL0     C90590   1.844   6.010   2.580 -1.5100 -0.8065  0.0176
  672MOL0     C90591   1.898   6.137   2.632 -0.9595  0.8413 -0.1360
  672MOL0     C90592   2.030   6.171   2.589 -0.0229 -0.3444 -0.6065
  672MOL0     O90593   2.094   6.282   2.634  0.0718  0.6088 -0.4987
  672MOL0     C90594   2.013   6.385   2.696 -0.6373 -0.7627 -0.2933
  672MOL0     C90595   2.099   6.506   2.736  0.5251  0.1917  0.2237
  672MOL0     C90596   2.048   6.640   2.678 -0.4939  0.2676  0.3881
  672MOL0     C90597   2.133   6.762   2.684 -0.2985  0.6095 -0.2419
  672MOL0     C90598   2.069   6.878   2.604  0.0557 -0.1463 -0.9929
  672MOL0     C90599   2.175   6.989   2.599  1.1234 -0.2270  0.7081
  672MOL0     C90600   2.286   6.951   2.499 -0.3588  0.6888  0.5491
  672MOL0     C90601   2.367   7.079   2.456  0.8303 -0.7903 -0.4102
  672MOL0     N90602   2.461   7.040   2.363  0.0168 -0.1564  0.5334
  672MOL0     C90603   2.432   7.001   2.236  0.2945 -0.0336  0.1883
  672MOL0     C90604   2.547   6.963   2.175  0.3343 -0.2037 -0.2808
  672MOL0     C90605   2.557   6.914   2.036  1.4375 -0.6381  0.5428
  672MOL0     C90606   2.600   6.765   2.026 -0.0727  0.1586  0.3677
  672MOL0     C90607   2.484   6.668   2.047  0.2526  0.2825 -0.1446
  672MOL0     C90608   2.416   6.634   1.913 -0.4223 -0.1340  0.3308
  672MOL0     O90609   2.361   6.757   1.854  0.5890 -0.4788 -0.3974
  672MOL0     C90610   2.260   6.755   1.761 -1.0326  0.9213 -1.2146
  672MOL0     C90611   2.173   6.851   1.761  1.0203  0.1709  0.5473
  672MOL0     C90612   2.047   6.825   1.696 -1.7130  0.7128  0.0249
  672MOL0     C90613   1.940   6.930   1.698 -0.7335 -0.9650 -0.1566
  672MOL0     C90614   2.043   6.705   1.619 -0.1138  0.5495 -0.7378
  672MOL0     C90615   1.921   6.668   1.542 -0.7909  0.8098 -0.0295
  672MOL0     O90616   1.938   6.605   1.421 -0.0423  0.1962  0.1432
  672MOL0     C90617   1.830   6.583   1.339  0.1314 -0.5356 -0.3076
  672MOL0     C90618   1.783   6.693   1.273  0.2143  0.6881 -0.2684
  672MOL0     C90619   1.687   6.679   1.179 -0.1571 -0.4880  0.1257
  672MOL0     C90620   1.635   6.556   1.143 -0.4328 -0.4552 -1.4322
  672MOL0     O90621   1.534   6.535   1.050 -0.1879  0.1033  0.3284
  672MOL0     C90622   1.466   6.639   0.986 -0.2081 -0.2684 -0.0328
  672MOL0     C90623   1.385   6.723   1.091  1.1945  0.0135  0.4583
  672MOL0     C90624   1.362   6.863   1.038  0.2331 -0.1378 -0.5947
  672MOL0     C90625   1.274   6.939   1.140  0.1581  1.3043  0.2066
  672MOL0     C90626   1.274   7.093   1.140 -0.1717  0.8327  0.3931
  672MOL0     C90627   1.216   7.138   1.013  0.5312  0.6498  0.2215
  672MOL0     C90628   1.057   7.134   0.999 -0.9287 -0.1062 -0.1276
  672MOL0     C90629   0.987   7.210   0.885 -0.0905  0.9862  0.5656
  672MOL0    Cl90630   0.999   7.136   0.720 -0.2497  0.0986  0.4864
  672MOL0     C90631   1.691   6.438   1.209 -0.3080  0.4629 -0.6242
  672MOL0     C90632   1.796   6.455   1.297 -0.3091  0.6204 -0.8576
  672MOL0     O90633   1.810   6.685   1.592 -0.5226 -0.5594 -0.4562
  672MOL0     C90634   2.151   6.615   1.614 -0.6659  0.2771 -0.0276
  672MOL0     C90635   2.255   6.638   1.692 -0.3262 -0.4986  0.9339
  672MOL0     N90636   2.648   7.003   2.255  0.1319 -0.6974  0.0573
  672MOL0     N90637   2.599   7.051   2.363 -0.3867 -0.0827 -0.3847
  672MOL0     C90638   2.106   6.092   2.500 -0.4806 -0.1884  1.1391
  672MOL0     C90639   2.052   5.967   2.454  0.4073 -0.3096 -0.3406
  672MOL0     C90640   1.765   5.598   2.492  0.1163 -0.2988 -0.3441
  672MOL0     C90641   1.711   5.592   2.367 -0.4914 -0.0646  0.1994
  672MOL0     C90642   1.631   5.485   2.340 -0.4794  1.4233  0.3224
  672MOL0     C90643   1.606   5.380   2.438  0.2794  0.3001 -0.2638
  672MOL0     O90644   1.529   5.269   2.420 -0.4903 -0.2506  0.0640
  672MOL0     C90645   1.433   5.265   2.311 -0.0865 -0.5620 -0.2458
  672MOL0     C90646   1.350   5.140   2.300 -0.6096 -0.2345 -1.0251
  672MOL0     C90647   1.437   5.014   2.283  0.4372 -0.4403  1.1194
  672MOL0     C90648   1.454   4.982   2.135  0.1840 -0.2955 -0.5617
  672MOL0     C90649   1.552   5.069   2.070 -0.2972 -0.0336  0.6783
  672MOL0     C90650   1.648   5.129   2.025 -0.2814  0.6319 -0.0514
  672MOL0     C90651   1.658   5.395   2.567  0.4440 -0.5434  0.0588
  672MOL0     C90652   1.748   5.501   2.588 -0.2357 -0.2759 -0.4209
  672MOL0     H90653   1.744   5.988   2.616 -2.1856  0.2787 -1.0962
  672MOL0     H90654   1.834   6.203   2.690 -1.3387 -0.0277  0.4523
  672MOL0     H90655   1.938   6.403   2.619 -1.8371 -1.8609  0.5682
  672MOL0     H90656   1.957   6.350   2.783 -3.7484  0.5737 -1.6048
  672MOL0     H90657   2.094   6.507   2.845  1.1695  0.3612  0.2563
  672MOL0     H90658   2.206   6.495   2.716  0.1487 -1.4088 -1.1173
  672MOL0     H90659   2.027   6.614   2.574 -2.6605 -1.0498  1.0738
  672MOL0     H90660   1.945   6.662   2.710 -0.9397  0.0791 -0.8501
  672MOL0     H90661   2.145   6.796   2.787  0.7388  0.2680 -0.2366
  672MOL0     H90662   2.227   6.734   2.635  1.7233  2.2415  2.4434
  672MOL0     H90663   2.018   6.861   2.509 -0.4992 -0.9313 -0.5690
  672MOL0     H90664   1.994   6.925   2.668  0.9281  1.6056 -1.1959
  672MOL0     H90665   2.131   7.086   2.576 -1.1344 -0.7727  2.4485
  672MOL0     H90666   2.223   6.999   2.696  2.9523  0.3821 -0.2147
  672MOL0     H90667   2.351   6.873   2.540 -1.1161  0.4398  1.3084
  672MOL0     H90668   2.228   6.921   2.411 -2.2545 -1.5528  2.4314
  672MOL0     H90669   2.419   7.132   2.536 -0.9173  1.4243 -0.6551
  672MOL0     H90670   2.295   7.152   2.419  2.7917  2.0816  1.0714
  672MOL0     H90671   2.330   6.985   2.204  0.2640 -1.2874  0.8689
  672MOL0     H90672   2.462   6.944   1.990  3.8527  1.9401 -3.3563
  672MOL0     H90673   2.625   6.977   1.978  0.4285 -0.2507 -0.2518
  672MOL0     H90674   2.680   6.755   2.100 -2.0770  0.9842  2.7941
  672MOL0     H90675   2.639   6.743   1.926 -1.5504 -0.3168 -0.1303
  672MOL0     H90676   2.418   6.723   2.115  2.8013  2.8769  0.4725
  672MOL0     H90677   2.523   6.576   2.092 -1.7036  0.2212  1.5788
  672MOL0     H90678   2.339   6.559   1.932  0.2868 -0.7992  0.6174
  672MOL0     H90679   2.485   6.583   1.846 -1.5776 -0.0923 -0.9302
  672MOL0     H90680   2.186   6.940   1.822 -0.0425 -0.7357  2.1757
  672MOL0     H90681   1.969   7.022   1.750 -1.2068 -1.8364  1.7362
  672MOL0     H90682   1.899   6.956   1.600 -3.1586 -1.8504  0.5539
  672MOL0     H90683   1.845   6.897   1.741  0.6335 -3.2663  1.2854
  672MOL0     H90684   1.829   6.791   1.285 -1.8330  1.8814 -1.5817
  672MOL0     H90685   1.654   6.768   1.126 -1.7225 -0.2375  1.4348
  672MOL0     H90686   1.540   6.703   0.937 -1.2291  1.4352  0.5627
  672MOL0     H90687   1.392   6.595   0.918 -0.7944 -2.9409  2.1860
  672MOL0     H90688   1.291   6.667   1.085  1.4980 -0.3156 -2.8789
  672MOL0     H90689   1.425   6.721   1.193  1.2619  0.6020  0.4474
  672MOL0     H90690   1.308   6.847   0.945  1.4105 -0.1473 -1.3051
  672MOL0     H90691   1.454   6.922   1.030  0.1672  0.5627  2.4006
  672MOL0     H90692   1.176   6.910   1.101  1.1969  3.2481 -4.6608
  672MOL0     H90693   1.288   6.903   1.242  1.1661 -1.7379 -0.9114
  672MOL0     H90694   1.370   7.142   1.158  0.7872  0.5835 -3.1781
  672MOL0     H90695   1.209   7.111   1.226 -3.6565 -0.9615 -1.6153
  672MOL0     H90696   1.227   7.246   0.994  1.2813  0.4581 -0.5045
  672MOL0     H90697   1.260   7.086   0.927 -1.5985 -1.4903  0.3398
  672MOL0     H90698   1.025   7.175   1.096  1.9356  2.4675 -0.1145
  672MOL0     H90699   1.022   7.030   0.998 -1.1430 -0.0292 -0.3826
  672MOL0     H90700   1.017   7.315   0.880 -2.1755  1.6092  0.2254
  672MOL0     H90701   0.880   7.213   0.907  0.0755  2.0319  1.2916
  672MOL0     H90702   1.657   6.338   1.184 -0.7038  0.7715 -1.3690
  672MOL0     H90703   1.844   6.365   1.334 -0.5804 -1.2660 -4.5602
  672MOL0     H90704   2.146   6.535   1.541 -2.4127 -2.7249  3.0931
  672MOL0     H90705   2.334   6.563   1.689 -0.6568 -0.8480  0.8016
  672MOL0     H90706   2.208   6.112   2.469  0.0740 -3.2448  0.5949
  672MOL0     H90707   2.105   5.884   2.409  1.6848  0.1413  0.2762
  672MOL0     H90708   1.729   5.664   2.288 -0.5312  0.8424  1.0042
  672MOL0     H90709   1.579   5.478   2.245  2.8942  5.3271 -2.1940
  672MOL0     H90710   1.367   5.349   2.330  0.1760 -0.0864 -1.3967
  672MOL0     H90711   1.482   5.273   2.214  0.6239 -0.4728  0.1100
  672MOL0     H90712   1.278   5.146   2.218 -2.5261 -1.4059  0.4787
  672MOL0     H90713   1.290   5.133   2.391 -2.5864  2.5505 -1.9890
  672MOL0     H90714   1.369   4.936   2.320  0.3860 -0.3469  1.2227
  672MOL0     H90715   1.535   5.014   2.332  0.1771 -3.8589  1.8941
  672MOL0     H90716   1.358   4.984   2.084  0.4076 -0.6047 -0.9976
  672MOL0     H90717   1.492   4.880   2.125  1.5485  0.0572  0.6005
  672MOL0     H90718   1.740   5.180   2.005 -0.1205  1.4187  2.3727
  672MOL0     H90719   1.628   5.314   2.632 -2.7177 -2.1180 -3.0498
  672MOL0     H90720   1.798   5.492   2.684  0.7512  1.3963 -0.7506
  673MOL0     O90721   1.230   8.089   2.283 -0.5949  0.0635 -0.1367
  673MOL0     C90722   1.233   8.211   2.278 -0.5360 -0.1408  0.2493
  673MOL0     O90723   1.286   8.282   2.174  0.4457 -0.0034  0.6632
  673MOL0     C90724   1.359   8.227   2.068  0.4037  0.5020  0.4568
  673MOL0     C90725   1.383   8.318   1.965  0.2423  0.2904  0.4360
  673MOL0     C90726   1.446   8.277   1.847  0.2720  0.9964  0.2360
  673MOL0     C90727   1.476   8.142   1.827 -0.3072 -0.2048  0.3723
  673MOL0     O90728   1.550   8.119   1.708 -0.6756 -0.5674 -0.3193
  673MOL0     C90729   1.580   8.004   1.638  0.1396 -0.5208  0.7645
  673MOL0     C90730   1.461   7.940   1.577  0.9640  0.1419 -1.1606
  673MOL0     C90731   1.440   7.991   1.435 -0.0710 -0.6087  0.4110
  673MOL0     C90732   1.308   7.965   1.369  1.1177  0.2392 -0.2958
  673MOL0     C90733   1.282   8.070   1.262  0.8016 -0.8158 -0.4833
  673MOL0     C90734   1.389   8.072   1.148  0.7049  0.1270  0.2060
  673MOL0     C90735   1.435   7.937   1.099 -1.1989 -0.6424  0.0242
  673MOL0     C90736   1.533   7.968   0.979  0.1102  1.2681  0.6715
  673MOL0     N90737   1.660   8.037   1.019 -0.5114  0.3937  0.5769
  673MOL0     C90738   1.692   8.167   1.047  0.0863 -1.4259 -0.0566
  673MOL0     C90739   1.808   8.172   1.108  0.5686  0.1573  0.6683
  673MOL0     C90740   1.887   8.294   1.147 -0.8230  0.8832 -0.0796
  673MOL0     C90741   1.825   8.343   1.280 -0.3773  0.3211 -0.3146
  673MOL0     C90742   1.848   8.242   1.389 -0.2445  0.3447 -0.3717
  673MOL0     C90743   1.793   8.294   1.521 -0.2891  0.3453  0.7933
  673MOL0     O90744   1.881   8.394   1.571 -0.6941  0.0405  0.0627
  673MOL0     C90745   1.809   8.490   1.646 -0.7488  0.4217  0.0162
  673MOL0     C90746   1.754   8.473   1.774 -0.0005  0.1285 -0.0120
  673MOL0     C90747   1.693   8.579   1.845  0.0613  0.6653  0.3367
  673MOL0     C90748   1.650   8.547   1.987  0.9211  0.3059 -0.8498
  673MOL0     C90749   1.682   8.706   1.779  0.0513 -0.1171 -0.0322
  673MOL0     C90750   1.634   8.832   1.842 -0.2411  0.5663  0.7954
  673MOL0     O90751   1.656   8.952   1.784  0.1386  0.1664 -0.2547
  673MOL0     C90752   1.613   9.061   1.859 -0.1521  0.0555  0.2581
  673MOL0     C90753   1.491   9.130   1.832  0.1683  0.4925 -1.1471
  673MOL0     C90754   1.444   9.250   1.896  1.0833 -0.1078 -0.4517
  673MOL0     C90755   1.530   9.299   1.990  0.0583 -0.7086 -0.0634
  673MOL0     O90756   1.486   9.412   2.052 -0.5687  0.4630 -0.4284
  673MOL0     C90757   1.569   9.530   2.023 -0.1287  1.0032 -0.5536
  673MOL0     C90758   1.485   9.661   2.045  0.2498 -0.2803 -0.7805
  673MOL0     C90759   1.384   9.667   1.926 -1.1023 -0.6184 -0.1638
  673MOL0     C90760   1.282   9.780   1.953  0.8056  0.3538 -0.2746
  673MOL0     C90761   1.197   9.820   1.830  1.0538  0.2760  0.1251
  673MOL0     C90762   1.257   9.903   1.713 -0.6930  0.6008 -1.0575
  673MOL0     C90763   1.293   9.824   1.584 -0.6318  0.0106  0.4302
  673MOL0     C90764   1.178   9.839   1.484 -0.4198  0.4642  0.2644
  673MOL0    Cl90765   1.247   9.732   1.357  0.0865  0.0225  0.1380
  673MOL0     C90766   1.658   9.241   2.024 -0.1307 -0.4885 -0.4303
  673MOL0     C90767   1.700   9.131   1.950  0.8809 -0.1846 -0.1291
  673MOL0     O90768   1.569   8.819   1.947 -0.4158 -0.9617 -0.3642
  673MOL0     C90769   1.733   8.717   1.647 -0.8689  0.5467 -0.2472
  673MOL0     C90770   1.784   8.609   1.578 -0.5200 -0.2169 -0.1215
  673MOL0     N90771   1.858   8.044   1.100  0.0456 -0.4099 -0.1608
  673MOL0     N90772   1.769   7.959   1.045  0.7258 -0.0910  0.2386
  673MOL0     C90773   1.455   8.038   1.928  0.9005  0.0828 -0.0624
  673MOL0     C90774   1.391   8.087   2.043 -0.6769 -0.0835 -0.1375
  673MOL0     C90775   1.194   8.292   2.403  0.5738 -0.8673 -0.1103
  673MOL0     C90776   1.204   8.431   2.405  0.2201 -1.2503  0.7051
  673MOL0     C90777   1.161   8.506   2.516  0.8990  1.0792 -0.4500
  673MOL0     C90778   1.119   8.443   2.627  0.0772 -0.1546  0.0028
  673MOL0     O90779   1.073   8.505   2.737 -0.0269  0.4181  0.4871
  673MOL0     C90780   0.932   8.532   2.734 -0.1940  0.1009 -1.2498
  673MOL0     C90781   0.883   8.498   2.879  1.0535 -0.0354  0.7185
  673MOL0     C90782   0.730   8.511   2.877  0.2368  0.5508  0.3259
  673MOL0     C90783   0.677   8.381   2.813 -0.0950  0.8665  0.4743
  673MOL0     C90784   0.619   8.431   2.684 -0.3194  0.2812 -0.2182
  673MOL0     C90785   0.598   8.470   2.573 -0.1750  0.3160  0.0324
  673MOL0     C90786   1.130   8.306   2.629 -0.4728  0.2559  1.0672
  673MOL0     C90787   1.165   8.225   2.519  0.1884 -0.4636 -0.0834
  673MOL0     H90788   1.347   8.420   1.970 -0.0651  0.6028 -4.0051
  673MOL0     H90789   1.465   8.350   1.769 -2.6144  3.4054  1.5729
  673MOL0     H90790   1.646   8.033   1.556 -0.2610 -0.5608  0.4237
  673MOL0     H90791   1.652   7.944   1.693  2.0109  1.8745  1.1150
  673MOL0     H90792   1.491   7.835   1.576 -0.7882 -0.4276  0.6423
  673MOL0     H90793   1.367   7.958   1.629  0.1886  1.1079 -2.8113
  673MOL0     H90794   1.467   8.097   1.431  0.3050 -0.6878  0.8848
  673MOL0     H90795   1.520   7.950   1.373 -2.4233 -1.1573 -2.5034
  673MOL0     H90796   1.304   7.864   1.327  1.7573 -0.4888  1.2822
  673MOL0     H90797   1.230   7.972   1.446  3.8110  0.6858  2.6297
  673MOL0     H90798   1.182   8.059   1.220  1.5056 -2.0723 -1.9359
  673MOL0     H90799   1.273   8.171   1.304  0.7606  0.4741 -3.3448
  673MOL0     H90800   1.340   8.136   1.075 -0.8347  1.3389  2.2166
  673MOL0     H90801   1.469   8.135   1.187  0.1369  3.3022 -3.1778
  673MOL0     H90802   1.499   7.888   1.172  1.1673 -0.6627 -1.9210
  673MOL0     H90803   1.351   7.874   1.070 -1.3029 -0.0590 -1.0174
  673MOL0     H90804   1.494   8.049   0.916  1.0836 -0.5500 -2.4784
  673MOL0     H90805   1.550   7.875   0.924 -2.5859 -0.1246  1.9703
  673MOL0     H90806   1.632   8.252   1.015  1.5434 -1.1536 -2.2245
  673MOL0     H90807   1.993   8.267   1.144 -1.5175 -2.1473 -1.3177
  673MOL0     H90808   1.873   8.373   1.073 -0.0060  1.7563  0.6646
  673MOL0     H90809   1.716   8.354   1.277 -0.5471 -0.2154  1.9290
  673MOL0     H90810   1.877   8.436   1.303  1.7165 -0.8955  0.1501
  673MOL0     H90811   1.952   8.220   1.414 -0.3273  0.5223  0.1370
  673MOL0     H90812   1.797   8.146   1.385  0.7769 -0.4888  3.1421
  673MOL0     H90813   1.808   8.206   1.584  0.1705 -0.6325 -0.6443
  673MOL0     H90814   1.687   8.320   1.516 -0.7155 -1.4380 -0.6625
  673MOL0     H90815   1.774   8.373   1.812  2.1485 -0.0053 -1.2990
  673MOL0     H90816   1.552   8.592   2.005  0.6595 -0.6196  0.0888
  673MOL0     H90817   1.649   8.438   1.990  0.4794  0.3189 -0.4855
  673MOL0     H90818   1.719   8.574   2.067 -0.1074  5.9379 -1.4621
  673MOL0     H90819   1.436   9.094   1.746 -1.4895  0.9725 -0.3159
  673MOL0     H90820   1.350   9.301   1.876  1.9761  1.1277 -1.6972
  673MOL0     H90821   1.655   9.528   2.091  0.5187 -0.9128 -1.3571
  673MOL0     H90822   1.603   9.527   1.919  1.0241  1.9023 -0.2192
  673MOL0     H90823   1.433   9.671   2.140 -4.2032 -0.0862 -2.9879
  673MOL0     H90824   1.547   9.751   2.042  0.2214 -0.1609 -5.8775
  673MOL0     H90825   1.336   9.569   1.921 -1.9574 -0.2779  0.8658
  673MOL0     H90826   1.444   9.664   1.835  0.5408 -1.6241  0.8758
  673MOL0     H90827   1.218   9.757   2.039  0.4399  0.2847 -0.5672
  673MOL0     H90828   1.332   9.869   1.995  0.7030 -1.5491  4.6053
  673MOL0     H90829   1.134   9.899   1.872 -0.1223 -1.2839  1.3954
  673MOL0     H90830   1.138   9.735   1.794  1.8539 -0.8711  1.4591
  673MOL0     H90831   1.189   9.986   1.691 -1.9199  1.0034  3.3493
  673MOL0     H90832   1.355   9.940   1.746 -0.3757 -1.0902  0.0560
  673MOL0     H90833   1.313   9.722   1.618 -1.9161 -0.5564 -0.4253
  673MOL0     H90834   1.391   9.854   1.548 -1.2758  0.4636 -1.0246
  673MOL0     H90835   1.176   9.943   1.451  1.3984  0.9493  1.5330
  673MOL0     H90836   1.074   9.817   1.508 -0.5337  1.7727  1.0703
  673MOL0     H90837   1.721   9.295   2.095 -1.0060  1.6798 -1.1973
  673MOL0     H90838   1.794   9.081   1.970  2.9845  3.7145  0.9306
  673MOL0     H90839   1.717   8.808   1.589 -3.3971 -1.0650 -2.3428
  673MOL0     H90840   1.828   8.621   1.479  3.2134 -0.6083  1.3361
  673MOL0     H90841   1.481   7.933   1.939 -1.8412 -0.7808 -1.0076
  673MOL0     H90842   1.368   8.012   2.118  1.6830  1.1319  1.9322
  673MOL0     H90843   1.238   8.486   2.318 -0.7887 -2.5170 -0.5510
  673MOL0     H90844   1.171   8.614   2.521 -0.1413  1.2048 -0.8971
  673MOL0     H90845   0.922   8.640   2.720 -0.1607  1.0155  4.0381
  673MOL0     H90846   0.886   8.467   2.658  0.2382  0.8989 -2.2198
  673MOL0     H90847   0.930   8.565   2.952  0.6954  0.8450  0.1682
  673MOL0     H90848   0.899   8.399   2.922 -1.9432 -0.1117  1.8359
  673MOL0     H90849   0.689   8.607   2.846  0.5079  0.9619  1.1971
  673MOL0     H90850   0.704   8.505   2.983  6.1116  1.7713  2.2556
  673MOL0     H90851   0.603   8.338   2.881  1.9438 -1.2672  1.4757
  673MOL0     H90852   0.746   8.297   2.804  0.2550  1.0530  1.3048
  673MOL0     H90853   0.541   8.470   2.482  0.3930  0.9356 -0.3326
  673MOL0     H90854   1.096   8.267   2.724  1.6225 -0.6022  1.5115
  673MOL0     H90855   1.163   8.117   2.531  1.1604 -0.3013  2.0485
  674MOL0     O90856  11.075  11.060   3.845  0.5285 -0.3391 -0.0685
  674MOL0     C90857  11.132  11.013   3.945  0.2954  0.4605 -0.1050
  674MOL0     O90858  11.263  10.971   3.945 -1.1406  0.4177  0.6634
  674MOL0     C90859  11.339  10.985   3.836  0.7381 -0.7139  0.0672
  674MOL0     C90860  11.349  11.096   3.750 -0.3912 -0.7527 -0.7167
  674MOL0     C90861  11.447  11.092   3.645 -1.1051  0.0739  0.0993
  674MOL0     C90862  11.536  10.988   3.628  0.1114  0.1990  0.4415
  674MOL0     O90863  11.635  11.003   3.534  0.0523  0.1610  0.2755
  674MOL0     C90864  11.584  11.016   3.403  0.3382  0.1851  0.2967
  674MOL0     C90865  11.501  10.897   3.342 -0.0840 -1.2318 -1.1372
  674MOL0     C90866  11.414  10.947   3.223  1.0065 -0.6546  0.8356
  674MOL0     C90867  11.365  10.827   3.132  0.6579 -0.2633  0.4611
  674MOL0     C90868  11.280  10.879   3.022 -0.0835 -0.7771 -0.1036
  674MOL0     C90869  11.209  10.778   2.934  0.5052 -0.3255 -0.8804
  674MOL0     C90870  11.136  10.834   2.812 -0.7928  0.2824  0.4746
  674MOL0     C90871  11.239  10.843   2.699 -1.1536 -0.6872  0.1039
  674MOL0     N90872  11.169  10.912   2.584  0.1260  0.3343 -0.0570
  674MOL0     C90873  11.060  10.993   2.587 -0.2918 -1.3447  0.0314
  674MOL0     C90874  11.041  11.030   2.455  0.3021  0.0863 -0.1993
  674MOL0     C90875  10.927  11.106   2.395 -0.4317  0.3495  0.0575
  674MOL0     C90876  10.906  11.248   2.440 -0.9033  0.9646  0.5014
  674MOL0     C90877  10.873  11.268   2.592  0.0099  0.4149 -0.1244
  674MOL0     C90878  10.775  11.375   2.628 -0.2184  0.0965 -0.0325
  674MOL0     O90879  10.662  11.316   2.697 -0.4423 -0.0083  0.4678
  674MOL0     C90880  10.549  11.256   2.634  0.3517  0.1685 -0.5856
  674MOL0     C90881  10.447  11.188   2.704  0.2885  0.7656 -0.2436
  674MOL0     C90882  10.340  11.118   2.654  0.1318  0.7453  0.3565
  674MOL0     C90883  10.243  11.052   2.744  0.2605 -0.4959 -0.9578
  674MOL0     C90884  10.335  11.106   2.510 -0.4457 -0.4322  0.9300
  674MOL0     C90885  10.233  11.032   2.437  0.5780  0.3752  0.3901
  674MOL0     O90886  10.228  11.061   2.310  0.1145 -0.4409  0.8830
  674MOL0     C90887  10.156  11.001   2.207  0.7002  1.3349 -0.2157
  674MOL0     C90888  10.157  11.066   2.080  0.5053  0.1815  0.1038
  674MOL0     C90889  10.071  11.029   1.984 -1.6859  0.0242  0.9469
  674MOL0     C90890   9.983  10.926   1.998 -0.3629 -0.6052  0.0687
  674MOL0     O90891   9.905  10.874   1.898  0.5068  0.1583 -0.8056
  674MOL0     C90892   9.862  10.968   1.799 -0.2875 -0.0286 -0.1602
  674MOL0     C90893   9.922  10.912   1.679 -0.3519  0.5441  0.1652
  674MOL0     C90894   9.885  10.990   1.548 -0.6060 -0.4902 -1.1634
  674MOL0     C90895   9.945  10.932   1.427  1.1005 -0.3469 -0.4210
  674MOL0     C90896   9.888  10.995   1.300  0.7951  0.9064 -0.6225
  674MOL0     C90897   9.949  11.127   1.263  0.6634 -0.1125  0.3297
  674MOL0     C90898   9.893  11.195   1.140 -0.1206  0.3464 -0.2174
  674MOL0     C90899   9.971  11.161   1.010  0.1395  0.1670 -0.8571
  674MOL0    Cl90900  10.120  11.269   0.993 -0.1896  0.1852  0.1759
  674MOL0     C90901   9.984  10.853   2.118 -0.0957  0.7370 -0.3596
  674MOL0     C90902  10.071  10.888   2.220  0.1141 -1.1498 -0.6158
  674MOL0     O90903  10.160  10.954   2.491 -0.1084 -0.0471 -0.2664
  674MOL0     C90904  10.439  11.170   2.433 -0.2818 -0.1263 -0.1356
  674MOL0     C90905  10.532  11.247   2.499  0.1056  0.0175 -0.1109
  674MOL0     N90906  11.121  10.957   2.378 -0.2700 -0.3400  0.3349
  674MOL0     N90907  11.191  10.878   2.450 -0.4894 -1.2982 -0.1994
  674MOL0     C90908  11.539  10.887   3.722  0.8990  0.1514  0.0928
  674MOL0     C90909  11.440  10.882   3.815 -0.8228  0.4222 -0.4525
  674MOL0     C90910  11.045  11.002   4.061 -0.0849 -0.0482 -0.6261
  674MOL0     C90911  10.902  11.028   4.060 -0.1881 -0.6219 -0.3641
  674MOL0     C90912  10.823  11.041   4.178 -1.1403  0.1179 -0.5580
  674MOL0     C90913  10.885  11.017   4.297  0.3886 -0.6986 -0.3348
  674MOL0     O90914  10.817  11.021   4.413  0.1801  0.1937  0.6316
  674MOL0     C90915  10.684  10.947   4.417  1.5139 -0.7880  0.1071
  674MOL0     C90916  10.707  10.800   4.415  0.1311  0.7726  0.5876
  674MOL0     C90917  10.788  10.736   4.529  0.5772 -0.7115 -1.1064
  674MOL0     C90918  10.933  10.699   4.486  1.1908  0.5483 -0.5327
  674MOL0     C90919  10.994  10.602   4.565 -1.4715  0.4171  0.2870
  674MOL0     C90920  11.065  10.536   4.637  0.8570  0.6015 -0.2925
  674MOL0     C90921  11.022  11.002   4.305 -0.4663 -0.1763 -0.2794
  674MOL0     C90922  11.104  11.000   4.190 -0.1297 -0.4972  0.3789
  674MOL0     H90923  11.277  11.178   3.751 -1.3624 -1.4712 -3.2591
  674MOL0     H90924  11.463  11.179   3.583  1.6739  0.7164  1.5667
  674MOL0     H90925  11.517  11.100   3.387 -0.9623 -0.5947  1.4765
  674MOL0     H90926  11.676  11.025   3.345  0.7709 -4.4856 -0.1371
  674MOL0     H90927  11.566  10.819   3.301  2.1232 -1.4719  2.4365
  674MOL0     H90928  11.446  10.847   3.422 -1.0424  0.4604 -0.6918
  674MOL0     H90929  11.328  11.004   3.257 -1.8364 -4.2288  0.2403
  674MOL0     H90930  11.474  11.021   3.168 -2.2073  1.3353 -0.2443
  674MOL0     H90931  11.451  10.769   3.097  1.8396 -0.1845  3.0423
  674MOL0     H90932  11.316  10.751   3.193  0.4025 -0.4684  0.0075
  674MOL0     H90933  11.203  10.954   3.043  2.0273  0.9703  1.9227
  674MOL0     H90934  11.357  10.929   2.962  0.5512  1.2015  2.1966
  674MOL0     H90935  11.274  10.701   2.891 -1.8606 -2.0665 -1.5641
  674MOL0     H90936  11.134  10.743   3.006  3.1464 -2.1465  1.1998
  674MOL0     H90937  11.053  10.772   2.777 -1.1870  0.7630  0.5396
  674MOL0     H90938  11.103  10.936   2.834  0.4928  1.8416 -3.6995
  674MOL0     H90939  11.266  10.738   2.684  1.0253  0.1011 -2.3250
  674MOL0     H90940  11.314  10.915   2.733 -1.1373  1.0381 -3.2091
  674MOL0     H90941  10.997  11.025   2.669 -1.5614  3.0405 -2.3730
  674MOL0     H90942  10.919  11.112   2.286  2.9028  1.8574 -0.2370
  674MOL0     H90943  10.834  11.055   2.417 -1.9098  1.6996 -2.5921
  674MOL0     H90944  10.834  11.301   2.378 -0.3077 -0.2563 -1.3173
  674MOL0     H90945  11.002  11.293   2.411  0.0566 -1.5544 -0.5272
  674MOL0     H90946  10.962  11.286   2.653 -1.3262  0.4219  1.9166
  674MOL0     H90947  10.831  11.176   2.632 -0.1582  0.8502  0.7187
  674MOL0     H90948  10.742  11.416   2.532  0.5448  1.6551  0.3431
  674MOL0     H90949  10.833  11.453   2.678  2.7193 -2.5070  0.9133
  674MOL0     H90950  10.454  11.187   2.813  2.8781  0.5776 -0.3567
  674MOL0     H90951  10.227  11.099   2.842 -2.5587 -1.4514 -0.8508
  674MOL0     H90952  10.142  11.061   2.702  0.5684  2.5949 -1.2583
  674MOL0     H90953  10.270  10.947   2.760 -0.6042 -0.3316  2.2921
  674MOL0     H90954  10.221  11.152   2.061  0.4277  1.3818  4.3730
  674MOL0     H90955  10.067  11.080   1.889  1.0683  1.4546  1.4731
  674MOL0     H90956   9.753  10.973   1.802 -0.2240  1.0240  1.7832
  674MOL0     H90957   9.896  11.071   1.811 -4.3110  1.2770  1.7172
  674MOL0     H90958  10.030  10.903   1.691 -0.6360 -1.8262  1.6758
  674MOL0     H90959   9.891  10.806   1.682  2.4605 -0.4051  4.3292
  674MOL0     H90960   9.914  11.091   1.579 -4.7939  0.2640  1.0806
  674MOL0     H90961   9.776  10.990   1.534 -0.6361 -0.4684 -0.9329
  674MOL0     H90962  10.053  10.947   1.424  1.2656 -1.5801 -2.1949
  674MOL0     H90963   9.914  10.827   1.426 -0.5629 -0.0926  3.4612
  674MOL0     H90964   9.780  11.005   1.304  0.5987 -0.9714 -0.2947
  674MOL0     H90965   9.909  10.924   1.218 -1.7568 -1.9100  0.9606
  674MOL0     H90966   9.940  11.199   1.345  1.8311 -0.2945  0.6428
  674MOL0     H90967  10.057  11.111   1.253  0.4415 -1.6622  0.1004
  674MOL0     H90968   9.884  11.300   1.168  1.1950  0.6199 -0.7032
  674MOL0     H90969   9.791  11.165   1.117  0.0309 -1.8730  1.6611
  674MOL0     H90970   9.894  11.172   0.934  1.3010  2.0207 -1.8471
  674MOL0     H90971  10.015  11.061   1.002  1.1620  0.3643  1.4318
  674MOL0     H90972   9.920  10.766   2.129  2.0575 -0.9624 -0.5323
  674MOL0     H90973  10.049  10.849   2.319  0.7650  0.6670  0.2862
  674MOL0     H90974  10.454  11.172   2.325  1.0185 -1.3537  0.0033
  674MOL0     H90975  10.598  11.293   2.425  2.2448 -4.2108 -1.1830
  674MOL0     H90976  11.616  10.811   3.716  0.0740 -0.9187  2.0329
  674MOL0     H90977  11.451  10.810   3.895 -0.8780 -0.8179 -1.5387
  674MOL0     H90978  10.850  11.060   3.971  1.0492  1.8727 -0.2701
  674MOL0     H90979  10.717  11.060   4.174 -1.2163  0.0566  0.7468
  674MOL0     H90980  10.633  10.980   4.508 -0.6070 -0.0367 -1.2680
  674MOL0     H90981  10.624  10.974   4.329  1.8470 -0.8300 -0.1318
  674MOL0     H90982  10.747  10.770   4.318  1.2027 -2.5762  1.9275
  674MOL0     H90983  10.613  10.746   4.404  1.9570 -2.8878  1.5002
  674MOL0     H90984  10.742  10.646   4.569 -0.5139  0.3496  0.1242
  674MOL0     H90985  10.803  10.805   4.613 -2.0024 -3.4945  1.8813
  674MOL0     H90986  10.986  10.793   4.503  1.3531  0.0483  2.0206
  674MOL0     H90987  10.936  10.668   4.381 -0.3296 -1.4621 -0.0499
  674MOL0     H90988  11.116  10.475   4.709  0.9714 -1.1677 -1.7945
  674MOL0     H90989  11.072  11.005   4.402 -0.7429  0.3897 -0.1538
  674MOL0     H90990  11.212  10.990   4.184 -0.0904  0.6704 -2.5733
  675MOL0     O90991   8.171   3.662   4.641 -0.0074 -0.5172 -0.8675
  675MOL0     C90992   8.139   3.606   4.542 -0.2508 -0.3417  0.8026
  675MOL0     O90993   8.208   3.610   4.425 -0.8121  0.3445 -0.8356
  675MOL0     C90994   8.323   3.683   4.409 -0.7000 -0.2334 -0.0879
  675MOL0     C90995   8.310   3.801   4.341 -0.0799  0.2496  0.5466
  675MOL0     C90996   8.424   3.889   4.344 -0.6967 -0.2082  0.6048
  675MOL0     C90997   8.544   3.858   4.404  0.2556  0.1115 -0.1163
  675MOL0     O90998   8.655   3.939   4.380  0.3180 -0.3327 -0.0631
  675MOL0     C90999   8.756   3.940   4.473  0.0467 -1.4908 -0.2078
  675MOL0     C91000   8.833   4.071   4.465 -0.1020  0.1570 -0.1765
  675MOL0     C91001   8.745   4.196   4.451 -0.4169 -0.6357 -0.2506
  675MOL0     C91002   8.677   4.232   4.583 -0.6805  1.1577 -0.0994
  675MOL0     C91003   8.563   4.338   4.560  0.0832  0.7857 -0.2888
  675MOL0     C91004   8.608   4.485   4.524  0.1457 -0.2040 -0.1328
  675MOL0     C91005   8.494   4.575   4.500  0.5123 -0.4272  0.1827
  675MOL0     C91006   8.522   4.684   4.393 -0.2165 -0.5128  0.5618
  675MOL0     N91007   8.636   4.769   4.424  0.0310 -0.0029  0.0166
  675MOL0     C91008   8.715   4.815   4.323 -0.3853 -0.0364 -1.0595
  675MOL0     C91009   8.800   4.889   4.390 -0.9103 -1.1839 -0.3302
  675MOL0     C91010   8.926   4.963   4.327  0.2086  0.3692 -0.0425
  675MOL0     C91011   8.926   5.109   4.346 -0.6534  0.3406 -0.2905
  675MOL0     C91012   9.057   5.165   4.295 -0.3376 -0.1678  0.4041
  675MOL0     C91013   9.041   5.312   4.296  0.3410 -0.4456  0.1137
  675MOL0     O91014   9.152   5.373   4.227  0.4733  0.4494 -0.1399
  675MOL0     C91015   9.168   5.508   4.232 -0.4275 -0.4398 -0.8924
  675MOL0     C91016   9.301   5.553   4.202  1.5220  0.5431 -0.1571
  675MOL0     C91017   9.335   5.693   4.200 -0.3057  0.5192  0.2271
  675MOL0     C91018   9.473   5.726   4.163 -0.3364  0.2296  0.7538
  675MOL0     C91019   9.230   5.785   4.233 -0.0022  0.5207  0.2350
  675MOL0     C91020   9.243   5.936   4.224  0.5370  0.0257 -1.0124
  675MOL0     O91021   9.173   6.016   4.311 -0.1972  0.0407 -0.6144
  675MOL0     C91022   9.179   6.154   4.287 -0.4721  0.4426  0.4646
  675MOL0     C91023   9.259   6.231   4.374 -0.0114  0.5235  0.0521
  675MOL0     C91024   9.258   6.367   4.359 -0.1162 -1.0025  0.3594
  675MOL0     C91025   9.191   6.437   4.265 -0.4450  0.7947  0.8475
  675MOL0     O91026   9.201   6.574   4.261  0.4939  0.4549 -0.1956
  675MOL0     C91027   9.133   6.659   4.367  0.9285 -0.2428  0.2375
  675MOL0     C91028   9.181   6.808   4.387 -0.4188  0.6792 -0.2798
  675MOL0     C91029   9.335   6.808   4.423 -0.3413 -0.3949  0.5778
  675MOL0     C91030   9.390   6.928   4.494 -0.0209 -0.7325 -0.0092
  675MOL0     C91031   9.350   6.931   4.648 -0.4915  0.0084 -0.7776
  675MOL0     C91032   9.379   7.065   4.705 -0.8455 -0.0473  0.2084
  675MOL0     C91033   9.256   7.143   4.675 -0.1533 -0.4001 -0.3482
  675MOL0     C91034   9.289   7.290   4.654  0.1632  1.1218  0.2626
  675MOL0    Cl91035   9.345   7.363   4.815 -0.1813  0.2274  0.3268
  675MOL0     C91036   9.127   6.355   4.164 -0.3695  0.4784  0.9657
  675MOL0     C91037   9.123   6.214   4.172  0.0495 -0.1721  0.0685
  675MOL0     O91038   9.316   5.978   4.132  0.1196  0.1439 -0.3464
  675MOL0     C91039   9.105   5.734   4.272 -0.3569 -0.5587 -0.3980
  675MOL0     C91040   9.077   5.601   4.272  0.6335 -0.4667  0.7316
  675MOL0     N91041   8.775   4.887   4.522 -0.0690  0.0923 -0.2697
  675MOL0     N91042   8.676   4.813   4.545 -0.0532 -1.1572 -0.3163
  675MOL0     C91043   8.554   3.732   4.472 -0.1639 -0.2135 -1.1251
  675MOL0     C91044   8.445   3.650   4.485  0.2656  0.0142  0.8047
  675MOL0     C91045   8.011   3.527   4.543 -0.0693  0.5789 -0.1231
  675MOL0     C91046   7.948   3.506   4.669  0.4091  0.1006 -0.2783
  675MOL0     C91047   7.843   3.414   4.678  0.8301 -0.2773 -0.6194
  675MOL0     C91048   7.807   3.334   4.567 -0.1334  0.0812  0.5335
  675MOL0     O91049   7.713   3.234   4.559  0.6151 -0.2571 -1.2256
  675MOL0     C91050   7.663   3.182   4.689  0.2717  0.2535 -0.1165
  675MOL0     C91051   7.754   3.083   4.761  0.0739 -0.5303  0.0565
  675MOL0     C91052   7.716   3.077   4.909  1.1040  0.1763  0.1838
  675MOL0     C91053   7.590   2.995   4.957 -1.2744  0.4416  0.4500
  675MOL0     C91054   7.611   2.856   4.926  0.1291  0.1409 -0.2850
  675MOL0     C91055   7.615   2.735   4.912  0.5696 -0.4422 -0.4263
  675MOL0     C91056   7.867   3.358   4.450  0.7515 -0.2243  0.2644
  675MOL0     C91057   7.971   3.453   4.432  0.0238 -0.1655 -0.6411
  675MOL0     H91058   8.208   3.831   4.319  0.2910  1.4914  0.4930
  675MOL0     H91059   8.410   3.980   4.287  0.4517 -1.2739 -1.4854
  675MOL0     H91060   8.704   3.928   4.569 -0.5864 -0.4451 -0.4088
  675MOL0     H91061   8.822   3.855   4.450  2.2459 -0.1162  0.7565
  675MOL0     H91062   8.896   4.082   4.554  2.6577 -0.8440 -1.8887
  675MOL0     H91063   8.891   4.053   4.374 -0.1088  0.0766 -0.1651
  675MOL0     H91064   8.799   4.286   4.421  1.1119  0.0220  3.9122
  675MOL0     H91065   8.673   4.185   4.369 -1.2825  0.4607  0.3417
  675MOL0     H91066   8.630   4.146   4.631  0.2069  1.3135  1.0968
  675MOL0     H91067   8.735   4.270   4.668 -1.9111  0.2353  1.2079
  675MOL0     H91068   8.488   4.306   4.488 -1.0208 -1.0209  1.5562
  675MOL0     H91069   8.499   4.356   4.647 -0.6928 -2.1438 -0.1567
  675MOL0     H91070   8.648   4.528   4.616 -4.0275  3.5064  0.3257
  675MOL0     H91071   8.683   4.475   4.445 -2.1837 -1.9900 -2.2798
  675MOL0     H91072   8.412   4.519   4.454 -1.4906  3.3306 -1.2428
  675MOL0     H91073   8.455   4.612   4.595 -2.2567 -0.1884 -0.9504
  675MOL0     H91074   8.424   4.732   4.383 -0.1201 -0.2600  0.7971
  675MOL0     H91075   8.532   4.634   4.296  0.0881 -3.9987  2.2450
  675MOL0     H91076   8.717   4.779   4.220 -1.2778 -0.4127 -0.9579
  675MOL0     H91077   9.023   4.922   4.353  0.0504  0.3452  0.5144
  675MOL0     H91078   8.920   4.949   4.218  0.1305 -1.3683  0.1680
  675MOL0     H91079   8.909   5.137   4.451  0.9907  1.4938 -0.2903
  675MOL0     H91080   8.846   5.167   4.298  0.3482  2.9105  0.8978
  675MOL0     H91081   9.080   5.135   4.192 -0.3528 -0.4662  0.4858
  675MOL0     H91082   9.134   5.128   4.363 -1.7005 -4.8874 -0.2341
  675MOL0     H91083   9.025   5.348   4.398 -1.1257  1.2836 -0.6794
  675MOL0     H91084   8.950   5.345   4.246  0.3188  0.3242  0.6422
  675MOL0     H91085   9.369   5.471   4.180 -0.1508 -1.2018  0.8556
  675MOL0     H91086   9.532   5.680   4.243 -0.6786  0.3173  1.0614
  675MOL0     H91087   9.501   5.683   4.067 -0.6805 -0.1897  0.8395
  675MOL0     H91088   9.502   5.830   4.182 -1.8952  0.0612  5.5651
  675MOL0     H91089   9.319   6.193   4.457 -0.4110  2.0296  1.0700
  675MOL0     H91090   9.327   6.422   4.422 -0.6847 -1.3882  1.3607
  675MOL0     H91091   9.032   6.674   4.328  0.6915 -3.1558 -0.5596
  675MOL0     H91092   9.117   6.606   4.461  0.5639  2.4987  1.8078
  675MOL0     H91093   9.146   6.850   4.292 -1.6745  0.8730  0.2557
  675MOL0     H91094   9.128   6.843   4.476 -2.7269  0.0365 -1.3401
  675MOL0     H91095   9.388   6.806   4.327 -0.1945 -0.1138  0.6528
  675MOL0     H91096   9.355   6.723   4.488  1.5258  1.1989  2.2254
  675MOL0     H91097   9.498   6.932   4.479  0.2908 -0.8674  1.9534
  675MOL0     H91098   9.350   7.018   4.446  3.0235  1.3733  1.0853
  675MOL0     H91099   9.394   6.846   4.701 -2.1232  0.3024  1.1681
  675MOL0     H91100   9.245   6.902   4.649 -0.0448 -1.7483  0.4985
  675MOL0     H91101   9.381   7.049   4.813 -1.4294 -0.1292  0.2107
  675MOL0     H91102   9.475   7.101   4.669 -0.5426 -2.0347 -1.1368
  675MOL0     H91103   9.185   7.134   4.758  0.1136 -1.5936 -0.2248
  675MOL0     H91104   9.204   7.121   4.581  0.8327 -0.3545 -0.9136
  675MOL0     H91105   9.192   7.331   4.624  1.3661  1.7404 -3.2011
  675MOL0     H91106   9.361   7.308   4.574  1.8137 -0.4261  1.3205
  675MOL0     H91107   9.091   6.399   4.071 -0.1800 -1.1938  0.0568
  675MOL0     H91108   9.083   6.155   4.091  1.1652 -0.5651 -0.2119
  675MOL0     H91109   9.033   5.812   4.295  0.9653  1.1605 -1.8499
  675MOL0     H91110   8.985   5.567   4.319 -1.2813  0.6456 -1.9841
  675MOL0     H91111   8.642   3.707   4.531 -0.4525  1.1342 -0.0764
  675MOL0     H91112   8.456   3.557   4.541  0.6801  0.0841  0.8390
  675MOL0     H91113   7.986   3.551   4.760 -1.2089  0.3904  0.2822
  675MOL0     H91114   7.789   3.410   4.771  1.1340  2.0425 -0.2760
  675MOL0     H91115   7.656   3.260   4.765  0.1548 -0.5761  0.7367
  675MOL0     H91116   7.563   3.139   4.678  0.7370 -0.5168 -1.6596
  675MOL0     H91117   7.857   3.113   4.739  0.8637 -2.4581  0.8651
  675MOL0     H91118   7.740   2.980   4.729  0.5618 -0.4735 -0.3499
  675MOL0     H91119   7.699   3.178   4.948 -3.5311 -0.3549  0.0586
  675MOL0     H91120   7.807   3.038   4.957  2.0045  1.3952 -0.4866
  675MOL0     H91121   7.509   3.033   4.895 -1.0897 -2.3970 -1.7480
  675MOL0     H91122   7.577   3.006   5.065 -1.0409 -3.0687  0.9517
  675MOL0     H91123   7.616   2.628   4.909  2.0963 -0.5494  1.6264
  675MOL0     H91124   7.823   3.299   4.371 -1.7315  0.9619  0.6630
  675MOL0     H91125   8.014   3.469   4.334  4.8488  0.4541  1.3176
  676MOL0     O91126  11.419   8.545   8.324  0.1709  0.9309 -0.4291
  676MOL0     C91127  11.389   8.463   8.419  0.0435 -0.2110  0.3292
  676MOL0     O91128  11.403   8.326   8.421  0.1680 -0.5744  0.4045
  676MOL0     C91129  11.454   8.253   8.316  0.8461  0.5775 -0.9095
  676MOL0     C91130  11.515   8.134   8.360 -0.3798  0.7194  0.7899
  676MOL0     C91131  11.590   8.071   8.261  1.1341  0.4531 -1.0168
  676MOL0     C91132  11.585   8.095   8.124  0.4346  0.5767  0.9577
  676MOL0     O91133  11.657   8.023   8.031 -0.3346  0.2453  0.5003
  676MOL0     C91134  11.630   7.886   8.000 -0.2401 -0.0495 -0.5988
  676MOL0     C91135  11.746   7.817   8.069 -0.4253 -0.8461  0.3870
  676MOL0     C91136  11.713   7.671   8.103 -0.5106 -0.0322 -1.0230
  676MOL0     C91137  11.834   7.594   8.153 -0.1953 -0.4581  0.5594
  676MOL0     C91138  11.800   7.469   8.220  0.0112 -0.2181 -0.1172
  676MOL0     C91139  11.944   7.404   8.259  0.4733  0.0944 -0.6258
  676MOL0     C91140  11.937   7.279   8.338  0.3197 -0.4420 -0.3196
  676MOL0     C91141  11.888   7.324   8.484  0.6581  0.1327 -0.9138
  676MOL0     N91142  11.905   7.207   8.571 -0.1725 -0.4729  1.1086
  676MOL0     C91143  11.821   7.099   8.571 -0.1931 -0.2124  0.2783
  676MOL0     C91144  11.873   7.015   8.667  0.3146  0.0686  0.3005
  676MOL0     C91145  11.814   6.879   8.690 -0.1841  0.1204  0.8778
  676MOL0     C91146  11.909   6.772   8.635  0.5064 -0.8375  0.2852
  676MOL0     C91147  11.955   6.798   8.490 -0.3822  0.4300 -0.3852
  676MOL0     C91148  11.858   6.757   8.381 -0.1005  0.2887  0.2907
  676MOL0     O91149  11.728   6.816   8.410  0.2847  0.9217 -0.2143
  676MOL0     C91150  11.618   6.776   8.326 -0.7811 -0.0865 -1.1283
  676MOL0     C91151  11.495   6.830   8.348  0.1663  0.1275 -0.2716
  676MOL0     C91152  11.378   6.787   8.262 -0.7737 -1.4629 -0.1911
  676MOL0     C91153  11.246   6.853   8.289  0.4382 -1.0716 -0.1775
  676MOL0     C91154  11.398   6.702   8.151 -0.8379 -0.7639  0.1717
  676MOL0     C91155  11.304   6.667   8.045  0.0491  0.7996  0.2599
  676MOL0     O91156  11.362   6.616   7.929  0.1185 -0.8326 -0.1894
  676MOL0     C91157  11.282   6.579   7.826 -0.2464 -0.3105  0.1474
  676MOL0     C91158  11.228   6.449   7.817  0.2795  0.1474  0.0328
  676MOL0     C91159  11.149   6.409   7.704  0.2566  0.0756 -0.1792
  676MOL0     C91160  11.109   6.505   7.603  0.1659  0.0468 -0.1376
  676MOL0     O91161  11.021   6.484   7.503 -0.2463  0.1675  0.9318
  676MOL0     C91162  11.023   6.348   7.447  0.6952 -0.5867  0.0494
  676MOL0     C91163  10.942   6.357   7.318 -0.3204  0.3078  0.5016
  676MOL0     C91164  11.013   6.399   7.190  0.5682 -0.1404 -0.2412
  676MOL0     C91165  10.913   6.378   7.073  0.2347 -0.1475 -0.1307
  676MOL0     C91166  10.973   6.428   6.935  0.4478  0.4128 -0.6673
  676MOL0     C91167  10.940   6.569   6.886  0.1219 -0.5575  0.2041
  676MOL0     C91168  10.987   6.686   6.982 -0.4019  0.3327  0.3536
  676MOL0     C91169  10.936   6.834   6.946 -1.2248  0.2535  0.3705
  676MOL0    Cl91170  10.987   6.876   6.785 -0.4604  0.3907 -0.3029
  676MOL0     C91171  11.162   6.636   7.621  0.2095  0.2428 -1.0235
  676MOL0     C91172  11.255   6.669   7.719  0.3339  0.0540  0.7615
  676MOL0     O91173  11.185   6.702   8.060 -0.1681  0.8672 -0.1633
  676MOL0     C91174  11.534   6.654   8.135  0.6072 -0.1823 -0.2371
  676MOL0     C91175  11.635   6.693   8.217 -0.0988  0.3297  0.4177
  676MOL0     N91176  11.974   7.085   8.739  0.4349  0.8007 -0.2445
  676MOL0     N91177  11.981   7.206   8.684  0.0781  0.7551 -0.3301
  676MOL0     C91178  11.524   8.211   8.089 -0.2212 -0.2197 -0.0949
  676MOL0     C91179  11.453   8.290   8.182  0.8609 -0.5714  0.2198
  676MOL0     C91180  11.381   8.534   8.543  0.0598 -0.2107  0.5897
  676MOL0     C91181  11.316   8.663   8.561  0.0227 -0.0255  0.3582
  676MOL0     C91182  11.307   8.724   8.690  0.0637 -0.5072  1.1227
  676MOL0     C91183  11.359   8.657   8.802 -0.4909  0.3697  0.1723
  676MOL0     O91184  11.365   8.729   8.922 -0.5708 -0.2074 -0.2690
  676MOL0     C91185  11.352   8.654   9.043  0.7911  0.0093  0.2332
  676MOL0     C91186  11.327   8.756   9.152  0.7495  0.0992 -0.3866
  676MOL0     C91187  11.421   8.876   9.144  0.4198 -0.6091 -0.2267
  676MOL0     C91188  11.438   8.930   9.283  0.8391 -0.1397 -0.4096
  676MOL0     C91189  11.506   9.061   9.279 -0.1530  0.1217 -0.3210
  676MOL0     C91190  11.576   9.157   9.259 -1.0665 -1.1408  0.4840
  676MOL0     C91191  11.407   8.525   8.786  0.6464 -0.8901  0.2554
  676MOL0     C91192  11.412   8.463   8.663  0.0074 -0.7341 -0.2901
  676MOL0     H91193  11.513   8.107   8.465  0.6494  2.5224  1.3163
  676MOL0     H91194  11.649   7.985   8.290  0.2712  0.6594  1.5793
  676MOL0     H91195  11.536   7.854   8.046  1.2509 -2.2442  1.1770
  676MOL0     H91196  11.631   7.865   7.893  1.4556 -0.8983 -0.4460
  676MOL0     H91197  11.831   7.816   8.001  0.1701 -0.5363  1.1101
  676MOL0     H91198  11.766   7.864   8.166 -0.8138  0.4662 -0.1367
  676MOL0     H91199  11.651   7.686   8.192  1.6997 -1.2445  0.8300
  676MOL0     H91200  11.654   7.621   8.026 -1.7177 -0.4498  0.1277
  676MOL0     H91201  11.897   7.566   8.068  0.3878 -1.5816  1.3320
  676MOL0     H91202  11.900   7.650   8.220  0.3766 -1.4541  0.8464
  676MOL0     H91203  11.748   7.496   8.313  1.1222 -1.2810  0.8587
  676MOL0     H91204  11.742   7.412   8.147  2.7914 -2.6480 -0.6040
  676MOL0     H91205  12.007   7.386   8.172  3.1237 -1.4211  1.4597
  676MOL0     H91206  11.991   7.475   8.327  0.4951  0.2359 -0.7882
  676MOL0     H91207  11.860   7.211   8.302 -0.4779  0.0766  0.3575
  676MOL0     H91208  12.032   7.225   8.339  1.3036  1.1920 -1.4219
  676MOL0     H91209  11.783   7.356   8.489  0.2330 -1.3194 -0.1073
  676MOL0     H91210  11.945   7.411   8.519  2.8063 -1.5271 -0.0989
  676MOL0     H91211  11.734   7.071   8.514 -2.7944  3.1043  2.2023
  676MOL0     H91212  11.797   6.881   8.798 -1.3589  1.2076  0.6917
  676MOL0     H91213  11.719   6.886   8.637 -0.6375  0.9263  1.7627
  676MOL0     H91214  11.860   6.674   8.641 -1.9542  0.3695  1.3017
  676MOL0     H91215  12.002   6.780   8.692  1.1965  2.1370 -1.1005
  676MOL0     H91216  12.045   6.739   8.467  2.5148  2.9695  3.3226
  676MOL0     H91217  12.006   6.894   8.485  2.4611 -0.9349  0.2322
  676MOL0     H91218  11.845   6.649   8.372 -2.7743  0.4754  1.1997
  676MOL0     H91219  11.891   6.794   8.283  0.8260 -4.4321 -1.4573
  676MOL0     H91220  11.484   6.904   8.428 -2.9547  1.6253 -1.9328
  676MOL0     H91221  11.225   6.865   8.395 -1.1939  1.8163 -0.7404
  676MOL0     H91222  11.248   6.950   8.238 -1.0239 -0.4352  0.9190
  676MOL0     H91223  11.156   6.803   8.252 -1.7609  2.3972  0.0598
  676MOL0     H91224  11.251   6.383   7.900  2.0134  0.8393  0.1485
  676MOL0     H91225  11.119   6.305   7.694 -0.0882  0.0338  1.1032
  676MOL0     H91226  11.122   6.310   7.421  1.0403  0.4998 -0.2755
  676MOL0     H91227  10.969   6.288   7.521  1.8672 -0.9775  0.6114
  676MOL0     H91228  10.906   6.256   7.297  0.7809  0.0164 -0.0491
  676MOL0     H91229  10.856   6.420   7.343  0.5955  1.4692  0.8419
  676MOL0     H91230  11.102   6.338   7.174 -0.3487 -1.4538 -0.5224
  676MOL0     H91231  11.053   6.500   7.195  3.3485 -1.1988  0.4546
  676MOL0     H91232  10.889   6.272   7.059 -2.7636  0.7431 -3.1711
  676MOL0     H91233  10.817   6.429   7.089  0.0625 -0.5986  0.2902
  676MOL0     H91234  10.940   6.357   6.859  1.2800  0.3401 -0.9731
  676MOL0     H91235  11.082   6.435   6.938  0.4801 -0.3316  0.3465
  676MOL0     H91236  10.962   6.586   6.780 -2.0942  0.3603 -0.1818
  676MOL0     H91237  10.831   6.562   6.886  0.2303 -3.8906 -1.0152
  676MOL0     H91238  11.096   6.691   6.992 -0.5864  1.0500  2.7197
  676MOL0     H91239  10.947   6.656   7.080 -0.1015 -2.6632 -0.3443
  676MOL0     H91240  10.983   6.901   7.019  0.1400  2.0931 -2.0882
  676MOL0     H91241  10.828   6.841   6.958 -1.1556  0.7120  0.7499
  676MOL0     H91242  11.139   6.709   7.544 -0.2035 -1.6469 -2.7592
  676MOL0     H91243  11.300   6.768   7.717  3.9959 -1.4507  1.5485
  676MOL0     H91244  11.561   6.594   8.049 -1.0386  0.7080 -1.4230
  676MOL0     H91245  11.734   6.666   8.183  0.1924  1.4126  0.3690
  676MOL0     H91246  11.521   8.239   7.984 -0.9781 -1.4938 -0.4321
  676MOL0     H91247  11.402   8.374   8.134  0.8095 -1.2206 -0.8814
  676MOL0     H91248  11.278   8.724   8.480 -2.1641 -2.4189 -0.5699
  676MOL0     H91249  11.278   8.827   8.704  5.7287  1.5663  0.2035
  676MOL0     H91250  11.270   8.582   9.031  0.3207  0.8458 -2.1788
  676MOL0     H91251  11.439   8.592   9.067  0.0933 -2.4988 -2.9711
  676MOL0     H91252  11.329   8.700   9.246 -0.6734  0.0469 -0.3658
  676MOL0     H91253  11.223   8.790   9.143  0.3075 -0.9371  0.5789
  676MOL0     H91254  11.372   8.958   9.091 -1.9571 -0.1328  2.4999
  676MOL0     H91255  11.519   8.859   9.096  1.7331  2.8274  0.9091
  676MOL0     H91256  11.503   8.857   9.331  1.7683  0.7496 -0.2859
  676MOL0     H91257  11.347   8.938   9.344  0.9024 -1.7566 -0.0616
  676MOL0     H91258  11.634   9.242   9.229  1.1145 -3.0257 -0.9120
  676MOL0     H91259  11.441   8.468   8.872  0.2354 -2.4799 -0.5899
  676MOL0     H91260  11.423   8.356   8.672 -2.7355 -1.0780 -0.0435
  677MOL0     O91261   9.896   1.521   0.993  0.5498  0.4028  0.2321
  677MOL0     C91262   9.977   1.477   1.068  0.0531  0.2379  0.5413
  677MOL0     O91263   9.969   1.341   1.108 -0.5615  0.0440  0.6538
  677MOL0     C91264   9.858   1.260   1.083 -1.1603  0.3563 -0.0742
  677MOL0     C91265   9.856   1.173   0.978 -0.2538  0.5154  1.0743
  677MOL0     C91266   9.742   1.089   0.947 -0.7563 -0.6964  0.4123
  677MOL0     C91267   9.628   1.101   1.024 -0.6986 -0.4521 -0.1032
  677MOL0     O91268   9.511   1.029   1.006 -0.6581 -0.2539 -0.1449
  677MOL0     C91269   9.518   0.911   0.923 -0.1529 -0.3848  0.0378
  677MOL0     C91270   9.382   0.854   0.888  0.7081 -0.5701  0.8207
  677MOL0     C91271   9.303   0.825   1.008 -0.4290  0.7317  0.5982
  677MOL0     C91272   9.190   0.726   0.982  0.3149 -0.3223  0.9469
  677MOL0     C91273   9.066   0.747   1.078 -0.5226  0.2009  0.1402
  677MOL0     C91274   8.980   0.855   1.011  0.6020  0.4565  1.2867
  677MOL0     C91275   8.855   0.891   1.095  0.0672  1.1730 -0.2561
  677MOL0     C91276   8.801   1.010   1.020 -0.0916 -0.1121  0.9745
  677MOL0     N91277   8.702   1.070   1.096 -0.2190  0.8402 -0.4272
  677MOL0     C91278   8.735   1.148   1.201 -0.1772 -0.3886 -0.0001
  677MOL0     C91279   8.615   1.163   1.263  0.2507 -0.5559 -0.3040
  677MOL0     C91280   8.579   1.215   1.402  0.0015  0.9278 -0.7259
  677MOL0     C91281   8.524   1.361   1.401 -1.7297  0.5055 -0.8988
  677MOL0     C91282   8.393   1.367   1.329  0.1455 -0.7200  0.6343
  677MOL0     C91283   8.313   1.497   1.333 -0.3007 -0.3857 -0.1889
  677MOL0     O91284   8.369   1.593   1.246 -0.5922 -0.5956  0.6481
  677MOL0     C91285   8.333   1.727   1.260 -0.2788  0.4577  0.3052
  677MOL0     C91286   8.222   1.772   1.319  0.1892  0.2625 -1.3862
  677MOL0     C91287   8.188   1.903   1.315 -0.0870 -0.0303 -0.7856
  677MOL0     C91288   8.049   1.946   1.358  0.6890  0.2961 -0.1548
  677MOL0     C91289   8.264   1.992   1.231  1.1945 -0.3393 -0.9416
  677MOL0     C91290   8.241   2.135   1.223  0.7530 -0.1555 -0.3345
  677MOL0     O91291   8.224   2.203   1.336  0.4876  0.4146 -0.0080
  677MOL0     C91292   8.180   2.327   1.332  0.1864  0.3673 -0.2664
  677MOL0     C91293   8.255   2.434   1.383 -0.1944 -0.8353 -0.5277
  677MOL0     C91294   8.199   2.563   1.386 -0.2447 -0.4233 -0.4397
  677MOL0     C91295   8.067   2.585   1.341 -0.3596 -0.0497 -0.0659
  677MOL0     O91296   8.019   2.718   1.348 -0.6682  0.4122 -0.0539
  677MOL0     C91297   7.888   2.726   1.398  1.1705 -1.0981  0.3325
  677MOL0     C91298   7.852   2.879   1.372  0.4392 -0.4100 -0.5184
  677MOL0     C91299   7.723   2.927   1.441  0.3635  0.3416  0.1238
  677MOL0     C91300   7.675   3.055   1.372  0.5992  0.1276 -0.3513
  677MOL0     C91301   7.772   3.180   1.358  0.0738  1.0695  0.6173
  677MOL0     C91302   7.797   3.261   1.486 -0.4169 -0.1877  0.4164
  677MOL0     C91303   7.692   3.378   1.495 -0.1879  0.2812  0.5129
  677MOL0     C91304   7.724   3.512   1.412 -0.1470 -0.4066 -0.6269
  677MOL0    Cl91305   7.702   3.502   1.232 -0.3665  0.3365  0.2475
  677MOL0     C91306   7.995   2.478   1.287  0.8983  0.6659 -0.0219
  677MOL0     C91307   8.057   2.353   1.272 -0.0254  0.0173 -0.3579
  677MOL0     O91308   8.251   2.179   1.109 -0.0185 -1.0042 -0.1398
  677MOL0     C91309   8.385   1.940   1.183 -0.1889  0.2635 -0.0299
  677MOL0     C91310   8.421   1.812   1.194  0.5057  0.6838  0.1889
  677MOL0     N91311   8.526   1.089   1.183  0.4544 -0.4676 -0.7771
  677MOL0     N91312   8.573   1.030   1.081  0.8292  0.8054  0.1351
  677MOL0     C91313   9.628   1.198   1.126  0.2980  0.3300 -0.9221
  677MOL0     C91314   9.739   1.279   1.159 -0.4560  0.8753 -1.1419
  677MOL0     C91315  10.074   1.556   1.133 -0.3447 -0.5404  0.2939
  677MOL0     C91316  10.093   1.689   1.091 -0.7330 -0.2204  0.3454
  677MOL0     C91317  10.202   1.766   1.134 -0.1688 -0.1083  0.2921
  677MOL0     C91318  10.288   1.716   1.228 -0.7664 -0.2443 -0.1312
  677MOL0     O91319  10.399   1.785   1.263 -0.1139 -0.1270  0.4405
  677MOL0     C91320  10.456   1.775   1.398 -0.2543  0.8453 -0.9280
  677MOL0     C91321  10.359   1.815   1.515  0.1563 -0.1699  1.1934
  677MOL0     C91322  10.333   1.969   1.510  0.6069  0.4868 -0.6643
  677MOL0     C91323  10.277   2.011   1.645  1.0180 -0.3794 -0.1834
  677MOL0     C91324  10.293   2.153   1.677  0.2055  0.6656 -0.0085
  677MOL0     C91325  10.276   2.274   1.707 -0.1910 -0.1475 -0.2069
  677MOL0     C91326  10.268   1.592   1.276 -0.6918  0.7763  0.0258
  677MOL0     C91327  10.163   1.508   1.232  0.8780  0.2602 -0.5498
  677MOL0     H91328   9.948   1.166   0.921 -0.6998  2.3106  0.0643
  677MOL0     H91329   9.747   1.026   0.859  0.9017 -0.2572  0.1686
  677MOL0     H91330   9.568   0.933   0.828 -0.9233 -0.6163 -0.4342
  677MOL0     H91331   9.574   0.833   0.974  0.0593  0.2500  0.7949
  677MOL0     H91332   9.318   0.920   0.827 -0.0101 -1.3482  0.7081
  677MOL0     H91333   9.404   0.756   0.846 -1.5597 -0.6530 -0.3391
  677MOL0     H91334   9.364   0.783   1.089 -1.3820  2.0053  2.0401
  677MOL0     H91335   9.276   0.920   1.055  0.5994  1.7705 -0.8413
  677MOL0     H91336   9.159   0.757   0.881  7.0054  2.2794 -0.8702
  677MOL0     H91337   9.227   0.624   0.992 -0.7157 -0.6974  0.9905
  677MOL0     H91338   9.015   0.651   1.091 -2.3944  0.9131 -1.5026
  677MOL0     H91339   9.098   0.793   1.171  2.4570 -1.1167 -0.1016
  677MOL0     H91340   9.041   0.943   0.991  1.1587 -0.2443 -0.3374
  677MOL0     H91341   8.934   0.823   0.916  3.3804  1.3749 -0.4812
  677MOL0     H91342   8.771   0.821   1.104 -1.8791  2.9149 -3.2817
  677MOL0     H91343   8.896   0.917   1.192 -0.2509  1.2551 -0.1423
  677MOL0     H91344   8.764   0.985   0.921  0.3612  3.3460 -0.1911
  677MOL0     H91345   8.878   1.087   1.009  0.4583 -0.7724  0.0540
  677MOL0     H91346   8.834   1.172   1.240 -0.5985  0.2691  0.6873
  677MOL0     H91347   8.504   1.148   1.445  0.4102  0.3983 -0.8335
  677MOL0     H91348   8.670   1.197   1.460 -0.4621  0.5865 -0.0959
  677MOL0     H91349   8.591   1.422   1.339 -0.6169 -1.4115 -1.6754
  677MOL0     H91350   8.509   1.406   1.499 -0.7506  2.7147 -1.6820
  677MOL0     H91351   8.327   1.298   1.381 -1.4009  0.0816 -0.1934
  677MOL0     H91352   8.397   1.334   1.224  2.4426  1.7140 -0.1628
  677MOL0     H91353   8.306   1.529   1.437  0.0668  0.1083 -0.3153
  677MOL0     H91354   8.207   1.486   1.306 -0.3239 -0.2138 -0.1700
  677MOL0     H91355   8.160   1.699   1.371 -1.8675  3.7486  1.5915
  677MOL0     H91356   7.999   1.854   1.390 -1.2503  2.3537  3.4819
  677MOL0     H91357   8.041   2.014   1.443 -0.6204 -1.6856  1.4252
  677MOL0     H91358   7.985   1.987   1.279  1.7536 -1.6909 -2.1624
  677MOL0     H91359   8.350   2.419   1.433 -0.2713  3.5537  1.3761
  677MOL0     H91360   8.250   2.645   1.436 -2.2661  1.2124 -0.9212
  677MOL0     H91361   7.810   2.669   1.348 -0.9324 -0.0961  2.3305
  677MOL0     H91362   7.887   2.700   1.504  0.8880 -1.1946  0.3048
  677MOL0     H91363   7.934   2.940   1.411  0.6763 -1.3064  0.3934
  677MOL0     H91364   7.851   2.883   1.262  0.9359  3.9269 -0.5688
  677MOL0     H91365   7.746   2.945   1.547 -0.3149 -0.8128  0.4953
  677MOL0     H91366   7.639   2.857   1.435  2.0304 -1.6473 -1.5553
  677MOL0     H91367   7.653   3.031   1.268  2.3501 -0.6984 -0.5757
  677MOL0     H91368   7.578   3.081   1.415  0.6875 -1.5365  0.9558
  677MOL0     H91369   7.738   3.229   1.266  1.6942  1.1687  0.0383
  677MOL0     H91370   7.866   3.130   1.333 -0.7672 -0.5057  0.4959
  677MOL0     H91371   7.798   3.213   1.585  1.1219  2.7514  1.9456
  677MOL0     H91372   7.898   3.300   1.481  1.3515 -4.2064  0.5663
  677MOL0     H91373   7.667   3.387   1.601  0.3948 -2.9625  1.0397
  677MOL0     H91374   7.597   3.339   1.456 -0.4897  3.1078 -1.9322
  677MOL0     H91375   7.825   3.539   1.444 -1.3353  0.8578  2.4330
  677MOL0     H91376   7.666   3.593   1.457  2.0309  1.5719 -1.1315
  677MOL0     H91377   7.889   2.491   1.265  0.3257 -3.0410 -0.0453
  677MOL0     H91378   8.000   2.276   1.221 -1.9424  2.5570 -2.2398
  677MOL0     H91379   8.447   2.008   1.124  0.2060  1.6732  1.9290
  677MOL0     H91380   8.508   1.779   1.138  2.1127 -1.9044  3.8522
  677MOL0     H91381   9.547   1.205   1.199 -1.9972 -1.6006 -3.0997
  677MOL0     H91382   9.739   1.348   1.243  2.3212 -1.7783  1.2573
  677MOL0     H91383  10.040   1.727   1.005 -0.3157 -0.8415 -0.1994
  677MOL0     H91384  10.229   1.860   1.088  0.5011  0.6238  2.1246
  677MOL0     H91385  10.490   1.673   1.418 -0.6567  1.1826  1.9116
  677MOL0     H91386  10.547   1.835   1.389  0.8718 -0.9258 -1.7756
  677MOL0     H91387  10.395   1.775   1.610 -1.0100  0.5076  1.9504
  677MOL0     H91388  10.261   1.775   1.486  0.7296  1.1475 -3.4084
  677MOL0     H91389  10.269   1.997   1.427  1.5112 -0.8419 -1.8485
  677MOL0     H91390  10.419   2.034   1.489  0.1591  0.6932 -1.9558
  677MOL0     H91391  10.333   1.950   1.716  1.7451  0.5934  0.1037
  677MOL0     H91392  10.172   1.981   1.650  0.7454  0.2561 -1.4595
  677MOL0     H91393  10.264   2.378   1.728 -2.0908  0.3486 -3.1056
  677MOL0     H91394  10.346   1.538   1.327 -0.4916  0.0196 -1.0479
  677MOL0     H91395  10.142   1.409   1.271 -1.5076  0.3285 -1.4741
  678MOL0     O91396   2.126   5.588   8.102  0.0101  0.0510 -0.3766
  678MOL0     C91397   2.077   5.489   8.165 -1.0741 -0.4480  0.7889
  678MOL0     O91398   2.134   5.360   8.171  0.5745  0.6049  0.5449
  678MOL0     C91399   2.231   5.300   8.086  0.0008 -0.2973  0.2444
  678MOL0     C91400   2.263   5.331   7.953  0.6217  0.1732 -0.7251
  678MOL0     C91401   2.345   5.246   7.876 -0.1774 -0.5216  0.2359
  678MOL0     C91402   2.398   5.130   7.934 -0.4607  0.0435 -0.6697
  678MOL0     O91403   2.480   5.048   7.874  0.1814  0.3395  0.0580
  678MOL0     C91404   2.612   5.039   7.918  0.0311  0.9188  0.2938
  678MOL0     C91405   2.657   4.916   7.998  1.0315 -0.5638  0.3165
  678MOL0     C91406   2.678   4.781   7.927  0.3991  0.8858  0.4015
  678MOL0     C91407   2.542   4.711   7.910  0.7868  0.1642  0.7256
  678MOL0     C91408   2.561   4.568   7.867  0.5877  0.2767  1.3995
  678MOL0     C91409   2.427   4.507   7.822  0.8044  0.2739  0.9047
  678MOL0     C91410   2.449   4.399   7.706 -0.2726 -0.3504  0.2759
  678MOL0     C91411   2.356   4.278   7.711 -0.1481  0.8516 -0.6903
  678MOL0     N91412   2.428   4.166   7.785  0.5143  0.3738  0.3040
  678MOL0     C91413   2.512   4.079   7.719 -0.4103 -0.0848 -0.6665
  678MOL0     C91414   2.587   4.034   7.823  0.2776  0.1318  0.8340
  678MOL0     C91415   2.708   3.945   7.809  0.1010  0.1276  0.2907
  678MOL0     C91416   2.828   4.000   7.721  0.0905 -0.3954  0.5016
  678MOL0     C91417   2.938   3.885   7.699 -0.4306 -0.5780  0.0469
  678MOL0     C91418   2.895   3.751   7.650  0.6673  0.7991  1.3333
  678MOL0     O91419   2.834   3.764   7.515  0.1256 -1.2799  0.6076
  678MOL0     C91420   2.776   3.658   7.456 -0.3934  0.8669  0.0694
  678MOL0     C91421   2.861   3.573   7.388 -0.0004 -0.1205  0.3094
  678MOL0     C91422   2.824   3.452   7.338  1.0755 -0.0906 -0.2478
  678MOL0     C91423   2.925   3.355   7.286 -0.3567  0.4834 -0.2668
  678MOL0     C91424   2.680   3.413   7.349 -0.2315 -0.0639 -0.1165
  678MOL0     C91425   2.637   3.273   7.323  0.8884 -0.1236  0.9354
  678MOL0     O91426   2.499   3.248   7.335 -0.1029  0.1559  0.2828
  678MOL0     C91427   2.446   3.128   7.295  0.1893  0.2721 -0.5027
  678MOL0     C91428   2.330   3.125   7.213 -0.4176  0.1407 -0.8577
  678MOL0     C91429   2.284   3.000   7.177 -0.6611  0.4340  0.3634
  678MOL0     C91430   2.334   2.878   7.238 -0.9963 -0.4882 -0.0081
  678MOL0     O91431   2.289   2.753   7.228  0.2111  0.6842 -0.4742
  678MOL0     C91432   2.155   2.716   7.170 -0.1991 -0.1067  0.5501
  678MOL0     C91433   2.177   2.650   7.036  0.4535 -0.6164 -0.1331
  678MOL0     C91434   2.180   2.490   7.044  0.6954 -0.2964 -0.4237
  678MOL0     C91435   2.275   2.420   6.952 -0.3157 -0.5954  0.3037
  678MOL0     C91436   2.296   2.270   6.980  1.3718 -0.3151  0.4494
  678MOL0     C91437   2.195   2.188   6.908 -0.4941 -0.2376 -0.3396
  678MOL0     C91438   2.237   2.168   6.765  0.2440 -0.1522  0.2933
  678MOL0     C91439   2.335   2.060   6.739 -0.2510 -0.1977  0.5910
  678MOL0    Cl91440   2.293   1.896   6.802 -0.3604  0.5136  0.0743
  678MOL0     C91441   2.443   2.880   7.325 -0.1164  0.5282  0.0255
  678MOL0     C91442   2.492   3.006   7.350 -0.1523  0.4716 -0.2904
  678MOL0     O91443   2.718   3.198   7.285 -0.4994  0.1444 -0.7574
  678MOL0     C91444   2.595   3.506   7.412  0.4236  0.5022  0.7921
  678MOL0     C91445   2.641   3.626   7.471 -0.7126  0.6012  1.2381
  678MOL0     N91446   2.553   4.087   7.947  0.1724  0.6133 -0.5607
  678MOL0     N91447   2.450   4.166   7.925  0.1279  0.4418 -0.2506
  678MOL0     C91448   2.371   5.110   8.069 -0.1241 -0.6017  0.1699
  678MOL0     C91449   2.293   5.188   8.147 -0.3303  0.1340  0.0527
  678MOL0     C91450   1.956   5.500   8.241 -0.9174  0.1461  1.0851
  678MOL0     C91451   1.931   5.426   8.359 -0.5690 -0.3480  0.2054
  678MOL0     C91452   1.813   5.435   8.428  0.5240  0.2499 -0.3136
  678MOL0     C91453   1.712   5.520   8.370 -0.1694 -1.0895  1.1358
  678MOL0     O91454   1.603   5.529   8.456  0.0941  0.1017  0.1895
  678MOL0     C91455   1.519   5.644   8.450  0.1225 -0.0643 -1.2433
  678MOL0     C91456   1.435   5.659   8.579  0.5207  0.2224 -0.4502
  678MOL0     C91457   1.329   5.559   8.624 -0.6978 -0.2060 -0.4221
  678MOL0     C91458   1.268   5.488   8.498 -0.0418  0.7836  0.0010
  678MOL0     C91459   1.178   5.378   8.512  1.4601 -0.0814 -0.3923
  678MOL0     C91460   1.100   5.285   8.536 -0.3502  0.7745 -0.4127
  678MOL0     C91461   1.727   5.589   8.245  0.2500  0.8105  0.0859
  678MOL0     C91462   1.853   5.580   8.185 -0.1610  0.5536  0.9936
  678MOL0     H91463   2.212   5.414   7.908  0.1483  0.8565  0.9864
  678MOL0     H91464   2.381   5.257   7.774  0.8144 -0.4187  0.5865
  678MOL0     H91465   2.676   5.042   7.829 -1.8308 -1.0652 -1.2105
  678MOL0     H91466   2.634   5.117   7.992  3.4124 -0.9596  1.4946
  678MOL0     H91467   2.758   4.938   8.036  0.6769  1.0512  0.3686
  678MOL0     H91468   2.585   4.903   8.079  3.2903 -3.4641  2.0954
  678MOL0     H91469   2.722   4.782   7.827 -2.6161  1.5434 -1.0556
  678MOL0     H91470   2.751   4.719   7.979  1.5311  2.3539  0.6378
  678MOL0     H91471   2.476   4.723   7.997  0.8956  4.7036  0.4268
  678MOL0     H91472   2.482   4.766   7.837  1.0489 -1.0127 -0.4055
  678MOL0     H91473   2.628   4.561   7.780  1.6422  0.5808  2.1652
  678MOL0     H91474   2.611   4.519   7.950 -0.7680 -1.7557  1.0851
  678MOL0     H91475   2.396   4.456   7.914 -1.1364  0.5505  0.4359
  678MOL0     H91476   2.352   4.582   7.795  2.2806  1.0553 -1.2825
  678MOL0     H91477   2.442   4.446   7.607  3.1602  0.6537  0.3838
  678MOL0     H91478   2.556   4.376   7.703 -0.0070  0.8953 -1.2249
  678MOL0     H91479   2.327   4.245   7.611 -0.9095 -1.5154  0.2432
  678MOL0     H91480   2.260   4.295   7.760  1.3071  1.8978  1.9979
  678MOL0     H91481   2.523   4.064   7.612  0.1942  1.5668 -0.8639
  678MOL0     H91482   2.755   3.936   7.907  0.6803 -3.2712 -0.1827
  678MOL0     H91483   2.670   3.852   7.766  0.9546 -0.0338 -0.1308
  678MOL0     H91484   2.879   4.081   7.773  2.7954 -1.3381 -0.5366
  678MOL0     H91485   2.799   4.038   7.623  5.7247  1.8380 -0.6265
  678MOL0     H91486   2.991   3.863   7.792  4.1893  1.0788 -1.9295
  678MOL0     H91487   3.012   3.913   7.624 -2.9844  1.5744 -1.8519
  678MOL0     H91488   2.823   3.708   7.719  0.2375 -0.7843 -0.0367
  678MOL0     H91489   2.981   3.682   7.650 -0.6594 -0.9831 -0.9857
  678MOL0     H91490   2.963   3.605   7.370 -0.0039 -1.4503 -2.7566
  678MOL0     H91491   2.949   3.267   7.345  1.3541  1.2958  0.3188
  678MOL0     H91492   2.905   3.314   7.186  3.0536 -2.5821  0.0871
  678MOL0     H91493   3.019   3.409   7.269  0.0061 -0.2133 -0.5094
  678MOL0     H91494   2.281   3.220   7.190  1.9737  2.6081  3.0360
  678MOL0     H91495   2.197   3.018   7.115  1.0280  0.1099 -2.2249
  678MOL0     H91496   2.113   2.645   7.242  1.7313 -1.1810  0.7086
  678MOL0     H91497   2.090   2.803   7.164 -1.9545 -1.4139 -0.5486
  678MOL0     H91498   2.099   2.690   6.970  0.4124  2.6828  1.6888
  678MOL0     H91499   2.272   2.688   6.997 -0.3724  3.1756  1.0964
  678MOL0     H91500   2.077   2.459   7.024 -0.1125 -0.7424  3.5366
  678MOL0     H91501   2.219   2.470   7.144 -0.1536 -1.5725 -0.3287
  678MOL0     H91502   2.248   2.430   6.846  1.7537  1.5165 -0.1167
  678MOL0     H91503   2.373   2.467   6.967 -0.3594  0.3850 -2.0429
  678MOL0     H91504   2.285   2.249   7.087  2.5045 -1.4463  0.3738
  678MOL0     H91505   2.396   2.241   6.949  1.8651  2.4519 -0.8330
  678MOL0     H91506   2.172   2.093   6.957 -3.8766  0.9220  0.5583
  678MOL0     H91507   2.104   2.245   6.890 -0.3969 -0.9998 -4.1789
  678MOL0     H91508   2.268   2.264   6.722 -0.1344 -0.4212 -0.5954
  678MOL0     H91509   2.154   2.134   6.702 -0.9934  0.8912  1.3028
  678MOL0     H91510   2.433   2.092   6.774 -0.4687  2.4665 -0.9255
  678MOL0     H91511   2.344   2.044   6.631 -2.5622 -2.4990  0.6246
  678MOL0     H91512   2.483   2.806   7.393  3.4586  2.5072  0.3234
  678MOL0     H91513   2.576   3.004   7.419  0.2834 -1.5663 -0.8229
  678MOL0     H91514   2.494   3.468   7.414 -0.5902  2.9296 -0.5096
  678MOL0     H91515   2.575   3.697   7.520 -1.2004  1.1151 -0.1347
  678MOL0     H91516   2.427   5.036   8.126  1.6024 -0.4934 -1.3053
  678MOL0     H91517   2.281   5.166   8.252 -3.0613 -1.5745 -0.5037
  678MOL0     H91518   2.012   5.370   8.403  1.3061  0.8328 -1.5523
  678MOL0     H91519   1.798   5.387   8.524  1.5887  0.7423  0.1124
  678MOL0     H91520   1.577   5.735   8.438 -0.7094  0.7566  0.5961
  678MOL0     H91521   1.450   5.629   8.366  0.0300 -2.5496 -0.8098
  678MOL0     H91522   1.379   5.750   8.557  0.4033  1.0486  2.7978
  678MOL0     H91523   1.490   5.696   8.666 -2.5293  2.9138  0.5492
  678MOL0     H91524   1.251   5.612   8.679 -1.0429 -1.2797  0.1532
  678MOL0     H91525   1.369   5.492   8.701 -3.0665 -0.9389  0.2758
  678MOL0     H91526   1.341   5.444   8.429  2.7365  2.2070  1.8612
  678MOL0     H91527   1.213   5.566   8.443  2.8967  0.8771 -3.1292
  678MOL0     H91528   1.055   5.190   8.554  3.8751 -2.2457 -3.6661
  678MOL0     H91529   1.639   5.639   8.207 -1.6758 -4.1369 -2.8987
  678MOL0     H91530   1.860   5.642   8.096 -4.0906  3.1946  2.2861
  679MOL0     O91531   9.874   4.117   3.443  0.4865  0.6778  0.1661
  679MOL0     C91532   9.833   4.168   3.341  0.5506  0.3757  0.1858
  679MOL0     O91533   9.877   4.139   3.214 -0.0261  1.1646  0.1207
  679MOL0     C91534   9.947   4.013   3.197 -0.5885  0.8960  0.2699
  679MOL0     C91535   9.871   3.899   3.152  0.4408  0.0367 -1.4413
  679MOL0     C91536   9.937   3.788   3.108  0.2565 -0.2133 -0.8893
  679MOL0     C91537  10.072   3.778   3.125 -0.9308  0.2342 -0.7631
  679MOL0     O91538  10.139   3.667   3.101  0.3319 -0.1056 -0.2539
  679MOL0     C91539  10.073   3.541   3.095  0.3828  0.5918 -0.7689
  679MOL0     C91540  10.168   3.431   3.033  0.9244  0.1416 -0.7379
  679MOL0     C91541  10.271   3.392   3.149  0.1129 -1.3146  0.1630
  679MOL0     C91542  10.361   3.271   3.111 -0.5024  0.3017 -1.3024
  679MOL0     C91543  10.462   3.246   3.225  0.6316  0.3434 -1.3808
  679MOL0     C91544  10.485   3.093   3.239  0.7468 -0.2550 -0.1826
  679MOL0     C91545  10.633   3.061   3.300  0.2514 -1.2512 -0.0556
  679MOL0     C91546  10.661   2.909   3.301  0.4001 -0.2437 -0.2000
  679MOL0     N91547  10.793   2.888   3.359  0.3912  0.6171  0.3823
  679MOL0     C91548  10.911   2.935   3.308 -0.4195  0.1096  0.1464
  679MOL0     C91549  11.006   2.889   3.391 -0.0627 -0.6165  0.1116
  679MOL0     C91550  11.161   2.913   3.376  0.4236 -0.0887  0.2905
  679MOL0     C91551  11.191   2.987   3.513  0.7800 -0.3791 -0.3813
  679MOL0     C91552  11.326   3.055   3.515  0.1689 -0.3998  0.3569
  679MOL0     C91553  11.312   3.189   3.448 -0.4195  0.0273 -0.4709
  679MOL0     O91554  11.438   3.261   3.446 -0.1887 -0.1722 -0.4555
  679MOL0     C91555  11.489   3.344   3.541  0.6462 -0.9363  0.4322
  679MOL0     C91556  11.423   3.399   3.658 -0.2233  0.3356 -0.0937
  679MOL0     C91557  11.498   3.483   3.743  0.3228 -1.9262 -0.0988
  679MOL0     C91558  11.435   3.527   3.881  0.8007 -0.6882  0.5255
  679MOL0     C91559  11.634   3.519   3.713 -0.2220  0.2685 -0.1667
  679MOL0     C91560  11.723   3.615   3.778  0.3329 -0.4206  0.5430
  679MOL0     O91561  11.850   3.636   3.727 -0.2173  0.9840 -0.6987
  679MOL0     C91562  11.932   3.730   3.779 -0.3191 -0.0581 -0.6233
  679MOL0     C91563  12.004   3.798   3.679  0.1166  0.3165 -0.0817
  679MOL0     C91564  12.077   3.909   3.702 -1.0434  0.6022 -0.3941
  679MOL0     C91565  12.088   3.959   3.835  0.7565 -0.1058  0.5593
  679MOL0     O91566  12.156   4.065   3.874  0.2437 -0.1137 -0.3332
  679MOL0     C91567  12.303   4.060   3.850  1.1123  0.3844  0.8548
  679MOL0     C91568  12.376   4.183   3.911 -0.4258  0.7802  0.1001
  679MOL0     C91569  12.347   4.208   4.066  0.3505  0.5888 -0.0348
  679MOL0     C91570  12.396   4.339   4.114 -0.9114 -0.4053 -0.9136
  679MOL0     C91571  12.368   4.367   4.268 -0.3318  0.0828  0.4146
  679MOL0     C91572  12.228   4.332   4.325 -1.1511 -0.7171  0.0882
  679MOL0     C91573  12.186   4.184   4.339  0.5052  0.6400 -0.5235
  679MOL0     C91574  12.031   4.168   4.331  0.1953  0.2274  0.4806
  679MOL0    Cl91575  11.943   4.224   4.484 -0.2591  0.1131 -0.2808
  679MOL0     C91576  12.035   3.885   3.940 -0.1347  0.5086 -0.5068
  679MOL0     C91577  11.951   3.778   3.909 -0.1406  0.9834  0.9426
  679MOL0     O91578  11.689   3.660   3.886  0.0734 -0.5154  0.1047
  679MOL0     C91579  11.690   3.462   3.600 -0.2770 -0.7083  0.2129
  679MOL0     C91580  11.616   3.389   3.512  0.4396  0.2972  0.3917
  679MOL0     N91581  10.942   2.836   3.505  0.0497 -0.0851  0.0826
  679MOL0     N91582  10.816   2.822   3.477 -1.0215 -0.7164  0.2908
  679MOL0     C91583  10.147   3.880   3.185 -0.0490  0.0874  0.1130
  679MOL0     C91584  10.084   3.994   3.223 -0.6916 -0.7612 -0.4838
  679MOL0     C91585   9.734   4.274   3.346 -0.7649  0.3593 -0.1036
  679MOL0     C91586   9.717   4.359   3.239 -0.6438 -0.5421 -0.1686
  679MOL0     C91587   9.610   4.452   3.236  0.2750  0.6297  0.0629
  679MOL0     C91588   9.532   4.468   3.348  0.4208  1.5335 -0.2957
  679MOL0     O91589   9.422   4.555   3.326 -0.3406  1.0780  0.2501
  679MOL0     C91590   9.311   4.538   3.406  1.1927 -0.7923 -0.7397
  679MOL0     C91591   9.305   4.631   3.529  0.1611  0.5496 -0.5910
  679MOL0     C91592   9.268   4.770   3.484 -0.6921 -0.9020 -0.8283
  679MOL0     C91593   9.284   4.862   3.609 -0.3931  0.0393  0.0252
  679MOL0     C91594   9.409   4.922   3.604  0.2057  0.4899 -0.9062
  679MOL0     C91595   9.521   4.973   3.612 -0.9268  0.4816  1.2107
  679MOL0     C91596   9.557   4.397   3.467  0.0024  0.6673  0.2760
  679MOL0     C91597   9.656   4.300   3.467 -0.0979  0.3955 -1.1426
  679MOL0     H91598   9.763   3.895   3.140  0.4267 -2.0843 -1.0073
  679MOL0     H91599   9.880   3.702   3.074  1.3569 -1.8341  1.2315
  679MOL0     H91600  10.037   3.503   3.191  0.8872 -3.3397 -1.9646
  679MOL0     H91601   9.987   3.541   3.028  0.6656  1.6412 -1.1527
  679MOL0     H91602  10.110   3.340   3.017 -0.3666  0.2349  2.7060
  679MOL0     H91603  10.217   3.445   2.936  3.1801 -2.3709 -0.1051
  679MOL0     H91604  10.328   3.480   3.178 -2.2464  0.6587 -0.8881
  679MOL0     H91605  10.221   3.350   3.237  3.0220 -1.6025  1.8043
  679MOL0     H91606  10.298   3.182   3.100  0.1954 -0.1355 -1.8723
  679MOL0     H91607  10.419   3.285   3.019  0.2617  1.8321 -0.6202
  679MOL0     H91608  10.560   3.291   3.209  1.9011 -0.6476  2.4904
  679MOL0     H91609  10.429   3.287   3.321 -5.0247 -3.1465 -1.3525
  679MOL0     H91610  10.404   3.046   3.295  1.5156 -0.3143  0.9223
  679MOL0     H91611  10.488   3.053   3.138  0.0239 -1.0352  0.0950
  679MOL0     H91612  10.709   3.103   3.233 -0.1272  0.0795  0.3087
  679MOL0     H91613  10.643   3.106   3.400  2.3818 -0.4554 -0.5591
  679MOL0     H91614  10.644   2.875   3.198  0.5561  0.9704 -0.6397
  679MOL0     H91615  10.591   2.849   3.360 -1.6964  2.1848 -0.0380
  679MOL0     H91616  10.926   2.991   3.216 -2.2201 -1.4757 -1.2050
  679MOL0     H91617  11.214   2.818   3.382 -0.2725 -0.5156 -0.1566
  679MOL0     H91618  11.171   2.977   3.288 -0.1858  0.9666  0.9629
  679MOL0     H91619  11.191   2.912   3.593 -0.6578  0.1819  0.1720
  679MOL0     H91620  11.109   3.056   3.530 -0.6489 -1.9327 -0.6974
  679MOL0     H91621  11.401   2.989   3.471  1.0574 -0.2553  1.5933
  679MOL0     H91622  11.340   3.075   3.622 -1.2796  0.5304  0.4051
  679MOL0     H91623  11.239   3.233   3.517  0.3149 -0.6631  0.8014
  679MOL0     H91624  11.279   3.171   3.346  0.4100 -0.1702 -0.7080
  679MOL0     H91625  11.326   3.360   3.689  1.0496 -3.1785 -0.1327
  679MOL0     H91626  11.330   3.497   3.891 -0.0486  1.3977 -1.2592
  679MOL0     H91627  11.498   3.501   3.967  2.0045  0.8621  0.1555
  679MOL0     H91628  11.431   3.636   3.885  1.1513 -0.6978  1.5380
  679MOL0     H91629  12.012   3.760   3.578  1.2854 -0.4272  0.2734
  679MOL0     H91630  12.145   3.944   3.625 -1.6537 -0.7747 -1.6120
  679MOL0     H91631  12.336   3.967   3.898  2.9423 -0.1356 -1.2634
  679MOL0     H91632  12.331   4.054   3.745  4.1191 -4.0978  1.6369
  679MOL0     H91633  12.482   4.166   3.892 -1.2774 -2.4419 -2.6999
  679MOL0     H91634  12.336   4.270   3.858 -0.8531  1.6766  1.7854
  679MOL0     H91635  12.389   4.124   4.122 -0.5797 -1.5431 -2.3467
  679MOL0     H91636  12.238   4.217   4.069  0.3848  0.6725  1.3745
  679MOL0     H91637  12.499   4.365   4.088 -0.5859 -3.4375 -3.1190
  679MOL0     H91638  12.323   4.412   4.077 -3.4011 -0.4300  3.3112
  679MOL0     H91639  12.381   4.475   4.282  1.7148  0.3399 -2.5327
  679MOL0     H91640  12.449   4.314   4.321  1.5780  1.1352 -1.2971
  679MOL0     H91641  12.209   4.372   4.424  0.0122 -2.2079  0.9625
  679MOL0     H91642  12.165   4.382   4.250  1.2471 -2.2093 -3.1777
  679MOL0     H91643  12.214   4.157   4.441 -1.5270  0.0287 -0.0902
  679MOL0     H91644  12.228   4.107   4.274 -0.6893 -0.0394 -0.5161
  679MOL0     H91645  12.009   4.063   4.310 -1.4322  0.8341 -1.0701
  679MOL0     H91646  11.990   4.210   4.239  1.3722 -1.4948 -0.9148
  679MOL0     H91647  12.050   3.900   4.047 -0.7187 -1.1905 -0.1521
  679MOL0     H91648  11.892   3.738   3.991  1.2606 -0.7897  1.1520
  679MOL0     H91649  11.796   3.476   3.580 -0.5399 -1.7513 -2.2946
  679MOL0     H91650  11.667   3.359   3.422  3.3091  0.6573  1.7925
  679MOL0     H91651  10.252   3.881   3.214  0.1135  1.3776 -0.4397
  679MOL0     H91652  10.147   4.071   3.266 -1.7185  0.5151 -1.1870
  679MOL0     H91653   9.783   4.347   3.153 -1.2861  0.5108 -0.8227
  679MOL0     H91654   9.595   4.497   3.138  0.8719 -0.2850 -0.4553
  679MOL0     H91655   9.236   4.564   3.330 -0.1181 -1.5334  0.2473
  679MOL0     H91656   9.300   4.436   3.443 -2.5607  0.0089  0.8535
  679MOL0     H91657   9.405   4.633   3.573  0.0646  1.5165 -0.3840
  679MOL0     H91658   9.238   4.598   3.609  0.7538  2.4893  0.7898
  679MOL0     H91659   9.161   4.777   3.460 -1.2677 -3.8268  0.5095
  679MOL0     H91660   9.334   4.804   3.404 -0.1196 -1.3187 -0.5378
  679MOL0     H91661   9.276   4.803   3.701 -1.0866  1.5025  0.9338
  679MOL0     H91662   9.216   4.946   3.602  1.2440  1.6768  2.2465
  679MOL0     H91663   9.622   5.007   3.605 -0.8900  0.0872 -0.7646
  679MOL0     H91664   9.492   4.416   3.551 -1.0443  1.8485 -0.7577
  679MOL0     H91665   9.687   4.255   3.561 -0.6046  2.2064 -0.0495
  680MOL0     O91666   1.938   6.664   9.959 -0.2371  0.3374 -0.1242
  680MOL0     C91667   1.873   6.586  10.030  0.1720  0.2760 -0.3272
  680MOL0     O91668   1.764   6.631  10.103 -0.8459  1.2047 -0.7169
  680MOL0     C91669   1.733   6.761  10.120 -0.3095 -0.2614 -0.1411
  680MOL0     C91670   1.749   6.832  10.235 -0.6211 -0.5435 -0.3181
  680MOL0     C91671   1.702   6.968  10.248  0.6604  0.7477  0.4116
  680MOL0     C91672   1.655   7.035  10.138  0.4999  1.0172  1.4354
  680MOL0     O91673   1.630   7.166  10.135  0.3253  0.2838 -0.2530
  680MOL0     C91674   1.569   7.245  10.240  0.2216  0.5415  0.7419
  680MOL0     C91675   1.653   7.374  10.275  0.7572 -0.5987  0.0114
  680MOL0     C91676   1.767   7.323  10.349 -1.0805 -0.1976 -1.1015
  680MOL0     C91677   1.860   7.438  10.394  0.3407 -0.7723  0.3856
  680MOL0     C91678   1.985   7.402  10.469  0.2168  0.0360  0.1481
  680MOL0     C91679   2.100   7.506  10.460  0.6463  0.0378  0.2283
  680MOL0     C91680   2.085   7.600  10.584 -0.7970 -0.1956 -0.3645
  680MOL0     C91681   2.173   7.722  10.573  0.6437  0.3013 -0.3934
  680MOL0     N91682   2.306   7.686  10.548  0.3924 -0.3132 -0.1383
  680MOL0     C91683   2.398   7.749  10.473 -0.4861  0.0237 -0.4389
  680MOL0     C91684   2.518   7.700  10.507  0.3737  0.1792  0.3294
  680MOL0     C91685   2.655   7.741  10.461  0.1818  0.1771 -0.2135
  680MOL0     C91686   2.755   7.649  10.538  0.4655  0.1814  0.3345
  680MOL0     C91687   2.893   7.684  10.493 -0.4709  0.4655  0.8154
  680MOL0     C91688   2.929   7.612  10.365 -0.6452 -0.2656  0.5608
  680MOL0     O91689   3.065   7.640  10.344 -0.6995  0.9596 -0.4245
  680MOL0     C91690   3.085   7.732  10.249  0.8415 -0.6429  0.2888
  680MOL0     C91691   3.039   7.734  10.114  0.0310  0.3307  0.4499
  680MOL0     C91692   3.041   7.858  10.035  0.2055 -0.2966 -0.0015
  680MOL0     C91693   2.961   7.857   9.909  0.1194  0.6593  0.6469
  680MOL0     C91694   3.122   7.960  10.080 -0.4340  0.1828  0.2542
  680MOL0     C91695   3.154   8.084   9.991 -0.8829  0.6910  0.3980
  680MOL0     O91696   3.203   8.197  10.059 -0.2981  0.2193  0.7125
  680MOL0     C91697   3.245   8.304   9.982  1.4475  0.5488 -0.2327
  680MOL0     C91698   3.356   8.364  10.029  0.2045  0.4027 -0.3447
  680MOL0     C91699   3.409   8.479   9.968  0.3873 -0.2281 -0.4029
  680MOL0     C91700   3.329   8.545   9.864  0.1188 -0.3972 -0.1492
  680MOL0     O91701   3.361   8.677   9.817  0.8171 -0.2987 -0.3227
  680MOL0     C91702   3.488   8.728   9.827 -0.3865  0.2209  0.2623
  680MOL0     C91703   3.495   8.856   9.743 -0.1942  0.6719 -0.2773
  680MOL0     C91704   3.631   8.928   9.748  0.2951 -0.4647  0.0440
  680MOL0     C91705   3.637   9.053   9.659 -0.0753  1.0932 -0.4430
  680MOL0     C91706   3.734   9.156   9.717  0.4274  0.7145 -0.2988
  680MOL0     C91707   3.870   9.088   9.758 -1.0658 -0.3797 -0.3585
  680MOL0     C91708   3.964   9.192   9.827  0.4957 -0.5339  0.1672
  680MOL0     C91709   4.097   9.142   9.859  0.0390  0.0906 -0.5514
  680MOL0    Cl91710   4.185   9.120   9.706  0.5608  0.0166 -0.3302
  680MOL0     C91711   3.213   8.479   9.818 -0.6858  0.2343 -0.3639
  680MOL0     C91712   3.169   8.356   9.878  0.9152  0.5851  0.8782
  680MOL0     O91713   3.151   8.065   9.869  1.3051 -0.0582 -0.1202
  680MOL0     C91714   3.188   7.951  10.203  0.0626  0.0854  0.9395
  680MOL0     C91715   3.161   7.840  10.287 -0.2749  0.1716 -0.4644
  680MOL0     N91716   2.492   7.596  10.587  0.6105  0.0193  0.2696
  680MOL0     N91717   2.370   7.579  10.608 -0.2091 -0.2177 -0.0434
  680MOL0     C91718   1.651   6.961  10.015  0.7167 -0.5279 -0.4548
  680MOL0     C91719   1.670   6.827  10.014 -0.2434 -0.1705  0.2972
  680MOL0     C91720   1.904   6.440  10.027 -0.2977 -0.3933  0.7248
  680MOL0     C91721   2.029   6.398   9.973  0.1448  1.1116  0.2444
  680MOL0     C91722   2.064   6.260   9.949 -0.5711 -0.3297 -0.4940
  680MOL0     C91723   1.977   6.161  10.008  0.0668  0.3473 -0.2688
  680MOL0     O91724   1.995   6.024  10.021  0.0466  0.4659 -0.6507
  680MOL0     C91725   2.114   5.959   9.986 -0.4661  1.6994 -0.3687
  680MOL0     C91726   2.110   5.815  10.019 -0.3992 -0.0352  0.0458
  680MOL0     C91727   2.244   5.753   9.985 -0.6381 -0.0189  0.8368
  680MOL0     C91728   2.270   5.754   9.823  0.8256 -0.7697 -0.2062
  680MOL0     C91729   2.170   5.682   9.750 -0.3779  1.3221 -0.1139
  680MOL0     C91730   2.075   5.648   9.687  0.4240  0.4462 -0.7267
  680MOL0     C91731   1.857   6.207  10.069  0.0346  0.5539 -0.5305
  680MOL0     C91732   1.818   6.342  10.081  0.0509  0.1239  0.0197
  680MOL0     H91733   1.792   6.782  10.321 -2.8875  0.6492  1.5998
  680MOL0     H91734   1.709   7.017  10.344  0.6236  0.1721  0.7132
  680MOL0     H91735   1.466   7.277  10.224 -0.0623  0.4754  2.2871
  680MOL0     H91736   1.568   7.183  10.330 -4.2229 -2.5912 -1.1189
  680MOL0     H91737   1.668   7.428  10.181 -3.8657 -0.5732 -0.9762
  680MOL0     H91738   1.594   7.436  10.343  3.8004 -1.8383  4.2252
  680MOL0     H91739   1.735   7.266  10.436 -1.2411  0.9730 -0.3680
  680MOL0     H91740   1.820   7.260  10.277 -0.1620 -0.3666 -0.3139
  680MOL0     H91741   1.877   7.495  10.302  1.9684 -2.8589 -0.6885
  680MOL0     H91742   1.806   7.510  10.457 -0.6196  0.8937 -2.1953
  680MOL0     H91743   1.950   7.409  10.572 -0.7140  4.3778 -0.2629
  680MOL0     H91744   2.001   7.296  10.452 -2.3685 -0.5054  0.6318
  680MOL0     H91745   2.199   7.462  10.449  0.1766 -0.7670 -1.0410
  680MOL0     H91746   2.099   7.571  10.371  2.1264 -0.1849  0.0253
  680MOL0     H91747   1.987   7.640  10.613 -0.0953 -0.8665  3.5542
  680MOL0     H91748   2.125   7.540  10.666 -2.0876  0.0774  0.4988
  680MOL0     H91749   2.161   7.791  10.656 -0.6559  0.6645 -0.8621
  680MOL0     H91750   2.136   7.783  10.490  1.5255  1.0013 -0.2805
  680MOL0     H91751   2.388   7.841  10.415 -1.2987 -0.4286 -1.0374
  680MOL0     H91752   2.660   7.740  10.352  1.5293 -0.1547 -0.1624
  680MOL0     H91753   2.684   7.842  10.490  0.1492  0.1081  0.0615
  680MOL0     H91754   2.736   7.542  10.529  2.8347 -0.5834  2.9047
  680MOL0     H91755   2.750   7.661  10.646  2.9063 -0.8355  0.6172
  680MOL0     H91756   2.964   7.646  10.568 -0.6870 -0.8093  0.4085
  680MOL0     H91757   2.919   7.790  10.489  0.7237  0.3352  3.3395
  680MOL0     H91758   2.861   7.650  10.287  0.7125  1.5564  0.2016
  680MOL0     H91759   2.915   7.504  10.356 -3.1641  0.0975 -0.9910
  680MOL0     H91760   2.989   7.644  10.081  0.9886 -1.4992  3.5460
  680MOL0     H91761   3.021   7.825   9.824 -0.0820  0.4193  0.5926
  680MOL0     H91762   2.886   7.777   9.910  1.6545 -0.8453  0.2185
  680MOL0     H91763   2.916   7.953   9.882 -1.2514  0.4761  2.0959
  680MOL0     H91764   3.403   8.319  10.116 -1.4741 -2.1649 -0.6411
  680MOL0     H91765   3.502   8.521  10.004 -1.0231  0.4413  2.7286
  680MOL0     H91766   3.505   8.750   9.933  0.9027  0.1325  0.0914
  680MOL0     H91767   3.564   8.658   9.791  0.3431  0.2065  1.7332
  680MOL0     H91768   3.455   8.847   9.642 -0.0882  2.2511 -0.4834
  680MOL0     H91769   3.418   8.915   9.794 -2.9760 -0.1973 -3.1519
  680MOL0     H91770   3.715   8.868   9.711 -0.6403 -0.3412 -2.5119
  680MOL0     H91771   3.650   8.951   9.853  1.6043 -2.0018  0.1773
  680MOL0     H91772   3.675   9.031   9.559 -0.9345 -3.8731  0.0300
  680MOL0     H91773   3.540   9.104   9.656 -2.5970 -3.0561  0.7135
  680MOL0     H91774   3.686   9.192   9.808  2.3039  3.6964 -0.3543
  680MOL0     H91775   3.747   9.251   9.664 -1.2386  1.1572  0.0435
  680MOL0     H91776   3.868   9.007   9.831  0.3646  1.1610  1.5093
  680MOL0     H91777   3.901   9.039   9.666  1.6721 -0.2816  0.4364
  680MOL0     H91778   3.929   9.243   9.918 -1.5070 -0.4015 -0.6419
  680MOL0     H91779   3.973   9.269   9.750 -0.1968 -1.5555 -0.9593
  680MOL0     H91780   4.109   9.045   9.908 -0.6646 -2.6181 -5.1837
  680MOL0     H91781   4.159   9.211   9.917 -0.0773 -1.3953  1.4539
  680MOL0     H91782   3.162   8.515   9.730  1.2030  0.0001 -1.5977
  680MOL0     H91783   3.077   8.305   9.850  0.0895  3.3081 -2.0283
  680MOL0     H91784   3.249   8.031  10.244  1.7102 -2.0285  2.9029
  680MOL0     H91785   3.212   7.836  10.382  0.0497  2.5111 -0.4938
  680MOL0     H91786   1.626   7.033   9.938 -1.1297  0.7399  1.2300
  680MOL0     H91787   1.652   6.764   9.927 -0.8667 -1.5853  1.4148
  680MOL0     H91788   2.092   6.476   9.932 -2.1267  1.6296 -2.6200
  680MOL0     H91789   2.153   6.236   9.893  1.8454  1.6903  2.1570
  680MOL0     H91790   2.147   5.960   9.881  2.8988 -1.9385  0.4235
  680MOL0     H91791   2.189   6.010  10.047  1.0707 -2.5880  1.7013
  680MOL0     H91792   2.027   5.766   9.967 -2.2616  0.8968  1.9870
  680MOL0     H91793   2.107   5.795  10.127  2.4833  2.8405  0.8055
  680MOL0     H91794   2.242   5.647  10.013  1.1855 -1.1501 -2.7442
  680MOL0     H91795   2.323   5.804  10.041 -0.0141  0.0123 -0.0577
  680MOL0     H91796   2.361   5.693   9.823  1.8088  0.6654 -1.0692
  680MOL0     H91797   2.293   5.851   9.780 -0.7341  1.9485  4.3599
  680MOL0     H91798   1.986   5.615   9.638 -0.7010  0.9953  0.8524
  680MOL0     H91799   1.799   6.124  10.108  1.4029  0.5694  1.6820
  680MOL0     H91800   1.721   6.365  10.124 -0.5405 -0.4853 -0.9373
  681MOL0     O91801   6.922   2.054   4.079 -0.5351  0.4318 -0.3845
  681MOL0     C91802   6.947   2.176   4.081  0.2131  0.4744 -0.5503
  681MOL0     O91803   7.057   2.241   4.123 -0.5575  0.6631  0.3062
  681MOL0     C91804   7.137   2.187   4.221  0.9625  0.4659  0.6699
  681MOL0     C91805   7.173   2.263   4.333  0.0985 -1.0733 -1.1770
  681MOL0     C91806   7.264   2.215   4.425  0.3020 -0.0491  0.4257
  681MOL0     C91807   7.323   2.093   4.402 -0.3014  0.7558 -0.9990
  681MOL0     O91808   7.429   2.038   4.481  0.6526 -0.1851 -0.6240
  681MOL0     C91809   7.510   2.134   4.550 -1.5743 -0.3043 -0.3352
  681MOL0     C91810   7.639   2.061   4.593  0.7301  0.3822  0.8775
  681MOL0     C91811   7.741   2.166   4.624 -0.3502 -0.2400  0.0610
  681MOL0     C91812   7.784   2.243   4.496 -0.4782  0.0688 -0.1178
  681MOL0     C91813   7.940   2.259   4.510  0.1291  0.5555 -0.2763
  681MOL0     C91814   8.014   2.130   4.475 -1.0755  0.2419  0.1681
  681MOL0     C91815   8.156   2.168   4.435 -0.2859 -0.8090 -0.2385
  681MOL0     C91816   8.238   2.236   4.545  0.1806  0.0493  1.1207
  681MOL0     N91817   8.383   2.254   4.505  0.2754  0.1257 -0.0569
  681MOL0     C91818   8.481   2.164   4.527  0.0007  0.0171 -0.1760
  681MOL0     C91819   8.593   2.239   4.536 -0.2490 -1.2005  0.0207
  681MOL0     C91820   8.723   2.197   4.600 -0.0797  0.3094  0.0253
  681MOL0     C91821   8.780   2.064   4.551 -0.7842 -0.2978 -0.7683
  681MOL0     C91822   8.900   2.024   4.648 -0.3519  0.4843  0.9187
  681MOL0     C91823   9.040   2.018   4.576 -0.0279 -0.3692  0.2329
  681MOL0     O91824   9.075   1.889   4.537  0.2229  1.1211 -0.0550
  681MOL0     C91825   9.167   1.861   4.446 -1.3941 -0.5081  0.0215
  681MOL0     C91826   9.247   1.954   4.386  0.5701  0.1475 -0.0553
  681MOL0     C91827   9.344   1.915   4.295  0.8885 -0.1993 -0.0917
  681MOL0     C91828   9.421   2.026   4.238  0.0802 -0.5623 -0.4906
  681MOL0     C91829   9.343   1.781   4.250  0.2732 -0.3043 -0.4897
  681MOL0     C91830   9.441   1.724   4.157 -0.4572 -0.7369  0.3872
  681MOL0     O91831   9.419   1.598   4.119  0.0052 -0.4129 -0.4580
  681MOL0     C91832   9.514   1.512   4.076  0.0675  0.0518 -0.6526
  681MOL0     C91833   9.619   1.473   4.158  0.9131 -1.5623  0.2293
  681MOL0     C91834   9.706   1.376   4.123  0.3012 -0.5404  0.7105
  681MOL0     C91835   9.687   1.304   4.002  0.3815  0.4452  0.5932
  681MOL0     O91836   9.779   1.203   3.973  0.6211  0.1072 -0.2850
  681MOL0     C91837   9.842   1.195   3.845  0.7901 -0.7777 -0.8696
  681MOL0     C91838   9.936   1.072   3.843  0.2731  0.1395  0.8566
  681MOL0     C91839   9.991   1.041   3.705 -0.2173 -0.6499  1.0695
  681MOL0     C91840  10.098   1.150   3.657 -0.1902  0.1410 -0.2876
  681MOL0     C91841  10.121   1.149   3.506  0.2436 -0.0966  0.1426
  681MOL0     C91842  10.224   1.032   3.484 -0.3387  0.3207  0.5458
  681MOL0     C91843  10.305   1.038   3.343 -0.4731  0.3197  0.0879
  681MOL0     C91844  10.198   1.025   3.231 -0.5029 -0.4309  0.0132
  681MOL0    Cl91845  10.141   0.854   3.229 -0.0218  0.0919 -0.1522
  681MOL0     C91846   9.582   1.339   3.916  0.0106 -0.3189  0.4296
  681MOL0     C91847   9.499   1.446   3.954  0.3412 -1.0322 -0.3598
  681MOL0     O91848   9.539   1.792   4.118  0.8593  0.3381  0.1810
  681MOL0     C91849   9.228   1.700   4.281  0.5899 -0.2643  1.0620
  681MOL0     C91850   9.151   1.733   4.391  0.0508 -0.5299  0.2362
  681MOL0     N91851   8.561   2.373   4.503  0.8234  0.4629 -0.0868
  681MOL0     N91852   8.436   2.380   4.500  0.4559  1.2102  0.1443
  681MOL0     C91853   7.277   2.011   4.305  0.4293  0.3589  0.7131
  681MOL0     C91854   7.192   2.055   4.205  0.3746 -0.7749 -0.2568
  681MOL0     C91855   6.845   2.254   4.018 -0.8603 -0.3851 -0.8531
  681MOL0     C91856   6.856   2.396   4.014  0.2288  0.6209 -0.6341
  681MOL0     C91857   6.766   2.466   3.935  0.9194  0.4066 -0.0029
  681MOL0     C91858   6.678   2.401   3.850 -0.9255 -0.5425 -0.3436
  681MOL0     O91859   6.584   2.482   3.783 -0.0609  0.5976 -0.1762
  681MOL0     C91860   6.513   2.440   3.665  0.4118 -0.6997  0.7730
  681MOL0     C91861   6.358   2.457   3.657  0.6337  0.6877  0.3841
  681MOL0     C91862   6.333   2.608   3.675  0.6387  1.2889 -0.8400
  681MOL0     C91863   6.188   2.651   3.701 -0.1269  0.6787 -0.1987
  681MOL0     C91864   6.150   2.765   3.627 -0.0358  0.4817  0.0656
  681MOL0     C91865   6.103   2.857   3.572  0.0223  0.4701  0.8337
  681MOL0     C91866   6.674   2.266   3.855 -0.2489  0.4697 -0.3811
  681MOL0     C91867   6.748   2.194   3.943 -0.4359 -0.4735  0.7115
  681MOL0     H91868   7.142   2.366   4.344  0.9012 -0.6869 -2.3711
  681MOL0     H91869   7.297   2.281   4.505 -2.9877 -1.7882  3.4978
  681MOL0     H91870   7.541   2.216   4.486 -3.5152 -0.1928 -1.2049
  681MOL0     H91871   7.452   2.179   4.631 -1.6473  1.0047 -1.0974
  681MOL0     H91872   7.625   2.005   4.686 -2.1716 -2.9324 -1.3095
  681MOL0     H91873   7.670   1.989   4.517  1.5429 -0.0730  1.6186
  681MOL0     H91874   7.707   2.236   4.701  1.4005 -0.2274  0.8666
  681MOL0     H91875   7.831   2.130   4.675 -0.4719  0.1529  0.5723
  681MOL0     H91876   7.752   2.194   4.404  0.8592 -2.5030  0.6885
  681MOL0     H91877   7.746   2.345   4.496 -3.3827 -0.8879  1.4218
  681MOL0     H91878   7.983   2.319   4.429 -2.4186  0.6078 -1.7150
  681MOL0     H91879   7.972   2.307   4.602  2.4891 -2.1152  0.4116
  681MOL0     H91880   8.018   2.058   4.557 -1.4022  0.1878  0.1369
  681MOL0     H91881   7.980   2.071   4.390  2.9501 -2.2164  0.0023
  681MOL0     H91882   8.198   2.074   4.398  2.6210  0.3110 -0.0554
  681MOL0     H91883   8.152   2.225   4.341  0.3676  0.0627  0.2522
  681MOL0     H91884   8.226   2.186   4.641 -0.3146  0.2958  1.1943
  681MOL0     H91885   8.185   2.332   4.552 -2.0735 -0.6499 -2.8863
  681MOL0     H91886   8.466   2.058   4.546 -1.3834  0.1122 -0.6001
  681MOL0     H91887   8.787   2.285   4.591 -0.8063  1.3561  3.5556
  681MOL0     H91888   8.710   2.185   4.708  0.2977 -0.3142  0.0064
  681MOL0     H91889   8.821   2.066   4.450  0.5650 -0.6166 -0.2437
  681MOL0     H91890   8.696   1.994   4.555  0.2098 -1.4708  1.3461
  681MOL0     H91891   8.877   1.929   4.697  1.6453  0.4108  1.7858
  681MOL0     H91892   8.909   2.095   4.731  1.2864 -1.4783  2.4939
  681MOL0     H91893   9.116   2.051   4.648  0.7921  2.5351 -1.7605
  681MOL0     H91894   9.042   2.079   4.486 -0.4554 -2.2568 -1.1171
  681MOL0     H91895   9.231   2.055   4.424  0.7947 -0.6042  2.1549
  681MOL0     H91896   9.524   1.987   4.236 -0.2485 -1.5059  0.6105
  681MOL0     H91897   9.379   2.040   4.138  0.4282  1.3962 -0.3979
  681MOL0     H91898   9.414   2.121   4.291 -0.5743 -1.9113  1.9572
  681MOL0     H91899   9.635   1.534   4.247  2.1252 -1.9009  0.2597
  681MOL0     H91900   9.784   1.349   4.193 -0.2530 -0.1852  1.4758
  681MOL0     H91901   9.765   1.188   3.767 -0.2591  1.8507 -0.1745
  681MOL0     H91902   9.905   1.282   3.824  0.4674 -1.1468 -3.7851
  681MOL0     H91903  10.026   1.096   3.900 -0.1510  3.4687  0.3331
  681MOL0     H91904   9.879   0.991   3.890  0.6895 -0.2807  0.6569
  681MOL0     H91905   9.907   1.042   3.635 -0.0950 -1.0988  0.9177
  681MOL0     H91906  10.031   0.940   3.703  0.2893 -0.5078 -2.5843
  681MOL0     H91907  10.066   1.247   3.695 -4.3484 -1.1604  0.0734
  681MOL0     H91908  10.190   1.125   3.711  0.2013 -1.9625 -1.8020
  681MOL0     H91909  10.177   1.236   3.472  0.4442  0.9413  2.8334
  681MOL0     H91910  10.025   1.128   3.458 -0.0664 -0.4036  0.8740
  681MOL0     H91911  10.300   1.019   3.561 -0.3817 -2.1754  0.2468
  681MOL0     H91912  10.169   0.937   3.475 -0.9431  0.8293 -1.6422
  681MOL0     H91913  10.378   0.960   3.318 -0.6598  0.1167  0.1768
  681MOL0     H91914  10.351   1.137   3.332  1.2503 -0.4167  0.3603
  681MOL0     H91915  10.236   1.054   3.132  2.5900  1.1290  1.5242
  681MOL0     H91916  10.114   1.088   3.261  1.0602  0.4428  2.9592
  681MOL0     H91917   9.562   1.292   3.820  0.7770  1.3203 -0.5728
  681MOL0     H91918   9.422   1.474   3.882  1.6023 -0.4457 -1.5402
  681MOL0     H91919   9.210   1.599   4.245 -1.5272  1.0523 -1.9763
  681MOL0     H91920   9.082   1.665   4.440  1.0447 -0.6716  1.4912
  681MOL0     H91921   7.301   1.905   4.309  2.8512  0.8307  0.5538
  681MOL0     H91922   7.161   1.994   4.121  0.0128  0.0876 -0.7518
  681MOL0     H91923   6.925   2.439   4.087  0.7060 -0.5226 -0.3832
  681MOL0     H91924   6.767   2.575   3.931 -0.8122  0.4377 -0.3542
  681MOL0     H91925   6.552   2.498   3.581 -3.6228  0.9984 -0.1592
  681MOL0     H91926   6.534   2.335   3.641 -3.1046 -1.7911  1.7673
  681MOL0     H91927   6.307   2.400   3.735  3.7560 -0.0291  2.0694
  681MOL0     H91928   6.309   2.425   3.565  1.5979 -0.2281  0.1677
  681MOL0     H91929   6.378   2.654   3.587  0.6999  1.0676 -0.9253
  681MOL0     H91930   6.382   2.645   3.766  0.5324 -1.0095  0.2099
  681MOL0     H91931   6.154   2.676   3.802 -1.8456  1.8818 -1.0338
  681MOL0     H91932   6.131   2.570   3.656  0.7193 -2.0977  3.2548
  681MOL0     H91933   6.073   2.939   3.510 -2.6309 -0.9845 -0.0069
  681MOL0     H91934   6.614   2.203   3.791 -0.7974  1.1122 -0.5049
  681MOL0     H91935   6.735   2.086   3.935 -0.4889 -0.3560 -1.3723
  682MOL0     O91936   3.222   0.081  11.492  0.2637 -0.3434 -0.7365
  682MOL0     C91937   3.120   0.124  11.439  0.6213 -0.4505  0.7635
  682MOL0     O91938   3.071   0.255  11.438  0.7167  0.5025  0.6589
  682MOL0     C91939   3.150   0.364  11.489  0.7698  0.9162 -0.4901
  682MOL0     C91940   3.273   0.362  11.556 -0.1594  0.5329  0.2029
  682MOL0     C91941   3.338   0.482  11.584  0.1114 -1.4025 -0.4221
  682MOL0     C91942   3.281   0.603  11.561 -0.5896  0.0332 -0.2351
  682MOL0     O91943   3.361   0.708  11.601 -0.1274 -0.0880 -0.5501
  682MOL0     C91944   3.322   0.834  11.549  0.9765  0.0120  0.4074
  682MOL0     C91945   3.417   0.942  11.586  0.5217  0.5441  0.3817
  682MOL0     C91946   3.543   0.957  11.500 -0.8021  0.0762 -0.5812
  682MOL0     C91947   3.618   1.095  11.508  0.8006 -0.3068 -1.0960
  682MOL0     C91948   3.744   1.077  11.418 -0.5994 -0.2816 -0.2662
  682MOL0     C91949   3.839   1.193  11.435 -0.3200 -0.9762 -1.0271
  682MOL0     C91950   3.954   1.211  11.335  0.1167  0.8187 -0.0607
  682MOL0     C91951   4.066   1.292  11.389  0.2415  0.5643  0.1107
  682MOL0     N91952   4.052   1.435  11.424  0.0475 -0.0406 -0.9614
  682MOL0     C91953   4.024   1.479  11.552  0.4956 -1.0642 -0.1720
  682MOL0     C91954   4.018   1.621  11.543 -0.5145  1.2509 -0.2916
  682MOL0     C91955   3.967   1.716  11.658 -1.6893 -0.1954 -1.7638
  682MOL0     C91956   3.829   1.762  11.616 -0.9817  0.9266 -0.2841
  682MOL0     C91957   3.780   1.853  11.725  1.0175 -0.0984  0.2040
  682MOL0     C91958   3.852   1.987  11.729 -1.4310 -0.4042  0.8694
  682MOL0     O91959   3.893   2.041  11.600  0.7015 -0.1251  0.0877
  682MOL0     C91960   3.798   2.099  11.520  0.1320 -0.8422 -0.5430
  682MOL0     C91961   3.837   2.137  11.395  0.1795 -0.5167  0.0653
  682MOL0     C91962   3.750   2.200  11.309  1.0360 -0.5188 -0.1378
  682MOL0     C91963   3.808   2.230  11.182 -0.6737 -0.9923  0.3135
  682MOL0     C91964   3.618   2.228  11.346  0.9248 -0.4332 -0.5996
  682MOL0     C91965   3.528   2.309  11.271  0.2611  0.5752  0.0701
  682MOL0     O91966   3.578   2.419  11.212 -0.5853 -0.1242  0.2617
  682MOL0     C91967   3.494   2.484  11.129  0.1422  0.2858  0.3241
  682MOL0     C91968   3.464   2.616  11.165  0.3236  0.2561 -0.4320
  682MOL0     C91969   3.382   2.686  11.079 -0.1554  0.3021  0.2344
  682MOL0     C91970   3.346   2.636  10.951  0.0667 -1.3154  0.3070
  682MOL0     O91971   3.250   2.707  10.881 -0.3869  0.0566 -0.5037
  682MOL0     C91972   3.281   2.727  10.749 -0.4111 -0.0469 -0.2623
  682MOL0     C91973   3.174   2.823  10.690  0.9513 -0.0431  0.8442
  682MOL0     C91974   3.200   2.859  10.538  0.2416  0.3401  0.2609
  682MOL0     C91975   3.076   2.836  10.449 -0.0314 -0.4696 -0.0554
  682MOL0     C91976   3.088   2.854  10.298  0.1382  0.2558 -0.2288
  682MOL0     C91977   3.134   2.997  10.262 -0.6579 -0.7150  0.5841
  682MOL0     C91978   3.134   3.038  10.114  0.0119 -0.8711  0.0577
  682MOL0     C91979   3.254   3.126  10.080 -1.0703  0.1773 -0.1773
  682MOL0    Cl91980   3.302   3.241  10.203 -0.0445  0.0177  0.1258
  682MOL0     C91981   3.391   2.501  10.916  0.2213 -0.6147  1.0941
  682MOL0     C91982   3.460   2.431  11.006  1.3415  0.1127  0.3552
  682MOL0     O91983   3.416   2.259  11.260  0.7900  0.1307  0.2814
  682MOL0     C91984   3.572   2.189  11.472  1.2739  0.4916  0.4363
  682MOL0     C91985   3.667   2.130  11.558 -0.0044 -1.0136 -0.0299
  682MOL0     N91986   4.050   1.662  11.413  0.3519  0.1382  0.0810
  682MOL0     N91987   4.057   1.551  11.348  0.0823  0.3231  0.2871
  682MOL0     C91988   3.158   0.604  11.496  0.2816  0.0658 -0.0579
  682MOL0     C91989   3.096   0.486  11.460  0.1150 -0.1008 -0.5398
  682MOL0     C91990   3.011   0.029  11.409  0.0947 -0.4200  0.5758
  682MOL0     C91991   3.000  -0.107  11.440  0.0068  0.7980  0.3980
  682MOL0     C91992   2.899  -0.191  11.398 -0.7087  0.3245  0.7389
  682MOL0     C91993   2.806  -0.144  11.312 -0.1550  0.5451 -0.1689
  682MOL0     O91994   2.738  -0.242  11.249  0.4312  0.1037  0.3614
  682MOL0     C91995   2.618  -0.272  11.316  0.0445 -0.0900  1.0422
  682MOL0     C91996   2.511  -0.174  11.260  0.0366 -0.0262 -0.9880
  682MOL0     C91997   2.374  -0.265  11.251 -0.1191 -0.0477 -0.0328
  682MOL0     C91998   2.262  -0.182  11.206  0.0604  0.7990  0.3329
  682MOL0     C91999   2.147  -0.278  11.244 -1.2078 -0.4294  0.5453
  682MOL0     C92000   2.053  -0.357  11.260  0.1190  0.3455  0.0951
  682MOL0     C92001   2.807  -0.007  11.283  0.4544 -0.1162 -0.5174
  682MOL0     C92002   2.902   0.084  11.330  0.1080 -0.0666  0.6006
  682MOL0     H92003   3.326   0.268  11.568 -2.4185 -1.0605 -1.3790
  682MOL0     H92004   3.437   0.478  11.628  0.0956 -0.3864 -0.2861
  682MOL0     H92005   3.322   0.827  11.440  3.8215  0.5573  0.2813
  682MOL0     H92006   3.222   0.865  11.578  0.6706  0.1606 -0.7874
  682MOL0     H92007   3.361   1.036  11.572  2.0943  1.7369  1.7010
  682MOL0     H92008   3.432   0.923  11.692 -0.3449 -2.2894  0.0618
  682MOL0     H92009   3.609   0.878  11.536 -2.8090 -0.6667  1.6926
  682MOL0     H92010   3.526   0.956  11.391  1.1757  1.0335 -0.9427
  682MOL0     H92011   3.556   1.172  11.460  0.7778  0.1038 -0.4218
  682MOL0     H92012   3.640   1.110  11.614  5.2545 -0.6686 -1.8034
  682MOL0     H92013   3.794   0.982  11.438  0.0682  0.3115  0.9473
  682MOL0     H92014   3.734   1.067  11.309  0.2965 -0.2522 -0.3609
  682MOL0     H92015   3.782   1.286  11.431 -0.7577 -1.2848 -2.6538
  682MOL0     H92016   3.882   1.191  11.535  0.1272  0.2051 -1.1803
  682MOL0     H92017   3.990   1.109  11.324  1.3759  1.2839 -0.4146
  682MOL0     H92018   3.936   1.244  11.232  3.5462  0.2470 -0.9493
  682MOL0     H92019   4.149   1.294  11.318 -1.3534  1.2036 -1.8186
  682MOL0     H92020   4.110   1.240  11.475 -0.8494 -0.7363 -0.0744
  682MOL0     H92021   3.991   1.427  11.641  2.2216 -1.1594  0.4539
  682MOL0     H92022   3.962   1.673  11.758 -0.8106  2.1710 -0.6199
  682MOL0     H92023   4.040   1.797  11.651 -3.3619  1.4862 -0.6070
  682MOL0     H92024   3.758   1.681  11.594 -1.8432  1.4165  0.6305
  682MOL0     H92025   3.833   1.808  11.517  1.2905 -2.7352 -2.1351
  682MOL0     H92026   3.791   1.807  11.823  3.0089 -0.6153 -0.2080
  682MOL0     H92027   3.678   1.885  11.703  1.1319  1.3372  1.5416
  682MOL0     H92028   3.942   1.965  11.787 -0.6652 -1.1500 -0.5477
  682MOL0     H92029   3.789   2.063  11.777 -3.3790  0.5582 -2.7421
  682MOL0     H92030   3.939   2.117  11.363  0.6316 -2.5842  2.5359
  682MOL0     H92031   3.886   2.307  11.182 -0.9682 -0.6878  0.8260
  682MOL0     H92032   3.858   2.142  11.142  0.3404 -0.5601  0.6132
  682MOL0     H92033   3.741   2.261  11.101  0.7840 -2.4380 -1.5579
  682MOL0     H92034   3.492   2.661  11.260 -2.3498  0.1952  0.4704
  682MOL0     H92035   3.350   2.781  11.120 -1.0230  0.3977 -0.6248
  682MOL0     H92036   3.376   2.782  10.743 -1.9769  2.9618  0.6694
  682MOL0     H92037   3.297   2.636  10.690  1.5008 -0.2329  0.4752
  682MOL0     H92038   3.075   2.779  10.705 -0.9903  4.5515  3.4364
  682MOL0     H92039   3.178   2.916  10.748 -1.6821  2.9726 -3.2706
  682MOL0     H92040   3.274   2.798  10.485 -2.1480 -1.9987 -0.6313
  682MOL0     H92041   3.231   2.964  10.535 -0.5335  0.6572  2.1308
  682MOL0     H92042   3.053   2.730  10.463  1.2484 -0.8047 -0.3835
  682MOL0     H92043   2.990   2.899  10.474 -0.8632  0.6086 -4.7488
  682MOL0     H92044   2.987   2.842  10.256 -0.9294  0.4251  2.1336
  682MOL0     H92045   3.147   2.771  10.259 -1.1651 -0.8904  0.1326
  682MOL0     H92046   3.071   3.066  10.318 -0.1547 -0.7094  1.1566
  682MOL0     H92047   3.238   3.005  10.296 -0.5435 -0.2622  0.1410
  682MOL0     H92048   3.047   3.099  10.091  1.8440  1.1802 -1.9003
  682MOL0     H92049   3.142   2.946  10.056  0.2722  2.0863 -5.2844
  682MOL0     H92050   3.235   3.195   9.998 -2.7770  3.8390  2.9933
  682MOL0     H92051   3.338   3.065  10.045 -0.6757  1.1883 -1.0598
  682MOL0     H92052   3.373   2.470  10.814 -3.3324  1.4994  0.8892
  682MOL0     H92053   3.495   2.330  10.983  0.6403  0.4138 -2.3851
  682MOL0     H92054   3.470   2.208  11.503  1.5703  1.6785  0.7110
  682MOL0     H92055   3.645   2.113  11.663 -0.7197  0.0901  0.0048
  682MOL0     H92056   3.108   0.694  11.462  0.1356  0.8319  2.0016
  682MOL0     H92057   2.999   0.481  11.411 -0.5993  0.5838  0.7190
  682MOL0     H92058   3.080  -0.140  11.505  0.3216 -3.1500 -1.6800
  682MOL0     H92059   2.919  -0.295  11.419 -6.2264 -0.6128  3.0404
  682MOL0     H92060   2.610  -0.380  11.296  0.7506 -0.1107  0.8270
  682MOL0     H92061   2.631  -0.269  11.424  1.5306 -2.2982  0.9979
  682MOL0     H92062   2.535  -0.128  11.164  0.2782  2.6497  0.2684
  682MOL0     H92063   2.504  -0.085  11.324  0.5418  0.5591 -1.7250
  682MOL0     H92064   2.349  -0.308  11.348 -1.8255  2.2074  0.6064
  682MOL0     H92065   2.403  -0.337  11.174 -0.3465  0.0637 -0.2261
  682MOL0     H92066   2.262  -0.169  11.098  2.1609 -1.6305 -0.0164
  682MOL0     H92067   2.249  -0.081  11.247 -1.1709  2.2079 -3.1569
  682MOL0     H92068   1.983  -0.438  11.259  1.0859 -0.5061 -0.9866
  682MOL0     H92069   2.731   0.037  11.219  1.3308  2.0585 -0.1457
  682MOL0     H92070   2.910   0.186  11.294  1.6829 -0.5353 -0.4878
  683MOL0     O92071  10.310   5.630  10.942  0.1339  0.6505 -0.4653
  683MOL0     C92072  10.307   5.570  10.836  0.4301  0.3214 -0.0879
  683MOL0     O92073  10.422   5.541  10.759  0.1633 -0.4321  1.0658
  683MOL0     C92074  10.530   5.623  10.769  0.7637  1.1275 -0.2145
  683MOL0     C92075  10.526   5.748  10.708 -0.4472 -0.6505 -0.7461
  683MOL0     C92076  10.647   5.828  10.711 -0.5327  0.2592 -0.1155
  683MOL0     C92077  10.758   5.781  10.768 -0.0842 -0.8202  0.3132
  683MOL0     O92078  10.878   5.844  10.751 -0.0544  0.1646 -0.5213
  683MOL0     C92079  10.879   5.983  10.792 -0.4254  0.2221  0.8849
  683MOL0     C92080  10.821   6.012  10.933 -0.4393 -0.4079 -0.3375
  683MOL0     C92081  10.788   6.159  10.961 -0.4320  0.1661  0.7317
  683MOL0     C92082  10.767   6.183  11.118  0.5020 -0.8664 -0.3530
  683MOL0     C92083  10.778   6.336  11.156  0.4197 -0.6302 -0.2888
  683MOL0     C92084  10.670   6.421  11.083 -1.0205 -0.9281  0.0084
  683MOL0     C92085  10.687   6.583  11.102 -0.6529  0.4313  0.6177
  683MOL0     C92086  10.615   6.616  11.229 -0.2581  0.0561  0.2172
  683MOL0     N92087  10.622   6.762  11.264 -0.2193 -0.5425 -0.1269
  683MOL0     C92088  10.707   6.823  11.357  0.2340  0.2983 -0.1965
  683MOL0     C92089  10.695   6.961  11.334 -1.0120  0.1122  0.2895
  683MOL0     C92090  10.772   7.067  11.413 -0.8625 -0.2356 -0.2796
  683MOL0     C92091  10.703   7.105  11.542 -0.5497 -0.1904  0.4203
  683MOL0     C92092  10.717   7.008  11.663  0.2425  0.3850 -0.2739
  683MOL0     C92093  10.620   7.025  11.778  0.2936  0.6149  0.8202
  683MOL0     O92094  10.648   6.920  11.875  0.4127 -0.0137  0.5419
  683MOL0     C92095  10.550   6.867  11.950  0.2447  0.1052  0.8361
  683MOL0     C92096  10.449   6.944  12.010 -0.3770  0.8635 -0.6969
  683MOL0     C92097  10.345   6.881  12.084 -0.3709 -0.4271  0.4198
  683MOL0     C92098  10.237   6.951  12.147  0.8463 -1.2490  0.1865
  683MOL0     C92099  10.351   6.743  12.110  0.8930 -0.1653  0.4479
  683MOL0     C92100  10.258   6.671  12.194 -0.2878  0.8284 -0.1208
  683MOL0     O92101  10.295   6.643  12.324  0.1116 -0.1859 -0.1265
  683MOL0     C92102  10.213   6.559  12.394  0.0329  0.1521  1.4995
  683MOL0     C92103  10.222   6.421  12.369 -0.7126 -0.3427  0.0748
  683MOL0     C92104  10.144   6.331  12.445  0.2033 -0.6978  0.0945
  683MOL0     C92105  10.074   6.381  12.561 -0.0807  0.0544  0.4701
  683MOL0     O92106  10.006   6.295  12.642  0.1676 -0.0827 -0.2797
  683MOL0     C92107  10.079   6.178  12.681 -0.6193 -0.5115  0.4723
  683MOL0     C92108  10.017   6.108  12.808  0.1131 -0.2134  0.4268
  683MOL0     C92109   9.903   6.014  12.781  0.1791 -0.8738 -0.0442
  683MOL0     C92110   9.774   6.108  12.766  0.8649  0.3906 -1.0801
  683MOL0     C92111   9.643   6.021  12.798  0.4793 -0.2016 -0.7040
  683MOL0     C92112   9.518   6.116  12.803  0.1045  0.3468 -0.0872
  683MOL0     C92113   9.392   6.061  12.878 -0.9592  0.0049  1.0516
  683MOL0     C92114   9.390   6.044  13.021  0.5816 -0.2477  0.1500
  683MOL0    Cl92115   9.401   6.218  13.098 -0.1309  0.2560  0.0449
  683MOL0     C92116  10.074   6.516  12.585 -0.1837  0.5783 -0.0305
  683MOL0     C92117  10.143   6.610  12.498  0.6217  0.2415  0.2046
  683MOL0     O92118  10.161   6.625  12.131 -0.4879  0.1532 -0.3959
  683MOL0     C92119  10.454   6.667  12.052 -0.1216  0.1477  0.3836
  683MOL0     C92120  10.547   6.731  11.961 -0.4067  0.3249  0.5022
  683MOL0     N92121  10.598   6.978  11.229  0.0164  0.6395 -0.4723
  683MOL0     N92122  10.574   6.860  11.178  0.2461  0.6832 -1.0654
  683MOL0     C92123  10.755   5.657  10.815  0.1814 -0.0735  0.3186
  683MOL0     C92124  10.647   5.576  10.826 -0.1546 -0.0532 -0.5938
  683MOL0     C92125  10.177   5.494  10.815 -0.2003 -0.3677 -0.1238
  683MOL0     C92126  10.164   5.440  10.689  0.2876  0.0746  0.2299
  683MOL0     C92127  10.044   5.380  10.649  0.5579  0.3244  0.5471
  683MOL0     C92128   9.931   5.388  10.729 -1.1672 -0.7491 -0.9505
  683MOL0     O92129   9.813   5.323  10.705 -0.0842  0.3069  0.3502
  683MOL0     C92130   9.789   5.306  10.561 -0.6380  0.4136  0.1101
  683MOL0     C92131   9.642   5.301  10.537  0.0830  1.5050  0.1924
  683MOL0     C92132   9.577   5.438  10.521 -0.1024  0.8374 -0.3237
  683MOL0     C92133   9.421   5.426  10.533 -0.0401 -1.0031 -0.2280
  683MOL0     C92134   9.345   5.341  10.438 -0.0057  0.3501  0.2801
  683MOL0     C92135   9.305   5.258  10.350  0.2247  0.5415  0.7841
  683MOL0     C92136   9.947   5.453  10.852  0.8288  0.7599 -0.4809
  683MOL0     C92137  10.065   5.514  10.890 -0.2493  0.2620 -0.4181
  683MOL0     H92138  10.431   5.784  10.671 -0.1032  2.0420  0.7504
  683MOL0     H92139  10.641   5.921  10.655 -0.1564 -0.9163 -2.2079
  683MOL0     H92140  10.982   6.019  10.791 -0.0458 -0.6673  2.7314
  683MOL0     H92141  10.822   6.045  10.722 -1.7208  2.9386  4.0335
  683MOL0     H92142  10.735   5.949  10.954 -0.5890 -0.4913 -1.1691
  683MOL0     H92143  10.905   5.974  10.993 -1.8775 -2.1348  0.6676
  683MOL0     H92144  10.865   6.226  10.921  1.4070 -3.1014 -1.6790
  683MOL0     H92145  10.692   6.187  10.916  0.0951  2.9870  1.1775
  683MOL0     H92146  10.665   6.149  11.142  0.0662  0.7513  0.1985
  683MOL0     H92147  10.841   6.124  11.173 -0.1211 -3.3522 -2.0079
  683MOL0     H92148  10.766   6.361  11.261 -0.1322  2.6483 -1.0476
  683MOL0     H92149  10.874   6.371  11.115  0.9715 -1.3778  0.3389
  683MOL0     H92150  10.680   6.405  10.975  2.5372  1.5064 -0.1730
  683MOL0     H92151  10.566   6.394  11.105 -2.0022  2.4063 -0.0846
  683MOL0     H92152  10.792   6.605  11.120 -0.7177 -0.3764  2.1547
  683MOL0     H92153  10.646   6.641  11.019  0.4601  1.6258  0.8775
  683MOL0     H92154  10.665   6.572  11.315 -1.1817 -1.9956 -0.2520
  683MOL0     H92155  10.511   6.581  11.227  0.1567 -1.5491  2.5213
  683MOL0     H92156  10.773   6.778  11.430  0.1880 -1.4546 -1.1802
  683MOL0     H92157  10.869   7.017  11.424 -0.7871 -0.8872 -3.1087
  683MOL0     H92158  10.798   7.159  11.360  0.9311  0.4344  1.5922
  683MOL0     H92159  10.600   7.132  11.521 -0.6500 -2.8000 -3.1996
  683MOL0     H92160  10.749   7.200  11.574  2.0954 -2.2287  3.4170
  683MOL0     H92161  10.817   7.020  11.706  0.4314  0.6151 -0.7716
  683MOL0     H92162  10.695   6.905  11.631  1.5578 -0.1778  0.5295
  683MOL0     H92163  10.518   7.011  11.742 -0.1962  2.6044  1.2823
  683MOL0     H92164  10.614   7.127  11.817 -3.9844  1.0316 -0.4396
  683MOL0     H92165  10.451   7.052  12.016  2.3813  0.8209  0.9855
  683MOL0     H92166  10.212   7.044  12.095  0.8585 -0.7987  0.9838
  683MOL0     H92167  10.143   6.899  12.165  0.7686 -0.8369  1.0061
  683MOL0     H92168  10.273   6.989  12.243 -0.8224 -1.6479  0.9918
  683MOL0     H92169  10.293   6.394  12.291  2.1758  2.4920  1.5071
  683MOL0     H92170  10.159   6.224  12.440 -2.4980 -1.1210 -0.5713
  683MOL0     H92171  10.071   6.103  12.601  0.4958  1.9489 -2.1300
  683MOL0     H92172  10.180   6.215  12.699  0.0990 -1.6940 -0.8648
  683MOL0     H92173  10.101   6.053  12.852 -0.2552 -2.2369 -1.2667
  683MOL0     H92174   9.995   6.195  12.871  1.4399 -1.3769  2.6098
  683MOL0     H92175   9.889   5.945  12.865 -0.6189 -0.3780  0.2447
  683MOL0     H92176   9.924   5.951  12.694  2.3747 -1.9965  1.2179
  683MOL0     H92177   9.781   6.182  12.846 -0.3047  0.9626 -1.4766
  683MOL0     H92178   9.771   6.149  12.665  3.4392  1.1995 -0.8851
  683MOL0     H92179   9.654   5.972  12.895 -3.4834  1.9476  1.0607
  683MOL0     H92180   9.620   5.945  12.723  0.7329  1.1446 -2.1854
  683MOL0     H92181   9.541   6.208  12.856  1.9655 -0.2004  0.1140
  683MOL0     H92182   9.493   6.144  12.700 -0.3871  5.3124  1.1732
  683MOL0     H92183   9.364   5.974  12.818  0.8592  0.2356 -0.2434
  683MOL0     H92184   9.316   6.138  12.862  0.6565  1.6921  1.1148
  683MOL0     H92185   9.470   5.977  13.053  0.6637  0.4515  1.4696
  683MOL0     H92186   9.296   5.999  13.053  1.9504 -2.8159  0.8227
  683MOL0     H92187  10.031   6.550  12.678 -0.6425  0.3486 -0.1533
  683MOL0     H92188  10.140   6.717  12.515 -1.5898 -0.3285  5.3072
  683MOL0     H92189  10.466   6.564  12.086 -1.4127 -0.8683 -2.0365
  683MOL0     H92190  10.628   6.680  11.910  0.0550 -0.8152  2.2726
  683MOL0     H92191  10.851   5.619  10.847  2.0551  0.3038 -4.1495
  683MOL0     H92192  10.672   5.484  10.879  2.6942  0.5114 -0.7975
  683MOL0     H92193  10.244   5.418  10.619 -1.3855  0.7504 -2.0154
  683MOL0     H92194  10.035   5.314  10.563  0.4165 -4.3667  3.7431
  683MOL0     H92195   9.843   5.383  10.506  2.9860 -1.1161  1.2552
  683MOL0     H92196   9.837   5.209  10.545  0.6419  0.2671  3.8069
  683MOL0     H92197   9.596   5.260  10.627 -0.3173  2.2269  0.3220
  683MOL0     H92198   9.640   5.231  10.453  2.3373 -0.0002  1.3039
  683MOL0     H92199   9.598   5.465  10.417 -1.4209 -2.4044 -1.5450
  683MOL0     H92200   9.629   5.502  10.593 -0.2918  0.8255 -0.1743
  683MOL0     H92201   9.375   5.525  10.536 -0.2582 -1.0200 -2.0698
  683MOL0     H92202   9.392   5.371  10.623 -1.8709 -3.4548 -2.1749
  683MOL0     H92203   9.267   5.196  10.271  2.5514  1.6395 -1.3576
  683MOL0     H92204   9.847   5.452  10.894  0.1066 -2.5003 -2.0390
  683MOL0     H92205  10.071   5.552  10.991  2.3063  1.0511 -0.7769
  684MOL0     O92206   8.229   4.677   1.738 -0.3266  0.1771  0.4037
  684MOL0     C92207   8.195   4.718   1.845  0.1110 -0.1921 -0.4349
  684MOL0     O92208   8.094   4.674   1.914 -0.8605 -0.4342  0.2336
  684MOL0     C92209   8.020   4.563   1.894  0.0933  0.5335 -0.4003
  684MOL0     C92210   7.915   4.544   1.974  0.8850  0.5974 -0.4856
  684MOL0     C92211   7.833   4.424   1.969 -0.7429 -0.0493  0.7876
  684MOL0     C92212   7.874   4.319   1.872 -0.8562 -0.3583  0.3119
  684MOL0     O92213   7.790   4.208   1.886  0.1161  0.4420 -0.5204
  684MOL0     C92214   7.812   4.089   1.802 -1.5629 -1.0019  1.3420
  684MOL0     C92215   7.750   3.964   1.845 -0.5880  0.2313 -0.4904
  684MOL0     C92216   7.611   3.941   1.800  0.5593 -0.7448 -0.5844
  684MOL0     C92217   7.620   3.911   1.646 -1.1188 -0.6063 -1.4995
  684MOL0     C92218   7.501   3.836   1.591 -0.3526 -0.6117 -0.2624
  684MOL0     C92219   7.471   3.704   1.659 -0.0406  0.3238 -0.2944
  684MOL0     C92220   7.383   3.610   1.583 -0.3036  0.3357  0.1171
  684MOL0     C92221   7.245   3.674   1.549  0.1509 -0.7526  0.3277
  684MOL0     N92222   7.161   3.584   1.471 -0.8180  0.9710  0.1247
  684MOL0     C92223   7.041   3.549   1.517  0.1867 -0.0619  0.0032
  684MOL0     C92224   6.981   3.479   1.423  0.9756  0.4642 -0.0537
  684MOL0     C92225   6.856   3.410   1.427  0.8488 -0.3126 -0.1620
  684MOL0     C92226   6.759   3.457   1.316  0.1775  0.0628  0.3713
  684MOL0     C92227   6.683   3.587   1.348  0.5620  0.2224  1.4408
  684MOL0     C92228   6.759   3.719   1.375 -0.2501  0.2920 -0.6989
  684MOL0     O92229   6.835   3.755   1.253 -0.5797 -0.5078  0.6032
  684MOL0     C92230   6.930   3.846   1.273 -0.0608 -0.6058 -0.3881
  684MOL0     C92231   6.910   3.970   1.341 -0.5385  0.4073 -0.1720
  684MOL0     C92232   7.016   4.062   1.346  0.7524  0.1974 -0.3999
  684MOL0     C92233   6.986   4.194   1.416 -0.5678  1.1917  0.5941
  684MOL0     C92234   7.146   4.032   1.286  0.1674  0.1442 -0.8179
  684MOL0     C92235   7.257   4.129   1.299 -0.1048  0.4603 -0.1868
  684MOL0     O92236   7.242   4.257   1.264  0.6989  0.0854 -0.9733
  684MOL0     C92237   7.342   4.346   1.297  0.7167  0.9422 -0.9419
  684MOL0     C92238   7.345   4.388   1.427 -0.2142  0.2093 -0.7696
  684MOL0     C92239   7.443   4.471   1.467 -0.8024  0.2153 -0.0430
  684MOL0     C92240   7.546   4.515   1.382  0.3255  0.5924 -0.1010
  684MOL0     O92241   7.660   4.578   1.426  0.0002 -0.6665  0.1563
  684MOL0     C92242   7.654   4.648   1.552 -0.7379  0.1912  0.5628
  684MOL0     C92243   7.780   4.743   1.559  0.1600 -0.0875 -1.2436
  684MOL0     C92244   7.800   4.818   1.695 -0.4374  0.5068  1.1337
  684MOL0     C92245   7.877   4.947   1.659  0.5548 -0.1180 -0.1121
  684MOL0     C92246   7.916   5.039   1.782 -0.3442 -0.2063  0.2675
  684MOL0     C92247   7.790   5.085   1.844 -0.9639 -0.5826  0.2223
  684MOL0     C92248   7.842   5.190   1.960  0.4053  0.6374  0.8944
  684MOL0     C92249   7.744   5.211   2.067  0.9646 -0.0197  0.4012
  684MOL0    Cl92250   7.738   5.078   2.182  0.5161 -0.0630 -0.5488
  684MOL0     C92251   7.528   4.490   1.245  0.2524 -0.8126 -0.2344
  684MOL0     C92252   7.432   4.397   1.201  1.5901  0.6859 -0.5852
  684MOL0     O92253   7.372   4.081   1.326  0.5087 -0.5479 -0.1039
  684MOL0     C92254   7.165   3.909   1.234  0.5337  0.2590 -0.3855
  684MOL0     C92255   7.051   3.823   1.217  1.0603  0.4469 -1.0764
  684MOL0     N92256   7.075   3.460   1.315 -0.6942  0.0454 -0.1859
  684MOL0     N92257   7.176   3.532   1.348  0.2669 -0.3331 -0.7719
  684MOL0     C92258   7.975   4.345   1.790  0.1263 -0.7834  0.4362
  684MOL0     C92259   8.051   4.462   1.795  1.1890 -0.1889 -0.1511
  684MOL0     C92260   8.252   4.843   1.898  0.3579  0.0863 -0.2198
  684MOL0     C92261   8.337   4.924   1.813  0.1493 -0.1512 -0.2449
  684MOL0     C92262   8.398   5.044   1.867  0.7847 -0.2210  0.6376
  684MOL0     C92263   8.351   5.101   1.992  0.2267 -0.1793  0.5846
  684MOL0     O92264   8.391   5.222   2.047 -0.1856  0.2620 -0.4421
  684MOL0     C92265   8.284   5.321   2.051 -0.2379  0.0755 -0.5826
  684MOL0     C92266   8.280   5.399   1.920  0.5498 -0.6471  0.6029
  684MOL0     C92267   8.416   5.474   1.898  0.2403 -0.2555 -0.6491
  684MOL0     C92268   8.403   5.578   1.789 -0.4113 -0.2197 -0.1023
  684MOL0     C92269   8.365   5.514   1.663 -0.4187 -0.2974 -0.8589
  684MOL0     C92270   8.372   5.476   1.550 -0.2477 -0.7713 -0.9694
  684MOL0     C92271   8.260   5.022   2.064  0.0230 -0.3085  0.4614
  684MOL0     C92272   8.218   4.893   2.024 -0.6563  0.4342  0.7700
  684MOL0     H92273   7.892   4.624   2.044  4.0039 -1.6178  3.5362
  684MOL0     H92274   7.757   4.400   2.042 -1.8751 -0.4051 -0.4569
  684MOL0     H92275   7.790   4.114   1.698  4.0447  0.6946  0.2110
  684MOL0     H92276   7.921   4.077   1.799 -1.3285  0.9694  0.9568
  684MOL0     H92277   7.811   3.882   1.807 -3.3867 -1.2649 -2.1012
  684MOL0     H92278   7.757   3.947   1.953  0.6085 -2.0305 -0.8607
  684MOL0     H92279   7.563   3.861   1.858 -1.1588 -2.2319 -3.7773
  684MOL0     H92280   7.543   4.026   1.810  0.3373 -1.0102  0.2843
  684MOL0     H92281   7.629   4.004   1.589 -3.2445 -1.2515 -3.0191
  684MOL0     H92282   7.706   3.844   1.631 -0.0096 -1.0451  4.4573
  684MOL0     H92283   7.422   3.910   1.609  1.4504  1.0398  1.3431
  684MOL0     H92284   7.512   3.809   1.486 -0.1982 -3.2461  0.3627
  684MOL0     H92285   7.558   3.648   1.696 -0.1183  1.2965  1.4613
  684MOL0     H92286   7.420   3.727   1.753 -1.7013  3.3443 -1.8005
  684MOL0     H92287   7.430   3.589   1.486  0.4628  1.4186  0.2457
  684MOL0     H92288   7.370   3.526   1.652  0.6775  1.4334  1.6893
  684MOL0     H92289   7.260   3.762   1.486 -3.3271 -0.6315 -0.5549
  684MOL0     H92290   7.190   3.698   1.640 -2.6297 -1.1963 -1.1046
  684MOL0     H92291   6.991   3.579   1.609 -0.3968  1.0660 -0.6563
  684MOL0     H92292   6.880   3.304   1.415 -0.8109 -0.3853 -4.7152
  684MOL0     H92293   6.826   3.419   1.531  1.4614 -1.1346  0.1028
  684MOL0     H92294   6.680   3.388   1.284 -0.7520  2.2019 -2.3460
  684MOL0     H92295   6.814   3.473   1.223  2.0354  0.9261  1.5659
  684MOL0     H92296   6.619   3.568   1.435  1.0160  1.7367  2.1395
  684MOL0     H92297   6.612   3.604   1.267  2.1749 -0.2168 -0.1155
  684MOL0     H92298   6.818   3.703   1.466 -1.6170 -1.2390 -0.0259
  684MOL0     H92299   6.690   3.802   1.390 -2.1126 -1.1447 -0.9243
  684MOL0     H92300   6.818   4.004   1.388 -0.0808  0.9093  0.3794
  684MOL0     H92301   7.067   4.221   1.483 -0.6777  3.3859 -0.0761
  684MOL0     H92302   6.966   4.280   1.351 -3.0667  2.4735  2.8681
  684MOL0     H92303   6.904   4.172   1.486  1.7259 -1.4364  2.6669
  684MOL0     H92304   7.272   4.351   1.499  1.8054  0.7796  1.7408
  684MOL0     H92305   7.439   4.487   1.574  1.1351  1.7887 -0.1551
  684MOL0     H92306   7.557   4.699   1.555 -0.8015  0.1965 -0.8798
  684MOL0     H92307   7.656   4.565   1.623 -1.2583 -2.4973 -2.3887
  684MOL0     H92308   7.867   4.681   1.535 -1.6307 -1.8763 -3.5707
  684MOL0     H92309   7.751   4.798   1.469 -1.7864 -3.9583 -3.2804
  684MOL0     H92310   7.840   4.749   1.769  1.2559 -0.0168 -0.2156
  684MOL0     H92311   7.708   4.844   1.748 -2.8327 -0.4062 -2.2442
  684MOL0     H92312   7.974   4.923   1.615  1.0733  1.3052  0.2006
  684MOL0     H92313   7.819   5.007   1.588 -0.5250 -0.0660  0.7834
  684MOL0     H92314   7.978   5.116   1.735  0.0920 -0.5102  0.3390
  684MOL0     H92315   7.978   4.976   1.847  0.9814  1.2834  0.4998
  684MOL0     H92316   7.722   5.115   1.764  2.1085 -3.0105 -3.6922
  684MOL0     H92317   7.744   4.999   1.893  0.5987 -2.0578 -0.7955
  684MOL0     H92318   7.871   5.277   1.900  2.4275 -1.1844 -0.9259
  684MOL0     H92319   7.932   5.162   2.015 -0.0345 -0.6528  1.0034
  684MOL0     H92320   7.644   5.227   2.025  1.8469  2.6516 -0.8479
  684MOL0     H92321   7.782   5.303   2.112  1.1263  2.0833 -3.6323
  684MOL0     H92322   7.608   4.528   1.181  3.5278 -0.9530  3.3872
  684MOL0     H92323   7.430   4.347   1.105  1.2534  1.4254 -0.9730
  684MOL0     H92324   7.259   3.880   1.187 -0.1680 -2.2289 -0.3682
  684MOL0     H92325   7.063   3.726   1.172 -1.1141 -0.3533 -0.1119
  684MOL0     H92326   8.000   4.266   1.720  0.7845 -2.7154  2.7450
  684MOL0     H92327   8.130   4.474   1.722  0.1411  0.8460 -1.1563
  684MOL0     H92328   8.373   4.890   1.716  0.4556 -1.3731  0.2816
  684MOL0     H92329   8.474   5.094   1.808  2.5499 -2.0806  1.2370
  684MOL0     H92330   8.186   5.274   2.065 -0.2967 -0.5580 -2.8381
  684MOL0     H92331   8.301   5.399   2.126  0.9923  1.5566 -2.2991
  684MOL0     H92332   8.201   5.474   1.919  1.9380  1.0187  3.4288
  684MOL0     H92333   8.268   5.330   1.836  0.5297 -0.6609  0.6172
  684MOL0     H92334   8.495   5.408   1.862  1.5778  0.0726  1.4966
  684MOL0     H92335   8.457   5.521   1.988  1.4097  1.5572 -2.0757
  684MOL0     H92336   8.506   5.612   1.773  0.1707 -0.8443  1.9684
  684MOL0     H92337   8.327   5.651   1.818 -0.9849 -1.5522  1.9148
  684MOL0     H92338   8.405   5.439   1.455  0.0794 -4.5400  0.4573
  684MOL0     H92339   8.221   5.062   2.157 -2.1001  1.7428 -1.1749
  684MOL0     H92340   8.135   4.838   2.068  1.6202 -4.5227 -0.4318
  685MOL0     O92341   4.535   0.346   9.014 -0.4532  0.3344 -0.5562
  685MOL0     C92342   4.602   0.343   9.119 -0.5714  0.2415 -0.3829
  685MOL0     O92343   4.601   0.244   9.218 -1.6710  0.2809  0.7525
  685MOL0     C92344   4.491   0.163   9.208 -0.2961 -0.8025 -0.8878
  685MOL0     C92345   4.358   0.196   9.222  0.1871  0.2697  0.1925
  685MOL0     C92346   4.250   0.103   9.246  0.2845  1.2449  0.1599
  685MOL0     C92347   4.282  -0.037   9.241 -0.1788 -0.0524 -0.0899
  685MOL0     O92348   4.197  -0.140   9.250 -0.1201  0.7034  0.5178
  685MOL0     C92349   4.100  -0.158   9.348 -0.4369 -0.7106  0.1144
  685MOL0     C92350   4.100  -0.300   9.381 -0.7801  0.9550 -0.8860
  685MOL0     C92351   4.235  -0.342   9.451 -0.1461  0.0645 -0.7259
  685MOL0     C92352   4.237  -0.487   9.481  0.8955 -0.8037  0.5959
  685MOL0     C92353   4.381  -0.538   9.504 -0.1942  0.7608 -0.0627
  685MOL0     C92354   4.369  -0.657   9.588  0.3525 -0.1770 -0.1195
  685MOL0     C92355   4.516  -0.691   9.638  0.3639 -0.5915  0.2670
  685MOL0     C92356   4.538  -0.835   9.669  0.3296  1.1974 -0.1304
  685MOL0     N92357   4.478  -0.873   9.798 -0.7485 -0.3889 -1.0216
  685MOL0     C92358   4.552  -0.909   9.906 -0.0997 -0.8845 -0.0722
  685MOL0     C92359   4.463  -0.969   9.990 -0.3505 -0.6228 -0.2129
  685MOL0     C92360   4.515  -1.024  10.119 -0.5936  0.7928 -0.1929
  685MOL0     C92361   4.432  -1.003  10.247 -0.2993  0.5022 -0.7162
  685MOL0     C92362   4.409  -0.854  10.271  0.5415 -0.8954  0.8551
  685MOL0     C92363   4.272  -0.819  10.338 -0.6730 -0.5690 -1.0199
  685MOL0     O92364   4.237  -0.898  10.448 -1.4150 -0.9077  0.4104
  685MOL0     C92365   4.315  -0.903  10.566 -0.6623 -0.5350 -0.9523
  685MOL0     C92366   4.326  -1.021  10.636  0.4032 -0.1355  1.1257
  685MOL0     C92367   4.412  -1.047  10.734  0.2149  0.8251  0.2838
  685MOL0     C92368   4.403  -1.186  10.787 -0.5247  0.0499  0.2399
  685MOL0     C92369   4.489  -0.946  10.783  0.1287 -1.0112  0.2375
  685MOL0     C92370   4.597  -0.969  10.882  0.2137 -0.0498 -0.0252
  685MOL0     O92371   4.604  -0.877  10.972  0.1319 -0.0662 -0.3067
  685MOL0     C92372   4.729  -0.844  11.013  0.4161  0.6386  0.2901
  685MOL0     C92373   4.748  -0.780  11.136 -0.4425 -0.2160  0.2180
  685MOL0     C92374   4.871  -0.727  11.185  0.4172 -0.7660  0.3739
  685MOL0     C92375   4.983  -0.753  11.109  0.6879 -0.0690 -0.3983
  685MOL0     O92376   5.100  -0.699  11.137 -0.5824 -0.1231  0.6123
  685MOL0     C92377   5.157  -0.719  11.267 -0.4690 -0.0043 -0.3651
  685MOL0     C92378   5.258  -0.826  11.262  0.1695 -0.2757 -0.8010
  685MOL0     C92379   5.182  -0.958  11.245 -0.2166  0.2447  0.3512
  685MOL0     C92380   5.288  -1.074  11.250  0.1875  0.2446 -1.1047
  685MOL0     C92381   5.215  -1.211  11.225  0.1664 -0.0512 -0.5358
  685MOL0     C92382   5.284  -1.342  11.281 -0.3774 -0.6156  0.7550
  685MOL0     C92383   5.226  -1.476  11.227  0.1602  0.4530  0.9863
  685MOL0     C92384   5.080  -1.491  11.253  0.3451  0.1720 -0.4580
  685MOL0    Cl92385   5.024  -1.630  11.151  0.1601  0.2479  0.3003
  685MOL0     C92386   4.972  -0.824  10.989 -0.0999 -0.1317  0.4475
  685MOL0     C92387   4.852  -0.863  10.932  0.3596 -0.4392  0.2546
  685MOL0     O92388   4.662  -1.067  10.884  1.1190  0.5604  0.4045
  685MOL0     C92389   4.486  -0.818  10.721  0.1552 -0.0447 -1.1198
  685MOL0     C92390   4.404  -0.801  10.607 -0.5039 -0.7183  0.7678
  685MOL0     N92391   4.337  -0.956   9.931  0.1544 -0.0871 -0.4329
  685MOL0     N92392   4.347  -0.900   9.825 -1.0183 -0.6738 -0.0427
  685MOL0     C92393   4.418  -0.076   9.230 -0.0583 -0.3005 -0.0936
  685MOL0     C92394   4.522   0.024   9.230 -0.3765 -0.5592  0.2141
  685MOL0     C92395   4.700   0.456   9.115 -0.6049 -0.5246 -1.4158
  685MOL0     C92396   4.763   0.499   8.996  1.0600  0.1745 -0.6138
  685MOL0     C92397   4.884   0.572   8.993  0.1760  0.0996 -0.4316
  685MOL0     C92398   4.940   0.632   9.110 -1.7154 -0.0116 -0.4196
  685MOL0     O92399   5.048   0.714   9.119 -0.0880 -0.3119 -0.9682
  685MOL0     C92400   5.076   0.784   9.002  0.2348 -0.5171  0.2766
  685MOL0     C92401   5.174   0.723   8.905 -0.0105  0.1386  0.7826
  685MOL0     C92402   5.164   0.777   8.762 -0.6194 -0.9061  0.2251
  685MOL0     C92403   5.209   0.929   8.734  1.2276 -0.2214 -0.9521
  685MOL0     C92404   5.101   1.023   8.761 -0.3339 -0.2596 -0.0145
  685MOL0     C92405   5.025   1.111   8.782  0.0140 -0.8089 -0.3781
  685MOL0     C92406   4.868   0.604   9.225 -0.0144  0.1223 -0.0660
  685MOL0     C92407   4.753   0.525   9.235  0.2454  0.3202  0.2271
  685MOL0     H92408   4.330   0.301   9.233  3.4807  1.5248 -1.8268
  685MOL0     H92409   4.148   0.140   9.248 -1.1124 -2.1893  2.5776
  685MOL0     H92410   4.131  -0.096   9.434  0.4749 -1.8701  0.6497
  685MOL0     H92411   4.001  -0.132   9.310 -1.0236  1.7896  2.8932
  685MOL0     H92412   4.010  -0.314   9.442 -1.1233  1.4767 -1.2686
  685MOL0     H92413   4.094  -0.362   9.291  1.7808  2.0952 -1.9374
  685MOL0     H92414   4.321  -0.318   9.387  1.5754  0.9820  1.7617
  685MOL0     H92415   4.243  -0.300   9.551  0.5782 -0.0671 -0.7229
  685MOL0     H92416   4.180  -0.504   9.574 -0.1277 -0.9603 -0.0416
  685MOL0     H92417   4.186  -0.554   9.411 -2.0445  0.0472  1.7673
  685MOL0     H92418   4.435  -0.555   9.411 -2.8348 -1.4029 -1.3651
  685MOL0     H92419   4.439  -0.469   9.565 -0.0285  0.6959 -0.1484
  685MOL0     H92420   4.297  -0.647   9.670 -0.9269  0.1000 -1.2296
  685MOL0     H92421   4.337  -0.742   9.526 -1.9722  0.2602  0.3907
  685MOL0     H92422   4.588  -0.657   9.563 -0.8970 -0.7647 -1.0707
  685MOL0     H92423   4.541  -0.628   9.724 -0.1871  0.1464 -0.0905
  685MOL0     H92424   4.647  -0.848   9.675  0.1122 -4.4529 -2.1053
  685MOL0     H92425   4.497  -0.901   9.591 -0.6996  2.4793 -0.7102
  685MOL0     H92426   4.659  -0.910   9.925 -0.1492  1.5866  0.7795
  685MOL0     H92427   4.532  -1.131  10.112  3.8367  0.9609  3.1928
  685MOL0     H92428   4.609  -0.971  10.142 -0.1759 -0.2071  0.4483
  685MOL0     H92429   4.474  -1.049  10.337 -0.3765 -1.0463 -1.4509
  685MOL0     H92430   4.335  -1.053  10.246  0.3105 -1.0557  2.6764
  685MOL0     H92431   4.413  -0.795  10.179 -2.0824 -0.1436  1.1461
  685MOL0     H92432   4.492  -0.822  10.335  0.5203  2.3812 -0.5307
  685MOL0     H92433   4.187  -0.833  10.270  1.1668 -2.9743 -2.9756
  685MOL0     H92434   4.276  -0.715  10.372  1.1639 -1.4902  1.9109
  685MOL0     H92435   4.258  -1.099  10.605 -0.1689  0.7365  0.1145
  685MOL0     H92436   4.456  -1.249  10.715  0.7656  1.1104  0.2421
  685MOL0     H92437   4.440  -1.208  10.887  1.2390 -1.2971 -0.6501
  685MOL0     H92438   4.301  -1.227  10.788  0.5420 -3.1056 -2.0349
  685MOL0     H92439   4.652  -0.760  11.182  0.6224  0.3637  2.3383
  685MOL0     H92440   4.870  -0.668  11.276 -0.0846 -0.1289 -0.0401
  685MOL0     H92441   5.195  -0.617  11.280  0.8401 -0.6581  1.4009
  685MOL0     H92442   5.080  -0.740  11.343 -0.8861 -0.4311 -0.8997
  685MOL0     H92443   5.325  -0.822  11.175  2.2965  1.2164  0.8085
  685MOL0     H92444   5.314  -0.835  11.356 -0.1110 -0.7992 -0.6750
  685MOL0     H92445   5.140  -0.954  11.144 -0.4299  3.6999  0.4357
  685MOL0     H92446   5.114  -0.979  11.329 -0.6775  0.2556 -0.0181
  685MOL0     H92447   5.376  -1.058  11.187  1.8145 -0.7285  0.7855
  685MOL0     H92448   5.347  -1.081  11.342  0.2164  2.6091 -0.8737
  685MOL0     H92449   5.191  -1.217  11.119 -3.2251 -0.3722  0.1208
  685MOL0     H92450   5.115  -1.207  11.269 -0.5342 -0.1218 -2.0721
  685MOL0     H92451   5.386  -1.330  11.244 -0.2678 -2.8049  0.2269
  685MOL0     H92452   5.278  -1.335  11.390  2.0925 -2.3560  1.0810
  685MOL0     H92453   5.286  -1.560  11.262  1.0722  0.6372 -0.0653
  685MOL0     H92454   5.238  -1.485  11.119 -2.5399  1.0628  0.5538
  685MOL0     H92455   5.021  -1.404  11.222 -2.3160 -0.8815  1.2438
  685MOL0     H92456   5.074  -1.506  11.362 -0.1297 -0.4768 -0.5661
  685MOL0     H92457   5.068  -0.843  10.943  0.6405  0.9068  1.4865
  685MOL0     H92458   4.857  -0.914  10.837  5.7545  0.7328 -0.3674
  685MOL0     H92459   4.565  -0.749  10.748  1.7813 -1.7011 -1.3848
  685MOL0     H92460   4.427  -0.699  10.576 -1.0637 -1.2948 -1.7287
  685MOL0     H92461   4.445  -0.181   9.221 -1.0996 -0.4723 -1.6837
  685MOL0     H92462   4.624  -0.012   9.237 -0.8027 -2.4190 -2.1027
  685MOL0     H92463   4.721   0.471   8.900  0.4829 -0.6754 -0.1277
  685MOL0     H92464   4.916   0.586   8.890 -0.7624  2.7844 -0.4397
  685MOL0     H92465   4.986   0.807   8.945 -0.3981 -3.9287 -0.2823
  685MOL0     H92466   5.101   0.886   9.033 -1.1119 -0.0849 -0.0212
  685MOL0     H92467   5.156   0.616   8.888  1.1889  0.0651 -0.1368
  685MOL0     H92468   5.277   0.718   8.942  0.4644 -0.3565 -0.5498
  685MOL0     H92469   5.076   0.752   8.702 -0.4859  0.0100 -0.3743
  685MOL0     H92470   5.250   0.724   8.719  1.2201  1.4720  0.7522
  685MOL0     H92471   5.244   0.934   8.630  4.7701 -1.0664  0.0457
  685MOL0     H92472   5.292   0.969   8.794 -0.7000  2.3256  0.2066
  685MOL0     H92473   4.941   1.177   8.789  0.3631 -0.2680 -1.1246
  685MOL0     H92474   4.886   0.661   9.315 -1.0739  0.6182 -0.1550
  685MOL0     H92475   4.707   0.504   9.331  0.6723 -0.5723  0.2495
  686MOL0     O92476   8.318   1.973   4.759  0.3315  0.0112 -0.5970
  686MOL0     C92477   8.340   1.878   4.834  0.5026 -0.0630  0.2940
  686MOL0     O92478   8.256   1.828   4.927 -0.0389 -0.0330 -1.0562
  686MOL0     C92479   8.123   1.854   4.915 -0.3910 -0.3479  0.0802
  686MOL0     C92480   8.039   1.760   4.862  0.2812 -0.1569 -0.3927
  686MOL0     C92481   7.899   1.785   4.871 -0.0817  0.7884 -0.8783
  686MOL0     C92482   7.847   1.908   4.918  0.0422 -0.0342  0.1869
  686MOL0     O92483   7.711   1.917   4.925  0.2094 -1.0887 -0.2179
  686MOL0     C92484   7.660   2.045   4.970 -0.0504  0.6322 -0.5667
  686MOL0     C92485   7.505   2.036   4.934 -0.5101 -1.0396 -0.8494
  686MOL0     C92486   7.434   2.022   5.068  0.0123 -0.4086  0.3841
  686MOL0     C92487   7.283   2.004   5.053 -0.1393  0.9495  0.6316
  686MOL0     C92488   7.214   2.018   5.187 -1.0407 -0.6389 -0.0836
  686MOL0     C92489   7.057   1.990   5.198  0.0728 -0.2590 -0.6511
  686MOL0     C92490   6.981   2.039   5.324  0.4769 -0.2274 -0.2225
  686MOL0     C92491   6.970   1.951   5.457  0.1313 -0.0779  0.0514
  686MOL0     N92492   6.894   2.017   5.554  0.2026  0.3063  0.3466
  686MOL0     C92493   6.762   2.068   5.541  0.1574 -0.4280  0.0360
  686MOL0     C92494   6.736   2.131   5.659 -0.4040  0.8896  0.9106
  686MOL0     C92495   6.610   2.208   5.686  0.2315 -0.3749 -0.6262
  686MOL0     C92496   6.504   2.125   5.758 -0.3365 -0.6790 -0.1641
  686MOL0     C92497   6.520   2.124   5.912  0.0478  0.0513  0.2961
  686MOL0     C92498   6.404   2.040   5.973 -1.5303 -0.6160 -0.8517
  686MOL0     O92499   6.441   2.041   6.118  0.5219 -0.4311  0.6273
  686MOL0     C92500   6.368   1.942   6.192 -0.4799 -0.0601  0.7379
  686MOL0     C92501   6.414   1.888   6.311 -0.9978 -0.4372  0.0658
  686MOL0     C92502   6.346   1.794   6.387 -0.2326  0.1209 -0.4121
  686MOL0     C92503   6.409   1.726   6.505  0.3469  0.0706 -0.2531
  686MOL0     C92504   6.220   1.752   6.353  0.6638 -0.9263  0.6539
  686MOL0     C92505   6.137   1.662   6.432 -0.9826 -0.3739  0.2612
  686MOL0     O92506   6.093   1.546   6.373 -0.0258  0.2962 -0.4175
  686MOL0     C92507   6.024   1.455   6.441  0.4450 -0.1079 -1.5859
  686MOL0     C92508   6.103   1.338   6.475 -0.6426  0.2020 -0.3430
  686MOL0     C92509   6.045   1.222   6.526 -0.3674 -0.0977  0.1063
  686MOL0     C92510   5.912   1.227   6.553 -0.1628  0.5438  0.4674
  686MOL0     O92511   5.868   1.121   6.626 -0.3465 -0.1227  0.6483
  686MOL0     C92512   5.727   1.086   6.615  0.1566  0.5112  0.2232
  686MOL0     C92513   5.650   1.114   6.747  0.1754 -0.6583 -0.1212
  686MOL0     C92514   5.569   1.243   6.736 -0.5546 -1.4797  0.0007
  686MOL0     C92515   5.443   1.242   6.841 -0.7378 -0.2521 -0.1698
  686MOL0     C92516   5.314   1.202   6.780 -0.0744 -1.1059  0.7271
  686MOL0     C92517   5.219   1.234   6.888  1.0213 -0.4778 -0.1486
  686MOL0     C92518   5.080   1.264   6.828  1.3263  0.1583 -0.5247
  686MOL0     C92519   4.973   1.276   6.933  0.2632  0.4891 -0.0602
  686MOL0    Cl92520   4.947   1.112   7.015  0.1669  0.2860  0.3736
  686MOL0     C92521   5.837   1.341   6.513 -0.1069  0.3651 -1.6793
  686MOL0     C92522   5.884   1.454   6.466  0.7540  0.4457 -0.8505
  686MOL0     O92523   6.108   1.701   6.543  0.2552  0.0766  0.2043
  686MOL0     C92524   6.168   1.817   6.237 -0.2645  0.7113  1.1628
  686MOL0     C92525   6.240   1.904   6.157 -0.1026  0.1557 -1.4492
  686MOL0     N92526   6.839   2.104   5.747 -0.4696 -0.8584  0.1815
  686MOL0     N92527   6.928   2.035   5.685  0.7278 -0.2187 -0.4078
  686MOL0     C92528   7.940   2.004   4.965  0.5436  0.2582  0.3429
  686MOL0     C92529   8.080   1.979   4.963 -0.3222  0.0407 -0.6783
  686MOL0     C92530   8.472   1.808   4.827 -0.4997  0.7110 -0.5200
  686MOL0     C92531   8.515   1.731   4.939 -0.0630  0.3736 -0.5235
  686MOL0     C92532   8.643   1.663   4.923  1.2853 -0.7675 -0.3811
  686MOL0     C92533   8.718   1.672   4.805 -0.7114  0.5345  0.2963
  686MOL0     O92534   8.836   1.612   4.792  0.5297  0.2417  0.5262
  686MOL0     C92535   8.832   1.504   4.687  0.4247 -0.1768  0.2559
  686MOL0     C92536   8.728   1.392   4.697 -0.6011  0.0826 -0.2703
  686MOL0     C92537   8.763   1.296   4.824 -0.3498 -0.1929 -0.1269
  686MOL0     C92538   8.647   1.202   4.845  0.0889  0.2025 -0.7628
  686MOL0     C92539   8.645   1.104   4.744 -0.4843  0.6042 -0.1034
  686MOL0     C92540   8.671   1.044   4.643  0.6085 -0.7946 -0.0955
  686MOL0     C92541   8.674   1.748   4.702 -0.0006  0.1890 -0.1521
  686MOL0     C92542   8.560   1.836   4.718  0.4947  1.5863  0.6779
  686MOL0     H92543   8.071   1.662   4.827 -0.1128  0.1853 -1.7721
  686MOL0     H92544   7.819   1.717   4.841 -0.9723  0.3177  2.2058
  686MOL0     H92545   7.681   2.052   5.077 -0.4036  0.4284 -0.4813
  686MOL0     H92546   7.710   2.128   4.920  1.7873  0.5645  1.0349
  686MOL0     H92547   7.483   2.123   4.871  1.2829  0.6122  0.6749
  686MOL0     H92548   7.492   1.951   4.866 -1.5659 -0.7333 -1.0529
  686MOL0     H92549   7.467   1.933   5.122  0.1256 -0.3163  0.4660
  686MOL0     H92550   7.454   2.111   5.129 -2.3926 -0.8643  1.9603
  686MOL0     H92551   7.244   2.087   4.994 -0.7101  0.8156  0.8108
  686MOL0     H92552   7.250   1.909   5.010 -0.6029  1.4292 -0.0859
  686MOL0     H92553   7.265   1.955   5.262  0.7979  0.7275 -0.1150
  686MOL0     H92554   7.238   2.116   5.230 -0.4654 -2.0188  3.0224
  686MOL0     H92555   7.019   2.040   5.108 -1.0325 -4.0721 -2.5277
  686MOL0     H92556   7.045   1.883   5.178 -0.0831  0.0917 -2.7515
  686MOL0     H92557   7.028   2.133   5.353  2.1409 -1.5121  1.4736
  686MOL0     H92558   6.880   2.066   5.291  0.9666  3.7383  0.9851
  686MOL0     H92559   7.067   1.926   5.502  0.3940  0.0429 -0.4370
  686MOL0     H92560   6.917   1.857   5.441  0.1962 -0.3570  1.3823
  686MOL0     H92561   6.718   2.069   5.441  1.6888  1.1562 -0.6747
  686MOL0     H92562   6.650   2.288   5.749  0.5905 -0.4895 -0.7082
  686MOL0     H92563   6.562   2.249   5.596  1.5360  1.5296 -0.5199
  686MOL0     H92564   6.518   2.019   5.734 -1.5602 -1.4005  2.0351
  686MOL0     H92565   6.407   2.170   5.736  1.1859  2.7621 -0.5375
  686MOL0     H92566   6.520   2.231   5.932  0.5603  0.5901 -2.2234
  686MOL0     H92567   6.621   2.093   5.942  0.3872 -1.2105 -1.8979
  686MOL0     H92568   6.405   1.936   5.940 -1.6535 -0.2442 -2.0887
  686MOL0     H92569   6.305   2.086   5.966 -0.8559  1.1222  0.2915
  686MOL0     H92570   6.511   1.928   6.338 -0.7908  2.0129 -3.5680
  686MOL0     H92571   6.416   1.619   6.487  2.2447  0.6241 -3.6084
  686MOL0     H92572   6.502   1.781   6.525  1.4693 -1.2164 -1.6836
  686MOL0     H92573   6.358   1.731   6.602  0.3274  0.0470 -0.2627
  686MOL0     H92574   6.211   1.330   6.472 -0.3524 -4.9126  5.1055
  686MOL0     H92575   6.098   1.131   6.554 -1.8171 -0.6623  1.1165
  686MOL0     H92576   5.680   1.128   6.525  0.6654  0.5818 -0.0162
  686MOL0     H92577   5.737   0.978   6.604  1.0844  0.1732  3.5044
  686MOL0     H92578   5.591   1.028   6.780 -2.7070  1.1769 -0.0828
  686MOL0     H92579   5.732   1.125   6.818 -0.4111  0.4489  0.4113
  686MOL0     H92580   5.519   1.265   6.641 -2.9930  1.3205  1.7354
  686MOL0     H92581   5.635   1.331   6.744 -0.0699 -1.7256 -1.1361
  686MOL0     H92582   5.461   1.169   6.921 -0.2977  0.8893  0.8068
  686MOL0     H92583   5.448   1.334   6.900  0.7326  0.1501 -0.8722
  686MOL0     H92584   5.319   1.100   6.742 -4.6199 -2.6042  3.3465
  686MOL0     H92585   5.288   1.268   6.697 -0.8121 -2.8636 -0.5011
  686MOL0     H92586   5.199   1.148   6.953  2.4430 -0.3450  0.4976
  686MOL0     H92587   5.243   1.324   6.945 -0.6935  1.5223 -2.4210
  686MOL0     H92588   5.048   1.182   6.762  1.2353 -0.3643  0.1660
  686MOL0     H92589   5.083   1.354   6.765  1.2440 -0.1575 -0.9847
  686MOL0     H92590   4.878   1.278   6.879 -0.9894 -2.4165  1.7303
  686MOL0     H92591   4.991   1.359   7.001 -2.4104  0.0046  1.4018
  686MOL0     H92592   5.731   1.343   6.535 -0.1967  0.7108 -2.1325
  686MOL0     H92593   5.816   1.533   6.436 -2.0965 -1.5757 -0.1695
  686MOL0     H92594   6.068   1.778   6.224  0.2132  0.3453 -2.4405
  686MOL0     H92595   6.184   1.948   6.075  0.8676  0.3360 -2.0380
  686MOL0     H92596   7.901   2.089   5.019 -2.5894 -1.3125  0.7691
  686MOL0     H92597   8.152   2.048   5.006  1.7889 -2.8853  0.8117
  686MOL0     H92598   8.458   1.737   5.031  2.0992 -0.8502  0.9712
  686MOL0     H92599   8.678   1.603   5.007 -1.4284 -0.3907  1.1150
  686MOL0     H92600   8.819   1.553   4.590 -2.7142  1.6942  1.4511
  686MOL0     H92601   8.933   1.463   4.687  0.0186 -1.1923  0.2848
  686MOL0     H92602   8.733   1.334   4.604  3.1732  0.8301 -0.6949
  686MOL0     H92603   8.625   1.427   4.709 -0.4261  0.2644  0.7562
  686MOL0     H92604   8.789   1.362   4.906 -0.2729  0.1605 -0.4317
  686MOL0     H92605   8.853   1.237   4.805  0.2502  0.6026  0.2024
  686MOL0     H92606   8.554   1.258   4.855  1.1168  1.6551  1.9157
  686MOL0     H92607   8.674   1.159   4.942 -0.9430  0.6031 -0.2779
  686MOL0     H92608   8.686   0.984   4.555  0.0574  0.9782 -1.4618
  686MOL0     H92609   8.736   1.785   4.621 -0.8739  2.1708  0.0223
  686MOL0     H92610   8.540   1.909   4.640 -1.6602  2.3298  1.8366
  687MOL0     O92611   5.598   4.355   4.802  0.5162  0.6799  0.5410
  687MOL0     C92612   5.616   4.255   4.874  0.3885  0.6462 -0.1589
  687MOL0     O92613   5.516   4.173   4.932 -0.2448  0.0459  0.1516
  687MOL0     C92614   5.388   4.229   4.926  0.2801  0.2603 -0.0694
  687MOL0     C92615   5.277   4.172   4.863 -0.8909  0.8387 -0.0188
  687MOL0     C92616   5.157   4.224   4.840  0.4976 -1.3373  0.2141
  687MOL0     C92617   5.136   4.344   4.913 -0.8679 -0.5956  0.0350
  687MOL0     O92618   5.018   4.404   4.915 -0.0004  0.2250  0.0463
  687MOL0     C92619   4.895   4.326   4.894 -0.6524 -0.3303  0.3014
  687MOL0     C92620   4.778   4.399   4.953 -0.5445  0.3410  0.0247
  687MOL0     C92621   4.733   4.542   4.899 -0.4476 -0.3674  0.6275
  687MOL0     C92622   4.656   4.632   4.984  0.4459 -1.7018 -0.1083
  687MOL0     C92623   4.538   4.555   5.019 -0.3020 -0.4803  0.3915
  687MOL0     C92624   4.438   4.634   5.105 -1.1202 -0.8520 -0.0279
  687MOL0     C92625   4.348   4.694   4.998  0.8328  0.1521  0.0705
  687MOL0     C92626   4.224   4.769   5.062  0.4457  1.3939 -0.4280
  687MOL0     N92627   4.262   4.892   5.146  0.2106 -0.0606  0.2005
  687MOL0     C92628   4.219   5.015   5.108 -0.8924 -0.6418 -0.5935
  687MOL0     C92629   4.238   5.086   5.221 -0.1413 -0.0239  0.0656
  687MOL0     C92630   4.211   5.229   5.243  1.2300 -0.3207  0.2530
  687MOL0     C92631   4.327   5.324   5.224  0.2847 -0.6010  0.6663
  687MOL0     C92632   4.390   5.316   5.081 -0.0743 -0.2197 -0.3940
  687MOL0     C92633   4.544   5.337   5.084 -0.6576  0.9662 -0.5655
  687MOL0     O92634   4.564   5.459   5.146  0.6373  0.1644  0.7896
  687MOL0     C92635   4.678   5.534   5.115 -0.5609 -0.3872  0.1958
  687MOL0     C92636   4.784   5.501   5.022  0.0724 -0.5230 -0.2384
  687MOL0     C92637   4.880   5.598   4.993  0.1983 -0.9282 -0.4519
  687MOL0     C92638   4.979   5.567   4.881  0.5965 -0.0591 -0.2849
  687MOL0     C92639   4.886   5.716   5.076  0.4340 -0.7758 -0.7808
  687MOL0     C92640   5.000   5.822   5.060  0.3056  0.7460 -0.2404
  687MOL0     O92641   5.010   5.903   5.175 -0.1048 -0.4424  0.2570
  687MOL0     C92642   5.088   6.013   5.187 -0.2637 -0.6813 -0.8614
  687MOL0     C92643   5.039   6.105   5.282 -0.2200  1.1057 -0.1549
  687MOL0     C92644   5.109   6.220   5.297  0.6106  1.0374 -0.5537
  687MOL0     C92645   5.219   6.261   5.237  0.1934 -0.5177  0.9650
  687MOL0     O92646   5.280   6.378   5.280  0.0254 -0.5718  0.8231
  687MOL0     C92647   5.400   6.426   5.219 -0.3532  0.2976  0.6104
  687MOL0     C92648   5.453   6.557   5.248 -0.8074 -0.1166 -0.1458
  687MOL0     C92649   5.510   6.548   5.394 -0.3712 -0.5778 -0.0659
  687MOL0     C92650   5.516   6.700   5.444 -0.0422  0.0423  0.4721
  687MOL0     C92651   5.569   6.702   5.587 -0.0535 -0.5216 -0.5438
  687MOL0     C92652   5.586   6.847   5.623 -0.0732  0.3176  0.1889
  687MOL0     C92653   5.622   6.847   5.770 -0.5897 -1.0746 -0.0368
  687MOL0     C92654   5.658   6.982   5.830  0.6852  1.1694  0.4635
  687MOL0    Cl92655   5.503   7.053   5.890 -0.6096 -0.9335 -0.0098
  687MOL0     C92656   5.269   6.175   5.136  0.7406 -1.2674 -0.9115
  687MOL0     C92657   5.196   6.056   5.110 -0.6048  0.3186  0.0070
  687MOL0     O92658   5.067   5.827   4.961 -0.1516 -0.6450 -0.1087
  687MOL0     C92659   4.782   5.742   5.167  1.4768 -0.0184 -0.2360
  687MOL0     C92660   4.686   5.648   5.190 -0.7831  0.2460  0.0439
  687MOL0     N92661   4.292   5.001   5.316 -0.3810 -0.3568 -0.7880
  687MOL0     N92662   4.305   4.883   5.271 -0.0860  0.6656 -0.1578
  687MOL0     C92663   5.237   4.398   4.992 -0.0845 -0.9492 -1.4919
  687MOL0     C92664   5.360   4.342   5.001 -0.1936 -0.5262  0.2110
  687MOL0     C92665   5.754   4.221   4.901  0.7075  0.9769 -0.7343
  687MOL0     C92666   5.860   4.293   4.845 -0.5077 -0.7654  0.0916
  687MOL0     C92667   5.995   4.268   4.855 -0.2187 -0.1972 -0.3242
  687MOL0     C92668   6.034   4.154   4.928  0.3814  0.8388  0.2808
  687MOL0     O92669   6.167   4.128   4.938  0.0579  0.1816  0.2859
  687MOL0     C92670   6.225   4.019   5.008 -0.3616  0.3198  0.0036
  687MOL0     C92671   6.375   4.025   4.961  0.4258  0.9455 -1.0322
  687MOL0     C92672   6.445   3.897   5.021 -0.4207  1.0633 -0.6562
  687MOL0     C92673   6.552   3.941   5.121  0.5215 -0.2739 -0.5063
  687MOL0     C92674   6.603   3.828   5.188  0.6383 -0.4383  0.7351
  687MOL0     C92675   6.652   3.741   5.259 -0.4651  0.5761 -0.4635
  687MOL0     C92676   5.927   4.076   4.986 -0.5201 -0.7693 -0.1927
  687MOL0     C92677   5.790   4.111   4.975 -0.7011 -0.3303 -0.0196
  687MOL0     H92678   5.282   4.067   4.835  0.4803  1.3332 -1.7987
  687MOL0     H92679   5.085   4.170   4.779 -0.2030 -0.8682  0.6186
  687MOL0     H92680   4.865   4.305   4.791 -1.6022  1.5432  0.1489
  687MOL0     H92681   4.908   4.234   4.952 -1.1610 -1.2719 -1.0341
  687MOL0     H92682   4.698   4.324   4.958  0.8573 -1.1577  1.8920
  687MOL0     H92683   4.806   4.424   5.056  1.4340 -0.2071 -0.3334
  687MOL0     H92684   4.825   4.599   4.884 -0.5499 -0.0183  1.2804
  687MOL0     H92685   4.683   4.528   4.803  2.4100 -0.7345 -0.9111
  687MOL0     H92686   4.709   4.657   5.076 -0.8185  1.3394 -0.0818
  687MOL0     H92687   4.630   4.720   4.924 -3.2339 -3.6486 -1.7096
  687MOL0     H92688   4.485   4.535   4.925 -3.0572  0.0143  1.7408
  687MOL0     H92689   4.563   4.463   5.073  2.1578 -2.2765 -3.3929
  687MOL0     H92690   4.384   4.577   5.181 -0.8247 -0.2936  0.6063
  687MOL0     H92691   4.485   4.719   5.156  0.4207 -0.7226 -1.5705
  687MOL0     H92692   4.396   4.769   4.933  1.6962 -0.1089  0.3876
  687MOL0     H92693   4.309   4.611   4.940  2.7440 -1.8049  1.4126
  687MOL0     H92694   4.173   4.689   5.116  1.1340  1.4188  0.2806
  687MOL0     H92695   4.165   4.812   4.980 -1.6196  1.4533  1.0149
  687MOL0     H92696   4.196   5.054   5.009  1.1263 -1.1703 -1.3252
  687MOL0     H92697   4.133   5.245   5.169  1.7743 -1.9216 -0.7096
  687MOL0     H92698   4.172   5.253   5.343 -1.0196 -0.7612 -0.4779
  687MOL0     H92699   4.404   5.308   5.300 -2.1570  0.2669  3.5211
  687MOL0     H92700   4.287   5.425   5.242 -1.9241 -1.4807  1.0330
  687MOL0     H92701   4.346   5.398   5.022  0.8808  1.3243  0.9642
  687MOL0     H92702   4.364   5.223   5.031  1.6565 -1.3754  0.7551
  687MOL0     H92703   4.581   5.336   4.982 -0.3505  3.6347 -0.5293
  687MOL0     H92704   4.590   5.254   5.141 -1.3984 -1.1340 -2.8519
  687MOL0     H92705   4.799   5.417   4.955 -0.9173 -0.1193 -0.9922
  687MOL0     H92706   5.078   5.537   4.917  1.3809  0.4167 -1.9669
  687MOL0     H92707   4.931   5.484   4.828 -3.2753  0.5819  1.8040
  687MOL0     H92708   4.999   5.650   4.813  0.1829 -1.9164 -2.8121
  687MOL0     H92709   4.947   6.081   5.334  1.4998  0.5578  2.8294
  687MOL0     H92710   5.075   6.296   5.368 -2.5789  1.5752 -2.4469
  687MOL0     H92711   5.474   6.350   5.244 -1.5640 -0.2168  2.8977
  687MOL0     H92712   5.379   6.416   5.112 -1.2895  0.1726  0.8004
  687MOL0     H92713   5.542   6.585   5.191  0.1497  0.5785  1.6183
  687MOL0     H92714   5.378   6.634   5.227 -1.5560 -0.3400  1.5655
  687MOL0     H92715   5.610   6.505   5.405  1.0005  2.9237  3.0828
  687MOL0     H92716   5.447   6.491   5.463  1.6793 -1.2713  1.3326
  687MOL0     H92717   5.591   6.754   5.386 -1.3086 -2.8735 -4.5312
  687MOL0     H92718   5.421   6.753   5.429 -0.7178 -0.9552  1.1261
  687MOL0     H92719   5.662   6.646   5.605  0.8347  0.9407 -0.4269
  687MOL0     H92720   5.492   6.660   5.652 -0.1768  1.5236  0.7314
  687MOL0     H92721   5.669   6.890   5.566 -0.8135 -2.4612 -3.3609
  687MOL0     H92722   5.493   6.902   5.607  1.1618  1.8193 -2.6504
  687MOL0     H92723   5.715   6.791   5.785 -1.6571 -2.7527  0.5032
  687MOL0     H92724   5.541   6.804   5.828 -0.0751  3.0022  4.3026
  687MOL0     H92725   5.721   7.046   5.768  0.5362 -0.2132 -1.1845
  687MOL0     H92726   5.720   6.962   5.918  1.2850  1.2300  0.0577
  687MOL0     H92727   5.359   6.191   5.077 -0.4316 -1.4435 -2.8339
  687MOL0     H92728   5.241   5.986   5.040 -1.6219 -0.6706  0.3032
  687MOL0     H92729   4.769   5.823   5.238 -0.0507 -1.8978  1.7547
  687MOL0     H92730   4.605   5.665   5.260  0.1760  0.5012  1.1295
  687MOL0     H92731   5.207   4.493   5.035  0.5174 -0.5206 -2.0002
  687MOL0     H92732   5.442   4.393   5.051  0.8571  0.8160 -2.6328
  687MOL0     H92733   5.829   4.384   4.795 -2.9531 -1.7564 -0.3128
  687MOL0     H92734   6.066   4.341   4.816  0.0414  0.3087  1.0492
  687MOL0     H92735   6.210   4.027   5.116  1.4895 -1.2768  0.4319
  687MOL0     H92736   6.186   3.919   4.985  0.8165 -0.3104  0.6398
  687MOL0     H92737   6.420   4.120   4.993 -2.0772  1.2276  2.1800
  687MOL0     H92738   6.381   4.028   4.852  2.9024 -1.2803 -1.0604
  687MOL0     H92739   6.492   3.840   4.941  3.7510  1.6853  1.0950
  687MOL0     H92740   6.373   3.828   5.069 -1.0651  0.7137 -2.0731
  687MOL0     H92741   6.513   4.004   5.202  0.4282 -0.3323 -0.5056
  687MOL0     H92742   6.627   4.000   5.069 -0.7106  0.6803 -1.2570
  687MOL0     H92743   6.687   3.672   5.333 -0.6565 -1.2639 -2.0277
  687MOL0     H92744   5.953   3.988   5.043 -1.0373 -0.3353  0.7311
  687MOL0     H92745   5.719   4.043   5.020 -1.8044  1.5002  1.1465
  688MOL0     O92746   7.519  10.754   9.433 -0.3687 -1.3472 -0.4176
  688MOL0     C92747   7.487  10.750   9.316 -0.5356  0.7244 -0.7736
  688MOL0     O92748   7.479  10.854   9.227  0.4828  0.1388 -0.2415
  688MOL0     C92749   7.448  10.984   9.269  0.8059  0.8106 -0.7882
  688MOL0     C92750   7.412  11.069   9.170  0.9227  0.5383 -0.1972
  688MOL0     C92751   7.397  11.207   9.198 -0.6135  0.0479  0.4106
  688MOL0     C92752   7.410  11.265   9.329 -0.4471  0.5811  0.0939
  688MOL0     O92753   7.412  11.401   9.371 -0.5364  0.0034 -0.3574
  688MOL0     C92754   7.467  11.510   9.290 -0.7454 -0.6448 -0.1029
  688MOL0     C92755   7.478  11.641   9.370 -0.6181 -0.1360 -0.2869
  688MOL0     C92756   7.544  11.740   9.286 -1.3913 -0.3249  1.5036
  688MOL0     C92757   7.436  11.832   9.214 -0.4461 -0.3049  0.3380
  688MOL0     C92758   7.508  11.930   9.130 -1.1758 -0.3073  1.3045
  688MOL0     C92759   7.421  11.968   9.004 -0.2030 -0.3040  0.8035
  688MOL0     C92760   7.481  12.089   8.927  0.8183  0.0461  0.2676
  688MOL0     C92761   7.605  12.045   8.843  0.1105  0.2684  0.3248
  688MOL0     N92762   7.641  12.159   8.759 -1.0183 -0.1300  0.4535
  688MOL0     C92763   7.714  12.269   8.813 -1.0226 -0.2351 -0.7669
  688MOL0     C92764   7.769  12.338   8.706  0.3797  0.2083  0.9573
  688MOL0     C92765   7.857  12.461   8.713 -0.3216  0.0849 -0.6388
  688MOL0     C92766   8.007  12.418   8.712  0.0201 -0.2666 -0.1229
  688MOL0     C92767   8.052  12.378   8.569  0.9871  0.7743  1.4109
  688MOL0     C92768   8.197  12.325   8.561 -0.3471 -0.1226  0.3927
  688MOL0     O92769   8.264  12.401   8.654  0.0363  0.1371  0.6194
  688MOL0     C92770   8.349  12.502   8.607 -0.0426 -0.2246  0.2014
  688MOL0     C92771   8.378  12.605   8.689 -0.6645 -1.0172 -0.2928
  688MOL0     C92772   8.470  12.710   8.656 -0.1721  0.0741 -0.2134
  688MOL0     C92773   8.519  12.808   8.767  0.4595  0.1632  0.9410
  688MOL0     C92774   8.520  12.720   8.529 -0.8590  0.0021 -0.7047
  688MOL0     C92775   8.610  12.825   8.487  0.2198  0.2841 -0.2308
  688MOL0     O92776   8.721  12.777   8.426  0.0165  0.5215 -0.0417
  688MOL0     C92777   8.784  12.859   8.341  0.8202 -0.1662 -0.1761
  688MOL0     C92778   8.795  12.820   8.214  0.1362 -0.1721  0.6920
  688MOL0     C92779   8.854  12.899   8.111 -0.2691  0.5759 -0.4019
  688MOL0     C92780   8.923  13.015   8.143  0.3635  0.4957  0.4749
  688MOL0     O92781   9.002  13.072   8.039  0.2265 -0.6890 -0.1542
  688MOL0     C92782   9.117  12.990   8.000  0.5347  0.5080 -0.4424
  688MOL0     C92783   9.222  13.091   7.964 -0.6991  0.2357  0.2698
  688MOL0     C92784   9.352  13.029   7.927  0.1568 -0.1720  0.3339
  688MOL0     C92785   9.346  12.977   7.772 -0.0783 -0.3591 -1.1011
  688MOL0     C92786   9.483  12.973   7.699  0.2580  0.1696  0.2160
  688MOL0     C92787   9.605  12.909   7.763  0.0718 -1.2496  0.3401
  688MOL0     C92788   9.569  12.774   7.823 -0.5350 -0.6040 -0.3163
  688MOL0     C92789   9.675  12.744   7.950  0.0339 -0.9227  0.1786
  688MOL0    Cl92790   9.845  12.770   7.920 -0.2010 -0.1002 -0.2117
  688MOL0     C92791   8.927  13.053   8.278 -0.3393  0.0497  0.1522
  688MOL0     C92792   8.847  12.982   8.369 -0.0738 -0.2179  0.7277
  688MOL0     O92793   8.572  12.938   8.486 -0.1182 -0.7348 -0.5503
  688MOL0     C92794   8.483  12.623   8.437  0.6822  0.4302 -0.8450
  688MOL0     C92795   8.407  12.509   8.479  0.2695 -0.0906 -0.9153
  688MOL0     N92796   7.732  12.270   8.593 -0.0663 -0.0101 -0.5931
  688MOL0     N92797   7.672  12.158   8.621  0.2093 -0.3830  0.1950
  688MOL0     C92798   7.433  11.175   9.433  0.2490  0.1560  0.8665
  688MOL0     C92799   7.436  11.034   9.403 -2.1838  0.1916  0.4723
  688MOL0     C92800   7.487  10.611   9.265 -0.3794 -0.4204 -0.6380
  688MOL0     C92801   7.459  10.596   9.129  0.6584 -0.1314  0.1026
  688MOL0     C92802   7.460  10.469   9.064  0.0436  0.1884  0.1266
  688MOL0     C92803   7.474  10.357   9.141 -1.0714  0.6787  0.1185
  688MOL0     O92804   7.482  10.231   9.076  0.3094  0.1963  0.0476
  688MOL0     C92805   7.540  10.105   9.122 -0.7872  0.9039 -0.5255
  688MOL0     C92806   7.695  10.104   9.118  1.4370  0.2125  0.1896
  688MOL0     C92807   7.755   9.985   9.204  0.3517  0.0887  0.0628
  688MOL0     C92808   7.702   9.972   9.353 -0.2932  0.0620 -0.1175
  688MOL0     C92809   7.730  10.084   9.431  0.2154 -0.7739  0.6092
  688MOL0     C92810   7.767  10.182   9.492 -0.8295  0.1913  0.1366
  688MOL0     C92811   7.502  10.368   9.279 -0.3385  0.0337 -0.1976
  688MOL0     C92812   7.495  10.493   9.341 -0.1730  1.2009 -0.1635
  688MOL0     H92813   7.395  11.029   9.070  0.5891  0.1112  0.0280
  688MOL0     H92814   7.348  11.262   9.118  0.8845 -0.4977 -0.9268
  688MOL0     H92815   7.570  11.487   9.260  0.4243 -0.5844  3.3898
  688MOL0     H92816   7.407  11.513   9.199 -0.5016 -0.5536 -0.2637
  688MOL0     H92817   7.379  11.672   9.405 -0.7579 -3.0730  2.3099
  688MOL0     H92818   7.543  11.619   9.455 -1.4402 -0.2869  0.3152
  688MOL0     H92819   7.608  11.799   9.352 -2.2986  3.4985 -0.7482
  688MOL0     H92820   7.605  11.688   9.211 -2.9828 -3.3193  2.1150
  688MOL0     H92821   7.371  11.765   9.156 -2.5348  2.6255 -0.9317
  688MOL0     H92822   7.381  11.867   9.302  2.1596 -2.9148  3.2616
  688MOL0     H92823   7.534  12.015   9.193  3.1282  0.9396 -1.7132
  688MOL0     H92824   7.598  11.880   9.094 -2.7055 -1.6429 -0.8905
  688MOL0     H92825   7.396  11.885   8.936  0.8636 -0.1829  0.2412
  688MOL0     H92826   7.332  12.019   9.043 -0.2794  0.6127 -0.4949
  688MOL0     H92827   7.406  12.129   8.859  1.4803 -0.9347 -1.1089
  688MOL0     H92828   7.507  12.167   8.998  1.9161 -1.1650  1.2588
  688MOL0     H92829   7.585  11.959   8.777  1.4668 -0.5468  0.9440
  688MOL0     H92830   7.686  12.022   8.913  1.8439  0.4168 -1.5421
  688MOL0     H92831   7.724  12.284   8.920 -1.6033 -0.8816 -0.6127
  688MOL0     H92832   7.821  12.535   8.643 -2.2571  1.2637  1.4740
  688MOL0     H92833   7.836  12.510   8.809  1.0914  1.5311 -1.0177
  688MOL0     H92834   8.032  12.329   8.771  0.5024 -0.5934 -0.7967
  688MOL0     H92835   8.061  12.506   8.748  0.5218  0.2210 -1.9623
  688MOL0     H92836   8.052  12.465   8.503 -0.3611 -1.4675 -1.8474
  688MOL0     H92837   7.985  12.300   8.532  0.4203  0.8445  2.2566
  688MOL0     H92838   8.233  12.334   8.458 -3.4107  2.7485 -0.5965
  688MOL0     H92839   8.197  12.220   8.594 -2.1634  0.4816  2.5096
  688MOL0     H92840   8.327  12.621   8.783 -0.0556 -0.4859 -0.0457
  688MOL0     H92841   8.505  12.766   8.867 -0.8937  0.5910  0.9557
  688MOL0     H92842   8.622  12.843   8.766  0.5826 -0.1768  1.4368
  688MOL0     H92843   8.455  12.896   8.761  3.1045  2.0799 -1.5058
  688MOL0     H92844   8.742  12.727   8.199  2.4045 -1.1389 -2.3469
  688MOL0     H92845   8.858  12.845   8.017 -1.7718 -1.8112  0.8211
  688MOL0     H92846   9.152  12.941   8.090  0.8758 -2.3265 -2.0062
  688MOL0     H92847   9.093  12.937   7.907  0.0363  2.4579 -1.5069
  688MOL0     H92848   9.182  13.151   7.882  3.7686  3.2889 -0.0009
  688MOL0     H92849   9.243  13.158   8.048  4.3859 -0.3150 -0.2519
  688MOL0     H92850   9.373  12.937   7.983  0.4918 -0.6678 -0.5818
  688MOL0     H92851   9.428  13.106   7.939 -1.5677  1.3038  2.5919
  688MOL0     H92852   9.303  12.876   7.772  0.1097 -0.4400 -0.6817
  688MOL0     H92853   9.277  13.036   7.712 -2.6480 -0.4115  1.5704
  688MOL0     H92854   9.515  13.077   7.689  0.1862  0.2590  0.8784
  688MOL0     H92855   9.467  12.925   7.602 -0.8527  1.0555 -0.0706
  688MOL0     H92856   9.685  12.896   7.689  1.7883  1.4607  1.5572
  688MOL0     H92857   9.650  12.978   7.836 -0.3693  2.1938 -2.3900
  688MOL0     H92858   9.587  12.709   7.737 -0.5720  1.3567 -1.8710
  688MOL0     H92859   9.464  12.765   7.852 -0.2006  0.9472  1.6116
  688MOL0     H92860   9.653  12.642   7.982 -0.5725 -0.7509  0.3418
  688MOL0     H92861   9.629  12.808   8.026 -1.2451 -0.9687 -0.5181
  688MOL0     H92862   8.993  13.137   8.294  0.7544 -0.9451  0.9961
  688MOL0     H92863   8.845  13.021   8.470 -0.4135 -0.0411  0.6525
  688MOL0     H92864   8.509  12.638   8.333  1.1468 -0.1357 -0.8145
  688MOL0     H92865   8.401  12.420   8.418  1.2199 -0.7849 -0.0141
  688MOL0     H92866   7.450  11.214   9.533 -2.7507  0.8444  1.2002
  688MOL0     H92867   7.442  10.968   9.489  2.2018 -0.5220 -0.1510
  688MOL0     H92868   7.424  10.675   9.064 -1.8416 -1.2945 -0.0666
  688MOL0     H92869   7.427  10.456   8.961  1.6792  2.0511 -0.6917
  688MOL0     H92870   7.502  10.076   9.221 -0.1704 -0.8012 -0.7567
  688MOL0     H92871   7.497  10.024   9.064 -0.5658 -0.8526  1.6272
  688MOL0     H92872   7.733  10.206   9.135  1.1194  0.3209  0.2487
  688MOL0     H92873   7.735  10.082   9.018  1.5379 -3.0860  0.8624
  688MOL0     H92874   7.863  10.004   9.203  0.4538 -0.0560  2.4416
  688MOL0     H92875   7.739   9.895   9.145  0.8541  0.8007 -1.2017
  688MOL0     H92876   7.753   9.885   9.396 -0.5801 -0.5252 -0.9307
  688MOL0     H92877   7.595   9.955   9.361 -0.3256  1.0994  2.3157
  688MOL0     H92878   7.794  10.258   9.562  1.5735  0.2201 -0.7479
  688MOL0     H92879   7.509  10.269   9.322 -0.8792 -0.5451 -1.4076
  688MOL0     H92880   7.510  10.499   9.448 -1.5162 -0.7072  0.1687
  689MOL0     O92881   6.685   5.307   0.193  0.8201  0.1240  0.6794
  689MOL0     C92882   6.682   5.419   0.151  0.1314  0.1017  0.2036
  689MOL0     O92883   6.617   5.462   0.032  0.3572 -0.1419  0.2159
  689MOL0     C92884   6.573   5.355  -0.043 -0.2523  0.0540  0.4219
  689MOL0     C92885   6.442   5.334  -0.071 -0.0445  0.7581 -0.2491
  689MOL0     C92886   6.395   5.249  -0.169 -0.3580  0.3561  0.6372
  689MOL0     C92887   6.491   5.173  -0.236  0.3550  0.6539  0.4176
  689MOL0     O92888   6.448   5.072  -0.321  1.1612 -0.2037 -0.6759
  689MOL0     C92889   6.508   4.954  -0.331 -0.5245 -0.5492 -0.6262
  689MOL0     C92890   6.459   4.877  -0.454 -0.9041 -0.3411 -0.3241
  689MOL0     C92891   6.304   4.862  -0.473 -0.3813 -0.2863 -0.4767
  689MOL0     C92892   6.217   4.800  -0.360  0.2795 -1.0736  0.0377
  689MOL0     C92893   6.068   4.859  -0.380  0.3500  0.6000  0.6445
  689MOL0     C92894   5.957   4.766  -0.318 -1.0537 -1.2028  0.8873
  689MOL0     C92895   5.811   4.829  -0.361  0.4501 -0.1018 -1.3230
  689MOL0     C92896   5.701   4.728  -0.357  0.2180  0.0115 -0.6513
  689MOL0     N92897   5.680   4.691  -0.213 -0.0399 -0.5775 -0.3381
  689MOL0     C92898   5.637   4.777  -0.120 -0.5715  0.1886  0.1242
  689MOL0     C92899   5.649   4.695  -0.016 -0.8253  0.9638  0.4507
  689MOL0     C92900   5.599   4.735   0.126  0.2939  0.1287  0.2569
  689MOL0     C92901   5.486   4.839   0.144  0.5389  0.2382  0.3446
  689MOL0     C92902   5.456   4.867   0.290 -0.1102 -0.0792 -0.0264
  689MOL0     C92903   5.333   4.958   0.303  0.5154  0.5204 -0.3494
  689MOL0     O92904   5.278   4.957   0.435 -0.2739  0.0675  0.1826
  689MOL0     C92905   5.200   4.849   0.475  0.6863 -0.0758  0.3552
  689MOL0     C92906   5.162   4.744   0.396  0.2874 -0.3325  1.1933
  689MOL0     C92907   5.059   4.661   0.429  0.6741 -0.1673 -0.2089
  689MOL0     C92908   5.000   4.570   0.319  1.0513  0.2137 -0.3505
  689MOL0     C92909   5.011   4.657   0.559  0.7318 -0.0322 -0.3155
  689MOL0     C92910   4.916   4.565   0.607 -0.1162 -0.8918 -0.0877
  689MOL0     O92911   4.933   4.437   0.573 -0.5134 -0.2129  0.0486
  689MOL0     C92912   4.852   4.336   0.605 -0.1943  0.2210  0.2946
  689MOL0     C92913   4.761   4.329   0.715 -0.9119  0.2907 -0.6772
  689MOL0     C92914   4.672   4.223   0.716 -0.8287 -0.0815 -0.0808
  689MOL0     C92915   4.667   4.125   0.623 -0.3503 -0.4438 -0.4244
  689MOL0     O92916   4.571   4.035   0.641 -0.1834  0.9511  1.0015
  689MOL0     C92917   4.439   4.074   0.596  0.5518 -0.1126 -0.1625
  689MOL0     C92918   4.340   4.016   0.699  1.2784  0.2729  0.3162
  689MOL0     C92919   4.318   4.085   0.840  0.3718  0.0151  0.5457
  689MOL0     C92920   4.306   4.235   0.828 -0.2205 -0.1374  0.5846
  689MOL0     C92921   4.226   4.293   0.941  0.3954 -1.4064 -0.4181
  689MOL0     C92922   4.231   4.450   0.949  0.7931 -0.0961 -1.2885
  689MOL0     C92923   4.208   4.505   1.089 -0.3812 -0.3899 -0.2847
  689MOL0     C92924   4.310   4.477   1.201  0.7281 -0.1373 -0.2187
  689MOL0    Cl92925   4.473   4.527   1.161 -0.2438  0.4306  0.1849
  689MOL0     C92926   4.752   4.134   0.513  0.3697 -0.0726  0.3098
  689MOL0     C92927   4.847   4.234   0.506 -0.3300  0.3415 -0.1824
  689MOL0     O92928   4.822   4.609   0.673  0.0790  0.1290  0.8089
  689MOL0     C92929   5.042   4.773   0.641  0.8519 -0.1564  0.4553
  689MOL0     C92930   5.140   4.863   0.595  0.4220  0.4390 -0.0644
  689MOL0     N92931   5.695   4.568  -0.046  0.1326 -0.0891 -0.4385
  689MOL0     N92932   5.706   4.566  -0.174 -0.3385  0.2529 -0.3681
  689MOL0     C92933   6.628   5.197  -0.213  0.9801 -0.7929 -0.1527
  689MOL0     C92934   6.663   5.290  -0.118 -0.7402  0.5021  0.0393
  689MOL0     C92935   6.769   5.525   0.205  0.0830  0.4383 -0.8369
  689MOL0     C92936   6.847   5.496   0.319  0.4612 -0.1030  0.5612
  689MOL0     C92937   6.931   5.587   0.371 -0.1375 -0.3450  0.1882
  689MOL0     C92938   6.938   5.719   0.308 -0.9793 -0.5563  0.4848
  689MOL0     O92939   7.024   5.819   0.350  1.0368  0.2637  0.5086
  689MOL0     C92940   7.118   5.808   0.454  0.3684  0.3005  0.8484
  689MOL0     C92941   7.164   5.949   0.494 -0.6016  0.0931  0.5073
  689MOL0     C92942   7.073   6.055   0.552  0.5893 -0.4174  0.9696
  689MOL0     C92943   6.981   5.999   0.664  0.2681 -0.2859  0.4969
  689MOL0     C92944   6.898   6.114   0.719  0.0543  0.1316  0.3679
  689MOL0     C92945   6.824   6.192   0.769 -0.3061 -0.4672  0.7256
  689MOL0     C92946   6.847   5.763   0.216  0.2483 -0.3564  0.4265
  689MOL0     C92947   6.762   5.664   0.161  0.1227  0.1600  0.1576
  689MOL0     H92948   6.371   5.398  -0.020 -1.4891 -1.9619  1.4275
  689MOL0     H92949   6.288   5.243  -0.186 -0.4461  0.3285  1.1620
  689MOL0     H92950   6.615   4.971  -0.340 -0.1577 -1.0687  2.0253
  689MOL0     H92951   6.485   4.899  -0.239  0.7853 -1.2353 -0.6874
  689MOL0     H92952   6.515   4.905  -0.544 -1.2569  2.4311  0.2381
  689MOL0     H92953   6.506   4.778  -0.448  1.6775  0.8416  0.0445
  689MOL0     H92954   6.275   4.964  -0.499  2.2515  1.2285  1.9777
  689MOL0     H92955   6.281   4.796  -0.558 -1.3859 -0.0608 -0.3860
  689MOL0     H92956   6.204   4.692  -0.373 -0.2045 -0.8241 -1.8793
  689MOL0     H92957   6.248   4.826  -0.258 -0.6261 -1.9825  0.5589
  689MOL0     H92958   6.049   4.952  -0.327 -0.2494  0.0047  1.4945
  689MOL0     H92959   6.043   4.880  -0.485  4.1992 -1.2313 -0.8546
  689MOL0     H92960   5.961   4.666  -0.361 -1.0223 -0.2184 -1.5607
  689MOL0     H92961   5.980   4.756  -0.212  2.0209 -0.9430  0.3277
  689MOL0     H92962   5.807   4.911  -0.288  1.7622 -0.8803 -0.3268
  689MOL0     H92963   5.803   4.865  -0.463  0.6822  2.4718 -0.4984
  689MOL0     H92964   5.727   4.636  -0.409  0.7936 -0.7226  0.8689
  689MOL0     H92965   5.608   4.777  -0.389 -0.8627 -0.9898  0.8429
  689MOL0     H92966   5.603   4.880  -0.125  1.7537  1.0727  0.9336
  689MOL0     H92967   5.575   4.637   0.169  1.9350 -0.8062 -0.8372
  689MOL0     H92968   5.692   4.776   0.167  1.3887  1.1505 -2.9918
  689MOL0     H92969   5.396   4.797   0.097 -0.0299  0.8660  0.8525
  689MOL0     H92970   5.508   4.934   0.094  1.8977  0.1592  0.7492
  689MOL0     H92971   5.542   4.925   0.322  0.5711  1.4863 -4.0512
  689MOL0     H92972   5.446   4.779   0.355 -1.2707 -1.8718 -2.4513
  689MOL0     H92973   5.250   4.935   0.236 -1.5092  1.4118  1.7249
  689MOL0     H92974   5.361   5.062   0.285 -0.0185  1.4373  3.2115
  689MOL0     H92975   5.220   4.723   0.306  1.8404 -1.2350  2.3465
  689MOL0     H92976   5.029   4.587   0.215 -2.7303 -0.4677 -1.6442
  689MOL0     H92977   5.030   4.466   0.336  0.7253  0.0773 -0.6053
  689MOL0     H92978   4.892   4.574   0.331  1.1290  0.5220  0.2931
  689MOL0     H92979   4.774   4.404   0.791 -1.0485  0.3348 -0.6963
  689MOL0     H92980   4.609   4.221   0.804 -0.4261  1.9062  0.3044
  689MOL0     H92981   4.426   4.182   0.610  1.5969 -0.3861  4.2829
  689MOL0     H92982   4.429   4.043   0.492 -3.8873  1.2032 -0.3415
  689MOL0     H92983   4.240   4.021   0.653  0.5846  1.7049  1.8533
  689MOL0     H92984   4.381   3.918   0.720  0.1453 -0.2861  0.0347
  689MOL0     H92985   4.394   4.048   0.909  1.3604  1.2532  0.1630
  689MOL0     H92986   4.222   4.049   0.879  0.9072 -2.2523 -0.1094
  689MOL0     H92987   4.409   4.271   0.835 -0.2631  0.9157 -2.5191
  689MOL0     H92988   4.250   4.255   0.736 -2.1551  1.6614  2.0556
  689MOL0     H92989   4.266   4.249   1.033  1.0094 -0.4399 -0.2108
  689MOL0     H92990   4.124   4.255   0.929  0.2458 -1.6404  1.3762
  689MOL0     H92991   4.326   4.486   0.909 -0.0460  1.7971 -1.6688
  689MOL0     H92992   4.149   4.480   0.883  0.7879 -1.9292 -2.1673
  689MOL0     H92993   4.108   4.477   1.125  0.1811 -0.7767  1.0550
  689MOL0     H92994   4.211   4.613   1.074 -4.8430 -0.1809 -1.1889
  689MOL0     H92995   4.300   4.371   1.229 -2.9771  0.2026  0.3322
  689MOL0     H92996   4.271   4.543   1.279  1.7145 -1.7311  1.7139
  689MOL0     H92997   4.733   4.063   0.433  2.2248 -0.9095  0.5630
  689MOL0     H92998   4.919   4.244   0.426  2.8173  1.2904  2.5628
  689MOL0     H92999   5.013   4.781   0.746  0.9378  1.2887  0.3980
  689MOL0     H93000   5.179   4.946   0.651  1.4732  0.1737 -0.3847
  689MOL0     H93001   6.704   5.136  -0.262  2.3373  0.9177 -0.2537
  689MOL0     H93002   6.769   5.304  -0.101 -0.5317 -3.2539  3.4293
  689MOL0     H93003   6.842   5.396   0.361 -0.1282 -0.0031  0.7379
  689MOL0     H93004   6.989   5.562   0.460  0.9105  0.8875 -0.1174
  689MOL0     H93005   7.061   5.766   0.538  2.4750 -3.4004  0.6367
  689MOL0     H93006   7.198   5.741   0.422  1.6236  1.9864  0.3130
  689MOL0     H93007   7.191   5.995   0.399  0.8804  2.0482  1.8055
  689MOL0     H93008   7.247   5.928   0.563 -2.7749 -3.2496  2.3712
  689MOL0     H93009   7.013   6.098   0.471 -4.6313 -4.1977  2.2678
  689MOL0     H93010   7.148   6.126   0.586 -0.7673  2.3024 -1.2941
  689MOL0     H93011   7.036   5.946   0.742  1.1047 -0.8259 -0.4460
  689MOL0     H93012   6.909   5.933   0.616 -0.2777  1.5199 -1.3155
  689MOL0     H93013   6.762   6.271   0.808  0.1031  0.6008 -0.7060
  689MOL0     H93014   6.834   5.870   0.210  0.1670 -0.1355  3.1705
  689MOL0     H93015   6.706   5.681   0.070  1.3039  0.8362 -0.4640
  690MOL0     O93016   2.242   7.272   4.724  0.5363 -0.7330 -0.0573
  690MOL0     C93017   2.247   7.354   4.819  0.4971  0.0658 -0.0970
  690MOL0     O93018   2.169   7.453   4.835 -0.3092 -0.8176  0.8181
  690MOL0     C93019   2.092   7.507   4.732 -0.4445 -0.4650 -0.9376
  690MOL0     C93020   2.118   7.515   4.593  0.9854 -0.3589 -0.1021
  690MOL0     C93021   2.039   7.587   4.514 -0.3681 -1.0802 -0.1339
  690MOL0     C93022   1.918   7.640   4.558  0.6436 -0.1121  0.0686
  690MOL0     O93023   1.836   7.709   4.473 -0.1955  0.0073 -0.1161
  690MOL0     C93024   1.747   7.617   4.406 -0.1947  0.8045 -0.8577
  690MOL0     C93025   1.727   7.639   4.261 -0.1162 -0.0372  0.4101
  690MOL0     C93026   1.612   7.542   4.223  0.4283 -0.1800  0.8541
  690MOL0     C93027   1.569   7.556   4.069 -1.0320 -0.3261 -0.0429
  690MOL0     C93028   1.506   7.697   4.030  0.1260  0.7028  0.2732
  690MOL0     C93029   1.462   7.697   3.891  0.0181  0.2809  0.4062
  690MOL0     C93030   1.389   7.836   3.872 -0.3117 -0.2090  0.0164
  690MOL0     C93031   1.265   7.822   3.792 -0.2475  2.2466  0.1172
  690MOL0     N93032   1.145   7.758   3.874  0.7532  0.2270  0.4831
  690MOL0     C93033   1.123   7.626   3.905  0.0913  0.1839 -0.1447
  690MOL0     C93034   1.013   7.635   3.980  0.1769  1.6561 -0.1422
  690MOL0     C93035   0.943   7.509   4.024 -0.2175  0.0315 -0.1160
  690MOL0     C93036   0.833   7.461   3.930  0.3193 -0.2335 -0.8981
  690MOL0     C93037   0.750   7.358   4.007 -0.2297  0.1762  0.2178
  690MOL0     C93038   0.642   7.295   3.920 -0.4429  0.2727 -0.5845
  690MOL0     O93039   0.576   7.207   4.010  0.7241  0.0524  0.0576
  690MOL0     C93040   0.513   7.111   3.934  1.0672  1.1536 -0.9433
  690MOL0     C93041   0.479   7.002   4.015  0.3727 -0.6991  0.1514
  690MOL0     C93042   0.399   6.892   3.970  0.5428 -0.4536 -0.5342
  690MOL0     C93043   0.378   6.781   4.062  0.5522 -0.4513  0.1015
  690MOL0     C93044   0.361   6.885   3.826  0.7786 -0.0932 -0.2355
  690MOL0     C93045   0.263   6.786   3.760  0.2453  0.3622 -0.0540
  690MOL0     O93046   0.224   6.807   3.632  0.4445 -0.9894 -0.2776
  690MOL0     C93047   0.151   6.714   3.567  0.7730  0.3166 -0.1545
  690MOL0     C93048   0.014   6.682   3.582  0.5015 -0.2159 -0.2617
  690MOL0     C93049  -0.061   6.611   3.488  0.0541 -0.2249 -0.5722
  690MOL0     C93050  -0.000   6.544   3.379 -0.6994 -1.0962 -0.6010
  690MOL0     O93051  -0.066   6.473   3.287  0.0378  0.6247  0.1339
  690MOL0     C93052  -0.209   6.459   3.275  0.0896  0.1724  0.0607
  690MOL0     C93053  -0.270   6.321   3.308  0.4199 -0.3078 -0.8918
  690MOL0     C93054  -0.263   6.304   3.462 -0.0815  0.1872 -0.2745
  690MOL0     C93055  -0.311   6.171   3.507  0.9064  0.3801  0.5950
  690MOL0     C93056  -0.262   6.138   3.642  0.2699 -0.7943 -0.1058
  690MOL0     C93057  -0.312   5.999   3.689 -0.2207 -0.1571  0.7641
  690MOL0     C93058  -0.304   5.985   3.839  0.3864  0.1055 -0.1613
  690MOL0     C93059  -0.254   5.843   3.876 -0.2402  0.5185 -0.7052
  690MOL0    Cl93060  -0.095   5.851   3.946  0.1392 -0.4455 -0.2323
  690MOL0     C93061   0.143   6.568   3.363  0.7801 -0.2110  0.4800
  690MOL0     C93062   0.207   6.651   3.458  0.3684 -0.2662  0.4937
  690MOL0     O93063   0.228   6.693   3.831 -0.8239  0.1351  0.5701
  690MOL0     C93064   0.408   6.993   3.751  0.7925 -0.5700 -0.7440
  690MOL0     C93065   0.473   7.103   3.800 -0.4558  0.4259  0.6047
  690MOL0     N93066   0.975   7.764   4.013 -0.2409  0.1170 -0.0767
  690MOL0     N93067   1.054   7.835   3.936 -0.5099  0.0333  0.4087
  690MOL0     C93068   1.895   7.639   4.687 -0.7561 -0.4399 -0.2876
  690MOL0     C93069   1.979   7.577   4.778 -1.1822 -0.2399  0.4064
  690MOL0     C93070   2.363   7.344   4.915  0.0936 -0.9631 -0.6079
  690MOL0     C93071   2.459   7.243   4.911 -0.1821  0.6153  0.4431
  690MOL0     C93072   2.580   7.258   4.985  0.0843  0.7368 -0.9624
  690MOL0     C93073   2.592   7.359   5.081 -0.1460  0.6868 -0.5469
  690MOL0     O93074   2.697   7.384   5.164  0.0039  0.0315  0.6790
  690MOL0     C93075   2.824   7.319   5.138  0.6511 -0.0818 -0.2998
  690MOL0     C93076   2.904   7.371   5.019  1.0992  0.2762 -0.4370
  690MOL0     C93077   3.000   7.500   5.037  0.6640  0.2510  0.7850
  690MOL0     C93078   2.935   7.618   5.127 -0.3862  1.0787 -0.3163
  690MOL0     C93079   3.006   7.740   5.174 -0.4527  1.3118 -0.0354
  690MOL0     C93080   3.049   7.841   5.222 -0.9153  0.0503  0.4266
  690MOL0     C93081   2.486   7.445   5.105 -0.0963 -0.4324  0.1899
  690MOL0     C93082   2.380   7.450   5.013  0.6763  0.8587 -0.6525
  690MOL0     H93083   2.203   7.461   4.553 -0.0936 -3.0094  0.9128
  690MOL0     H93084   2.070   7.605   4.412 -1.9865  2.8590 -0.1112
  690MOL0     H93085   1.787   7.516   4.418  2.3894  1.9553  1.3771
  690MOL0     H93086   1.660   7.628   4.472  1.5559  3.5917  1.1738
  690MOL0     H93087   1.688   7.741   4.253 -0.0645  0.0722  1.4301
  690MOL0     H93088   1.810   7.632   4.191 -2.8937 -2.3519 -2.9763
  690MOL0     H93089   1.630   7.439   4.256  0.1107 -0.1648  1.0690
  690MOL0     H93090   1.528   7.586   4.276  1.0907  2.1141  0.1201
  690MOL0     H93091   1.652   7.534   4.001  0.6583 -0.6652  2.0286
  690MOL0     H93092   1.489   7.485   4.046  1.7914 -2.4736 -4.8368
  690MOL0     H93093   1.428   7.709   4.106 -0.7753 -0.9256 -0.3378
  690MOL0     H93094   1.593   7.762   4.044 -0.3239  1.1692  0.9140
  690MOL0     H93095   1.551   7.689   3.827 -0.2028 -2.0700  0.2832
  690MOL0     H93096   1.421   7.597   3.873  0.8746 -0.7800  3.7609
  690MOL0     H93097   1.366   7.880   3.969 -3.4617  0.3782 -0.8807
  690MOL0     H93098   1.466   7.888   3.815  2.9580 -1.2867  3.0779
  690MOL0     H93099   1.284   7.759   3.705  0.6544  2.0314  0.4644
  690MOL0     H93100   1.229   7.919   3.756  0.8897  2.0537 -1.6551
  690MOL0     H93101   1.190   7.542   3.889 -0.9341 -0.8635  0.9200
  690MOL0     H93102   1.008   7.434   4.072 -0.6223  0.2365  0.7824
  690MOL0     H93103   0.891   7.537   4.116  3.2359 -1.3149  2.4590
  690MOL0     H93104   0.877   7.413   3.842  0.5238  2.3647 -2.3011
  690MOL0     H93105   0.768   7.538   3.888  0.2597 -0.2364 -0.8126
  690MOL0     H93106   0.718   7.420   4.092  0.2334  1.7602 -0.7057
  690MOL0     H93107   0.814   7.281   4.050 -0.2155 -0.1777 -0.4264
  690MOL0     H93108   0.692   7.235   3.844 -0.0527 -1.2216  0.7856
  690MOL0     H93109   0.569   7.369   3.888 -3.1176 -2.7069 -1.8978
  690MOL0     H93110   0.492   7.009   4.122 -0.1165  4.4596  0.1131
  690MOL0     H93111   0.275   6.742   4.060  0.1303  0.6527 -0.9368
  690MOL0     H93112   0.450   6.702   4.040 -1.0853 -2.4479  1.4116
  690MOL0     H93113   0.398   6.822   4.162  1.0504  3.1742 -1.3429
  690MOL0     H93114  -0.044   6.721   3.665 -1.1803 -2.5427 -0.2668
  690MOL0     H93115  -0.168   6.606   3.505 -0.5365  1.6720 -3.2053
  690MOL0     H93116  -0.255   6.545   3.325  0.9261  0.3542  0.5244
  690MOL0     H93117  -0.216   6.474   3.167 -0.6750  1.8964  0.3058
  690MOL0     H93118  -0.375   6.318   3.277  0.2714  1.6382 -0.7236
  690MOL0     H93119  -0.216   6.241   3.257  0.7694  1.4205 -3.3752
  690MOL0     H93120  -0.314   6.385   3.515  1.8701  0.6603  0.9948
  690MOL0     H93121  -0.158   6.297   3.490  0.7559 -0.5828 -3.2313
  690MOL0     H93122  -0.421   6.171   3.501  0.4025  5.2891  3.5038
  690MOL0     H93123  -0.274   6.090   3.444  1.1974  0.7961  0.2209
  690MOL0     H93124  -0.292   6.216   3.713  0.3992  0.8232 -1.7681
  690MOL0     H93125  -0.153   6.140   3.648  0.2019  0.3036  1.0856
  690MOL0     H93126  -0.416   5.983   3.660 -0.2319 -3.1983  2.0346
  690MOL0     H93127  -0.258   5.915   3.644 -1.3047  0.4018 -1.7137
  690MOL0     H93128  -0.406   6.005   3.872  1.0933 -0.2293  2.3819
  690MOL0     H93129  -0.242   6.064   3.884 -1.7421  2.2298 -0.7414
  690MOL0     H93130  -0.244   5.770   3.794  2.2865  0.1011 -0.1164
  690MOL0     H93131  -0.335   5.797   3.932  1.0441  0.4336  1.1683
  690MOL0     H93132   0.185   6.529   3.271  1.6567 -1.7571  1.4916
  690MOL0     H93133   0.307   6.687   3.439 -0.0128  0.0073 -1.0981
  690MOL0     H93134   0.382   6.990   3.645  1.2391  0.7052 -0.9099
  690MOL0     H93135   0.500   7.191   3.743 -0.6926 -0.5026 -1.0143
  690MOL0     H93136   1.807   7.694   4.721 -0.8516 -2.4075  3.1527
  690MOL0     H93137   1.936   7.570   4.878  1.4772 -1.5562  1.5622
  690MOL0     H93138   2.439   7.164   4.839 -3.2730  1.5296  0.1718
  690MOL0     H93139   2.655   7.182   4.968 -0.9011 -0.3996 -0.3845
  690MOL0     H93140   2.886   7.325   5.228 -1.5991 -0.8393  1.4198
  690MOL0     H93141   2.803   7.213   5.121  0.0393  0.0756 -0.5564
  690MOL0     H93142   2.832   7.383   4.938  1.0177  1.6108 -0.1912
  690MOL0     H93143   2.968   7.286   4.994  0.8483  0.0981 -0.4727
  690MOL0     H93144   3.008   7.535   4.934 -2.1730  1.5450  0.9134
  690MOL0     H93145   3.098   7.476   5.079  1.3778  2.0178  0.1974
  690MOL0     H93146   2.893   7.561   5.211 -0.8663 -1.8606 -2.4311
  690MOL0     H93147   2.844   7.657   5.081 -1.3594  0.9471  1.3759
  690MOL0     H93148   3.069   7.934   5.272  0.6513 -1.1916  2.2939
  690MOL0     H93149   2.498   7.512   5.190  2.1095 -0.9073  0.2887
  690MOL0     H93150   2.301   7.521   5.036  2.1327  1.7854  1.8179
  691MOL0     O93151   8.319   5.641   2.871  0.0104  0.6217 -0.1243
  691MOL0     C93152   8.193   5.645   2.883  0.1374 -0.7819  1.1268
  691MOL0     O93153   8.103   5.560   2.824  0.1210  0.4497 -1.1461
  691MOL0     C93154   8.162   5.473   2.735 -0.5438  0.2763 -0.7574
  691MOL0     C93155   8.182   5.500   2.609 -0.4387 -0.0206  0.1289
  691MOL0     C93156   8.242   5.411   2.529  0.2279 -0.5361  0.6703
  691MOL0     C93157   8.286   5.285   2.580 -0.9217  0.8419  0.6050
  691MOL0     O93158   8.354   5.210   2.482  0.1632  0.8650 -0.3257
  691MOL0     C93159   8.405   5.082   2.534  0.2490  0.0862 -0.4253
  691MOL0     C93160   8.463   5.006   2.420 -0.1324  0.3531 -0.0983
  691MOL0     C93161   8.585   5.081   2.358  0.2176 -0.5483 -0.0953
  691MOL0     C93162   8.713   5.091   2.434 -0.6493  0.4578 -1.6860
  691MOL0     C93163   8.749   4.960   2.509  1.0980  0.3194  0.1711
  691MOL0     C93164   8.872   4.962   2.597  0.1024  0.2690  0.0072
  691MOL0     C93165   8.990   4.979   2.516 -0.1674 -0.4895  0.7293
  691MOL0     C93166   9.132   4.959   2.594  0.5703  0.4063  0.2165
  691MOL0     N93167   9.143   5.044   2.716 -0.2075 -1.0463 -0.4076
  691MOL0     C93168   9.103   5.177   2.742 -0.2985  0.8929  0.2646
  691MOL0     C93169   9.140   5.194   2.874  0.8494 -0.0386 -0.2254
  691MOL0     C93170   9.111   5.317   2.955 -0.1981 -0.8699  0.0494
  691MOL0     C93171   9.183   5.326   3.096 -0.5081 -0.0453  0.2332
  691MOL0     C93172   9.117   5.455   3.148  0.6688  0.5330 -0.5606
  691MOL0     C93173   9.163   5.497   3.294  0.0084  1.0195  0.4616
  691MOL0     O93174   9.148   5.400   3.402 -0.0458  0.4732 -0.1291
  691MOL0     C93175   9.029   5.334   3.422 -0.1691 -0.9687 -1.3014
  691MOL0     C93176   9.036   5.205   3.478 -0.8703  0.1141 -0.2514
  691MOL0     C93177   8.918   5.121   3.501 -0.1646  1.4374 -0.3234
  691MOL0     C93178   8.935   4.993   3.562  0.2480 -0.3662 -0.5804
  691MOL0     C93179   8.799   5.183   3.449 -1.2870  0.4252  0.2260
  691MOL0     C93180   8.664   5.124   3.461  0.0970  0.1271 -0.0341
  691MOL0     O93181   8.636   5.059   3.580 -0.0770 -0.2745  0.5968
  691MOL0     C93182   8.531   4.974   3.588  0.3896 -0.3368 -0.5356
  691MOL0     C93183   8.451   4.981   3.696  0.6680  0.4341 -0.8443
  691MOL0     C93184   8.340   4.898   3.712  0.1265 -0.2157  0.0235
  691MOL0     C93185   8.316   4.803   3.613  0.7616  0.2140 -0.2550
  691MOL0     O93186   8.216   4.714   3.603 -0.7860 -0.5700  0.1110
  691MOL0     C93187   8.134   4.687   3.721  0.4407  0.3085 -0.0858
  691MOL0     C93188   7.982   4.708   3.694  0.2732 -0.6268  0.4619
  691MOL0     C93189   7.952   4.855   3.642 -0.3406 -0.2132 -0.7123
  691MOL0     C93190   7.949   4.854   3.491 -0.3669 -0.2470  0.0989
  691MOL0     C93191   7.907   4.993   3.434  0.5489  0.1646  0.2719
  691MOL0     C93192   7.757   5.012   3.466 -0.3319  0.9413  0.0610
  691MOL0     C93193   7.686   5.115   3.364 -0.0176  0.6684  0.2429
  691MOL0     C93194   7.712   5.269   3.390 -1.4045  0.3210  0.2322
  691MOL0    Cl93195   7.664   5.304   3.556  0.4842  0.9254 -0.2633
  691MOL0     C93196   8.399   4.804   3.492  0.6223 -0.4297  0.0192
  691MOL0     C93197   8.497   4.899   3.474  0.6617 -0.6036 -0.5525
  691MOL0     O93198   8.584   5.145   3.371 -0.2530  1.1759 -0.0637
  691MOL0     C93199   8.798   5.311   3.390 -0.2610 -0.1367 -1.1128
  691MOL0     C93200   8.913   5.390   3.380  0.4187 -0.6580 -0.6935
  691MOL0     N93201   9.199   5.076   2.921  1.6234  0.0229  1.0050
  691MOL0     N93202   9.185   4.984   2.831 -0.4181 -0.6389  0.5108
  691MOL0     C93203   8.278   5.266   2.716 -0.1449 -0.5203 -0.2646
  691MOL0     C93204   8.211   5.358   2.797 -0.6940 -0.1671  0.5836
  691MOL0     C93205   8.136   5.760   2.952  1.0945  0.0653  0.1896
  691MOL0     C93206   8.216   5.868   2.995 -0.9643 -0.5628 -0.0382
  691MOL0     C93207   8.158   5.986   3.054 -0.2725  0.6960  0.0859
  691MOL0     C93208   8.020   6.000   3.062 -1.2678 -0.7743 -0.3104
  691MOL0     O93209   7.965   6.107   3.126 -0.6181 -0.3656  1.7795
  691MOL0     C93210   8.033   6.200   3.214  0.1007 -0.5044 -0.0051
  691MOL0     C93211   8.099   6.309   3.127 -0.0562 -0.1154 -0.2531
  691MOL0     C93212   7.991   6.401   3.065 -0.3147  0.1844 -0.8930
  691MOL0     C93213   7.893   6.339   2.972  0.0256 -0.0036 -0.7174
  691MOL0     C93214   7.951   6.280   2.852  0.5165 -0.3591 -0.0877
  691MOL0     C93215   7.988   6.218   2.755 -0.7099 -0.5887  0.6698
  691MOL0     C93216   7.934   5.888   3.027 -0.6120  0.2599  0.0904
  691MOL0     C93217   7.991   5.777   2.970 -0.0529 -0.6792  0.5605
  691MOL0     H93218   8.166   5.602   2.576 -2.8345  0.0972  1.4104
  691MOL0     H93219   8.268   5.441   2.428  0.8755  3.7352  1.8916
  691MOL0     H93220   8.483   5.097   2.609  0.6912 -3.0145 -0.1403
  691MOL0     H93221   8.339   5.007   2.578 -0.5135  0.7903 -0.3456
  691MOL0     H93222   8.488   4.906   2.457  2.1138 -0.4251 -3.3382
  691MOL0     H93223   8.387   4.990   2.343  1.8714  1.9247 -2.5754
  691MOL0     H93224   8.611   5.029   2.266 -0.1861  3.1496 -2.5461
  691MOL0     H93225   8.563   5.183   2.325  1.2018  0.0662  1.0646
  691MOL0     H93226   8.794   5.123   2.366 -0.4436  0.7859 -1.2943
  691MOL0     H93227   8.707   5.173   2.507  1.6844  1.4799 -2.5110
  691MOL0     H93228   8.670   4.933   2.580 -2.2699  1.7301 -2.7376
  691MOL0     H93229   8.763   4.878   2.438  0.8745 -0.6630  1.2307
  691MOL0     H93230   8.866   5.030   2.683 -0.4520  0.8148 -0.4499
  691MOL0     H93231   8.878   4.867   2.650  1.3418 -0.5568 -1.5499
  691MOL0     H93232   8.988   4.913   2.429 -3.2113  1.3242 -0.7663
  691MOL0     H93233   9.008   5.078   2.473  3.7461  0.1398  3.2864
  691MOL0     H93234   9.216   4.988   2.529  0.8256 -0.0434  0.3484
  691MOL0     H93235   9.150   4.860   2.636 -0.3043  1.3143  2.9338
  691MOL0     H93236   9.033   5.246   2.695 -1.6703 -0.8890 -0.4483
  691MOL0     H93237   9.152   5.403   2.901  1.9692 -1.6960  0.3034
  691MOL0     H93238   9.003   5.336   2.960 -0.0867 -0.3518  0.6076
  691MOL0     H93239   9.288   5.344   3.073 -0.2129 -1.1686  0.6057
  691MOL0     H93240   9.189   5.234   3.156  0.9706  0.2685  0.5954
  691MOL0     H93241   9.008   5.450   3.139  0.7580 -0.8285 -0.9947
  691MOL0     H93242   9.157   5.528   3.077  3.0364  1.9449  2.0160
  691MOL0     H93243   9.112   5.587   3.328 -0.5955  0.8046  0.1345
  691MOL0     H93244   9.271   5.519   3.293  0.4527 -0.7888 -1.8984
  691MOL0     H93245   9.131   5.161   3.503 -0.8389 -0.2618 -1.0049
  691MOL0     H93246   8.945   4.994   3.671  0.0121 -0.9615 -0.5525
  691MOL0     H93247   8.858   4.921   3.534 -0.1621  0.0125 -0.4351
  691MOL0     H93248   9.020   4.946   3.511  1.9425  3.5388 -1.7464
  691MOL0     H93249   8.475   5.056   3.771  3.1188  1.6784 -2.7337
  691MOL0     H93250   8.285   4.901   3.805  1.6938 -2.1677  1.1047
  691MOL0     H93251   8.139   4.583   3.755 -1.9655 -0.4088 -1.6579
  691MOL0     H93252   8.165   4.752   3.804  1.4492  0.9258 -0.9305
  691MOL0     H93253   7.942   4.628   3.631 -0.4657 -0.1283  0.2858
  691MOL0     H93254   7.929   4.699   3.788  0.7256 -0.4439  0.7379
  691MOL0     H93255   8.029   4.926   3.673  0.8469 -0.3270 -3.2140
  691MOL0     H93256   7.865   4.902   3.689 -0.9248 -0.4845 -1.4975
  691MOL0     H93257   8.052   4.835   3.461 -1.2414 -1.9358 -2.0463
  691MOL0     H93258   7.889   4.779   3.440 -0.1027  1.0207 -2.2075
  691MOL0     H93259   7.916   4.993   3.325  1.8648  2.2217  0.3160
  691MOL0     H93260   7.966   5.078   3.470 -2.1240  2.1089  0.3890
  691MOL0     H93261   7.719   4.910   3.456  2.0518 -0.1074  0.8203
  691MOL0     H93262   7.734   5.036   3.571 -3.0598  2.2530 -0.7464
  691MOL0     H93263   7.580   5.113   3.388 -0.0857  3.1603  0.3900
  691MOL0     H93264   7.699   5.089   3.258 -0.5447  1.4682 -0.0231
  691MOL0     H93265   7.639   5.325   3.331 -0.2560  3.0899  1.3135
  691MOL0     H93266   7.812   5.311   3.381 -1.0521 -0.8602 -2.2437
  691MOL0     H93267   8.384   4.730   3.415  1.6676  2.3216 -3.1008
  691MOL0     H93268   8.557   4.899   3.383 -2.3446 -0.5917 -2.6815
  691MOL0     H93269   8.710   5.366   3.358 -1.1625 -0.9169 -0.0558
  691MOL0     H93270   8.899   5.492   3.345 -0.2735 -0.3092  0.5309
  691MOL0     H93271   8.332   5.184   2.762 -0.0037 -1.9133 -2.7133
  691MOL0     H93272   8.222   5.327   2.901 -0.4715 -0.9895  0.3275
  691MOL0     H93273   8.323   5.852   2.989 -1.0625 -0.7507 -1.8704
  691MOL0     H93274   8.228   6.062   3.088 -0.3684  0.5943  0.5294
  691MOL0     H93275   7.960   6.241   3.284  3.0086  2.9196  1.3386
  691MOL0     H93276   8.109   6.150   3.275  1.9438  1.0489 -0.9049
  691MOL0     H93277   8.156   6.267   3.043 -2.0306 -1.3151 -1.0979
  691MOL0     H93278   8.160   6.377   3.185 -1.2828  3.4723 -2.8205
  691MOL0     H93279   8.043   6.487   3.021 -0.6797  1.9136  1.7607
  691MOL0     H93280   7.923   6.449   3.137 -1.6638  1.1073 -2.6974
  691MOL0     H93281   7.820   6.411   2.933 -1.8239  0.0904  2.4866
  691MOL0     H93282   7.829   6.262   3.017  0.6131  1.0779  2.2146
  691MOL0     H93283   8.026   6.159   2.674 -0.6703 -0.5471  0.6586
  691MOL0     H93284   7.829   5.904   3.050 -0.7759  2.2725 -1.7263
  691MOL0     H93285   7.933   5.689   2.943 -0.4003 -1.1020  2.4970
  692MOL0     O93286   1.282   3.980   7.876  0.2481 -0.1213  0.4678
  692MOL0     C93287   1.164   4.006   7.851  0.4686  0.1413 -0.6434
  692MOL0     O93288   1.071   4.062   7.940 -0.4535 -0.0447  0.2634
  692MOL0     C93289   1.087   4.077   8.076 -0.0991  0.5990  0.7828
  692MOL0     C93290   1.186   4.024   8.155 -0.2381  1.3047  0.3417
  692MOL0     C93291   1.190   4.063   8.288 -1.7540 -0.1619  0.2027
  692MOL0     C93292   1.097   4.139   8.344 -1.0031  0.0986 -0.8912
  692MOL0     O93293   1.110   4.173   8.478  0.1089  0.9001 -0.6048
  692MOL0     C93294   1.207   4.271   8.515  0.5623  0.6257 -0.3384
  692MOL0     C93295   1.289   4.209   8.629  0.0916  0.3441 -0.3750
  692MOL0     C93296   1.408   4.299   8.678 -0.8441  0.1089 -0.4993
  692MOL0     C93297   1.363   4.407   8.774  0.0865  0.4464  0.6498
  692MOL0     C93298   1.502   4.468   8.817  0.4991 -0.0824  0.3860
  692MOL0     C93299   1.485   4.594   8.915 -0.2182  0.5443  1.1196
  692MOL0     C93300   1.617   4.680   8.938  0.3970  0.5425  0.9329
  692MOL0     C93301   1.740   4.610   8.990 -0.5999 -0.1969  0.2536
  692MOL0     N93302   1.869   4.681   9.004  0.2362 -0.2568 -0.3760
  692MOL0     C93303   1.957   4.667   9.108  0.1737  0.8359 -0.8261
  692MOL0     C93304   2.081   4.709   9.068 -0.6624 -0.5976 -0.8870
  692MOL0     C93305   2.210   4.687   9.149  0.0990  0.2104  0.1871
  692MOL0     C93306   2.218   4.716   9.297  0.1677  0.4747 -0.1387
  692MOL0     C93307   2.208   4.869   9.330 -0.0523  0.2519  1.0149
  692MOL0     C93308   2.222   4.910   9.473 -0.3096  0.0156 -0.4732
  692MOL0     O93309   2.115   4.868   9.556 -0.5200 -0.7493 -0.0153
  692MOL0     C93310   2.120   4.867   9.696  0.1644  0.6267  0.1549
  692MOL0     C93311   2.218   4.911   9.789 -0.1731 -0.2858  0.8029
  692MOL0     C93312   2.205   4.893   9.930  0.4942  1.1535  0.4377
  692MOL0     C93313   2.326   4.917  10.018 -0.9259 -0.3936  0.0933
  692MOL0     C93314   2.075   4.858   9.981 -0.4009 -0.4713 -1.0280
  692MOL0     C93315   2.048   4.866  10.129  0.1910  0.5421  0.5988
  692MOL0     O93316   2.102   4.967  10.200 -0.3839  0.2670 -0.1655
  692MOL0     C93317   2.120   4.947  10.336 -0.5976  0.7124  0.7191
  692MOL0     C93318   2.249   4.923  10.386  0.0458  0.3183 -0.3420
  692MOL0     C93319   2.256   4.915  10.527 -0.1612  1.0872  0.3929
  692MOL0     C93320   2.152   4.937  10.616  0.0043 -0.9209 -0.6350
  692MOL0     O93321   2.167   4.920  10.755  0.1167  0.0276  1.1599
  692MOL0     C93322   2.269   5.000  10.815  0.0612 -0.4480 -0.4889
  692MOL0     C93323   2.368   4.910  10.882  0.5708  0.7434 -0.5365
  692MOL0     C93324   2.296   4.831  10.997  0.1452  0.8782 -0.4565
  692MOL0     C93325   2.255   4.915  11.109 -0.7485 -0.0171 -0.3971
  692MOL0     C93326   2.307   4.861  11.244  1.0995 -0.3376  0.5791
  692MOL0     C93327   2.206   4.760  11.298 -0.3770 -0.3608 -1.5564
  692MOL0     C93328   2.258   4.723  11.434 -0.3446 -0.2294  0.2472
  692MOL0     C93329   2.136   4.658  11.502 -0.2250  0.1075  0.1626
  692MOL0    Cl93330   2.192   4.550  11.641 -0.2794  0.3745  0.4225
  692MOL0     C93331   2.031   4.964  10.559 -0.7721  0.6953  1.1859
  692MOL0     C93332   2.005   4.968  10.415  0.0897 -0.1699  0.1592
  692MOL0     O93333   1.992   4.770  10.179 -0.2958  1.0023  0.1625
  692MOL0     C93334   1.983   4.811   9.897  1.4968  0.8799 -0.2034
  692MOL0     C93335   2.005   4.807   9.758 -0.4782 -0.2141 -0.4504
  692MOL0     N93336   2.074   4.749   8.936  0.2831 -0.1092  0.2975
  692MOL0     N93337   1.945   4.734   8.907 -0.5217  0.1823  0.0339
  692MOL0     C93338   0.982   4.167   8.273  0.2104 -0.4102 -0.3697
  692MOL0     C93339   0.985   4.153   8.136  0.1670 -0.2017 -0.3709
  692MOL0     C93340   1.105   3.954   7.729 -0.2541 -0.8601  0.5159
  692MOL0     C93341   1.162   3.986   7.600  0.1789  0.8054 -0.1442
  692MOL0     C93342   1.105   3.928   7.492 -0.2976 -0.2507  0.1327
  692MOL0     C93343   0.995   3.842   7.498  0.2119  0.2978  0.2814
  692MOL0     O93344   0.967   3.786   7.374  0.0493 -0.0878 -0.7817
  692MOL0     C93345   0.870   3.683   7.372 -0.3036  0.8948 -0.7923
  692MOL0     C93346   0.856   3.602   7.250 -0.8678 -0.1994 -0.5271
  692MOL0     C93347   0.766   3.481   7.264 -0.3929  0.5606 -0.5872
  692MOL0     C93348   0.626   3.501   7.323  0.0829  0.7294 -0.8202
  692MOL0     C93349   0.542   3.585   7.243 -0.2328 -0.8369 -0.4205
  692MOL0     C93350   0.460   3.631   7.172 -0.3223  0.0034  0.1037
  692MOL0     C93351   0.949   3.806   7.631  0.4825  0.2359  0.7169
  692MOL0     C93352   0.991   3.880   7.741 -0.0822 -0.2571 -0.5662
  692MOL0     H93353   1.265   3.963   8.113 -0.2777  0.8713  0.8984
  692MOL0     H93354   1.269   4.039   8.357 -0.6173  2.7255  0.0676
  692MOL0     H93355   1.274   4.293   8.431  1.4695 -0.0243  0.1954
  692MOL0     H93356   1.150   4.360   8.543 -1.4644 -0.8940  0.6813
  692MOL0     H93357   1.234   4.217   8.723 -0.5000 -0.0417 -0.6828
  692MOL0     H93358   1.305   4.101   8.615 -4.9246 -0.4365 -2.1235
  692MOL0     H93359   1.484   4.238   8.727  0.2139  2.2609  0.6613
  692MOL0     H93360   1.460   4.336   8.590  0.3884 -1.3360 -0.4160
  692MOL0     H93361   1.311   4.479   8.711  1.4588  0.9059  0.0078
  692MOL0     H93362   1.312   4.375   8.865  2.2729  1.9606  2.5304
  692MOL0     H93363   1.567   4.387   8.852  0.7711 -0.6507 -1.3391
  692MOL0     H93364   1.547   4.515   8.730  5.0654  0.3901  2.7109
  692MOL0     H93365   1.412   4.661   8.870  1.1940  1.0336 -0.5590
  692MOL0     H93366   1.433   4.567   9.007  1.2412 -0.0994  1.7996
  692MOL0     H93367   1.648   4.728   8.845  0.5190 -1.8014 -0.3160
  692MOL0     H93368   1.603   4.766   9.005  1.2976  0.5139  1.1715
  692MOL0     H93369   1.758   4.517   8.936 -1.4583 -0.6142  0.6675
  692MOL0     H93370   1.714   4.573   9.089 -2.5548  1.7905  0.5561
  692MOL0     H93371   1.939   4.624   9.205  3.0876  2.3696  0.5194
  692MOL0     H93372   2.239   4.583   9.130 -3.6155 -0.8799 -0.4229
  692MOL0     H93373   2.285   4.739   9.089  1.3040 -3.7619 -2.1457
  692MOL0     H93374   2.318   4.684   9.328  0.5187  1.2782 -0.4356
  692MOL0     H93375   2.143   4.651   9.343  2.8699 -2.7005  0.1982
  692MOL0     H93376   2.115   4.907   9.289  0.4339 -0.5933 -0.9718
  692MOL0     H93377   2.288   4.920   9.276 -0.5711  0.1221  0.1112
  692MOL0     H93378   2.217   5.019   9.485 -1.0031  0.2128 -2.2518
  692MOL0     H93379   2.314   4.875   9.521  1.0456  4.6208  0.7948
  692MOL0     H93380   2.313   4.943   9.748  1.0567 -2.3676  1.8504
  692MOL0     H93381   2.314   5.004  10.083 -1.9563 -0.2980 -0.2162
  692MOL0     H93382   2.349   4.843  10.096  0.1718  1.3556  1.5421
  692MOL0     H93383   2.416   4.932   9.959 -1.8044  0.2814 -1.1099
  692MOL0     H93384   2.343   4.926  10.331  1.8547  1.4338  2.5620
  692MOL0     H93385   2.355   4.893  10.566  0.5422  0.1549 -1.7463
  692MOL0     H93386   2.318   5.073  10.749  1.0939  0.1010  0.8369
  692MOL0     H93387   2.223   5.067  10.888 -0.1883 -2.1170  0.9318
  692MOL0     H93388   2.408   4.837  10.811  1.2738  0.1987  0.4006
  692MOL0     H93389   2.449   4.963  10.934 -1.3930  2.5958  0.8077
  692MOL0     H93390   2.385   4.774  11.026 -1.1722 -0.5855  0.8939
  692MOL0     H93391   2.224   4.752  10.973 -0.8099  0.9018  2.1130
  692MOL0     H93392   2.304   5.013  11.102  1.4637 -1.0113  0.2836
  692MOL0     H93393   2.146   4.922  11.111 -0.9738 -2.7619  0.1330
  692MOL0     H93394   2.297   4.945  11.314 -1.7245 -0.0947  0.0054
  692MOL0     H93395   2.409   4.824  11.234  0.9187 -0.7453  0.2523
  692MOL0     H93396   2.108   4.808  11.305  0.6590  1.7308 -0.5119
  692MOL0     H93397   2.192   4.674  11.231 -1.2532 -0.1262 -1.6852
  692MOL0     H93398   2.281   4.815  11.487 -2.5211  0.3513  0.3045
  692MOL0     H93399   2.336   4.646  11.438  2.7423  2.7151  1.9118
  692MOL0     H93400   2.063   4.603  11.443  0.0585 -2.0622  1.7168
  692MOL0     H93401   2.074   4.737  11.544 -0.6538  0.1910 -0.6160
  692MOL0     H93402   1.945   4.967  10.626  1.5171  0.5925  4.3262
  692MOL0     H93403   1.906   4.978  10.372  0.7938 -1.8778 -2.0551
  692MOL0     H93404   1.895   4.761   9.936  1.3869 -0.3977 -1.9502
  692MOL0     H93405   1.931   4.765   9.691 -2.5028  1.3938  0.6755
  692MOL0     H93406   0.899   4.219   8.320  0.7736  0.9040 -0.7898
  692MOL0     H93407   0.906   4.194   8.073  0.1614  0.9819  0.3854
  692MOL0     H93408   1.256   4.039   7.593  1.5469 -1.1837  1.7083
  692MOL0     H93409   1.150   3.941   7.395 -3.2681  3.0479 -1.0153
  692MOL0     H93410   0.897   3.604   7.443  1.5967  0.1173 -2.3000
  692MOL0     H93411   0.771   3.716   7.404 -0.7645  0.5691 -1.8455
  692MOL0     H93412   0.955   3.581   7.208 -0.5768  4.6712 -3.0411
  692MOL0     H93413   0.814   3.669   7.174  1.8695  3.3096  0.7418
  692MOL0     H93414   0.818   3.410   7.330 -0.5594  2.3112  1.5658
  692MOL0     H93415   0.743   3.442   7.165 -3.1535 -3.7033  1.3987
  692MOL0     H93416   0.641   3.549   7.420 -1.2732  2.4934 -1.4308
  692MOL0     H93417   0.577   3.405   7.344 -0.8022  0.9038 -2.0016
  692MOL0     H93418   0.403   3.693   7.106  0.9547  3.3205  1.8870
  692MOL0     H93419   0.871   3.738   7.662 -0.1400  1.2036  1.3389
  692MOL0     H93420   0.939   3.863   7.834 -1.7307  0.0732 -1.3838
  693MOL0     O93421  11.406   4.973   3.313  0.4526 -0.0446 -1.1124
  693MOL0     C93422  11.291   4.927   3.333 -0.9157 -0.0108  0.1209
  693MOL0     O93423  11.181   4.953   3.256 -0.2005  0.3441  0.7413
  693MOL0     C93424  11.190   5.022   3.137 -0.1761  0.1849  1.0923
  693MOL0     C93425  11.228   5.160   3.134 -0.2872  0.5801  0.1911
  693MOL0     C93426  11.235   5.227   3.015 -0.4853 -0.5200 -0.6142
  693MOL0     C93427  11.183   5.166   2.898  0.0794 -0.8410  0.1618
  693MOL0     O93428  11.180   5.225   2.776 -0.1091  0.2453  0.3288
  693MOL0     C93429  11.206   5.369   2.765 -0.2350  0.4316  0.6935
  693MOL0     C93430  11.228   5.389   2.617 -0.1119 -0.2883 -0.0237
  693MOL0     C93431  11.176   5.524   2.575  0.9402 -0.0148  0.3186
  693MOL0     C93432  11.023   5.539   2.571  0.3466  1.0461  0.1890
  693MOL0     C93433  10.988   5.661   2.486  0.3896 -0.2678 -1.0384
  693MOL0     C93434  10.972   5.615   2.341 -0.1226  0.1290 -0.7510
  693MOL0     C93435  10.901   5.734   2.265 -0.2994  0.3853  0.3084
  693MOL0     C93436  11.001   5.846   2.237  0.4713  0.1450  0.6079
  693MOL0     N93437  10.943   5.956   2.166  0.5928  0.3230  0.2829
  693MOL0     C93438  10.999   6.014   2.053 -0.3950  1.4870  0.2556
  693MOL0     C93439  10.924   6.127   2.035 -0.8518  0.6088 -0.6980
  693MOL0     C93440  10.958   6.240   1.946  0.1755 -0.1022  1.1523
  693MOL0     C93441  10.909   6.225   1.801 -0.3754  1.5083 -0.4054
  693MOL0     C93442  10.755   6.232   1.787  0.2904  0.1415 -0.1932
  693MOL0     C93443  10.716   6.371   1.835 -0.2226 -0.3248 -0.7720
  693MOL0     O93444  10.770   6.478   1.753  0.0361  0.2206 -0.1057
  693MOL0     C93445  10.704   6.599   1.748 -0.7852  0.5977 -0.4157
  693MOL0     C93446  10.723   6.673   1.632  0.6157 -0.3233 -0.3420
  693MOL0     C93447  10.652   6.796   1.617 -0.9880 -0.0079  0.8006
  693MOL0     C93448  10.638   6.877   1.488 -0.3319  0.9132 -0.4476
  693MOL0     C93449  10.589   6.848   1.738  0.0972 -1.4584  0.4017
  693MOL0     C93450  10.528   6.989   1.746 -0.4627 -0.1961  0.5226
  693MOL0     O93451  10.511   7.034   1.876 -0.0939 -0.0301  0.5129
  693MOL0     C93452  10.429   7.146   1.890  0.9172 -0.7880  0.2490
  693MOL0     C93453  10.298   7.151   1.838 -0.1262 -0.7427  0.2716
  693MOL0     C93454  10.208   7.259   1.858 -0.0190  0.3970  0.1251
  693MOL0     C93455  10.252   7.370   1.929  0.9609 -0.2582 -0.4876
  693MOL0     O93456  10.159   7.476   1.929 -0.2103  0.5199 -0.3650
  693MOL0     C93457  10.202   7.604   1.973  0.7469 -0.1881  0.2917
  693MOL0     C93458  10.077   7.695   1.979 -0.7758 -0.6496  1.1938
  693MOL0     C93459  10.115   7.848   1.970 -0.5303 -0.0262  0.7908
  693MOL0     C93460  10.114   7.904   1.822  0.0577 -0.8407  0.7912
  693MOL0     C93461  10.207   8.029   1.815  0.3038  0.5983 -0.5348
  693MOL0     C93462  10.190   8.146   1.908  0.2959 -0.3337  0.8872
  693MOL0     C93463  10.300   8.258   1.885 -1.0840  0.3797 -0.1671
  693MOL0     C93464  10.318   8.318   2.019 -0.8094 -0.8634  0.0516
  693MOL0    Cl93465  10.423   8.209   2.118  0.1393 -0.4622  0.6864
  693MOL0     C93466  10.381   7.375   1.975 -0.3115  0.4506 -0.1889
  693MOL0     C93467  10.470   7.272   1.955  0.6798  0.4458 -0.2221
  693MOL0     O93468  10.483   7.042   1.643 -0.1763 -0.5949  0.1970
  693MOL0     C93469  10.596   6.776   1.860 -0.4950 -0.1442 -0.1630
  693MOL0     C93470  10.646   6.652   1.867  0.3938 -0.9624 -0.2020
  693MOL0     N93471  10.827   6.126   2.132  0.0317 -0.4857 -0.3955
  693MOL0     N93472  10.843   6.027   2.211  0.5853 -0.5569  0.4871
  693MOL0     C93473  11.127   5.042   2.910 -0.3020  0.6509  0.5934
  693MOL0     C93474  11.139   4.961   3.024 -0.4955  0.9713  0.8898
  693MOL0     C93475  11.296   4.821   3.438  0.7928  0.2227  0.5054
  693MOL0     C93476  11.415   4.772   3.498  0.2996  0.2802 -0.1083
  693MOL0     C93477  11.404   4.667   3.582 -0.8404 -0.2685 -0.4079
  693MOL0     C93478  11.288   4.603   3.624 -0.5179 -0.8610 -0.6104
  693MOL0     O93479  11.288   4.491   3.708 -1.6402  0.3410  0.1629
  693MOL0     C93480  11.385   4.467   3.807  0.5201 -0.2585 -0.0104
  693MOL0     C93481  11.370   4.567   3.920 -0.3963 -0.6532 -1.8463
  693MOL0     C93482  11.437   4.542   4.053  0.5714  0.4789 -0.8292
  693MOL0     C93483  11.589   4.517   4.036 -0.2787  0.2889  0.2296
  693MOL0     C93484  11.665   4.504   4.152 -0.3852  0.0392 -0.0131
  693MOL0     C93485  11.722   4.497   4.256 -0.0314 -0.2388 -0.4000
  693MOL0     C93486  11.173   4.658   3.576 -0.1320 -1.4435  0.2375
  693MOL0     C93487  11.176   4.755   3.476 -0.1679  0.3286  0.4883
  693MOL0     H93488  11.249   5.191   3.235 -0.1018  1.3740 -0.0868
  693MOL0     H93489  11.271   5.329   3.011 -2.1993  0.1380 -0.2620
  693MOL0     H93490  11.108   5.408   2.792 -1.3835 -2.3530  0.9394
  693MOL0     H93491  11.286   5.416   2.823  1.3949  2.3412 -2.8308
  693MOL0     H93492  11.335   5.405   2.606 -0.3863  2.6784  0.7426
  693MOL0     H93493  11.197   5.301   2.559  2.5501 -2.3545  1.4506
  693MOL0     H93494  11.200   5.595   2.655  2.7963 -0.9391  0.6384
  693MOL0     H93495  11.220   5.563   2.482  0.9403  2.0393  1.1283
  693MOL0     H93496  10.983   5.452   2.517 -0.7391  0.9186  1.1787
  693MOL0     H93497  10.989   5.541   2.675  0.2072  0.7429  0.1525
  693MOL0     H93498  10.890   5.702   2.515  0.7106  1.6252 -2.4327
  693MOL0     H93499  11.059   5.742   2.505 -1.4276  1.0202  0.6813
  693MOL0     H93500  11.070   5.592   2.299  1.4821  1.2621  2.0663
  693MOL0     H93501  10.911   5.525   2.342  2.9479 -2.1471  1.5490
  693MOL0     H93502  10.869   5.700   2.166 -2.9680  2.3264  0.4097
  693MOL0     H93503  10.810   5.767   2.316 -1.7700 -2.7495 -0.0001
  693MOL0     H93504  11.080   5.811   2.171 -0.7447 -0.2969 -0.6547
  693MOL0     H93505  11.046   5.875   2.333 -2.8870 -0.7526  2.6418
  693MOL0     H93506  11.089   5.989   1.998  0.8607  3.7179  1.1849
  693MOL0     H93507  10.926   6.338   1.984 -3.1427 -0.7614  0.3585
  693MOL0     H93508  11.065   6.246   1.923 -0.9703  0.7764 -6.6475
  693MOL0     H93509  10.942   6.125   1.770  1.1945  1.7164  0.5062
  693MOL0     H93510  10.960   6.301   1.741 -1.1964  0.9066 -1.9174
  693MOL0     H93511  10.704   6.165   1.856 -4.4155  1.3317 -2.0804
  693MOL0     H93512  10.720   6.204   1.687  0.1004  1.5521 -0.5531
  693MOL0     H93513  10.733   6.371   1.943 -3.5116 -0.2425 -0.1506
  693MOL0     H93514  10.608   6.390   1.833 -0.0108  0.9517 -1.1082
  693MOL0     H93515  10.773   6.631   1.546 -1.1651  0.9302 -2.0788
  693MOL0     H93516  10.534   6.865   1.459 -0.4924  0.0691  0.4122
  693MOL0     H93517  10.665   6.980   1.513 -0.4319  0.2805  2.7009
  693MOL0     H93518  10.701   6.848   1.403  2.3119  2.5496  0.8068
  693MOL0     H93519  10.269   7.067   1.776 -1.9343  0.1702 -0.2191
  693MOL0     H93520  10.111   7.252   1.810 -0.5563  2.5602  0.8002
  693MOL0     H93521  10.256   7.597   2.068  2.5332 -0.6488 -0.7093
  693MOL0     H93522  10.271   7.636   1.895 -0.1192  0.6777 -0.1430
  693MOL0     H93523  10.011   7.672   1.895 -3.3105  0.9839  2.6062
  693MOL0     H93524  10.029   7.675   2.075 -3.1714  0.4023  0.2761
  693MOL0     H93525  10.216   7.864   2.010 -0.8715  0.1412  1.6120
  693MOL0     H93526  10.044   7.914   2.021  1.3005  0.7561  2.4482
  693MOL0     H93527  10.147   7.824   1.755 -1.8492 -1.4042  0.4612
  693MOL0     H93528  10.014   7.936   1.792  1.4279  2.4213 -0.7436
  693MOL0     H93529  10.204   8.069   1.713 -1.2550  0.0070 -0.7605
  693MOL0     H93530  10.305   7.983   1.831 -0.4866 -0.8629  0.3424
  693MOL0     H93531  10.087   8.183   1.900  1.0474  2.0735  1.3321
  693MOL0     H93532  10.197   8.111   2.011  1.5841 -2.0193  0.2737
  693MOL0     H93533  10.257   8.325   1.810  0.0235  2.2373  0.8105
  693MOL0     H93534  10.394   8.221   1.842 -0.2150 -0.7507  2.5282
  693MOL0     H93535  10.219   8.332   2.063 -0.9475  3.5208 -1.2350
  693MOL0     H93536  10.356   8.420   2.021 -3.9558  0.4172 -0.5612
  693MOL0     H93537  10.414   7.457   2.038  1.0179 -2.8963  4.0027
  693MOL0     H93538  10.577   7.267   1.970  0.6245 -0.4991 -0.0997
  693MOL0     H93539  10.563   6.815   1.956 -2.5520 -2.1699  0.0530
  693MOL0     H93540  10.648   6.607   1.966  0.6569  0.9804  0.7269
  693MOL0     H93541  11.099   4.985   2.822  1.2898  1.2132 -0.3077
  693MOL0     H93542  11.098   4.861   3.036 -2.7403  1.7110 -0.0052
  693MOL0     H93543  11.514   4.815   3.481  0.4325  2.0545  3.9245
  693MOL0     H93544  11.495   4.623   3.622 -2.6860 -5.2073 -0.9310
  693MOL0     H93545  11.366   4.367   3.846 -1.9144 -0.9026 -2.5242
  693MOL0     H93546  11.484   4.476   3.761  0.7788  4.9888  0.9527
  693MOL0     H93547  11.264   4.586   3.937  0.0174 -0.1627  0.5463
  693MOL0     H93548  11.390   4.668   3.883  1.1748  0.7143  2.1718
  693MOL0     H93549  11.402   4.448   4.094  2.9198 -1.2531 -2.5168
  693MOL0     H93550  11.414   4.616   4.130 -1.7502 -1.7834  0.7779
  693MOL0     H93551  11.624   4.603   3.978  1.8366  0.8934  2.2681
  693MOL0     H93552  11.595   4.430   3.969 -0.5246  1.4469 -1.3430
  693MOL0     H93553  11.770   4.494   4.352 -0.5853  0.9281 -0.0617
  693MOL0     H93554  11.075   4.622   3.606 -0.6572 -0.3345 -0.0613
  693MOL0     H93555  11.082   4.777   3.425 -1.6019 -2.3218  1.7798
  694MOL0     O93556   0.102   3.763  10.949 -0.9912  0.0560 -0.1808
  694MOL0     C93557   0.060   3.665  10.886  0.6989 -0.0596  0.3338
  694MOL0     O93558   0.068   3.531  10.936  1.0205  0.5098  0.3227
  694MOL0     C93559   0.127   3.526  11.057  0.4520  0.2492  0.9164
  694MOL0     C93560   0.259   3.543  11.076  0.0505 -0.8604  0.3971
  694MOL0     C93561   0.314   3.538  11.205 -0.7578  0.1166  0.5591
  694MOL0     C93562   0.245   3.495  11.314  0.4869  0.2478  0.4827
  694MOL0     O93563   0.290   3.475  11.437 -0.1493  0.6995  0.5866
  694MOL0     C93564   0.297   3.338  11.484  0.0338 -0.0123  0.5664
  694MOL0     C93565   0.381   3.337  11.616  0.3356 -0.5186  0.2582
  694MOL0     C93566   0.306   3.383  11.740  0.1288 -0.3836 -0.4456
  694MOL0     C93567   0.228   3.522  11.714  0.0218 -0.4327  0.8806
  694MOL0     C93568   0.143   3.555  11.838 -0.9969  0.5715  0.0726
  694MOL0     C93569   0.093   3.703  11.826 -0.2675 -0.1749 -0.9530
  694MOL0     C93570  -0.031   3.732  11.906 -0.0819 -0.1744 -0.1719
  694MOL0     C93571  -0.089   3.868  11.880 -0.0114  0.4814 -0.0576
  694MOL0     N93572  -0.203   3.895  11.978  0.4042  0.8784  0.1105
  694MOL0     C93573  -0.176   3.926  12.108  0.7832  0.2207 -0.6395
  694MOL0     C93574  -0.285   3.954  12.173 -0.4033  0.1731 -0.0711
  694MOL0     C93575  -0.289   3.967  12.324 -0.4181 -0.3386 -0.1358
  694MOL0     C93576  -0.348   3.844  12.389  0.5267  0.0440  0.2631
  694MOL0     C93577  -0.286   3.818  12.527 -0.3825  0.0262 -0.2229
  694MOL0     C93578  -0.351   3.694  12.597 -1.0692  0.2102 -0.3320
  694MOL0     O93579  -0.247   3.588  12.619  0.8913 -0.3758 -0.7558
  694MOL0     C93580  -0.146   3.602  12.711  0.8894 -0.8784  1.2202
  694MOL0     C93581  -0.081   3.488  12.725 -0.5350 -0.0111 -0.2621
  694MOL0     C93582   0.028   3.475  12.812 -1.3793  0.2812  0.3099
  694MOL0     C93583   0.108   3.352  12.803  0.2741  0.6171  0.2770
  694MOL0     C93584   0.060   3.583  12.895 -0.6888  0.0308  0.2601
  694MOL0     C93585   0.184   3.587  12.995  0.1899 -0.3353 -0.6609
  694MOL0     O93586   0.236   3.707  13.008 -0.6771  0.0148 -0.4676
  694MOL0     C93587   0.326   3.735  13.105  1.7719 -0.1166 -0.6871
  694MOL0     C93588   0.430   3.814  13.073 -0.5187 -0.6104 -0.1825
  694MOL0     C93589   0.526   3.870  13.157 -0.2162  0.5502 -0.5661
  694MOL0     C93590   0.525   3.830  13.294  0.0629  0.4041 -1.2213
  694MOL0     O93591   0.620   3.864  13.389 -0.0380  0.4174  0.0669
  694MOL0     C93592   0.675   4.005  13.389  0.7995  0.8939 -0.2384
  694MOL0     C93593   0.822   4.005  13.353 -0.4829 -0.9207 -1.1334
  694MOL0     C93594   0.885   4.148  13.314 -0.0391  0.3005  0.0408
  694MOL0     C93595   0.867   4.267  13.408 -1.3267 -0.4362 -0.5783
  694MOL0     C93596   0.924   4.271  13.552 -0.8950 -0.2581  0.0917
  694MOL0     C93597   1.085   4.259  13.557  0.0128  0.1517  0.5062
  694MOL0     C93598   1.148   4.327  13.675  0.1636 -0.4711 -0.0622
  694MOL0     C93599   1.300   4.338  13.682 -0.1236  0.9884 -1.2152
  694MOL0    Cl93600   1.375   4.177  13.701 -0.2689  0.6179  0.1671
  694MOL0     C93601   0.426   3.731  13.326  0.0357  0.7905  0.0005
  694MOL0     C93602   0.326   3.679  13.235 -0.2239  0.7123 -0.0461
  694MOL0     O93603   0.223   3.484  13.056  0.0467 -0.5532  0.3547
  694MOL0     C93604  -0.002   3.702  12.867 -0.3448  0.4723  0.1988
  694MOL0     C93605  -0.109   3.720  12.778 -0.5691  0.2212 -0.5926
  694MOL0     N93606  -0.379   3.950  12.074  0.1106  0.9080 -0.1229
  694MOL0     N93607  -0.336   3.909  11.959  0.6495 -0.7254  0.0895
  694MOL0     C93608   0.111   3.470  11.292 -0.5976  0.4374 -0.4486
  694MOL0     C93609   0.055   3.471  11.167  0.1674  0.4078  0.4856
  694MOL0     C93610  -0.006   3.691  10.759 -0.3769  0.4004 -0.8066
  694MOL0     C93611  -0.040   3.828  10.726 -0.1064  0.8305  0.5749
  694MOL0     C93612  -0.094   3.859  10.608  0.1815  0.2153 -0.8160
  694MOL0     C93613  -0.109   3.752  10.512 -0.3908 -0.6226 -0.1756
  694MOL0     O93614  -0.140   3.780  10.388 -0.3379  0.0123  0.9146
  694MOL0     C93615  -0.032   3.824  10.304 -0.0069 -0.7788 -0.2527
  694MOL0     C93616  -0.093   3.924  10.200 -0.2595  0.1308 -0.4509
  694MOL0     C93617  -0.130   4.063  10.253 -0.1239 -0.2818 -0.1695
  694MOL0     C93618  -0.185   4.159  10.149 -0.7048  0.2986  0.0629
  694MOL0     C93619  -0.173   4.297  10.198  1.0968 -0.1993 -1.2001
  694MOL0     C93620  -0.183   4.417  10.217  0.2868 -0.6953  0.2645
  694MOL0     C93621  -0.073   3.621  10.541 -0.7543  0.0065  0.4972
  694MOL0     C93622  -0.022   3.591  10.659 -0.3674  1.2196 -0.8417
  694MOL0     H93623   0.341   3.579  11.015  1.5742 -2.0313  1.6563
  694MOL0     H93624   0.420   3.548  11.225 -0.6292  1.6448 -0.7417
  694MOL0     H93625   0.198   3.300  11.507  0.8416 -2.5699  0.0968
  694MOL0     H93626   0.340   3.276  11.405 -4.1130 -1.1552 -1.0447
  694MOL0     H93627   0.430   3.241  11.633  0.0506 -0.5463  0.9512
  694MOL0     H93628   0.463   3.409  11.610 -0.3496  0.2266 -0.4035
  694MOL0     H93629   0.228   3.311  11.766  0.1346 -0.1907  0.1146
  694MOL0     H93630   0.388   3.379  11.813 -0.5517 -0.3843  0.3254
  694MOL0     H93631   0.297   3.597  11.676 -2.4288  0.9879 -1.1026
  694MOL0     H93632   0.156   3.513  11.632 -1.4475 -1.1025  2.1894
  694MOL0     H93633   0.059   3.486  11.826 -0.7333  0.7011 -3.9825
  694MOL0     H93634   0.189   3.538  11.935 -2.0479 -1.1293  0.3113
  694MOL0     H93635   0.170   3.773  11.861 -0.1834  1.1177 -3.5099
  694MOL0     H93636   0.082   3.726  11.719  3.5804  0.9783 -1.2542
  694MOL0     H93637  -0.103   3.653  11.880  0.9264 -0.9618 -0.6288
  694MOL0     H93638  -0.012   3.719  12.013  1.6019 -0.1590 -0.4438
  694MOL0     H93639  -0.103   3.883  11.772  3.9693  2.5984 -0.4559
  694MOL0     H93640  -0.008   3.938  11.903 -1.0766  2.3016 -1.5437
  694MOL0     H93641  -0.077   3.914  12.151  0.8286 -4.6142 -1.5201
  694MOL0     H93642  -0.186   3.981  12.358 -1.0573  1.1042  1.3042
  694MOL0     H93643  -0.354   4.051  12.348  1.2114  0.7884  0.5298
  694MOL0     H93644  -0.337   3.760  12.321  0.5069  1.9146 -2.1919
  694MOL0     H93645  -0.455   3.866  12.400  0.2653 -0.3882 -1.2220
  694MOL0     H93646  -0.307   3.907  12.588 -0.7046  1.6483 -2.5497
  694MOL0     H93647  -0.177   3.809  12.533 -0.1948  2.5461  2.9245
  694MOL0     H93648  -0.444   3.657  12.553 -0.4147 -0.3966 -1.2352
  694MOL0     H93649  -0.389   3.731  12.693 -0.2665  0.5578 -0.1422
  694MOL0     H93650  -0.116   3.406  12.662  1.3777 -0.0446 -1.3838
  694MOL0     H93651   0.191   3.365  12.733  1.9077 -1.8866  1.5831
  694MOL0     H93652   0.157   3.323  12.896 -1.8230 -1.8426  0.7085
  694MOL0     H93653   0.049   3.263  12.777  0.9706 -0.9603  3.5484
  694MOL0     H93654   0.442   3.835  12.967  0.9889 -0.7204 -0.0515
  694MOL0     H93655   0.604   3.938  13.125  0.9067 -0.5618 -0.2988
  694MOL0     H93656   0.623   4.071  13.318 -0.8432  0.3591  0.4237
  694MOL0     H93657   0.648   4.061  13.479 -1.1717 -0.1777 -0.1050
  694MOL0     H93658   0.880   3.957  13.432  2.0906  2.4999 -0.7026
  694MOL0     H93659   0.827   3.936  13.268 -1.4867 -4.1985  1.2352
  694MOL0     H93660   0.848   4.178  13.216 -0.9639  1.4667  0.7265
  694MOL0     H93661   0.994   4.134  13.309 -0.3092 -2.8584  0.6757
  694MOL0     H93662   0.909   4.353  13.356  0.2360 -1.8008 -1.6871
  694MOL0     H93663   0.763   4.292  13.429 -1.5319 -2.2661  0.8752
  694MOL0     H93664   0.878   4.186  13.603  3.2376 -3.9872 -1.7516
  694MOL0     H93665   0.896   4.363  13.604 -2.7511  0.4904 -2.0543
  694MOL0     H93666   1.110   4.153  13.557 -0.1804  0.0807  2.5783
  694MOL0     H93667   1.124   4.301  13.463  0.2782  1.2036  1.0690
  694MOL0     H93668   1.099   4.293  13.766 -1.3876 -0.1683 -0.7627
  694MOL0     H93669   1.113   4.430  13.668  0.1139 -0.3792  1.3228
  694MOL0     H93670   1.316   4.397  13.773 -1.3742  0.5014 -0.6557
  694MOL0     H93671   1.344   4.399  13.603  0.9256  0.8013 -0.7917
  694MOL0     H93672   0.445   3.684  13.422 -1.2101 -1.3383 -0.7278
  694MOL0     H93673   0.257   3.602  13.269 -0.8247  1.5203  0.6180
  694MOL0     H93674   0.021   3.790  12.926 -2.0516  2.0821 -1.3677
  694MOL0     H93675  -0.156   3.817  12.777 -1.7557 -0.2067 -4.5436
  694MOL0     H93676   0.047   3.440  11.374  1.1151  1.3960  1.3423
  694MOL0     H93677  -0.044   3.433  11.148  0.4400  0.8566 -2.0785
  694MOL0     H93678  -0.040   3.902  10.805  1.2105  0.5103  0.8939
  694MOL0     H93679  -0.108   3.965  10.586 -1.0328 -0.2029 -2.2535
  694MOL0     H93680   0.052   3.867  10.360 -0.1783 -1.4367  0.5259
  694MOL0     H93681   0.013   3.737  10.255 -0.8915 -0.9050 -0.8441
  694MOL0     H93682  -0.191   3.885  10.170 -1.6138  1.9334  1.2990
  694MOL0     H93683  -0.039   3.926  10.105 -0.4779 -1.9004 -0.6583
  694MOL0     H93684  -0.038   4.114  10.283  0.0992 -0.7067 -0.1203
  694MOL0     H93685  -0.205   4.058  10.333  2.4355 -3.7204  2.3490
  694MOL0     H93686  -0.289   4.128  10.132 -1.0490 -0.9704  3.6367
  694MOL0     H93687  -0.118   4.157  10.062 -0.4548 -0.7867  0.2768
  694MOL0     H93688  -0.184   4.524  10.228 -1.8524 -0.4095 -1.8344
  694MOL0     H93689  -0.071   3.549  10.459 -2.0966  2.3349 -1.7584
  694MOL0     H93690   0.032   3.498  10.672 -2.4659 -0.0796 -0.9440
  695MOL0     O93691   3.029   9.695   2.954  0.0798  0.2828  0.4810
  695MOL0     C93692   2.945   9.706   2.862  1.3748  0.2306  0.3837
  695MOL0     O93693   2.977   9.704   2.733  0.1867  0.1446 -0.0746
  695MOL0     C93694   3.081   9.616   2.691 -0.6000 -0.1658 -0.7267
  695MOL0     C93695   3.186   9.680   2.619  1.0350 -0.8853 -0.8187
  695MOL0     C93696   3.280   9.605   2.556 -0.1234 -0.4825  0.1324
  695MOL0     C93697   3.270   9.467   2.558  0.1894 -0.1832 -0.2997
  695MOL0     O93698   3.368   9.379   2.500  0.1357  0.6328 -0.0549
  695MOL0     C93699   3.504   9.432   2.485 -0.5444  0.0069 -0.3212
  695MOL0     C93700   3.527   9.486   2.342  0.3177  0.6344  1.2166
  695MOL0     C93701   3.526   9.367   2.240 -0.4566 -0.2803 -1.0268
  695MOL0     C93702   3.573   9.415   2.099 -0.1714  1.1932 -0.2725
  695MOL0     C93703   3.548   9.317   1.986  0.4940  0.4976  0.1293
  695MOL0     C93704   3.589   9.373   1.853 -0.7744  0.5234  0.1383
  695MOL0     C93705   3.482   9.461   1.796  0.2831 -0.6020 -1.0236
  695MOL0     C93706   3.492   9.473   1.641  0.0092 -0.3131 -0.3704
  695MOL0     N93707   3.369   9.492   1.570 -0.2504  0.3888 -0.2408
  695MOL0     C93708   3.275   9.585   1.614 -0.3044  0.1803  0.7572
  695MOL0     C93709   3.165   9.559   1.534 -0.2974 -0.9206 -0.0878
  695MOL0     C93710   3.031   9.632   1.529 -0.4517  0.8650 -0.5210
  695MOL0     C93711   2.950   9.595   1.646  0.4970 -0.1438 -0.6762
  695MOL0     C93712   2.812   9.659   1.648 -0.1793 -0.1988 -0.2593
  695MOL0     C93713   2.722   9.617   1.761 -0.7290  0.1636 -0.7970
  695MOL0     O93714   2.785   9.624   1.889 -0.2811 -0.0567 -0.8314
  695MOL0     C93715   2.700   9.654   1.993 -0.7259 -0.2315 -0.4835
  695MOL0     C93716   2.742   9.749   2.082  0.9320 -0.3329  0.5020
  695MOL0     C93717   2.674   9.771   2.208 -0.2244 -0.0979  1.5604
  695MOL0     C93718   2.745   9.863   2.303  0.0208 -0.0568 -0.0299
  695MOL0     C93719   2.554   9.692   2.237  0.1929 -0.5437 -0.9814
  695MOL0     C93720   2.484   9.698   2.365 -0.3703 -0.8504 -0.2396
  695MOL0     O93721   2.365   9.646   2.376 -0.1701 -0.6650  0.3306
  695MOL0     C93722   2.268   9.701   2.457 -1.0241 -0.0161 -0.2595
  695MOL0     C93723   2.280   9.818   2.540 -0.5395  0.3690 -0.5381
  695MOL0     C93724   2.174   9.850   2.627  0.0764 -1.1060  1.4629
  695MOL0     C93725   2.055   9.776   2.622 -0.5735  0.4708  0.1019
  695MOL0     O93726   1.945   9.814   2.705 -0.0304  0.0309  1.0079
  695MOL0     C93727   1.827   9.734   2.696 -0.3946 -1.0476 -0.3582
  695MOL0     C93728   1.732   9.802   2.792  0.1967 -0.0561  0.6448
  695MOL0     C93729   1.599   9.723   2.819 -0.0074  0.5288 -1.7687
  695MOL0     C93730   1.627   9.624   2.936 -0.4068 -0.0069 -0.1166
  695MOL0     C93731   1.505   9.571   2.993  0.5374 -0.2461 -0.0317
  695MOL0     C93732   1.404   9.508   2.891  0.5344  0.5202  1.0144
  695MOL0     C93733   1.472   9.389   2.823  0.7487 -0.2316  1.0340
  695MOL0     C93734   1.445   9.259   2.891 -0.1809  0.3095 -0.5243
  695MOL0    Cl93735   1.542   9.234   3.029  0.0398 -0.1753  0.7583
  695MOL0     C93736   2.046   9.668   2.540 -0.0724 -0.2671 -0.8306
  695MOL0     C93737   2.149   9.631   2.464 -0.4592 -0.5961  0.6786
  695MOL0     O93738   2.537   9.761   2.454 -0.0926 -0.3828  0.2401
  695MOL0     C93739   2.511   9.597   2.143  0.1411  0.6820 -0.4905
  695MOL0     C93740   2.573   9.595   2.019  0.4387  0.9716 -0.5014
  695MOL0     N93741   3.200   9.458   1.454  0.1711 -0.5954  0.6604
  695MOL0     N93742   3.316   9.412   1.474 -0.3156 -0.4610 -0.0761
  695MOL0     C93743   3.158   9.403   2.611 -0.2078 -0.2165 -0.1775
  695MOL0     C93744   3.053   9.479   2.683  0.4208  0.1420  0.7606
  695MOL0     C93745   2.809   9.754   2.903  0.6619  1.0379 -0.7237
  695MOL0     C93746   2.704   9.778   2.814  1.2476  0.1196 -1.1669
  695MOL0     C93747   2.579   9.839   2.852 -0.9422 -0.1597 -0.8298
  695MOL0     C93748   2.561   9.868   2.993  0.0011  0.0135  0.0821
  695MOL0     O93749   2.449   9.925   3.047  0.0510  0.5404 -0.0032
  695MOL0     C93750   2.328   9.931   2.966  0.5470 -0.3885 -0.3625
  695MOL0     C93751   2.240   9.807   2.974  0.2171  0.2856  0.8533
  695MOL0     C93752   2.224   9.764   3.127  0.8658 -0.6700 -0.3113
  695MOL0     C93753   2.170   9.624   3.151  0.1493  0.7212  0.2020
  695MOL0     C93754   2.040   9.601   3.211  0.2868 -0.0047 -0.6930
  695MOL0     C93755   1.931   9.572   3.261 -0.3516  0.4586  0.0447
  695MOL0     C93756   2.666   9.840   3.081 -1.1101  0.4914  0.4858
  695MOL0     C93757   2.785   9.787   3.040 -0.1702  0.0685  0.2653
  695MOL0     H93758   3.191   9.788   2.610  1.1948 -0.7021  1.1855
  695MOL0     H93759   3.363   9.657   2.510  1.5155 -0.3237  3.0354
  695MOL0     H93760   3.520   9.515   2.555 -0.0670 -0.6117  0.3147
  695MOL0     H93761   3.581   9.354   2.488  0.6267  1.1093 -0.3564
  695MOL0     H93762   3.447   9.555   2.315 -0.9732 -0.6791  1.5323
  695MOL0     H93763   3.616   9.549   2.340 -1.3110  3.1653 -2.1380
  695MOL0     H93764   3.580   9.283   2.284 -4.0454 -0.7474  3.1659
  695MOL0     H93765   3.423   9.340   2.216 -0.6751  1.3943 -2.1303
  695MOL0     H93766   3.509   9.503   2.084 -1.0352  0.8059  0.9388
  695MOL0     H93767   3.677   9.448   2.103 -0.3808  1.8340  0.1950
  695MOL0     H93768   3.611   9.228   2.000  0.4373  0.5397  0.6923
  695MOL0     H93769   3.441   9.294   1.981 -0.3355  3.9084 -0.5633
  695MOL0     H93770   3.681   9.432   1.862  2.5529 -4.1674  0.6826
  695MOL0     H93771   3.604   9.292   1.780  0.7746  0.1732  0.7975
  695MOL0     H93772   3.382   9.436   1.831 -0.7676  1.1096 -2.6526
  695MOL0     H93773   3.493   9.564   1.831 -0.6961 -0.7677 -0.1935
  695MOL0     H93774   3.542   9.383   1.602  3.6961  1.5206 -0.3059
  695MOL0     H93775   3.560   9.553   1.609 -1.4425 -0.1311 -3.3754
  695MOL0     H93776   3.287   9.665   1.687  1.3465 -0.3227  1.0776
  695MOL0     H93777   3.051   9.740   1.531 -1.0397  1.0049  1.9375
  695MOL0     H93778   2.977   9.604   1.439  0.6700 -0.4190 -0.8277
  695MOL0     H93779   3.002   9.627   1.737  0.3209  0.7222 -0.8771
  695MOL0     H93780   2.933   9.487   1.638 -0.0348 -0.0780 -0.4729
  695MOL0     H93781   2.757   9.619   1.562  0.2308  0.5045 -0.8682
  695MOL0     H93782   2.811   9.769   1.645 -0.8508 -0.2111 -2.4925
  695MOL0     H93783   2.695   9.512   1.748  0.7141 -0.1519 -1.4661
  695MOL0     H93784   2.626   9.670   1.760 -0.6168  0.4561  1.0835
  695MOL0     H93785   2.836   9.794   2.051  0.7030 -0.4067 -0.3099
  695MOL0     H93786   2.789   9.801   2.382 -3.4108  0.0302  2.1200
  695MOL0     H93787   2.830   9.920   2.262 -1.3787  2.3313  0.2237
  695MOL0     H93788   2.674   9.937   2.342 -0.7598  0.6746 -2.6148
  695MOL0     H93789   2.368   9.880   2.553  0.8536 -1.0789 -2.5844
  695MOL0     H93790   2.181   9.944   2.680  1.1569 -0.2274 -0.1463
  695MOL0     H93791   1.798   9.737   2.590  2.2618  2.2252 -1.1293
  695MOL0     H93792   1.843   9.631   2.730  2.0772 -0.4517  0.4801
  695MOL0     H93793   1.766   9.827   2.892  1.0926  0.5118  0.2097
  695MOL0     H93794   1.714   9.901   2.749 -2.3781  1.5194  4.7509
  695MOL0     H93795   1.563   9.671   2.729  1.5284 -0.5013 -1.8264
  695MOL0     H93796   1.515   9.785   2.853  1.1689  1.1486  0.1788
  695MOL0     H93797   1.702   9.549   2.910 -0.7257 -0.5624  0.5557
  695MOL0     H93798   1.676   9.673   3.020  1.5397 -0.2024 -1.0891
  695MOL0     H93799   1.450   9.652   3.041 -1.2392 -1.6059  0.2981
  695MOL0     H93800   1.542   9.490   3.056  0.7624 -1.7649 -2.0225
  695MOL0     H93801   1.320   9.468   2.949 -3.0501 -0.6413 -4.3273
  695MOL0     H93802   1.357   9.581   2.825  0.1820  1.8172  2.6343
  695MOL0     H93803   1.578   9.409   2.812  0.5451  1.0353  1.2767
  695MOL0     H93804   1.425   9.385   2.724 -2.0817 -1.7199  2.2933
  695MOL0     H93805   1.461   9.180   2.817 -3.3632 -0.2061 -0.8155
  695MOL0     H93806   1.340   9.249   2.920 -0.3036 -0.5085 -1.2156
  695MOL0     H93807   1.951   9.620   2.519 -1.0489  0.0761  2.2591
  695MOL0     H93808   2.143   9.540   2.405  2.3697  1.1127 -2.6069
  695MOL0     H93809   2.428   9.529   2.158  0.5707  0.7576  2.8551
  695MOL0     H93810   2.537   9.521   1.949  1.1978 -2.0869  2.1323
  695MOL0     H93811   3.143   9.295   2.602  0.0921 -0.0972 -3.4658
  695MOL0     H93812   2.978   9.430   2.744  0.6611  1.3866  2.1076
  695MOL0     H93813   2.710   9.740   2.712 -0.5639 -0.9319 -0.9021
  695MOL0     H93814   2.505   9.859   2.776 -4.4307 -0.5217  2.1958
  695MOL0     H93815   2.276  10.022   2.997  1.3960  1.1521 -3.1369
  695MOL0     H93816   2.346   9.958   2.861 -3.1575 -0.2878 -1.1049
  695MOL0     H93817   2.285   9.727   2.913  0.5299  1.8827 -1.1229
  695MOL0     H93818   2.143   9.832   2.930  0.7646  1.5289  0.2990
  695MOL0     H93819   2.152   9.836   3.167  3.2579  1.5289  0.2994
  695MOL0     H93820   2.321   9.784   3.174  1.5732  1.1520 -2.3925
  695MOL0     H93821   2.245   9.566   3.205  0.7015  1.3764  0.1621
  695MOL0     H93822   2.163   9.584   3.049 -0.7395  2.8103 -0.6048
  695MOL0     H93823   1.844   9.523   3.300  0.7909 -1.4750  0.3232
  695MOL0     H93824   2.651   9.866   3.185  1.4932 -0.5272  1.2119
  695MOL0     H93825   2.857   9.763   3.118  2.7157  2.6238 -1.3916
  696MOL0     O93826   3.715  11.473   4.167 -0.4824  0.4937 -0.3748
  696MOL0     C93827   3.743  11.360   4.214  0.0373  0.7212  0.4038
  696MOL0     O93828   3.852  11.286   4.188 -0.3389  0.3362  1.4457
  696MOL0     C93829   3.951  11.310   4.094 -0.3205 -0.3268 -0.9539
  696MOL0     C93830   3.952  11.404   3.997  1.0158  0.3296  0.1317
  696MOL0     C93831   4.063  11.419   3.913  1.6057 -0.2385 -0.2304
  696MOL0     C93832   4.168  11.326   3.914  1.2284  0.4491 -0.1897
  696MOL0     O93833   4.268  11.335   3.820  0.0354 -0.0565 -0.2115
  696MOL0     C93834   4.269  11.216   3.721  0.5175 -0.0663  0.0490
  696MOL0     C93835   4.372  11.253   3.610 -0.2702  1.2457  0.3143
  696MOL0     C93836   4.346  11.378   3.535 -1.0262  0.1166  0.8523
  696MOL0     C93837   4.422  11.397   3.402  0.3999 -0.3191 -0.1969
  696MOL0     C93838   4.405  11.539   3.350  0.4376  0.9991  0.9178
  696MOL0     C93839   4.499  11.551   3.231  0.2904 -0.1457 -0.2004
  696MOL0     C93840   4.516  11.694   3.187  0.9512  0.2249  0.4541
  696MOL0     C93841   4.612  11.773   3.286 -0.1755 -0.9904 -0.5806
  696MOL0     N93842   4.618  11.916   3.252  0.5205  0.1895  1.0999
  696MOL0     C93843   4.685  11.952   3.142 -0.6355 -1.0192 -0.1388
  696MOL0     C93844   4.638  12.084   3.118 -0.3143  0.3488  0.1484
  696MOL0     C93845   4.675  12.187   3.015  0.6287  0.2931  0.0959
  696MOL0     C93846   4.649  12.130   2.881 -0.0369  0.6073  0.2115
  696MOL0     C93847   4.507  12.069   2.861 -0.9145 -0.4725 -0.7120
  696MOL0     C93848   4.490  12.034   2.719  0.0740  0.3087 -0.2303
  696MOL0     O93849   4.568  11.919   2.691 -0.3966  0.2734  0.2453
  696MOL0     C93850   4.522  11.796   2.711 -0.3843  0.3943  0.6807
  696MOL0     C93851   4.614  11.700   2.677 -0.3096  0.6562 -0.0071
  696MOL0     C93852   4.600  11.562   2.698  0.7022  0.2066 -0.0505
  696MOL0     C93853   4.721  11.484   2.676 -0.3045  0.0994  0.0900
  696MOL0     C93854   4.478  11.519   2.754 -0.4727  0.1699 -0.7090
  696MOL0     C93855   4.442  11.389   2.808  0.5273 -0.6260  0.6486
  696MOL0     O93856   4.336  11.381   2.899  0.1791 -0.8439  0.6732
  696MOL0     C93857   4.295  11.245   2.901 -0.8046  0.9087 -0.5381
  696MOL0     C93858   4.357  11.159   3.001 -0.4553  0.1325  1.4344
  696MOL0     C93859   4.323  11.026   3.011  0.1343 -0.0713  0.2213
  696MOL0     C93860   4.214  10.981   2.926  0.2289 -0.3134 -0.1517
  696MOL0     O93861   4.179  10.852   2.932 -0.5671  0.2585 -0.7461
  696MOL0     C93862   4.052  10.800   2.898  0.2055 -0.2705 -0.3743
  696MOL0     C93863   4.070  10.648   2.862  0.2431  0.2035  0.7236
  696MOL0     C93864   4.113  10.570   2.990  0.7141 -0.7244  0.4064
  696MOL0     C93865   4.127  10.417   2.965 -0.9343  0.6358 -0.5825
  696MOL0     C93866   4.188  10.327   3.074 -0.4190 -0.8278  0.2212
  696MOL0     C93867   4.114  10.344   3.206  0.1377  0.0861 -0.1462
  696MOL0     C93868   4.173  10.266   3.321  0.3365 -0.5238  0.0985
  696MOL0     C93869   4.067  10.263   3.435  0.7529 -0.0757 -0.3578
  696MOL0    Cl93870   4.133  10.198   3.577 -0.0577  0.7925  0.0575
  696MOL0     C93871   4.163  11.068   2.827 -0.3718  0.0290 -0.9975
  696MOL0     C93872   4.197  11.197   2.812 -0.3967  0.3111  1.0383
  696MOL0     O93873   4.510  11.292   2.769  0.2447  0.1864  0.5570
  696MOL0     C93874   4.387  11.617   2.787  0.7713 -1.1595  0.4409
  696MOL0     C93875   4.402  11.756   2.771  0.9215 -0.0777 -0.7755
  696MOL0     N93876   4.538  12.118   3.202  0.1400  0.7371 -0.7879
  696MOL0     N93877   4.532  12.018   3.290 -0.3197 -0.6186  0.6904
  696MOL0     C93878   4.164  11.217   3.993  0.0435  0.8956 -0.4073
  696MOL0     C93879   4.052  11.214   4.085  0.4080 -0.3778 -0.1543
  696MOL0     C93880   3.662  11.300   4.325  0.2152  0.1109  0.3079
  696MOL0     C93881   3.519  11.325   4.326  0.4483  0.4884 -0.2382
  696MOL0     C93882   3.445  11.292   4.444 -1.1063 -0.7164  0.5536
  696MOL0     C93883   3.510  11.226   4.550  0.5697  0.0476  0.4893
  696MOL0     O93884   3.443  11.178   4.657  0.2712  0.3740 -0.1537
  696MOL0     C93885   3.353  11.274   4.713 -0.8756  0.4115 -0.2635
  696MOL0     C93886   3.359  11.241   4.868 -0.0233  0.5030  0.3581
  696MOL0     C93887   3.279  11.120   4.901  0.5469 -0.5028 -0.8073
  696MOL0     C93888   3.370  11.020   4.977  0.0190  0.7998 -0.8143
  696MOL0     C93889   3.386  11.038   5.126 -0.6150  0.5275 -0.3362
  696MOL0     C93890   3.413  11.031   5.244  0.2157  0.0397 -0.1565
  696MOL0     C93891   3.648  11.201   4.547  0.2317 -0.2016  0.4663
  696MOL0     C93892   3.726  11.237   4.436  1.5072 -1.0992 -0.0863
  696MOL0     H93893   3.867  11.467   3.971  0.9137  0.8846  1.6932
  696MOL0     H93894   4.067  11.495   3.836  0.6206  1.4590  1.3139
  696MOL0     H93895   4.298  11.128   3.779 -3.6590 -0.5197  1.7470
  696MOL0     H93896   4.170  11.199   3.678  0.6112 -1.4437  0.3242
  696MOL0     H93897   4.474  11.264   3.649  0.6188 -0.9360 -1.1607
  696MOL0     H93898   4.383  11.171   3.537 -0.1266  0.6254  1.0213
  696MOL0     H93899   4.239  11.379   3.511 -0.9541 -1.2389  0.3464
  696MOL0     H93900   4.368  11.451   3.613  1.0078 -3.2010  3.6592
  696MOL0     H93901   4.528  11.375   3.415  0.2056 -0.3318  1.6609
  696MOL0     H93902   4.370  11.335   3.328  1.7720  3.2278 -4.6086
  696MOL0     H93903   4.301  11.567   3.335  0.3371  1.8125  2.9462
  696MOL0     H93904   4.443  11.598   3.433 -0.9822  2.6569  0.4478
  696MOL0     H93905   4.598  11.511   3.253 -0.6948 -2.6409  0.0738
  696MOL0     H93906   4.464  11.491   3.146 -0.0356  2.1949 -1.7970
  696MOL0     H93907   4.563  11.704   3.088  1.0888 -2.9926  0.0727
  696MOL0     H93908   4.423  11.751   3.178  1.7474  1.7985  1.7391
  696MOL0     H93909   4.715  11.739   3.273  0.0207  0.3611 -3.4135
  696MOL0     H93910   4.592  11.763   3.393  3.7539 -0.4765  0.3449
  696MOL0     H93911   4.762  11.900   3.087 -0.4155 -0.0799 -0.7513
  696MOL0     H93912   4.613  12.273   3.042 -0.3847 -0.8948  1.7780
  696MOL0     H93913   4.783  12.205   3.017  0.6340  0.5346 -1.3055
  696MOL0     H93914   4.721  12.049   2.867 -0.9563 -0.0216 -1.1960
  696MOL0     H93915   4.665  12.198   2.796 -3.5270  1.1126 -0.2238
  696MOL0     H93916   4.436  12.148   2.888  0.7625  0.1775  2.3662
  696MOL0     H93917   4.510  11.975   2.917  1.4748 -1.1622 -1.8555
  696MOL0     H93918   4.513  12.120   2.656  0.1225  0.7174  0.3417
  696MOL0     H93919   4.383  12.014   2.706  0.4544 -2.4641  0.1399
  696MOL0     H93920   4.708  11.733   2.636  0.5896  0.6277  1.9287
  696MOL0     H93921   4.701  11.377   2.677  1.6167 -0.3000  0.8759
  696MOL0     H93922   4.760  11.510   2.577 -0.5185  0.2858  0.0542
  696MOL0     H93923   4.794  11.522   2.749  1.8293 -0.0838 -1.8436
  696MOL0     H93924   4.427  11.200   3.072  0.5566  2.2307 -0.6385
  696MOL0     H93925   4.368  10.964   3.088  0.3014  1.0918  1.0904
  696MOL0     H93926   3.987  10.818   2.984  0.5910  5.4682 -0.9207
  696MOL0     H93927   4.008  10.850   2.812 -2.6064 -2.4905 -0.3781
  696MOL0     H93928   3.975  10.606   2.828  0.2316 -0.2874  1.3342
  696MOL0     H93929   4.145  10.636   2.784 -1.6442 -1.0558 -1.0116
  696MOL0     H93930   4.040  10.592   3.068  2.0271 -0.7861  1.7000
  696MOL0     H93931   4.204  10.618   3.028  1.0419 -1.5915  0.7298
  696MOL0     H93932   4.038  10.358   2.938 -1.2013 -1.0920  3.3504
  696MOL0     H93933   4.195  10.404   2.881  2.4082  0.5625  1.9172
  696MOL0     H93934   4.290  10.367   3.079 -0.0956 -1.2422 -1.9950
  696MOL0     H93935   4.194  10.221   3.048 -3.7508 -0.7160 -1.5637
  696MOL0     H93936   4.110  10.449   3.236 -2.3629 -0.2404  0.8902
  696MOL0     H93937   4.011  10.311   3.190  0.2291  1.2041 -4.5091
  696MOL0     H93938   4.255  10.331   3.353  0.4772  1.0498 -3.0679
  696MOL0     H93939   4.218  10.170   3.295 -1.9932 -1.4439 -0.7948
  696MOL0     H93940   3.988  10.199   3.393  0.8885 -0.4678 -0.0174
  696MOL0     H93941   4.030  10.363   3.461 -1.0296 -0.6540 -0.5628
  696MOL0     H93942   4.084  11.028   2.764  0.6546 -1.0496 -1.6368
  696MOL0     H93943   4.164  11.266   2.735  1.0724  1.7280  1.6039
  696MOL0     H93944   4.299  11.599   2.848  1.6674 -1.6403  1.6442
  696MOL0     H93945   4.331  11.831   2.805 -1.0579 -2.6516  1.1369
  696MOL0     H93946   4.251  11.153   4.006 -0.3698  0.1554 -1.1812
  696MOL0     H93947   4.048  11.136   4.160  2.5856 -0.7374 -0.3381
  696MOL0     H93948   3.483  11.388   4.245  0.5214 -0.9946 -1.4653
  696MOL0     H93949   3.342  11.324   4.433  0.0669  2.6578 -3.4496
  696MOL0     H93950   3.400  11.372   4.702 -4.2159  2.1799 -0.1477
  696MOL0     H93951   3.251  11.277   4.674 -1.5278 -0.9258  1.2423
  696MOL0     H93952   3.316  11.334   4.907  3.1841  1.8597  1.0020
  696MOL0     H93953   3.458  11.247   4.912  0.1392  2.7303 -0.2008
  696MOL0     H93954   3.251  11.079   4.804  3.0337 -2.0104 -0.9743
  696MOL0     H93955   3.194  11.154   4.961  1.5720  2.3686 -0.8192
  696MOL0     H93956   3.471  11.022   4.935  0.1565 -0.5039 -0.5785
  696MOL0     H93957   3.333  10.917   4.970 -1.5757  1.1607  1.4389
  696MOL0     H93958   3.424  11.031   5.350  0.4352  4.6472  0.0128
  696MOL0     H93959   3.699  11.148   4.627  0.7801  0.8914  0.8532
  696MOL0     H93960   3.833  11.222   4.433  1.6082 -0.5229  0.4813
  697MOL0     O93961  10.611  10.843   9.571 -0.4927 -0.7958 -1.0024
  697MOL0     C93962  10.492  10.862   9.525 -0.4180  0.5649  0.4148
  697MOL0     O93963  10.380  10.842   9.601  0.1222 -0.0870  0.0446
  697MOL0     C93964  10.402  10.829   9.738 -0.0947  0.7726  0.2445
  697MOL0     C93965  10.369  10.709   9.794  0.6994  0.7281 -0.4081
  697MOL0     C93966  10.390  10.686   9.928 -0.1917  0.9522  0.3643
  697MOL0     C93967  10.459  10.774  10.006  0.3550 -1.0591  0.0326
  697MOL0     O93968  10.500  10.760  10.136 -0.5771 -0.0150  0.6919
  697MOL0     C93969  10.447  10.665  10.228 -0.0602 -0.0346  0.5602
  697MOL0     C93970  10.526  10.676  10.361 -0.1337  0.1012  0.0293
  697MOL0     C93971  10.515  10.794  10.459  0.2173  0.2092  0.1160
  697MOL0     C93972  10.380  10.826  10.495 -0.1557 -0.3950  0.1980
  697MOL0     C93973  10.354  10.977  10.523 -0.9147  0.1080  0.8011
  697MOL0     C93974  10.216  11.006  10.559  0.7998  0.9245  0.6471
  697MOL0     C93975  10.119  11.021  10.436 -0.4855 -0.4254  0.0041
  697MOL0     C93976  10.070  11.165  10.404 -1.1003 -0.0568  0.4942
  697MOL0     N93977  10.186  11.254  10.373  0.2598 -0.6503 -0.2711
  697MOL0     C93978  10.293  11.227  10.282 -0.0883  1.5021 -0.3493
  697MOL0     C93979  10.398  11.312  10.304  1.4514 -0.7800  0.1144
  697MOL0     C93980  10.531  11.306  10.237  0.4992 -0.1517 -0.3090
  697MOL0     C93981  10.536  11.307  10.083 -0.9152 -0.6619  0.3580
  697MOL0     C93982  10.434  11.404  10.016 -0.4131  0.3941  0.0755
  697MOL0     C93983  10.444  11.393   9.862 -0.4809  0.3128 -0.9409
  697MOL0     O93984  10.579  11.385   9.812  0.1882  0.6108  0.0543
  697MOL0     C93985  10.587  11.427   9.685  0.2870  0.9521 -0.3395
  697MOL0     C93986  10.533  11.357   9.573  0.4779 -1.2657 -0.0227
  697MOL0     C93987  10.508  11.414   9.449 -0.5712 -0.4750  0.1416
  697MOL0     C93988  10.442  11.337   9.334  1.0118  0.6227  0.0128
  697MOL0     C93989  10.548  11.549   9.447  0.2646 -1.1174 -0.2988
  697MOL0     C93990  10.529  11.619   9.324 -0.0042 -0.5569 -1.2891
  697MOL0     O93991  10.422  11.708   9.302  0.7337  0.6554 -0.7167
  697MOL0     C93992  10.327  11.701   9.397  0.5553  0.3237 -0.3206
  697MOL0     C93993  10.209  11.628   9.375 -0.2303 -0.8909 -0.5332
  697MOL0     C93994  10.105  11.630   9.468 -0.1692  0.4627 -0.5302
  697MOL0     C93995  10.121  11.710   9.585  0.3823 -0.8317  0.8276
  697MOL0     O93996  10.014  11.713   9.671 -0.8802  0.2799 -0.2874
  697MOL0     C93997  10.043  11.775   9.798 -0.5581  1.3996  1.0395
  697MOL0     C93998   9.922  11.752   9.890  0.3503  0.4219  0.4985
  697MOL0     C93999   9.890  11.604   9.910 -0.8103 -0.5660 -0.4517
  697MOL0     C94000   9.972  11.540  10.022  0.0391  0.3272  0.0137
  697MOL0     C94001   9.902  11.415  10.073  0.2722 -0.2575 -0.5509
  697MOL0     C94002   9.770  11.449  10.139 -0.2057 -0.2248 -0.2985
  697MOL0     C94003   9.689  11.325  10.182  0.1279  0.8292 -0.4993
  697MOL0     C94004   9.553  11.367  10.234  0.1980 -0.6338 -0.4279
  697MOL0    Cl94005   9.578  11.438  10.394 -0.7191 -0.1202  0.6812
  697MOL0     C94006  10.233  11.783   9.605 -0.1516 -0.0008 -0.8294
  697MOL0     C94007  10.332  11.783   9.510  0.8577 -0.4772  0.3036
  697MOL0     O94008  10.630  11.603   9.247  0.4683  0.1357 -0.1813
  697MOL0     C94009  10.607  11.621   9.551 -0.8685  0.2132  0.3394
  697MOL0     C94010  10.636  11.546   9.669 -0.0066 -0.7666 -0.2471
  697MOL0     N94011  10.361  11.400  10.401  0.3998  0.9008  0.0037
  697MOL0     N94012  10.243  11.357  10.448 -0.1504  0.2435  0.3646
  697MOL0     C94013  10.494  10.899   9.951  0.3566  1.2691  0.2590
  697MOL0     C94014  10.467  10.926   9.821  0.6298 -0.6823 -0.0292
  697MOL0     C94015  10.474  10.867   9.377 -0.6856 -0.1989 -0.4421
  697MOL0     C94016  10.363  10.927   9.329 -1.1471 -0.6165  0.0246
  697MOL0     C94017  10.338  10.940   9.190 -0.1880  1.0773 -0.1338
  697MOL0     C94018  10.420  10.893   9.091 -0.5092  0.6079 -0.4810
  697MOL0     O94019  10.385  10.910   8.963  0.2966 -0.7919  0.3304
  697MOL0     C94020  10.401  10.802   8.866  1.0686  0.6244 -0.9201
  697MOL0     C94021  10.280  10.804   8.779 -0.6510  0.8928  1.3456
  697MOL0     C94022  10.287  10.911   8.667 -0.7250  0.2612  0.0207
  697MOL0     C94023  10.194  10.884   8.544 -0.2002  0.4953  0.6257
  697MOL0     C94024  10.063  10.837   8.587 -0.6528 -0.0329  0.6838
  697MOL0     C94025   9.953  10.807   8.621 -0.7330  0.2720  0.1004
  697MOL0     C94026  10.538  10.833   9.137 -0.2378  0.2871 -0.0327
  697MOL0     C94027  10.565  10.823   9.283 -0.6811  0.0826  0.2370
  697MOL0     H94028  10.319  10.628   9.741  1.6564 -1.3969  1.7144
  697MOL0     H94029  10.361  10.592   9.975  0.6549 -0.3243 -1.5462
  697MOL0     H94030  10.339  10.656  10.242 -0.2184 -1.0293 -1.0020
  697MOL0     H94031  10.470  10.567  10.185 -2.3947 -0.9812  1.3230
  697MOL0     H94032  10.499  10.586  10.417  1.0939  0.5950  1.4618
  697MOL0     H94033  10.631  10.669  10.331  0.1888  3.3955  0.0615
  697MOL0     H94034  10.572  10.781  10.551  2.2357  0.1427 -1.0834
  697MOL0     H94035  10.548  10.886  10.409  1.5975  0.6317  1.7139
  697MOL0     H94036  10.309  10.793  10.419  0.5308  0.6308 -0.9144
  697MOL0     H94037  10.366  10.770  10.589  0.3309  0.0825  0.5606
  697MOL0     H94038  10.418  10.991  10.610 -0.5140 -1.1595  0.7314
  697MOL0     H94039  10.397  11.034  10.441  2.3882  0.7612  2.8091
  697MOL0     H94040  10.179  10.918  10.614  3.6532  0.4910  2.0585
  697MOL0     H94041  10.207  11.094  10.624 -0.8775 -0.0542  1.8132
  697MOL0     H94042  10.162  10.965  10.353  0.4118 -1.3677  1.0605
  697MOL0     H94043  10.030  10.964  10.463 -0.2879 -1.5190 -1.5347
  697MOL0     H94044  10.004  11.203  10.482 -0.0665 -0.9998  1.8896
  697MOL0     H94045  10.020  11.142  10.310 -1.0828 -0.4038  0.5671
  697MOL0     H94046  10.296  11.149  10.207 -0.0458  0.2260  0.9345
  697MOL0     H94047  10.582  11.396  10.269 -0.1545 -0.1467  0.7547
  697MOL0     H94048  10.584  11.219  10.278  0.7526  0.3341  0.4027
  697MOL0     H94049  10.514  11.206  10.048 -1.1660 -1.0089  1.5081
  697MOL0     H94050  10.637  11.337  10.051 -0.3426 -1.8201  0.9997
  697MOL0     H94051  10.438  11.510  10.044  1.3153  1.7894 -4.5001
  697MOL0     H94052  10.336  11.367  10.047  0.0676 -1.7557 -0.7814
  697MOL0     H94053  10.403  11.492   9.842 -2.0984  0.3535  2.0063
  697MOL0     H94054  10.381  11.312   9.824  1.4976 -1.6911 -0.1828
  697MOL0     H94055  10.488  11.258   9.575  1.0952 -1.5621 -0.3901
  697MOL0     H94056  10.509  11.300   9.255  0.6293  1.2657 -0.6284
  697MOL0     H94057  10.378  11.258   9.373  0.2908  0.2922 -1.7643
  697MOL0     H94058  10.372  11.400   9.279 -0.0125 -0.1783  0.3690
  697MOL0     H94059  10.197  11.570   9.284 -0.1635 -0.4306 -0.8412
  697MOL0     H94060  10.006  11.587   9.449 -1.6895  3.1261  0.8855
  697MOL0     H94061  10.113  11.722   9.864 -3.5977 -1.4142  2.2719
  697MOL0     H94062  10.072  11.880   9.783 -3.9643  2.3317  0.1010
  697MOL0     H94063   9.936  11.803   9.986 -0.6701  2.0324 -0.1687
  697MOL0     H94064   9.832  11.798   9.848  2.2900  3.6740 -0.4062
  697MOL0     H94065   9.897  11.553   9.813  0.3406 -1.0194 -0.1532
  697MOL0     H94066   9.783  11.621   9.921 -0.5822  3.8649 -2.5785
  697MOL0     H94067  10.072  11.511   9.991 -0.2006  0.7434 -1.1941
  697MOL0     H94068   9.976  11.610  10.106 -0.5657 -2.2197  2.3476
  697MOL0     H94069   9.975  11.361  10.134 -0.4965  1.0796  1.6746
  697MOL0     H94070   9.883  11.360   9.980 -4.3360 -0.7458  0.4566
  697MOL0     H94071   9.786  11.502  10.233  2.2150 -2.7516  0.8534
  697MOL0     H94072   9.700  11.511  10.082 -1.8154  0.2656  2.0728
  697MOL0     H94073   9.744  11.276  10.263  0.7418  3.7309  0.9755
  697MOL0     H94074   9.678  11.267  10.091  1.3780  1.2043 -0.9054
  697MOL0     H94075   9.492  11.277  10.240 -0.6300  0.0025  1.7267
  697MOL0     H94076   9.508  11.445  10.171  2.5625  1.6937  0.5454
  697MOL0     H94077  10.235  11.859   9.683 -2.0381  0.0733 -0.8038
  697MOL0     H94078  10.412  11.854   9.529 -0.2185  1.4848 -1.9665
  697MOL0     H94079  10.639  11.723   9.531  1.4201 -0.4343  0.4282
  697MOL0     H94080  10.691  11.594   9.750  1.1397  1.7471 -2.3815
  697MOL0     H94081  10.528  10.975  10.021  1.4846  2.8350 -1.8529
  697MOL0     H94082  10.496  11.025   9.787  0.4150 -1.0102 -1.2036
  697MOL0     H94083  10.283  10.967   9.391 -1.4471  0.3439 -0.9611
  697MOL0     H94084  10.250  10.982   9.143 -0.8000 -0.3662 -0.3444
  697MOL0     H94085  10.490  10.820   8.805  0.2990 -1.1887 -2.6857
  697MOL0     H94086  10.400  10.706   8.919 -1.8984  2.2373  2.3602
  697MOL0     H94087  10.192  10.811   8.842 -0.1552 -2.7262  2.7195
  697MOL0     H94088  10.275  10.701   8.743 -2.1771  2.1740 -2.6251
  697MOL0     H94089  10.390  10.906   8.631 -0.5385 -3.9816  0.5865
  697MOL0     H94090  10.272  11.012   8.706  1.0410 -0.7540  3.7857
  697MOL0     H94091  10.238  10.803   8.485  2.5526  0.5507  2.4482
  697MOL0     H94092  10.203  10.971   8.479 -0.4197  0.5412  0.6515
  697MOL0     H94093   9.866  10.753   8.653 -0.7668 -0.7001 -1.5157
  697MOL0     H94094  10.608  10.795   9.064  0.3076  1.0782  0.0724
  697MOL0     H94095  10.652  10.768   9.317 -1.2720 -1.3020 -0.4183
  698MOL0     O94096   6.542   5.682   2.627 -0.2034  0.1384  0.1236
  698MOL0     C94097   6.592   5.575   2.663 -1.0309  0.2453 -0.2049
  698MOL0     O94098   6.646   5.558   2.785 -0.1647 -0.3483  0.2954
  698MOL0     C94099   6.647   5.644   2.891 -1.3767 -0.8927 -0.1438
  698MOL0     C94100   6.621   5.582   3.016  0.7603  0.2535 -0.3103
  698MOL0     C94101   6.615   5.658   3.125  0.2898 -0.3220  0.4563
  698MOL0     C94102   6.648   5.795   3.125 -0.7398 -0.0723 -0.4117
  698MOL0     O94103   6.630   5.868   3.239 -0.5914  0.4728 -0.1607
  698MOL0     C94104   6.751   5.926   3.288 -0.5389  0.4271  0.2178
  698MOL0     C94105   6.866   5.829   3.318 -0.2156  0.2615 -0.9166
  698MOL0     C94106   6.818   5.729   3.427 -0.5596 -0.5970  1.2775
  698MOL0     C94107   6.907   5.611   3.440  0.8228 -0.0647 -0.1749
  698MOL0     C94108   7.042   5.645   3.515  0.4188 -0.0204 -0.1791
  698MOL0     C94109   7.152   5.541   3.495  0.5524 -0.5983  0.6294
  698MOL0     C94110   7.222   5.566   3.357 -0.9450  0.2996  0.2946
  698MOL0     C94111   7.352   5.647   3.388  0.8473  0.3932  0.4119
  698MOL0     N94112   7.446   5.672   3.277 -0.2113  0.6726  0.7107
  698MOL0     C94113   7.414   5.743   3.163  0.3839  0.2039  0.3945
  698MOL0     C94114   7.521   5.737   3.086 -0.3945 -0.8190  0.3908
  698MOL0     C94115   7.540   5.791   2.947 -0.0557 -0.3411  0.1091
  698MOL0     C94116   7.565   5.950   2.962 -0.2627  0.8861  0.3495
  698MOL0     C94117   7.641   6.006   2.858 -0.5972 -0.3242  0.7499
  698MOL0     C94118   7.613   5.966   2.710  0.7033  0.3497  0.2332
  698MOL0     O94119   7.469   5.969   2.681  0.1297 -0.1998  0.5112
  698MOL0     C94120   7.433   6.032   2.564 -0.2511 -0.9480 -0.4146
  698MOL0     C94121   7.511   6.043   2.451 -0.7961  0.3798  0.2108
  698MOL0     C94122   7.472   6.119   2.338 -0.8872 -0.5127  0.2432
  698MOL0     C94123   7.573   6.128   2.221 -0.7567  0.0009  0.9137
  698MOL0     C94124   7.346   6.190   2.338 -0.0403  0.6958 -0.3228
  698MOL0     C94125   7.293   6.261   2.221 -0.2844 -0.3863 -0.4583
  698MOL0     O94126   7.155   6.276   2.229 -0.0655 -0.4191 -0.6586
  698MOL0     C94127   7.104   6.325   2.106  0.0330  0.2715 -0.7311
  698MOL0     C94128   7.124   6.455   2.068 -0.7475 -0.0597  0.9497
  698MOL0     C94129   7.071   6.500   1.949 -0.6981 -0.0899  0.6134
  698MOL0     C94130   6.998   6.409   1.865 -0.4472 -0.1671  0.4472
  698MOL0     O94131   6.947   6.444   1.739  0.1459  0.3225 -0.2172
  698MOL0     C94132   6.901   6.579   1.727  0.4075 -0.6035  0.6333
  698MOL0     C94133   6.818   6.584   1.599 -1.2019  0.1609 -0.1236
  698MOL0     C94134   6.899   6.606   1.467  0.3594  0.8905 -0.7452
  698MOL0     C94135   6.952   6.752   1.455  0.8498  0.8876  0.3697
  698MOL0     C94136   7.012   6.784   1.325  0.1722  0.7628 -0.2190
  698MOL0     C94137   7.069   6.928   1.337 -0.1969  0.0162 -0.3801
  698MOL0     C94138   7.191   6.937   1.440  0.8672  0.4303  0.4242
  698MOL0     C94139   7.254   7.077   1.434 -0.5032  0.1733 -0.1607
  698MOL0    Cl94140   7.415   7.074   1.521  0.1667  0.1964 -0.0436
  698MOL0     C94141   6.982   6.280   1.906  0.0630  0.3006  0.8485
  698MOL0     C94142   7.028   6.235   2.030 -0.3641 -0.8517 -0.6857
  698MOL0     O94143   7.371   6.292   2.133  0.2698  0.4784  0.7138
  698MOL0     C94144   7.275   6.192   2.455 -0.8084  0.2208  0.4981
  698MOL0     C94145   7.323   6.113   2.562  0.1268 -0.0783 -0.8918
  698MOL0     N94146   7.618   5.674   3.159 -0.4091 -0.4475  0.1829
  698MOL0     N94147   7.571   5.640   3.278 -0.0841  0.0664 -0.2849
  698MOL0     C94148   6.690   5.850   3.005 -0.0902 -0.3736 -0.7989
  698MOL0     C94149   6.698   5.777   2.891 -0.2832  0.5109  0.3131
  698MOL0     C94150   6.587   5.460   2.565  0.6432  0.3965 -0.2413
  698MOL0     C94151   6.611   5.326   2.601 -0.8986  1.0176  0.1188
  698MOL0     C94152   6.619   5.223   2.510  0.9956  0.7261  0.8285
  698MOL0     C94153   6.602   5.249   2.367  0.4985 -0.1117  0.4999
  698MOL0     O94154   6.589   5.163   2.267 -0.9057 -0.0841 -0.6243
  698MOL0     C94155   6.648   5.032   2.268 -0.3209  0.0040 -0.2048
  698MOL0     C94156   6.690   4.975   2.131  0.3544 -0.1312 -0.3843
  698MOL0     C94157   6.699   5.089   2.030 -0.7414  0.4959  0.5998
  698MOL0     C94158   6.823   5.182   2.059  0.0844  0.3352  0.6426
  698MOL0     C94159   6.894   5.221   1.937 -0.0456 -0.2841  0.4755
  698MOL0     C94160   6.961   5.248   1.836  0.4305  0.4467  0.1411
  698MOL0     C94161   6.575   5.381   2.326  0.3571 -0.1817  0.3353
  698MOL0     C94162   6.566   5.485   2.424 -0.0589 -0.2501  0.5537
  698MOL0     H94163   6.592   5.477   3.021  0.3744  0.4074  1.6320
  698MOL0     H94164   6.600   5.626   3.227  1.9051  1.7319  1.3951
  698MOL0     H94165   6.785   6.009   3.225 -1.1187  0.8759  0.4847
  698MOL0     H94166   6.726   5.973   3.384 -0.4767  1.5601 -0.3019
  698MOL0     H94167   6.890   5.774   3.227 -0.9958  0.3142 -1.1602
  698MOL0     H94168   6.947   5.891   3.357 -1.3871 -0.5350  3.2460
  698MOL0     H94169   6.807   5.777   3.525  0.6643  1.6995  0.3372
  698MOL0     H94170   6.726   5.689   3.383  0.5626 -1.5581 -0.2945
  698MOL0     H94171   6.862   5.539   3.508  1.4609  0.5331  0.9071
  698MOL0     H94172   6.922   5.559   3.345 -2.5289 -1.1524 -0.2254
  698MOL0     H94173   7.081   5.744   3.491  1.2096 -0.5357 -1.0847
  698MOL0     H94174   7.026   5.640   3.624  1.4033 -2.7910 -0.0700
  698MOL0     H94175   7.220   5.553   3.580  0.9256 -0.0097  0.2523
  698MOL0     H94176   7.111   5.439   3.490 -0.6049 -0.1120 -3.1903
  698MOL0     H94177   7.240   5.465   3.319 -0.6185  0.0608  1.0508
  698MOL0     H94178   7.152   5.620   3.293  1.7710  1.0575 -2.2085
  698MOL0     H94179   7.397   5.608   3.479  0.7207  1.7882  1.0960
  698MOL0     H94180   7.308   5.746   3.405  0.3626  1.0016 -3.3652
  698MOL0     H94181   7.318   5.793   3.155  0.4658  0.0783 -1.8253
  698MOL0     H94182   7.626   5.749   2.894 -1.3717 -1.8895 -0.8754
  698MOL0     H94183   7.453   5.763   2.887 -1.5341  2.9244  0.4834
  698MOL0     H94184   7.628   5.972   3.049 -1.9934  3.5104  1.0597
  698MOL0     H94185   7.461   5.983   2.966 -0.1168  1.6503 -1.2452
  698MOL0     H94186   7.743   5.976   2.883 -0.2582  0.4343  0.3001
  698MOL0     H94187   7.627   6.113   2.870  1.6300  0.0414  0.4708
  698MOL0     H94188   7.654   5.865   2.695 -1.3304 -0.5698  0.3823
  698MOL0     H94189   7.665   6.028   2.637  0.0387  1.4765  0.7029
  698MOL0     H94190   7.613   6.006   2.445 -0.0181  2.5712 -1.1778
  698MOL0     H94191   7.535   6.080   2.131  0.2620 -0.3133  0.6397
  698MOL0     H94192   7.590   6.233   2.196  0.9803 -0.7660 -1.4236
  698MOL0     H94193   7.667   6.088   2.261 -0.2404 -0.5721 -0.7890
  698MOL0     H94194   7.187   6.518   2.129 -0.1120 -1.7888  2.1586
  698MOL0     H94195   7.086   6.605   1.927 -4.3177  0.4201 -0.1626
  698MOL0     H94196   6.829   6.599   1.807 -1.1945  1.0469 -1.1078
  698MOL0     H94197   6.985   6.648   1.725  0.4390 -0.5905  1.8971
  698MOL0     H94198   6.764   6.491   1.582 -2.4656  1.3148 -2.9405
  698MOL0     H94199   6.741   6.661   1.599 -2.1324 -0.7351  0.9401
  698MOL0     H94200   6.839   6.574   1.381  2.3294 -3.3032 -0.8187
  698MOL0     H94201   6.987   6.540   1.472  0.7158  1.2122 -2.2232
  698MOL0     H94202   6.860   6.811   1.453 -0.0182 -0.4267 -0.2151
  698MOL0     H94203   7.026   6.766   1.534 -0.0603 -4.5344  2.5823
  698MOL0     H94204   6.934   6.777   1.249 -0.3718  3.3282 -0.0011
  698MOL0     H94205   7.089   6.714   1.292  2.6544  3.6497 -1.0445
  698MOL0     H94206   7.097   6.960   1.236 -2.3515  3.4797 -0.0451
  698MOL0     H94207   6.989   6.996   1.367  1.6556  1.9009  0.5853
  698MOL0     H94208   7.265   6.857   1.429 -0.7046 -1.1770  1.1250
  698MOL0     H94209   7.160   6.922   1.543 -1.1972 -2.2608 -0.4776
  698MOL0     H94210   7.185   7.150   1.477 -1.2295  1.0679 -2.6380
  698MOL0     H94211   7.274   7.114   1.332  0.7964  4.2296  1.3700
  698MOL0     H94212   6.932   6.214   1.836 -0.0492 -0.2937  1.4832
  698MOL0     H94213   7.018   6.135   2.069 -0.7862 -0.4582  0.2482
  698MOL0     H94214   7.184   6.248   2.473 -0.3871  0.2989  2.6390
  698MOL0     H94215   7.264   6.131   2.651  3.2911 -0.7950  1.5479
  698MOL0     H94216   6.713   5.955   2.994 -0.0821 -0.3371 -0.4261
  698MOL0     H94217   6.727   5.822   2.797  4.5908 -0.7122  0.9602
  698MOL0     H94218   6.630   5.302   2.705  0.1732 -2.4191 -0.7171
  698MOL0     H94219   6.632   5.119   2.537 -1.8589  0.1431  0.2654
  698MOL0     H94220   6.732   5.032   2.339 -0.1744  4.6326 -0.0723
  698MOL0     H94221   6.572   4.964   2.308 -0.5008 -0.5200 -1.4044
  698MOL0     H94222   6.614   4.906   2.094 -1.3800 -0.6944  3.7351
  698MOL0     H94223   6.786   4.922   2.135  0.9602  0.3365 -4.4011
  698MOL0     H94224   6.612   5.155   2.026 -0.9397  0.2988 -3.7172
  698MOL0     H94225   6.707   5.049   1.928  0.0143  1.0319  0.4457
  698MOL0     H94226   6.894   5.124   2.118  0.0817 -2.1403 -1.6294
  698MOL0     H94227   6.798   5.275   2.112  2.6679  1.1548  0.5248
  698MOL0     H94228   7.007   5.281   1.745  0.1893  0.2984 -0.0336
  698MOL0     H94229   6.545   5.389   2.222  2.5742 -1.4133 -0.4523
  698MOL0     H94230   6.531   5.585   2.401 -2.3852 -1.0543  0.3779
  699MOL0     O94231   5.268   8.941   5.135  1.3166  0.9272 -0.2393
  699MOL0     C94232   5.284   8.887   5.027 -0.3325 -0.1005 -0.5678
  699MOL0     O94233   5.349   8.950   4.919 -0.1628  0.1400  0.2439
  699MOL0     C94234   5.400   9.082   4.937  0.8955  0.1271 -0.4591
  699MOL0     C94235   5.462   9.114   5.058 -0.0424 -0.6173 -0.2187
  699MOL0     C94236   5.508   9.241   5.088 -0.4996  0.1989 -0.1971
  699MOL0     C94237   5.490   9.335   4.985 -0.5145 -0.0695 -0.0670
  699MOL0     O94238   5.519   9.469   4.990 -0.1916 -0.4409 -0.0495
  699MOL0     C94239   5.647   9.509   5.045 -0.6739  0.0923 -0.4940
  699MOL0     C94240   5.719   9.610   4.942  0.2920 -0.4445 -0.9751
  699MOL0     C94241   5.670   9.753   4.964  0.2014  0.7366 -0.6991
  699MOL0     C94242   5.729   9.851   4.862  0.4092 -0.0963  0.0961
  699MOL0     C94243   5.725  10.000   4.907 -0.6972 -0.5492 -0.5839
  699MOL0     C94244   5.781  10.102   4.808  0.0510  0.2336  0.0661
  699MOL0     C94245   5.930  10.088   4.775  0.5792  0.2095 -0.3270
  699MOL0     C94246   5.985  10.182   4.661 -1.6732 -0.5632 -0.7704
  699MOL0     N94247   5.984  10.324   4.699  0.3624 -1.0534 -1.0052
  699MOL0     C94248   5.951  10.428   4.610  0.2622  0.5230 -0.2770
  699MOL0     C94249   5.941  10.538   4.692  0.3817  0.3529  0.1421
  699MOL0     C94250   5.892  10.681   4.652  0.1363 -0.1731 -0.4912
  699MOL0     C94251   5.969  10.747   4.533 -0.4116  0.7925  0.2688
  699MOL0     C94252   6.129  10.705   4.523  0.4851  0.4894 -0.0354
  699MOL0     C94253   6.216  10.807   4.598 -0.1523 -0.2495 -0.1694
  699MOL0     O94254   6.351  10.763   4.572 -0.2569 -0.6193  0.4390
  699MOL0     C94255   6.417  10.786   4.453 -0.7778 -1.1604 -0.2047
  699MOL0     C94256   6.368  10.849   4.336  0.1076  0.1791  0.4632
  699MOL0     C94257   6.439  10.858   4.218 -0.0309 -0.2608  0.0341
  699MOL0     C94258   6.390  10.932   4.103 -0.4992  0.2454 -0.2196
  699MOL0     C94259   6.570  10.803   4.212 -0.1210  0.2982 -0.2783
  699MOL0     C94260   6.661  10.799   4.098  0.5048  0.2995  0.3565
  699MOL0     O94261   6.649  10.901   4.003  0.4079  0.4032  0.2722
  699MOL0     C94262   6.730  10.912   3.893  0.8187  0.3464  0.4760
  699MOL0     C94263   6.801  10.808   3.828  0.7199  0.2798  0.1808
  699MOL0     C94264   6.887  10.831   3.717  0.2808  0.2626  0.5925
  699MOL0     C94265   6.893  10.962   3.666 -0.8921  0.4661  0.0870
  699MOL0     O94266   6.963  10.984   3.548 -0.0443 -0.3710 -0.8000
  699MOL0     C94267   6.885  10.934   3.434  0.5230 -0.4007  0.1121
  699MOL0     C94268   6.973  10.985   3.321 -0.2229  0.5090  0.1795
  699MOL0     C94269   7.000  11.137   3.327  0.2585 -0.6626  0.1682
  699MOL0     C94270   7.072  11.187   3.200 -0.6302  0.6324  0.0890
  699MOL0     C94271   7.094  11.332   3.206  0.6989 -0.9200  1.0163
  699MOL0     C94272   7.136  11.395   3.066 -0.3121  0.1704  0.4668
  699MOL0     C94273   7.251  11.315   3.002  0.4350  1.1497 -0.4778
  699MOL0     C94274   7.289  11.372   2.870  1.1632  0.0373  0.3648
  699MOL0    Cl94275   7.165  11.308   2.756  0.3820  0.3096 -0.1481
  699MOL0     C94276   6.827  11.064   3.724  0.1920 -0.6217 -1.2205
  699MOL0     C94277   6.734  11.035   3.832 -0.7523 -0.5858 -0.4906
  699MOL0     O94278   6.755  10.725   4.109 -0.1823 -0.0554  0.1876
  699MOL0     C94279   6.619  10.755   4.336 -0.7731  0.5156  0.0522
  699MOL0     C94280   6.548  10.750   4.454  0.6590 -0.0942 -0.0387
  699MOL0     N94281   5.973  10.506   4.819  0.1390 -0.8682  0.5698
  699MOL0     N94282   5.987  10.381   4.825 -0.6775  0.0512 -0.1615
  699MOL0     C94283   5.434   9.299   4.861  0.3393  0.1973 -0.3878
  699MOL0     C94284   5.385   9.176   4.838  1.0209  0.0527 -0.0131
  699MOL0     C94285   5.243   8.750   5.007 -0.1817 -0.2669 -0.6797
  699MOL0     C94286   5.168   8.674   5.091 -0.3290  0.5749  0.0520
  699MOL0     C94287   5.140   8.538   5.072 -0.4201  0.0335 -1.0257
  699MOL0     C94288   5.195   8.467   4.965 -0.0749  0.6602  0.4695
  699MOL0     O94289   5.164   8.335   4.938  0.0100 -0.9067 -0.5139
  699MOL0     C94290   5.046   8.311   4.850 -0.0749  0.8858 -0.0585
  699MOL0     C94291   5.073   8.195   4.766 -0.2493 -0.0107  0.3704
  699MOL0     C94292   4.968   8.191   4.652 -0.4992  0.3483  0.3839
  699MOL0     C94293   4.815   8.191   4.703 -0.9504  0.9054 -0.2114
  699MOL0     C94294   4.787   8.116   4.822  0.2866  1.1902  0.5014
  699MOL0     C94295   4.764   8.046   4.914  1.3180  0.5074  0.0699
  699MOL0     C94296   5.277   8.543   4.880  0.2018  0.6615 -0.2429
  699MOL0     C94297   5.298   8.679   4.898 -0.5767 -1.2990 -0.0598
  699MOL0     H94298   5.485   9.028   5.119  1.2432  0.2405  0.5719
  699MOL0     H94299   5.552   9.263   5.185 -0.5646  1.3910 -0.4237
  699MOL0     H94300   5.637   9.545   5.148 -0.1585 -2.3741  0.4874
  699MOL0     H94301   5.715   9.425   5.062  0.8588  1.8368  3.1775
  699MOL0     H94302   5.827   9.622   4.957  0.0298  1.1998 -0.1365
  699MOL0     H94303   5.698   9.584   4.838 -0.4268  2.9547 -1.8211
  699MOL0     H94304   5.561   9.750   4.959  0.2602 -1.2540 -2.9789
  699MOL0     H94305   5.691   9.784   5.067 -3.4605 -0.7807  0.6587
  699MOL0     H94306   5.831   9.817   4.847  0.0600  0.1555 -4.0189
  699MOL0     H94307   5.682   9.842   4.763 -1.4797 -1.0363  1.0238
  699MOL0     H94308   5.625  10.036   4.933  0.5934  2.2661  1.0090
  699MOL0     H94309   5.782  10.020   4.999 -1.9591 -1.1339  0.3641
  699MOL0     H94310   5.728  10.102   4.713 -0.8129 -0.7809  0.5302
  699MOL0     H94311   5.763  10.201   4.850  0.8754  2.5296 -4.3508
  699MOL0     H94312   5.992  10.112   4.861  1.5083  1.0688 -1.2039
  699MOL0     H94313   5.959   9.989   4.737 -0.4001 -0.7501  1.2777
  699MOL0     H94314   5.947  10.162   4.560 -0.7173  3.0741 -2.0154
  699MOL0     H94315   6.091  10.156   4.663 -2.0303 -2.3317 -2.0639
  699MOL0     H94316   5.930  10.427   4.503 -1.2346 -0.4283 -0.0029
  699MOL0     H94317   5.790  10.663   4.618  0.1510 -0.5073 -0.3689
  699MOL0     H94318   5.897  10.758   4.729  0.5634 -0.2679 -0.4200
  699MOL0     H94319   5.966  10.856   4.523 -0.6209  0.7473 -0.1668
  699MOL0     H94320   5.918  10.698   4.450  0.0640  1.2172 -0.2795
  699MOL0     H94321   6.149  10.700   4.416 -3.0435 -0.1071 -0.7995
  699MOL0     H94322   6.149  10.606   4.565 -2.5469 -0.1888  0.0972
  699MOL0     H94323   6.186  10.809   4.703  1.1260 -1.0802  0.2420
  699MOL0     H94324   6.209  10.904   4.548  0.4480 -0.1453 -0.0565
  699MOL0     H94325   6.271  10.897   4.342  1.1360  2.3595  0.4947
  699MOL0     H94326   6.281  10.936   4.104 -0.6691 -2.8547  0.9739
  699MOL0     H94327   6.431  11.034   4.111 -0.8655  0.4246 -0.5450
  699MOL0     H94328   6.420  10.890   4.006 -2.2098 -1.0585 -0.2119
  699MOL0     H94329   6.804  10.711   3.877  0.9243  0.0527 -0.2698
  699MOL0     H94330   6.949  10.751   3.680  0.1043 -0.2234  1.3119
  699MOL0     H94331   6.871  10.826   3.440  0.7592 -0.4157  0.4167
  699MOL0     H94332   6.783  10.973   3.427 -0.1394 -2.1307 -0.1353
  699MOL0     H94333   7.069  10.933   3.317 -0.4633 -0.5919  4.3760
  699MOL0     H94334   6.910  10.968   3.233  1.9665  1.4264 -1.6617
  699MOL0     H94335   7.061  11.164   3.413 -0.6141  0.7811  0.3752
  699MOL0     H94336   6.901  11.181   3.345  0.1743 -1.7714  2.8851
  699MOL0     H94337   7.167  11.132   3.198 -1.3064 -0.5668  0.1417
  699MOL0     H94338   7.020  11.165   3.106  4.3387 -1.9129 -2.4897
  699MOL0     H94339   7.171  11.357   3.279  2.3764 -0.2777 -0.8534
  699MOL0     H94340   7.005  11.394   3.219  0.3822 -0.4086 -2.5675
  699MOL0     H94341   7.043  11.404   3.010 -2.1308 -0.6247  3.1698
  699MOL0     H94342   7.184  11.492   3.082  0.9729 -0.3186 -0.2512
  699MOL0     H94343   7.228  11.209   2.991 -0.6305  1.5104 -2.1448
  699MOL0     H94344   7.345  11.321   3.056  0.4046  0.0392 -0.2939
  699MOL0     H94345   7.387  11.335   2.840  1.8944  0.3113  2.2851
  699MOL0     H94346   7.296  11.481   2.870  1.1896  0.0393  1.5430
  699MOL0     H94347   6.833  11.166   3.687  1.9382  0.2991  1.3179
  699MOL0     H94348   6.682  11.119   3.879  1.6068  1.6482 -1.6310
  699MOL0     H94349   6.724  10.732   4.344 -0.6145  1.3496  0.5029
  699MOL0     H94350   6.596  10.711   4.543  1.8936  1.9525  0.2731
  699MOL0     H94351   5.423   9.375   4.785 -0.6477  2.8890  2.2243
  699MOL0     H94352   5.344   9.157   4.739 -0.2670 -1.1551  0.7160
  699MOL0     H94353   5.106   8.718   5.169 -2.2190 -0.8388 -0.5825
  699MOL0     H94354   5.067   8.486   5.133  0.1199 -3.1718 -2.8971
  699MOL0     H94355   4.955   8.298   4.908 -0.2644 -0.1893 -0.5812
  699MOL0     H94356   5.025   8.395   4.783  1.1224 -1.9884 -4.5315
  699MOL0     H94357   5.075   8.102   4.823  0.6815  1.0039  2.0788
  699MOL0     H94358   5.171   8.212   4.719 -1.5949  3.2319 -1.6074
  699MOL0     H94359   4.990   8.096   4.603 -3.1513  0.2251 -0.7417
  699MOL0     H94360   4.980   8.269   4.575 -5.1605  0.9656 -0.0074
  699MOL0     H94361   4.756   8.138   4.628 -0.4674 -1.2176  0.8271
  699MOL0     H94362   4.782   8.295   4.706 -1.9863  0.5690  0.5066
  699MOL0     H94363   4.732   7.980   4.992  1.0526 -0.4626 -0.8448
  699MOL0     H94364   5.327   8.493   4.797 -0.7065 -0.9048  0.0995
  699MOL0     H94365   5.359   8.735   4.828  0.0395  0.5167  1.8123
  700MOL0     O94366   3.844   8.788   8.857 -0.5891 -1.0264 -0.9118
  700MOL0     C94367   3.724   8.773   8.858 -0.6023 -0.3923 -0.6454
  700MOL0     O94368   3.658   8.659   8.829  0.2834  1.1491 -0.2678
  700MOL0     C94369   3.715   8.539   8.799  0.7880 -0.2696  0.4039
  700MOL0     C94370   3.644   8.421   8.830  0.7053 -0.1878 -0.5575
  700MOL0     C94371   3.696   8.294   8.796  0.7570  0.0742 -1.1624
  700MOL0     C94372   3.802   8.281   8.709 -0.7503 -0.2114  1.1308
  700MOL0     O94373   3.850   8.158   8.673 -0.2023 -0.4365  0.0909
  700MOL0     C94374   3.746   8.069   8.624 -0.0311 -0.1876 -0.5712
  700MOL0     C94375   3.793   7.927   8.636 -0.7227  0.3359  0.9787
  700MOL0     C94376   3.869   7.884   8.508  0.5244 -0.4966 -0.9782
  700MOL0     C94377   3.791   7.769   8.430  0.4852 -0.2664 -0.1220
  700MOL0     C94378   3.900   7.682   8.367  0.2075  0.0715 -0.1575
  700MOL0     C94379   3.937   7.558   8.451  0.6659  0.6525 -0.4381
  700MOL0     C94380   4.037   7.456   8.388 -0.0365 -0.1817 -0.1541
  700MOL0     C94381   4.172   7.502   8.341 -1.1898 -0.0184  0.4567
  700MOL0     N94382   4.264   7.391   8.316 -0.7316  0.4445  0.2994
  700MOL0     C94383   4.331   7.314   8.407 -1.0602 -0.2407  0.4086
  700MOL0     C94384   4.422   7.241   8.341 -0.6081 -0.5757 -0.5223
  700MOL0     C94385   4.540   7.167   8.402  0.2880  0.0674  0.2045
  700MOL0     C94386   4.511   7.033   8.471 -0.9439  0.3157  0.3064
  700MOL0     C94387   4.419   6.936   8.407 -0.2156  0.1173 -0.7666
  700MOL0     C94388   4.437   6.906   8.253  0.5736  0.3395 -1.0207
  700MOL0     O94389   4.567   6.854   8.236  0.1199  0.1347 -0.2378
  700MOL0     C94390   4.570   6.741   8.163 -0.0787  0.2178 -0.0246
  700MOL0     C94391   4.531   6.740   8.028  0.0259  0.0179 -0.4943
  700MOL0     C94392   4.526   6.621   7.951 -0.1901 -0.1361 -0.1949
  700MOL0     C94393   4.509   6.635   7.803 -1.9648 -0.0100  0.3440
  700MOL0     C94394   4.573   6.497   8.005  1.3136 -0.3301 -0.4753
  700MOL0     C94395   4.579   6.367   7.933  1.0229 -1.2734 -0.5709
  700MOL0     O94396   4.506   6.367   7.817  0.0589  0.4844 -0.0893
  700MOL0     C94397   4.496   6.249   7.750 -0.6654 -0.0677 -0.8134
  700MOL0     C94398   4.456   6.132   7.807 -0.7205  0.3159  0.3479
  700MOL0     C94399   4.457   6.011   7.736 -0.0632  0.5655  0.0189
  700MOL0     C94400   4.487   6.003   7.594  0.1634 -0.3976  1.2296
  700MOL0     O94401   4.498   5.884   7.520  0.5011  0.7689 -0.9717
  700MOL0     C94402   4.540   5.767   7.590  0.1428  0.5416 -1.2835
  700MOL0     C94403   4.536   5.653   7.488 -0.1800 -0.0584 -0.6458
  700MOL0     C94404   4.622   5.535   7.511 -0.3420 -1.0469 -0.4642
  700MOL0     C94405   4.610   5.469   7.651 -0.3969 -0.3374  0.2468
  700MOL0     C94406   4.678   5.339   7.642 -0.2813 -0.1057 -0.0093
  700MOL0     C94407   4.679   5.277   7.782  0.2090  0.5103  0.7419
  700MOL0     C94408   4.762   5.151   7.786 -0.1576 -1.2696 -0.5730
  700MOL0     C94409   4.790   5.099   7.925 -0.3013 -0.2934 -0.2489
  700MOL0    Cl94410   4.901   4.960   7.892 -0.0270 -0.2186  0.6053
  700MOL0     C94411   4.510   6.124   7.533 -0.0880 -0.3989 -0.3121
  700MOL0     C94412   4.519   6.237   7.614  0.3787  0.5144  0.4841
  700MOL0     O94413   4.658   6.285   7.974  0.7391 -0.2023  0.0855
  700MOL0     C94414   4.632   6.506   8.136 -0.2246  0.2358  0.4962
  700MOL0     C94415   4.635   6.629   8.209  0.6781 -0.0309  0.1586
  700MOL0     N94416   4.397   7.269   8.206 -0.5212  0.2417 -0.0555
  700MOL0     N94417   4.300   7.349   8.188  0.6915  0.0375 -0.0036
  700MOL0     C94418   3.864   8.399   8.657  1.1066  0.4980 -1.2381
  700MOL0     C94419   3.824   8.525   8.715  0.1397  0.2939  0.4402
  700MOL0     C94420   3.659   8.892   8.885 -0.0951  0.9870 -0.7415
  700MOL0     C94421   3.707   9.018   8.865 -0.1113 -0.6650 -0.1571
  700MOL0     C94422   3.637   9.136   8.892  0.1689  0.2939 -0.5750
  700MOL0     C94423   3.510   9.127   8.946 -0.5044  0.5832  0.6791
  700MOL0     O94424   3.452   9.239   8.997  0.6807 -0.3662  0.6129
  700MOL0     C94425   3.339   9.237   9.088 -0.7532  0.0999  0.0607
  700MOL0     C94426   3.299   9.384   9.131  0.2650  0.7692  0.1220
  700MOL0     C94427   3.249   9.473   9.011  0.5997  0.0970  0.1252
  700MOL0     C94428   3.131   9.424   8.925 -0.5475  0.5607 -0.8949
  700MOL0     C94429   3.102   9.519   8.825 -0.2504 -0.1910 -1.2472
  700MOL0     C94430   3.087   9.603   8.744  0.2409 -0.6671 -0.0558
  700MOL0     C94431   3.462   8.997   8.972  0.9649 -0.0791  0.2296
  700MOL0     C94432   3.531   8.883   8.940 -0.9119  0.0754 -0.7030
  700MOL0     H94433   3.563   8.423   8.902  3.4164 -0.2546  2.7069
  700MOL0     H94434   3.636   8.210   8.829  2.2327 -0.9400 -0.9665
  700MOL0     H94435   3.649   8.067   8.674 -0.1939 -3.3584 -0.8474
  700MOL0     H94436   3.710   8.090   8.523 -0.7911  2.7700  0.1996
  700MOL0     H94437   3.860   7.920   8.722 -0.0439 -1.8613  0.3290
  700MOL0     H94438   3.709   7.857   8.645  0.3282 -1.0357  0.4863
  700MOL0     H94439   3.890   7.964   8.436  0.7229  0.3161 -0.0522
  700MOL0     H94440   3.964   7.841   8.541  0.8631  0.3761 -0.7809
  700MOL0     H94441   3.723   7.714   8.495 -0.5687  0.8868 -0.2189
  700MOL0     H94442   3.718   7.815   8.362  1.0505 -0.6920 -1.0484
  700MOL0     H94443   3.875   7.652   8.265  0.4805 -1.3239  0.1697
  700MOL0     H94444   3.994   7.739   8.367 -0.2508  0.8905  1.4505
  700MOL0     H94445   3.965   7.596   8.550 -2.1983  2.5570 -0.2287
  700MOL0     H94446   3.849   7.495   8.466  1.9662 -1.4792 -1.3935
  700MOL0     H94447   4.038   7.371   8.456  0.4853 -1.6810 -1.9770
  700MOL0     H94448   3.983   7.427   8.297 -1.9516  4.3446 -0.7432
  700MOL0     H94449   4.215   7.551   8.428  0.6058 -3.2873  1.5663
  700MOL0     H94450   4.158   7.566   8.253 -1.8728  0.1974  0.7093
  700MOL0     H94451   4.318   7.312   8.515  2.5788 -2.2179  0.9571
  700MOL0     H94452   4.624   7.155   8.334  0.1143  0.9106 -0.1698
  700MOL0     H94453   4.565   7.233   8.485 -2.4039  0.8299  0.5214
  700MOL0     H94454   4.494   7.054   8.577 -2.3284 -0.5707  0.2787
  700MOL0     H94455   4.607   6.981   8.468 -0.9284  0.3773 -0.9490
  700MOL0     H94456   4.317   6.972   8.426  0.7173  1.7660  1.6111
  700MOL0     H94457   4.423   6.840   8.459 -0.9670  1.0077  1.0343
  700MOL0     H94458   4.418   6.998   8.197 -1.5987 -0.6200 -1.9801
  700MOL0     H94459   4.369   6.824   8.228  1.9384 -2.6868  3.6935
  700MOL0     H94460   4.489   6.827   7.978 -0.3778 -0.4941 -1.0458
  700MOL0     H94461   4.503   6.743   7.785  1.3567  0.2135  0.0321
  700MOL0     H94462   4.598   6.601   7.750 -1.1776  2.6922 -0.2181
  700MOL0     H94463   4.422   6.578   7.769 -0.4054 -1.0609 -2.1236
  700MOL0     H94464   4.430   6.124   7.913  2.2723  1.4261  1.2637
  700MOL0     H94465   4.422   5.926   7.794 -0.8499  1.7867  1.4044
  700MOL0     H94466   4.644   5.788   7.617  0.1208 -0.8913  0.0162
  700MOL0     H94467   4.470   5.748   7.672  1.4051  4.1812  0.8660
  700MOL0     H94468   4.437   5.613   7.468 -1.1543  0.7381  2.1430
  700MOL0     H94469   4.571   5.688   7.391 -0.1935 -1.6003 -1.2364
  700MOL0     H94470   4.723   5.563   7.482 -1.0644  2.0145 -0.3536
  700MOL0     H94471   4.591   5.466   7.432 -0.7304 -2.4155  0.8403
  700MOL0     H94472   4.660   5.534   7.722  1.2666  0.1071 -1.2574
  700MOL0     H94473   4.511   5.448   7.693 -0.1686  0.2985  1.1127
  700MOL0     H94474   4.782   5.346   7.608 -0.1701  2.7292  0.6853
  700MOL0     H94475   4.629   5.279   7.564 -0.2582 -0.6831  0.4156
  700MOL0     H94476   4.723   5.345   7.856  1.8407  1.1170 -0.7156
  700MOL0     H94477   4.573   5.265   7.806 -0.3463  2.8158 -0.2617
  700MOL0     H94478   4.857   5.166   7.733 -1.8385  1.4694 -3.1041
  700MOL0     H94479   4.695   5.078   7.742 -1.6058  0.8447 -2.0699
  700MOL0     H94480   4.708   5.064   7.988  0.5244 -2.0129 -0.0460
  700MOL0     H94481   4.839   5.180   7.979  0.6341 -1.9591  1.5565
  700MOL0     H94482   4.522   6.127   7.425  1.3689  0.8025 -0.1472
  700MOL0     H94483   4.562   6.323   7.563  3.6973  0.8631  3.4717
  700MOL0     H94484   4.667   6.413   8.178 -2.2946 -0.4791  0.7427
  700MOL0     H94485   4.688   6.642   8.302 -0.7099  1.8241  0.7651
  700MOL0     H94486   3.948   8.389   8.588  0.0578 -0.2059 -2.4570
  700MOL0     H94487   3.883   8.609   8.681  0.5036  0.2763  1.0043
  700MOL0     H94488   3.805   9.025   8.819  0.2111 -0.2085  0.5910
  700MOL0     H94489   3.690   9.228   8.870  0.9977 -0.3961 -1.5594
  700MOL0     H94490   3.252   9.187   9.043  0.0925 -1.6667  0.3224
  700MOL0     H94491   3.368   9.175   9.173 -1.3647 -1.5467 -0.8949
  700MOL0     H94492   3.376   9.434   9.189 -0.0687 -1.2515  2.4616
  700MOL0     H94493   3.214   9.380   9.201 -0.0081 -1.2655 -0.2593
  700MOL0     H94494   3.335   9.480   8.944 -0.8387  0.1692 -1.8128
  700MOL0     H94495   3.220   9.569   9.055  0.8728  0.3991 -0.3518
  700MOL0     H94496   3.047   9.394   8.989  1.1860  1.7564  2.1528
  700MOL0     H94497   3.162   9.329   8.881 -1.4828 -0.4952  0.6220
  700MOL0     H94498   3.055   9.673   8.669  0.8733 -2.3027 -1.9688
  700MOL0     H94499   3.364   8.997   9.017  1.0827  3.5289  0.8250
  700MOL0     H94500   3.490   8.783   8.947  2.6827 -1.6873 -1.9527
  701MOL0     O94501   1.335   6.453   4.195 -0.2648 -0.2160  0.0939
  701MOL0     C94502   1.300   6.438   4.079 -0.2244 -0.3474 -0.2979
  701MOL0     O94503   1.379   6.484   3.978 -0.1808  0.4687  0.3814
  701MOL0     C94504   1.471   6.581   4.003  0.3960  0.2278  0.4853
  701MOL0     C94505   1.437   6.711   4.020 -0.4543  0.3469 -0.6237
  701MOL0     C94506   1.536   6.807   4.036  0.2658 -0.0799  0.3949
  701MOL0     C94507   1.674   6.762   4.041 -0.2085  0.7382 -0.3695
  701MOL0     O94508   1.786   6.834   4.072  0.1611 -0.2687 -0.6153
  701MOL0     C94509   1.754   6.966   4.121  0.1284  0.0756 -0.1230
  701MOL0     C94510   1.881   7.034   4.126 -0.6487 -0.2182  0.1609
  701MOL0     C94511   1.864   7.171   4.202 -0.0773  0.5634 -0.2984
  701MOL0     C94512   1.851   7.155   4.349 -0.2180 -0.0520  0.5111
  701MOL0     C94513   1.973   7.101   4.418 -0.0321  0.3618  0.4640
  701MOL0     C94514   1.982   7.133   4.568 -1.3164 -0.1547  0.2731
  701MOL0     C94515   1.867   7.070   4.635 -1.3310  0.4535  0.0946
  701MOL0     C94516   1.890   7.040   4.781  0.7565 -0.0482  0.5831
  701MOL0     N94517   2.009   6.961   4.812  0.2507 -0.4127  0.5921
  701MOL0     C94518   2.037   6.834   4.768  0.8399 -0.7070  0.2669
  701MOL0     C94519   2.137   6.799   4.843 -0.3127 -0.8330 -0.1018
  701MOL0     C94520   2.197   6.660   4.829  1.0456  0.6698 -0.7100
  701MOL0     C94521   2.106   6.538   4.813  0.2535  0.6853 -0.9961
  701MOL0     C94522   2.022   6.496   4.941 -0.7439  0.6740  0.5023
  701MOL0     C94523   1.906   6.596   4.964 -0.2305 -0.6388  0.6249
  701MOL0     O94524   1.841   6.559   5.086  0.2911 -0.5813  0.3342
  701MOL0     C94525   1.781   6.434   5.086 -1.1241  0.8517 -0.2225
  701MOL0     C94526   1.767   6.355   5.203  0.1503 -0.2370  0.3074
  701MOL0     C94527   1.710   6.230   5.199 -0.4774  0.2110 -0.0939
  701MOL0     C94528   1.710   6.159   5.334  0.2948 -0.1115 -0.0679
  701MOL0     C94529   1.662   6.176   5.083 -0.2317  0.4993 -0.1069
  701MOL0     C94530   1.612   6.040   5.061  0.0163 -0.6983  0.2613
  701MOL0     O94531   1.511   6.030   4.963 -0.0185  0.6610 -0.6862
  701MOL0     C94532   1.472   5.910   4.917  0.1670  0.3197 -0.0556
  701MOL0     C94533   1.561   5.838   4.834 -0.8183 -0.4621  0.4540
  701MOL0     C94534   1.534   5.715   4.769  0.6421 -0.5146  0.1082
  701MOL0     C94535   1.394   5.672   4.786 -1.0134 -0.5039 -0.3017
  701MOL0     O94536   1.357   5.562   4.709 -0.4137 -0.4153 -0.5858
  701MOL0     C94537   1.248   5.472   4.749 -0.0250 -0.7514  0.3259
  701MOL0     C94538   1.250   5.361   4.640 -0.8978 -0.3195  0.1811
  701MOL0     C94539   1.142   5.265   4.674  0.6477 -0.2501 -0.0727
  701MOL0     C94540   1.149   5.129   4.610 -0.4956  0.5422 -0.0941
  701MOL0     C94541   1.029   5.047   4.601  0.9172 -0.0507  0.5623
  701MOL0     C94542   1.064   4.923   4.515  0.5433  0.0588 -0.5764
  701MOL0     C94543   0.940   4.845   4.470 -0.2623  0.9158  0.0349
  701MOL0     C94544   0.954   4.691   4.507  0.7554 -0.4864 -0.7844
  701MOL0    Cl94545   1.079   4.607   4.411  0.0190 -0.2191 -0.4864
  701MOL0     C94546   1.307   5.743   4.875  0.3132  0.4225 -0.2194
  701MOL0     C94547   1.343   5.865   4.942 -0.2514 -0.2492  0.4344
  701MOL0     O94548   1.650   5.949   5.132 -1.1823  0.1510  0.3406
  701MOL0     C94549   1.670   6.259   4.971  0.3098  0.6804 -0.5926
  701MOL0     C94550   1.723   6.376   4.971 -0.2407  0.2751  0.7667
  701MOL0     N94551   2.166   6.895   4.933 -0.0403  0.1017 -0.3872
  701MOL0     N94552   2.088   6.999   4.918  0.2188  0.8160  0.1820
  701MOL0     C94553   1.709   6.626   4.019 -0.3327  0.5921 -0.2947
  701MOL0     C94554   1.605   6.544   3.994  0.3242  1.0352  0.8151
  701MOL0     C94555   1.169   6.372   4.042 -0.0851  0.9674  0.1911
  701MOL0     C94556   1.104   6.293   4.141 -0.2306  1.0886 -0.1152
  701MOL0     C94557   1.002   6.196   4.104 -1.5891 -0.1961  0.7667
  701MOL0     C94558   0.962   6.191   3.978  0.7683 -0.1762 -0.2171
  701MOL0     O94559   0.854   6.103   3.961 -0.7463 -0.4742  0.9245
  701MOL0     C94560   0.771   6.117   3.846 -0.4140 -0.2693 -0.3353
  701MOL0     C94561   0.677   6.009   3.868  0.5919 -0.5922  0.2318
  701MOL0     C94562   0.604   5.991   3.734 -1.1595  0.3655  0.1357
  701MOL0     C94563   0.494   5.895   3.749 -0.3135  0.5800  0.2489
  701MOL0     C94564   0.392   5.939   3.834  0.2437 -0.0261  0.6019
  701MOL0     C94565   0.295   5.983   3.893 -0.5867 -0.3326  0.0282
  701MOL0     C94566   1.027   6.265   3.881 -0.9457 -0.6680  0.0060
  701MOL0     C94567   1.142   6.350   3.909 -0.1818  0.2920  1.1966
  701MOL0     H94568   1.332   6.731   4.038 -0.3344 -0.9967  1.9861
  701MOL0     H94569   1.501   6.908   4.057 -1.3432 -0.3273 -0.8127
  701MOL0     H94570   1.688   7.022   4.054  1.4156  0.6583 -0.9421
  701MOL0     H94571   1.701   6.955   4.216  2.8678 -3.2784  1.2643
  701MOL0     H94572   1.949   6.972   4.185 -0.4923  1.0604  1.3563
  701MOL0     H94573   1.922   7.044   4.025 -2.0955 -1.2515 -0.5670
  701MOL0     H94574   1.962   7.218   4.196 -0.6894  1.8415 -0.5128
  701MOL0     H94575   1.789   7.242   4.166 -0.9337  1.8697  3.6426
  701MOL0     H94576   1.823   7.252   4.391  1.6920 -0.3066  2.5641
  701MOL0     H94577   1.771   7.083   4.369 -0.6256  0.2125 -0.1269
  701MOL0     H94578   1.979   6.993   4.406 -1.4288  0.3024  0.1110
  701MOL0     H94579   2.058   7.152   4.372  1.7059 -0.6784  2.3564
  701MOL0     H94580   2.074   7.095   4.615 -0.5878 -1.1261 -1.8303
  701MOL0     H94581   1.979   7.239   4.593  0.8507 -0.5801  2.8656
  701MOL0     H94582   1.775   7.128   4.625 -2.0373  0.0454  3.3234
  701MOL0     H94583   1.851   6.970   4.592 -1.0239  1.2841 -2.0766
  701MOL0     H94584   1.808   6.983   4.826  0.7621 -1.1375 -0.7257
  701MOL0     H94585   1.893   7.139   4.827 -1.5994 -0.1906  1.1375
  701MOL0     H94586   1.978   6.774   4.700  1.6694  0.6517 -1.7576
  701MOL0     H94587   2.267   6.661   4.745  0.0839 -2.1691 -1.6699
  701MOL0     H94588   2.263   6.649   4.915 -0.3235  3.1596  0.7911
  701MOL0     H94589   2.181   6.459   4.807 -0.6022 -0.0434 -2.7343
  701MOL0     H94590   2.045   6.529   4.723 -4.7758  2.2635  1.8488
  701MOL0     H94591   2.095   6.492   5.023 -1.5582 -1.6039  1.1795
  701MOL0     H94592   1.992   6.394   4.916 -3.0610  0.8240  2.3568
  701MOL0     H94593   1.847   6.599   4.872 -0.0300 -3.8520  0.2766
  701MOL0     H94594   1.949   6.695   4.980  0.3218 -0.2233 -2.6938
  701MOL0     H94595   1.811   6.387   5.297 -1.8727 -2.7428  2.2589
  701MOL0     H94596   1.746   6.056   5.328  3.0601  0.4256  3.6153
  701MOL0     H94597   1.770   6.217   5.404 -2.3221  3.8921 -0.7827
  701MOL0     H94598   1.606   6.154   5.369 -0.7295  0.7565 -2.7495
  701MOL0     H94599   1.655   5.891   4.823 -0.4601 -0.8346  1.5342
  701MOL0     H94600   1.609   5.663   4.710 -0.2012 -1.3828 -0.2211
  701MOL0     H94601   1.272   5.435   4.850  1.1216  1.3749  0.8859
  701MOL0     H94602   1.149   5.518   4.742  1.3316  2.2485 -0.4366
  701MOL0     H94603   1.231   5.405   4.542 -1.5184 -0.9944 -0.0126
  701MOL0     H94604   1.338   5.298   4.621  0.2719  1.7611 -1.9280
  701MOL0     H94605   1.048   5.311   4.642  0.2429 -1.2655 -0.3804
  701MOL0     H94606   1.124   5.266   4.782  1.2039  1.7226  0.0539
  701MOL0     H94607   1.183   5.143   4.507 -0.5124 -0.1088 -0.1925
  701MOL0     H94608   1.227   5.084   4.672  0.0055  1.7310  0.1693
  701MOL0     H94609   0.949   5.103   4.551 -1.0464 -2.0164  1.3342
  701MOL0     H94610   0.997   5.027   4.704 -1.6168  1.4016  0.1291
  701MOL0     H94611   1.120   4.939   4.422  0.6887  0.1063 -0.4818
  701MOL0     H94612   1.125   4.868   4.587  1.8491  1.2955 -0.6721
  701MOL0     H94613   0.919   4.871   4.366  2.7214  1.1899 -0.6005
  701MOL0     H94614   0.850   4.888   4.514  0.1524  2.1347 -0.2682
  701MOL0     H94615   0.858   4.640   4.502 -0.1415  0.9754  0.6916
  701MOL0     H94616   0.993   4.699   4.609  2.5481  0.5096 -1.4960
  701MOL0     H94617   1.211   5.693   4.875  0.2849  0.4570 -1.5468
  701MOL0     H94618   1.267   5.919   4.997  1.1411  1.8022  0.4460
  701MOL0     H94619   1.649   6.207   4.878 -0.4724  0.9498 -0.5789
  701MOL0     H94620   1.712   6.423   4.874  2.2905 -2.0967 -0.7893
  701MOL0     H94621   1.811   6.593   4.031  0.0772  1.8956 -0.0125
  701MOL0     H94622   1.637   6.441   3.982  2.7398  1.8455 -0.2287
  701MOL0     H94623   1.131   6.297   4.246  0.1003  0.9911 -0.1950
  701MOL0     H94624   0.951   6.142   4.183  1.6680 -0.3553  2.9555
  701MOL0     H94625   0.715   6.211   3.841 -3.8425 -1.9400  2.3201
  701MOL0     H94626   0.835   6.105   3.758  0.8745 -0.6539  0.6099
  701MOL0     H94627   0.610   6.032   3.951 -0.2147  2.0268 -1.0423
  701MOL0     H94628   0.728   5.919   3.902  1.6674 -0.6824 -1.4686
  701MOL0     H94629   0.673   5.961   3.655  0.7874  2.7221  0.8129
  701MOL0     H94630   0.556   6.082   3.695  2.0676  2.0040 -0.3845
  701MOL0     H94631   0.536   5.803   3.791 -1.3463  0.2358  0.5434
  701MOL0     H94632   0.462   5.852   3.654 -1.2059  0.6956  0.4898
  701MOL0     H94633   0.198   6.001   3.935 -1.5166 -4.0628 -0.2407
  701MOL0     H94634   1.000   6.238   3.779  1.8885  1.8255 -1.5436
  701MOL0     H94635   1.195   6.396   3.827 -1.6243 -1.1299 -0.6215
  702MOL0     O94636   6.384  10.419  10.467 -0.1861  0.6779 -0.8246
  702MOL0     C94637   6.396  10.396  10.587 -0.5067  1.0039  0.4868
  702MOL0     O94638   6.507  10.353  10.644 -0.0808 -0.2854  0.5313
  702MOL0     C94639   6.605  10.310  10.568 -0.3170 -0.9041  1.2803
  702MOL0     C94640   6.734  10.341  10.610 -0.6212  0.4378 -0.3234
  702MOL0     C94641   6.854  10.299  10.537  0.3920 -1.0670  0.4438
  702MOL0     C94642   6.844  10.221  10.421  0.2794  0.6835  0.7629
  702MOL0     O94643   6.964  10.192  10.353 -0.2890 -0.7527  0.0891
  702MOL0     C94644   6.945  10.144  10.217 -0.0111 -0.3669 -0.4867
  702MOL0     C94645   6.925   9.995  10.214  0.0519  0.0124  0.6719
  702MOL0     C94646   7.039   9.901  10.258  0.7245 -0.4086 -0.0940
  702MOL0     C94647   7.177   9.932  10.201 -0.0930  0.4051 -0.5327
  702MOL0     C94648   7.276  10.045  10.253  0.5836 -0.2604  0.2896
  702MOL0     C94649   7.280  10.039  10.399  0.2621  0.9635 -0.4141
  702MOL0     C94650   7.413  10.093  10.459 -1.2092 -0.2395 -0.4592
  702MOL0     C94651   7.391  10.115  10.612  0.7018 -0.2285 -0.2085
  702MOL0     N94652   7.292  10.226  10.649 -0.6985  0.8767  0.6013
  702MOL0     C94653   7.269  10.346  10.587  0.8729  0.3040 -0.1276
  702MOL0     C94654   7.181  10.411  10.665 -0.0619  1.0634 -0.0623
  702MOL0     C94655   7.098  10.542  10.643 -0.2316  0.2830 -0.0489
  702MOL0     C94656   7.194  10.656  10.604 -0.6371  0.2851 -0.4078
  702MOL0     C94657   7.316  10.666  10.699  0.5565 -0.0679  0.0780
  702MOL0     C94658   7.390  10.797  10.708  0.1645 -0.7925 -0.7534
  702MOL0     O94659   7.306  10.903  10.772  0.4369 -1.0185 -0.1438
  702MOL0     C94660   7.263  10.892  10.904  0.1441  0.1157  0.0144
  702MOL0     C94661   7.139  10.943  10.928 -0.6756 -0.1418 -0.0488
  702MOL0     C94662   7.082  10.933  11.054  1.0607  0.2583 -1.3205
  702MOL0     C94663   6.944  10.998  11.075  0.3447  0.4186  0.2318
  702MOL0     C94664   7.153  10.879  11.165 -0.4788  0.2457 -0.5807
  702MOL0     C94665   7.096  10.854  11.305 -0.2397 -0.2778  1.3729
  702MOL0     O94666   6.964  10.861  11.334 -0.1748  0.3996 -0.0140
  702MOL0     C94667   6.936  10.847  11.473 -0.4039 -0.8204  0.2582
  702MOL0     C94668   6.901  10.727  11.522  0.7072  0.2436  0.5156
  702MOL0     C94669   6.861  10.711  11.659 -0.1496 -0.2055  1.0780
  702MOL0     C94670   6.880  10.817  11.748  0.2425 -1.0108  1.5256
  702MOL0     O94671   6.852  10.806  11.876 -0.4591  0.3362 -0.6112
  702MOL0     C94672   6.818  10.678  11.947 -0.3505  0.0366  0.5904
  702MOL0     C94673   6.799  10.703  12.099 -0.9731  0.2623 -0.7864
  702MOL0     C94674   6.779  10.561  12.171 -0.3499  0.4133  0.0446
  702MOL0     C94675   6.771  10.588  12.318 -0.0367  0.0294  0.3037
  702MOL0     C94676   6.747  10.460  12.385 -0.5099 -0.2155 -0.2637
  702MOL0     C94677   6.631  10.383  12.316 -0.1669 -0.4767 -0.7533
  702MOL0     C94678   6.572  10.295  12.423  1.8135  0.1152 -0.6366
  702MOL0     C94679   6.440  10.230  12.393  0.1122  0.8017  0.4422
  702MOL0    Cl94680   6.469  10.132  12.236 -0.1109 -0.0994 -0.1393
  702MOL0     C94681   6.911  10.942  11.693 -0.9756 -0.1702 -0.5793
  702MOL0     C94682   6.934  10.966  11.562  0.2552 -0.2688  0.4102
  702MOL0     O94683   7.186  10.824  11.380 -0.1108 -0.0453 -0.3447
  702MOL0     C94684   7.290  10.848  11.141 -1.0515  0.3311  0.0064
  702MOL0     C94685   7.339  10.844  11.010  0.0244  0.6095 -0.3804
  702MOL0     N94686   7.155  10.320  10.772 -0.1912 -0.1128 -0.5931
  702MOL0     N94687   7.201  10.206  10.748  0.2911 -0.0932 -0.3700
  702MOL0     C94688   6.715  10.174  10.389  0.0848  0.2067  0.4297
  702MOL0     C94689   6.598  10.220  10.463 -0.7510  0.1577 -0.5252
  702MOL0     C94690   6.281  10.390  10.671 -0.0436 -0.9832 -0.4941
  702MOL0     C94691   6.297  10.387  10.814 -0.8109  0.1970  0.4628
  702MOL0     C94692   6.186  10.376  10.895 -0.0879 -0.1746  0.0721
  702MOL0     C94693   6.053  10.388  10.849  0.6128 -0.7603  0.6054
  702MOL0     O94694   5.957  10.419  10.947  0.1151 -0.1760 -0.0626
  702MOL0     C94695   5.831  10.471  10.896 -0.7314  0.4074 -0.1383
  702MOL0     C94696   5.841  10.600  10.822 -0.2812 -0.9664 -0.6170
  702MOL0     C94697   5.902  10.714  10.919  0.1524 -0.6896  0.0250
  702MOL0     C94698   5.932  10.845  10.843  0.3533  0.0554  0.7261
  702MOL0     C94699   5.817  10.929  10.799 -0.3568  0.6751 -0.0897
  702MOL0     C94700   5.716  10.982  10.751 -1.2171 -0.0158 -0.1888
  702MOL0     C94701   6.042  10.374  10.711  0.1035  0.1912  0.2308
  702MOL0     C94702   6.154  10.385  10.620 -0.3656  0.3427  0.1260
  702MOL0     H94703   6.745  10.402  10.699 -0.1488 -1.5619  1.0841
  702MOL0     H94704   6.953  10.319  10.576 -0.2773  1.3382  1.0842
  702MOL0     H94705   6.863  10.195  10.165  1.3361  1.4305 -0.9404
  702MOL0     H94706   7.029  10.172  10.152 -0.6146  0.4400 -0.9261
  702MOL0     H94707   6.852   9.972  10.292  1.8644 -1.1118  2.1517
  702MOL0     H94708   6.883   9.969  10.117  0.4922  0.2505  0.4105
  702MOL0     H94709   7.033   9.899  10.367 -0.2796  2.7547  0.0226
  702MOL0     H94710   7.007   9.808  10.210  2.1788 -1.3649  0.7416
  702MOL0     H94711   7.232   9.837  10.195  1.1324  1.1521 -1.7948
  702MOL0     H94712   7.163   9.966  10.098 -2.2741 -1.2920 -0.8887
  702MOL0     H94713   7.374  10.036  10.205  0.7645 -0.2331  0.6516
  702MOL0     H94714   7.237  10.142  10.223 -1.1420 -0.8577  0.5148
  702MOL0     H94715   7.192  10.091  10.436 -0.1529  1.4422 -1.9924
  702MOL0     H94716   7.271   9.935  10.431 -2.5378  1.4913  0.7775
  702MOL0     H94717   7.498  10.025  10.440  0.7710  1.1148  2.7720
  702MOL0     H94718   7.443  10.187  10.412  1.2921 -1.9062 -2.5007
  702MOL0     H94719   7.488  10.134  10.658  0.6886  1.4211 -0.8085
  702MOL0     H94720   7.364  10.024  10.666  1.3665  0.5806  1.5606
  702MOL0     H94721   7.273  10.374  10.482  1.0588  0.3240 -0.1141
  702MOL0     H94722   7.022  10.524  10.566 -1.9731  1.9334  1.2099
  702MOL0     H94723   7.052  10.568  10.738 -0.8625 -3.3040  0.7663
  702MOL0     H94724   7.134  10.747  10.608  1.2224  1.7007 -2.5061
  702MOL0     H94725   7.211  10.654  10.496 -2.6201 -1.6345 -0.7716
  702MOL0     H94726   7.399  10.603  10.667 -0.9177 -1.6105 -0.8934
  702MOL0     H94727   7.283  10.637  10.799  3.4382 -2.8320  0.3628
  702MOL0     H94728   7.413  10.831  10.607  1.2937  1.4880  0.2008
  702MOL0     H94729   7.488  10.803  10.756 -1.7662  2.2378  3.4716
  702MOL0     H94730   7.077  10.974  10.844 -1.0039 -2.7131 -0.8421
  702MOL0     H94731   6.861  10.927  11.075  1.2588 -0.6906 -0.0595
  702MOL0     H94732   6.938  11.048  11.171  1.2595  0.3295  0.3417
  702MOL0     H94733   6.927  11.064  10.989 -1.9557  0.3676  0.5969
  702MOL0     H94734   6.915  10.633  11.469 -1.7276 -0.4904  1.0706
  702MOL0     H94735   6.830  10.610  11.681  4.1959 -2.2901 -1.2380
  702MOL0     H94736   6.719  10.643  11.914  0.9873 -1.1227 -2.6487
  702MOL0     H94737   6.882  10.590  11.933 -0.8510 -0.1856 -0.4718
  702MOL0     H94738   6.894  10.751  12.123 -0.1847  0.1283 -3.3178
  702MOL0     H94739   6.712  10.767  12.116  0.0714  1.3097  0.8518
  702MOL0     H94740   6.868  10.499  12.155  0.8696  1.6473  1.7112
  702MOL0     H94741   6.690  10.507  12.136  0.1116 -0.6308  0.4555
  702MOL0     H94742   6.873  10.623  12.336  0.4315  0.0341 -2.0638
  702MOL0     H94743   6.696  10.661  12.349 -1.6047 -1.9796  1.5022
  702MOL0     H94744   6.736  10.486  12.491  0.0275 -1.5274  0.1416
  702MOL0     H94745   6.835  10.395  12.392 -1.5987 -1.8065 -0.6785
  702MOL0     H94746   6.555  10.456  12.287  0.4893  0.2020 -0.8032
  702MOL0     H94747   6.667  10.318  12.236 -0.4956 -3.1069  1.1142
  702MOL0     H94748   6.562  10.361  12.509  2.2345  1.3672 -1.5092
  702MOL0     H94749   6.637  10.213  12.453 -0.3651 -0.7044  2.2995
  702MOL0     H94750   6.388  10.322  12.365 -0.2255  0.5595  0.2725
  702MOL0     H94751   6.387  10.178  12.474  0.9047  3.4583  2.8406
  702MOL0     H94752   6.898  11.020  11.768 -2.7113 -2.3182  1.5062
  702MOL0     H94753   6.954  11.066  11.525  1.3734  0.3284  2.4358
  702MOL0     H94754   7.347  10.804  11.222 -1.5178 -1.6331 -0.6685
  702MOL0     H94755   7.439  10.805  10.995  0.1351  1.2247 -1.3438
  702MOL0     H94756   6.693  10.119  10.298  1.3550 -0.9801  0.8060
  702MOL0     H94757   6.497  10.199  10.431 -0.2097 -0.3148 -1.9755
  702MOL0     H94758   6.397  10.392  10.857 -0.1494  0.7522 -1.0655
  702MOL0     H94759   6.209  10.362  11.000 -1.0189 -1.3835  0.1322
  702MOL0     H94760   5.789  10.407  10.818 -1.9803  2.0116 -0.8479
  702MOL0     H94761   5.765  10.473  10.983  1.6199 -3.7077  2.0448
  702MOL0     H94762   5.740  10.635  10.798 -1.1002 -0.4579  2.9157
  702MOL0     H94763   5.901  10.594  10.731 -3.0390  1.6625 -2.8357
  702MOL0     H94764   6.003  10.681  10.946  0.2200 -1.1724 -0.7747
  702MOL0     H94765   5.844  10.728  11.011 -0.6319 -3.7122  0.1014
  702MOL0     H94766   5.989  10.828  10.751  0.2777  1.5788  0.3832
  702MOL0     H94767   5.988  10.898  10.920 -1.4584  0.1562  2.0506
  702MOL0     H94768   5.621  11.022  10.722 -1.3950 -0.2033  0.1187
  702MOL0     H94769   5.948  10.377  10.656 -0.4342 -2.4522  0.8914
  702MOL0     H94770   6.146  10.404  10.514  0.2092  0.8290  0.1660
  703MOL0     O94771   7.140   8.614   0.475  0.2401  0.4341  0.2729
  703MOL0     C94772   7.123   8.545   0.571  0.3841  0.1993  0.4087
  703MOL0     O94773   7.063   8.423   0.570  0.1648  0.4400 -0.6569
  703MOL0     C94774   6.997   8.365   0.458 -0.1192  0.1904 -0.8753
  703MOL0     C94775   6.927   8.428   0.360 -0.4845 -0.9458  0.1398
  703MOL0     C94776   6.861   8.373   0.254  0.4176  0.4588 -0.3638
  703MOL0     C94777   6.840   8.238   0.253 -0.0691  0.8660 -0.6095
  703MOL0     O94778   6.773   8.182   0.152 -0.2723  0.5881 -0.1778
  703MOL0     C94779   6.649   8.111   0.178  0.5716  0.3715 -0.9181
  703MOL0     C94780   6.563   8.120   0.048 -0.6578 -0.2535 -0.4436
  703MOL0     C94781   6.479   8.248   0.057 -0.1271  0.3314 -0.4591
  703MOL0     C94782   6.516   8.380  -0.024  0.0172  0.4003 -0.7262
  703MOL0     C94783   6.517   8.366  -0.178 -0.1541  0.1503  0.0144
  703MOL0     C94784   6.544   8.494  -0.257 -0.3728  1.3072 -1.2998
  703MOL0     C94785   6.529   8.477  -0.407 -0.3163 -1.2646 -0.0458
  703MOL0     C94786   6.429   8.565  -0.474 -0.9077 -0.8476  0.7258
  703MOL0     N94787   6.481   8.704  -0.451  0.6136 -0.6486 -0.1245
  703MOL0     C94788   6.411   8.811  -0.421  0.3095 -0.1628  0.8284
  703MOL0     C94789   6.482   8.924  -0.442  0.4510  1.1738 -0.1534
  703MOL0     C94790   6.474   9.058  -0.405  0.1259 -0.7255 -0.6350
  703MOL0     C94791   6.383   9.079  -0.279 -0.0045  0.4806 -0.3690
  703MOL0     C94792   6.363   9.224  -0.245 -0.3998 -0.2639 -0.1328
  703MOL0     C94793   6.261   9.239  -0.134 -0.3616 -0.3483  0.1226
  703MOL0     O94794   6.303   9.196  -0.012  0.0491  0.4223  0.8031
  703MOL0     C94795   6.208   9.177   0.088 -0.0597  0.2581  0.1246
  703MOL0     C94796   6.076   9.244   0.090 -0.4911  0.5294 -0.2339
  703MOL0     C94797   6.004   9.233   0.209 -0.0643 -0.6228 -0.2161
  703MOL0     C94798   5.871   9.301   0.214 -0.3498 -0.2383  0.3834
  703MOL0     C94799   6.053   9.154   0.322  0.3987  0.6987 -0.2487
  703MOL0     C94800   5.975   9.138   0.445  0.4988 -0.3366 -0.3098
  703MOL0     O94801   5.845   9.137   0.440  0.7299 -0.4209 -0.1631
  703MOL0     C94802   5.781   9.116   0.560  0.4211  0.2641 -0.6655
  703MOL0     C94803   5.671   9.205   0.589  0.8215  0.5743 -0.0015
  703MOL0     C94804   5.600   9.189   0.711 -0.1786  0.2852 -0.8533
  703MOL0     C94805   5.640   9.090   0.802  0.8552  0.2512 -0.8408
  703MOL0     O94806   5.560   9.067   0.916  0.0468  0.2284 -0.2414
  703MOL0     C94807   5.634   9.027   1.035  0.5079 -0.6957  0.6181
  703MOL0     C94808   5.593   9.116   1.162  0.2148 -0.3799  0.8134
  703MOL0     C94809   5.686   9.076   1.279 -0.0961  0.0249 -0.2762
  703MOL0     C94810   5.687   8.926   1.312  0.4614  0.1329  0.6499
  703MOL0     C94811   5.745   8.882   1.445 -0.0033 -0.6078 -0.1643
  703MOL0     C94812   5.745   8.734   1.478 -0.0659 -0.1227 -0.5623
  703MOL0     C94813   5.881   8.690   1.421 -0.4171 -0.4435 -0.4008
  703MOL0     C94814   5.902   8.551   1.481 -0.6321 -0.5564 -0.4227
  703MOL0    Cl94815   6.004   8.579   1.625 -0.2064  0.2278  0.2844
  703MOL0     C94816   5.746   9.010   0.778 -0.3869  0.8692  0.8857
  703MOL0     C94817   5.806   9.015   0.647  1.0004  1.3445 -0.4390
  703MOL0     O94818   6.041   9.130   0.546  0.3249  0.3424  0.7385
  703MOL0     C94819   6.184   9.097   0.314  0.4393 -0.6833  0.0046
  703MOL0     C94820   6.259   9.109   0.200  1.3206  0.0558  0.4780
  703MOL0     N94821   6.598   8.872  -0.490 -0.9013  0.1671  0.6618
  703MOL0     N94822   6.601   8.746  -0.495  0.0884  0.7802  0.3719
  703MOL0     C94823   6.898   8.162   0.355 -0.8110  0.5294  0.3907
  703MOL0     C94824   6.977   8.224   0.457  0.1680 -0.0014  1.3173
  703MOL0     C94825   7.179   8.588   0.710  1.4907  0.9107  0.1897
  703MOL0     C94826   7.233   8.708   0.739  0.6468 -0.1304  0.6538
  703MOL0     C94827   7.268   8.752   0.863 -1.6438 -0.6079 -0.9599
  703MOL0     C94828   7.251   8.670   0.979 -0.3321 -0.0788 -0.0559
  703MOL0     O94829   7.260   8.717   1.107  0.0407  0.2925 -0.0150
  703MOL0     C94830   7.221   8.642   1.224  0.5651 -0.0236  0.6691
  703MOL0     C94831   7.070   8.648   1.239  0.8881  1.0617 -0.9041
  703MOL0     C94832   7.017   8.573   1.370 -0.8343 -0.6733 -0.2361
  703MOL0     C94833   7.028   8.664   1.498  0.4088  0.2113  0.6305
  703MOL0     C94834   6.976   8.596   1.622  0.4444  0.2296  0.2259
  703MOL0     C94835   6.919   8.533   1.702 -0.3210  0.3929 -0.1153
  703MOL0     C94836   7.211   8.535   0.952  0.0459  0.4864 -0.7843
  703MOL0     C94837   7.181   8.498   0.815 -0.9227 -0.0858 -0.1045
  703MOL0     H94838   6.903   8.533   0.376 -4.7666 -2.0435  2.4311
  703MOL0     H94839   6.817   8.436   0.177  2.9733  1.7081 -0.9104
  703MOL0     H94840   6.679   8.011   0.210 -5.0797 -0.6255  2.5976
  703MOL0     H94841   6.600   8.161   0.261 -0.0001 -1.6510  0.0253
  703MOL0     H94842   6.632   8.132  -0.036  2.0001  2.2948  1.8887
  703MOL0     H94843   6.497   8.033   0.037  0.9474 -1.4429 -1.1004
  703MOL0     H94844   6.373   8.229   0.040  0.0115 -0.2786 -0.6390
  703MOL0     H94845   6.481   8.280   0.161  1.3926  1.7666 -0.8788
  703MOL0     H94846   6.430   8.444  -0.003 -3.6802 -4.0355 -0.7279
  703MOL0     H94847   6.609   8.427   0.010  1.0753 -1.4569 -0.8863
  703MOL0     H94848   6.596   8.296  -0.206 -0.4552 -0.1224 -0.1561
  703MOL0     H94849   6.422   8.320  -0.207 -0.3573  1.6295 -1.7914
  703MOL0     H94850   6.478   8.570  -0.216 -1.8726 -0.7418  0.2708
  703MOL0     H94851   6.647   8.522  -0.232 -0.8460  1.3580  0.7388
  703MOL0     H94852   6.628   8.479  -0.454 -0.3802 -0.4675 -0.1586
  703MOL0     H94853   6.491   8.376  -0.426  1.1463 -2.0953  1.1531
  703MOL0     H94854   6.327   8.554  -0.434 -2.3784  1.3860 -1.9930
  703MOL0     H94855   6.427   8.535  -0.579  0.9422  2.6631 -0.4704
  703MOL0     H94856   6.305   8.807  -0.396  0.3717 -0.4508  1.0546
  703MOL0     H94857   6.578   9.083  -0.384 -0.0478 -0.0597 -0.5322
  703MOL0     H94858   6.436   9.119  -0.487 -0.4642 -0.2717 -0.0443
  703MOL0     H94859   6.425   9.024  -0.194 -1.2263 -1.3887 -0.9211
  703MOL0     H94860   6.284   9.037  -0.298 -0.5299  1.6322 -0.2665
  703MOL0     H94861   6.341   9.279  -0.338  0.0488  2.0476  1.0615
  703MOL0     H94862   6.453   9.268  -0.201 -0.6031  0.6948 -0.6286
  703MOL0     H94863   6.170   9.183  -0.159 -0.1975 -0.0026 -1.3475
  703MOL0     H94864   6.222   9.340  -0.119 -2.9775 -1.4392  1.4650
  703MOL0     H94865   6.031   9.297   0.007 -0.8198 -1.7409 -1.6073
  703MOL0     H94866   5.870   9.370   0.299 -4.3967  0.6341 -0.1419
  703MOL0     H94867   5.859   9.380   0.139 -2.2508 -0.6273  0.2223
  703MOL0     H94868   5.781   9.240   0.209 -1.3806  1.2900 -3.2079
  703MOL0     H94869   5.629   9.271   0.513 -1.1503  3.3467  3.2093
  703MOL0     H94870   5.511   9.241   0.744  0.1412 -1.0036  2.3364
  703MOL0     H94871   5.613   8.922   1.055 -0.4406 -0.5227  0.5953
  703MOL0     H94872   5.742   9.037   1.023  1.0482 -1.9950  3.5737
  703MOL0     H94873   5.604   9.218   1.126  1.5970 -1.2098 -1.3092
  703MOL0     H94874   5.485   9.103   1.179 -1.1311  5.0357 -1.4332
  703MOL0     H94875   5.658   9.136   1.366  2.3844  3.3078 -1.5415
  703MOL0     H94876   5.789   9.091   1.248  0.3191 -1.4421  0.3479
  703MOL0     H94877   5.586   8.882   1.309 -1.5947  4.3531  0.9502
  703MOL0     H94878   5.745   8.873   1.236  0.4480 -1.3370  1.6226
  703MOL0     H94879   5.686   8.934   1.521  0.7534 -1.4907  1.0656
  703MOL0     H94880   5.845   8.926   1.451  0.9983 -2.8980  3.8623
  703MOL0     H94881   5.750   8.718   1.586  0.5323  2.3504 -0.1649
  703MOL0     H94882   5.661   8.679   1.433  0.3446 -2.0287  0.8741
  703MOL0     H94883   5.963   8.750   1.461 -1.4315  3.1387 -3.1405
  703MOL0     H94884   5.871   8.708   1.314 -2.6815 -0.4069 -0.2364
  703MOL0     H94885   5.961   8.488   1.414  0.0871  0.4092 -0.7189
  703MOL0     H94886   5.818   8.487   1.509  0.4713 -1.9387 -0.1488
  703MOL0     H94887   5.775   8.923   0.835 -0.9483 -1.1693 -1.7329
  703MOL0     H94888   5.883   8.942   0.625 -2.8194 -2.5414 -2.4970
  703MOL0     H94889   6.228   9.036   0.392  1.0351 -2.9304 -1.9854
  703MOL0     H94890   6.353   9.055   0.205  1.1140 -0.2709  0.9595
  703MOL0     H94891   6.880   8.055   0.356  1.1018  0.1339 -1.1923
  703MOL0     H94892   7.027   8.147   0.515  2.3246 -0.5059 -1.0406
  703MOL0     H94893   7.219   8.784   0.662  0.7409 -1.4040 -0.6558
  703MOL0     H94894   7.304   8.854   0.871 -1.4218 -0.8153  0.9714
  703MOL0     H94895   7.262   8.541   1.229  1.2521  0.0862 -1.4565
  703MOL0     H94896   7.273   8.686   1.310 -0.0436  2.0699  0.0408
  703MOL0     H94897   7.018   8.600   1.155  0.6537 -2.5716  1.1061
  703MOL0     H94898   7.031   8.750   1.246  1.3057  1.4255 -3.0093
  703MOL0     H94899   7.080   8.485   1.389  0.0648  0.2599  1.3817
  703MOL0     H94900   6.919   8.534   1.345 -0.2130 -0.7795 -2.7497
  703MOL0     H94901   6.964   8.752   1.490  0.0371 -0.2275 -1.8578
  703MOL0     H94902   7.131   8.694   1.521  0.3159 -0.2751  1.7592
  703MOL0     H94903   6.865   8.468   1.768 -0.5953  1.2946  0.5574
  703MOL0     H94904   7.198   8.459   1.028 -1.9385  0.7939 -0.7764
  703MOL0     H94905   7.148   8.397   0.795 -0.0544  0.1881 -3.6552
  704MOL0     O94906   5.656  10.201   7.225  0.2383  0.4554  0.2383
  704MOL0     C94907   5.592  10.288   7.169 -0.3159  0.6540 -0.9553
  704MOL0     O94908   5.459  10.306   7.184  1.1077  0.0313  0.3844
  704MOL0     C94909   5.373  10.213   7.234  0.0198  1.0201 -0.5343
  704MOL0     C94910   5.400  10.156   7.359  0.4748 -0.0079  0.1359
  704MOL0     C94911   5.304  10.075   7.417 -0.0528 -0.7935  0.6687
  704MOL0     C94912   5.194  10.029   7.347 -0.0711  0.1353  0.8247
  704MOL0     O94913   5.109   9.942   7.419  0.4452  0.2862  0.5726
  704MOL0     C94914   4.967   9.949   7.389 -1.1683 -0.6298  1.1428
  704MOL0     C94915   4.895   9.864   7.498 -0.5726 -1.0159  0.3759
  704MOL0     C94916   4.742   9.882   7.497  0.2237  0.6309 -0.6862
  704MOL0     C94917   4.669   9.765   7.426  0.8100 -0.3294  0.1886
  704MOL0     C94918   4.522   9.797   7.389 -1.0122  0.0306  0.0595
  704MOL0     C94919   4.409   9.791   7.489  0.3277  0.2734 -0.6010
  704MOL0     C94920   4.368   9.922   7.567  0.3058  1.4859  0.1092
  704MOL0     C94921   4.318  10.022   7.476  1.0444  0.5288  0.0917
  704MOL0     N94922   4.309  10.150   7.550  0.0029  0.1850 -0.1115
  704MOL0     C94923   4.224  10.188   7.646 -0.4501 -0.5166 -0.4506
  704MOL0     C94924   4.250  10.319   7.669 -0.3026 -0.5195 -0.9767
  704MOL0     C94925   4.182  10.417   7.771 -0.0715  0.6259  0.5486
  704MOL0     C94926   4.166  10.366   7.905  0.4633  0.1020 -0.8887
  704MOL0     C94927   4.127  10.476   7.997  0.1960 -0.2815  0.2387
  704MOL0     C94928   3.994  10.536   7.970  0.4765 -0.3141 -0.8598
  704MOL0     O94929   3.883  10.444   7.945  0.0679  0.2525  0.7065
  704MOL0     C94930   3.815  10.412   8.061  0.5766  0.3662  0.2814
  704MOL0     C94931   3.848  10.292   8.135  0.2252  0.4089 -0.5057
  704MOL0     C94932   3.803  10.271   8.262  0.3829 -0.3619 -0.4298
  704MOL0     C94933   3.863  10.153   8.335 -0.4909 -0.0801  0.1635
  704MOL0     C94934   3.707  10.360   8.316 -0.5667 -0.1145  0.1557
  704MOL0     C94935   3.669  10.339   8.459  0.2547  0.0381 -0.0522
  704MOL0     O94936   3.591  10.223   8.492  0.1456 -0.2067  0.0362
  704MOL0     C94937   3.572  10.208   8.631  0.2494 -0.3060 -0.2767
  704MOL0     C94938   3.461  10.260   8.693  0.0221  0.6833 -0.1349
  704MOL0     C94939   3.434  10.242   8.829  0.1163  0.5590  0.6983
  704MOL0     C94940   3.513  10.164   8.910 -1.4449  0.1441  0.6947
  704MOL0     O94941   3.472  10.148   9.046 -0.6700 -0.5062  0.6405
  704MOL0     C94942   3.551  10.074   9.136  0.6231  0.2158 -0.2265
  704MOL0     C94943   3.479  10.066   9.271  0.2677  0.7873  0.3388
  704MOL0     C94944   3.539   9.963   9.373  0.0679 -0.0765 -0.3524
  704MOL0     C94945   3.470   9.827   9.368 -0.1750  0.0614 -0.3814
  704MOL0     C94946   3.355   9.798   9.470  0.9070  0.6383 -0.1107
  704MOL0     C94947   3.320   9.647   9.466  0.4256 -0.0034  0.7117
  704MOL0     C94948   3.215   9.606   9.571  0.2061  0.0182 -0.5470
  704MOL0     C94949   3.181   9.457   9.559  0.1532 -0.5900 -0.5885
  704MOL0    Cl94950   3.320   9.356   9.609 -0.0963 -0.1931 -0.1494
  704MOL0     C94951   3.625  10.099   8.842  1.7712 -0.2397 -0.9981
  704MOL0     C94952   3.653  10.129   8.710 -1.2256 -0.0392 -0.1235
  704MOL0     O94953   3.680  10.436   8.533  0.0979  0.1370 -0.3610
  704MOL0     C94954   3.654  10.464   8.232 -1.0908 -0.2836  0.0072
  704MOL0     C94955   3.726  10.499   8.114 -0.1670  0.5219  0.7146
  704MOL0     N94956   4.371  10.347   7.596  0.8198  0.0223 -0.3143
  704MOL0     N94957   4.401  10.248   7.512  0.6367 -0.3113 -0.2946
  704MOL0     C94958   5.169  10.082   7.220  0.1493  0.4535  0.6546
  704MOL0     C94959   5.257  10.180   7.171  0.9612  0.3839  0.2585
  704MOL0     C94960   5.658  10.383   7.082  0.6295  0.1755  0.5761
  704MOL0     C94961   5.598  10.495   7.022 -0.8087  0.9811 -0.4014
  704MOL0     C94962   5.670  10.582   6.946  0.6974  0.2778 -1.0423
  704MOL0     C94963   5.800  10.570   6.920  0.8306  0.2125  0.4768
  704MOL0     O94964   5.865  10.667   6.843 -0.3250 -0.5065 -0.7434
  704MOL0     C94965   5.842  10.807   6.878  0.1289 -0.2724 -0.0137
  704MOL0     C94966   5.949  10.891   6.806  0.0585  0.0470 -1.3056
  704MOL0     C94967   6.083  10.875   6.883 -0.0874  1.1714  1.0447
  704MOL0     C94968   6.201  10.930   6.801  0.3488 -1.0367  0.3979
  704MOL0     C94969   6.178  11.081   6.783 -0.7684  0.1365 -1.3605
  704MOL0     C94970   6.171  11.194   6.763 -0.4687  0.2049 -0.2869
  704MOL0     C94971   5.856  10.446   6.956  0.2091 -1.2221 -0.1924
  704MOL0     C94972   5.786  10.361   7.042 -0.1425 -1.0772  0.7982
  704MOL0     H94973   5.486  10.189   7.416 -1.2158 -0.1271  2.9808
  704MOL0     H94974   5.329  10.062   7.522  2.5328 -1.7360  0.0175
  704MOL0     H94975   4.924  10.049   7.381 -1.0557 -0.7632 -3.8789
  704MOL0     H94976   4.960   9.909   7.288  0.0010  3.0634 -0.5609
  704MOL0     H94977   4.923   9.759   7.480 -1.0919 -1.0458 -0.2797
  704MOL0     H94978   4.943   9.912   7.583  3.2515 -0.2938 -1.9677
  704MOL0     H94979   4.720   9.876   7.604 -0.8794  0.8742 -0.8831
  704MOL0     H94980   4.713   9.982   7.462  0.4715  0.3785 -1.6314
  704MOL0     H94981   4.723   9.754   7.332  0.9638  4.5082 -0.5534
  704MOL0     H94982   4.685   9.677   7.489 -1.0053 -0.3605  0.6732
  704MOL0     H94983   4.527   9.897   7.346  1.2343 -0.1148 -0.1783
  704MOL0     H94984   4.497   9.731   7.305  0.4199 -0.9462  0.3485
  704MOL0     H94985   4.324   9.744   7.438  0.2164 -0.9417  0.6441
  704MOL0     H94986   4.435   9.717   7.566  1.4457  0.0197 -1.2066
  704MOL0     H94987   4.286   9.902   7.636  0.2568  1.6969  0.1148
  704MOL0     H94988   4.448   9.954   7.633  2.5829 -1.1087 -1.2004
  704MOL0     H94989   4.220   9.991   7.438  0.0775  1.0289  2.0515
  704MOL0     H94990   4.387  10.035   7.392 -0.6461 -2.5802 -1.9478
  704MOL0     H94991   4.155  10.127   7.704  4.2563 -2.5801  3.8003
  704MOL0     H94992   4.253  10.500   7.783  0.1491  0.7087 -1.0596
  704MOL0     H94993   4.087  10.445   7.726 -2.3513 -2.2556  3.1296
  704MOL0     H94994   4.253  10.312   7.942 -1.2805 -2.3084 -0.0681
  704MOL0     H94995   4.090  10.288   7.912 -2.3502  2.7488  3.4984
  704MOL0     H94996   4.193  10.560   7.975  0.6732 -1.2889 -2.6739
  704MOL0     H94997   4.126  10.446   8.102 -0.9517  3.3115  1.4170
  704MOL0     H94998   4.008  10.585   7.874 -2.3172 -3.5057 -3.1205
  704MOL0     H94999   3.980  10.607   8.052  2.5782 -1.5553  0.6999
  704MOL0     H95000   3.913  10.212   8.101 -0.6291  0.8880 -3.6648
  704MOL0     H95001   3.940  10.104   8.274 -1.3553 -0.7734 -0.3984
  704MOL0     H95002   3.901  10.185   8.432 -0.1483  1.1913 -0.3734
  704MOL0     H95003   3.789  10.074   8.352 -0.5168 -0.6304 -2.0909
  704MOL0     H95004   3.388  10.324   8.644 -0.6095 -0.3005 -0.5262
  704MOL0     H95005   3.348  10.289   8.877  0.3030  3.3620 -1.4673
  704MOL0     H95006   3.561   9.972   9.098 -3.3231 -1.2693  2.1615
  704MOL0     H95007   3.650  10.121   9.144 -0.0540  1.3268  2.4287
  704MOL0     H95008   3.490  10.164   9.319  0.5159  0.1048  1.7180
  704MOL0     H95009   3.377  10.036   9.244  1.6263 -0.7648 -3.8078
  704MOL0     H95010   3.533   9.999   9.476 -2.2648 -1.1311 -0.0450
  704MOL0     H95011   3.644   9.968   9.343  0.5672  2.0533  1.4972
  704MOL0     H95012   3.432   9.815   9.266  1.9812 -0.8094 -1.1378
  704MOL0     H95013   3.553   9.757   9.375  3.7261  4.0736 -1.8060
  704MOL0     H95014   3.275   9.872   9.459  0.9426  0.7507  0.3582
  704MOL0     H95015   3.404   9.812   9.567 -0.3179  4.1576  0.1351
  704MOL0     H95016   3.281   9.626   9.365  1.5374 -0.0846  0.2871
  704MOL0     H95017   3.413   9.591   9.478  0.6679 -0.0460 -1.0334
  704MOL0     H95018   3.127   9.671   9.569  0.1271 -0.0811 -0.3691
  704MOL0     H95019   3.262   9.633   9.666  0.3328  0.1837 -0.6579
  704MOL0     H95020   3.155   9.429   9.457 -1.8354 -1.2320  0.0406
  704MOL0     H95021   3.095   9.456   9.627 -2.3221 -3.8950 -3.4179
  704MOL0     H95022   3.688  10.019   8.880  0.8130 -0.8946 -0.7360
  704MOL0     H95023   3.744  10.085   8.671  0.2545  2.7510 -0.1038
  704MOL0     H95024   3.575  10.528   8.271  2.5130  2.7769  3.0436
  704MOL0     H95025   3.701  10.588   8.056  0.9190  2.0489  2.4889
  704MOL0     H95026   5.074  10.063   7.172  0.2098 -2.2056  1.4407
  704MOL0     H95027   5.247  10.224   7.072  0.4808 -1.1615 -0.4130
  704MOL0     H95028   5.496  10.520   7.050 -0.7806  0.9810 -0.3019
  704MOL0     H95029   5.599  10.659   6.918 -0.5752  0.2597  1.7290
  704MOL0     H95030   5.749  10.833   6.827  0.3357 -0.3359 -0.4234
  704MOL0     H95031   5.837  10.835   6.984  1.6068 -3.3963  1.0062
  704MOL0     H95032   5.931  10.999   6.805  2.1475  0.5062  1.0790
  704MOL0     H95033   5.965  10.846   6.707  2.2265 -3.1993  0.3537
  704MOL0     H95034   6.090  10.768   6.905 -4.1175  0.9207  1.8085
  704MOL0     H95035   6.076  10.908   6.987 -2.5991 -1.5833  1.8787
  704MOL0     H95036   6.211  10.884   6.702  2.1448  1.8366 -0.8975
  704MOL0     H95037   6.300  10.915   6.844  1.0064  1.1815 -0.2105
  704MOL0     H95038   6.173  11.299   6.742 -0.7000  0.5360  1.2066
  704MOL0     H95039   5.952  10.418   6.915  0.3741 -4.8589  2.2407
  704MOL0     H95040   5.838  10.273   7.078 -0.5315 -2.4756 -1.7670
  705MOL0     O95041   1.400   7.487   0.328 -0.6599  0.9502 -0.8943
  705MOL0     C95042   1.451   7.467   0.444 -0.5029  0.2850  0.9913
  705MOL0     O95043   1.388   7.487   0.559 -0.3188 -0.2596 -0.9892
  705MOL0     C95044   1.317   7.603   0.569 -0.0252 -0.2179  0.0626
  705MOL0     C95045   1.194   7.619   0.506 -0.9148 -0.1166 -0.4273
  705MOL0     C95046   1.136   7.745   0.523 -0.6589 -0.8451 -0.2621
  705MOL0     C95047   1.196   7.845   0.606  0.1546 -0.5256  0.0556
  705MOL0     O95048   1.117   7.957   0.625  0.4817  0.0121 -0.4384
  705MOL0     C95049   1.157   8.046   0.731  0.6638  0.5800 -0.0167
  705MOL0     C95050   1.045   8.159   0.738  0.1318 -0.0489 -0.0539
  705MOL0     C95051   0.984   8.178   0.875 -0.9851  0.1262 -0.1026
  705MOL0     C95052   1.065   8.272   0.951  0.2224 -0.1553 -0.1699
  705MOL0     C95053   0.991   8.312   1.085 -0.4499  0.3107  0.1796
  705MOL0     C95054   1.081   8.411   1.159 -0.5575  0.3023 -0.8845
  705MOL0     C95055   1.097   8.552   1.103  0.1553  0.4626  0.5516
  705MOL0     C95056   1.244   8.596   1.106 -0.2403  0.0664  1.2783
  705MOL0     N95057   1.322   8.540   1.000 -0.2570  0.7832  0.6548
  705MOL0     C95058   1.321   8.568   0.861 -0.0593  0.1758 -0.1594
  705MOL0     C95059   1.426   8.501   0.805 -1.1118  0.4854  0.1326
  705MOL0     C95060   1.446   8.520   0.658  0.6163  0.0448 -0.0111
  705MOL0     C95061   1.330   8.458   0.575 -0.6514 -0.0587  0.8365
  705MOL0     C95062   1.356   8.433   0.424  0.8441  0.4147  0.1444
  705MOL0     C95063   1.486   8.477   0.372 -2.1157 -0.2688  0.3350
  705MOL0     O95064   1.483   8.478   0.227  0.0102 -0.6517 -0.0154
  705MOL0     C95065   1.420   8.562   0.145 -0.0521  0.4058  0.1273
  705MOL0     C95066   1.349   8.677   0.191  0.0575  0.1099  0.7130
  705MOL0     C95067   1.269   8.755   0.109 -0.3906  0.0981 -0.3688
  705MOL0     C95068   1.204   8.875   0.171 -0.1385 -0.6099 -0.3061
  705MOL0     C95069   1.259   8.715  -0.030  0.9254  0.3402  0.2995
  705MOL0     C95070   1.166   8.780  -0.133  0.1510 -0.1970 -0.1777
  705MOL0     O95071   1.163   8.919  -0.126  0.1651 -0.4358  0.2663
  705MOL0     C95072   1.067   8.989  -0.196 -0.3085  0.1466  0.4482
  705MOL0     C95073   1.067   8.997  -0.337 -0.4884 -0.0643 -0.1774
  705MOL0     C95074   0.967   9.064  -0.406 -0.5718  0.0858 -1.2732
  705MOL0     C95075   0.890   9.156  -0.344 -0.0839  0.0276 -0.0686
  705MOL0     O95076   0.796   9.230  -0.415 -0.3069  0.6603  0.1424
  705MOL0     C95077   0.842   9.353  -0.446  0.4435  0.6142 -0.9499
  705MOL0     C95078   0.732   9.465  -0.437 -0.0002 -1.0035 -0.1052
  705MOL0     C95079   0.617   9.436  -0.535 -0.2845 -0.3626  0.5915
  705MOL0     C95080   0.520   9.560  -0.542  0.7020 -0.4671 -0.0053
  705MOL0     C95081   0.385   9.516  -0.614 -1.3869  0.2343 -0.5998
  705MOL0     C95082   0.397   9.464  -0.760  0.1782  1.1482 -0.7996
  705MOL0     C95083   0.467   9.570  -0.838 -0.3673 -0.6391 -0.0468
  705MOL0     C95084   0.409   9.562  -0.984 -0.0906 -0.0441  0.0968
  705MOL0    Cl95085   0.441   9.393  -1.036 -0.2920  0.4719 -0.4013
  705MOL0     C95086   0.896   9.154  -0.198  0.8053 -0.1615  1.2724
  705MOL0     C95087   0.976   9.065  -0.126  0.7801  0.1367 -0.0969
  705MOL0     O95088   1.119   8.709  -0.224 -1.1244 -0.4671 -1.3733
  705MOL0     C95089   1.330   8.601  -0.076 -0.3285 -0.1412  0.9274
  705MOL0     C95090   1.410   8.535   0.015 -1.4317  0.0930  0.4763
  705MOL0     N95091   1.488   8.418   0.904 -0.2719  0.0373  0.6279
  705MOL0     N95092   1.425   8.450   1.014 -0.0363  0.6345  0.3842
  705MOL0     C95093   1.328   7.824   0.645  0.1251  0.3366 -0.8580
  705MOL0     C95094   1.388   7.707   0.629 -0.0030  0.7423 -0.5844
  705MOL0     C95095   1.572   7.391   0.457 -1.3631 -0.2177  0.0992
  705MOL0     C95096   1.631   7.350   0.578  0.0855 -0.5679 -0.0513
  705MOL0     C95097   1.734   7.262   0.591 -0.5975 -0.4337  0.2785
  705MOL0     C95098   1.797   7.211   0.473  0.8358 -0.1619 -0.0672
  705MOL0     O95099   1.905   7.124   0.475  0.5254  0.0988 -0.3579
  705MOL0     C95100   1.871   6.988   0.503 -0.1697 -0.2854 -0.9029
  705MOL0     C95101   1.944   6.884   0.430 -0.4702  0.5317  0.5038
  705MOL0     C95102   2.091   6.878   0.480 -0.2681  0.2620 -0.3763
  705MOL0     C95103   2.192   6.825   0.370 -0.3280 -0.7132  0.1910
  705MOL0     C95104   2.325   6.826   0.425  0.2060  1.7475  0.3745
  705MOL0     C95105   2.443   6.832   0.460  0.4916 -0.3982  0.3913
  705MOL0     C95106   1.745   7.255   0.348  0.2437 -0.3488  2.1111
  705MOL0     C95107   1.634   7.333   0.347  0.3833  0.4706  0.8265
  705MOL0     H95108   1.139   7.532   0.474 -0.0883  0.1996 -2.9781
  705MOL0     H95109   1.031   7.756   0.498 -0.9787  0.3899  1.4145
  705MOL0     H95110   1.150   7.971   0.810  0.8230 -2.7155 -2.8828
  705MOL0     H95111   1.258   8.087   0.719  0.2415  1.5264 -0.3764
  705MOL0     H95112   1.083   8.258   0.710 -0.4413  0.3453  0.5585
  705MOL0     H95113   0.965   8.139   0.666  0.0229 -1.4144  0.4257
  705MOL0     H95114   0.879   8.209   0.884 -1.0224 -0.5251  2.3986
  705MOL0     H95115   0.989   8.078   0.920  1.0760 -0.4622 -1.5376
  705MOL0     H95116   1.167   8.240   0.976  0.5060  2.3567  2.3757
  705MOL0     H95117   1.069   8.362   0.887 -2.4103  0.5420  0.5284
  705MOL0     H95118   0.895   8.355   1.059 -0.8056 -0.9118 -0.6117
  705MOL0     H95119   0.966   8.226   1.149 -2.3341  0.1702 -0.6950
  705MOL0     H95120   1.050   8.431   1.262  4.5347 -3.3763  1.8153
  705MOL0     H95121   1.181   8.366   1.170  0.1185  2.0810  0.8977
  705MOL0     H95122   1.049   8.569   1.006  1.7467  1.8820 -0.0225
  705MOL0     H95123   1.049   8.620   1.174 -0.9329  0.3906 -0.0798
  705MOL0     H95124   1.301   8.578   1.197 -0.0261 -1.4433  0.8628
  705MOL0     H95125   1.243   8.706   1.107 -1.4209  0.0651  1.8577
  705MOL0     H95126   1.246   8.618   0.801 -2.6369 -2.7038  0.4102
  705MOL0     H95127   1.460   8.624   0.628 -0.0488 -0.0753 -0.7639
  705MOL0     H95128   1.544   8.479   0.634 -0.2971 -1.0692 -2.1371
  705MOL0     H95129   1.235   8.511   0.585 -0.9655 -0.1125 -1.4511
  705MOL0     H95130   1.328   8.359   0.623  2.7652  0.2491  1.9135
  705MOL0     H95131   1.276   8.482   0.368 -0.5150 -2.5076 -0.6507
  705MOL0     H95132   1.357   8.325   0.411  0.4031  0.4845 -0.4985
  705MOL0     H95133   1.565   8.410   0.408 -2.6102  0.1911  2.3875
  705MOL0     H95134   1.513   8.574   0.413  1.5810 -1.1818  0.4168
  705MOL0     H95135   1.369   8.720   0.289 -0.5802 -0.5781  1.1538
  705MOL0     H95136   1.124   8.911   0.105 -1.4199 -2.8016 -0.0283
  705MOL0     H95137   1.157   8.858   0.268  0.9504 -3.1104 -0.1521
  705MOL0     H95138   1.291   8.941   0.182  0.2383 -1.3538  1.4644
  705MOL0     H95139   1.137   8.938  -0.396  0.9030  2.7021 -1.4640
  705MOL0     H95140   0.964   9.068  -0.514  0.9830  1.4728 -1.3029
  705MOL0     H95141   0.908   9.385  -0.365 -1.9145  0.7031  1.0661
  705MOL0     H95142   0.888   9.346  -0.545  2.0847 -2.7788 -0.0758
  705MOL0     H95143   0.686   9.475  -0.338 -0.4750 -0.2286 -0.4000
  705MOL0     H95144   0.788   9.558  -0.451 -1.0043 -0.4168 -0.3030
  705MOL0     H95145   0.569   9.345  -0.499  2.5557 -2.3281 -0.2488
  705MOL0     H95146   0.646   9.423  -0.640  0.7243  0.2055  0.7845
  705MOL0     H95147   0.510   9.588  -0.437 -0.0336 -1.1179  0.1045
  705MOL0     H95148   0.560   9.654  -0.582  0.4679  0.0311  0.9155
  705MOL0     H95149   0.310   9.595  -0.609 -0.0462  1.6888 -1.8667
  705MOL0     H95150   0.345   9.431  -0.559 -1.0543 -2.4375 -4.1383
  705MOL0     H95151   0.460   9.374  -0.765 -0.3141  0.8078 -1.0165
  705MOL0     H95152   0.300   9.435  -0.804  0.7727 -1.9099 -0.3702
  705MOL0     H95153   0.575   9.557  -0.846 -0.2500 -0.0505  0.5774
  705MOL0     H95154   0.449   9.669  -0.795 -0.0252 -0.5881 -0.0204
  705MOL0     H95155   0.449   9.635  -1.056 -0.4727  1.3215  1.2384
  705MOL0     H95156   0.304   9.592  -0.976  0.0020 -0.0470  1.4578
  705MOL0     H95157   0.827   9.226  -0.156 -0.2485  0.2040 -0.9339
  705MOL0     H95158   0.973   9.064  -0.017 -1.4819  2.0431 -0.0738
  705MOL0     H95159   1.321   8.559  -0.176 -0.0639 -1.3261  1.3873
  705MOL0     H95160   1.461   8.445  -0.018  0.0462  1.0019  0.1679
  705MOL0     H95161   1.393   7.903   0.682  0.1844 -1.0707  2.3553
  705MOL0     H95162   1.492   7.694   0.657 -0.5908  3.3577  3.7005
  705MOL0     H95163   1.587   7.378   0.673  1.7033  0.5984  0.4034
  705MOL0     H95164   1.782   7.232   0.684 -1.2271 -1.0498  0.4086
  705MOL0     H95165   1.876   6.966   0.610 -2.4192 -0.9980 -0.9066
  705MOL0     H95166   1.765   6.975   0.479 -0.1560 -1.6324 -0.3188
  705MOL0     H95167   1.957   6.913   0.326 -2.5069 -2.1197 -0.6170
  705MOL0     H95168   1.895   6.786   0.430  1.2018 -0.3503 -0.7314
  705MOL0     H95169   2.096   6.800   0.557 -3.1208  0.3087 -0.0611
  705MOL0     H95170   2.112   6.976   0.525  1.0613 -0.8980  1.7081
  705MOL0     H95171   2.209   6.893   0.285  3.0154 -0.9927  0.5272
  705MOL0     H95172   2.172   6.728   0.323  0.6218 -0.6068 -0.4515
  705MOL0     H95173   2.546   6.833   0.490  0.7971 -2.6110 -0.4401
  705MOL0     H95174   1.784   7.224   0.252 -0.9525  0.9568  1.1875
  705MOL0     H95175   1.607   7.339   0.242  0.7982 -1.3863  0.5893
  706MOL0     O95176   8.423   6.588   3.568  0.3548 -0.1471  0.0391
  706MOL0     C95177   8.338   6.583   3.476 -0.6590  0.0939 -0.7598
  706MOL0     O95178   8.356   6.537   3.350  1.1768  0.1105 -0.7904
  706MOL0     C95179   8.485   6.498   3.325  0.3118  0.2769  0.6640
  706MOL0     C95180   8.537   6.376   3.380  0.2875 -0.0712  0.7408
  706MOL0     C95181   8.665   6.335   3.348  0.1203 -0.7410  0.4772
  706MOL0     C95182   8.746   6.411   3.255  0.6229  1.6317 -0.1773
  706MOL0     O95183   8.866   6.352   3.217 -1.2390  0.1775  0.1837
  706MOL0     C95184   8.976   6.435   3.179 -0.5855  0.1894  0.1980
  706MOL0     C95185   9.054   6.483   3.298  0.4578  1.0470  0.7562
  706MOL0     C95186   9.143   6.602   3.256  0.9664 -0.3353 -0.5758
  706MOL0     C95187   9.226   6.650   3.377 -0.2040  0.4870  0.0608
  706MOL0     C95188   9.317   6.755   3.331 -0.3494 -0.2616 -0.1269
  706MOL0     C95189   9.407   6.793   3.444 -0.1945  0.3504  0.0873
  706MOL0     C95190   9.477   6.929   3.433  0.6529 -0.4505  0.2143
  706MOL0     C95191   9.549   6.973   3.559  0.3484  0.3073  0.2139
  706MOL0     N95192   9.672   6.899   3.580 -0.4884 -0.1039  0.4797
  706MOL0     C95193   9.786   6.899   3.500 -0.1444  0.2475 -0.8164
  706MOL0     C95194   9.874   6.813   3.555 -0.3942  0.3036  0.3529
  706MOL0     C95195  10.029   6.782   3.527  0.4093 -0.1060  0.6459
  706MOL0     C95196  10.052   6.745   3.384 -0.1914  0.0792  0.4647
  706MOL0     C95197  10.031   6.589   3.363 -0.2305 -0.8162 -0.3170
  706MOL0     C95198  10.094   6.540   3.231 -0.5723 -0.5796 -0.0653
  706MOL0     O95199  10.058   6.609   3.111 -0.0978 -0.5263  0.3963
  706MOL0     C95200  10.058   6.549   2.990 -0.5276 -0.3004 -0.4296
  706MOL0     C95201  10.106   6.421   2.957  0.4209  0.4349 -0.0811
  706MOL0     C95202  10.104   6.370   2.824 -0.6083 -0.3778  0.6652
  706MOL0     C95203  10.181   6.235   2.810 -0.4192  0.3652  0.4175
  706MOL0     C95204  10.034   6.439   2.721  0.1676 -0.8986  0.4310
  706MOL0     C95205  10.017   6.388   2.582 -0.1868  0.1819 -0.3634
  706MOL0     O95206   9.973   6.480   2.490  0.4635  0.2824  0.7349
  706MOL0     C95207   9.909   6.447   2.376  0.6845 -0.1740 -0.6143
  706MOL0     C95208   9.852   6.323   2.346  0.5455  0.8611  0.8552
  706MOL0     C95209   9.793   6.298   2.214 -0.2646  0.0379  0.5151
  706MOL0     C95210   9.779   6.400   2.123  0.7106 -0.4407 -0.5522
  706MOL0     O95211   9.702   6.380   2.010  0.3197 -0.2049 -0.0039
  706MOL0     C95212   9.725   6.452   1.893  0.3225  0.8351 -0.2688
  706MOL0     C95213   9.719   6.340   1.790 -0.0806 -0.3104  1.3344
  706MOL0     C95214   9.842   6.244   1.806 -0.6066 -0.3866 -0.5179
  706MOL0     C95215   9.818   6.135   1.707  0.1863  0.2455  0.7694
  706MOL0     C95216   9.936   6.039   1.702 -0.2400 -0.3129  0.4667
  706MOL0     C95217   9.955   5.997   1.851 -0.6584 -0.7890 -0.6531
  706MOL0     C95218  10.037   5.871   1.851 -0.0778  0.3068  0.5829
  706MOL0     C95219  10.100   5.841   1.984 -0.6526  0.8590  0.3003
  706MOL0    Cl95220  10.218   5.707   1.942 -0.4843  0.5879  0.5585
  706MOL0     C95221   9.830   6.523   2.156 -0.1650 -0.4230 -0.6250
  706MOL0     C95222   9.897   6.544   2.279  0.2300  0.2379 -0.6472
  706MOL0     O95223  10.032   6.263   2.566 -0.0051  0.7408 -0.1570
  706MOL0     C95224   9.987   6.576   2.755  0.4361  0.5796 -0.4165
  706MOL0     C95225  10.000   6.623   2.888  0.5592  0.5453  0.9989
  706MOL0     N95226   9.794   6.737   3.644 -0.0094  0.4712  0.1269
  706MOL0     N95227   9.679   6.797   3.664  0.1544  0.0952 -0.7448
  706MOL0     C95228   8.697   6.521   3.197 -0.2963 -0.3949 -0.2205
  706MOL0     C95229   8.566   6.567   3.221  0.3767 -0.8474  0.7022
  706MOL0     C95230   8.198   6.617   3.505  0.1834  0.2923 -0.3239
  706MOL0     C95231   8.173   6.730   3.581  1.5754 -0.2633  0.2116
  706MOL0     C95232   8.044   6.778   3.615 -0.1891  0.2125  1.4958
  706MOL0     C95233   7.944   6.713   3.548  0.6942 -0.1470 -0.0813
  706MOL0     O95234   7.816   6.769   3.563 -0.3843 -0.1746 -0.4322
  706MOL0     C95235   7.715   6.745   3.481 -0.6097 -0.4797 -0.2549
  706MOL0     C95236   7.593   6.840   3.502 -0.0299 -0.1023  0.2393
  706MOL0     C95237   7.629   6.985   3.445  1.3433 -0.5538 -0.8158
  706MOL0     C95238   7.509   7.074   3.467  0.0770  1.0115  0.1097
  706MOL0     C95239   7.396   7.056   3.370  0.0521  0.8345 -0.3132
  706MOL0     C95240   7.315   7.018   3.286 -0.0126  0.2695  0.8652
  706MOL0     C95241   7.963   6.597   3.472  0.0731 -0.3038  0.7115
  706MOL0     C95242   8.085   6.545   3.446 -0.8069 -0.3891  0.1920
  706MOL0     H95243   8.481   6.310   3.444 -0.5206  0.3374  0.4759
  706MOL0     H95244   8.703   6.243   3.390  3.9854 -0.6964 -2.3912
  706MOL0     H95245   9.053   6.398   3.111 -0.5150 -2.2426  1.4768
  706MOL0     H95246   8.938   6.517   3.118 -2.2129  0.0658  0.9800
  706MOL0     H95247   8.991   6.517   3.380 -4.9597 -2.9339 -1.2123
  706MOL0     H95248   9.122   6.406   3.338 -0.2763  1.1545  2.2694
  706MOL0     H95249   9.213   6.558   3.184 -1.4456 -0.2628 -3.1644
  706MOL0     H95250   9.080   6.681   3.214  1.4360  1.2143  1.5081
  706MOL0     H95251   9.150   6.695   3.442 -1.0211  3.5909 -2.7594
  706MOL0     H95252   9.272   6.566   3.430  1.2417  1.1283 -0.1179
  706MOL0     H95253   9.376   6.716   3.248 -0.9702  1.8177 -1.6601
  706MOL0     H95254   9.261   6.846   3.307 -1.2193 -0.1815  1.9749
  706MOL0     H95255   9.348   6.799   3.536  1.0129  1.0647  0.8433
  706MOL0     H95256   9.478   6.712   3.465 -1.7461 -1.8444 -2.4808
  706MOL0     H95257   9.525   6.917   3.336 -2.5001  0.9455 -1.6479
  706MOL0     H95258   9.408   7.009   3.406 -2.2728 -2.4062  1.3842
  706MOL0     H95259   9.492   6.954   3.650  0.3443 -2.5617 -0.2868
  706MOL0     H95260   9.561   7.081   3.546 -2.0083  0.3015 -3.3606
  706MOL0     H95261   9.816   6.972   3.425 -0.1956  3.4396  2.0118
  706MOL0     H95262  10.085   6.872   3.554 -0.0507  0.6087 -0.6684
  706MOL0     H95263  10.057   6.693   3.584  2.3396 -1.6348 -2.4193
  706MOL0     H95264  10.151   6.761   3.339 -1.3793 -1.2275 -2.9645
  706MOL0     H95265   9.984   6.799   3.317 -0.6804 -1.1088 -0.0178
  706MOL0     H95266   9.926   6.557   3.357 -0.8377  1.2748 -2.0700
  706MOL0     H95267  10.101   6.542   3.433 -0.1445 -2.2431 -1.3258
  706MOL0     H95268  10.050   6.440   3.223  0.0720 -0.8330 -0.5641
  706MOL0     H95269  10.202   6.541   3.249 -0.2367 -0.0933 -1.8921
  706MOL0     H95270  10.138   6.347   3.029  1.4642  1.9587  1.1119
  706MOL0     H95271  10.246   6.242   2.722  0.4185  2.7633  1.1675
  706MOL0     H95272  10.255   6.222   2.889  0.0424  2.8381  0.4679
  706MOL0     H95273  10.098   6.163   2.803 -2.0064  2.2551 -1.8536
  706MOL0     H95274   9.844   6.233   2.407  0.9043  1.0577  1.1921
  706MOL0     H95275   9.759   6.202   2.179 -3.0983  1.0784  0.1561
  706MOL0     H95276   9.634   6.514   1.889 -0.6797 -0.5997 -0.2630
  706MOL0     H95277   9.816   6.512   1.901  0.2134  0.7803  2.1399
  706MOL0     H95278   9.632   6.276   1.807  0.2432 -0.4822  2.3950
  706MOL0     H95279   9.713   6.392   1.694  0.7149 -0.2315  1.3171
  706MOL0     H95280   9.847   6.221   1.912  1.8709  2.2810  0.0676
  706MOL0     H95281   9.939   6.293   1.790 -1.4532  1.4820 -0.1590
  706MOL0     H95282   9.735   6.076   1.747  1.4984 -0.9254  1.8439
  706MOL0     H95283   9.789   6.169   1.607 -1.2550 -2.0116  0.3584
  706MOL0     H95284  10.027   6.081   1.657 -0.1140 -0.6899  0.3672
  706MOL0     H95285   9.897   5.963   1.634 -0.4246  1.4402 -1.5157
  706MOL0     H95286  10.015   6.070   1.906  0.4376 -1.3424 -1.0775
  706MOL0     H95287   9.859   5.978   1.900 -0.8305 -0.9047 -1.0291
  706MOL0     H95288  10.118   5.878   1.777 -0.3711  2.5846  0.3900
  706MOL0     H95289   9.974   5.794   1.806  1.4418 -1.1751  0.9054
  706MOL0     H95290  10.020   5.819   2.056 -0.0211  0.9037  1.0290
  706MOL0     H95291  10.153   5.929   2.020  1.0354 -0.6007  1.5497
  706MOL0     H95292   9.805   6.612   2.100 -1.1671 -0.4712 -0.2848
  706MOL0     H95293   9.943   6.639   2.304  3.5472 -0.9459 -1.7473
  706MOL0     H95294   9.938   6.637   2.680  0.2630 -2.8153 -3.3309
  706MOL0     H95295   9.976   6.726   2.911  1.6661  0.4284  2.8497
  706MOL0     H95296   8.747   6.581   3.120  1.1152  1.3160  1.9092
  706MOL0     H95297   8.519   6.648   3.164  1.2209 -0.6615  0.2566
  706MOL0     H95298   8.265   6.769   3.623  0.0603  1.8375  1.8075
  706MOL0     H95299   8.031   6.864   3.680  4.3871  0.7463  2.0019
  706MOL0     H95300   7.752   6.742   3.378  1.7671  0.7696  0.4852
  706MOL0     H95301   7.693   6.638   3.490  1.8610 -2.0350 -6.9744
  706MOL0     H95302   7.563   6.851   3.607 -0.5863  3.1611 -0.1413
  706MOL0     H95303   7.508   6.798   3.447 -0.5995  1.8451 -0.4787
  706MOL0     H95304   7.651   6.991   3.338  1.6683  0.4069 -0.7043
  706MOL0     H95305   7.713   7.032   3.497 -1.0939  3.1735  0.1371
  706MOL0     H95306   7.550   7.174   3.452  1.5663  0.3572 -0.3775
  706MOL0     H95307   7.476   7.056   3.570 -1.0257 -3.7961 -0.8470
  706MOL0     H95308   7.236   6.990   3.219  0.3164  1.2180  0.0564
  706MOL0     H95309   7.882   6.533   3.436 -0.0127 -0.6568  1.5260
  706MOL0     H95310   8.097   6.457   3.384 -1.7278 -1.8463  1.9769
  707MOL0     O95311   8.019   0.435   5.526 -0.0106  0.3587 -0.3734
  707MOL0     C95312   8.129   0.454   5.475 -0.2148  0.7136 -0.6396
  707MOL0     O95313   8.219   0.544   5.523 -0.8061  0.2409  0.1727
  707MOL0     C95314   8.184   0.643   5.609 -0.0613 -0.3510 -0.1006
  707MOL0     C95315   8.291   0.697   5.684  0.4354 -0.4453 -0.3620
  707MOL0     C95316   8.252   0.797   5.779  0.0782 -0.6283  1.1285
  707MOL0     C95317   8.126   0.852   5.790 -0.5399 -0.4257  0.3229
  707MOL0     O95318   8.124   0.952   5.880 -0.1287  0.0631  0.1448
  707MOL0     C95319   8.013   1.036   5.914 -1.3266  0.5062  0.1125
  707MOL0     C95320   8.057   1.137   6.025 -0.6949  0.0684  0.6850
  707MOL0     C95321   8.106   1.274   5.979  0.3981 -0.8696 -0.4643
  707MOL0     C95322   8.013   1.398   5.985 -0.1581 -0.2547  0.0787
  707MOL0     C95323   7.869   1.384   5.934  0.3260  0.1278 -0.8556
  707MOL0     C95324   7.856   1.419   5.787 -0.1075  0.7090  0.5585
  707MOL0     C95325   7.711   1.445   5.732 -0.5247 -0.5379 -0.9488
  707MOL0     C95326   7.625   1.313   5.766  0.9447 -0.1138 -0.0044
  707MOL0     N95327   7.679   1.194   5.691 -0.8096 -0.8573 -0.1909
  707MOL0     C95328   7.691   1.195   5.552 -0.7725  0.6133  0.0777
  707MOL0     C95329   7.731   1.071   5.527 -0.6861 -0.4066  0.1114
  707MOL0     C95330   7.753   1.017   5.392  0.8801 -0.4094  0.4598
  707MOL0     C95331   7.665   0.889   5.378 -0.4250  0.0880 -0.2508
  707MOL0     C95332   7.651   0.836   5.235  0.3601  0.0947 -1.0761
  707MOL0     C95333   7.786   0.815   5.160 -0.8641  0.3372  0.6172
  707MOL0     O95334   7.862   0.705   5.214  0.0697  0.4120 -0.1327
  707MOL0     C95335   8.000   0.719   5.214 -1.3933 -0.3604  0.2482
  707MOL0     C95336   8.065   0.811   5.300  0.4291 -0.0883  0.4497
  707MOL0     C95337   8.198   0.850   5.296  0.3988 -0.0034  1.3229
  707MOL0     C95338   8.240   0.950   5.400  0.2305 -0.4939 -0.2731
  707MOL0     C95339   8.287   0.782   5.215  0.5817  0.5367 -0.1631
  707MOL0     C95340   8.438   0.793   5.223 -0.4766 -0.7945 -0.5179
  707MOL0     O95341   8.480   0.917   5.260  0.4789  0.1612 -0.2150
  707MOL0     C95342   8.604   0.939   5.306 -0.1025  0.6109  0.0068
  707MOL0     C95343   8.650   1.071   5.311  0.0016  0.2434 -0.3298
  707MOL0     C95344   8.770   1.098   5.368 -0.6430  0.5036 -0.0236
  707MOL0     C95345   8.848   1.000   5.439  0.2188  0.8084 -0.1144
  707MOL0     O95346   8.973   1.034   5.475 -0.6027  0.6715 -0.4534
  707MOL0     C95347   9.072   0.933   5.504 -0.9001 -0.7033  0.1944
  707MOL0     C95348   9.204   1.008   5.540 -0.2327  0.1610 -0.6165
  707MOL0     C95349   9.333   0.934   5.508 -0.6955  0.5514  1.1468
  707MOL0     C95350   9.341   0.806   5.586  0.3060 -0.1098 -0.1271
  707MOL0     C95351   9.464   0.719   5.546  0.0405 -0.4622  0.7255
  707MOL0     C95352   9.591   0.808   5.527  0.5311  0.7589 -0.3662
  707MOL0     C95353   9.702   0.704   5.517  0.5006 -0.4610 -0.6379
  707MOL0     C95354   9.825   0.792   5.491  0.0663 -0.5087  0.9693
  707MOL0    Cl95355   9.870   0.781   5.325  0.2889  0.1976 -0.2476
  707MOL0     C95356   8.791   0.872   5.452  0.4978  0.2293 -0.6749
  707MOL0     C95357   8.666   0.850   5.395 -0.2012  0.3020  0.1717
  707MOL0     O95358   8.505   0.702   5.169  0.2523  0.0178  0.5458
  707MOL0     C95359   8.227   0.676   5.134 -0.0964  0.3660  0.0739
  707MOL0     C95360   8.091   0.653   5.129  0.7235 -0.4340 -0.6840
  707MOL0     N95361   7.752   1.001   5.650  0.3254  0.1963  0.2415
  707MOL0     N95362   7.714   1.074   5.749 -0.2601 -0.6903  0.3991
  707MOL0     C95363   8.022   0.808   5.701  0.3430 -0.8383 -0.8247
  707MOL0     C95364   8.049   0.708   5.607  0.0294 -0.3111 -0.5698
  707MOL0     C95365   8.164   0.355   5.370 -1.0287  1.0319  0.6513
  707MOL0     C95366   8.300   0.314   5.369  0.2345  1.5254  1.3404
  707MOL0     C95367   8.337   0.215   5.279 -0.7261 -0.3480  0.5394
  707MOL0     C95368   8.248   0.169   5.180  0.1873 -0.2515  0.2222
  707MOL0     O95369   8.287   0.098   5.063  0.2772  0.0192 -0.2760
  707MOL0     C95370   8.386  -0.005   5.077 -0.0613  0.0207  0.2835
  707MOL0     C95371   8.487  -0.000   4.965 -0.3614  0.7064 -0.5950
  707MOL0     C95372   8.575   0.121   4.990  0.9523 -0.9032 -0.4885
  707MOL0     C95373   8.693   0.122   4.896  0.3322 -0.1677 -0.6660
  707MOL0     C95374   8.667   0.097   4.753  0.6946  0.9217 -0.9346
  707MOL0     C95375   8.622   0.088   4.646  0.0194  0.0186  0.3601
  707MOL0     C95376   8.117   0.215   5.191  0.3843 -0.3451  0.9156
  707MOL0     C95377   8.070   0.313   5.276 -0.2589 -0.2522  0.3227
  707MOL0     H95378   8.391   0.658   5.673  1.6731  2.5287 -0.6176
  707MOL0     H95379   8.330   0.840   5.841 -0.6429  1.6910  0.5230
  707MOL0     H95380   7.992   1.094   5.823 -0.4254 -2.2718 -1.9880
  707MOL0     H95381   7.921   0.985   5.943 -1.0622 -0.9477 -1.4427
  707MOL0     H95382   7.972   1.143   6.093 -0.5600 -1.6057  1.0470
  707MOL0     H95383   8.138   1.104   6.091 -1.1140  0.1122  1.2274
  707MOL0     H95384   8.193   1.308   6.036  0.0232  2.6247 -1.7409
  707MOL0     H95385   8.137   1.267   5.875  3.6099  0.6232  0.2628
  707MOL0     H95386   8.008   1.436   6.087  2.2749  1.0022 -0.2055
  707MOL0     H95387   8.069   1.470   5.926  4.5198 -2.4472  1.3387
  707MOL0     H95388   7.824   1.286   5.953  0.7048  0.7847  5.3963
  707MOL0     H95389   7.809   1.453   5.994 -1.9762 -1.6242 -0.9824
  707MOL0     H95390   7.910   1.513   5.772  0.9782  0.5451  2.8768
  707MOL0     H95391   7.897   1.336   5.728 -1.3342 -1.6152  2.7452
  707MOL0     H95392   7.656   1.523   5.786 -0.3636 -1.8234  1.1913
  707MOL0     H95393   7.705   1.481   5.629  0.5018  0.0932 -0.8031
  707MOL0     H95394   7.522   1.323   5.731  1.7737  0.7467 -2.3624
  707MOL0     H95395   7.622   1.296   5.874 -3.6001  1.0030  0.2361
  707MOL0     H95396   7.670   1.281   5.489  2.6479  1.6931  0.1753
  707MOL0     H95397   7.713   1.084   5.316 -0.1454 -0.1728  1.1902
  707MOL0     H95398   7.858   1.008   5.365  1.0946  2.8519 -0.1183
  707MOL0     H95399   7.558   0.901   5.397 -0.4888 -1.1656  0.2416
  707MOL0     H95400   7.707   0.815   5.446 -1.3473 -0.2068  0.0006
  707MOL0     H95401   7.610   0.920   5.177 -0.4174 -3.0996 -5.6718
  707MOL0     H95402   7.576   0.757   5.235 -2.3192  2.4176  1.0873
  707MOL0     H95403   7.848   0.903   5.179 -2.5986  1.8044 -0.2419
  707MOL0     H95404   7.781   0.813   5.051  1.2107  0.6089  0.4625
  707MOL0     H95405   8.004   0.860   5.375  1.9623  1.6163  0.6641
  707MOL0     H95406   8.160   0.984   5.466 -2.2201  0.4766 -3.4771
  707MOL0     H95407   8.311   0.899   5.466  1.9092  0.3527 -1.3622
  707MOL0     H95408   8.269   1.052   5.373  0.4074 -0.8141 -1.3610
  707MOL0     H95409   8.601   1.140   5.242 -1.6693  0.4128  0.9536
  707MOL0     H95410   8.820   1.191   5.343  0.8430 -0.8867 -2.7013
  707MOL0     H95411   9.039   0.871   5.588 -1.1555  0.2183  0.7947
  707MOL0     H95412   9.093   0.869   5.417  2.0117  2.5089 -1.7105
  707MOL0     H95413   9.214   1.103   5.487  0.8115 -0.1100 -0.9339
  707MOL0     H95414   9.199   1.031   5.646  1.0769 -1.3775 -0.1673
  707MOL0     H95415   9.418   1.001   5.524  0.6002  0.3616 -3.5746
  707MOL0     H95416   9.327   0.906   5.403 -0.8169 -0.0148  1.3012
  707MOL0     H95417   9.340   0.833   5.692 -1.2110 -0.4915 -0.0158
  707MOL0     H95418   9.253   0.743   5.565  1.6693 -2.4540  0.7725
  707MOL0     H95419   9.445   0.678   5.447  0.2760 -1.3360  1.0302
  707MOL0     H95420   9.486   0.640   5.618  3.0744  2.2022  3.0421
  707MOL0     H95421   9.577   0.877   5.443  0.7524  4.7946  2.5872
  707MOL0     H95422   9.610   0.870   5.615 -0.7552 -0.6742  0.9834
  707MOL0     H95423   9.695   0.627   5.440  1.6326 -3.4374  2.0329
  707MOL0     H95424   9.717   0.656   5.614  0.8982  0.7489 -0.0846
  707MOL0     H95425   9.916   0.760   5.543  0.2529  2.5709  2.7167
  707MOL0     H95426   9.815   0.895   5.524  1.3490 -0.3199  0.8321
  707MOL0     H95427   8.816   0.791   5.519 -2.7866  1.1756  2.0086
  707MOL0     H95428   8.624   0.750   5.398  2.3799 -0.9067 -0.6229
  707MOL0     H95429   8.294   0.625   5.065 -1.1010 -1.6255  0.4863
  707MOL0     H95430   8.063   0.580   5.054  1.8214 -2.0720  0.4380
  707MOL0     H95431   7.923   0.851   5.706  0.3801 -0.8857  1.0787
  707MOL0     H95432   7.989   0.670   5.525  1.6625  1.4815 -2.7233
  707MOL0     H95433   8.371   0.362   5.435  0.6659  4.4025 -1.0275
  707MOL0     H95434   8.439   0.180   5.267 -0.0350  1.3996  0.9921
  707MOL0     H95435   8.445   0.003   5.169 -0.0684 -3.3334  0.7022
  707MOL0     H95436   8.350  -0.108   5.081  2.6303 -1.0929 -1.6501
  707MOL0     H95437   8.444   0.000   4.864 -0.6172  1.4073 -0.4888
  707MOL0     H95438   8.543  -0.094   4.969 -1.6711 -0.0392  1.1341
  707MOL0     H95439   8.600   0.131   5.095  2.3703 -0.8522 -0.8123
  707MOL0     H95440   8.517   0.212   4.969  1.3313  0.5183  3.7884
  707MOL0     H95441   8.756   0.040   4.931  0.3631 -0.0012 -0.3284
  707MOL0     H95442   8.750   0.214   4.909  1.2976 -0.6612 -1.2683
  707MOL0     H95443   8.594   0.082   4.543 -1.4097  0.5247  0.6987
  707MOL0     H95444   8.059   0.184   5.105 -1.0225  0.7602  1.4249
  707MOL0     H95445   7.982   0.375   5.259  1.0423  1.0655 -2.1164
  708MOL0     O95446   0.592  10.308   0.139 -0.5814 -0.9952  0.1252
  708MOL0     C95447   0.516  10.318   0.240  1.0139  0.6054 -0.2403
  708MOL0     O95448   0.452  10.432   0.290  0.4943 -0.5261  0.5865
  708MOL0     C95449   0.479  10.561   0.249  0.1020  0.2721  0.0915
  708MOL0     C95450   0.437  10.663   0.333  0.8829  0.6293 -0.5529
  708MOL0     C95451   0.471  10.802   0.307 -0.5641  0.6619 -0.2757
  708MOL0     C95452   0.537  10.830   0.186  0.7241 -0.4349 -0.7203
  708MOL0     O95453   0.537  10.960   0.153  0.2389 -0.0547 -0.0942
  708MOL0     C95454   0.639  11.007   0.072 -0.1456 -0.0305 -0.6605
  708MOL0     C95455   0.640  11.155   0.098 -0.7362 -0.2431  0.2374
  708MOL0     C95456   0.738  11.197   0.215  0.5626 -0.2017  0.1047
  708MOL0     C95457   0.728  11.348   0.223  0.8325 -0.2286  0.2773
  708MOL0     C95458   0.822  11.397   0.332 -0.2112 -0.4653 -0.2580
  708MOL0     C95459   0.824  11.550   0.336 -0.0541 -0.8716 -0.8162
  708MOL0     C95460   0.899  11.622   0.454  0.4419  0.3611 -0.0681
  708MOL0     C95461   0.902  11.771   0.449 -0.8497 -0.5678  0.0688
  708MOL0     N95462   0.920  11.847   0.309  0.5653 -0.2604  0.3514
  708MOL0     C95463   0.830  11.933   0.261 -0.1395 -0.3305 -0.5640
  708MOL0     C95464   0.866  11.963   0.132 -0.4545  0.5394  0.8383
  708MOL0     C95465   0.797  12.050   0.040 -0.2794  0.7660  0.2405
  708MOL0     C95466   0.716  11.959  -0.061 -0.9361 -0.6434 -0.5289
  708MOL0     C95467   0.667  12.042  -0.178  0.2821 -1.2101  0.5766
  708MOL0     C95468   0.571  11.979  -0.277 -0.6041  0.6752 -0.7640
  708MOL0     O95469   0.458  11.917  -0.210  0.5487 -0.4182  0.1377
  708MOL0     C95470   0.350  11.882  -0.290  0.0596 -0.3334 -0.1333
  708MOL0     C95471   0.248  11.811  -0.221  0.3951  0.1301 -0.3911
  708MOL0     C95472   0.129  11.759  -0.285 -0.2311  0.6316 -0.3453
  708MOL0     C95473   0.039  11.671  -0.201  0.1906  0.6092  0.7776
  708MOL0     C95474   0.108  11.800  -0.420  1.0037  0.3377  0.9189
  708MOL0     C95475  -0.019  11.780  -0.495 -0.1981 -1.0650  0.1598
  708MOL0     O95476  -0.007  11.772  -0.633 -0.3505  0.7006 -0.7545
  708MOL0     C95477  -0.127  11.781  -0.695 -0.0224 -0.2732 -0.8789
  708MOL0     C95478  -0.177  11.903  -0.741  0.2074 -0.0343  0.0804
  708MOL0     C95479  -0.288  11.909  -0.831  0.1350 -0.4150 -0.1074
  708MOL0     C95480  -0.357  11.795  -0.872  1.6985 -1.3511 -0.8327
  708MOL0     O95481  -0.472  11.787  -0.957 -0.2934 -0.3212 -0.3435
  708MOL0     C95482  -0.450  11.807  -1.097 -0.9136 -0.6342  0.2753
  708MOL0     C95483  -0.539  11.706  -1.168  0.3875  0.7687  0.4349
  708MOL0     C95484  -0.683  11.739  -1.159 -0.9620 -1.1864 -0.1812
  708MOL0     C95485  -0.744  11.680  -1.032  0.0874 -0.2621 -0.8496
  708MOL0     C95486  -0.758  11.534  -1.043 -0.3542  0.8840  0.6901
  708MOL0     C95487  -0.891  11.490  -0.990  0.2971 -0.2969 -0.6539
  708MOL0     C95488  -0.894  11.342  -1.005  0.3211 -0.3258 -0.6363
  708MOL0     C95489  -0.837  11.265  -0.875 -1.0908  0.6114 -0.3601
  708MOL0    Cl95490  -0.927  11.110  -0.865  0.1240  0.1047 -0.4384
  708MOL0     C95491  -0.316  11.673  -0.809 -0.6586 -0.0106  0.1647
  708MOL0     C95492  -0.210  11.667  -0.718 -0.4331 -0.9727 -0.1290
  708MOL0     O95493  -0.127  11.803  -0.440 -0.3098 -0.9258  0.6915
  708MOL0     C95494   0.218  11.862  -0.480  0.0772  0.7919 -0.3671
  708MOL0     C95495   0.332  11.914  -0.427  0.3008 -0.1730  0.2198
  708MOL0     N95496   0.983  11.896   0.118  0.9830  0.7448  0.4896
  708MOL0     N95497   1.022  11.824   0.219 -0.5489  0.4233 -0.2035
  708MOL0     C95498   0.579  10.731   0.101  0.4080  1.2921 -0.3339
  708MOL0     C95499   0.541  10.596   0.128 -0.8342  0.0195 -0.2573
  708MOL0     C95500   0.481  10.192   0.297  1.4969  0.1138  0.1540
  708MOL0     C95501   0.452  10.079   0.216  0.2144  0.1123  0.1592
  708MOL0     C95502   0.425   9.947   0.276  0.0441 -0.5662  1.3867
  708MOL0     C95503   0.434   9.932   0.410  0.2034  0.6178  0.9733
  708MOL0     O95504   0.423   9.799   0.438 -0.0248 -0.3345 -0.2807
  708MOL0     C95505   0.404   9.734   0.570 -0.7080 -0.4146 -0.1223
  708MOL0     C95506   0.532   9.681   0.624  0.6794  0.3167 -1.1155
  708MOL0     C95507   0.527   9.611   0.761 -0.7898  0.8650  0.2304
  708MOL0     C95508   0.563   9.690   0.887  0.4301 -0.2527  0.3452
  708MOL0     C95509   0.496   9.821   0.882  0.3070 -0.0016 -1.3008
  708MOL0     C95510   0.427   9.916   0.859  0.4867  0.2771 -0.9110
  708MOL0     C95511   0.468  10.039   0.485 -0.5207 -0.9309 -0.8862
  708MOL0     C95512   0.484  10.171   0.436 -0.4017  0.7242 -0.3925
  708MOL0     H95513   0.377  10.632   0.418 -1.4165 -0.1644 -2.3739
  708MOL0     H95514   0.445  10.875   0.382 -0.0850 -0.9576  1.5577
  708MOL0     H95515   0.737  10.959   0.068 -0.7343 -1.3124 -0.2312
  708MOL0     H95516   0.582  10.996  -0.021  0.8013  0.8627 -1.3796
  708MOL0     H95517   0.682  11.192   0.004 -0.9969 -2.1624 -0.6848
  708MOL0     H95518   0.536  11.191   0.106 -1.1573 -0.8762 -1.9128
  708MOL0     H95519   0.702  11.151   0.307  1.1686 -2.0292 -0.5382
  708MOL0     H95520   0.839  11.157   0.206  1.1115  0.5712  2.2625
  708MOL0     H95521   0.760  11.396   0.130  1.2264  4.8918  2.7415
  708MOL0     H95522   0.630  11.381   0.258  0.8333  0.8919 -0.7224
  708MOL0     H95523   0.791  11.351   0.426 -3.2408  1.6281 -0.0825
  708MOL0     H95524   0.920  11.361   0.298 -0.5241 -1.6255  0.0383
  708MOL0     H95525   0.875  11.588   0.247  0.7675 -0.6485 -0.2637
  708MOL0     H95526   0.718  11.576   0.335  0.4610  1.7819  1.6429
  708MOL0     H95527   0.847  11.589   0.544  0.8070 -1.3612 -0.4506
  708MOL0     H95528   0.995  11.570   0.449 -0.5948 -1.5495 -3.5547
  708MOL0     H95529   0.981  11.814   0.512 -2.1985  0.7563  0.9284
  708MOL0     H95530   0.807  11.803   0.492 -1.2605 -1.4547 -0.1506
  708MOL0     H95531   0.733  11.952   0.306 -2.1320 -0.3385 -4.4171
  708MOL0     H95532   0.735  12.116   0.102 -1.1286  1.3289 -1.1468
  708MOL0     H95533   0.870  12.106  -0.018 -0.7913  0.6762 -0.5063
  708MOL0     H95534   0.638  11.920   0.005  1.0760 -4.4020 -0.0810
  708MOL0     H95535   0.783  11.882  -0.102 -0.3744 -0.0126 -0.8065
  708MOL0     H95536   0.747  12.087  -0.237 -0.3442  0.8083  1.1969
  708MOL0     H95537   0.620  12.130  -0.133  0.9813 -1.3213  1.5574
  708MOL0     H95538   0.616  11.909  -0.347 -2.1355 -1.3111  0.1283
  708MOL0     H95539   0.543  12.067  -0.337  4.0285  2.5670 -0.5309
  708MOL0     H95540   0.299  11.766  -0.137  2.0833  2.4239 -0.0721
  708MOL0     H95541   0.081  11.570  -0.203 -3.4081 -1.0670 -1.4194
  708MOL0     H95542   0.037  11.721  -0.104 -1.1490  1.8087  0.1559
  708MOL0     H95543  -0.059  11.655  -0.247 -0.2707  0.5393  1.7581
  708MOL0     H95544  -0.125  11.992  -0.709  0.2422 -0.5126  1.4401
  708MOL0     H95545  -0.316  11.996  -0.890  3.1602  0.1809 -0.8233
  708MOL0     H95546  -0.455  11.912  -1.129 -1.9662 -0.3573  1.2972
  708MOL0     H95547  -0.351  11.768  -1.121 -0.5619  1.7877 -2.9209
  708MOL0     H95548  -0.493  11.686  -1.265  0.7017  2.4719  0.2119
  708MOL0     H95549  -0.527  11.610  -1.116 -1.2235  0.4949  0.3530
  708MOL0     H95550  -0.728  11.700  -1.251 -1.4662  3.6646 -2.2532
  708MOL0     H95551  -0.701  11.846  -1.148 -1.1734 -1.1206 -1.1363
  708MOL0     H95552  -0.695  11.698  -0.936 -0.7358 -2.3652  0.0374
  708MOL0     H95553  -0.844  11.722  -1.017 -0.1788 -1.2285  0.2844
  708MOL0     H95554  -0.676  11.480  -0.994 -0.7307  1.6924  2.2896
  708MOL0     H95555  -0.755  11.505  -1.148  0.4055 -1.3304  1.2634
  708MOL0     H95556  -0.913  11.537  -0.893  1.6942  3.4866 -1.9850
  708MOL0     H95557  -0.971  11.539  -1.046 -0.5270  0.6961  1.2922
  708MOL0     H95558  -0.843  11.306  -1.095  0.1192 -0.7977 -0.5673
  708MOL0     H95559  -0.990  11.294  -1.031  0.7864 -1.1973 -0.7819
  708MOL0     H95560  -0.856  11.314  -0.780 -2.5151 -1.4308  0.4746
  708MOL0     H95561  -0.728  11.262  -0.890 -0.7759 -0.8324  1.8303
  708MOL0     H95562  -0.356  11.575  -0.834  2.0586 -0.8753 -1.1919
  708MOL0     H95563  -0.159  11.574  -0.696  0.6756 -0.5338 -0.7396
  708MOL0     H95564   0.206  11.886  -0.585 -1.5824  0.5662 -0.2601
  708MOL0     H95565   0.408  11.955  -0.493  0.5648 -1.8751 -0.5851
  708MOL0     H95566   0.631  10.751   0.008 -0.5413 -0.2884 -1.2403
  708MOL0     H95567   0.560  10.526   0.047  3.7332 -0.2313  0.7592
  708MOL0     H95568   0.448  10.100   0.109  4.3986  1.7314  0.1242
  708MOL0     H95569   0.416   9.858   0.215  1.2868 -0.8649  1.6130
  708MOL0     H95570   0.348   9.808   0.629  0.0246 -0.0476  0.1259
  708MOL0     H95571   0.330   9.655   0.556 -0.3392 -1.1033  1.5492
  708MOL0     H95572   0.611   9.757   0.625 -0.2099  1.3153  0.8751
  708MOL0     H95573   0.568   9.620   0.542  0.4618 -2.8429  0.9563
  708MOL0     H95574   0.600   9.529   0.760 -0.3260  1.2486  1.1474
  708MOL0     H95575   0.427   9.567   0.766  0.5010 -2.4302 -0.0876
  708MOL0     H95576   0.672   9.701   0.896  0.1439  1.4781  2.7752
  708MOL0     H95577   0.521   9.646   0.978 -3.9232  4.3214  0.9956
  708MOL0     H95578   0.363  10.002   0.857  0.8082  0.5253 -0.6245
  708MOL0     H95579   0.496  10.012   0.587  0.2199 -0.9844 -1.0940
  708MOL0     H95580   0.505  10.252   0.504 -1.1667 -0.9159  1.9064
  709MOL0     O95581   9.445   5.204  11.177  0.4067  0.3206 -0.1243
  709MOL0     C95582   9.475   5.241  11.059  0.9377 -0.4306 -1.4823
  709MOL0     O95583   9.557   5.171  10.975 -0.1841 -0.9761 -0.4496
  709MOL0     C95584   9.564   5.032  10.994  0.2231 -0.0064  0.2372
  709MOL0     C95585   9.680   4.970  10.943 -0.2557  0.9069 -1.2981
  709MOL0     C95586   9.715   4.836  10.945 -0.8529 -0.5503  0.9564
  709MOL0     C95587   9.627   4.760  11.021 -0.5846 -0.1483  0.1277
  709MOL0     O95588   9.643   4.622  11.035  0.3541  1.1169 -0.1837
  709MOL0     C95589   9.775   4.576  11.046  0.4453  0.6389  0.1043
  709MOL0     C95590   9.778   4.425  11.086 -0.6000  0.6799 -0.3902
  709MOL0     C95591   9.733   4.393  11.228 -0.1339 -0.7921  0.2235
  709MOL0     C95592   9.738   4.247  11.272 -0.1905  0.5094 -0.6931
  709MOL0     C95593   9.875   4.199  11.300 -1.1311  0.8879 -0.6862
  709MOL0     C95594   9.871   4.062  11.373  0.3223 -0.7948 -0.4342
  709MOL0     C95595  10.016   4.018  11.424 -0.7306  0.0282  1.0287
  709MOL0     C95596  10.007   3.901  11.519 -0.3545  0.9697  0.6932
  709MOL0     N95597  10.112   3.882  11.616 -0.0669  0.6649  0.0148
  709MOL0     C95598  10.092   3.844  11.748 -0.5108 -0.4204  0.0865
  709MOL0     C95599  10.208   3.874  11.813 -0.4951  0.2010  0.1737
  709MOL0     C95600  10.227   3.850  11.950  0.6388 -0.8907 -0.6705
  709MOL0     C95601  10.290   3.714  11.986  0.2998 -0.5099 -0.3156
  709MOL0     C95602  10.312   3.689  12.137  0.0398  0.2399  0.4520
  709MOL0     C95603  10.355   3.784  12.246 -1.1409 -0.7791  0.1675
  709MOL0     O95604  10.355   3.723  12.371 -0.9248  0.1781 -0.0770
  709MOL0     C95605  10.457   3.753  12.451 -0.0394  0.7210 -0.1337
  709MOL0     C95606  10.437   3.812  12.573 -0.2097  1.2206 -0.0625
  709MOL0     C95607  10.540   3.850  12.662  0.1146  0.1052  0.6226
  709MOL0     C95608  10.489   3.907  12.791  0.3301 -0.6443 -1.1003
  709MOL0     C95609  10.687   3.825  12.636  0.1135 -0.2319 -0.2352
  709MOL0     C95610  10.805   3.880  12.721  0.4754 -0.1099  0.8749
  709MOL0     O95611  10.779   3.983  12.806 -0.1308  0.7530 -0.6356
  709MOL0     C95612  10.870   4.051  12.880  0.2520  0.1409  0.0796
  709MOL0     C95613  10.813   4.165  12.937  0.4633 -0.1409  0.0266
  709MOL0     C95614  10.884   4.225  13.047  0.2148  0.9241 -0.0665
  709MOL0     C95615  11.012   4.162  13.094 -0.0049  0.0703  0.7313
  709MOL0     O95616  11.064   4.207  13.208 -0.3231 -0.2246  0.3375
  709MOL0     C95617  10.992   4.271  13.310 -0.0459 -0.7879 -0.5090
  709MOL0     C95618  11.071   4.273  13.436 -0.7629  0.0510 -0.1320
  709MOL0     C95619  11.091   4.138  13.491  0.0358  0.2637 -0.4290
  709MOL0     C95620  11.196   4.111  13.602  0.5264 -0.6215 -0.2704
  709MOL0     C95621  11.131   4.127  13.745 -0.8562 -0.6385 -0.6502
  709MOL0     C95622  11.067   4.264  13.776  0.0644 -0.2967  0.0477
  709MOL0     C95623  11.022   4.263  13.919  0.6194  0.1299 -0.7392
  709MOL0     C95624  11.126   4.267  14.024 -0.2313 -0.7466 -0.4575
  709MOL0    Cl95625  11.256   4.392  13.999  0.1818 -0.0380  0.0523
  709MOL0     C95626  11.062   4.058  13.023 -0.7474 -0.3710 -0.4666
  709MOL0     C95627  10.992   4.000  12.922 -0.5919  0.5002 -0.9720
  709MOL0     O95628  10.918   3.830  12.700  0.0394  0.6762 -0.0482
  709MOL0     C95629  10.707   3.766  12.508 -0.3671  0.1059 -0.6629
  709MOL0     C95630  10.600   3.731  12.422  1.0478  1.4431 -0.4870
  709MOL0     N95631  10.297   3.893  11.710  0.9717 -0.8050 -0.3130
  709MOL0     N95632  10.244   3.899  11.585  0.1071  0.1821 -0.5336
  709MOL0     C95633   9.515   4.813  11.083 -0.3008  0.9490  0.3672
  709MOL0     C95634   9.477   4.944  11.058 -0.7911 -0.7453  0.5460
  709MOL0     C95635   9.439   5.379  11.022 -0.1840 -0.0061 -0.2900
  709MOL0     C95636   9.378   5.462  11.119 -0.7533 -0.3357 -0.6124
  709MOL0     C95637   9.358   5.597  11.096 -0.3754  0.2173  1.0792
  709MOL0     C95638   9.383   5.654  10.967 -0.9557 -0.0988  0.0387
  709MOL0     O95639   9.344   5.780  10.924 -0.2680 -0.2210  0.1806
  709MOL0     C95640   9.261   5.861  11.011 -0.2080  0.1292 -1.2774
  709MOL0     C95641   9.229   5.984  10.923 -1.0471 -0.5606  0.2812
  709MOL0     C95642   9.341   6.045  10.845 -0.4951 -0.3149  0.2450
  709MOL0     C95643   9.458   6.094  10.929  0.0437 -0.4485  0.0199
  709MOL0     C95644   9.407   6.200  11.016  0.0929 -0.2626 -1.1503
  709MOL0     C95645   9.367   6.304  11.070  0.0477  0.0622  0.4101
  709MOL0     C95646   9.445   5.576  10.878  0.3299 -0.2976  0.8999
  709MOL0     C95647   9.479   5.446  10.899 -0.3910  0.9096 -0.3478
  709MOL0     H95648   9.751   5.031  10.890  1.6381 -1.1349 -1.2608
  709MOL0     H95649   9.795   4.797  10.882 -0.5508 -0.7954  1.4877
  709MOL0     H95650   9.819   4.578  10.946  2.6941  0.7958  1.0433
  709MOL0     H95651   9.818   4.647  11.118 -0.6948  1.3103  0.1469
  709MOL0     H95652   9.727   4.360  11.014  2.5619  0.3416 -2.5672
  709MOL0     H95653   9.885   4.401  11.086 -1.0122 -1.4472 -2.1352
  709MOL0     H95654   9.794   4.455  11.294 -0.9031 -0.2481  0.4336
  709MOL0     H95655   9.630   4.429  11.231  1.3100  3.9004  1.9194
  709MOL0     H95656   9.671   4.242  11.359  0.5212 -0.8264 -0.1951
  709MOL0     H95657   9.700   4.177  11.197  1.6486 -1.7241  0.3453
  709MOL0     H95658   9.927   4.191  11.204  0.5770 -3.7622  0.3613
  709MOL0     H95659   9.935   4.264  11.363  1.0269 -2.9058  1.5899
  709MOL0     H95660   9.814   4.080  11.465  0.8056  5.1319 -0.9281
  709MOL0     H95661   9.820   3.980  11.321 -2.6715 -0.1622  1.2198
  709MOL0     H95662  10.067   3.989  11.331 -0.6094  1.4924  0.6101
  709MOL0     H95663  10.079   4.091  11.476 -0.2298  0.8805 -0.6804
  709MOL0     H95664  10.002   3.811  11.457 -3.1540  2.4592 -1.4824
  709MOL0     H95665   9.913   3.906  11.575 -0.3994 -1.1316  0.8829
  709MOL0     H95666   9.996   3.825  11.793  0.4880  2.5287  3.9283
  709MOL0     H95667  10.305   3.915  11.990  2.4910 -2.3603 -1.7432
  709MOL0     H95668  10.132   3.868  12.003 -1.4991  0.6990 -4.6240
  709MOL0     H95669  10.385   3.703  11.933  0.2802  1.5277 -0.8716
  709MOL0     H95670  10.216   3.644  11.949  0.9276  0.8110 -4.5851
  709MOL0     H95671  10.385   3.608  12.146 -1.4054 -1.2076 -0.4116
  709MOL0     H95672  10.221   3.636  12.166 -1.6618  2.8335  0.1779
  709MOL0     H95673  10.300   3.879  12.244  2.1580  1.3002 -1.6293
  709MOL0     H95674  10.455   3.818  12.217 -1.2565  0.7537  1.4361
  709MOL0     H95675  10.338   3.835  12.610 -0.0406 -1.4339  2.3871
  709MOL0     H95676  10.495   4.016  12.782  0.5297 -0.8320 -4.9150
  709MOL0     H95677  10.389   3.873  12.818  1.2715 -1.4235  1.7230
  709MOL0     H95678  10.554   3.877  12.874  1.3625  2.6109 -0.5864
  709MOL0     H95679  10.722   4.208  12.895  2.7530  5.2010 -0.3031
  709MOL0     H95680  10.831   4.299  13.106 -2.1683 -1.6198  1.2686
  709MOL0     H95681  10.967   4.374  13.284 -0.1001 -0.6959 -0.0928
  709MOL0     H95682  10.902   4.217  13.341 -1.8790  0.9149 -2.4984
  709MOL0     H95683  11.168   4.320  13.417 -0.2257 -1.1858 -0.5720
  709MOL0     H95684  11.014   4.337  13.504 -1.2394 -1.4937  0.9627
  709MOL0     H95685  11.131   4.081  13.406  3.7085  3.7738 -1.4009
  709MOL0     H95686  10.992   4.096  13.512 -2.4722  2.3193 -6.1126
  709MOL0     H95687  11.238   4.010  13.597  0.9391 -0.5922  1.7028
  709MOL0     H95688  11.273   4.188  13.608  2.1670 -1.8669 -3.5229
  709MOL0     H95689  11.203   4.110  13.825 -0.3632  1.5003 -0.5779
  709MOL0     H95690  11.058   4.046  13.745  1.8716 -3.3672  2.7245
  709MOL0     H95691  11.135   4.347  13.755 -1.6738  1.4404  0.9808
  709MOL0     H95692  10.984   4.270  13.706 -1.2874 -2.2124  1.3659
  709MOL0     H95693  10.960   4.174  13.937  3.1915 -1.3992  1.3400
  709MOL0     H95694  10.959   4.350  13.938  1.7392  0.9347 -0.6750
  709MOL0     H95695  11.177   4.171  14.040 -1.8723 -1.3710  1.4967
  709MOL0     H95696  11.069   4.292  14.114  0.8979  0.5206 -0.0577
  709MOL0     H95697  11.146   4.003  13.064 -1.3532 -1.2277 -0.3539
  709MOL0     H95698  11.044   3.918  12.875 -1.4560 -0.0380 -1.0074
  709MOL0     H95699  10.804   3.753  12.461  1.5000  2.9037  2.0234
  709MOL0     H95700  10.621   3.666  12.337  0.0141  0.3180  0.0826
  709MOL0     H95701   9.442   4.742  11.119 -0.5463  0.8980 -0.2117
  709MOL0     H95702   9.376   4.970  11.086  0.3535  2.2591  2.3269
  709MOL0     H95703   9.350   5.422  11.216 -2.4015 -1.0786 -1.3637
  709MOL0     H95704   9.322   5.654  11.181 -1.1364  1.5116 -0.0657
  709MOL0     H95705   9.175   5.796  11.030  1.9468 -3.2134 -2.1532
  709MOL0     H95706   9.319   5.889  11.099 -1.1139 -1.3787 -0.1504
  709MOL0     H95707   9.185   6.062  10.985 -1.1561 -0.7696  0.4698
  709MOL0     H95708   9.150   5.937  10.863 -0.3931 -1.1599 -0.1331
  709MOL0     H95709   9.296   6.122  10.782  0.7651 -0.4151 -0.8277
  709MOL0     H95710   9.398   5.976  10.782  1.6694  0.4217  1.2735
  709MOL0     H95711   9.535   6.150  10.874  0.2499  0.1541  0.8910
  709MOL0     H95712   9.499   6.000  10.968 -2.2195 -3.7453 -4.5991
  709MOL0     H95713   9.321   6.390  11.114  1.9628 -0.3996  3.6668
  709MOL0     H95714   9.464   5.614  10.778 -3.0909  0.7564  0.5169
  709MOL0     H95715   9.535   5.396  10.821 -0.4617 -2.3223  1.5124
  710MOL0     O95716   9.692   2.869   3.929 -0.2818 -0.2023 -0.5917
  710MOL0     C95717   9.698   2.828   3.817  0.0557  0.4876  0.2373
  710MOL0     O95718   9.731   2.696   3.788 -0.5155 -0.1230 -1.7627
  710MOL0     C95719   9.746   2.611   3.894  0.0936 -0.5795 -0.1751
  710MOL0     C95720   9.873   2.577   3.944 -0.8707 -0.0916 -0.3504
  710MOL0     C95721   9.896   2.492   4.055 -0.3240 -0.2934 -0.1030
  710MOL0     C95722   9.774   2.436   4.116  0.0330 -0.6342 -0.4274
  710MOL0     O95723   9.793   2.397   4.245  0.2800 -0.4498  0.1332
  710MOL0     C95724   9.855   2.275   4.259  0.4947  0.5178 -0.7376
  710MOL0     C95725   9.843   2.218   4.401 -0.2768  0.1784 -0.5088
  710MOL0     C95726   9.711   2.161   4.435 -0.2887 -0.0991  0.5649
  710MOL0     C95727   9.707   2.093   4.563  0.4299 -0.2495 -0.0069
  710MOL0     C95728   9.598   1.985   4.562 -0.4020  0.3160  0.2176
  710MOL0     C95729   9.574   1.909   4.685 -0.3327  0.4305  0.4074
  710MOL0     C95730   9.708   1.877   4.766  0.1637  0.2320 -0.6273
  710MOL0     C95731   9.666   1.792   4.878 -0.6231  0.4586 -0.9445
  710MOL0     N95732   9.790   1.784   4.970 -0.7586 -0.4442 -0.3107
  710MOL0     C95733   9.800   1.842   5.099 -0.3187  0.2741 -0.1878
  710MOL0     C95734   9.930   1.846   5.119  0.5630 -0.5053 -0.1956
  710MOL0     C95735   9.995   1.924   5.232 -0.6892  1.2280  0.2608
  710MOL0     C95736  10.041   1.826   5.332  0.1732 -0.6239  0.1486
  710MOL0     C95737   9.989   1.867   5.472  0.1420  0.2830 -0.8734
  710MOL0     C95738   9.843   1.819   5.506  0.1791  0.2524  0.7236
  710MOL0     O95739   9.821   1.783   5.646  0.2044 -0.1250  0.3993
  710MOL0     C95740   9.876   1.657   5.691 -0.7946 -0.6476  0.1982
  710MOL0     C95741   9.979   1.675   5.782 -0.3227 -0.8588 -0.3379
  710MOL0     C95742  10.053   1.569   5.838  0.0094  0.5972 -0.0648
  710MOL0     C95743  10.148   1.609   5.950 -0.3812  0.7573 -0.9299
  710MOL0     C95744  10.015   1.433   5.805 -0.5586  0.2264 -0.2985
  710MOL0     C95745  10.067   1.313   5.871  0.7251 -0.6787  0.0462
  710MOL0     O95746  10.202   1.310   5.903  0.2616 -0.3346  0.8761
  710MOL0     C95747  10.253   1.197   5.959 -0.1378 -0.5697 -0.3346
  710MOL0     C95748  10.385   1.183   5.927 -0.0740  0.4504  0.7287
  710MOL0     C95749  10.464   1.085   5.997 -1.0049  0.2687  0.0352
  710MOL0     C95750  10.407   1.004   6.096 -0.0275 -0.1080 -0.3192
  710MOL0     O95751  10.479   0.927   6.188 -0.4978 -0.1337  0.1690
  710MOL0     C95752  10.577   0.841   6.133  0.6521  0.5141 -0.1089
  710MOL0     C95753  10.614   0.723   6.225 -0.5204 -0.2798 -0.8414
  710MOL0     C95754  10.638   0.597   6.146 -0.7159  0.4696  0.1733
  710MOL0     C95755  10.705   0.490   6.234 -1.3048  0.9439  0.3254
  710MOL0     C95756  10.633   0.460   6.372  0.0503  0.1289  0.9629
  710MOL0     C95757  10.495   0.392   6.355 -0.1576 -0.1647  0.2749
  710MOL0     C95758  10.522   0.244   6.371  0.4284  0.2933 -0.1614
  710MOL0     C95759  10.424   0.161   6.305  0.0564  0.3176 -0.0016
  710MOL0    Cl95760  10.263   0.206   6.383 -0.1704  0.0117 -0.1435
  710MOL0     C95761  10.270   1.018   6.126  0.4874 -0.1429 -0.2171
  710MOL0     C95762  10.192   1.117   6.064 -0.1444  0.0484 -0.1672
  710MOL0     O95763   9.984   1.225   5.886  0.1712 -0.1440  0.3274
  710MOL0     C95764   9.909   1.415   5.708  0.6714 -0.1822  0.6366
  710MOL0     C95765   9.854   1.527   5.644  0.2615 -0.3878  0.4454
  710MOL0     N95766  10.007   1.782   5.023  0.6213  0.0533 -0.9216
  710MOL0     N95767   9.916   1.741   4.942  0.7046  0.1286 -0.1009
  710MOL0     C95768   9.648   2.462   4.067 -0.8026 -0.4690  0.5909
  710MOL0     C95769   9.640   2.544   3.954 -0.8124  0.2202 -0.0757
  710MOL0     C95770   9.657   2.917   3.709 -0.1858 -0.9535 -1.0240
  710MOL0     C95771   9.640   3.054   3.734  0.3500 -0.4611 -0.7750
  710MOL0     C95772   9.615   3.142   3.629 -0.8465  0.0415 -0.1813
  710MOL0     C95773   9.588   3.100   3.498 -0.3420 -0.4728  0.5026
  710MOL0     O95774   9.551   3.183   3.399  0.4939  0.3441 -0.7917
  710MOL0     C95775   9.540   3.325   3.433  0.2627  0.7667  0.2002
  710MOL0     C95776   9.521   3.404   3.300 -0.2922 -1.3248  0.4417
  710MOL0     C95777   9.510   3.553   3.316  0.0843 -1.2106 -0.0562
  710MOL0     C95778   9.413   3.598   3.422 -1.1786 -0.2113 -0.4150
  710MOL0     C95779   9.282   3.551   3.401  0.4483  0.1557  0.4380
  710MOL0     C95780   9.169   3.509   3.404  0.0496 -0.3094 -0.7156
  710MOL0     C95781   9.603   2.966   3.465  0.1443  0.5103 -0.1779
  710MOL0     C95782   9.627   2.876   3.573  0.5407 -0.3241  0.0411
  710MOL0     H95783   9.964   2.624   3.908 -0.9288  1.0278  0.8619
  710MOL0     H95784   9.993   2.481   4.101 -1.0533  3.4524  2.8821
  710MOL0     H95785   9.803   2.198   4.201  0.7469 -4.0466  4.3199
  710MOL0     H95786   9.963   2.288   4.248  0.1320  2.0367 -3.6759
  710MOL0     H95787   9.918   2.139   4.400  0.2059  0.4982  2.1347
  710MOL0     H95788   9.874   2.292   4.476 -0.0439 -0.3189 -0.1077
  710MOL0     H95789   9.639   2.243   4.425 -0.4738 -0.3574 -0.4030
  710MOL0     H95790   9.701   2.081   4.361 -0.2082 -1.1224  1.6344
  710MOL0     H95791   9.799   2.035   4.575 -1.1704 -2.8787  0.3292
  710MOL0     H95792   9.683   2.165   4.642  0.2854 -2.3964  2.0405
  710MOL0     H95793   9.503   2.028   4.528 -0.4865  1.5635  1.9391
  710MOL0     H95794   9.633   1.909   4.491 -4.9115 -3.2257  1.2927
  710MOL0     H95795   9.509   1.958   4.759  0.6942  2.7445 -0.1292
  710MOL0     H95796   9.524   1.818   4.649  0.5820  0.4264 -0.9045
  710MOL0     H95797   9.780   1.819   4.708 -0.5882 -0.3065 -1.0511
  710MOL0     H95798   9.744   1.971   4.808 -1.0601  0.6614 -0.4790
  710MOL0     H95799   9.646   1.692   4.838  0.4335 -1.2520  2.4163
  710MOL0     H95800   9.583   1.817   4.945  1.9527  0.5734  2.4852
  710MOL0     H95801   9.735   1.897   5.167  1.1725  1.6062  0.2299
  710MOL0     H95802  10.079   1.979   5.189  2.0419  0.8758  4.4712
  710MOL0     H95803   9.911   1.987   5.263 -3.7857 -0.6759 -3.3717
  710MOL0     H95804  10.151   1.832   5.337  0.1407  1.9476 -0.6619
  710MOL0     H95805  10.005   1.726   5.307 -2.3140  0.3076 -0.2909
  710MOL0     H95806   9.994   1.976   5.463 -0.8466  0.3862 -0.2283
  710MOL0     H95807  10.060   1.834   5.548  1.9403  4.4189 -0.4941
  710MOL0     H95808   9.825   1.725   5.452 -0.7700  0.8049  0.0575
  710MOL0     H95809   9.779   1.902   5.476 -0.3239  1.7775  5.2407
  710MOL0     H95810  10.003   1.780   5.796  6.7357 -1.9482 -0.4536
  710MOL0     H95811  10.240   1.557   5.922  0.4686  2.1450 -0.8119
  710MOL0     H95812  10.140   1.716   5.972 -4.6688 -0.0966  3.1724
  710MOL0     H95813  10.100   1.562   6.037  3.5465 -1.0989  0.4603
  710MOL0     H95814  10.433   1.247   5.853  0.3561 -1.7559 -1.0010
  710MOL0     H95815  10.572   1.090   5.992 -1.0791  1.0942 -1.0139
  710MOL0     H95816  10.540   0.804   6.037  2.9927 -0.6753 -0.6282
  710MOL0     H95817  10.671   0.883   6.096  1.7869 -1.8223 -0.0337
  710MOL0     H95818  10.705   0.749   6.280 -1.1210  0.7152 -0.2772
  710MOL0     H95819  10.538   0.705   6.302  1.1052  2.4479  1.6113
  710MOL0     H95820  10.713   0.622   6.071  1.8176 -3.0726  1.2635
  710MOL0     H95821  10.539   0.581   6.103  0.0515  0.7171 -1.7995
  710MOL0     H95822  10.703   0.399   6.173 -0.6344  1.9428 -1.2755
  710MOL0     H95823  10.808   0.522   6.251 -1.2679  0.4306  1.0897
  710MOL0     H95824  10.621   0.559   6.417  0.0445  0.6852 -0.2182
  710MOL0     H95825  10.687   0.410   6.453  1.1109  2.1373  1.5830
  710MOL0     H95826  10.418   0.422   6.427 -1.3619 -3.2133  0.4203
  710MOL0     H95827  10.452   0.415   6.257  1.6270  3.4285  0.1632
  710MOL0     H95828  10.522   0.201   6.471 -1.9893 -1.0989 -0.6760
  710MOL0     H95829  10.623   0.221   6.334 -0.3380 -1.5131 -1.2677
  710MOL0     H95830  10.442   0.058   6.334 -4.4462 -0.6520  0.0956
  710MOL0     H95831  10.431   0.171   6.196  0.1589 -2.1473 -0.2575
  710MOL0     H95832  10.228   0.964   6.211 -1.2527  1.4610  0.0257
  710MOL0     H95833  10.091   1.149   6.088 -0.4256 -0.1658 -1.0239
  710MOL0     H95834   9.870   1.320   5.675 -3.9044  0.8137  2.5141
  710MOL0     H95835   9.782   1.522   5.563  0.2636  4.4574 -0.1513
  710MOL0     H95836   9.554   2.437   4.114 -0.4530  1.1289  2.2772
  710MOL0     H95837   9.539   2.575   3.927 -1.5864  0.8940  3.1337
  710MOL0     H95838   9.646   3.091   3.836  2.0494 -0.6585 -0.7722
  710MOL0     H95839   9.621   3.244   3.665 -1.0196 -0.1928  0.5174
  710MOL0     H95840   9.451   3.332   3.496  1.1667 -0.3711  1.6709
  710MOL0     H95841   9.622   3.364   3.495  0.7199  0.7542 -0.3823
  710MOL0     H95842   9.433   3.374   3.244 -0.1186  0.0947 -0.6202
  710MOL0     H95843   9.611   3.382   3.242 -0.3771  2.2208 -1.2628
  710MOL0     H95844   9.485   3.597   3.219  0.7225 -0.0763  0.2781
  710MOL0     H95845   9.610   3.593   3.339  0.2408 -2.9192  2.5666
  710MOL0     H95846   9.410   3.707   3.432 -2.8593 -0.3041  0.3097
  710MOL0     H95847   9.442   3.560   3.521 -1.8531  0.4638  0.0485
  710MOL0     H95848   9.073   3.461   3.400  1.0144 -2.2707 -1.7238
  710MOL0     H95849   9.583   2.928   3.365  3.9998 -0.1859 -0.8533
  710MOL0     H95850   9.619   2.769   3.557 -3.0907 -0.1780  0.0953
  711MOL0     O95851   7.952   1.351   6.909 -0.1439  0.4146  0.1354
  711MOL0     C95852   8.039   1.359   6.819  0.2405  0.5063 -0.2346
  711MOL0     O95853   8.034   1.312   6.692  0.2926 -0.2574 -0.3381
  711MOL0     C95854   7.944   1.234   6.637 -0.4257 -0.1667  0.3877
  711MOL0     C95855   7.897   1.257   6.509 -0.2667 -0.0116 -0.7176
  711MOL0     C95856   7.804   1.184   6.463  0.3878  0.3504 -0.4358
  711MOL0     C95857   7.731   1.082   6.537  0.6530 -1.1033  0.7943
  711MOL0     O95858   7.624   1.016   6.477  0.1047 -0.4932  0.1636
  711MOL0     C95859   7.515   1.092   6.412 -0.7515  0.5265  0.5793
  711MOL0     C95860   7.439   1.183   6.510 -0.0461  0.1062 -0.2430
  711MOL0     C95861   7.319   1.261   6.452 -0.1977  0.0599 -1.3637
  711MOL0     C95862   7.195   1.279   6.540  0.1743 -0.1118  0.3791
  711MOL0     C95863   7.090   1.352   6.461 -0.2644  0.0423 -0.0547
  711MOL0     C95864   6.980   1.388   6.551  0.2556 -0.5361  0.6073
  711MOL0     C95865   6.887   1.263   6.599  0.5056  0.8218 -0.4574
  711MOL0     C95866   6.804   1.180   6.494  0.1141 -0.4272 -0.5836
  711MOL0     N95867   6.698   1.276   6.458  0.2294  0.1800  0.0689
  711MOL0     C95868   6.687   1.342   6.337 -0.0733  0.9034  0.2604
  711MOL0     C95869   6.556   1.390   6.328  0.3488 -0.1708 -0.0935
  711MOL0     C95870   6.498   1.468   6.216  0.5251 -1.3372  0.9315
  711MOL0     C95871   6.349   1.442   6.170 -0.3652  0.1630 -0.2468
  711MOL0     C95872   6.307   1.300   6.121 -0.5768 -0.8957  0.2501
  711MOL0     C95873   6.363   1.279   5.984 -0.6058  0.2720  0.2867
  711MOL0     O95874   6.360   1.138   5.947 -0.5244 -0.7539 -0.1473
  711MOL0     C95875   6.245   1.067   5.962 -0.4618 -0.5075 -0.0137
  711MOL0     C95876   6.256   0.954   6.040 -0.3764 -0.2925 -0.3029
  711MOL0     C95877   6.135   0.887   6.077  0.0390 -0.5626  1.0678
  711MOL0     C95878   6.156   0.758   6.156  0.5252 -0.2996 -0.0511
  711MOL0     C95879   6.003   0.945   6.049  0.1023  0.1469  0.1955
  711MOL0     C95880   5.875   0.892   6.103  0.2231  0.5228  0.1031
  711MOL0     O95881   5.772   0.983   6.117 -0.0877  0.3937  0.7366
  711MOL0     C95882   5.639   0.943   6.120  0.7695  0.7355  0.1576
  711MOL0     C95883   5.537   0.993   6.045 -0.7890  1.1473 -0.1236
  711MOL0     C95884   5.404   0.946   6.067 -0.6580 -0.7899  0.0403
  711MOL0     C95885   5.366   0.858   6.169  0.6495 -0.3909  0.0634
  711MOL0     O95886   5.232   0.839   6.203 -0.1434  0.3975  0.7756
  711MOL0     C95887   5.181   0.702   6.203 -0.3676 -1.5427  0.6704
  711MOL0     C95888   5.033   0.700   6.254 -0.1390  0.5796  1.1934
  711MOL0     C95889   4.945   0.786   6.152  0.0633 -0.8490 -1.0012
  711MOL0     C95890   4.953   0.735   6.014  0.0774 -0.4830  0.6093
  711MOL0     C95891   4.829   0.771   5.926 -0.8187 -0.3334 -0.4445
  711MOL0     C95892   4.696   0.740   5.995 -0.1544 -0.1702  0.0203
  711MOL0     C95893   4.586   0.780   5.895 -0.7349  0.7800  0.7547
  711MOL0     C95894   4.460   0.698   5.920 -0.5789  0.0481  0.2941
  711MOL0    Cl95895   4.339   0.740   5.791 -0.4995 -0.6462  0.0715
  711MOL0     C95896   5.475   0.805   6.242  0.1062  0.4199  1.0370
  711MOL0     C95897   5.606   0.853   6.221  1.0796  0.2058  0.7157
  711MOL0     O95898   5.866   0.770   6.121  0.0676  0.3093  0.1221
  711MOL0     C95899   5.999   1.059   5.971 -0.0026 -0.2523  0.2050
  711MOL0     C95900   6.120   1.116   5.924  0.2425  0.1126 -0.2163
  711MOL0     N95901   6.484   1.360   6.442 -0.1362 -0.0771 -0.4386
  711MOL0     N95902   6.569   1.289   6.516 -0.2514 -0.1739  0.1558
  711MOL0     C95903   7.790   1.055   6.670 -0.1631  0.4245  0.2597
  711MOL0     C95904   7.891   1.131   6.716  0.7632 -0.4727  0.0251
  711MOL0     C95905   8.168   1.420   6.855  0.4144  0.2944  0.3574
  711MOL0     C95906   8.279   1.446   6.772  0.2275  0.8192 -0.6343
  711MOL0     C95907   8.400   1.506   6.824 -0.5924  0.9975 -0.5677
  711MOL0     C95908   8.410   1.537   6.955 -0.8784 -0.9016 -1.4714
  711MOL0     O95909   8.516   1.604   7.010  0.9750 -0.5353 -0.5108
  711MOL0     C95910   8.609   1.535   7.092 -0.0590 -0.0661  0.9443
  711MOL0     C95911   8.702   1.420   7.032 -0.7579 -0.2962 -0.0724
  711MOL0     C95912   8.783   1.482   6.917 -0.1967  0.3021 -0.1658
  711MOL0     C95913   8.932   1.424   6.899  0.9877 -0.1633  0.1303
  711MOL0     C95914   8.936   1.273   6.908  0.2752 -0.0576  1.0005
  711MOL0     C95915   8.924   1.151   6.897  0.1401 -0.1275 -0.0058
  711MOL0     C95916   8.300   1.525   7.027  0.2357 -0.2199  0.6088
  711MOL0     C95917   8.186   1.459   6.984 -0.4426 -0.2646  0.3424
  711MOL0     H95918   7.931   1.343   6.451  2.8444 -1.2201 -0.9080
  711MOL0     H95919   7.780   1.198   6.358  0.1122  2.9740 -0.0927
  711MOL0     H95920   7.552   1.137   6.319 -1.8686 -2.4465 -1.4508
  711MOL0     H95921   7.449   1.016   6.368  0.2621 -1.4080  2.2395
  711MOL0     H95922   7.398   1.119   6.588 -1.4564 -0.8195 -1.6742
  711MOL0     H95923   7.508   1.255   6.554 -1.5047  1.4566 -0.0924
  711MOL0     H95924   7.360   1.359   6.425 -0.0482  0.5726  0.5587
  711MOL0     H95925   7.293   1.199   6.366 -1.4539 -3.2181  1.1824
  711MOL0     H95926   7.161   1.185   6.583 -1.4996  0.5814  0.6495
  711MOL0     H95927   7.226   1.337   6.628 -0.4369 -2.8135  2.4822
  711MOL0     H95928   7.139   1.443   6.426  0.6977 -0.3348  0.2887
  711MOL0     H95929   7.052   1.278   6.389  0.1428  0.1967 -0.4366
  711MOL0     H95930   7.025   1.437   6.637 -2.0845  3.2883 -0.1038
  711MOL0     H95931   6.912   1.457   6.500  1.4182  3.0260  3.4788
  711MOL0     H95932   6.948   1.196   6.661 -2.0083 -0.6805  0.5183
  711MOL0     H95933   6.821   1.304   6.675  1.4484 -1.0457  1.4788
  711MOL0     H95934   6.746   1.097   6.535 -1.2056 -0.5303 -2.5320
  711MOL0     H95935   6.863   1.154   6.406 -0.1720 -3.3551  0.0015
  711MOL0     H95936   6.760   1.347   6.257 -0.5303 -1.9160 -0.4567
  711MOL0     H95937   6.506   1.575   6.239  1.4887 -1.2314  0.1924
  711MOL0     H95938   6.561   1.444   6.130 -1.1319 -1.8774 -0.1723
  711MOL0     H95939   6.318   1.514   6.093  0.5622  1.3805  0.4764
  711MOL0     H95940   6.287   1.471   6.255  0.5588  1.8410 -0.0913
  711MOL0     H95941   6.199   1.308   6.111 -0.5469 -1.9950 -1.3091
  711MOL0     H95942   6.331   1.218   6.191  2.9555 -0.2189  0.0386
  711MOL0     H95943   6.461   1.323   5.968  0.4041 -2.1927 -0.9344
  711MOL0     H95944   6.301   1.319   5.903 -0.8458 -1.2212 -0.3106
  711MOL0     H95945   6.355   0.912   6.060 -1.0156 -1.0204  1.5256
  711MOL0     H95946   6.142   0.672   6.090  1.9942 -0.0512 -0.7158
  711MOL0     H95947   6.253   0.744   6.205 -0.6637 -1.2885  2.1609
  711MOL0     H95948   6.079   0.749   6.234  0.5927  1.4339  0.2692
  711MOL0     H95949   5.552   1.078   5.980 -0.4821  1.0591 -0.1710
  711MOL0     H95950   5.325   0.976   5.999  0.4565 -2.7151 -2.2686
  711MOL0     H95951   5.200   0.645   6.112  1.4373 -0.0834  0.0833
  711MOL0     H95952   5.239   0.656   6.284  3.6212  1.2589 -0.2776
  711MOL0     H95953   5.003   0.597   6.233  3.0779  0.0127 -1.5659
  711MOL0     H95954   5.025   0.721   6.361  2.7222  1.2809  1.3466
  711MOL0     H95955   4.999   0.881   6.146 -1.7258  0.1731 -1.5549
  711MOL0     H95956   4.851   0.792   6.208  1.0658 -1.9402  0.9305
  711MOL0     H95957   5.042   0.770   5.960  0.3137 -0.9530  0.6900
  711MOL0     H95958   4.948   0.626   6.010 -3.1539 -0.4742  1.5181
  711MOL0     H95959   4.829   0.705   5.839 -0.9965  1.3995 -1.8308
  711MOL0     H95960   4.840   0.877   5.900  3.3812 -0.7119 -0.8768
  711MOL0     H95961   4.698   0.631   6.011  0.6751 -0.0018  1.2669
  711MOL0     H95962   4.674   0.792   6.088 -2.1522  0.3356 -0.6988
  711MOL0     H95963   4.615   0.774   5.789 -0.6400  1.1128  0.7590
  711MOL0     H95964   4.566   0.886   5.914 -1.4678  0.7567  0.1680
  711MOL0     H95965   4.427   0.730   6.019  1.3477  1.5648  0.5130
  711MOL0     H95966   4.470   0.589   5.926 -0.0055  0.0795  0.0555
  711MOL0     H95967   5.449   0.737   6.323 -1.4945 -1.4302 -0.9258
  711MOL0     H95968   5.678   0.814   6.291  1.7311 -2.6901 -1.4010
  711MOL0     H95969   5.908   1.112   5.944  0.4147  0.1938 -0.3555
  711MOL0     H95970   6.116   1.178   5.835  3.7771  1.0285  0.0993
  711MOL0     H95971   7.751   0.968   6.722  0.5093  0.6975  1.2548
  711MOL0     H95972   7.934   1.117   6.815 -0.7333  3.9246  1.5188
  711MOL0     H95973   8.264   1.421   6.667 -2.3264 -2.6709  0.3390
  711MOL0     H95974   8.480   1.519   6.751 -1.1742 -0.0561 -1.4245
  711MOL0     H95975   8.660   1.614   7.148 -1.6772  1.5333  0.2767
  711MOL0     H95976   8.547   1.493   7.172 -1.6114 -1.3678 -0.8586
  711MOL0     H95977   8.654   1.328   6.997 -2.7542  0.5538  0.2440
  711MOL0     H95978   8.773   1.395   7.111 -2.3267  1.8735  2.2183
  711MOL0     H95979   8.787   1.589   6.940  0.5559 -0.1722  2.1698
  711MOL0     H95980   8.731   1.465   6.822 -0.9155  0.4283  0.2020
  711MOL0     H95981   9.007   1.458   6.971 -0.7367  0.5798  1.6540
  711MOL0     H95982   8.967   1.457   6.801 -2.6093  2.3866 -0.4666
  711MOL0     H95983   8.912   1.048   6.869  1.2000 -0.7047  1.5156
  711MOL0     H95984   8.287   1.570   7.124 -3.2348 -5.8213  3.2776
  711MOL0     H95985   8.112   1.467   7.063 -0.6146 -3.3022  0.6063
  712MOL0     O95986   6.663   1.239   4.895  0.0035  0.1835 -0.5002
  712MOL0     C95987   6.579   1.151   4.915  0.6255 -1.0038 -0.1227
  712MOL0     O95988   6.557   1.078   5.027 -0.0871 -0.7171 -0.3109
  712MOL0     C95989   6.651   1.082   5.123 -0.4363 -0.2092 -0.6859
  712MOL0     C95990   6.674   0.956   5.186  0.3539  0.9688 -0.4235
  712MOL0     C95991   6.758   0.952   5.294 -0.0695 -0.3927  0.3944
  712MOL0     C95992   6.817   1.066   5.349 -0.0310  0.3901  0.2024
  712MOL0     O95993   6.889   1.048   5.459 -0.3147  0.0769  0.6486
  712MOL0     C95994   6.972   1.157   5.497 -0.1781  0.7444  0.5359
  712MOL0     C95995   7.055   1.144   5.617 -0.4624 -0.2771  0.4028
  712MOL0     C95996   7.164   1.039   5.602 -0.4160 -0.2148  0.4684
  712MOL0     C95997   7.238   1.012   5.742  0.5666 -1.1272 -0.0560
  712MOL0     C95998   7.370   0.951   5.726  0.1262  0.6350  0.2250
  712MOL0     C95999   7.402   0.854   5.840  0.3671  0.6161 -0.0481
  712MOL0     C96000   7.431   0.933   5.961  0.2246 -0.8609  0.0759
  712MOL0     C96001   7.449   0.849   6.082  0.5614  0.8614 -0.2694
  712MOL0     N96002   7.324   0.780   6.127  0.0384 -0.6491  0.1553
  712MOL0     C96003   7.223   0.836   6.206  0.8074 -0.6668  1.0765
  712MOL0     C96004   7.152   0.729   6.243 -0.6947 -1.1909  0.3324
  712MOL0     C96005   7.041   0.731   6.350  0.0675  0.0058  0.8717
  712MOL0     C96006   7.092   0.705   6.489 -0.2696  1.3314  0.2730
  712MOL0     C96007   6.987   0.706   6.598 -0.4267  0.6495 -0.4171
  712MOL0     C96008   6.901   0.836   6.598  0.0902  0.4515  0.8443
  712MOL0     O96009   6.831   0.837   6.730 -0.3379 -0.6639  0.0400
  712MOL0     C96010   6.696   0.812   6.731 -0.0504 -0.7855 -0.2764
  712MOL0     C96011   6.653   0.691   6.691  0.5517 -0.8793  0.2216
  712MOL0     C96012   6.510   0.658   6.683 -0.1426 -0.5117  0.1074
  712MOL0     C96013   6.490   0.513   6.662 -0.6834  0.0289  0.2062
  712MOL0     C96014   6.418   0.755   6.729  0.0984  0.5339  0.2964
  712MOL0     C96015   6.274   0.723   6.734  0.1623  0.3508  0.1705
  712MOL0     O96016   6.223   0.616   6.673 -0.3697 -0.2388 -0.6641
  712MOL0     C96017   6.089   0.612   6.646 -0.7143 -0.1796 -0.5799
  712MOL0     C96018   6.010   0.717   6.605  0.3485  0.1060  0.0200
  712MOL0     C96019   5.872   0.703   6.581 -0.3976  0.7826 -0.1594
  712MOL0     C96020   5.811   0.571   6.588 -0.3223 -0.4115  0.0756
  712MOL0     O96021   5.681   0.544   6.561  0.1747 -0.2476 -0.0040
  712MOL0     C96022   5.573   0.638   6.598 -1.1630  0.7565  0.4002
  712MOL0     C96023   5.432   0.561   6.593  0.0720 -0.0598  0.2608
  712MOL0     C96024   5.303   0.629   6.608  1.2633  0.6655 -0.1835
  712MOL0     C96025   5.186   0.529   6.590  0.0440 -0.7051  0.5373
  712MOL0     C96026   5.048   0.585   6.630 -0.0038  0.5069 -0.1288
  712MOL0     C96027   5.025   0.615   6.775  0.0213  0.3036  0.6561
  712MOL0     C96028   4.885   0.676   6.793  0.3114 -0.2548 -0.2815
  712MOL0     C96029   4.857   0.724   6.929 -0.3663  0.5987  0.2674
  712MOL0    Cl96030   4.848   0.595   7.064  0.0776  0.2932 -0.8575
  712MOL0     C96031   5.895   0.462   6.612 -0.4937 -0.6212 -0.1716
  712MOL0     C96032   6.033   0.486   6.648  0.5522 -0.0821 -0.0016
  712MOL0     O96033   6.205   0.811   6.790 -0.3590  0.4106 -0.4460
  712MOL0     C96034   6.464   0.881   6.787 -0.1163  0.4564  0.0915
  712MOL0     C96035   6.604   0.910   6.795 -0.2712  0.6926  0.5369
  712MOL0     N96036   7.207   0.621   6.196 -0.5837 -0.3855  0.2026
  712MOL0     N96037   7.311   0.647   6.122  0.7318  0.8855 -0.2076
  712MOL0     C96038   6.778   1.194   5.295 -0.4629  0.7583 -0.5935
  712MOL0     C96039   6.707   1.195   5.179 -1.1733  1.1604 -0.3870
  712MOL0     C96040   6.479   1.138   4.807  0.0926  0.4795 -0.2285
  712MOL0     C96041   6.367   1.047   4.817 -0.2456  0.4584 -0.5828
  712MOL0     C96042   6.271   1.023   4.710  0.2312  0.0095 -0.1679
  712MOL0     C96043   6.293   1.092   4.590  0.1123  0.6635 -0.2338
  712MOL0     O96044   6.196   1.073   4.487 -0.9977  0.3595  0.6597
  712MOL0     C96045   6.228   1.129   4.357  0.0436  0.7124  0.8023
  712MOL0     C96046   6.119   1.067   4.264  0.7360  0.1417 -0.7388
  712MOL0     C96047   6.122   1.092   4.113 -0.0018 -0.2453 -0.5512
  712MOL0     C96048   6.008   1.025   4.044 -1.1479  0.2518 -0.6653
  712MOL0     C96049   6.042   0.883   4.052 -0.1347 -0.2058 -0.5746
  712MOL0     C96050   6.055   0.767   4.079  0.7436 -0.3126 -0.5542
  712MOL0     C96051   6.415   1.161   4.573  0.2846  0.4733  0.0066
  712MOL0     C96052   6.501   1.183   4.673 -0.2319  1.0469  0.0220
  712MOL0     H96053   6.621   0.866   5.157 -0.8636  2.4170 -3.1013
  712MOL0     H96054   6.785   0.857   5.338  3.2122  0.0680 -0.3725
  712MOL0     H96055   7.024   1.199   5.411 -2.7992  1.3228 -0.8854
  712MOL0     H96056   6.895   1.227   5.530 -3.4455 -1.7011 -1.3053
  712MOL0     H96057   7.111   1.235   5.637  0.1259 -0.6317  0.3943
  712MOL0     H96058   6.978   1.124   5.692 -0.7499 -2.1796 -0.3229
  712MOL0     H96059   7.126   0.944   5.565  4.9056 -1.9028 -1.5494
  712MOL0     H96060   7.228   1.077   5.522 -1.1758 -1.2991 -0.6731
  712MOL0     H96061   7.237   1.108   5.795  2.8859  0.5178 -2.7254
  712MOL0     H96062   7.178   0.942   5.800  0.1445  0.2746  1.2689
  712MOL0     H96063   7.376   0.890   5.635 -0.7144  1.9770 -0.7616
  712MOL0     H96064   7.459   1.014   5.722  3.3003 -3.3212  1.6716
  712MOL0     H96065   7.322   0.780   5.856 -0.3050  0.4019 -3.6124
  712MOL0     H96066   7.490   0.794   5.816 -0.1001 -1.5605  3.0153
  712MOL0     H96067   7.514   1.001   5.936 -1.8009  1.0043 -2.0004
  712MOL0     H96068   7.344   0.999   5.967  1.2859  0.5619  0.6066
  712MOL0     H96069   7.482   0.896   6.175  1.6048  2.7029 -1.5103
  712MOL0     H96070   7.526   0.775   6.057  1.0726  0.8983  1.1075
  712MOL0     H96071   7.195   0.935   6.239  1.8658  0.3326 -0.8547
  712MOL0     H96072   6.997   0.832   6.347 -3.7906 -1.5313 -0.4561
  712MOL0     H96073   6.970   0.650   6.332 -0.1422  0.3056  0.3298
  712MOL0     H96074   7.161   0.786   6.516  1.5418 -0.7252  2.2481
  712MOL0     H96075   7.167   0.626   6.480 -1.0365  0.7352 -1.2604
  712MOL0     H96076   7.031   0.680   6.694  0.5935 -2.0950 -1.5123
  712MOL0     H96077   6.912   0.627   6.583 -0.8375  0.7787  0.8392
  712MOL0     H96078   6.835   0.847   6.511  1.1231  0.4329  0.0409
  712MOL0     H96079   6.964   0.924   6.594  0.6536  0.0124 -0.8450
  712MOL0     H96080   6.713   0.611   6.648 -1.4448 -0.9812 -2.6416
  712MOL0     H96081   6.452   0.467   6.754  0.5945  0.8365  1.1694
  712MOL0     H96082   6.424   0.489   6.579  0.0189 -1.0906 -0.0585
  712MOL0     H96083   6.578   0.457   6.630 -1.8574 -2.8563  1.6415
  712MOL0     H96084   6.057   0.813   6.587 -0.5645  0.0651 -3.1345
  712MOL0     H96085   5.801   0.780   6.553 -3.2198 -2.2323 -1.8461
  712MOL0     H96086   5.583   0.684   6.697  0.7103 -0.7953  0.9986
  712MOL0     H96087   5.572   0.726   6.533 -1.1279  1.3830  1.2176
  712MOL0     H96088   5.433   0.507   6.498  0.3354  1.8030 -0.8446
  712MOL0     H96089   5.441   0.483   6.670  1.0950  0.3464  0.5715
  712MOL0     H96090   5.294   0.708   6.533  0.5358 -1.7527 -2.7897
  712MOL0     H96091   5.288   0.683   6.703 -0.9259  0.2611 -0.2526
  712MOL0     H96092   5.179   0.505   6.484  2.0578  1.9092 -0.2853
  712MOL0     H96093   5.206   0.442   6.653 -0.3496 -0.6863  0.6962
  712MOL0     H96094   4.981   0.506   6.595  1.0446 -0.9013  0.9082
  712MOL0     H96095   5.026   0.671   6.566 -1.2926 -0.1630 -0.6339
  712MOL0     H96096   5.034   0.532   6.846 -0.9046  0.5519  1.0892
  712MOL0     H96097   5.096   0.689   6.811 -0.5888  1.4942 -0.5096
  712MOL0     H96098   4.809   0.603   6.762 -1.9675  1.8849 -0.0698
  712MOL0     H96099   4.874   0.765   6.730 -3.3297  1.2816  2.1145
  712MOL0     H96100   4.767   0.786   6.922 -0.4265  0.3244 -2.6578
  712MOL0     H96101   4.939   0.792   6.956  1.8112 -1.1711 -1.4623
  712MOL0     H96102   5.873   0.357   6.597  1.5748 -1.2637  0.8485
  712MOL0     H96103   6.098   0.403   6.673 -0.2434 -0.2305  1.7327
  712MOL0     H96104   6.390   0.952   6.821 -2.1251 -1.6783  0.3851
  712MOL0     H96105   6.648   0.999   6.840 -1.5397  1.6365 -0.0222
  712MOL0     H96106   6.811   1.292   5.330  2.1754 -1.2317  3.1355
  712MOL0     H96107   6.684   1.294   5.139 -1.6079  1.0180 -0.5024
  712MOL0     H96108   6.337   0.986   4.902  0.2450  0.1883 -0.6026
  712MOL0     H96109   6.184   0.958   4.708  0.4658 -0.3948  1.4048
  712MOL0     H96110   6.230   1.238   4.347  1.9036  0.5568 -1.5884
  712MOL0     H96111   6.330   1.097   4.332  0.0151  2.1461 -1.4715
  712MOL0     H96112   6.019   1.087   4.304  1.7111 -1.0928  2.6820
  712MOL0     H96113   6.125   0.959   4.280  0.8083  0.0498 -1.3643
  712MOL0     H96114   6.215   1.049   4.073  2.0375  2.4222  0.9167
  712MOL0     H96115   6.117   1.198   4.083  0.7132  0.5230  1.8428
  712MOL0     H96116   6.004   1.056   3.939  3.6428  0.8101 -0.9010
  712MOL0     H96117   5.910   1.028   4.092 -1.5400 -1.4468 -1.2692
  712MOL0     H96118   6.048   0.663   4.101  1.9712 -0.5487 -1.2142
  712MOL0     H96119   6.459   1.199   4.482  2.7359 -3.1447 -0.4871
  712MOL0     H96120   6.594   1.234   4.649  0.0677  0.0766 -0.9573
  713MOL0     O96121   5.232   8.740   7.684  0.7366 -0.3849 -0.7969
  713MOL0     C96122   5.224   8.770   7.804 -0.4912  0.0416 -0.2306
  713MOL0     O96123   5.226   8.676   7.908 -0.0577  0.1074  1.2146
  713MOL0     C96124   5.146   8.565   7.907 -0.0485  0.0018  0.8623
  713MOL0     C96125   5.088   8.525   8.030 -0.0584  0.2465  0.6575
  713MOL0     C96126   5.013   8.409   8.033  0.6092  0.0236  0.9468
  713MOL0     C96127   4.994   8.325   7.919 -0.6980 -1.0058  0.0244
  713MOL0     O96128   4.922   8.211   7.910  0.2630 -0.5031  0.4011
  713MOL0     C96129   4.980   8.098   7.852 -0.3339  0.1117 -1.3598
  713MOL0     C96130   5.076   8.043   7.953 -0.2037  0.5028 -0.8797
  713MOL0     C96131   5.020   8.009   8.093  0.0227  1.0668 -0.0931
  713MOL0     C96132   4.956   7.866   8.085  0.1679 -0.2079 -1.0956
  713MOL0     C96133   4.853   7.842   8.209  0.1135  0.5643 -0.9713
  713MOL0     C96134   4.774   7.725   8.141  0.6321  0.1379  0.3883
  713MOL0     C96135   4.668   7.666   8.233 -0.1934  0.6754  0.3860
  713MOL0     C96136   4.715   7.581   8.342  0.6966  0.1859 -0.0453
  713MOL0     N96137   4.806   7.487   8.294  0.0263 -1.0049  0.4836
  713MOL0     C96138   4.770   7.371   8.224 -0.1841  0.6411 -0.6245
  713MOL0     C96139   4.882   7.287   8.232 -0.1011 -0.1008  0.4746
  713MOL0     C96140   4.877   7.143   8.179 -0.1303 -0.7284  0.6076
  713MOL0     C96141   4.945   7.148   8.040 -0.3163  0.1686 -0.5669
  713MOL0     C96142   4.870   7.216   7.927 -0.3414 -0.0636 -0.5356
  713MOL0     C96143   4.764   7.119   7.861 -0.1692 -0.2116 -0.5781
  713MOL0     O96144   4.704   7.178   7.742 -0.8544  0.6380  0.5315
  713MOL0     C96145   4.582   7.142   7.711  1.0681  0.6887 -0.9413
  713MOL0     C96146   4.474   7.147   7.797 -0.1920 -1.2131  0.1973
  713MOL0     C96147   4.346   7.106   7.769 -0.4937 -0.5492  0.2412
  713MOL0     C96148   4.242   7.124   7.879  0.9362 -0.4643 -1.1936
  713MOL0     C96149   4.314   7.060   7.631  0.4868 -0.3953  0.4276
  713MOL0     C96150   4.179   7.009   7.594 -1.0583  0.3663  1.0442
  713MOL0     O96151   4.175   6.929   7.487  0.1372  0.7280 -0.2602
  713MOL0     C96152   4.046   6.881   7.450 -0.7781 -0.7593  0.6132
  713MOL0     C96153   4.015   6.917   7.312 -0.5200 -0.5062 -0.1212
  713MOL0     C96154   3.896   6.863   7.257 -0.0227  0.6595 -0.3543
  713MOL0     C96155   3.808   6.778   7.326  0.2198 -0.7189 -0.1453
  713MOL0     O96156   3.703   6.718   7.269  0.0073  0.3087 -0.5199
  713MOL0     C96157   3.712   6.691   7.134 -0.3580  0.1611  0.2965
  713MOL0     C96158   3.611   6.588   7.103 -0.2670 -0.3657  1.1164
  713MOL0     C96159   3.642   6.457   7.169 -1.1049 -0.8891  0.2625
  713MOL0     C96160   3.518   6.375   7.212  1.0083  0.1321 -0.0530
  713MOL0     C96161   3.552   6.229   7.271 -0.7572 -0.2583  0.3643
  713MOL0     C96162   3.585   6.245   7.423 -0.2166  0.1946 -0.1781
  713MOL0     C96163   3.607   6.108   7.488  0.7423 -0.5106 -0.4986
  713MOL0     C96164   3.638   6.125   7.638 -0.2018 -0.2531  0.3359
  713MOL0    Cl96165   3.807   6.155   7.664  0.0573 -0.0711 -0.1280
  713MOL0     C96166   3.838   6.747   7.458 -0.1649 -0.4041  0.3246
  713MOL0     C96167   3.960   6.808   7.519  0.4549 -0.1476 -0.2920
  713MOL0     O96168   4.087   7.044   7.671 -0.7155 -0.1788  0.7725
  713MOL0     C96169   4.428   7.052   7.542  0.4364  0.2053 -1.4293
  713MOL0     C96170   4.553   7.099   7.582  1.0439 -0.1807  0.4488
  713MOL0     N96171   4.989   7.366   8.283  0.0563 -0.2650 -0.0505
  713MOL0     N96172   4.940   7.478   8.314 -0.3284 -1.3044 -0.4304
  713MOL0     C96173   5.049   8.372   7.796  0.5658 -0.3581 -0.8808
  713MOL0     C96174   5.125   8.484   7.792  0.0927  0.3498 -0.4206
  713MOL0     C96175   5.231   8.914   7.836 -0.3687 -0.0049 -0.5190
  713MOL0     C96176   5.199   8.951   7.965  0.1252 -0.5426 -0.3077
  713MOL0     C96177   5.214   9.088   8.014 -0.5023 -0.7576 -0.1499
  713MOL0     C96178   5.253   9.180   7.923 -0.8337 -0.0949 -0.3453
  713MOL0     O96179   5.266   9.309   7.967 -0.3782 -0.0719  1.1108
  713MOL0     C96180   5.246   9.420   7.875 -1.0973  0.4592  1.1600
  713MOL0     C96181   5.276   9.555   7.932 -0.7207 -0.0033  0.8062
  713MOL0     C96182   5.243   9.667   7.828 -0.7456  0.0223 -0.2064
  713MOL0     C96183   5.279   9.810   7.878  0.7508 -0.0889  0.1785
  713MOL0     C96184   5.214   9.918   7.792 -1.0424  0.0035 -0.3667
  713MOL0     C96185   5.175  10.004   7.718  0.2604  0.4893 -0.4277
  713MOL0     C96186   5.287   9.144   7.790  0.3561 -0.6129  0.0959
  713MOL0     C96187   5.285   9.005   7.745  0.0816  0.1241 -0.0752
  713MOL0     H96188   5.126   8.571   8.120  0.9119  1.9932 -0.6013
  713MOL0     H96189   4.959   8.390   8.125 -0.9484 -1.7038 -0.2361
  713MOL0     H96190   4.907   8.021   7.825  0.3023 -0.6281 -0.9816
  713MOL0     H96191   5.035   8.127   7.762 -3.0856 -1.1869 -3.6639
  713MOL0     H96192   5.129   7.965   7.898 -0.5218  1.4358 -2.5595
  713MOL0     H96193   5.145   8.122   7.984 -0.5215 -0.5061  3.0164
  713MOL0     H96194   5.097   7.996   8.169  1.4203  1.1333 -1.4611
  713MOL0     H96195   4.960   8.091   8.133  2.9010  2.3507  1.9211
  713MOL0     H96196   4.905   7.841   7.991  1.6268 -0.9888 -1.7151
  713MOL0     H96197   5.035   7.791   8.099 -0.9770 -1.2576  0.0087
  713MOL0     H96198   4.914   7.800   8.289  0.7752 -1.2067 -2.3222
  713MOL0     H96199   4.791   7.926   8.243  0.3516  0.0463  0.8382
  713MOL0     H96200   4.716   7.761   8.056 -0.0129 -0.4140  0.5827
  713MOL0     H96201   4.839   7.647   8.099  0.1073 -0.1143  0.0375
  713MOL0     H96202   4.606   7.743   8.280 -0.2334  0.1743  1.1654
  713MOL0     H96203   4.589   7.609   8.184 -0.5478 -0.1321  1.8513
  713MOL0     H96204   4.635   7.521   8.386  1.7254 -0.7428  0.6094
  713MOL0     H96205   4.765   7.637   8.422 -0.9353  1.0385  0.4152
  713MOL0     H96206   4.671   7.341   8.192  0.4748 -2.4848 -0.1076
  713MOL0     H96207   4.948   7.085   8.239  0.0383 -3.2179 -1.7846
  713MOL0     H96208   4.774   7.109   8.169 -0.1387 -0.0375 -3.7437
  713MOL0     H96209   4.966   7.047   8.006 -3.3723 -0.6444 -0.3241
  713MOL0     H96210   5.045   7.193   8.045 -1.1021  2.1202 -1.3600
  713MOL0     H96211   4.949   7.249   7.858  1.5339 -2.1595  0.4910
  713MOL0     H96212   4.809   7.303   7.954 -0.9147 -0.2156 -1.2963
  713MOL0     H96213   4.689   7.097   7.937  0.4741  1.9650  0.7841
  713MOL0     H96214   4.819   7.025   7.847 -0.7130 -0.4054 -1.4481
  713MOL0     H96215   4.482   7.204   7.889  0.8822 -0.2321 -0.4707
  713MOL0     H96216   4.200   7.030   7.915  2.0938  0.0408  1.7416
  713MOL0     H96217   4.283   7.171   7.969 -0.5844  0.3908 -0.8982
  713MOL0     H96218   4.171   7.199   7.842  2.1083  0.7907 -0.9632
  713MOL0     H96219   4.083   6.987   7.265  0.0309 -0.1918  1.1032
  713MOL0     H96220   3.875   6.886   7.153  0.1696 -0.5759 -0.6843
  713MOL0     H96221   3.708   6.776   7.066  1.1593  1.1577  1.3864
  713MOL0     H96222   3.811   6.650   7.113  0.2382  0.8755  1.5939
  713MOL0     H96223   3.512   6.618   7.138 -0.5161 -1.4261  1.3691
  713MOL0     H96224   3.593   6.582   6.995  1.1096 -0.5660  0.8787
  713MOL0     H96225   3.703   6.473   7.258 -1.7447  0.2425  0.5216
  713MOL0     H96226   3.693   6.393   7.096 -0.4592  0.1480 -0.2145
  713MOL0     H96227   3.458   6.435   7.281  1.0847  1.3380 -1.0122
  713MOL0     H96228   3.450   6.353   7.129 -0.9244 -0.9193  1.7154
  713MOL0     H96229   3.638   6.182   7.223 -0.1420 -0.3725  1.5323
  713MOL0     H96230   3.475   6.152   7.261 -1.1618  0.1648  0.1839
  713MOL0     H96231   3.679   6.300   7.432 -0.9314  1.3479  0.4293
  713MOL0     H96232   3.497   6.285   7.475 -0.5690 -1.5343  0.6351
  713MOL0     H96233   3.688   6.058   7.434 -0.1783 -0.5591 -1.8989
  713MOL0     H96234   3.523   6.039   7.479 -0.0867 -0.0691  2.8254
  713MOL0     H96235   3.612   6.026   7.676  1.5104 -1.8801 -2.4210
  713MOL0     H96236   3.575   6.210   7.666 -1.1309  0.0655 -2.4254
  713MOL0     H96237   3.760   6.695   7.513 -0.9930  1.0426  0.5562
  713MOL0     H96238   3.972   6.784   7.625 -2.4789 -2.0026 -0.2733
  713MOL0     H96239   4.408   7.034   7.437  2.3044 -0.4885 -1.7045
  713MOL0     H96240   4.618   7.120   7.498 -0.7898 -0.5522 -1.1216
  713MOL0     H96241   5.010   8.321   7.709 -0.1643  1.0760 -1.4251
  713MOL0     H96242   5.174   8.513   7.700 -0.1611  0.8302 -0.4080
  713MOL0     H96243   5.162   8.876   8.034  0.4605  0.6921  1.2813
  713MOL0     H96244   5.191   9.122   8.114 -0.9967 -2.1220  0.2276
  713MOL0     H96245   5.314   9.412   7.790  0.6801  2.9686  2.2141
  713MOL0     H96246   5.142   9.427   7.842 -0.9465 -0.6986  0.3533
  713MOL0     H96247   5.382   9.546   7.954 -0.9583 -2.9747  1.0913
  713MOL0     H96248   5.220   9.577   8.024  0.2294 -0.2053  1.4440
  713MOL0     H96249   5.141   9.647   7.796 -1.8250  1.1904  2.2255
  713MOL0     H96250   5.312   9.653   7.744  2.9904 -0.9074  2.7285
  713MOL0     H96251   5.388   9.816   7.876  0.8680 -0.5592  2.3849
  713MOL0     H96252   5.241   9.829   7.979  1.8873  2.0644  0.2599
  713MOL0     H96253   5.109  10.072   7.668 -0.3596  0.9473  0.9673
  713MOL0     H96254   5.336   9.219   7.728  0.0644 -1.7049 -1.5172
  713MOL0     H96255   5.312   8.962   7.649 -0.3325 -0.4106  0.0412
  714MOL0     O96256   7.673   6.327   4.661  0.8656 -0.6185 -0.7238
  714MOL0     C96257   7.782   6.378   4.632  0.6336 -0.4954  0.2875
  714MOL0     O96258   7.891   6.394   4.716 -0.5458  0.1382 -0.2216
  714MOL0     C96259   7.863   6.364   4.852  0.3883  0.4849  0.6283
  714MOL0     C96260   7.789   6.454   4.940 -0.2871  0.0440 -0.3631
  714MOL0     C96261   7.789   6.428   5.078 -0.1192  0.3517  0.1632
  714MOL0     C96262   7.860   6.314   5.137  0.6041  0.0142  1.1906
  714MOL0     O96263   7.879   6.303   5.277 -0.3846 -0.3898  1.3183
  714MOL0     C96264   7.922   6.420   5.345  0.2686  0.8094 -0.5498
  714MOL0     C96265   7.937   6.395   5.494  0.1856  0.6335 -0.2002
  714MOL0     C96266   8.069   6.315   5.523 -0.3863  0.3515  0.6957
  714MOL0     C96267   8.098   6.298   5.672 -0.1400 -0.3188  0.0933
  714MOL0     C96268   8.248   6.287   5.696 -0.6886  0.4465  0.3515
  714MOL0     C96269   8.275   6.297   5.846  0.4667  0.7472  0.0474
  714MOL0     C96270   8.224   6.180   5.930  0.0890 -0.1270 -0.6478
  714MOL0     C96271   8.292   6.163   6.065  0.3942 -0.6274 -0.0853
  714MOL0     N96272   8.239   6.045   6.134  0.0118  0.0029  0.8247
  714MOL0     C96273   8.262   5.914   6.110 -0.0349  0.4970  0.1791
  714MOL0     C96274   8.189   5.839   6.198 -1.5243 -1.5489 -0.5731
  714MOL0     C96275   8.193   5.690   6.192 -0.6756  0.2630  0.0050
  714MOL0     C96276   8.303   5.645   6.292 -0.1219 -0.4372 -0.0838
  714MOL0     C96277   8.301   5.492   6.319  0.5257 -0.8443  0.0748
  714MOL0     C96278   8.360   5.468   6.462 -0.3720  0.8517  0.2108
  714MOL0     O96279   8.265   5.486   6.565  0.1108 -0.0511  0.5448
  714MOL0     C96280   8.305   5.486   6.692 -0.0596  0.8724  1.1817
  714MOL0     C96281   8.350   5.598   6.759  0.3376 -0.0279  0.1809
  714MOL0     C96282   8.426   5.593   6.877  0.3724  0.1072  0.3462
  714MOL0     C96283   8.480   5.732   6.923  0.0397  0.1539 -0.2402
  714MOL0     C96284   8.443   5.472   6.939  0.5176  0.2952  0.5155
  714MOL0     C96285   8.512   5.466   7.059  0.3571 -0.7651 -0.8540
  714MOL0     O96286   8.642   5.467   7.053  0.4333 -0.2304 -0.0499
  714MOL0     C96287   8.711   5.456   7.173 -0.3030 -0.3266 -0.0122
  714MOL0     C96288   8.787   5.562   7.209 -0.2918  1.0141  1.1088
  714MOL0     C96289   8.883   5.540   7.312  0.1474 -0.0594  0.6405
  714MOL0     C96290   8.889   5.409   7.383 -0.2428 -0.4637 -0.4260
  714MOL0     O96291   8.962   5.383   7.495  0.4111  0.9165  0.0755
  714MOL0     C96292   9.096   5.451   7.499  0.6017  0.1213  0.0137
  714MOL0     C96293   9.199   5.371   7.418 -0.2999 -0.2326 -0.0765
  714MOL0     C96294   9.285   5.270   7.490 -0.2747  0.0031  0.2651
  714MOL0     C96295   9.430   5.323   7.523  0.2957  0.6998 -0.2734
  714MOL0     C96296   9.529   5.218   7.577  0.0385  0.5862 -0.2682
  714MOL0     C96297   9.503   5.192   7.727 -1.6438  0.1689 -0.6104
  714MOL0     C96298   9.608   5.083   7.784 -0.3352  0.2439 -0.4660
  714MOL0     C96299   9.569   5.028   7.917  0.4256  0.7891 -0.3579
  714MOL0    Cl96300   9.422   4.926   7.921  0.1009 -0.0963  0.1024
  714MOL0     C96301   8.805   5.306   7.339 -0.3013 -0.9432 -0.3676
  714MOL0     C96302   8.720   5.336   7.239 -0.5116  0.5376 -0.4543
  714MOL0     O96303   8.442   5.467   7.163 -0.2560  0.3848 -0.7962
  714MOL0     C96304   8.384   5.349   6.880  1.5398  0.4068  0.5025
  714MOL0     C96305   8.313   5.362   6.757 -0.5618 -0.1230  1.1758
  714MOL0     N96306   8.139   5.928   6.287 -0.8416 -0.5117 -1.3014
  714MOL0     N96307   8.161   6.053   6.251  0.0101  0.2918  0.3730
  714MOL0     C96308   7.925   6.228   5.047 -0.3277 -0.5838  0.1045
  714MOL0     C96309   7.931   6.255   4.906 -0.6392  1.1300 -0.3809
  714MOL0     C96310   7.805   6.419   4.490 -0.6527  0.0570  0.5845
  714MOL0     C96311   7.712   6.396   4.389 -0.1911 -0.1680 -0.3199
  714MOL0     C96312   7.740   6.430   4.251 -0.5613  0.9766  0.1696
  714MOL0     C96313   7.855   6.495   4.216 -0.7796 -0.3519 -1.6771
  714MOL0     O96314   7.863   6.535   4.081  0.2538 -0.1634 -0.6812
  714MOL0     C96315   7.956   6.628   4.031  0.0943  0.1687  0.3247
  714MOL0     C96316   8.079   6.556   3.994  0.5191  0.2378 -0.2404
  714MOL0     C96317   8.070   6.472   3.872  0.4732  0.1900  0.0875
  714MOL0     C96318   8.214   6.424   3.837 -0.2523  0.1156 -0.6865
  714MOL0     C96319   8.211   6.344   3.712 -0.0431 -1.3726 -0.0612
  714MOL0     C96320   8.217   6.280   3.610 -0.0845  0.0191  0.0749
  714MOL0     C96321   7.943   6.524   4.320  0.7164  0.2619  0.2143
  714MOL0     C96322   7.930   6.487   4.453 -0.7519 -0.0249 -0.3783
  714MOL0     H96323   7.744   6.551   4.922  1.5085  1.2524  1.2933
  714MOL0     H96324   7.741   6.502   5.141  1.5435 -1.1392  3.4274
  714MOL0     H96325   8.018   6.457   5.307  1.6799 -4.4990 -3.0503
  714MOL0     H96326   7.840   6.493   5.345  1.1826  1.8593 -0.3800
  714MOL0     H96327   7.940   6.492   5.545  1.1271  0.5662 -0.1073
  714MOL0     H96328   7.853   6.346   5.543  0.7608  1.3461  1.6003
  714MOL0     H96329   8.058   6.210   5.494  1.0563  0.4733 -0.3641
  714MOL0     H96330   8.154   6.367   5.477 -0.4441 -1.7510 -2.0420
  714MOL0     H96331   8.073   6.393   5.722  1.3581 -0.5901  1.4319
  714MOL0     H96332   8.041   6.217   5.719  0.4317 -0.6157  0.2829
  714MOL0     H96333   8.276   6.191   5.650  0.5304  0.9069  0.0859
  714MOL0     H96334   8.309   6.363   5.646 -1.0685 -0.2746 -1.2812
  714MOL0     H96335   8.384   6.293   5.849  0.4037 -1.9647  0.6342
  714MOL0     H96336   8.239   6.393   5.885 -0.7769 -0.2597  1.5180
  714MOL0     H96337   8.115   6.170   5.930  0.2226 -2.0212 -1.4755
  714MOL0     H96338   8.259   6.092   5.874  1.0899  0.4027 -0.8830
  714MOL0     H96339   8.276   6.256   6.119  1.5466  0.1462 -1.0239
  714MOL0     H96340   8.396   6.138   6.041  0.6137  2.2340 -2.7852
  714MOL0     H96341   8.318   5.874   6.026 -2.8302 -1.4700 -0.8731
  714MOL0     H96342   8.099   5.639   6.214 -2.0657  1.7603 -2.1315
  714MOL0     H96343   8.218   5.656   6.092 -3.3482 -1.2732 -0.2230
  714MOL0     H96344   8.282   5.695   6.386 -3.7978 -3.7122  1.0719
  714MOL0     H96345   8.401   5.677   6.255  0.3697 -0.0136  1.5079
  714MOL0     H96346   8.353   5.454   6.231  0.0670  1.8191 -1.4745
  714MOL0     H96347   8.203   5.444   6.324  0.3117 -0.3230  2.0934
  714MOL0     H96348   8.454   5.523   6.476  1.0124 -1.6758  1.5900
  714MOL0     H96349   8.400   5.367   6.474 -2.8367 -0.5004 -1.8735
  714MOL0     H96350   8.346   5.686   6.695 -3.4785  0.1602  0.4198
  714MOL0     H96351   8.560   5.777   6.864  0.6952  0.9258  1.1730
  714MOL0     H96352   8.402   5.806   6.908 -0.8680 -0.6331  0.4615
  714MOL0     H96353   8.509   5.725   7.029 -0.5579 -1.8018 -0.1596
  714MOL0     H96354   8.786   5.657   7.157  0.4922 -1.1253 -3.3544
  714MOL0     H96355   8.941   5.623   7.350 -0.6510  0.0831  1.5725
  714MOL0     H96356   9.088   5.551   7.454 -2.2513 -1.3699 -3.2216
  714MOL0     H96357   9.126   5.478   7.601  0.3301  0.8987 -0.1027
  714MOL0     H96358   9.136   5.300   7.364 -3.7590  1.7409  1.0105
  714MOL0     H96359   9.258   5.423   7.342  0.8444 -1.2709  0.0793
  714MOL0     H96360   9.298   5.180   7.429  1.9333  2.0263 -2.5383
  714MOL0     H96361   9.234   5.249   7.584  0.7424  0.3160  0.8926
  714MOL0     H96362   9.475   5.358   7.430  2.0446 -0.2089  0.1757
  714MOL0     H96363   9.433   5.408   7.591  1.1191 -2.3166  3.8629
  714MOL0     H96364   9.627   5.263   7.555  0.4773 -1.1914 -2.2623
  714MOL0     H96365   9.527   5.123   7.523 -0.9162 -0.7231  1.9406
  714MOL0     H96366   9.524   5.284   7.782  1.6000 -2.0301  2.3051
  714MOL0     H96367   9.402   5.162   7.756 -1.4968 -4.0105 -3.6137
  714MOL0     H96368   9.705   5.132   7.781  0.1886 -0.8266 -2.5928
  714MOL0     H96369   9.604   4.998   7.715 -2.4602  0.8172 -1.1380
  714MOL0     H96370   9.552   5.112   7.985 -0.3163  1.1499 -0.9717
  714MOL0     H96371   9.655   4.988   7.972 -0.8926  1.6955  2.5959
  714MOL0     H96372   8.798   5.207   7.383  0.8799 -1.0820 -0.4850
  714MOL0     H96373   8.654   5.266   7.190  0.1116  0.8249 -1.7502
  714MOL0     H96374   8.388   5.252   6.929 -0.6207  1.0107  2.0255
  714MOL0     H96375   8.268   5.277   6.706 -1.8157  0.4504  1.2943
  714MOL0     H96376   7.973   6.142   5.094  2.3211  0.1082 -1.1338
  714MOL0     H96377   7.989   6.185   4.847 -0.5308  0.3470  0.6306
  714MOL0     H96378   7.621   6.339   4.404 -1.0646  0.7173 -1.9265
  714MOL0     H96379   7.671   6.402   4.172  1.2826  1.9785 -1.9009
  714MOL0     H96380   7.911   6.684   3.948 -2.0285  0.0656  1.3635
  714MOL0     H96381   7.983   6.706   4.103  3.4970 -0.9854  0.5032
  714MOL0     H96382   8.118   6.496   4.077 -0.8349  0.5477  0.6563
  714MOL0     H96383   8.162   6.624   3.976 -0.7334  1.8735 -0.1375
  714MOL0     H96384   8.039   6.541   3.793 -0.7641  0.1620  0.5179
  714MOL0     H96385   8.003   6.385   3.879  2.5728 -1.4992  0.1438
  714MOL0     H96386   8.253   6.380   3.929 -2.0671  1.7185  0.9573
  714MOL0     H96387   8.276   6.512   3.822 -0.9535  1.1667  2.0536
  714MOL0     H96388   8.231   6.223   3.521 -1.4739  0.7184 -0.6239
  714MOL0     H96389   8.034   6.572   4.286  2.6449 -2.8509  0.5323
  714MOL0     H96390   8.002   6.521   4.527 -0.7283  0.4138 -0.6026
  715MOL0     O96391   1.222   0.249  10.390  0.0466  0.9245 -0.7499
  715MOL0     C96392   1.242   0.245  10.269  0.9991 -1.3444  0.4107
  715MOL0     O96393   1.326   0.331  10.208 -0.2255  0.3643 -0.5085
  715MOL0     C96394   1.427   0.394  10.281 -0.4098  1.0460 -0.2198
  715MOL0     C96395   1.476   0.510  10.226 -0.5293  0.3152  0.3663
  715MOL0     C96396   1.572   0.583  10.302 -0.3091 -0.8729  0.6407
  715MOL0     C96397   1.635   0.528  10.419  0.1841 -0.1360 -0.4618
  715MOL0     O96398   1.728   0.605  10.475 -0.3256  0.0136  0.0552
  715MOL0     C96399   1.700   0.646  10.612 -0.1312 -0.7984  0.0619
  715MOL0     C96400   1.800   0.759  10.673 -0.6403 -0.3744 -0.3577
  715MOL0     C96401   1.747   0.822  10.812 -0.8529  0.4003  0.0161
  715MOL0     C96402   1.718   0.709  10.908  0.3243 -0.7783 -0.6861
  715MOL0     C96403   1.713   0.757  11.050 -0.4859  0.0035 -0.6632
  715MOL0     C96404   1.604   0.860  11.085 -0.5265  0.7362 -0.1538
  715MOL0     C96405   1.582   0.895  11.242 -0.0562  0.1986 -0.5380
  715MOL0     C96406   1.537   0.770  11.326 -0.4188 -0.3967  0.1225
  715MOL0     N96407   1.415   0.717  11.281  0.6947 -0.8407  0.4324
  715MOL0     C96408   1.394   0.623  11.190 -0.2865  1.0634  0.4608
  715MOL0     C96409   1.262   0.595  11.205  0.2424  0.0587  0.3956
  715MOL0     C96410   1.181   0.508  11.113 -0.1848 -0.8242  0.6482
  715MOL0     C96411   1.195   0.356  11.160  0.8800  0.4171  1.0510
  715MOL0     C96412   1.113   0.332  11.286 -0.3396 -0.2160  0.3948
  715MOL0     C96413   1.127   0.179  11.331  0.4419  0.7484  0.1307
  715MOL0     O96414   1.067   0.097  11.231 -0.3525  0.0302  0.4475
  715MOL0     C96415   0.931   0.064  11.238  1.0020 -0.3191  0.8273
  715MOL0     C96416   0.841   0.045  11.356 -0.1273  0.0763  0.4897
  715MOL0     C96417   0.704   0.016  11.332 -0.5220  0.3577  0.7604
  715MOL0     C96418   0.612   0.002  11.445  0.1915  0.0655  0.1505
  715MOL0     C96419   0.651   0.012  11.197  0.1432  0.5504 -0.9026
  715MOL0     C96420   0.510   0.004  11.159 -0.7582  0.5531 -0.2646
  715MOL0     O96421   0.452  -0.122  11.182 -0.5156 -0.1860 -0.2340
  715MOL0     C96422   0.323  -0.150  11.144  0.8975 -0.0064  0.6541
  715MOL0     C96423   0.234  -0.063  11.086  0.0032  0.0754 -0.0812
  715MOL0     C96424   0.106  -0.094  11.053  0.9276  0.3435  0.1577
  715MOL0     C96425   0.057  -0.221  11.072  1.0037  0.0558 -0.3012
  715MOL0     O96426  -0.071  -0.252  11.038  0.5180  0.0138  0.4699
  715MOL0     C96427  -0.084  -0.386  10.986  0.1625 -0.5474 -0.8128
  715MOL0     C96428  -0.223  -0.403  10.924  0.1416 -0.4354  0.0988
  715MOL0     C96429  -0.243  -0.299  10.814  0.1554 -0.5687 -0.5712
  715MOL0     C96430  -0.369  -0.322  10.733  0.4357 -0.3360 -0.2558
  715MOL0     C96431  -0.359  -0.424  10.618  1.0961 -0.1802  0.9934
  715MOL0     C96432  -0.501  -0.431  10.578 -0.6162  0.9397  0.0937
  715MOL0     C96433  -0.528  -0.545  10.474  0.1220  0.4606 -0.4769
  715MOL0     C96434  -0.678  -0.557  10.443  0.2404 -0.0711  0.5232
  715MOL0    Cl96435  -0.696  -0.628  10.279 -0.0285  0.5906  0.3216
  715MOL0     C96436   0.138  -0.313  11.142  1.4106 -0.0831  1.0016
  715MOL0     C96437   0.270  -0.274  11.164 -0.2966  0.1472  0.5201
  715MOL0     O96438   0.480   0.085  11.075 -0.4842 -0.1911 -0.2475
  715MOL0     C96439   0.741   0.002  11.094  0.1753 -0.1330 -0.1224
  715MOL0     C96440   0.874   0.049  11.108 -0.5074  0.7235 -1.4845
  715MOL0     N96441   1.200   0.657  11.307 -0.8351 -1.0360  0.6113
  715MOL0     N96442   1.296   0.738  11.346  0.4670 -0.1383  0.5890
  715MOL0     C96443   1.599   0.401  10.453  1.0527  0.1525 -0.7824
  715MOL0     C96444   1.495   0.339  10.396  0.2385  1.0752 -0.1924
  715MOL0     C96445   1.190   0.128  10.182  0.1486  0.7115 -0.9322
  715MOL0     C96446   1.272   0.086  10.071 -0.1814 -0.0420 -0.5144
  715MOL0     C96447   1.230  -0.032  10.009  0.2959 -0.1080  0.0634
  715MOL0     C96448   1.099  -0.096  10.047 -1.1205  0.8858  0.0085
  715MOL0     O96449   1.087  -0.221   9.979 -0.4456 -0.3128  0.0182
  715MOL0     C96450   0.971  -0.302   9.998 -0.3549  0.5150 -0.3023
  715MOL0     C96451   0.959  -0.373   9.870  0.2520  0.5789  0.4752
  715MOL0     C96452   0.849  -0.482   9.872 -0.1821  0.0433 -0.2737
  715MOL0     C96453   0.708  -0.414   9.866  0.3623  0.8396 -0.9043
  715MOL0     C96454   0.680  -0.344   9.746  1.4043  0.6429  0.5724
  715MOL0     C96455   0.637  -0.298   9.645 -0.1210 -1.1585 -0.4553
  715MOL0     C96456   1.013  -0.033  10.138 -0.9519  0.2845 -0.6009
  715MOL0     C96457   1.063   0.071  10.214 -1.4070  0.4037  0.2581
  715MOL0     H96458   1.420   0.563  10.149 -1.6825  1.7461  2.0964
  715MOL0     H96459   1.618   0.676  10.272  0.2399 -1.1589  0.5775
  715MOL0     H96460   1.601   0.692  10.602  1.1274  2.5816  1.6013
  715MOL0     H96461   1.699   0.555  10.673  0.8164 -1.3463 -0.7265
  715MOL0     H96462   1.898   0.714  10.693 -0.8631 -0.2444  1.1906
  715MOL0     H96463   1.809   0.827  10.588  0.2198 -2.5008 -2.0574
  715MOL0     H96464   1.833   0.877  10.851  2.2044 -4.6104  1.2400
  715MOL0     H96465   1.658   0.882  10.790 -0.6960 -0.0613 -2.0404
  715MOL0     H96466   1.621   0.665  10.882 -0.2271 -0.2386  0.3800
  715MOL0     H96467   1.801   0.640  10.891  1.1167  0.3980 -1.8021
  715MOL0     H96468   1.689   0.667  11.109 -0.4961  0.8490  0.6581
  715MOL0     H96469   1.810   0.796  11.082  0.6904 -2.2822 -1.2335
  715MOL0     H96470   1.637   0.953  11.037  0.3597  0.3981 -0.2084
  715MOL0     H96471   1.509   0.826  11.042  0.1872 -2.0001  0.2401
  715MOL0     H96472   1.675   0.937  11.282 -0.5647  1.3105 -0.4877
  715MOL0     H96473   1.513   0.978  11.256 -0.4180 -0.3555  1.3096
  715MOL0     H96474   1.537   0.802  11.431 -3.6740 -0.6948  0.3134
  715MOL0     H96475   1.605   0.686  11.310 -0.3366 -0.2789 -0.1529
  715MOL0     H96476   1.465   0.571  11.125  0.5260  2.6264  0.0613
  715MOL0     H96477   1.074   0.527  11.118 -0.1117  0.0743 -0.6564
  715MOL0     H96478   1.212   0.532  11.011 -2.3667  0.1653  0.1834
  715MOL0     H96479   1.297   0.319  11.168 -0.1012 -2.8392  0.0249
  715MOL0     H96480   1.164   0.288  11.080  3.8147  1.1463 -0.8537
  715MOL0     H96481   1.008   0.361  11.273 -0.4728  1.2525  3.6586
  715MOL0     H96482   1.153   0.393  11.368  1.3822  0.4875 -0.9179
  715MOL0     H96483   1.080   0.164  11.429  1.6237 -3.3814  0.2673
  715MOL0     H96484   1.229   0.146  11.354 -0.1333 -1.7126 -0.5836
  715MOL0     H96485   0.882   0.047  11.457  5.4870 -0.0079 -1.4338
  715MOL0     H96486   0.658   0.028  11.541  0.3730 -0.4811  0.2184
  715MOL0     H96487   0.521   0.062  11.436  0.7376  1.2952  2.1260
  715MOL0     H96488   0.572  -0.100  11.453  1.8360 -0.9695 -3.1121
  715MOL0     H96489   0.260   0.042  11.077  2.1126  0.2131  4.6312
  715MOL0     H96490   0.040  -0.025  11.001 -1.7443 -3.5489 -2.1241
  715MOL0     H96491  -0.009  -0.406  10.909 -1.3643 -1.3558 -2.1604
  715MOL0     H96492  -0.086  -0.462  11.064 -1.9931 -2.4351 -2.5589
  715MOL0     H96493  -0.228  -0.500  10.874 -0.9074  1.5781 -4.1967
  715MOL0     H96494  -0.300  -0.397  11.002 -0.5539 -0.1000 -0.5949
  715MOL0     H96495  -0.159  -0.294  10.744  0.4802 -2.3593 -0.3516
  715MOL0     H96496  -0.251  -0.203  10.866 -1.6726 -1.1432  0.2918
  715MOL0     H96497  -0.451  -0.338  10.804 -1.1625 -0.1897 -1.9792
  715MOL0     H96498  -0.389  -0.232  10.674 -0.1573 -0.5710 -0.4222
  715MOL0     H96499  -0.327  -0.525  10.643 -0.9963 -1.0024  0.5754
  715MOL0     H96500  -0.284  -0.385  10.549  0.9821 -2.3963 -0.4640
  715MOL0     H96501  -0.571  -0.443  10.662 -0.3205 -0.6543  0.1343
  715MOL0     H96502  -0.531  -0.337  10.530 -0.5263  2.1699  2.3118
  715MOL0     H96503  -0.481  -0.639  10.502  0.8936  1.1476  0.6085
  715MOL0     H96504  -0.477  -0.513  10.383  2.3621  1.0426  0.9046
  715MOL0     H96505  -0.720  -0.456  10.437 -3.6002 -1.4658  1.2004
  715MOL0     H96506  -0.720  -0.617  10.524 -4.3899 -1.4087 -2.4313
  715MOL0     H96507   0.110  -0.412  11.176  2.6488 -0.7880  0.0489
  715MOL0     H96508   0.333  -0.349  11.210  1.9550  0.4859 -1.7714
  715MOL0     H96509   0.701  -0.023  10.996  1.2568 -0.8535 -0.4093
  715MOL0     H96510   0.937   0.058  11.020  1.5784  0.8204 -0.0415
  715MOL0     H96511   1.653   0.371  10.542  1.3114  0.3869 -0.8597
  715MOL0     H96512   1.481   0.239  10.435  2.1740  0.2403 -1.4491
  715MOL0     H96513   1.357   0.150  10.049 -2.2855  2.9155 -0.6068
  715MOL0     H96514   1.287  -0.089   9.936  0.6802 -0.8431  0.9142
  715MOL0     H96515   0.974  -0.375  10.080  4.0813  0.2271 -0.5008
  715MOL0     H96516   0.893  -0.226   9.996  1.7779  2.8068 -0.2827
  715MOL0     H96517   1.056  -0.414   9.842 -0.2873 -0.2276 -0.2877
  715MOL0     H96518   0.945  -0.306   9.785 -1.9007 -0.3421  0.0171
  715MOL0     H96519   0.864  -0.536   9.966  1.7395  0.1888 -0.4525
  715MOL0     H96520   0.859  -0.563   9.799  3.6510 -0.4226  0.5494
  715MOL0     H96521   0.677  -0.352   9.950 -4.6385  0.0923 -1.8906
  715MOL0     H96522   0.644  -0.501   9.883  1.3402  0.7480  3.6116
  715MOL0     H96523   0.603  -0.242   9.560 -0.9920  0.6748  1.0437
  715MOL0     H96524   0.926  -0.093  10.161 -0.5211 -2.5999 -5.2332
  715MOL0     H96525   0.999   0.108  10.294  0.1798  0.3054  1.6213
  716MOL0     O96526   7.169   5.488   5.098 -0.4895 -0.0536  0.5176
  716MOL0     C96527   7.262   5.526   5.020  0.1989  0.1599 -0.8259
  716MOL0     O96528   7.241   5.584   4.898 -0.1860  0.2148 -0.5665
  716MOL0     C96529   7.122   5.639   4.879  0.2149 -0.9162  0.8112
  716MOL0     C96530   7.055   5.605   4.757  0.0586  0.2935  1.4486
  716MOL0     C96531   6.934   5.654   4.719  0.6666 -1.7327 -1.1563
  716MOL0     C96532   6.878   5.744   4.814  0.1754  0.0053  0.0697
  716MOL0     O96533   6.757   5.799   4.780 -1.2126  0.0551  0.6096
  716MOL0     C96534   6.636   5.719   4.805  0.0718  0.2904 -0.4316
  716MOL0     C96535   6.514   5.807   4.770 -0.3153  0.5514 -0.2093
  716MOL0     C96536   6.390   5.771   4.839  0.8505  0.6442  0.6320
  716MOL0     C96537   6.321   5.638   4.784 -0.1248 -0.2782  0.1675
  716MOL0     C96538   6.182   5.612   4.828 -0.3740 -0.1736  0.1215
  716MOL0     C96539   6.091   5.693   4.726 -0.9049 -0.2670  0.2582
  716MOL0     C96540   5.949   5.695   4.772  1.5859  0.2111 -0.0270
  716MOL0     C96541   5.883   5.559   4.804 -0.3509  0.0389 -0.0895
  716MOL0     N96542   5.743   5.565   4.841 -0.0640 -0.0288  0.3699
  716MOL0     C96543   5.651   5.503   4.765 -0.3572 -0.0054 -0.3942
  716MOL0     C96544   5.536   5.551   4.812  0.3171 -0.1426 -0.6629
  716MOL0     C96545   5.396   5.542   4.755  0.1124  1.1612 -0.6022
  716MOL0     C96546   5.396   5.598   4.615  0.7325  0.0745 -0.0916
  716MOL0     C96547   5.444   5.746   4.598 -0.2829  0.4692  0.5376
  716MOL0     C96548   5.340   5.847   4.625 -0.7234 -0.0405 -0.4035
  716MOL0     O96549   5.386   5.983   4.622 -0.6140 -0.0782  0.2514
  716MOL0     C96550   5.449   6.041   4.734 -0.8443  0.0732  0.0243
  716MOL0     C96551   5.485   6.175   4.728 -0.2855  0.0374 -0.6066
  716MOL0     C96552   5.538   6.238   4.839 -0.0142 -0.3861 -0.6054
  716MOL0     C96553   5.557   6.388   4.833 -0.6418  0.7584 -0.1931
  716MOL0     C96554   5.600   6.153   4.941 -0.6302  0.5225  0.5045
  716MOL0     C96555   5.680   6.209   5.053 -0.4442  0.0787 -0.5438
  716MOL0     O96556   5.758   6.117   5.111 -0.8559  0.4501 -0.8911
  716MOL0     C96557   5.808   6.147   5.233  0.7290 -1.2576  0.8402
  716MOL0     C96558   5.907   6.247   5.258 -0.2983  0.4924 -0.5423
  716MOL0     C96559   5.953   6.267   5.390 -0.7690 -0.1740 -1.3010
  716MOL0     C96560   5.931   6.181   5.489  0.5732  0.6718 -1.5648
  716MOL0     O96561   5.986   6.206   5.615 -0.4206 -0.5939  0.5466
  716MOL0     C96562   6.011   6.098   5.703 -0.3177  0.4513 -0.4576
  716MOL0     C96563   6.003   6.134   5.845  0.5890  0.0914 -0.4366
  716MOL0     C96564   6.130   6.203   5.897  0.2971  1.0087  0.9586
  716MOL0     C96565   6.123   6.251   6.042  0.0817 -0.4387  1.2071
  716MOL0     C96566   6.258   6.302   6.101  0.5218  0.1417  0.4110
  716MOL0     C96567   6.229   6.351   6.238 -0.9314 -0.4248  0.1435
  716MOL0     C96568   6.306   6.479   6.261  0.1986 -0.5957 -0.3713
  716MOL0     C96569   6.247   6.603   6.186  0.1838  0.5071  0.4920
  716MOL0    Cl96570   6.366   6.713   6.115 -0.4035 -0.1025 -0.2856
  716MOL0     C96571   5.834   6.077   5.462  0.5090 -0.4479 -0.2330
  716MOL0     C96572   5.782   6.059   5.337  0.4889 -0.5088 -0.4591
  716MOL0     O96573   5.657   6.324   5.093  0.4408  0.6978 -0.7882
  716MOL0     C96574   5.568   6.015   4.947 -0.0154 -0.1988 -0.3711
  716MOL0     C96575   5.492   5.968   4.841  0.3750  0.7879 -0.2736
  716MOL0     N96576   5.556   5.629   4.925 -0.0561 -0.8582  0.3621
  716MOL0     N96577   5.681   5.646   4.932 -0.0119 -0.3284 -0.6095
  716MOL0     C96578   6.941   5.782   4.930 -0.1585  1.0743  0.2725
  716MOL0     C96579   7.065   5.735   4.963 -0.4337  0.1406 -0.4493
  716MOL0     C96580   7.390   5.472   5.052  1.2699 -0.0831 -0.7406
  716MOL0     C96581   7.415   5.407   5.178 -0.9473  0.2595 -0.4552
  716MOL0     C96582   7.543   5.353   5.212  0.9675  0.2516  0.0700
  716MOL0     C96583   7.643   5.356   5.118  1.1747  0.2037  0.5640
  716MOL0     O96584   7.766   5.294   5.138 -0.3996  0.2593 -0.1626
  716MOL0     C96585   7.793   5.187   5.222 -0.9611  0.1320  0.3997
  716MOL0     C96586   7.739   5.062   5.152 -0.0214  0.1672 -0.5338
  716MOL0     C96587   7.694   4.955   5.250 -0.3126 -0.2325 -1.2236
  716MOL0     C96588   7.592   4.863   5.178 -1.0414  0.8429 -0.2253
  716MOL0     C96589   7.538   4.744   5.250 -1.0236  0.0008  0.2242
  716MOL0     C96590   7.484   4.668   5.322  0.1048  0.3346 -0.5300
  716MOL0     C96591   7.629   5.408   4.992 -0.0012 -0.9425  0.0545
  716MOL0     C96592   7.500   5.463   4.962 -0.8148 -0.4312 -1.1000
  716MOL0     H96593   7.111   5.536   4.695  2.6715  2.6449  0.9665
  716MOL0     H96594   6.885   5.641   4.623 -1.3457  2.1656 -0.8492
  716MOL0     H96595   6.629   5.633   4.739  0.2840 -3.0892  3.5676
  716MOL0     H96596   6.642   5.675   4.905 -3.3884 -0.8759 -0.6187
  716MOL0     H96597   6.523   5.916   4.769 -2.2484  0.7527  0.2802
  716MOL0     H96598   6.497   5.784   4.664  1.0979 -1.0621 -0.1190
  716MOL0     H96599   6.415   5.755   4.945  1.2993 -2.9617  0.1022
  716MOL0     H96600   6.319   5.851   4.818  0.8663 -0.1745 -3.2251
  716MOL0     H96601   6.326   5.640   4.675  0.7224 -1.5236  0.1727
  716MOL0     H96602   6.386   5.556   4.815 -0.8946 -0.5171  1.2096
  716MOL0     H96603   6.156   5.506   4.820  2.7692 -1.0160 -0.2380
  716MOL0     H96604   6.181   5.644   4.933 -0.1544  0.4164 -0.0531
  716MOL0     H96605   6.128   5.796   4.715 -2.1549  0.1588 -0.2320
  716MOL0     H96606   6.089   5.634   4.634 -3.0278  0.7761 -0.4577
  716MOL0     H96607   5.929   5.755   4.861  0.3452  0.6989 -0.6221
  716MOL0     H96608   5.890   5.754   4.702  1.4206  0.7579  0.5693
  716MOL0     H96609   5.934   5.505   4.885  1.6557 -0.4836 -1.6217
  716MOL0     H96610   5.898   5.491   4.720 -2.9644  0.7523 -1.2263
  716MOL0     H96611   5.676   5.449   4.674  2.5110  0.1903  0.1851
  716MOL0     H96612   5.355   5.441   4.759  0.2841  1.0418  3.9626
  716MOL0     H96613   5.326   5.589   4.826  0.8881  1.5998 -0.1084
  716MOL0     H96614   5.299   5.579   4.568  1.1950 -1.6419 -0.4315
  716MOL0     H96615   5.471   5.535   4.565  1.6500  2.1133 -1.4097
  716MOL0     H96616   5.486   5.767   4.499 -3.4945  2.9938 -0.4471
  716MOL0     H96617   5.531   5.757   4.663 -1.4564  0.3352  2.1877
  716MOL0     H96618   5.285   5.822   4.716 -0.1007 -3.3765 -0.8170
  716MOL0     H96619   5.265   5.831   4.547  1.1071 -3.5275 -1.6558
  716MOL0     H96620   5.471   6.232   4.637 -0.3326 -1.3358 -1.4992
  716MOL0     H96621   5.523   6.415   4.732  0.8849  0.5133 -0.8060
  716MOL0     H96622   5.487   6.439   4.899 -3.6059  0.8464 -3.1368
  716MOL0     H96623   5.659   6.421   4.855  0.0393 -1.3358 -0.0390
  716MOL0     H96624   5.932   6.296   5.164 -0.0640  1.7231  0.1361
  716MOL0     H96625   6.015   6.351   5.420 -0.3463 -0.3304 -1.7201
  716MOL0     H96626   5.931   6.023   5.697  0.7805 -0.9369  1.1735
  716MOL0     H96627   6.108   6.051   5.686  1.2642  3.4698 -0.3786
  716MOL0     H96628   5.922   6.205   5.862  2.2057  2.2394 -1.1598
  716MOL0     H96629   5.993   6.045   5.907 -0.2202  2.2064  2.7620
  716MOL0     H96630   6.151   6.290   5.833  0.8804  3.1478  3.8438
  716MOL0     H96631   6.225   6.151   5.883  1.8592  3.9345 -0.4609
  716MOL0     H96632   6.059   6.340   6.045  2.7793  1.6614  1.0261
  716MOL0     H96633   6.065   6.176   6.097 -2.8148 -0.7139 -1.8760
  716MOL0     H96634   6.308   6.375   6.036  2.8939 -1.2032  0.6122
  716MOL0     H96635   6.338   6.227   6.102  1.5716  1.2159 -0.2972
  716MOL0     H96636   6.126   6.377   6.266 -0.7568  1.7250 -0.9709
  716MOL0     H96637   6.277   6.284   6.310  2.0236  1.4489  0.1050
  716MOL0     H96638   6.410   6.472   6.226  0.3611  1.2579 -0.3923
  716MOL0     H96639   6.312   6.503   6.367  2.0816  1.2856 -0.8290
  716MOL0     H96640   6.184   6.673   6.242  0.2054  0.6901  0.2919
  716MOL0     H96641   6.175   6.574   6.108 -0.8958  2.4044  0.7166
  716MOL0     H96642   5.803   6.007   5.539 -0.0791 -0.1538 -0.1960
  716MOL0     H96643   5.714   5.978   5.315 -1.2367  1.2307 -1.9501
  716MOL0     H96644   5.609   5.942   5.015 -0.6158  0.2440  0.4919
  716MOL0     H96645   5.471   5.862   4.841  2.6590  0.2531 -2.7863
  716MOL0     H96646   6.878   5.852   4.984  0.9882  0.7280  2.1776
  716MOL0     H96647   7.117   5.767   5.053 -3.1394 -0.1692  1.3437
  716MOL0     H96648   7.333   5.412   5.249  0.5643 -2.6410  1.7208
  716MOL0     H96649   7.541   5.297   5.305 -6.2725 -1.2816 -0.3785
  716MOL0     H96650   7.901   5.172   5.226 -0.9284 -1.1055 -2.5614
  716MOL0     H96651   7.752   5.216   5.319 -0.8621 -0.0986  0.5114
  716MOL0     H96652   7.815   5.014   5.090  1.8136  0.0776  1.6537
  716MOL0     H96653   7.655   5.093   5.090 -2.7803 -1.3749  2.1728
  716MOL0     H96654   7.644   5.000   5.335 -3.7928  0.2042 -3.3214
  716MOL0     H96655   7.780   4.895   5.282 -0.5474 -1.0703 -2.0968
  716MOL0     H96656   7.627   4.833   5.079  0.8769  0.9067  0.3771
  716MOL0     H96657   7.507   4.932   5.168 -2.6494 -0.3822  3.3783
  716MOL0     H96658   7.433   4.592   5.377 -0.8133  0.5754 -1.0255
  716MOL0     H96659   7.713   5.406   4.923  3.6605 -0.7742  4.0348
  716MOL0     H96660   7.483   5.512   4.866 -0.5205  1.1330 -0.3870
  717MOL0     O96661   1.226   7.784   1.981 -0.9154  0.1169 -0.2473
  717MOL0     C96662   1.211   7.692   1.901  0.4571 -0.3112 -0.7943
  717MOL0     O96663   1.087   7.652   1.847 -0.2350  0.4936 -0.3203
  717MOL0     C96664   0.977   7.726   1.879  0.7276  0.7432 -0.0396
  717MOL0     C96665   0.852   7.653   1.892 -0.0678  0.3058 -0.7487
  717MOL0     C96666   0.742   7.729   1.929 -0.4137 -1.0045  1.5301
  717MOL0     C96667   0.749   7.866   1.943  0.4002  0.1143 -0.0757
  717MOL0     O96668   0.620   7.923   1.978 -0.3105  0.6513  0.3845
  717MOL0     C96669   0.588   8.058   1.925  0.3724  0.0807 -0.6884
  717MOL0     C96670   0.438   8.067   1.892 -0.7842  0.0270 -0.7149
  717MOL0     C96671   0.339   8.028   1.999  0.0796 -0.1525  0.0857
  717MOL0     C96672   0.199   8.072   1.962 -0.3985  0.2582  0.5880
  717MOL0     C96673   0.102   8.030   2.069 -0.9416  0.4000  0.3448
  717MOL0     C96674  -0.039   8.049   2.025  0.2075  0.0486 -0.7156
  717MOL0     C96675  -0.075   8.199   1.992 -1.1268  0.3815 -0.5266
  717MOL0     C96676  -0.082   8.291   2.108 -0.8410 -1.0847 -0.2237
  717MOL0     N96677  -0.141   8.422   2.071  0.0351 -0.6455  0.1054
  717MOL0     C96678  -0.143   8.483   1.947  0.6378  0.1594  0.6763
  717MOL0     C96679  -0.240   8.577   1.956  0.2285 -0.3776 -1.1667
  717MOL0     C96680  -0.281   8.651   1.832  0.4157  0.1858 -0.3910
  717MOL0     C96681  -0.216   8.794   1.822  0.6616  0.3958 -0.1642
  717MOL0     C96682  -0.222   8.871   1.956 -0.0264 -0.0243 -0.1603
  717MOL0     C96683  -0.364   8.889   1.998  0.2960 -0.0172  0.2096
  717MOL0     O96684  -0.382   9.014   2.070  0.0615 -0.2472 -0.0273
  717MOL0     C96685  -0.486   9.083   2.037  0.3599  0.3062 -0.6432
  717MOL0     C96686  -0.477   9.145   1.910  0.0659 -0.6356  0.5150
  717MOL0     C96687  -0.582   9.223   1.859  0.0616 -0.5469  0.2406
  717MOL0     C96688  -0.567   9.293   1.727 -1.1407  0.0393  0.1614
  717MOL0     C96689  -0.707   9.228   1.943  0.1221  0.5670 -0.0701
  717MOL0     C96690  -0.835   9.294   1.897  0.9652  0.4361 -0.4185
  717MOL0     O96691  -0.913   9.329   1.999  0.0873  0.7154  0.1292
  717MOL0     C96692  -1.001   9.436   1.990 -0.4047 -0.4561 -0.0752
  717MOL0     C96693  -1.094   9.447   1.889 -0.5301  0.0882  0.3839
  717MOL0     C96694  -1.196   9.544   1.890  0.3410  0.6657  0.5519
  717MOL0     C96695  -1.217   9.627   1.995  0.1020 -0.2117  0.1986
  717MOL0     O96696  -1.331   9.691   2.002 -0.4230  0.4930 -0.1145
  717MOL0     C96697  -1.336   9.831   2.023  0.1335  0.0718  0.7811
  717MOL0     C96698  -1.466   9.886   2.087 -0.5338  0.3433 -1.0037
  717MOL0     C96699  -1.590   9.863   1.998  0.4356  0.2856 -0.0336
  717MOL0     C96700  -1.721   9.904   2.062  0.7666 -0.5436  0.3451
  717MOL0     C96701  -1.835   9.868   1.966  0.8903  0.0341  0.5410
  717MOL0     C96702  -1.975   9.910   2.006  0.7407 -0.0178  0.1013
  717MOL0     C96703  -2.009  10.053   2.028  0.1525 -0.2488  0.0697
  717MOL0     C96704  -2.152  10.089   2.040  0.5993 -0.0785 -0.5120
  717MOL0    Cl96705  -2.222  10.137   1.879  0.2732  0.0410  0.1859
  717MOL0     C96706  -1.126   9.615   2.107 -0.2258  0.2037 -0.1224
  717MOL0     C96707  -1.025   9.518   2.100 -0.5290 -0.2096  0.5447
  717MOL0     O96708  -0.854   9.319   1.778  0.5700  0.3798  0.3737
  717MOL0     C96709  -0.703   9.174   2.076  0.9926  0.8998 -0.1805
  717MOL0     C96710  -0.596   9.104   2.119  0.0767  0.6115 -0.1675
  717MOL0     N96711  -0.286   8.578   2.089  0.2362 -0.4732  0.0668
  717MOL0     N96712  -0.233   8.485   2.155  1.1311  0.3445 -0.3226
  717MOL0     C96713   0.869   7.929   1.919 -0.0956 -0.3397  0.2555
  717MOL0     C96714   0.975   7.861   1.888 -0.8123  1.0123  0.2181
  717MOL0     C96715   1.336   7.608   1.872  1.3621 -0.1347 -0.9047
  717MOL0     C96716   1.342   7.541   1.754 -0.4499  0.4431  1.6002
  717MOL0     C96717   1.453   7.465   1.716  0.0456 -0.5851 -0.5506
  717MOL0     C96718   1.560   7.440   1.802  0.8296 -0.2507 -0.1349
  717MOL0     O96719   1.650   7.348   1.760 -0.2431  0.4213  0.5566
  717MOL0     C96720   1.730   7.270   1.852  0.3796 -0.8895  0.6847
  717MOL0     C96721   1.878   7.331   1.870  0.3759 -0.3672 -0.4299
  717MOL0     C96722   1.960   7.270   1.980  0.8960 -0.1681  0.6434
  717MOL0     C96723   2.084   7.364   2.015 -0.6011 -0.6062  0.3843
  717MOL0     C96724   2.158   7.417   1.894 -0.9166 -0.2502 -1.5558
  717MOL0     C96725   2.201   7.482   1.803 -0.2641 -0.1964  0.7295
  717MOL0     C96726   1.561   7.523   1.912 -0.1529 -0.7881 -0.7263
  717MOL0     C96727   1.449   7.615   1.946 -0.0366  0.5988 -0.3854
  717MOL0     H96728   0.853   7.544   1.888 -2.1724  0.2313 -0.8017
  717MOL0     H96729   0.652   7.670   1.940  0.0758 -1.6049  2.3429
  717MOL0     H96730   0.616   8.131   2.002 -1.1622 -0.1884  0.1635
  717MOL0     H96731   0.652   8.081   1.839 -0.5657  0.0004 -1.4321
  717MOL0     H96732   0.429   8.175   1.876 -0.1334  0.3636  0.9682
  717MOL0     H96733   0.421   8.011   1.800 -0.1369 -2.5446  0.6106
  717MOL0     H96734   0.349   7.919   2.004 -2.0053 -0.5013 -1.9815
  717MOL0     H96735   0.360   8.080   2.093 -0.7689 -0.9232  0.7193
  717MOL0     H96736   0.208   8.181   1.948  2.4003  0.5187  3.2847
  717MOL0     H96737   0.162   8.032   1.868 -2.0987  2.5570  0.1890
  717MOL0     H96738   0.114   7.923   2.085  0.6462  0.6007  0.6806
  717MOL0     H96739   0.119   8.086   2.162 -0.1406 -0.7400  0.9075
  717MOL0     H96740  -0.044   7.986   1.935  3.0566 -0.0534 -0.9128
  717MOL0     H96741  -0.116   8.013   2.094  2.5867 -0.1375  2.0432
  717MOL0     H96742  -0.004   8.239   1.919 -0.7930  1.7703  0.5202
  717MOL0     H96743  -0.164   8.195   1.928 -1.7070 -1.8459  0.3081
  717MOL0     H96744   0.017   8.312   2.150 -1.2417  2.1022 -0.6186
  717MOL0     H96745  -0.136   8.252   2.195 -1.2332 -0.9664 -0.4169
  717MOL0     H96746  -0.089   8.458   1.856  0.0560  3.4760 -0.7199
  717MOL0     H96747  -0.243   8.587   1.751 -0.8192 -1.2192  0.0920
  717MOL0     H96748  -0.390   8.649   1.829  0.3533 -1.6283  0.9618
  717MOL0     H96749  -0.275   8.856   1.753 -2.1367 -0.4366  1.3152
  717MOL0     H96750  -0.109   8.786   1.802  0.3326 -0.5040 -1.6476
  717MOL0     H96751  -0.168   8.964   1.933 -0.9109  0.3253 -0.8767
  717MOL0     H96752  -0.161   8.825   2.034  1.1736 -0.4033 -1.2991
  717MOL0     H96753  -0.390   8.799   2.055  3.5680 -0.0517  1.9110
  717MOL0     H96754  -0.431   8.892   1.911  0.2659 -1.4518  0.1577
  717MOL0     H96755  -0.389   9.123   1.851 -1.5432 -0.5440 -2.0788
  717MOL0     H96756  -0.580   9.400   1.744  1.8723  0.6955 -1.0162
  717MOL0     H96757  -0.470   9.267   1.683 -1.7911 -3.8294  0.6731
  717MOL0     H96758  -0.646   9.275   1.654 -1.5853  3.0379 -0.2430
  717MOL0     H96759  -1.091   9.377   1.806  1.2380  1.2753 -0.6253
  717MOL0     H96760  -1.263   9.551   1.805  0.0187 -1.3000  0.5993
  717MOL0     H96761  -1.261   9.861   2.097 -0.1123 -2.3024  2.0972
  717MOL0     H96762  -1.316   9.875   1.925  1.9967 -2.0977  0.0740
  717MOL0     H96763  -1.472   9.841   2.186  3.2183  0.1579 -0.7188
  717MOL0     H96764  -1.456   9.991   2.115  0.7546 -0.7856  3.6525
  717MOL0     H96765  -1.612   9.758   1.978 -5.4485  1.1284  0.2408
  717MOL0     H96766  -1.580   9.907   1.898 -1.8335  1.2227  0.0882
  717MOL0     H96767  -1.751   9.850   2.152 -1.4514  0.0772  0.0416
  717MOL0     H96768  -1.714  10.011   2.085 -1.0580 -0.4032  0.3576
  717MOL0     H96769  -1.841   9.761   1.943 -1.4839  0.2660 -0.2397
  717MOL0     H96770  -1.814   9.907   1.866 -2.4209 -3.6111 -1.8618
  717MOL0     H96771  -2.049   9.871   1.935  2.6481 -2.2289 -0.7917
  717MOL0     H96772  -1.997   9.851   2.095  1.3486  2.7469  2.2137
  717MOL0     H96773  -1.955  10.108   1.950 -1.5999  3.3781  1.2069
  717MOL0     H96774  -1.959  10.079   2.122 -0.7380  0.9924  0.2197
  717MOL0     H96775  -2.159  10.182   2.097 -3.3782  1.1737 -2.6446
  717MOL0     H96776  -2.215  10.014   2.090 -2.2910  0.9973 -2.2585
  717MOL0     H96777  -1.134   9.667   2.203 -3.3152  1.5746 -0.9917
  717MOL0     H96778  -0.949   9.507   2.176  2.0960 -3.2443 -2.2515
  717MOL0     H96779  -0.786   9.170   2.146 -0.3492 -1.5668 -1.7976
  717MOL0     H96780  -0.592   9.055   2.216  1.0264  1.3121  0.1583
  717MOL0     H96781   0.877   8.037   1.921  0.3298 -0.3645  0.0206
  717MOL0     H96782   1.067   7.916   1.869  2.5912 -2.9036  3.3134
  717MOL0     H96783   1.255   7.528   1.690  2.1805 -2.1122 -1.8834
  717MOL0     H96784   1.469   7.410   1.624  0.6266 -1.7760  0.2395
  717MOL0     H96785   1.679   7.268   1.949 -3.5646 -0.3083 -1.1750
  717MOL0     H96786   1.729   7.168   1.813 -1.3092 -1.5338  2.2412
  717MOL0     H96787   1.851   7.435   1.894  1.0816 -0.5708  1.4025
  717MOL0     H96788   1.942   7.326   1.782  1.2803 -0.8336  0.2486
  717MOL0     H96789   2.003   7.173   1.954  0.0683  0.4831 -3.9504
  717MOL0     H96790   1.895   7.265   2.069  0.8967 -0.3952  0.6324
  717MOL0     H96791   2.153   7.300   2.071  1.8195 -0.8745 -2.6405
  717MOL0     H96792   2.053   7.447   2.080 -0.5905  1.6943 -2.3191
  717MOL0     H96793   2.242   7.541   1.724 -1.5096 -0.8031 -0.4160
  717MOL0     H96794   1.639   7.525   1.987  0.4939 -2.4424 -1.3228
  717MOL0     H96795   1.460   7.691   2.022 -1.0151  5.2747 -4.3824
  718MOL0     O96796  10.523   2.298   6.389  1.0946 -0.3586 -0.2650
  718MOL0     C96797  10.547   2.275   6.271  0.1065 -0.1541 -0.3808
  718MOL0     O96798  10.570   2.372   6.177  0.8128 -0.2563  0.0963
  718MOL0     C96799  10.554   2.507   6.209  0.7574 -0.6836  0.9916
  718MOL0     C96800  10.434   2.549   6.273 -0.7992  0.0027  0.2543
  718MOL0     C96801  10.417   2.693   6.284  0.4251 -0.2714  0.3063
  718MOL0     C96802  10.522   2.783   6.264 -0.1534  0.5348 -0.4819
  718MOL0     O96803  10.514   2.915   6.298  0.0506 -0.1888 -0.2121
  718MOL0     C96804  10.395   2.960   6.368  0.3750 -0.3612  0.9472
  718MOL0     C96805  10.430   3.105   6.419  1.1603  0.6639 -0.5526
  718MOL0     C96806  10.469   3.103   6.568 -0.0547  1.3041 -0.8983
  718MOL0     C96807  10.620   3.069   6.577  0.2895  0.4241 -0.6902
  718MOL0     C96808  10.669   3.086   6.721 -0.0089  0.4358  0.3095
  718MOL0     C96809  10.819   3.092   6.725  0.1090  1.0862  1.1338
  718MOL0     C96810  10.855   3.098   6.863 -0.6567  0.0864 -0.4824
  718MOL0     C96811  10.987   3.169   6.907  0.0993  0.6087  0.9508
  718MOL0     N96812  11.105   3.120   6.836  0.0779 -0.3416  0.1662
  718MOL0     C96813  11.170   2.992   6.822 -0.6129 -0.7997  0.1471
  718MOL0     C96814  11.264   3.019   6.733 -0.5185  0.7220 -0.0980
  718MOL0     C96815  11.364   2.927   6.664 -0.6968  0.5226 -1.0133
  718MOL0     C96816  11.292   2.825   6.572 -0.1203  0.1832 -0.1811
  718MOL0     C96817  11.365   2.782   6.437  0.3280 -0.0699 -0.0069
  718MOL0     C96818  11.521   2.766   6.446 -0.9119  0.3656 -0.1504
  718MOL0     O96819  11.561   2.717   6.311 -0.4592 -0.3777 -0.0863
  718MOL0     C96820  11.664   2.625   6.284  0.5331 -0.7864 -0.0905
  718MOL0     C96821  11.749   2.571   6.383  0.3627 -0.8256  0.2804
  718MOL0     C96822  11.842   2.474   6.351 -0.5912  0.2911 -0.0173
  718MOL0     C96823  11.933   2.415   6.457 -0.2764  1.1470 -0.7263
  718MOL0     C96824  11.850   2.426   6.220  0.2485 -0.7295  0.7221
  718MOL0     C96825  11.936   2.317   6.163  1.0094 -0.6328 -0.1250
  718MOL0     O96826  11.883   2.222   6.084 -0.9066 -0.0065  0.3225
  718MOL0     C96827  11.971   2.120   6.042 -0.2013  0.0018 -1.3151
  718MOL0     C96828  12.081   2.133   5.967  0.1688  0.1744  0.7052
  718MOL0     C96829  12.179   2.034   5.953  0.9173  0.2616  0.0526
  718MOL0     C96830  12.156   1.910   6.016  0.1286  1.4030 -0.6876
  718MOL0     O96831  12.226   1.797   5.988  1.2538 -0.4862  0.2457
  718MOL0     C96832  12.234   1.777   5.846 -0.0736 -0.9269  1.0378
  718MOL0     C96833  12.316   1.649   5.823 -0.7460  0.5283 -0.2959
  718MOL0     C96834  12.461   1.664   5.834 -0.2180  0.1682 -1.2373
  718MOL0     C96835  12.511   1.630   5.981  0.2094 -0.2956 -0.5133
  718MOL0     C96836  12.656   1.613   5.975  0.4428 -0.0035 -0.4750
  718MOL0     C96837  12.722   1.575   6.110  0.6198 -0.7933  0.1737
  718MOL0     C96838  12.665   1.462   6.188 -0.5894 -0.6162 -1.0904
  718MOL0     C96839  12.749   1.457   6.320 -1.0953 -0.6149  0.5481
  718MOL0    Cl96840  12.701   1.324   6.428 -0.0074 -0.5170 -0.0751
  718MOL0     C96841  12.047   1.892   6.105 -0.7488 -0.7144  0.7034
  718MOL0     C96842  11.955   2.004   6.111 -0.1269  0.8075  0.2994
  718MOL0     O96843  12.054   2.329   6.202 -0.3416  0.0251  0.2069
  718MOL0     C96844  11.765   2.485   6.124 -0.2691  0.8869 -0.7467
  718MOL0     C96845  11.680   2.588   6.159 -0.9701  0.1389 -0.7090
  718MOL0     N96846  11.265   3.146   6.701  0.1308  0.1049 -0.5593
  718MOL0     N96847  11.164   3.210   6.756 -0.0473  0.1855 -0.5421
  718MOL0     C96848  10.642   2.733   6.208  0.4786  0.0263  0.4649
  718MOL0     C96849  10.657   2.599   6.189  0.2659 -0.7781 -1.4302
  718MOL0     C96850  10.565   2.136   6.231 -0.3565 -0.4889 -0.5810
  718MOL0     C96851  10.612   2.112   6.104 -0.1762  0.2577  0.6409
  718MOL0     C96852  10.631   1.984   6.057 -0.0643  0.5352  0.0036
  718MOL0     C96853  10.619   1.872   6.142  0.9796  0.0179 -0.0313
  718MOL0     O96854  10.628   1.749   6.073  0.3025  0.5009  0.2634
  718MOL0     C96855  10.606   1.632   6.157  0.4304  0.2218 -0.1063
  718MOL0     C96856  10.630   1.512   6.069  0.5909  0.5394  0.5294
  718MOL0     C96857  10.744   1.502   5.968 -0.7082 -0.9537  0.2116
  718MOL0     C96858  10.880   1.480   6.031  0.2076 -0.3946 -0.0133
  718MOL0     C96859  10.954   1.590   6.077 -0.1942  0.5995 -0.2967
  718MOL0     C96860  11.028   1.678   6.099  0.0833  1.0669 -0.5923
  718MOL0     C96861  10.596   1.899   6.275 -0.5444 -0.0468  0.7352
  718MOL0     C96862  10.556   2.029   6.316  0.4229 -1.1687 -1.2610
  718MOL0     H96863  10.340   2.499   6.290 -1.5270  2.4596  5.4050
  718MOL0     H96864  10.324   2.717   6.336 -0.1867  1.8627 -1.5642
  718MOL0     H96865  10.307   2.953   6.304 -0.1455  3.3879  1.0548
  718MOL0     H96866  10.374   2.917   6.466 -2.4642  3.6298  2.3546
  718MOL0     H96867  10.512   3.140   6.356  4.0980 -3.4377  0.5407
  718MOL0     H96868  10.341   3.167   6.403  0.4159 -0.0870  0.4859
  718MOL0     H96869  10.458   3.202   6.613  1.5602  2.8953 -3.7095
  718MOL0     H96870  10.409   3.032   6.624  3.7341 -0.6233  1.0974
  718MOL0     H96871  10.634   2.967   6.541 -1.2766  0.3837 -1.2388
  718MOL0     H96872  10.679   3.139   6.517  4.2264 -1.2889  0.8241
  718MOL0     H96873  10.623   3.181   6.752  0.2665  0.6342  0.1136
  718MOL0     H96874  10.642   3.010   6.794 -1.8778  2.6540  2.0945
  718MOL0     H96875  10.853   3.006   6.666  1.5948  0.8516  2.2583
  718MOL0     H96876  10.850   3.190   6.685 -0.2039  1.3209  1.4643
  718MOL0     H96877  10.776   3.140   6.927 -0.5754  1.0455 -0.9880
  718MOL0     H96878  10.856   2.991   6.887  0.5647  0.4371  1.2902
  718MOL0     H96879  10.998   3.142   7.012 -0.9048 -2.6925  0.3312
  718MOL0     H96880  10.980   3.278   6.897  2.9998  1.0036  2.2960
  718MOL0     H96881  11.141   2.890   6.842  1.1541 -1.9030 -2.4157
  718MOL0     H96882  11.429   2.989   6.601  0.8198  1.0920  1.0168
  718MOL0     H96883  11.424   2.874   6.739 -3.4398  0.8973  1.6273
  718MOL0     H96884  11.192   2.863   6.551 -0.4788 -1.3423 -1.4231
  718MOL0     H96885  11.279   2.731   6.627 -0.1439  0.7016  0.7129
  718MOL0     H96886  11.348   2.856   6.359  0.8093  1.2289  1.0981
  718MOL0     H96887  11.330   2.682   6.407 -2.1185  0.3432  1.2105
  718MOL0     H96888  11.538   2.686   6.518 -1.0468 -0.0295 -0.5533
  718MOL0     H96889  11.577   2.859   6.464  2.1378 -1.2795 -0.3767
  718MOL0     H96890  11.745   2.602   6.487  2.6398 -0.5186  0.3264
  718MOL0     H96891  12.034   2.425   6.417 -0.6228  1.4177 -1.5717
  718MOL0     H96892  11.926   2.479   6.546 -0.1858 -3.0403  2.5769
  718MOL0     H96893  11.905   2.312   6.480 -0.7995  2.1419  4.2892
  718MOL0     H96894  12.106   2.228   5.920 -2.7002  2.6490  3.7177
  718MOL0     H96895  12.266   2.057   5.892  1.1418 -0.1604  0.2089
  718MOL0     H96896  12.138   1.774   5.794 -0.4729  0.4802  1.6346
  718MOL0     H96897  12.285   1.865   5.805 -1.7598 -0.0233  0.7854
  718MOL0     H96898  12.286   1.565   5.886  1.8038 -0.7437 -0.6651
  718MOL0     H96899  12.288   1.615   5.723 -1.6419 -1.2656  0.5167
  718MOL0     H96900  12.496   1.763   5.803 -1.1063 -0.0561 -3.0739
  718MOL0     H96901  12.510   1.596   5.764  1.3431  2.4450 -2.4895
  718MOL0     H96902  12.495   1.713   6.050 -1.4303 -1.7839  0.9733
  718MOL0     H96903  12.458   1.547   6.029  1.3069 -0.2213  0.9246
  718MOL0     H96904  12.707   1.698   5.928  0.7197  0.0165 -0.1446
  718MOL0     H96905  12.680   1.532   5.906  4.2486 -0.4421  1.1215
  718MOL0     H96906  12.816   1.527   6.078 -1.0984 -6.3080  2.2216
  718MOL0     H96907  12.746   1.669   6.161  4.1901  0.1643 -2.8073
  718MOL0     H96908  12.683   1.374   6.126  1.8372 -1.3555  0.5307
  718MOL0     H96909  12.557   1.476   6.199 -0.5407  0.0742 -1.4383
  718MOL0     H96910  12.751   1.554   6.371 -1.5529 -1.1659  1.6668
  718MOL0     H96911  12.853   1.436   6.294 -0.0644  0.9057  3.0965
  718MOL0     H96912  12.025   1.800   6.159 -0.9377 -1.5764 -0.7900
  718MOL0     H96913  11.871   2.011   6.179  0.8771 -3.4049  2.3190
  718MOL0     H96914  11.769   2.448   6.022 -1.6949 -2.3750  0.2473
  718MOL0     H96915  11.614   2.631   6.084  0.7994  1.0453 -1.8296
  718MOL0     H96916  10.734   2.790   6.200  0.6015 -0.4020 -1.7907
  718MOL0     H96917  10.754   2.568   6.151  0.6680  0.1305 -1.1662
  718MOL0     H96918  10.622   2.190   6.029 -2.8493 -2.0837 -2.3961
  718MOL0     H96919  10.655   1.961   5.954  0.0516  2.9349 -0.5674
  718MOL0     H96920  10.689   1.637   6.228 -0.6689 -0.0248  1.2331
  718MOL0     H96921  10.508   1.627   6.207  0.2640  1.9148 -0.1977
  718MOL0     H96922  10.536   1.500   6.013  1.0536  0.5567 -0.2630
  718MOL0     H96923  10.639   1.424   6.133 -3.3789 -0.9362 -0.5977
  718MOL0     H96924  10.757   1.598   5.917  2.7005 -0.5668  1.5556
  718MOL0     H96925  10.727   1.413   5.907 -0.5157 -0.3522 -0.7424
  718MOL0     H96926  10.949   1.429   5.964  0.3108 -2.5501  1.6059
  718MOL0     H96927  10.870   1.429   6.128 -0.6866  1.4790  0.9269
  718MOL0     H96928  11.089   1.766   6.102 -0.6252  1.5388  0.2143
  718MOL0     H96929  10.584   1.820   6.347 -0.4386 -0.2207  0.5640
  718MOL0     H96930  10.528   2.040   6.420  0.6443 -1.9246 -1.1126
  719MOL0     O96931   0.438   3.316  10.659 -0.6972 -0.8379 -0.0935
  719MOL0     C96932   0.405   3.196  10.640  0.3276 -0.1915  0.0979
  719MOL0     O96933   0.488   3.098  10.613 -1.0193  0.2864  0.2410
  719MOL0     C96934   0.603   3.114  10.546 -0.1890  0.0803 -0.1406
  719MOL0     C96935   0.713   3.170  10.624  0.7003  0.7555 -0.2137
  719MOL0     C96936   0.843   3.174  10.570 -1.0756  0.4043  0.3065
  719MOL0     C96937   0.860   3.135  10.430  0.2670  0.0650 -1.3786
  719MOL0     O96938   0.985   3.150  10.375 -0.5316 -0.2472  0.1793
  719MOL0     C96939   1.015   3.290  10.366 -0.5501 -0.4333 -0.4625
  719MOL0     C96940   1.162   3.311  10.310  0.2849  0.0426  0.2225
  719MOL0     C96941   1.281   3.250  10.390  0.1140  0.5644  0.5579
  719MOL0     C96942   1.406   3.244  10.303 -0.1396  0.5143  0.6071
  719MOL0     C96943   1.533   3.225  10.400 -0.0629  0.7036  0.1401
  719MOL0     C96944   1.626   3.119  10.338 -0.3587  0.3178 -0.6636
  719MOL0     C96945   1.769   3.112  10.388  0.6878  0.5561  0.1705
  719MOL0     C96946   1.879   3.179  10.300  0.5519 -0.0429  1.1509
  719MOL0     N96947   1.870   3.323  10.304  0.2760  0.1195  0.3089
  719MOL0     C96948   1.869   3.403  10.406 -0.2948 -0.1785 -0.0056
  719MOL0     C96949   1.862   3.532  10.358  0.8606 -0.1984 -0.0208
  719MOL0     C96950   1.838   3.651  10.441  0.7413 -0.6568  0.2994
  719MOL0     C96951   1.696   3.653  10.499 -0.2048  0.1264 -0.1346
  719MOL0     C96952   1.589   3.706  10.398 -0.5620 -0.2284  0.5709
  719MOL0     C96953   1.454   3.730  10.453  0.2105  0.2286  1.1750
  719MOL0     O96954   1.393   3.612  10.517 -0.1585  0.0261  0.3658
  719MOL0     C96955   1.287   3.623  10.602 -0.1541  0.2413  1.2205
  719MOL0     C96956   1.204   3.732  10.590 -0.6888 -0.0593  0.1323
  719MOL0     C96957   1.079   3.732  10.649  0.0190  0.2148  0.6438
  719MOL0     C96958   0.971   3.830  10.621 -0.1494 -0.6173  0.7531
  719MOL0     C96959   1.038   3.619  10.724 -0.2675  0.0452 -0.8331
  719MOL0     C96960   0.895   3.578  10.773  0.7646 -0.7366  0.3857
  719MOL0     O96961   0.899   3.514  10.890 -0.0194  0.0574  0.1694
  719MOL0     C96962   0.798   3.439  10.947 -0.2679 -0.5526 -0.3981
  719MOL0     C96963   0.677   3.405  10.885  0.2092 -0.7189  0.2377
  719MOL0     C96964   0.592   3.320  10.954  0.7730 -0.5530 -0.1533
  719MOL0     C96965   0.619   3.277  11.081  0.3472  0.8718 -1.0559
  719MOL0     O96966   0.553   3.178  11.158 -0.3152 -0.1040  0.5166
  719MOL0     C96967   0.411   3.187  11.141  0.9552 -1.1683 -1.4128
  719MOL0     C96968   0.334   3.075  11.206 -0.0550 -0.5220  0.2466
  719MOL0     C96969   0.187   3.090  11.177 -0.1329 -0.7013  0.3854
  719MOL0     C96970   0.108   2.977  11.237  0.4963 -0.2690 -0.3549
  719MOL0     C96971  -0.036   3.012  11.238 -0.5856  1.0607  0.0517
  719MOL0     C96972  -0.120   2.891  11.263 -0.3230 -0.1196  0.5666
  719MOL0     C96973  -0.269   2.924  11.243  0.3897  0.2840 -0.0092
  719MOL0     C96974  -0.365   2.812  11.243 -0.6124  0.7249  0.4306
  719MOL0    Cl96975  -0.322   2.694  11.107 -0.5631 -0.0613  0.0236
  719MOL0     C96976   0.732   3.309  11.136  1.1179  0.2148 -0.0236
  719MOL0     C96977   0.829   3.389  11.073  0.5763 -0.7287  0.1322
  719MOL0     O96978   0.795   3.594  10.701  0.0861  0.1853 -0.1859
  719MOL0     C96979   1.125   3.513  10.729  0.2708 -0.0851  0.0092
  719MOL0     C96980   1.249   3.520  10.671 -0.8540  0.5333  0.4229
  719MOL0     N96981   1.837   3.524  10.220 -0.0637  0.1716  0.4008
  719MOL0     N96982   1.838   3.396  10.187 -0.3964  0.3986  0.0020
  719MOL0     C96983   0.755   3.092  10.355  0.3928 -0.1886  0.2431
  719MOL0     C96984   0.630   3.073  10.414  0.2310 -0.0876  0.4629
  719MOL0     C96985   0.276   3.153  10.692 -0.5453 -0.3906 -0.2428
  719MOL0     C96986   0.237   3.021  10.680 -0.0217  0.1153  0.0499
  719MOL0     C96987   0.132   2.966  10.744  1.1004  0.3479 -0.2969
  719MOL0     C96988   0.041   3.054  10.810 -0.0925 -0.0787  0.2822
  719MOL0     O96989  -0.083   3.015  10.858  0.8690 -0.3334 -0.9240
  719MOL0     C96990  -0.118   2.869  10.874  0.3517  1.4966 -0.5015
  719MOL0     C96991  -0.188   2.815  10.745 -0.2038  0.0548 -1.0192
  719MOL0     C96992  -0.221   2.654  10.739 -1.1768 -0.7762 -0.2707
  719MOL0     C96993  -0.292   2.603  10.613  0.1582  0.4315  0.2987
  719MOL0     C96994  -0.403   2.697  10.592  0.0168 -0.7604  0.4091
  719MOL0     C96995  -0.495   2.766  10.554  0.1142  0.0476 -0.2988
  719MOL0     C96996   0.079   3.185  10.828 -0.2342 -0.0250 -0.4703
  719MOL0     C96997   0.197   3.234  10.774  0.0990  0.4102  0.4770
  719MOL0     H96998   0.674   3.212  10.716 -2.6541  0.2918 -1.2888
  719MOL0     H96999   0.922   3.220  10.629 -0.1436  1.0888 -1.3887
  719MOL0     H97000   0.938   3.340  10.306 -0.3211  1.4377  0.7204
  719MOL0     H97001   1.012   3.327  10.469 -2.1729  0.5451 -0.8382
  719MOL0     H97002   1.148   3.267  10.211 -1.0690 -0.0621  0.4377
  719MOL0     H97003   1.190   3.414  10.286 -0.1219 -0.5305 -3.3532
  719MOL0     H97004   1.306   3.304  10.482  0.7607  1.9882 -0.4038
  719MOL0     H97005   1.260   3.148  10.423 -0.6312  1.3034  2.4923
  719MOL0     H97006   1.396   3.179  10.215  5.2538  0.6488 -0.4615
  719MOL0     H97007   1.427   3.342  10.258  0.9085 -0.8923 -2.2158
  719MOL0     H97008   1.578   3.323  10.419 -0.1508  0.7100  0.3144
  719MOL0     H97009   1.492   3.179  10.490 -2.1308 -1.9700 -1.9857
  719MOL0     H97010   1.583   3.019  10.330  0.0928 -0.1546  1.9170
  719MOL0     H97011   1.642   3.140  10.232  2.2820 -3.4291 -1.2134
  719MOL0     H97012   1.774   3.166  10.484  4.4084 -1.1776  1.1720
  719MOL0     H97013   1.794   3.007  10.404 -0.4289 -0.0868 -2.0257
  719MOL0     H97014   1.871   3.154  10.193 -0.7205  0.0952  1.1946
  719MOL0     H97015   1.977   3.144  10.331  0.7087 -0.9596 -0.2680
  719MOL0     H97016   1.883   3.367  10.507  3.7968 -0.4109 -0.5060
  719MOL0     H97017   1.910   3.636  10.522  0.1722 -0.9420  0.7645
  719MOL0     H97018   1.861   3.737  10.378  0.7798 -1.5261 -0.9004
  719MOL0     H97019   1.698   3.715  10.589 -0.3153  0.5441 -0.4163
  719MOL0     H97020   1.667   3.553  10.532  1.5007 -0.1484  0.6572
  719MOL0     H97021   1.584   3.651  10.304  2.1017  2.8089 -1.5876
  719MOL0     H97022   1.622   3.804  10.361  2.0266 -2.2263 -2.9466
  719MOL0     H97023   1.390   3.762  10.370  0.5147 -1.9057  0.0582
  719MOL0     H97024   1.453   3.801  10.536  0.6328  1.4013  0.2262
  719MOL0     H97025   1.224   3.818  10.528  2.2658 -0.6400  0.1490
  719MOL0     H97026   0.930   3.879  10.709  0.1319  1.3973 -0.1826
  719MOL0     H97027   1.000   3.905  10.547 -2.9439 -1.5599 -1.4505
  719MOL0     H97028   0.884   3.784  10.573 -1.3530  1.9758  0.3126
  719MOL0     H97029   0.634   3.439  10.791  0.5428  5.6288  1.8983
  719MOL0     H97030   0.501   3.285  10.908 -0.7161 -0.0273  2.2247
  719MOL0     H97031   0.369   3.287  11.157 -0.2107 -2.0695  2.0964
  719MOL0     H97032   0.384   3.183  11.036  2.5234 -2.8403 -1.8043
  719MOL0     H97033   0.374   2.987  11.155  1.2044  0.8493 -1.2848
  719MOL0     H97034   0.353   3.066  11.313 -2.6564 -0.0368  0.8017
  719MOL0     H97035   0.175   3.092  11.068  0.4387  0.5261  0.3314
  719MOL0     H97036   0.147   3.175  11.231 -0.7728  0.1779 -1.3836
  719MOL0     H97037   0.124   2.881  11.187 -0.2635 -0.0355 -1.0760
  719MOL0     H97038   0.133   2.961  11.342 -0.5684 -1.4922 -0.2664
  719MOL0     H97039  -0.059   3.044  11.136  1.7816 -0.4270 -1.0276
  719MOL0     H97040  -0.045   3.083  11.321 -0.9731  0.5654  0.4371
  719MOL0     H97041  -0.088   2.821  11.185  0.0109  0.3195  0.3055
  719MOL0     H97042  -0.115   2.846  11.363 -2.4297 -1.3359  0.1888
  719MOL0     H97043  -0.286   2.990  11.157  1.0693 -1.0006 -1.1654
  719MOL0     H97044  -0.291   2.987  11.329 -0.2414 -0.1314  0.1380
  719MOL0     H97045  -0.470   2.840  11.230 -0.8553  0.5053  1.8282
  719MOL0     H97046  -0.354   2.769  11.342 -1.7996 -1.5224 -0.3464
  719MOL0     H97047   0.759   3.258  11.228 -1.3059 -1.2259 -0.0279
  719MOL0     H97048   0.916   3.415  11.133 -0.2782  1.3291  0.5471
  719MOL0     H97049   1.107   3.418  10.779 -0.9808 -0.1933 -0.5987
  719MOL0     H97050   1.322   3.439  10.674 -3.1006 -1.6281  0.1348
  719MOL0     H97051   0.770   3.061  10.252 -0.7570 -0.3647  0.1167
  719MOL0     H97052   0.550   3.033  10.354  0.5369  2.6265 -1.9795
  719MOL0     H97053   0.307   2.952  10.634  0.2356 -1.8335  3.0952
  719MOL0     H97054   0.114   2.864  10.712  1.8046  0.4525 -1.0715
  719MOL0     H97055  -0.035   2.802  10.898 -1.1678 -1.2459 -2.3362
  719MOL0     H97056  -0.178   2.859  10.965 -0.1660  0.1567 -0.9666
  719MOL0     H97057  -0.124   2.843  10.660 -1.2236  1.5443 -1.3270
  719MOL0     H97058  -0.279   2.875  10.735  0.6887  1.5424 -0.6280
  719MOL0     H97059  -0.292   2.640  10.821 -2.8326 -1.2530 -1.7331
  719MOL0     H97060  -0.129   2.601  10.766 -1.8216 -1.3743  0.8496
  719MOL0     H97061  -0.328   2.501  10.633 -2.6765  1.6613  2.1008
  719MOL0     H97062  -0.229   2.618  10.525  0.4989  1.5344  0.7194
  719MOL0     H97063  -0.576   2.830  10.523  1.6394  2.7829  0.9779
  719MOL0     H97064   0.027   3.262  10.884 -0.9190 -0.7973 -0.0173
  719MOL0     H97065   0.217   3.340  10.792 -0.5105  0.2176  2.6091
  720MOL0     O97066   7.281   9.107   9.520 -0.5003  0.3285 -0.4882
  720MOL0     C97067   7.361   9.032   9.569  0.5533  0.1406 -0.7760
  720MOL0     O97068   7.356   8.979   9.701 -0.3161  0.7190 -0.2117
  720MOL0     C97069   7.250   9.005   9.783  0.7682 -0.2310  0.0565
  720MOL0     C97070   7.210   8.899   9.871  0.4856  0.1810  0.3475
  720MOL0     C97071   7.101   8.914   9.965 -0.4209 -0.4754  0.6064
  720MOL0     C97072   7.034   9.037   9.971  0.3738 -0.7949 -1.1768
  720MOL0     O97073   6.911   9.041  10.044  0.5763 -0.1791 -0.2090
  720MOL0     C97074   6.877   8.941  10.152  0.0985 -0.3218  0.3031
  720MOL0     C97075   6.815   9.026  10.261 -0.1518  0.2709  1.0622
  720MOL0     C97076   6.709   8.939  10.344 -0.2039  0.2693 -0.9844
  720MOL0     C97077   6.776   8.807  10.409  0.5545 -0.3596 -0.1313
  720MOL0     C97078   6.678   8.715  10.489 -0.0516 -0.1535 -0.3552
  720MOL0     C97079   6.750   8.621  10.594 -0.3384 -0.4188  0.1589
  720MOL0     C97080   6.848   8.686  10.684  0.0222  0.3646 -0.2241
  720MOL0     C97081   6.874   8.607  10.813 -0.2612  0.9476  0.4476
  720MOL0     N97082   6.918   8.466  10.808  0.4823  0.0470 -0.5659
  720MOL0     C97083   7.048   8.416  10.810  0.5267 -0.6395 -0.3896
  720MOL0     C97084   7.033   8.287  10.810  0.2556  0.5761  0.2929
  720MOL0     C97085   7.146   8.188  10.806  0.1102 -1.1834  0.9311
  720MOL0     C97086   7.110   8.084  10.696 -0.7441 -0.8391 -0.2913
  720MOL0     C97087   7.098   8.136  10.557  0.1616  0.5721 -0.6937
  720MOL0     C97088   7.236   8.142  10.506  0.0192 -0.1922  0.7435
  720MOL0     O97089   7.236   8.192  10.373  0.0377  0.1769 -0.3631
  720MOL0     C97090   7.244   8.334  10.361 -0.4323  0.3263  0.4469
  720MOL0     C97091   7.238   8.428  10.465  0.9832  0.2068  0.6177
  720MOL0     C97092   7.264   8.568  10.439 -0.5601  0.0898  0.2958
  720MOL0     C97093   7.271   8.648  10.563 -0.1593 -0.3956 -0.5768
  720MOL0     C97094   7.292   8.611  10.309  0.5137 -0.1810 -0.0289
  720MOL0     C97095   7.316   8.750  10.283 -0.7850 -0.7774 -0.1649
  720MOL0     O97096   7.426   8.772  10.189  0.5260  0.9473  0.4185
  720MOL0     C97097   7.460   8.907  10.179 -0.2521 -0.8193 -0.6351
  720MOL0     C97098   7.478   8.981  10.291 -0.3395 -0.5424 -0.4916
  720MOL0     C97099   7.503   9.122  10.287  0.5991  0.4361 -0.4695
  720MOL0     C97100   7.526   9.183  10.170 -0.4382 -0.2164  1.2879
  720MOL0     O97101   7.553   9.321  10.169 -0.2238  0.0198 -0.1253
  720MOL0     C97102   7.593   9.384  10.047  0.4708  0.1030 -0.6525
  720MOL0     C97103   7.469   9.421   9.964  0.3342 -0.0668  0.2473
  720MOL0     C97104   7.389   9.553  10.018  0.1918  1.2962 -0.3585
  720MOL0     C97105   7.262   9.586   9.947  1.2483  0.5286  1.0978
  720MOL0     C97106   7.141   9.496   9.991 -0.3739  0.2882  1.1394
  720MOL0     C97107   7.123   9.518  10.139 -0.3884  0.3452 -0.0650
  720MOL0     C97108   7.125   9.392  10.229 -0.3002  0.5267  0.8334
  720MOL0     C97109   7.180   9.400  10.373  0.5193  0.2346 -0.2868
  720MOL0    Cl97110   7.077   9.522  10.451  0.3643  0.6138 -0.0104
  720MOL0     C97111   7.519   9.111  10.046 -0.3454  1.2368  0.1774
  720MOL0     C97112   7.482   8.977  10.059 -0.0754  0.1096  0.3772
  720MOL0     O97113   7.236   8.837  10.326  0.5275  0.7716  0.2317
  720MOL0     C97114   7.289   8.523  10.208  0.3235  0.3281  0.8819
  720MOL0     C97115   7.282   8.387  10.240 -0.0418  0.2198  0.1857
  720MOL0     N97116   6.904   8.254  10.814 -0.0091  0.5759  0.1101
  720MOL0     N97117   6.832   8.358  10.803  0.5995 -0.3904  1.1531
  720MOL0     C97118   7.072   9.141   9.888 -1.2227 -0.0125 -0.0753
  720MOL0     C97119   7.187   9.132   9.805  0.1328 -0.7900  0.9538
  720MOL0     C97120   7.462   8.978   9.478 -1.1526 -0.8641 -0.3358
  720MOL0     C97121   7.552   8.879   9.520  0.1163  0.8711 -0.2333
  720MOL0     C97122   7.651   8.818   9.436 -1.0153 -0.6063  0.4435
  720MOL0     C97123   7.676   8.866   9.310 -0.2118 -0.5896  0.2535
  720MOL0     O97124   7.794   8.823   9.249  0.5522  0.0492 -0.3028
  720MOL0     C97125   7.822   8.860   9.116 -0.5744  0.9780  0.6388
  720MOL0     C97126   7.976   8.858   9.076 -0.8935 -0.5603  0.7281
  720MOL0     C97127   7.982   8.908   8.930  0.9228 -0.0844 -0.5320
  720MOL0     C97128   8.115   8.875   8.857 -0.1832 -0.6251 -0.2378
  720MOL0     C97129   8.130   8.733   8.817 -0.5222  0.0566 -0.9280
  720MOL0     C97130   8.138   8.617   8.794  0.2293 -0.3289  0.0737
  720MOL0     C97131   7.594   8.973   9.260  0.6501 -0.4884 -0.3918
  720MOL0     C97132   7.483   9.022   9.346  0.1296 -1.1226 -0.4214
  720MOL0     H97133   7.255   8.800   9.862  0.0489  0.1442 -2.3389
  720MOL0     H97134   7.067   8.833  10.029 -1.5917  0.0168  0.6511
  720MOL0     H97135   6.807   8.873  10.103 -2.0837  1.3911  0.9083
  720MOL0     H97136   6.962   8.887  10.195  0.0587 -0.9474 -0.3795
  720MOL0     H97137   6.887   9.071  10.329 -1.1994 -1.4456  3.4437
  720MOL0     H97138   6.776   9.113  10.207  1.1066 -0.0385 -0.4200
  720MOL0     H97139   6.664   8.985  10.433 -0.5666 -0.7962 -0.6012
  720MOL0     H97140   6.628   8.895  10.287 -0.8559  1.1663 -0.7779
  720MOL0     H97141   6.814   8.737  10.333 -0.4011 -2.1387  0.9673
  720MOL0     H97142   6.860   8.833  10.473  1.5529 -3.6352  0.1025
  720MOL0     H97143   6.620   8.784  10.552  1.7923 -0.9876  2.4260
  720MOL0     H97144   6.603   8.657  10.433  1.9921 -2.3743 -0.9486
  720MOL0     H97145   6.675   8.565  10.650 -0.1686  1.1432  2.0417
  720MOL0     H97146   6.813   8.556  10.531  0.5489  0.0403  0.5485
  720MOL0     H97147   6.940   8.704  10.628 -1.1037  8.7771 -0.5486
  720MOL0     H97148   6.824   8.791  10.704 -0.7675  0.0785  0.4194
  720MOL0     H97149   6.778   8.603  10.865  0.6093 -0.1785  2.0473
  720MOL0     H97150   6.942   8.662  10.880  2.4705  0.9908 -2.1190
  720MOL0     H97151   7.144   8.467  10.808  0.1140  0.8826  4.8069
  720MOL0     H97152   7.240   8.240  10.787 -1.1726  0.4488 -1.6100
  720MOL0     H97153   7.150   8.145  10.906 -1.7100 -1.8595  0.7525
  720MOL0     H97154   7.014   8.033  10.711 -2.7486  1.7027 -3.2555
  720MOL0     H97155   7.187   8.007  10.705 -1.7590 -1.9739 -1.0483
  720MOL0     H97156   7.047   8.232  10.544  2.0485  2.0133  1.6834
  720MOL0     H97157   7.030   8.065  10.508 -1.5264  3.0037 -2.0787
  720MOL0     H97158   7.285   8.045  10.493 -1.3744 -0.5369 -3.1824
  720MOL0     H97159   7.304   8.203  10.566 -3.8979  4.8314  0.7891
  720MOL0     H97160   7.229   8.392  10.568  2.2238 -0.1198  0.6339
  720MOL0     H97161   7.173   8.656  10.612 -0.9293  0.2193 -2.1487
  720MOL0     H97162   7.333   8.587  10.629  0.1178  0.7697  0.2766
  720MOL0     H97163   7.320   8.744  10.542 -0.4548  0.1830  1.2653
  720MOL0     H97164   7.469   8.942  10.392  0.3678  0.5551  0.0217
  720MOL0     H97165   7.521   9.166  10.385 -1.5309 -1.3985  0.8541
  720MOL0     H97166   7.643   9.479  10.070 -0.5662  1.2552 -2.8980
  720MOL0     H97167   7.655   9.327   9.978 -0.6235 -1.3351 -0.4990
  720MOL0     H97168   7.504   9.450   9.865  2.6615 -1.6919  0.5033
  720MOL0     H97169   7.405   9.332   9.956 -1.7330  1.4133 -0.5811
  720MOL0     H97170   7.456   9.639  10.005  0.9086  0.4150 -3.2173
  720MOL0     H97171   7.373   9.556  10.126 -1.0342 -0.1570 -0.4614
  720MOL0     H97172   7.238   9.691   9.965  0.7897  0.3293  1.6774
  720MOL0     H97173   7.270   9.585   9.838 -2.4127 -1.0312  0.6984
  720MOL0     H97174   7.168   9.393   9.967 -1.1463  0.3681 -0.1315
  720MOL0     H97175   7.056   9.532   9.932  0.5843  2.5403  1.0173
  720MOL0     H97176   7.190   9.593  10.182  0.6856  1.6209 -3.6186
  720MOL0     H97177   7.026   9.563  10.160 -0.1918  0.3568  0.8794
  720MOL0     H97178   7.187   9.317  10.179  0.2708  0.0365  2.2039
  720MOL0     H97179   7.031   9.341  10.208  0.8166 -0.5729 -1.9801
  720MOL0     H97180   7.289   9.407  10.370  1.0365 -4.5027  0.4182
  720MOL0     H97181   7.162   9.304  10.422 -0.7835  0.7816  0.3594
  720MOL0     H97182   7.559   9.146   9.952  1.7723 -1.3876 -0.0097
  720MOL0     H97183   7.472   8.924   9.965  0.8858  1.1910 -0.3520
  720MOL0     H97184   7.291   8.538  10.101 -1.3830 -4.1963  0.0020
  720MOL0     H97185   7.292   8.317  10.158 -2.4455 -1.2053  1.0042
  720MOL0     H97186   7.021   9.236   9.902 -0.5213  0.7272 -2.1553
  720MOL0     H97187   7.223   9.210   9.738  0.5496 -1.8377 -0.0906
  720MOL0     H97188   7.552   8.836   9.619 -1.8978  0.9471 -0.1519
  720MOL0     H97189   7.715   8.735   9.464  1.1887 -0.9178 -4.4789
  720MOL0     H97190   7.782   8.780   9.053  5.4017 -3.0114  1.0999
  720MOL0     H97191   7.790   8.960   9.085  1.3584  1.0301 -1.4188
  720MOL0     H97192   8.013   8.755   9.079 -2.6955 -1.3434 -1.0802
  720MOL0     H97193   8.023   8.926   9.147  0.4535 -1.2379  0.5073
  720MOL0     H97194   7.973   9.017   8.935 -1.9687 -0.2855 -0.1356
  720MOL0     H97195   7.910   8.851   8.872  0.1989 -1.1837  1.3408
  720MOL0     H97196   8.204   8.903   8.914 -0.1140 -0.0070 -0.6545
  720MOL0     H97197   8.113   8.931   8.764 -0.3531 -0.5602 -0.1951
  720MOL0     H97198   8.129   8.514   8.763 -1.1359 -0.5473  1.0983
  720MOL0     H97199   7.595   9.027   9.165 -1.8001  2.2252  0.9678
  720MOL0     H97200   7.421   9.090   9.289  1.0419 -0.7929 -1.0391
  721MOL0     O97201   7.742   7.891   9.812  0.1757  0.5296  0.5723
  721MOL0     C97202   7.682   7.794   9.854 -0.7652 -0.5665  0.1341
  721MOL0     O97203   7.560   7.793   9.899 -0.1284  0.7640 -0.1192
  721MOL0     C97204   7.470   7.891   9.869  0.9263  0.1040 -1.0154
  721MOL0     C97205   7.387   7.916   9.983  0.4459 -0.3149  0.0031
  721MOL0     C97206   7.289   8.008   9.976 -0.1039 -0.0422 -0.5345
  721MOL0     C97207   7.265   8.064   9.849  0.1935 -0.4551  0.3322
  721MOL0     O97208   7.149   8.140   9.835 -0.0046  0.6077  0.2799
  721MOL0     C97209   7.157   8.263   9.756 -0.6483  0.0979  0.0984
  721MOL0     C97210   7.101   8.388   9.823 -0.5552 -0.0856 -0.4868
  721MOL0     C97211   7.133   8.505   9.725 -0.5436 -0.6861 -0.4457
  721MOL0     C97212   7.049   8.514   9.591 -0.7345  0.0248  1.1281
  721MOL0     C97213   7.104   8.633   9.506  0.1317 -0.8292  0.1622
  721MOL0     C97214   7.024   8.636   9.376 -0.9469 -0.6758 -0.4815
  721MOL0     C97215   7.086   8.751   9.287 -1.0854 -0.7329  0.5044
  721MOL0     C97216   7.004   8.765   9.158 -0.0375 -0.1778  0.8170
  721MOL0     N97217   7.023   8.896   9.083 -0.1997 -0.6277  0.3215
  721MOL0     C97218   7.060   9.020   9.140 -0.6529 -0.8724  0.4173
  721MOL0     C97219   7.065   9.108   9.042  0.4347 -0.2435  0.8779
  721MOL0     C97220   7.090   9.254   9.050 -0.8996  0.2054 -0.2908
  721MOL0     C97221   7.147   9.314   8.915 -0.1788  0.7788  0.4117
  721MOL0     C97222   7.047   9.386   8.813  0.1674 -0.5703 -0.7295
  721MOL0     C97223   6.913   9.321   8.782  0.1124  0.4862  0.1417
  721MOL0     O97224   6.847   9.403   8.672  0.2776  0.4015  0.1337
  721MOL0     C97225   6.813   9.343   8.556  0.5575  0.3802 -0.5910
  721MOL0     C97226   6.861   9.226   8.496  0.2502  0.5055 -1.0245
  721MOL0     C97227   6.830   9.187   8.376 -1.0576 -0.0253  0.2523
  721MOL0     C97228   6.900   9.062   8.335  0.4778 -0.4953 -1.0899
  721MOL0     C97229   6.738   9.261   8.306  0.9704 -0.6266  0.2821
  721MOL0     C97230   6.717   9.241   8.165  0.2110  0.2164  1.2026
  721MOL0     O97231   6.826   9.262   8.087 -0.5942 -0.1592 -0.0990
  721MOL0     C97232   6.795   9.221   7.954 -0.2070  0.9809 -0.1557
  721MOL0     C97233   6.874   9.112   7.918  0.4081  0.8927  0.1718
  721MOL0     C97234   6.847   9.048   7.794  0.6455  0.1740 -0.1112
  721MOL0     C97235   6.765   9.098   7.702  0.5273 -0.0742 -0.8709
  721MOL0     O97236   6.759   9.042   7.580  0.8714  0.7858  0.4504
  721MOL0     C97237   6.626   9.000   7.540  0.6794  0.0103  0.2692
  721MOL0     C97238   6.653   8.908   7.419 -0.5284 -0.2575  0.1005
  721MOL0     C97239   6.541   8.877   7.325 -0.3305  0.4506 -0.1171
  721MOL0     C97240   6.587   8.846   7.183 -0.3109 -0.0054  0.9934
  721MOL0     C97241   6.460   8.841   7.096 -0.0559 -1.0479 -0.3599
  721MOL0     C97242   6.506   8.855   6.949  0.3279  0.2872 -0.7389
  721MOL0     C97243   6.392   8.859   6.850  0.3014 -0.7205 -0.0938
  721MOL0     C97244   6.413   8.977   6.754 -0.2089 -0.3844  0.1109
  721MOL0    Cl97245   6.550   8.961   6.636  0.1861  0.3343  0.3689
  721MOL0     C97246   6.697   9.219   7.736  1.1520 -0.4442  0.4543
  721MOL0     C97247   6.716   9.280   7.860  0.6098 -0.3745 -0.6688
  721MOL0     O97248   6.602   9.222   8.128 -0.3981  0.0148  0.8908
  721MOL0     C97249   6.693   9.383   8.361 -1.1258  0.4921  0.1197
  721MOL0     C97250   6.728   9.419   8.482  0.1947  0.2802  0.3435
  721MOL0     N97251   7.024   9.039   8.922  0.4851 -0.3914 -0.8097
  721MOL0     N97252   6.996   8.911   8.953  0.0416  0.1313 -0.0823
  721MOL0     C97253   7.337   8.045   9.737  0.7742 -0.9335 -0.6431
  721MOL0     C97254   7.441   7.954   9.753  0.1514  0.0456 -0.1263
  721MOL0     C97255   7.733   7.662   9.834  0.3078  0.6210 -0.6372
  721MOL0     C97256   7.668   7.541   9.874  0.7382 -0.2374  0.2700
  721MOL0     C97257   7.737   7.426   9.856  0.0691 -1.0823  0.3865
  721MOL0     C97258   7.863   7.421   9.797 -0.6534  0.4143  0.4435
  721MOL0     O97259   7.919   7.303   9.760 -0.2717 -0.0521  0.3705
  721MOL0     C97260   7.848   7.176   9.752  0.1998  0.0180 -0.6299
  721MOL0     C97261   7.935   7.100   9.656  0.4014 -0.4819 -0.3765
  721MOL0     C97262   7.862   6.974   9.600  0.9992 -0.7214 -0.8736
  721MOL0     C97263   7.937   6.932   9.475  0.1805  0.1646  0.4170
  721MOL0     C97264   7.891   6.809   9.405  0.3941  0.0443  0.1758
  721MOL0     C97265   7.836   6.710   9.350 -0.6243  0.8024 -0.0599
  721MOL0     C97266   7.930   7.525   9.761  1.6121 -0.4050  0.2309
  721MOL0     C97267   7.865   7.648   9.778 -0.0609  0.0565 -0.3352
  721MOL0     H97268   7.412   7.864  10.075  0.5980  2.3075  1.5483
  721MOL0     H97269   7.217   8.037  10.051  0.8203 -0.6892  0.6414
  721MOL0     H97270   7.255   8.288   9.715  0.5379 -0.5070  2.4165
  721MOL0     H97271   7.091   8.233   9.674 -3.5998 -3.6833  3.4548
  721MOL0     H97272   6.995   8.394   9.849  0.2151  0.3204  3.0378
  721MOL0     H97273   7.149   8.402   9.920 -2.6343 -1.9414  0.9033
  721MOL0     H97274   7.113   8.602   9.773 -0.4873 -1.1518  0.5388
  721MOL0     H97275   7.237   8.505   9.693 -0.5828 -0.2721 -0.5805
  721MOL0     H97276   7.074   8.423   9.535 -1.5022 -0.4744  1.5828
  721MOL0     H97277   6.942   8.522   9.611 -1.4197 -2.0045 -1.2126
  721MOL0     H97278   7.084   8.730   9.553  0.7765 -0.4229 -0.3876
  721MOL0     H97279   7.210   8.622   9.485  0.7316  4.7601 -1.5866
  721MOL0     H97280   7.041   8.539   9.328  2.2107 -0.7417  0.5406
  721MOL0     H97281   6.917   8.647   9.392 -1.2474 -1.0715 -2.0197
  721MOL0     H97282   7.081   8.840   9.350  1.5174  1.2364 -1.8248
  721MOL0     H97283   7.188   8.723   9.260 -0.7460  0.7628  0.1761
  721MOL0     H97284   6.896   8.749   9.169 -0.6623  2.4222 -0.6475
  721MOL0     H97285   7.036   8.695   9.080 -2.9993 -3.1808  2.0496
  721MOL0     H97286   7.091   9.042   9.241  0.0739  2.1824 -0.3772
  721MOL0     H97287   7.004   9.316   9.077  1.3904  3.0969  0.9538
  721MOL0     H97288   7.172   9.256   9.123 -1.0394 -1.5659 -0.0406
  721MOL0     H97289   7.192   9.233   8.857 -2.0156 -0.0081 -0.0053
  721MOL0     H97290   7.225   9.386   8.941 -2.6598  4.6653 -1.8854
  721MOL0     H97291   7.109   9.404   8.724 -0.3400 -1.1319 -1.2018
  721MOL0     H97292   7.033   9.487   8.852  0.4117 -1.5944  2.2075
  721MOL0     H97293   6.849   9.325   8.870 -1.5516  2.8817 -1.0865
  721MOL0     H97294   6.925   9.215   8.757  2.5339  0.4154  1.3198
  721MOL0     H97295   6.933   9.176   8.559  0.7791  1.0122 -1.2180
  721MOL0     H97296   6.962   9.092   8.250  1.1229  0.6336 -0.2445
  721MOL0     H97297   6.952   9.018   8.421 -3.0933  0.8034  2.0079
  721MOL0     H97298   6.829   8.989   8.294 -1.6589 -0.1100  1.6308
  721MOL0     H97299   6.930   9.066   7.999 -1.9942 -2.3999  0.1561
  721MOL0     H97300   6.895   8.952   7.780 -0.3792 -0.0285 -2.9949
  721MOL0     H97301   6.577   8.937   7.615  0.3120  2.8285  2.5349
  721MOL0     H97302   6.560   9.082   7.511 -0.8044  0.6003  4.6472
  721MOL0     H97303   6.711   8.972   7.351 -0.9391  0.7935  0.7208
  721MOL0     H97304   6.711   8.820   7.449 -1.0282 -0.2984  0.9660
  721MOL0     H97305   6.475   8.964   7.325 -1.6933 -0.5081 -1.9161
  721MOL0     H97306   6.496   8.781   7.355  0.1768 -0.2911 -1.5992
  721MOL0     H97307   6.642   8.936   7.156 -0.5078  0.3490  1.7412
  721MOL0     H97308   6.658   8.764   7.172  0.6200  0.8318  0.6707
  721MOL0     H97309   6.389   8.919   7.127  1.1367  0.2922 -0.8859
  721MOL0     H97310   6.401   8.749   7.105  1.2489 -1.7875  1.2466
  721MOL0     H97311   6.578   8.936   6.942  0.4331  0.0574 -4.5310
  721MOL0     H97312   6.563   8.766   6.923 -1.0374 -1.3910  1.6254
  721MOL0     H97313   6.295   8.879   6.896 -0.2134  0.3680 -1.5639
  721MOL0     H97314   6.377   8.764   6.798  0.0465 -0.9345  0.3685
  721MOL0     H97315   6.421   9.069   6.814  0.3861 -1.6030  1.9927
  721MOL0     H97316   6.322   8.983   6.695 -2.0428  0.7732  2.8583
  721MOL0     H97317   6.626   9.261   7.665  0.2476  0.0170  1.6134
  721MOL0     H97318   6.665   9.367   7.899  1.7951  0.1483 -0.2348
  721MOL0     H97319   6.621   9.441   8.304 -0.4992 -2.3291 -3.9800
  721MOL0     H97320   6.698   9.517   8.517 -1.6536  0.1786 -0.7986
  721MOL0     H97321   7.326   8.104   9.647 -0.0153 -2.6794 -1.7296
  721MOL0     H97322   7.503   7.936   9.666 -0.9658 -0.4571 -0.8394
  721MOL0     H97323   7.568   7.530   9.916  1.2207 -3.7667  0.7828
  721MOL0     H97324   7.682   7.335   9.877  0.0925 -1.1870 -0.0175
  721MOL0     H97325   7.847   7.138   9.854 -4.2876 -0.5094 -0.6824
  721MOL0     H97326   7.747   7.188   9.714  0.2183  1.7977 -0.2408
  721MOL0     H97327   8.033   7.075   9.696  1.1353  0.9571 -1.1778
  721MOL0     H97328   7.946   7.162   9.566 -3.9566  1.9086  0.4031
  721MOL0     H97329   7.760   7.001   9.572  0.2169 -0.7511  1.6830
  721MOL0     H97330   7.846   6.889   9.667  1.1963 -0.8049 -0.9306
  721MOL0     H97331   8.041   6.915   9.504  0.8368  3.4805  0.4562
  721MOL0     H97332   7.940   7.017   9.406  1.2710 -0.5208 -0.4287
  721MOL0     H97333   7.802   6.632   9.285  1.0804 -0.2133  0.1783
  721MOL0     H97334   8.019   7.526   9.699  2.2611 -1.7901  1.0640
  721MOL0     H97335   7.916   7.740   9.753  0.1912 -0.1015 -0.4000
  722MOL0     O97336  11.507   8.914   7.291  0.5721  0.2160 -0.8501
  722MOL0     C97337  11.462   9.004   7.361  0.2704 -0.0955  0.5680
  722MOL0     O97338  11.487   9.030   7.493 -0.8007  0.3697  0.1766
  722MOL0     C97339  11.553   8.930   7.552  0.4362 -0.2678 -0.2904
  722MOL0     C97340  11.491   8.855   7.654  0.5510 -1.1677  0.1585
  722MOL0     C97341  11.558   8.763   7.735  0.7157  0.1785  0.7662
  722MOL0     C97342  11.695   8.735   7.704 -0.7554  0.5272  0.9107
  722MOL0     O97343  11.772   8.639   7.764  0.1990 -0.3516 -0.6305
  722MOL0     C97344  11.767   8.635   7.903  0.2200  0.0808 -0.8086
  722MOL0     C97345  11.890   8.710   7.972 -0.7671  0.7077  0.6390
  722MOL0     C97346  11.906   8.691   8.126 -0.5043  0.2137 -0.3494
  722MOL0     C97347  11.772   8.714   8.213 -0.5128  1.2972  0.0511
  722MOL0     C97348  11.711   8.853   8.177  0.5729 -1.4082  0.0260
  722MOL0     C97349  11.580   8.869   8.237  0.7053  0.0605 -0.1264
  722MOL0     C97350  11.523   9.013   8.213 -0.4792  0.3866 -0.0073
  722MOL0     C97351  11.423   9.054   8.311 -0.2860 -1.1326 -1.1163
  722MOL0     N97352  11.339   9.169   8.271 -0.2893 -0.2911  0.7630
  722MOL0     C97353  11.204   9.178   8.232 -0.7637  0.6265 -0.2239
  722MOL0     C97354  11.165   9.303   8.251  0.4837 -0.2228 -0.4989
  722MOL0     C97355  11.022   9.359   8.256  0.2213 -0.2284  0.3215
  722MOL0     C97356  10.940   9.318   8.141  0.3033 -0.5494  0.4886
  722MOL0     C97357  10.804   9.390   8.120 -0.5729 -0.7366  0.4048
  722MOL0     C97358  10.725   9.337   7.997  0.0428  0.2655 -0.7786
  722MOL0     O97359  10.797   9.379   7.877  0.2717 -0.6794  1.0588
  722MOL0     C97360  10.741   9.337   7.751  0.8250  0.3751  0.1636
  722MOL0     C97361  10.813   9.369   7.636 -0.1782  1.1217 -0.1091
  722MOL0     C97362  10.786   9.335   7.503  0.2834  0.4484  0.7840
  722MOL0     C97363  10.887   9.358   7.392  1.0535 -0.7460 -0.2456
  722MOL0     C97364  10.679   9.249   7.482 -0.0714  0.7024  0.0898
  722MOL0     C97365  10.641   9.189   7.360  0.1751  0.6494 -0.4886
  722MOL0     O97366  10.664   9.258   7.241  0.5963  0.3719 -0.6643
  722MOL0     C97367  10.629   9.200   7.119  0.3154  0.4942 -0.0733
  722MOL0     C97368  10.688   9.082   7.076 -0.6218  0.6670 -0.1924
  722MOL0     C97369  10.655   9.029   6.957  0.9138  0.5883 -0.1725
  722MOL0     C97370  10.584   9.096   6.861 -0.5599  0.0859 -0.4685
  722MOL0     O97371  10.550   9.035   6.742  0.6232 -0.3197  0.4080
  722MOL0     C97372  10.581   8.893   6.727  0.5501  0.0710  0.1951
  722MOL0     C97373  10.519   8.834   6.605  0.2192  0.2095 -0.5167
  722MOL0     C97374  10.524   8.914   6.466 -0.0425  0.0425 -0.6457
  722MOL0     C97375  10.383   8.918   6.415 -0.2252 -0.4656  0.6727
  722MOL0     C97376  10.376   9.016   6.300 -0.7981 -0.9938  0.6278
  722MOL0     C97377  10.250   8.994   6.221  0.7540 -1.1603 -0.1512
  722MOL0     C97378  10.209   9.124   6.142 -0.3148  0.9022 -0.2220
  722MOL0     C97379  10.320   9.174   6.053 -0.3121  0.9083 -0.0029
  722MOL0    Cl97380  10.277   9.328   5.969  0.0415  0.1319 -0.0857
  722MOL0     C97381  10.548   9.228   6.890 -0.0856 -0.0824 -0.4516
  722MOL0     C97382  10.564   9.279   7.021 -1.1305  0.9953  0.4890
  722MOL0     O97383  10.593   9.075   7.365  0.1379 -0.4109 -0.4862
  722MOL0     C97384  10.606   9.202   7.604 -0.4180 -0.1051 -0.3782
  722MOL0     C97385  10.626   9.261   7.733 -0.3366  0.3675  0.5166
  722MOL0     N97386  11.278   9.373   8.305  0.1027  0.3886 -0.1973
  722MOL0     N97387  11.380   9.297   8.299  0.8184  0.2142  0.6836
  722MOL0     C97388  11.761   8.819   7.606 -0.5145 -0.8744 -0.7179
  722MOL0     C97389  11.688   8.908   7.531  0.2141  0.3964  0.2992
  722MOL0     C97390  11.383   9.120   7.294 -0.5593  0.4401 -0.2149
  722MOL0     C97391  11.319   9.097   7.170  0.1656 -0.7414  0.6879
  722MOL0     C97392  11.244   9.202   7.105  0.5210  0.8477  0.7035
  722MOL0     C97393  11.241   9.322   7.170  0.3630 -0.5741 -0.0765
  722MOL0     O97394  11.159   9.426   7.127 -0.3392  0.5662  0.3275
  722MOL0     C97395  11.104   9.443   7.000 -1.2492  1.2829 -0.1434
  722MOL0     C97396  10.983   9.355   6.979 -0.0771 -0.0198  0.4025
  722MOL0     C97397  10.911   9.397   6.843  0.4245  0.3160 -1.4096
  722MOL0     C97398  11.000   9.356   6.725 -0.2929 -1.3126  0.7379
  722MOL0     C97399  10.917   9.377   6.604  0.7139  0.1176 -0.1582
  722MOL0     C97400  10.839   9.385   6.515  0.2498 -0.6000 -0.6135
  722MOL0     C97401  11.290   9.350   7.304  0.0138  0.3033  0.2319
  722MOL0     C97402  11.355   9.245   7.366 -0.5212 -0.4613  0.5427
  722MOL0     H97403  11.388   8.865   7.685  0.6976 -1.7884  0.8832
  722MOL0     H97404  11.496   8.696   7.794  1.1630 -0.7947  0.1664
  722MOL0     H97405  11.680   8.686   7.945  0.5362  0.7994 -1.0051
  722MOL0     H97406  11.763   8.529   7.931 -1.4748 -0.5293 -2.9935
  722MOL0     H97407  11.982   8.682   7.920 -1.0492  0.7029  0.1373
  722MOL0     H97408  11.893   8.819   7.968 -0.4103  0.6893  0.3040
  722MOL0     H97409  11.960   8.598   8.148  0.6542  1.3402  1.9077
  722MOL0     H97410  11.981   8.761   8.164 -1.5553  1.1890 -0.0103
  722MOL0     H97411  11.709   8.628   8.185  0.1616  0.5702  0.7047
  722MOL0     H97412  11.797   8.706   8.319  2.3371 -1.8453 -0.6916
  722MOL0     H97413  11.771   8.935   8.216 -2.5183  0.2952  1.5907
  722MOL0     H97414  11.702   8.871   8.069 -2.6804  1.1717  0.5648
  722MOL0     H97415  11.511   8.786   8.218  1.5357 -1.7446  3.6875
  722MOL0     H97416  11.588   8.880   8.345 -5.8982 -0.4910  0.8382
  722MOL0     H97417  11.600   9.090   8.210 -1.1115  1.0323  0.1770
  722MOL0     H97418  11.482   9.012   8.112 -0.7271 -1.4832  0.0749
  722MOL0     H97419  11.475   9.086   8.402 -1.5051 -1.3594 -0.3214
  722MOL0     H97420  11.367   8.967   8.348  0.3127 -1.0819 -0.0610
  722MOL0     H97421  11.138   9.096   8.207 -2.7225  1.6767  1.2382
  722MOL0     H97422  10.979   9.341   8.355  3.0823 -0.4509  1.6172
  722MOL0     H97423  11.033   9.468   8.250 -1.7771  0.0346  0.5280
  722MOL0     H97424  10.913   9.215   8.168  0.4217 -0.0941  2.5510
  722MOL0     H97425  11.007   9.309   8.055 -1.9550 -2.5455 -1.1752
  722MOL0     H97426  10.816   9.498   8.107  1.6062 -0.9611  0.1008
  722MOL0     H97427  10.749   9.351   8.205 -1.1469 -3.1000 -0.9674
  722MOL0     H97428  10.626   9.383   7.998 -0.7993 -1.4599 -1.1785
  722MOL0     H97429  10.715   9.229   8.008  1.3998  0.0485 -1.4018
  722MOL0     H97430  10.899   9.428   7.665 -0.4434  1.0017  0.9962
  722MOL0     H97431  10.984   9.395   7.428  2.3894 -4.4632  0.3641
  722MOL0     H97432  10.913   9.274   7.328 -0.4732  0.5456 -2.7391
  722MOL0     H97433  10.852   9.436   7.324 -0.8065 -1.0329  0.3373
  722MOL0     H97434  10.748   9.016   7.137 -3.0784  0.3237  2.0037
  722MOL0     H97435  10.689   8.927   6.944  1.8990  1.0707 -1.6497
  722MOL0     H97436  10.689   8.895   6.715  0.6956 -1.3368  1.0906
  722MOL0     H97437  10.558   8.834   6.817  3.1289 -1.9216 -0.3472
  722MOL0     H97438  10.569   8.736   6.600  0.7211  0.3852  0.7088
  722MOL0     H97439  10.418   8.810   6.640 -0.2702  0.7251 -1.5296
  722MOL0     H97440  10.576   8.850   6.395  3.2415  0.7040  0.9455
  722MOL0     H97441  10.564   9.016   6.473 -0.9407  0.2812  2.8485
  722MOL0     H97442  10.366   8.820   6.370  0.6177  1.3362 -4.0878
  722MOL0     H97443  10.315   8.947   6.496  0.1087 -1.3328  1.2907
  722MOL0     H97444  10.466   9.006   6.239  2.5088 -0.8943  4.9931
  722MOL0     H97445  10.391   9.114   6.346  0.7130 -3.3560  5.9571
  722MOL0     H97446  10.263   8.914   6.147 -0.6069 -1.8846  0.3549
  722MOL0     H97447  10.180   8.972   6.302  2.9749  1.2547  2.6300
  722MOL0     H97448  10.196   9.204   6.215  1.8037  0.6812  0.4758
  722MOL0     H97449  10.117   9.102   6.086 -0.4634 -1.3739  0.7884
  722MOL0     H97450  10.336   9.105   5.970  2.4677 -0.7310  1.7328
  722MOL0     H97451  10.418   9.190   6.100 -0.8628  0.6153  1.3051
  722MOL0     H97452  10.500   9.285   6.811 -0.6272  0.1450  0.0384
  722MOL0     H97453  10.535   9.379   7.051  0.6883  2.5276 -2.4080
  722MOL0     H97454  10.521   9.137   7.589  1.0885 -2.1233 -0.6315
  722MOL0     H97455  10.557   9.235   7.813  1.5582  1.3955  2.6069
  722MOL0     H97456  11.869   8.815   7.598  0.1147  3.4780  2.1428
  722MOL0     H97457  11.754   8.971   7.471  0.5749 -0.8023 -0.6094
  722MOL0     H97458  11.338   8.999   7.129  0.1577 -1.1810  1.7043
  722MOL0     H97459  11.198   9.196   7.007 -0.1501 -1.0448  1.0912
  722MOL0     H97460  11.083   9.548   6.976 -3.7511  0.2278 -3.4108
  722MOL0     H97461  11.180   9.418   6.925  0.8840  2.6390  1.4642
  722MOL0     H97462  10.912   9.365   7.062  1.3314  0.8029  1.5687
  722MOL0     H97463  11.006   9.248   6.974  2.5167  0.4917  0.2956
  722MOL0     H97464  10.885   9.504   6.847  0.8572  0.4042  1.0261
  722MOL0     H97465  10.819   9.339   6.835  1.5989 -2.1041  0.9754
  722MOL0     H97466  11.036   9.254   6.736  2.3425 -0.3655  1.7896
  722MOL0     H97467  11.100   9.398   6.713  0.0771 -2.1130  0.9657
  722MOL0     H97468  10.764   9.391   6.439 -1.7615 -2.7815  1.0284
  722MOL0     H97469  11.254   9.442   7.349 -1.7455  0.6359 -1.6881
  722MOL0     H97470  11.382   9.261   7.470 -4.1330  0.3302  1.4901
  723MOL0     O97471   7.639   1.994   3.062  0.8909 -0.6251 -0.0952
  723MOL0     C97472   7.598   2.080   3.140  0.0649  0.9221 -0.4865
  723MOL0     O97473   7.677   2.162   3.226  0.6122  0.2304 -0.8667
  723MOL0     C97474   7.807   2.149   3.222 -0.3614  0.0423  0.3828
  723MOL0     C97475   7.876   2.068   3.313  0.3127 -0.3162 -0.1046
  723MOL0     C97476   8.008   2.085   3.329 -0.7663  0.3976 -0.5722
  723MOL0     C97477   8.087   2.171   3.243 -0.2019 -0.0508 -0.9222
  723MOL0     O97478   8.223   2.193   3.254  0.1886  0.0309  0.0005
  723MOL0     C97479   8.254   2.333   3.259  0.0728  0.3022  0.0016
  723MOL0     C97480   8.396   2.366   3.320  0.9116 -0.4380  1.4159
  723MOL0     C97481   8.511   2.351   3.226 -0.0805 -0.4169  0.4997
  723MOL0     C97482   8.632   2.292   3.293 -0.4111 -0.3025 -0.7462
  723MOL0     C97483   8.730   2.242   3.181 -0.3514 -0.3062  0.5139
  723MOL0     C97484   8.842   2.155   3.220 -0.0695 -0.2397 -0.7725
  723MOL0     C97485   8.948   2.110   3.109 -0.3261  0.5144 -0.2666
  723MOL0     C97486   9.018   2.234   3.046 -0.1798 -0.3320 -0.1289
  723MOL0     N97487   9.166   2.222   3.007  1.1732  1.0978 -0.0238
  723MOL0     C97488   9.245   2.104   2.987 -0.0454 -0.2576 -1.0210
  723MOL0     C97489   9.368   2.155   2.949 -0.1657 -0.5012  0.1661
  723MOL0     C97490   9.488   2.085   2.900  0.4500 -0.0764 -0.0965
  723MOL0     C97491   9.581   2.037   3.010  0.1886 -0.8803 -0.4952
  723MOL0     C97492   9.667   2.146   3.070 -0.8263  0.5493  0.6974
  723MOL0     C97493   9.769   2.103   3.172  0.2109  0.4818 -0.1717
  723MOL0     O97494   9.850   1.997   3.133  0.0523 -0.3324  0.8399
  723MOL0     C97495   9.955   1.982   3.214 -0.6278  0.0792 -0.2969
  723MOL0     C97496  10.077   2.025   3.166 -0.4281  0.0269  0.0102
  723MOL0     C97497  10.191   2.013   3.255 -0.3824 -0.8071  0.1951
  723MOL0     C97498  10.327   2.044   3.199  0.4665  0.1572 -0.9994
  723MOL0     C97499  10.173   1.973   3.392  0.0294  0.0659  0.3940
  723MOL0     C97500  10.289   1.947   3.488  0.1597  0.2690 -0.2093
  723MOL0     O97501  10.387   1.869   3.443  0.7362  0.8457 -0.5957
  723MOL0     C97502  10.436   1.770   3.528  0.8516  0.9221  0.8220
  723MOL0     C97503  10.572   1.774   3.568 -0.4385 -0.4293  0.1896
  723MOL0     C97504  10.631   1.668   3.638 -0.3329  0.3261 -0.1181
  723MOL0     C97505  10.553   1.560   3.664 -0.0387  0.5285 -0.3431
  723MOL0     O97506  10.621   1.468   3.738  0.5476 -0.0903 -0.2020
  723MOL0     C97507  10.560   1.343   3.786  0.3875  0.3332  0.4837
  723MOL0     C97508  10.624   1.283   3.912 -0.2849  0.1817  0.0844
  723MOL0     C97509  10.606   1.371   4.042  0.4746 -0.2697  0.4098
  723MOL0     C97510  10.460   1.434   4.080 -0.4501 -0.8094  0.2065
  723MOL0     C97511  10.461   1.585   4.131  0.6506  0.0762  0.0208
  723MOL0     C97512  10.507   1.677   4.015 -1.0999  0.2658 -0.4362
  723MOL0     C97513  10.486   1.833   4.037  0.5271  0.2234 -0.3053
  723MOL0     C97514  10.516   1.921   3.911  0.3368 -0.2688  0.1579
  723MOL0    Cl97515  10.678   1.865   3.858  0.0434 -0.6810 -0.8607
  723MOL0     C97516  10.417   1.546   3.627  0.1062 -0.5461 -0.7434
  723MOL0     C97517  10.361   1.650   3.550 -0.9300 -0.1610 -0.1532
  723MOL0     O97518  10.280   1.987   3.597 -0.0073 -0.0155 -0.6907
  723MOL0     C97519  10.044   1.947   3.439  0.0315  1.1860 -0.4902
  723MOL0     C97520   9.938   1.959   3.351 -0.4473  1.2774  0.1982
  723MOL0     N97521   9.362   2.290   2.943  1.2153  0.2717 -0.3092
  723MOL0     N97522   9.241   2.331   2.992 -0.4741  0.0788 -0.7763
  723MOL0     C97523   8.015   2.237   3.142  0.6592  0.1850 -0.1220
  723MOL0     C97524   7.875   2.231   3.133 -0.7319  0.2683  0.3747
  723MOL0     C97525   7.448   2.094   3.142  0.6449 -0.0999 -0.0716
  723MOL0     C97526   7.362   2.030   3.044 -0.0424 -1.1122  0.3614
  723MOL0     C97527   7.228   2.056   3.048 -0.1104  0.6966  0.2445
  723MOL0     C97528   7.173   2.152   3.133  0.1838  0.1072  0.2608
  723MOL0     O97529   7.048   2.200   3.119  1.0365 -0.6477  0.0442
  723MOL0     C97530   7.026   2.324   3.055  0.2496  0.5148  0.3788
  723MOL0     C97531   6.950   2.422   3.151  0.1881  1.7064 -0.1582
  723MOL0     C97532   6.830   2.346   3.219  0.6893 -0.2402 -0.5997
  723MOL0     C97533   6.751   2.453   3.292  0.5690  0.1229 -1.0964
  723MOL0     C97534   6.820   2.491   3.420  0.2973  0.7492  0.4247
  723MOL0     C97535   6.877   2.521   3.522 -0.0375  0.4641  0.6096
  723MOL0     C97536   7.252   2.215   3.231  0.2006 -0.7774  0.2881
  723MOL0     C97537   7.391   2.179   3.236 -0.3172 -1.0222 -0.9564
  723MOL0     H97538   7.818   2.003   3.377 -0.5519 -0.6006 -1.1385
  723MOL0     H97539   8.041   2.026   3.414 -3.7204 -1.1913 -0.3985
  723MOL0     H97540   8.250   2.380   3.160  3.6234 -0.0674 -0.4391
  723MOL0     H97541   8.175   2.389   3.310 -1.2838  1.3460 -3.0146
  723MOL0     H97542   8.378   2.470   3.348  1.4717 -0.1012  0.5751
  723MOL0     H97543   8.411   2.315   3.415  1.9522  1.3633  2.2626
  723MOL0     H97544   8.478   2.294   3.139  1.5154 -2.1653  0.9919
  723MOL0     H97545   8.538   2.451   3.189  0.7208 -0.9623 -0.4100
  723MOL0     H97546   8.689   2.369   3.346  3.3487 -3.4122  0.2470
  723MOL0     H97547   8.600   2.215   3.363 -3.3240  0.8458 -0.7071
  723MOL0     H97548   8.680   2.190   3.098  1.9626 -0.6428 -0.7510
  723MOL0     H97549   8.777   2.329   3.134  0.7707 -0.5941  1.0792
  723MOL0     H97550   8.889   2.208   3.303  0.9881  1.1622 -2.1947
  723MOL0     H97551   8.799   2.060   3.254  0.5715 -0.1282  0.3731
  723MOL0     H97552   9.014   2.035   3.152  0.3065  0.2511 -1.6323
  723MOL0     H97553   8.886   2.069   3.028 -1.9096 -1.9339  2.0096
  723MOL0     H97554   9.015   2.311   3.123 -1.2449 -0.6210  0.1426
  723MOL0     H97555   8.954   2.282   2.971  1.8938  3.7698  0.4450
  723MOL0     H97556   9.212   2.001   2.994 -0.7250  0.0660  1.4258
  723MOL0     H97557   9.461   1.998   2.839  1.6691 -0.5396  0.0033
  723MOL0     H97558   9.544   2.146   2.828  2.3655 -2.2158 -0.5149
  723MOL0     H97559   9.646   1.962   2.965  1.5160  1.1330 -2.0759
  723MOL0     H97560   9.526   1.983   3.088 -0.9885 -1.1569 -1.4859
  723MOL0     H97561   9.602   2.225   3.108 -0.7601  0.5878  0.7297
  723MOL0     H97562   9.731   2.185   2.990  1.4794 -2.2060  1.0362
  723MOL0     H97563   9.693   2.070   3.244 -0.4305  1.4170 -0.4027
  723MOL0     H97564   9.830   2.184   3.215  0.1733 -0.5742  2.0283
  723MOL0     H97565  10.089   2.065   3.066  2.7029  1.1992  0.7408
  723MOL0     H97566  10.320   2.106   3.109 -2.0125 -0.1493 -1.0882
  723MOL0     H97567  10.392   2.100   3.267 -0.2157 -0.5846  0.3017
  723MOL0     H97568  10.364   1.947   3.164  2.1267  1.4027 -2.9380
  723MOL0     H97569  10.627   1.862   3.537  1.3026 -1.4714  0.1305
  723MOL0     H97570  10.737   1.674   3.661 -0.7827  0.9480  2.0226
  723MOL0     H97571  10.453   1.359   3.805 -0.3141 -0.9950 -1.8328
  723MOL0     H97572  10.554   1.266   3.708 -0.9147  0.7824  0.1082
  723MOL0     H97573  10.578   1.184   3.920  2.3560 -1.2760 -1.3998
  723MOL0     H97574  10.733   1.282   3.905 -0.1541  0.6658  1.6584
  723MOL0     H97575  10.683   1.448   4.031  1.5808 -1.3938  0.0172
  723MOL0     H97576  10.644   1.306   4.122  0.3319  0.3501  0.9920
  723MOL0     H97577  10.387   1.424   3.999 -2.7325  0.0141  2.0928
  723MOL0     H97578  10.427   1.389   4.174  1.4056 -2.3547  0.1961
  723MOL0     H97579  10.535   1.581   4.212 -0.8923  0.6885  1.5147
  723MOL0     H97580  10.363   1.610   4.173 -1.1992 -0.7837 -3.4435
  723MOL0     H97581  10.610   1.650   3.987 -0.9901 -0.5354  0.7133
  723MOL0     H97582  10.439   1.655   3.933 -1.0797  1.4084 -0.7856
  723MOL0     H97583  10.562   1.875   4.103  3.8067  2.1640 -4.7847
  723MOL0     H97584  10.388   1.843   4.083  0.0361 -4.2755  0.0558
  723MOL0     H97585  10.513   2.028   3.933 -0.3529 -0.0038 -1.1321
  723MOL0     H97586  10.452   1.894   3.827  0.5293  1.9185 -0.7497
  723MOL0     H97587  10.353   1.462   3.651 -1.4998  1.2773  1.8081
  723MOL0     H97588  10.257   1.645   3.520 -1.1501 -1.2852  0.7277
  723MOL0     H97589  10.040   1.914   3.542  1.5433 -0.1053 -0.8176
  723MOL0     H97590   9.834   1.934   3.370  0.1372 -2.2350 -0.6031
  723MOL0     H97591   8.060   2.305   3.070  0.0028  2.8541  1.8302
  723MOL0     H97592   7.818   2.293   3.064 -0.4869 -0.5788 -0.6044
  723MOL0     H97593   7.415   1.973   2.968  2.9447  0.3939  1.1580
  723MOL0     H97594   7.168   2.003   2.976 -1.3929  2.0862  0.2585
  723MOL0     H97595   7.122   2.367   3.025 -1.1440  1.7018 -2.8593
  723MOL0     H97596   6.959   2.303   2.971 -1.4976  1.8755  1.3858
  723MOL0     H97597   6.902   2.497   3.088 -2.2037  0.1408 -0.3210
  723MOL0     H97598   7.032   2.454   3.217  3.1263 -4.9479  0.2462
  723MOL0     H97599   6.865   2.267   3.287 -3.5566 -0.9069  1.0844
  723MOL0     H97600   6.773   2.290   3.145 -1.0340 -2.1081  1.9805
  723MOL0     H97601   6.656   2.407   3.321  2.0658 -1.2334  2.2329
  723MOL0     H97602   6.723   2.544   3.239  0.0474  1.0615  0.6992
  723MOL0     H97603   6.927   2.563   3.606  0.8836 -0.9992  0.8286
  723MOL0     H97604   7.203   2.292   3.289  0.6043  0.6005 -1.1177
  723MOL0     H97605   7.445   2.232   3.314 -0.7061  1.1909 -2.1140
  724MOL0     O97606   1.235   9.243  11.027  0.3366 -0.2897  0.1222
  724MOL0     C97607   1.330   9.323  11.021  0.1578  0.0020  0.0761
  724MOL0     O97608   1.454   9.309  11.097  0.2134 -0.1645 -0.1946
  724MOL0     C97609   1.486   9.198  11.175  0.0662 -0.0559 -0.4126
  724MOL0     C97610   1.613   9.204  11.243 -0.0233 -0.7543  0.0325
  724MOL0     C97611   1.656   9.110  11.339 -0.3137 -0.0957 -0.2654
  724MOL0     C97612   1.568   8.999  11.349  0.4965  0.3972  0.0508
  724MOL0     O97613   1.592   8.885  11.426  0.4385  0.1404  0.4102
  724MOL0     C97614   1.703   8.891  11.515 -0.5463 -0.2726  0.6019
  724MOL0     C97615   1.730   8.758  11.584  0.8028  0.9789  1.2501
  724MOL0     C97616   1.845   8.757  11.691  0.4101  0.1901  0.0753
  724MOL0     C97617   1.861   8.611  11.746 -0.4213 -0.3310  0.7004
  724MOL0     C97618   1.961   8.615  11.861  1.0323  0.5732 -0.3820
  724MOL0     C97619   1.914   8.508  11.963 -0.2884 -0.3609  0.0107
  724MOL0     C97620   2.030   8.459  12.050  0.0672  0.2815  0.3021
  724MOL0     C97621   2.067   8.571  12.150  0.3223  0.3733 -0.0261
  724MOL0     N97622   1.956   8.628  12.233 -0.0356 -0.1398 -0.1010
  724MOL0     C97623   1.928   8.589  12.363  0.5390  0.0561 -0.1668
  724MOL0     C97624   1.824   8.674  12.397  0.7774 -0.6682 -0.4568
  724MOL0     C97625   1.738   8.686  12.513  0.9313 -0.8901 -1.6454
  724MOL0     C97626   1.812   8.760  12.623 -0.3052  1.0832  0.0107
  724MOL0     C97627   1.741   8.739  12.758 -0.4409 -0.1396 -0.2330
  724MOL0     C97628   1.597   8.800  12.758  0.4827 -0.0111 -0.1997
  724MOL0     O97629   1.568   8.858  12.888 -0.2226  0.2484 -0.5356
  724MOL0     C97630   1.494   8.783  12.976 -0.1178  0.3598 -0.3423
  724MOL0     C97631   1.456   8.643  12.960  0.6042 -0.5056  0.0103
  724MOL0     C97632   1.369   8.581  13.056 -0.5715  0.1750 -0.2284
  724MOL0     C97633   1.321   8.443  13.035  0.5129  0.1497 -0.3043
  724MOL0     C97634   1.309   8.665  13.157  0.6659  0.0580  0.2784
  724MOL0     C97635   1.209   8.619  13.255  0.0173 -0.0470  0.3910
  724MOL0     O97636   1.127   8.504  13.244 -0.0158  0.3469  0.3738
  724MOL0     C97637   1.044   8.465  13.350 -0.5926  0.0910  0.2605
  724MOL0     C97638   1.066   8.342  13.402  0.9396  0.7924 -0.8439
  724MOL0     C97639   0.986   8.299  13.509  0.0361  1.0769  0.2661
  724MOL0     C97640   0.880   8.380  13.560  0.2441 -0.2885 -0.6970
  724MOL0     O97641   0.798   8.318  13.659  0.0272 -0.3021  0.8896
  724MOL0     C97642   0.803   8.377  13.784  0.1599 -0.5861 -0.2862
  724MOL0     C97643   0.736   8.281  13.891  0.8462 -0.2624  0.8964
  724MOL0     C97644   0.778   8.136  13.865 -0.4003  0.2489 -1.5236
  724MOL0     C97645   0.757   8.051  13.988  0.2930  0.9358 -0.1869
  724MOL0     C97646   0.788   7.907  13.947 -0.0329 -0.0291 -0.9058
  724MOL0     C97647   0.935   7.868  13.940 -0.9254  0.0314 -1.3961
  724MOL0     C97648   0.946   7.740  13.840 -0.0989 -0.1199 -0.1115
  724MOL0     C97649   0.879   7.622  13.913 -0.5395 -0.6485 -0.2351
  724MOL0    Cl97650   0.904   7.473  13.820  0.0743  0.1404 -0.1595
  724MOL0     C97651   0.862   8.510  13.510  0.7382  0.7670  0.3027
  724MOL0     C97652   0.940   8.542  13.401  0.4321 -0.4685  0.0558
  724MOL0     O97653   1.217   8.686  13.363  0.1562  0.3902 -0.5565
  724MOL0     C97654   1.355   8.797  13.170 -0.4680 -0.1536 -0.2869
  724MOL0     C97655   1.445   8.855  13.082 -0.2521  0.1194 -0.1631
  724MOL0     N97656   1.797   8.757  12.291  0.3098 -0.1898 -0.0025
  724MOL0     N97657   1.883   8.732  12.202 -1.3214  0.0352  0.4128
  724MOL0     C97658   1.460   8.969  11.261  0.9173 -0.9664  1.3029
  724MOL0     C97659   1.420   9.071  11.178  0.1742 -0.3381  0.2403
  724MOL0     C97660   1.335   9.430  10.908 -0.7879 -0.7810 -0.4997
  724MOL0     C97661   1.460   9.485  10.869  0.7908  0.6015 -0.6938
  724MOL0     C97662   1.469   9.595  10.778 -0.8895  0.2272 -0.4913
  724MOL0     C97663   1.355   9.649  10.719 -0.3662  0.6909 -0.1868
  724MOL0     O97664   1.386   9.741  10.626 -0.6136  0.4144  0.6719
  724MOL0     C97665   1.407   9.870  10.686  0.3875 -0.7979  0.4572
  724MOL0     C97666   1.442   9.889  10.834 -0.8766  0.5476  0.8527
  724MOL0     C97667   1.406  10.024  10.875  0.5012  0.1470 -0.9840
  724MOL0     C97668   1.459  10.057  11.014  0.2236 -0.8393 -0.3915
  724MOL0     C97669   1.404  10.186  11.062 -0.4486  0.1548  0.9714
  724MOL0     C97670   1.363  10.291  11.098 -0.5718  0.8169 -0.8122
  724MOL0     C97671   1.236   9.587  10.747 -0.2176  0.5997  0.6395
  724MOL0     C97672   1.224   9.489  10.844 -0.2558  0.5092  0.6240
  724MOL0     H97673   1.675   9.291  11.224 -1.7032  0.1728 -1.4228
  724MOL0     H97674   1.743   9.120  11.403 -1.0376  0.9647  0.5975
  724MOL0     H97675   1.798   8.910  11.464 -0.9238  2.1959  0.6670
  724MOL0     H97676   1.698   8.972  11.589  0.0756  0.6666 -0.3599
  724MOL0     H97677   1.634   8.733  11.629 -1.0073 -0.1783 -2.7724
  724MOL0     H97678   1.741   8.686  11.503  0.3093  0.0539  1.9886
  724MOL0     H97679   1.945   8.789  11.659  1.6897  0.6227  3.9428
  724MOL0     H97680   1.812   8.822  11.772 -0.8540  3.7881 -3.0224
  724MOL0     H97681   1.759   8.589  11.779 -1.1719 -1.7920 -2.2790
  724MOL0     H97682   1.898   8.540  11.671 -1.4733  1.6426 -1.8456
  724MOL0     H97683   2.062   8.596  11.826  0.9261 -2.3064  0.6255
  724MOL0     H97684   1.951   8.712  11.910 -3.1028 -0.6275  1.5788
  724MOL0     H97685   1.825   8.539  12.019  1.1187 -0.9138  2.7128
  724MOL0     H97686   1.884   8.428  11.895  1.3888  1.9585 -3.7821
  724MOL0     H97687   2.004   8.369  12.106  0.4449  0.6967  1.1671
  724MOL0     H97688   2.116   8.429  11.989  0.9997 -2.4919  2.7859
  724MOL0     H97689   2.101   8.648  12.080 -0.8320 -0.9855 -2.2217
  724MOL0     H97690   2.151   8.532  12.208  1.6947  2.1405 -0.7259
  724MOL0     H97691   1.971   8.510  12.424  1.0444 -1.0825 -1.9319
  724MOL0     H97692   1.641   8.732  12.494  1.4901  1.1347  0.0033
  724MOL0     H97693   1.724   8.580  12.533  3.3153 -1.3006 -1.7939
  724MOL0     H97694   1.827   8.867  12.610  0.0303  0.8511 -1.6891
  724MOL0     H97695   1.903   8.700  12.632 -2.7078 -2.7106  2.0527
  724MOL0     H97696   1.789   8.793  12.841 -0.6742 -1.4617  0.7962
  724MOL0     H97697   1.730   8.632  12.779  1.0499 -0.6350 -1.7250
  724MOL0     H97698   1.533   8.718  12.722 -0.0478  1.0109 -1.6978
  724MOL0     H97699   1.582   8.880  12.685  1.7126  0.9486  0.5589
  724MOL0     H97700   1.503   8.589  12.878  0.6531 -1.7354  0.8243
  724MOL0     H97701   1.229   8.448  12.977  0.8015  2.3125 -0.6580
  724MOL0     H97702   1.400   8.388  12.983 -0.2220  0.9097 -2.3152
  724MOL0     H97703   1.298   8.398  13.132 -3.3640 -1.1758 -1.6328
  724MOL0     H97704   1.153   8.283  13.373 -0.6907 -2.6872  0.7846
  724MOL0     H97705   1.010   8.202  13.553  0.6294  0.8492 -0.5296
  724MOL0     H97706   0.909   8.400  13.798 -0.6322  2.7865  1.2970
  724MOL0     H97707   0.760   8.478  13.778 -1.9937 -1.4983 -1.2387
  724MOL0     H97708   0.770   8.320  13.987  3.9146 -2.0629  0.6744
  724MOL0     H97709   0.627   8.282  13.887  0.8428 -2.0579 -0.4767
  724MOL0     H97710   0.879   8.126  13.825 -0.2686 -1.5681 -0.8111
  724MOL0     H97711   0.708   8.090  13.795 -5.0643  1.8595  1.6027
  724MOL0     H97712   0.811   8.071  14.081  2.7989  1.4486 -1.6537
  724MOL0     H97713   0.653   8.066  14.018 -0.5321  0.9156 -2.7890
  724MOL0     H97714   0.741   7.886  13.850 -0.4605  1.1035 -0.9540
  724MOL0     H97715   0.740   7.840  14.018  0.7346 -2.9169 -2.9101
  724MOL0     H97716   0.999   7.950  13.905  0.3439 -0.8098 -1.1044
  724MOL0     H97717   0.987   7.836  14.030 -0.9781  1.5930 -0.7807
  724MOL0     H97718   1.049   7.713  13.814  0.9638  2.1173  1.4634
  724MOL0     H97719   0.899   7.747  13.741  1.6316  2.5763 -0.8779
  724MOL0     H97720   0.772   7.644  13.920 -0.2417  0.7563  0.2586
  724MOL0     H97721   0.922   7.601  14.012  2.2665 -0.1300 -1.2414
  724MOL0     H97722   0.774   8.565  13.543  0.4606  2.4734 -2.8746
  724MOL0     H97723   0.931   8.638  13.351  1.2066  0.0571  0.9087
  724MOL0     H97724   1.316   8.863  13.248  0.9269  2.7334 -1.8592
  724MOL0     H97725   1.470   8.959  13.096  0.2715 -0.1982  1.4352
  724MOL0     H97726   1.423   8.867  11.267 -0.0688 -0.6312  1.1106
  724MOL0     H97727   1.321   9.058  11.134  0.1588 -0.8129  0.4072
  724MOL0     H97728   1.552   9.449  10.915  1.1880 -1.6289 -3.0312
  724MOL0     H97729   1.569   9.633  10.761  0.1400 -2.4234 -0.7434
  724MOL0     H97730   1.479   9.934  10.634 -3.8070  5.0472  0.7608
  724MOL0     H97731   1.311   9.919  10.667  0.3153 -1.5907 -1.4277
  724MOL0     H97732   1.546   9.883  10.869  0.0617 -1.2953 -1.8804
  724MOL0     H97733   1.377   9.826  10.897  2.6189 -1.6459  2.5942
  724MOL0     H97734   1.298  10.037  10.862  0.6044  1.1377 -0.9138
  724MOL0     H97735   1.446  10.096  10.803  0.9889 -0.0635 -0.9274
  724MOL0     H97736   1.567  10.050  11.030  0.0648  2.3986  3.8071
  724MOL0     H97737   1.414   9.983  11.081  1.7344  1.0535  2.9612
  724MOL0     H97738   1.328  10.382  11.142  3.0632  0.8050  2.6477
  724MOL0     H97739   1.152   9.629  10.693  0.2329 -2.0709 -2.4712
  724MOL0     H97740   1.122   9.460  10.869 -0.0623 -1.7089 -0.8444
  725MOL0     O97741   1.026   0.496   9.905  0.1858 -0.4702  0.7773
  725MOL0     C97742   1.004   0.459  10.018  0.4273  0.4472  1.4214
  725MOL0     O97743   0.943   0.345  10.053 -0.0394 -0.1642  0.5547
  725MOL0     C97744   0.876   0.277   9.964 -0.0723 -0.2492  0.1341
  725MOL0     C97745   0.737   0.272   9.988 -0.7347 -0.1636 -1.1238
  725MOL0     C97746   0.657   0.217   9.893 -0.3714 -0.6753 -0.0005
  725MOL0     C97747   0.711   0.158   9.771 -0.5444  0.3795  0.1133
  725MOL0     O97748   0.630   0.082   9.687  0.1154 -0.3646  0.4156
  725MOL0     C97749   0.516   0.151   9.643  0.1447 -0.8385 -0.2294
  725MOL0     C97750   0.418   0.044   9.590 -0.2886 -0.6837  0.3003
  725MOL0     C97751   0.471   0.007   9.456  0.7538 -0.4794 -0.1453
  725MOL0     C97752   0.371  -0.105   9.399  0.2109 -0.3726  0.1710
  725MOL0     C97753   0.423  -0.134   9.263  0.9734  0.0413 -0.6939
  725MOL0     C97754   0.324  -0.235   9.197 -0.0800 -0.1193  1.0293
  725MOL0     C97755   0.393  -0.298   9.076  0.2776 -0.4824 -0.3707
  725MOL0     C97756   0.288  -0.366   8.991 -0.1091  0.0780  0.0859
  725MOL0     N97757   0.352  -0.444   8.879 -0.9642  0.4281  0.4041
  725MOL0     C97758   0.423  -0.390   8.769 -0.2876 -0.1272 -0.5380
  725MOL0     C97759   0.418  -0.478   8.666  0.0328 -0.3325 -0.2936
  725MOL0     C97760   0.496  -0.473   8.538 -0.3175 -0.6099  0.2548
  725MOL0     C97761   0.621  -0.562   8.535 -0.8045 -0.8165 -0.2547
  725MOL0     C97762   0.718  -0.550   8.653 -0.2207  0.4132 -0.6537
  725MOL0     C97763   0.835  -0.647   8.640  0.0580 -0.7066 -0.5533
  725MOL0     O97764   0.915  -0.607   8.527 -0.6269  1.5491  0.6406
  725MOL0     C97765   1.047  -0.647   8.518  0.1454  0.4663 -0.2008
  725MOL0     C97766   1.110  -0.740   8.594 -0.5027  0.1055  0.1612
  725MOL0     C97767   1.243  -0.790   8.565  0.5914 -1.1406  1.1160
  725MOL0     C97768   1.283  -0.918   8.641 -0.1302  0.2021 -0.1630
  725MOL0     C97769   1.324  -0.715   8.473 -0.0290  0.6214 -0.2274
  725MOL0     C97770   1.470  -0.732   8.449  0.1098 -0.0460 -0.5013
  725MOL0     O97771   1.504  -0.670   8.335  1.0237  0.1168 -0.9524
  725MOL0     C97772   1.625  -0.688   8.266 -0.1119  1.2052  0.1816
  725MOL0     C97773   1.679  -0.816   8.245 -1.1879 -0.7629 -0.7712
  725MOL0     C97774   1.805  -0.828   8.189 -1.0244  0.5049 -0.0080
  725MOL0     C97775   1.877  -0.717   8.142 -1.4718 -0.2255 -0.7254
  725MOL0     O97776   2.003  -0.716   8.077  0.1518 -0.3148 -0.0170
  725MOL0     C97777   2.079  -0.840   8.079  1.3441 -0.1788  0.2619
  725MOL0     C97778   2.227  -0.811   8.041 -0.1233 -0.0040  1.3254
  725MOL0     C97779   2.246  -0.791   7.883 -0.0704 -0.1743  0.8299
  725MOL0     C97780   2.394  -0.796   7.863 -0.3138 -0.5286  0.3795
  725MOL0     C97781   2.426  -0.801   7.711 -0.2447  0.6138  1.0557
  725MOL0     C97782   2.573  -0.840   7.682 -0.6615  0.7765  0.0672
  725MOL0     C97783   2.676  -0.750   7.745 -0.6567  0.2119  0.0892
  725MOL0     C97784   2.819  -0.813   7.751 -1.0594  1.0807  0.3810
  725MOL0    Cl97785   2.918  -0.696   7.842  0.1464  0.0782 -0.5882
  725MOL0     C97786   1.815  -0.592   8.151  0.5804  0.2864 -0.2368
  725MOL0     C97787   1.686  -0.577   8.218  0.1950 -0.6704  0.9342
  725MOL0     O97788   1.549  -0.794   8.518  0.3355  0.0687  0.2800
  725MOL0     C97789   1.259  -0.612   8.406  0.1240 -0.3442 -0.5247
  725MOL0     C97790   1.124  -0.584   8.427 -0.0933  0.0332 -0.6274
  725MOL0     N97791   0.353  -0.587   8.717  0.7020 -0.3688 -1.3231
  725MOL0     N97792   0.309  -0.561   8.836  1.2248 -0.3650 -0.4736
  725MOL0     C97793   0.850   0.161   9.748  0.3338  0.4192 -0.3695
  725MOL0     C97794   0.928   0.224   9.843  0.1949 -0.3996 -0.1549
  725MOL0     C97795   1.055   0.541  10.122 -0.5275  0.2273 -0.0045
  725MOL0     C97796   1.124   0.667  10.100 -0.1097 -0.1876  0.1041
  725MOL0     C97797   1.167   0.747  10.206 -0.4164  0.2408 -0.0266
  725MOL0     C97798   1.153   0.705  10.338 -0.3193  0.1792  0.4234
  725MOL0     O97799   1.174   0.795  10.432 -0.8405 -0.5619 -1.0342
  725MOL0     C97800   1.253   0.756  10.548 -1.0136  0.1072 -0.3510
  725MOL0     C97801   1.247   0.870  10.652 -0.0603 -0.1853  0.1762
  725MOL0     C97802   1.300   0.838  10.791 -0.2718 -0.1113 -0.9698
  725MOL0     C97803   1.179   0.831  10.888 -0.6928 -0.6144  0.7433
  725MOL0     C97804   1.139   0.967  10.937 -0.3744 -0.5053 -0.8278
  725MOL0     C97805   1.108   1.063  11.001 -0.3605  0.7005 -0.5563
  725MOL0     C97806   1.094   0.583  10.360 -0.2405 -0.2190 -0.4209
  725MOL0     C97807   1.038   0.505  10.258  0.8598 -0.0351 -0.3412
  725MOL0     H97808   0.690   0.310  10.078 -3.9394 -0.8592 -2.3715
  725MOL0     H97809   0.550   0.206   9.910 -0.2898 -1.7457 -0.1167
  725MOL0     H97810   0.453   0.192   9.722 -0.1818  0.6123 -1.2018
  725MOL0     H97811   0.540   0.231   9.573 -0.0885 -0.7410 -0.2000
  725MOL0     H97812   0.416  -0.042   9.658  0.0635  0.2825  1.5659
  725MOL0     H97813   0.321   0.092   9.573  0.0331 -0.9514 -3.1346
  725MOL0     H97814   0.451   0.094   9.392 -1.1338 -0.0641  0.9272
  725MOL0     H97815   0.576  -0.022   9.443  0.9754 -0.6986  1.8048
  725MOL0     H97816   0.390  -0.199   9.452 -0.0589  1.3504  3.6182
  725MOL0     H97817   0.267  -0.074   9.406  0.6214  1.0156  0.5352
  725MOL0     H97818   0.434  -0.047   9.198  2.1908 -0.6535 -1.4663
  725MOL0     H97819   0.524  -0.175   9.269  0.6651 -0.6616 -0.1461
  725MOL0     H97820   0.289  -0.308   9.270 -0.4106 -0.9058  0.0984
  725MOL0     H97821   0.233  -0.187   9.160  1.2641  1.4083 -0.4819
  725MOL0     H97822   0.454  -0.223   9.024 -0.1679 -0.9885 -1.6474
  725MOL0     H97823   0.465  -0.367   9.121 -0.6814 -1.5974 -0.5001
  725MOL0     H97824   0.223  -0.291   8.945 -0.4641 -0.9400 -1.1276
  725MOL0     H97825   0.221  -0.430   9.050 -0.2168  0.7171  0.6632
  725MOL0     H97826   0.479  -0.298   8.760 -3.5077  1.8861 -1.2785
  725MOL0     H97827   0.435  -0.517   8.459 -1.6798  2.3293 -0.4798
  725MOL0     H97828   0.529  -0.372   8.513 -0.4448 -0.4715  0.6354
  725MOL0     H97829   0.683  -0.556   8.445  0.3296 -1.6728  0.4341
  725MOL0     H97830   0.596  -0.668   8.545 -1.6660 -0.6609 -0.7040
  725MOL0     H97831   0.670  -0.577   8.748 -0.5892 -2.7380 -1.6409
  725MOL0     H97832   0.763  -0.450   8.643 -2.1359  1.2482 -1.3433
  725MOL0     H97833   0.793  -0.748   8.630 -1.5994 -0.2054  1.0244
  725MOL0     H97834   0.901  -0.647   8.727  1.9411  2.2978 -1.8148
  725MOL0     H97835   1.055  -0.797   8.669 -0.5090 -1.8244 -1.2361
  725MOL0     H97836   1.296  -0.999   8.569  0.6616 -0.5622  0.8162
  725MOL0     H97837   1.378  -0.893   8.688  0.7531 -0.4997 -1.5159
  725MOL0     H97838   1.201  -0.947   8.707 -0.9772 -1.7101 -1.9679
  725MOL0     H97839   1.630  -0.903   8.287 -2.8123  0.4703  0.0528
  725MOL0     H97840   1.840  -0.926   8.156 -1.2206 -0.5418  2.6706
  725MOL0     H97841   2.074  -0.879   8.181  2.3685  2.5870  1.4744
  725MOL0     H97842   2.037  -0.912   8.008  2.8250 -1.0826  0.2523
  725MOL0     H97843   2.261  -0.726   8.102  3.0219 -1.9202  2.4485
  725MOL0     H97844   2.285  -0.899   8.069  1.7725  1.5170  2.4353
  725MOL0     H97845   2.204  -0.700   7.840  2.6650  0.7222 -0.1535
  725MOL0     H97846   2.194  -0.878   7.842 -0.7115 -0.6537  2.5634
  725MOL0     H97847   2.443  -0.704   7.897 -0.1555  0.4117 -2.1894
  725MOL0     H97848   2.452  -0.869   7.920  0.9954 -0.8634 -1.3110
  725MOL0     H97849   2.413  -0.702   7.665 -0.0329  0.4754  0.6855
  725MOL0     H97850   2.360  -0.870   7.657  1.6484 -1.4706  1.2436
  725MOL0     H97851   2.581  -0.934   7.739 -0.2000  1.3270  0.9354
  725MOL0     H97852   2.603  -0.859   7.579  2.9020  1.2253  0.8725
  725MOL0     H97853   2.651  -0.738   7.851  1.0557 -0.9162  0.6612
  725MOL0     H97854   2.682  -0.653   7.695 -0.4710  0.8791  1.3464
  725MOL0     H97855   2.859  -0.820   7.650 -1.9433 -1.5097  0.1634
  725MOL0     H97856   2.814  -0.914   7.793 -0.6953  1.0920  0.4627
  725MOL0     H97857   1.863  -0.503   8.112 -2.5621  2.4808  0.5061
  725MOL0     H97858   1.642  -0.479   8.226  1.6588  0.4764 -2.9566
  725MOL0     H97859   1.293  -0.553   8.321 -1.1049  0.6687 -0.3418
  725MOL0     H97860   1.078  -0.501   8.374 -0.0209  0.1017 -0.5804
  725MOL0     H97861   0.881   0.117   9.654  2.7527 -2.0450  1.4368
  725MOL0     H97862   1.031   0.252   9.825  0.8435 -0.0932  3.3844
  725MOL0     H97863   1.152   0.700  10.000 -2.7252 -0.2034 -0.7303
  725MOL0     H97864   1.231   0.834  10.199  2.9017 -2.0315 -0.2389
  725MOL0     H97865   1.225   0.659  10.591 -0.2948  0.2813  0.5296
  725MOL0     H97866   1.359   0.742  10.528 -0.9327 -1.4961  1.0132
  725MOL0     H97867   1.148   0.916  10.645 -1.5451 -3.4238 -2.7853
  725MOL0     H97868   1.315   0.947  10.615  1.2826  1.0482  4.5813
  725MOL0     H97869   1.383   0.905  10.815  0.0779  0.1486 -2.7490
  725MOL0     H97870   1.349   0.740  10.797 -0.4228 -0.2181 -1.4175
  725MOL0     H97871   1.193   0.770  10.978  1.7362 -1.5758 -0.1960
  725MOL0     H97872   1.093   0.790  10.835  1.9604 -2.3080 -2.6333
  725MOL0     H97873   1.105   1.135  11.081  1.0838 -2.3308  2.4779
  725MOL0     H97874   1.076   0.552  10.463  1.3390  0.9837  0.2563
  725MOL0     H97875   0.999   0.411  10.298  2.2126 -0.2185  0.6190
  726MOL0     O97876   4.244   2.485   6.440 -0.7929 -0.0929  0.2778
  726MOL0     C97877   4.315   2.391   6.466 -0.3103  0.2666 -0.1150
  726MOL0     O97878   4.324   2.273   6.389  0.0627  0.6131  0.4887
  726MOL0     C97879   4.427   2.185   6.420 -0.2222 -0.5326 -0.5457
  726MOL0     C97880   4.547   2.168   6.351 -0.3470 -0.1569 -0.0103
  726MOL0     C97881   4.642   2.081   6.409 -0.0062  0.6211  1.0387
  726MOL0     C97882   4.621   2.011   6.529 -0.4775 -0.5753 -0.3477
  726MOL0     O97883   4.715   1.937   6.596  0.6374 -0.1197  0.0236
  726MOL0     C97884   4.840   1.998   6.618 -0.4497 -0.2053 -0.1783
  726MOL0     C97885   4.830   2.129   6.698  0.3096  0.5206 -0.5340
  726MOL0     C97886   4.977   2.180   6.703  0.5124  0.2676 -0.3570
  726MOL0     C97887   5.028   2.277   6.816  0.5125 -1.0181  0.4416
  726MOL0     C97888   5.167   2.321   6.787 -0.4803 -0.4819 -1.6511
  726MOL0     C97889   5.243   2.395   6.907  0.1838 -0.3226 -0.4237
  726MOL0     C97890   5.370   2.482   6.865 -0.0556  0.0750 -1.1279
  726MOL0     C97891   5.444   2.543   6.981 -0.0848 -0.1391  0.6729
  726MOL0     N97892   5.537   2.451   7.036 -0.0743  0.0635 -0.2151
  726MOL0     C97893   5.680   2.443   7.027  0.7561 -0.7163 -0.0257
  726MOL0     C97894   5.717   2.340   7.110 -0.3595 -0.6183 -0.0052
  726MOL0     C97895   5.852   2.290   7.140  0.1519  0.4406  1.5134
  726MOL0     C97896   5.963   2.406   7.141  0.0959  1.0829 -0.3973
  726MOL0     C97897   6.099   2.329   7.127 -0.0727 -0.5067 -0.7410
  726MOL0     C97898   6.237   2.400   7.158 -0.2710  0.4318  0.4880
  726MOL0     O97899   6.256   2.433   7.297 -0.1485  0.0480 -0.1914
  726MOL0     C97900   6.368   2.508   7.338 -0.6696  0.5739  0.6972
  726MOL0     C97901   6.415   2.504   7.471 -0.3619  0.1699 -0.6282
  726MOL0     C97902   6.535   2.550   7.517  0.6145 -0.1489  0.1711
  726MOL0     C97903   6.559   2.534   7.670  0.0327  0.4180 -0.6562
  726MOL0     C97904   6.617   2.614   7.425  0.1885 -0.4518 -1.6243
  726MOL0     C97905   6.758   2.651   7.458 -0.7540  0.4301  0.6737
  726MOL0     O97906   6.835   2.585   7.560 -0.1974  0.7275 -0.3530
  726MOL0     C97907   6.957   2.655   7.589  1.3084  0.4148  0.4981
  726MOL0     C97908   7.070   2.627   7.507 -0.7623 -0.1188  0.6595
  726MOL0     C97909   7.193   2.684   7.526 -0.3938 -0.8642  0.1324
  726MOL0     C97910   7.205   2.796   7.618 -0.8080 -0.1810  1.0854
  726MOL0     O97911   7.333   2.857   7.638  0.1787  0.6860 -0.4086
  726MOL0     C97912   7.426   2.860   7.531  1.5297  0.2853  0.0803
  726MOL0     C97913   7.535   2.962   7.573  0.3235 -0.0169 -0.8089
  726MOL0     C97914   7.624   3.002   7.450  0.3344 -0.2303  0.5836
  726MOL0     C97915   7.723   3.111   7.484 -0.4685  0.7110  0.5319
  726MOL0     C97916   7.854   3.106   7.403  0.1120 -0.6960  0.8245
  726MOL0     C97917   7.826   3.115   7.251 -0.7733  0.2799 -0.5478
  726MOL0     C97918   7.958   3.133   7.167  0.4803  0.6104  0.0590
  726MOL0     C97919   8.031   3.259   7.183 -0.1187  0.1544 -0.6559
  726MOL0    Cl97920   7.941   3.402   7.099  0.0903  0.0568  0.3704
  726MOL0     C97921   7.095   2.825   7.699 -0.0354  0.0382 -0.2609
  726MOL0     C97922   6.968   2.754   7.681  0.0876  0.0944  0.1039
  726MOL0     O97923   6.795   2.743   7.395 -0.2859 -0.2236  0.0314
  726MOL0     C97924   6.573   2.628   7.288 -0.4490 -0.2307 -0.2105
  726MOL0     C97925   6.451   2.571   7.242  0.1229  0.3143  0.7225
  726MOL0     N97926   5.604   2.279   7.157  0.0976  0.0661 -0.1230
  726MOL0     N97927   5.508   2.345   7.114  0.8168  0.7011 -1.0018
  726MOL0     C97928   4.500   2.033   6.590  0.0662  0.6614  0.1472
  726MOL0     C97929   4.405   2.113   6.533  0.3671  0.1584 -0.0824
  726MOL0     C97930   4.406   2.412   6.578 -0.0151  0.9697  0.1105
  726MOL0     C97931   4.541   2.422   6.558  1.5399  0.0802 -0.2361
  726MOL0     C97932   4.629   2.436   6.660 -0.0449 -0.6679 -0.4123
  726MOL0     C97933   4.580   2.424   6.797 -0.5269 -0.6190 -0.1829
  726MOL0     O97934   4.667   2.424   6.902 -0.0192 -0.6616  0.1510
  726MOL0     C97935   4.635   2.349   7.023  0.4398 -0.1331 -0.3584
  726MOL0     C97936   4.592   2.455   7.136 -0.1357 -0.2983 -0.4134
  726MOL0     C97937   4.699   2.508   7.232 -0.1544  0.8488 -0.7274
  726MOL0     C97938   4.641   2.595   7.349 -0.7705 -0.0490  0.1593
  726MOL0     C97939   4.758   2.654   7.427 -0.7634 -0.9781 -0.9403
  726MOL0     C97940   4.855   2.696   7.484  0.3988 -0.9834 -0.7881
  726MOL0     C97941   4.445   2.412   6.817  0.0409  0.5735 -0.7351
  726MOL0     C97942   4.352   2.408   6.712 -0.1300  0.0347  0.1417
  726MOL0     H97943   4.574   2.225   6.263 -0.8858  0.2549  0.0800
  726MOL0     H97944   4.739   2.070   6.362  1.2774 -5.4242  4.0886
  726MOL0     H97945   4.898   1.929   6.680  1.1468 -0.6890 -2.1079
  726MOL0     H97946   4.883   2.022   6.520 -1.4731 -1.4225 -0.9611
  726MOL0     H97947   4.761   2.203   6.656  0.4848  1.3400  0.5967
  726MOL0     H97948   4.797   2.110   6.800 -0.9034  0.5063 -0.9116
  726MOL0     H97949   5.047   2.097   6.694  1.6703  0.7959  2.4682
  726MOL0     H97950   4.975   2.241   6.612 -3.5699 -0.2711 -0.8249
  726MOL0     H97951   4.959   2.361   6.824  0.7044 -1.0537  3.7412
  726MOL0     H97952   5.039   2.226   6.912  2.4096  2.2749  2.1671
  726MOL0     H97953   5.214   2.225   6.764 -0.8863 -1.0384 -0.2536
  726MOL0     H97954   5.163   2.393   6.704  2.5857  2.5362  0.5330
  726MOL0     H97955   5.179   2.461   6.965  0.2673 -1.9516  1.6255
  726MOL0     H97956   5.272   2.313   6.973  2.5217  1.6348  1.1660
  726MOL0     H97957   5.433   2.428   6.795  2.0961 -1.1257  1.5498
  726MOL0     H97958   5.326   2.569   6.816  1.9056  2.0964  0.4632
  726MOL0     H97959   5.373   2.570   7.060 -1.0604 -0.7566  0.0324
  726MOL0     H97960   5.487   2.637   6.945 -1.0992  0.7746  1.7635
  726MOL0     H97961   5.741   2.506   6.964  1.7435 -2.3240 -0.7381
  726MOL0     H97962   5.857   2.238   7.236  2.6108  0.8469  1.6813
  726MOL0     H97963   5.873   2.210   7.068 -0.4154  0.7110  1.0442
  726MOL0     H97964   5.960   2.470   7.230 -1.8089  0.5926 -0.0598
  726MOL0     H97965   5.947   2.474   7.057  1.2898  1.1585 -0.5777
  726MOL0     H97966   6.105   2.288   7.025  1.2928 -0.7124 -0.5994
  726MOL0     H97967   6.098   2.238   7.188 -0.2241  0.4148  0.6724
  726MOL0     H97968   6.253   2.495   7.105  0.2296  0.6487  1.0195
  726MOL0     H97969   6.319   2.335   7.128  0.9931  2.2611 -0.2153
  726MOL0     H97970   6.339   2.460   7.534 -0.1942 -1.7010 -1.6521
  726MOL0     H97971   6.471   2.565   7.727  0.6862  0.7196  0.2114
  726MOL0     H97972   6.576   2.429   7.695 -1.3914  0.3668  0.2425
  726MOL0     H97973   6.651   2.576   7.710  1.7660 -4.1924  0.8297
  726MOL0     H97974   7.057   2.548   7.434 -1.3452  0.1739  0.4451
  726MOL0     H97975   7.277   2.644   7.469 -1.6046 -1.0554 -1.6046
  726MOL0     H97976   7.474   2.762   7.521 -2.1513 -1.7607  0.5762
  726MOL0     H97977   7.377   2.883   7.436 -0.2786  1.6349  1.2787
  726MOL0     H97978   7.486   3.047   7.621  1.5227  0.2358  0.0156
  726MOL0     H97979   7.592   2.926   7.659  1.3351  1.9367 -0.5902
  726MOL0     H97980   7.553   3.036   7.374 -0.3106 -0.6097  1.0017
  726MOL0     H97981   7.668   2.909   7.414  0.0859  0.6379 -2.1606
  726MOL0     H97982   7.683   3.211   7.461  0.4023  0.9388 -0.0263
  726MOL0     H97983   7.748   3.100   7.590 -0.7041 -1.2395  0.4152
  726MOL0     H97984   7.913   3.025   7.446  1.1072 -1.2958 -1.4737
  726MOL0     H97985   7.900   3.202   7.428 -4.9052  3.4543 -3.3842
  726MOL0     H97986   7.767   3.026   7.226  1.1552 -0.6649 -1.9462
  726MOL0     H97987   7.761   3.203   7.243  0.1389  1.3606  2.4113
  726MOL0     H97988   7.931   3.128   7.061  1.8470  0.7053 -0.3100
  726MOL0     H97989   8.016   3.042   7.189  0.2923  0.8871  1.8934
  726MOL0     H97990   8.132   3.241   7.143 -1.1234 -3.3057 -2.0036
  726MOL0     H97991   8.050   3.285   7.287  0.6412  0.6498 -0.9029
  726MOL0     H97992   7.105   2.909   7.767  1.7829 -0.6406  0.3780
  726MOL0     H97993   6.879   2.760   7.743 -1.2731 -1.8547 -1.5346
  726MOL0     H97994   6.645   2.655   7.211 -0.4374 -1.5481 -0.6815
  726MOL0     H97995   6.429   2.555   7.137 -0.0709  0.8343  0.6827
  726MOL0     H97996   4.489   1.985   6.687 -2.3428  0.6753 -0.0575
  726MOL0     H97997   4.312   2.145   6.577  0.1264 -0.1366 -0.3698
  726MOL0     H97998   4.583   2.432   6.458  0.8941 -1.0876 -0.6434
  726MOL0     H97999   4.736   2.444   6.642 -0.2226  1.0439 -0.9306
  726MOL0     H98000   4.565   2.267   7.006  2.7890 -1.6583 -3.7489
  726MOL0     H98001   4.728   2.304   7.059  0.5503  0.5402  0.2158
  726MOL0     H98002   4.518   2.405   7.198  1.3278  2.1435  3.6681
  726MOL0     H98003   4.551   2.548   7.096  1.2738  0.7795  0.5546
  726MOL0     H98004   4.781   2.562   7.181 -1.3936  2.3939 -1.1732
  726MOL0     H98005   4.741   2.431   7.297 -1.3299  2.7784  2.5357
  726MOL0     H98006   4.575   2.531   7.409 -0.8622  0.1228  0.2421
  726MOL0     H98007   4.588   2.675   7.297  0.8680  0.5328 -0.6990
  726MOL0     H98008   4.937   2.728   7.546 -1.2954  0.1197  1.0063
  726MOL0     H98009   4.402   2.393   6.914 -1.2500 -0.5261 -1.4769
  726MOL0     H98010   4.245   2.405   6.728 -0.3364 -1.3590 -1.3153
  727MOL0     O98011   4.737   7.012   6.296 -0.3235 -0.2280  0.3539
  727MOL0     C98012   4.679   6.979   6.402  0.3919 -0.1333 -1.0763
  727MOL0     O98013   4.649   6.853   6.450 -0.4440 -0.3288 -0.7675
  727MOL0     C98014   4.692   6.745   6.376  0.0586  1.1077  0.3656
  727MOL0     C98015   4.751   6.638   6.453  0.7928 -0.2549 -0.1481
  727MOL0     C98016   4.772   6.511   6.401 -0.1291  0.8582  0.0208
  727MOL0     C98017   4.754   6.486   6.266  0.5217 -1.0153  0.9484
  727MOL0     O98018   4.808   6.371   6.222  0.3346 -0.4018 -0.3935
  727MOL0     C98019   4.884   6.368   6.101  0.0907  0.2637 -0.5418
  727MOL0     C98020   4.960   6.235   6.111  0.3168 -0.0497  0.2311
  727MOL0     C98021   5.040   6.207   5.986 -0.2439 -0.0877  0.0605
  727MOL0     C98022   5.090   6.057   5.985 -0.7614 -0.2706  0.4844
  727MOL0     C98023   5.184   6.014   5.868 -0.5051 -0.1349 -0.0865
  727MOL0     C98024   5.116   5.963   5.749 -0.3313 -0.5932  0.3057
  727MOL0     C98025   5.085   5.818   5.729  0.7035 -0.0978 -0.2247
  727MOL0     C98026   5.005   5.807   5.598 -0.2982  0.4174  0.2065
  727MOL0     N98027   5.002   5.680   5.535 -1.0925  0.5337  0.0426
  727MOL0     C98028   5.075   5.637   5.427 -1.0035  0.6987 -0.5391
  727MOL0     C98029   5.024   5.527   5.370 -0.0216  0.2454 -0.2405
  727MOL0     C98030   5.061   5.469   5.245  0.0958  0.3633  0.4013
  727MOL0     C98031   5.195   5.396   5.257 -0.1486 -0.3225 -0.8624
  727MOL0     C98032   5.209   5.319   5.128 -0.2967 -0.7027  0.3910
  727MOL0     C98033   5.352   5.280   5.122 -0.8773 -0.1023 -0.7673
  727MOL0     O98034   5.383   5.191   5.017  0.0857 -0.2337  0.4449
  727MOL0     C98035   5.515   5.170   4.978  0.3809 -1.3813 -0.0134
  727MOL0     C98036   5.633   5.227   5.033 -0.3774 -0.5591  0.2797
  727MOL0     C98037   5.763   5.211   4.976  0.3837 -0.3820 -0.4300
  727MOL0     C98038   5.877   5.253   5.065  0.4808 -0.3004 -0.6247
  727MOL0     C98039   5.779   5.137   4.863  0.6850 -0.6652  0.2348
  727MOL0     C98040   5.907   5.134   4.787 -0.9997  0.3056  1.0024
  727MOL0     O98041   5.919   5.040   4.683  0.6592 -0.5169 -0.0766
  727MOL0     C98042   6.043   4.987   4.640 -0.2750  0.8012  0.5039
  727MOL0     C98043   6.046   4.919   4.518 -0.1362 -1.2303  0.3139
  727MOL0     C98044   6.161   4.857   4.469 -0.6322  0.1935  0.7852
  727MOL0     C98045   6.271   4.851   4.548  0.6229  0.2171  0.4703
  727MOL0     O98046   6.375   4.774   4.497  0.4515 -1.4966 -0.0944
  727MOL0     C98047   6.477   4.731   4.596  0.2758  0.3242 -0.4216
  727MOL0     C98048   6.588   4.647   4.526  0.7334 -0.4916  0.3819
  727MOL0     C98049   6.680   4.742   4.433  0.1395 -0.1299 -1.2233
  727MOL0     C98050   6.740   4.662   4.317  1.3795 -0.4029 -0.2312
  727MOL0     C98051   6.802   4.749   4.206  0.5672 -0.1078  0.1724
  727MOL0     C98052   6.889   4.680   4.092  0.4421  0.0610  0.6895
  727MOL0     C98053   6.949   4.786   4.006 -0.5386 -1.1340  0.3506
  727MOL0     C98054   6.949   4.746   3.849  0.2933 -0.7458 -1.5329
  727MOL0    Cl98055   6.788   4.759   3.777 -0.1552  0.0281  0.1024
  727MOL0     C98056   6.264   4.907   4.678  0.4502 -0.3332 -0.3797
  727MOL0     C98057   6.160   4.976   4.723 -0.3005  0.5196  0.4760
  727MOL0     O98058   5.996   5.219   4.815  0.2621 -0.9035 -0.0984
  727MOL0     C98059   5.663   5.072   4.810 -0.9834 -0.0585 -0.1518
  727MOL0     C98060   5.536   5.088   4.869  0.3857  0.5093  0.2870
  727MOL0     N98061   4.914   5.507   5.447 -0.6521 -0.0540  0.2650
  727MOL0     N98062   4.910   5.590   5.551  0.2661 -0.5409  0.4648
  727MOL0     C98063   4.706   6.593   6.182 -0.8022  0.0361  0.5843
  727MOL0     C98064   4.678   6.716   6.234  0.3332 -0.4351 -1.3426
  727MOL0     C98065   4.630   7.093   6.488 -0.4698 -0.2613  0.7581
  727MOL0     C98066   4.603   7.069   6.627  0.1324 -0.2608  0.6269
  727MOL0     C98067   4.545   7.178   6.702  0.6919 -0.0228  0.9126
  727MOL0     C98068   4.539   7.309   6.652 -1.0462  0.2277  0.3085
  727MOL0     O98069   4.497   7.410   6.742 -0.5621 -0.1476  0.2696
  727MOL0     C98070   4.449   7.544   6.690  0.0308 -0.0717  0.5410
  727MOL0     C98071   4.559   7.654   6.697 -0.3202  0.2135  0.9711
  727MOL0     C98072   4.540   7.744   6.574  0.7397  0.0838 -0.3821
  727MOL0     C98073   4.590   7.888   6.609 -0.0759 -0.8511  0.1325
  727MOL0     C98074   4.723   7.895   6.574 -0.5857  0.2808  0.3285
  727MOL0     C98075   4.836   7.923   6.536  0.1112  0.9499  0.8057
  727MOL0     C98076   4.603   7.338   6.532 -0.2710 -0.0010  0.1160
  727MOL0     C98077   4.634   7.227   6.447  0.6325 -0.1171  0.6604
  727MOL0     H98078   4.767   6.654   6.559  2.4872  2.2965 -0.6767
  727MOL0     H98079   4.811   6.439   6.472  2.7225  1.2467 -1.0125
  727MOL0     H98080   4.823   6.376   6.010 -2.1309  4.2669  1.0556
  727MOL0     H98081   4.954   6.452   6.107  0.3005 -0.0212  2.5476
  727MOL0     H98082   5.025   6.234   6.199 -0.6436  1.0191  0.9862
  727MOL0     H98083   4.889   6.156   6.136  0.2891  0.2779  1.2403
  727MOL0     H98084   4.967   6.215   5.904 -2.1876 -1.7306  1.5195
  727MOL0     H98085   5.123   6.277   5.974 -0.3785 -0.3062 -3.2392
  727MOL0     H98086   5.138   6.036   6.081  0.4117 -0.1516 -0.0595
  727MOL0     H98087   5.002   5.993   5.995 -0.3645 -0.8803  0.1666
  727MOL0     H98088   5.256   6.096   5.856  2.4185 -2.5230  0.0186
  727MOL0     H98089   5.241   5.930   5.909  2.4528  1.8579  0.2507
  727MOL0     H98090   5.021   6.018   5.746 -0.1516  0.2060  4.1180
  727MOL0     H98091   5.179   5.991   5.664  0.4054 -1.3340  0.5966
  727MOL0     H98092   5.182   5.766   5.723  0.8623  0.1353  0.2647
  727MOL0     H98093   5.027   5.784   5.816 -1.6267  4.7200  0.4191
  727MOL0     H98094   5.036   5.874   5.517 -0.7281 -0.4821 -0.7298
  727MOL0     H98095   4.904   5.838   5.627 -0.1224  0.3178  0.9302
  727MOL0     H98096   5.153   5.698   5.381  0.2481 -1.6784 -1.7867
  727MOL0     H98097   4.988   5.395   5.212  2.3717 -0.0366 -4.5934
  727MOL0     H98098   5.071   5.536   5.159  1.2093 -1.0167 -0.6069
  727MOL0     H98099   5.191   5.329   5.344  0.4500  1.5264  0.6636
  727MOL0     H98100   5.272   5.473   5.263 -0.6111  0.0627  0.5058
  727MOL0     H98101   5.196   5.392   5.047  0.9728 -1.6209 -0.6730
  727MOL0     H98102   5.142   5.235   5.113 -0.8617 -0.0235 -1.0982
  727MOL0     H98103   5.379   5.224   5.213 -0.4564 -0.4482 -1.0998
  727MOL0     H98104   5.418   5.367   5.121  3.7280 -3.2096  0.1042
  727MOL0     H98105   5.625   5.281   5.127 -1.8675  1.9924 -1.1842
  727MOL0     H98106   5.934   5.165   5.096  0.1724  0.1819  1.4511
  727MOL0     H98107   5.924   5.338   5.015 -0.9457 -0.1244 -1.7468
  727MOL0     H98108   5.839   5.287   5.162  3.8840 -0.9338  1.0894
  727MOL0     H98109   5.960   4.908   4.453  0.8870 -3.3988 -0.8086
  727MOL0     H98110   6.159   4.800   4.377 -0.7722 -1.7854  1.9401
  727MOL0     H98111   6.528   4.820   4.634 -2.7305  3.7072 -3.4820
  727MOL0     H98112   6.431   4.692   4.687 -1.8179  2.6297 -0.3601
  727MOL0     H98113   6.653   4.601   4.602  2.1941 -1.7917 -1.5388
  727MOL0     H98114   6.543   4.579   4.454  1.2330 -2.0334  1.4638
  727MOL0     H98115   6.760   4.792   4.489  0.1829 -0.6768 -0.7976
  727MOL0     H98116   6.615   4.815   4.383 -2.3457 -1.5106 -0.1555
  727MOL0     H98117   6.826   4.601   4.345  1.8386  0.2551 -0.1991
  727MOL0     H98118   6.664   4.595   4.275  1.0974 -0.0266 -0.3238
  727MOL0     H98119   6.874   4.809   4.262  0.8305  1.3304 -1.5981
  727MOL0     H98120   6.716   4.805   4.166 -0.8879 -1.8600  0.7346
  727MOL0     H98121   6.969   4.625   4.144 -0.8750 -0.2958  2.4487
  727MOL0     H98122   6.830   4.608   4.035 -0.1235 -0.5261  1.9748
  727MOL0     H98123   7.052   4.797   4.042 -0.4483 -0.8020 -0.0077
  727MOL0     H98124   6.885   4.874   4.016  1.7186  0.7501 -0.8916
  727MOL0     H98125   6.990   4.646   3.831  0.1439 -1.2961  0.8365
  727MOL0     H98126   7.012   4.819   3.798  0.5729  0.1680  0.0634
  727MOL0     H98127   6.352   4.901   4.741  0.0444 -0.4602  0.1724
  727MOL0     H98128   6.168   5.019   4.822 -0.2212  0.9894  0.2691
  727MOL0     H98129   5.681   5.022   4.716 -0.8638  1.8413 -1.1885
  727MOL0     H98130   5.453   5.044   4.816 -0.2780  0.8760  1.0033
  727MOL0     H98131   4.674   6.579   6.079 -1.0312 -2.9273  0.9683
  727MOL0     H98132   4.632   6.789   6.168  0.3782  0.3170 -0.5690
  727MOL0     H98133   4.621   6.976   6.680  2.0477 -0.5540 -0.4573
  727MOL0     H98134   4.517   7.153   6.804  3.3131 -1.9375  1.2788
  727MOL0     H98135   4.410   7.523   6.590  3.2562  0.9910 -1.0854
  727MOL0     H98136   4.361   7.570   6.749  0.4301 -0.0046  1.1187
  727MOL0     H98137   4.661   7.615   6.693 -0.0618  0.7312 -3.5675
  727MOL0     H98138   4.545   7.712   6.788 -4.0567  0.5292  0.3450
  727MOL0     H98139   4.433   7.760   6.553  0.2872 -2.9843 -0.8492
  727MOL0     H98140   4.585   7.707   6.482 -0.7378 -0.3554 -0.9566
  727MOL0     H98141   4.574   7.907   6.716 -3.2503 -0.2155 -0.3667
  727MOL0     H98142   4.537   7.961   6.547  0.1487 -1.1211 -0.3866
  727MOL0     H98143   4.939   7.943   6.518  0.2092  0.1714  0.4434
  727MOL0     H98144   4.608   7.436   6.486  2.8485  0.8926  2.0348
  727MOL0     H98145   4.670   7.260   6.350 -0.7139 -0.8049 -0.0937
  728MOL0     O98146   8.180   9.592   3.397  0.4659 -0.5975 -0.1719
  728MOL0     C98147   8.145   9.663   3.304  0.3427 -0.0307 -0.0785
  728MOL0     O98148   8.089   9.629   3.178  0.3065 -0.6291  0.0138
  728MOL0     C98149   8.039   9.500   3.150  0.1625  0.5028  0.8127
  728MOL0     C98150   7.924   9.481   3.060 -0.3362 -1.0710  1.2311
  728MOL0     C98151   7.868   9.357   3.038 -0.0707  0.4862  0.4846
  728MOL0     C98152   7.920   9.244   3.093 -0.1462  0.0709  0.1241
  728MOL0     O98153   7.891   9.111   3.051 -0.1936 -0.1018  0.2773
  728MOL0     C98154   7.773   9.076   2.983  0.1733 -0.9032  1.3367
  728MOL0     C98155   7.746   8.917   2.967  0.0556 -0.5819 -0.5724
  728MOL0     C98156   7.707   8.829   3.086  0.8926 -0.5909 -0.1359
  728MOL0     C98157   7.691   8.682   3.055  0.3004 -0.4150 -0.1845
  728MOL0     C98158   7.611   8.617   3.164  0.0915 -0.2059 -0.6407
  728MOL0     C98159   7.611   8.466   3.166 -0.5727  0.3951 -0.4733
  728MOL0     C98160   7.586   8.421   3.312 -0.2891 -1.0320 -0.1074
  728MOL0     C98161   7.458   8.477   3.374  1.5008  0.7867  0.2281
  728MOL0     N98162   7.409   8.382   3.475 -0.5382  0.5399  0.2722
  728MOL0     C98163   7.308   8.290   3.456 -0.7623 -0.7231  0.3795
  728MOL0     C98164   7.335   8.184   3.537  0.0815  0.3339 -0.4998
  728MOL0     C98165   7.264   8.051   3.556  0.2475 -0.1021 -0.2464
  728MOL0     C98166   7.123   8.068   3.622  0.1245  0.4079  0.5517
  728MOL0     C98167   7.054   7.932   3.627 -0.5815 -0.2393  0.5789
  728MOL0     C98168   7.010   7.869   3.498 -0.2837  0.5271  0.0061
  728MOL0     O98169   6.972   7.723   3.525  0.0562 -0.4961 -0.9582
  728MOL0     C98170   6.840   7.685   3.526  0.1177 -0.3891 -0.0018
  728MOL0     C98171   6.744   7.776   3.556  0.4112 -0.0975 -0.3555
  728MOL0     C98172   6.607   7.746   3.539 -0.3312 -0.2381 -0.9061
  728MOL0     C98173   6.506   7.845   3.591  0.2088  0.0473 -0.2657
  728MOL0     C98174   6.565   7.619   3.490 -0.3952  0.9898  0.4387
  728MOL0     C98175   6.429   7.585   3.450  0.1968  0.8672 -0.1686
  728MOL0     O98176   6.413   7.456   3.426 -0.2062  0.1610  0.8132
  728MOL0     C98177   6.289   7.412   3.398  0.8503  0.5323 -0.4418
  728MOL0     C98178   6.257   7.360   3.262  0.8850  0.2299 -0.8973
  728MOL0     C98179   6.134   7.322   3.227  0.5006  0.3445 -0.2482
  728MOL0     C98180   6.039   7.321   3.330  0.8279  0.1976 -0.3875
  728MOL0     O98181   5.920   7.260   3.294  0.3524  0.2971  0.7733
  728MOL0     C98182   5.844   7.196   3.397  0.0535 -0.3035 -0.0124
  728MOL0     C98183   5.717   7.135   3.336  0.4864  0.6143 -0.7900
  728MOL0     C98184   5.634   7.070   3.449 -0.4168 -0.3978  0.4934
  728MOL0     C98185   5.495   7.037   3.400 -0.3189  0.6710 -0.2934
  728MOL0     C98186   5.418   6.958   3.500  0.3183 -0.6406  0.5214
  728MOL0     C98187   5.261   6.973   3.493 -0.2491  0.0350 -0.1211
  728MOL0     C98188   5.193   6.850   3.558  0.3728 -0.6670 -0.0713
  728MOL0     C98189   5.054   6.898   3.590 -0.3608  0.4698  0.3389
  728MOL0    Cl98190   4.944   6.915   3.457 -0.1117 -0.2553  0.4152
  728MOL0     C98191   6.061   7.371   3.457 -0.0413  0.0497 -0.1937
  728MOL0     C98192   6.185   7.418   3.490 -0.1405  0.2143  0.6268
  728MOL0     O98193   6.343   7.675   3.409  0.5093 -1.2112  0.0169
  728MOL0     C98194   6.666   7.520   3.477  0.2470  1.0707  0.0330
  728MOL0     C98195   6.800   7.552   3.496  0.9067  0.1711 -0.5579
  728MOL0     N98196   7.458   8.216   3.594 -0.9978  0.5100  0.2264
  728MOL0     N98197   7.493   8.338   3.565 -0.4789 -0.1119  0.1416
  728MOL0     C98198   8.035   9.261   3.167 -0.6321 -0.2263 -0.1587
  728MOL0     C98199   8.094   9.386   3.197  0.7094  0.1294 -0.7037
  728MOL0     C98200   8.156   9.813   3.319 -0.0041 -0.0996  0.3521
  728MOL0     C98201   8.241   9.859   3.412 -1.0299  0.1430 -0.1527
  728MOL0     C98202   8.268   9.996   3.415 -0.2517 -0.2120 -0.1252
  728MOL0     C98203   8.197  10.092   3.342  0.3143  0.2894 -0.3860
  728MOL0     O98204   8.217  10.220   3.396 -0.7769 -0.6123 -0.2245
  728MOL0     C98205   8.102  10.308   3.393 -0.3047  0.7166 -0.0511
  728MOL0     C98206   8.012  10.287   3.510 -0.6844 -0.0628  0.3101
  728MOL0     C98207   8.028  10.379   3.639 -0.4824 -1.0309  0.3682
  728MOL0     C98208   8.134  10.327   3.719 -0.7947 -0.4451 -0.5380
  728MOL0     C98209   8.122  10.396   3.854 -0.1504  1.0726 -0.2751
  728MOL0     C98210   8.117  10.449   3.958 -0.1285 -0.3131 -0.6372
  728MOL0     C98211   8.092  10.044   3.263 -0.2939 -0.0820 -0.7884
  728MOL0     C98212   8.082   9.909   3.243 -0.4461  0.3160 -0.4412
  728MOL0     H98213   7.866   9.560   3.012  1.7324  0.6744  1.4508
  728MOL0     H98214   7.780   9.352   2.974  0.6203  3.2493 -0.8012
  728MOL0     H98215   7.695   9.125   3.042 -1.9959  1.9071 -3.3099
  728MOL0     H98216   7.758   9.131   2.889 -0.4833  2.3202  3.1987
  728MOL0     H98217   7.668   8.902   2.891 -1.4768 -0.1699  0.8467
  728MOL0     H98218   7.832   8.873   2.917 -1.5853 -4.7907 -0.0718
  728MOL0     H98219   7.784   8.842   3.164 -1.9573 -0.8058  2.9326
  728MOL0     H98220   7.614   8.871   3.125  2.6931  3.0407  0.7829
  728MOL0     H98221   7.631   8.673   2.963 -0.0963  1.2075 -0.1085
  728MOL0     H98222   7.788   8.632   3.051 -1.4539 -4.1742 -2.4790
  728MOL0     H98223   7.658   8.639   3.260 -0.8950 -0.7480 -0.0116
  728MOL0     H98224   7.506   8.649   3.169 -1.4364 -4.6557  0.9509
  728MOL0     H98225   7.546   8.430   3.086  1.3013 -1.2755 -1.3406
  728MOL0     H98226   7.712   8.430   3.147 -0.3625  1.1519 -0.8722
  728MOL0     H98227   7.550   8.320   3.291 -4.0843  0.6455 -2.8249
  728MOL0     H98228   7.680   8.427   3.369  0.2417  0.2016 -1.0759
  728MOL0     H98229   7.387   8.497   3.294 -0.4853 -1.7808  1.2067
  728MOL0     H98230   7.481   8.576   3.416 -1.9553  2.3897 -1.2989
  728MOL0     H98231   7.224   8.294   3.387 -0.1020  2.4553 -0.3885
  728MOL0     H98232   7.259   8.001   3.459  1.2237  1.6168 -1.2510
  728MOL0     H98233   7.327   8.003   3.631 -0.9516 -0.5022  0.5319
  728MOL0     H98234   7.070   8.135   3.552 -1.4850 -0.3950  0.9474
  728MOL0     H98235   7.120   8.103   3.725 -1.8035  1.0749  0.3233
  728MOL0     H98236   6.962   7.949   3.684  0.7068  1.6910  2.2095
  728MOL0     H98237   7.112   7.865   3.691  0.0624 -0.1813  0.0686
  728MOL0     H98238   7.083   7.880   3.417  0.1140 -1.5434  0.0280
  728MOL0     H98239   6.917   7.920   3.471 -0.7414  1.1422  2.4944
  728MOL0     H98240   6.764   7.860   3.622  0.1788  2.3758 -3.2063
  728MOL0     H98241   6.524   7.948   3.560  2.8666 -0.5175 -0.8453
  728MOL0     H98242   6.403   7.816   3.571 -0.1684  2.9927 -3.4794
  728MOL0     H98243   6.515   7.849   3.700 -2.6892  1.0080  0.0018
  728MOL0     H98244   6.325   7.350   3.179  0.5865  0.3245 -1.1549
  728MOL0     H98245   6.112   7.293   3.125 -2.4867  2.0231 -0.1913
  728MOL0     H98246   5.906   7.117   3.441 -0.9962 -0.9696  0.3016
  728MOL0     H98247   5.823   7.276   3.469 -3.2177 -0.1930 -0.9264
  728MOL0     H98248   5.644   7.208   3.300  0.8364  1.0803 -0.5678
  728MOL0     H98249   5.750   7.060   3.263  3.1230 -2.2923  2.9339
  728MOL0     H98250   5.629   7.141   3.532 -3.4267  0.1331 -0.0339
  728MOL0     H98251   5.678   6.976   3.484  0.8752  0.6204  1.7312
  728MOL0     H98252   5.451   7.137   3.396  0.2976  0.9579 -0.0544
  728MOL0     H98253   5.478   6.995   3.300  1.4705 -3.0906  0.7956
  728MOL0     H98254   5.461   6.979   3.598 -2.4468  0.9354  1.5005
  728MOL0     H98255   5.440   6.854   3.476  3.2648 -0.9133  3.6524
  728MOL0     H98256   5.229   7.076   3.512 -0.4522  0.0094 -0.3214
  728MOL0     H98257   5.218   6.965   3.393 -0.0066 -4.4247 -0.0903
  728MOL0     H98258   5.245   6.813   3.646  1.3937  0.7593 -0.0282
  728MOL0     H98259   5.184   6.765   3.490 -1.5690 -0.0952 -0.5929
  728MOL0     H98260   5.059   6.989   3.651 -1.2973  1.7699 -1.4216
  728MOL0     H98261   5.008   6.821   3.653 -1.6695 -0.1505 -1.3060
  728MOL0     H98262   5.983   7.385   3.531  1.9440  0.8339  1.8735
  728MOL0     H98263   6.197   7.451   3.593 -1.8173  0.1076  0.8838
  728MOL0     H98264   6.639   7.420   3.443  0.6726 -0.1526  3.0153
  728MOL0     H98265   6.880   7.479   3.483  4.3798  3.4679  0.4212
  728MOL0     H98266   8.103   9.190   3.213  1.5680  1.5108 -0.5182
  728MOL0     H98267   8.187   9.387   3.254  0.0030 -2.5025  0.6554
  728MOL0     H98268   8.285   9.801   3.493  2.8678  1.1653 -1.2912
  728MOL0     H98269   8.347  10.020   3.486 -0.2945 -2.4240  0.7436
  728MOL0     H98270   8.125  10.415   3.397 -1.7200  1.2991 -3.7206
  728MOL0     H98271   8.049  10.293   3.299 -0.3136  3.3137 -0.5288
  728MOL0     H98272   8.013  10.185   3.547 -3.1137 -0.4378 -0.4821
  728MOL0     H98273   7.912  10.291   3.466  0.2456  0.6005 -1.8774
  728MOL0     H98274   7.937  10.388   3.700  2.4746  1.1944  5.0083
  728MOL0     H98275   8.038  10.485   3.614 -2.2497 -0.3759  2.1759
  728MOL0     H98276   8.232  10.357   3.682 -1.6882  0.8733 -1.9634
  728MOL0     H98277   8.124  10.218   3.725  1.0035 -1.2559 -6.0573
  728MOL0     H98278   8.095  10.491   4.054 -2.4307  1.8286 -1.9603
  728MOL0     H98279   8.035  10.113   3.202  1.6381  1.9892 -0.3739
  728MOL0     H98280   8.006   9.871   3.175 -0.0629 -1.4690  0.0607
  729MOL0     O98281   4.298   9.059   8.535 -0.5362  0.4080 -0.6724
  729MOL0     C98282   4.226   8.966   8.569  0.4469 -0.4674  0.4334
  729MOL0     O98283   4.134   8.972   8.677 -1.0608 -0.8119 -0.4673
  729MOL0     C98284   4.131   9.088   8.744 -0.3983 -0.1420 -0.4861
  729MOL0     C98285   4.144   9.217   8.701  0.8922 -0.5190 -0.3035
  729MOL0     C98286   4.123   9.318   8.798 -0.9188  0.4824 -0.6010
  729MOL0     C98287   4.096   9.289   8.935 -0.4423 -0.0851 -0.4716
  729MOL0     O98288   4.086   9.395   9.024 -0.1966  0.8104  0.3604
  729MOL0     C98289   4.121   9.533   8.977  0.1963  0.5457 -0.4207
  729MOL0     C98290   4.131   9.624   9.105 -0.9581  0.4825  1.3478
  729MOL0     C98291   4.272   9.609   9.167  0.0376  0.1850  0.4195
  729MOL0     C98292   4.283   9.683   9.302 -0.7364 -0.3125  0.5186
  729MOL0     C98293   4.368   9.610   9.404 -0.3950 -0.7076  0.3158
  729MOL0     C98294   4.446   9.693   9.510 -0.2949  1.3010  0.1822
  729MOL0     C98295   4.373   9.782   9.608  0.3838  0.9325 -0.0108
  729MOL0     C98296   4.264   9.691   9.696  0.4068  0.5646 -0.1373
  729MOL0     N98297   4.331   9.590   9.778 -0.8586  0.4255  1.2051
  729MOL0     C98298   4.414   9.632   9.876 -0.5369 -0.4024  0.7537
  729MOL0     C98299   4.431   9.519   9.950 -1.0213  0.5586  0.0578
  729MOL0     C98300   4.531   9.541  10.072 -0.3825  1.2674  0.5628
  729MOL0     C98301   4.657   9.467  10.040 -0.3263 -0.0380 -0.8306
  729MOL0     C98302   4.747   9.530   9.924 -0.6536  0.2758 -0.6627
  729MOL0     C98303   4.800   9.672   9.945  0.1183  1.1565  0.1505
  729MOL0     O98304   4.715   9.777   9.900 -0.1172  0.6028 -1.1745
  729MOL0     C98305   4.761   9.908   9.913  0.9987  0.1803  0.1543
  729MOL0     C98306   4.664  10.000   9.879  0.0988  0.1190 -0.0924
  729MOL0     C98307   4.689  10.135   9.889  0.3104 -0.0371 -0.1546
  729MOL0     C98308   4.562  10.231   9.892  0.3176 -1.1288  1.0926
  729MOL0     C98309   4.818  10.179   9.936  0.5327 -0.0252 -0.1652
  729MOL0     C98310   4.872  10.318   9.967  0.1418  0.1043 -0.5019
  729MOL0     O98311   4.985  10.328  10.044  0.1159 -0.4686 -0.4110
  729MOL0     C98312   5.014  10.460  10.078 -0.1816  0.8644  0.1254
  729MOL0     C98313   5.104  10.523   9.988  0.4373 -0.8303  0.0617
  729MOL0     C98314   5.160  10.644  10.027  0.2689 -0.0529  0.8029
  729MOL0     C98315   5.124  10.713  10.145 -1.2003  0.2008 -0.4364
  729MOL0     O98316   5.196  10.830  10.175 -0.0571  0.0504 -0.5611
  729MOL0     C98317   5.146  10.915  10.274 -0.1426 -0.1134 -0.9783
  729MOL0     C98318   5.181  11.052  10.235 -0.8809 -0.6879 -0.8103
  729MOL0     C98319   5.127  11.152  10.337  0.2925  0.8038 -0.1329
  729MOL0     C98320   5.198  11.288  10.316 -0.0350 -1.4799  0.4084
  729MOL0     C98321   5.115  11.388  10.394  0.9727 -0.1721  0.0908
  729MOL0     C98322   5.139  11.525  10.339 -0.5666  0.3913  1.2530
  729MOL0     C98323   5.059  11.625  10.411  0.1421  0.2326 -0.2791
  729MOL0     C98324   5.115  11.764  10.389  0.6263  1.0102 -0.2054
  729MOL0    Cl98325   5.024  11.819  10.231  0.1182 -0.3294 -0.3988
  729MOL0     C98326   5.034  10.645  10.226 -0.9678 -0.4015 -0.0615
  729MOL0     C98327   4.977  10.522  10.194 -0.4234  0.8259  0.3470
  729MOL0     O98328   4.790  10.414   9.949  0.9214  0.1649 -0.1559
  729MOL0     C98329   4.917  10.077   9.972 -0.6752 -0.1063  1.1454
  729MOL0     C98330   4.884   9.942   9.959  0.3712 -0.4270  0.4433
  729MOL0     N98331   4.368   9.412   9.895  0.4636  0.4329  0.6276
  729MOL0     N98332   4.311   9.452   9.782  0.1285 -0.4784  0.1066
  729MOL0     C98333   4.078   9.158   8.973 -0.7287  0.0537 -0.2762
  729MOL0     C98334   4.085   9.059   8.876  0.6021 -0.1171  0.5663
  729MOL0     C98335   4.223   8.848   8.480  0.4322  0.2492 -0.3293
  729MOL0     C98336   4.325   8.824   8.387  0.2541  0.6171  0.4086
  729MOL0     C98337   4.324   8.700   8.329  0.5752 -0.7121 -0.4618
  729MOL0     C98338   4.215   8.615   8.342 -0.1294 -0.1898  0.2902
  729MOL0     O98339   4.211   8.484   8.287 -0.5190 -1.2195 -0.5782
  729MOL0     C98340   4.312   8.452   8.189  0.1111  0.6629  0.3992
  729MOL0     C98341   4.272   8.307   8.164  0.4752 -0.7851 -0.6159
  729MOL0     C98342   4.291   8.204   8.274 -1.3378 -0.3693 -0.5081
  729MOL0     C98343   4.260   8.059   8.236  0.8871 -1.2507  0.0807
  729MOL0     C98344   4.295   7.968   8.346  0.1156 -0.2165  0.7857
  729MOL0     C98345   4.317   7.892   8.433  0.7659  0.0922 -0.7169
  729MOL0     C98346   4.103   8.644   8.421 -0.4306  0.0878  0.0831
  729MOL0     C98347   4.107   8.764   8.496  0.4419 -0.3135 -0.9878
  729MOL0     H98348   4.153   9.247   8.597 -0.6325 -1.0679 -0.6155
  729MOL0     H98349   4.138   9.417   8.756  0.5172  0.8645  0.6952
  729MOL0     H98350   4.222   9.524   8.936  1.4941 -0.3055  2.6231
  729MOL0     H98351   4.045   9.574   8.910  1.1709  0.0114 -1.8968
  729MOL0     H98352   4.121   9.729   9.076  1.4562  0.2061 -0.8634
  729MOL0     H98353   4.067   9.590   9.187 -0.3150  1.8455  2.4476
  729MOL0     H98354   4.287   9.504   9.193 -1.9430  0.7889  4.9606
  729MOL0     H98355   4.352   9.652   9.106  0.2752  0.7635  1.1303
  729MOL0     H98356   4.345   9.770   9.280 -0.1995 -0.0795  2.7136
  729MOL0     H98357   4.198   9.714   9.363 -1.3854  1.5409 -1.2522
  729MOL0     H98358   4.303   9.533   9.448 -0.4161 -0.1022  1.3848
  729MOL0     H98359   4.439   9.559   9.338 -1.0115 -1.7930  0.4589
  729MOL0     H98360   4.498   9.616   9.568 -0.8195 -0.0308 -1.0508
  729MOL0     H98361   4.522   9.742   9.448  2.0763 -3.5100 -1.2280
  729MOL0     H98362   4.446   9.822   9.679 -0.4682 -0.9648  2.0620
  729MOL0     H98363   4.323   9.861   9.551 -2.9740  0.1960  1.6770
  729MOL0     H98364   4.185   9.644   9.638  0.7968  0.6815 -0.7737
  729MOL0     H98365   4.224   9.767   9.764 -3.7376 -0.2447 -1.4053
  729MOL0     H98366   4.449   9.733   9.892  0.3868 -0.7683  1.1168
  729MOL0     H98367   4.567   9.643  10.083  1.5460  0.4684  2.4446
  729MOL0     H98368   4.489   9.499  10.164 -1.1154  0.9716  0.1067
  729MOL0     H98369   4.635   9.364  10.010 -0.3473 -0.3211  0.1257
  729MOL0     H98370   4.720   9.457  10.129  2.6441  4.1189 -2.1922
  729MOL0     H98371   4.689   9.515   9.832  0.2888  2.2844 -1.6476
  729MOL0     H98372   4.835   9.468   9.907 -2.2651 -2.7980  1.2495
  729MOL0     H98373   4.889   9.687   9.883 -0.7138  0.5744 -1.2136
  729MOL0     H98374   4.836   9.674  10.049  2.2943  2.0131 -0.5720
  729MOL0     H98375   4.567   9.964   9.848  1.0417 -1.5043 -1.3498
  729MOL0     H98376   4.477  10.192   9.836 -1.1993 -0.3148  2.7491
  729MOL0     H98377   4.515  10.235   9.990 -0.8712 -1.4245  0.5552
  729MOL0     H98378   4.590  10.326   9.847  1.3479 -1.0504  1.8661
  729MOL0     H98379   5.143  10.469   9.902  3.7150  0.5928  0.4841
  729MOL0     H98380   5.234  10.688   9.960  0.8939 -0.2700  1.3399
  729MOL0     H98381   5.038  10.906  10.288  0.0806 -4.3597 -0.4433
  729MOL0     H98382   5.197  10.883  10.365  0.5576  0.0797 -1.2986
  729MOL0     H98383   5.290  11.050  10.242 -0.7827  2.6323  0.0979
  729MOL0     H98384   5.155  11.074  10.131 -0.5005  0.8485 -0.5964
  729MOL0     H98385   5.144  11.114  10.438 -2.0951  3.5188  1.4758
  729MOL0     H98386   5.017  11.156  10.334  0.3175  1.7625 -0.3711
  729MOL0     H98387   5.298  11.287  10.361  0.0036  0.1236  0.4297
  729MOL0     H98388   5.187  11.290  10.207 -3.0471  0.4372  0.6356
  729MOL0     H98389   5.152  11.388  10.497 -2.6493  2.6256  1.6378
  729MOL0     H98390   5.008  11.364  10.401 -0.1166  3.5533 -1.2716
  729MOL0     H98391   5.247  11.542  10.351 -0.5398  1.2684 -0.0694
  729MOL0     H98392   5.121  11.527  10.231  2.2737 -1.9741  0.5993
  729MOL0     H98393   5.075  11.595  10.516 -2.1196 -2.7748 -0.6479
  729MOL0     H98394   4.953  11.621  10.384  0.4259 -0.1042 -1.3702
  729MOL0     H98395   5.224  11.773  10.392  0.4999  3.1704 -0.2601
  729MOL0     H98396   5.077  11.819  10.476 -2.1911  0.7141 -1.1446
  729MOL0     H98397   5.009  10.702  10.315  2.3772  1.3780 -0.1070
  729MOL0     H98398   4.901  10.468  10.250 -0.1654  0.6540  0.5327
  729MOL0     H98399   5.014  10.093  10.018  0.5432 -3.8063  0.2565
  729MOL0     H98400   4.960   9.869   9.984  2.2938 -0.7743 -5.1412
  729MOL0     H98401   4.054   9.134   9.076 -1.5740  0.5716 -0.3383
  729MOL0     H98402   4.078   8.958   8.914  0.3168  0.0175  0.8811
  729MOL0     H98403   4.409   8.891   8.370 -0.3096  0.9455 -1.3063
  729MOL0     H98404   4.414   8.676   8.273  2.9666  2.8579  1.4440
  729MOL0     H98405   4.318   8.519   8.103 -0.7655  1.7809  1.1805
  729MOL0     H98406   4.410   8.459   8.237 -1.0613 -1.1061  3.3455
  729MOL0     H98407   4.335   8.275   8.080 -2.3366 -1.5190 -2.5941
  729MOL0     H98408   4.171   8.297   8.123  1.2071  1.7160 -3.4316
  729MOL0     H98409   4.251   8.242   8.369  1.5023  3.9152 -0.7394
  729MOL0     H98410   4.400   8.203   8.284 -0.7771  1.5401 -4.4772
  729MOL0     H98411   4.330   8.030   8.157  1.8801  0.8033  0.1391
  729MOL0     H98412   4.159   8.051   8.194 -0.5204  0.5812  2.8030
  729MOL0     H98413   4.338   7.834   8.521 -2.6954  1.6110  1.3140
  729MOL0     H98414   4.013   8.584   8.427  0.5289 -1.3075  1.1846
  729MOL0     H98415   4.025   8.790   8.562  0.5822  0.4838 -1.1211
  730MOL0     O98416   9.371   3.595   6.315 -0.6877  0.4289 -0.4296
  730MOL0     C98417   9.369   3.708   6.362  0.0607  0.8679  0.4332
  730MOL0     O98418   9.270   3.800   6.348  0.7373  0.4797  0.1903
  730MOL0     C98419   9.145   3.766   6.303 -0.8930  0.4644  1.1282
  730MOL0     C98420   9.072   3.857   6.218  0.8925  0.0848 -0.3733
  730MOL0     C98421   8.945   3.832   6.171  0.3771  0.1585  0.5962
  730MOL0     C98422   8.870   3.713   6.194 -0.2424  0.0025 -0.3196
  730MOL0     O98423   8.759   3.692   6.122 -0.4224  0.0084  1.0012
  730MOL0     C98424   8.688   3.569   6.133 -0.4844  0.7969 -0.7307
  730MOL0     C98425   8.593   3.556   6.015 -0.4634  0.0474 -0.3935
  730MOL0     C98426   8.536   3.421   6.008  0.0507  1.0402  0.5380
  730MOL0     C98427   8.439   3.411   5.893 -0.6962  0.2913  0.1538
  730MOL0     C98428   8.362   3.282   5.921  0.0808  0.7787  0.8172
  730MOL0     C98429   8.404   3.157   5.837 -0.5700 -0.0940  0.2580
  730MOL0     C98430   8.309   3.032   5.849 -0.4365 -0.5997 -0.9173
  730MOL0     C98431   8.289   3.001   5.996  0.3615 -0.0945 -0.5545
  730MOL0     N98432   8.237   2.873   6.039  0.2676  0.3858  1.5473
  730MOL0     C98433   8.108   2.853   6.080  0.9793 -0.3869  0.9072
  730MOL0     C98434   8.095   2.713   6.099 -0.9934  0.5077  0.6341
  730MOL0     C98435   7.984   2.639   6.173  0.2693  0.0207 -0.4707
  730MOL0     C98436   7.959   2.495   6.119 -0.5044 -1.2629  0.8593
  730MOL0     C98437   7.834   2.438   6.181  0.6002  0.4870  0.2124
  730MOL0     C98438   7.836   2.283   6.166  0.1637  1.2823  0.0982
  730MOL0     O98439   7.831   2.258   6.024  0.9192  0.1556  0.5434
  730MOL0     C98440   7.879   2.148   5.965 -0.3551 -0.1656 -0.0386
  730MOL0     C98441   7.920   2.032   6.032  1.2167  0.1166 -0.6356
  730MOL0     C98442   7.984   1.933   5.964 -0.0167 -0.3078 -0.2858
  730MOL0     C98443   8.031   1.815   6.047  0.2920 -0.4546  0.0706
  730MOL0     C98444   8.006   1.944   5.823  0.9187 -0.1046  0.8878
  730MOL0     C98445   8.087   1.846   5.736 -0.6230  0.6680  0.2295
  730MOL0     O98446   8.086   1.879   5.604  0.5489 -0.2103  0.2444
  730MOL0     C98447   8.136   1.803   5.498  0.0074  0.9526 -0.5623
  730MOL0     C98448   8.107   1.668   5.494 -0.6471  0.4754 -0.3993
  730MOL0     C98449   8.155   1.591   5.392  0.1370 -0.0807  0.4969
  730MOL0     C98450   8.235   1.643   5.294 -0.3562 -0.2994 -0.5845
  730MOL0     O98451   8.303   1.575   5.185 -0.0012 -0.5158 -0.1809
  730MOL0     C98452   8.318   1.430   5.190 -0.6831 -0.5490 -0.0802
  730MOL0     C98453   8.307   1.390   5.048  1.0887  0.6520  0.0682
  730MOL0     C98454   8.314   1.234   5.048 -0.9115 -0.1678 -0.6870
  730MOL0     C98455   8.287   1.161   4.907  0.4625 -0.0806 -0.5144
  730MOL0     C98456   8.328   1.016   4.934 -0.0907 -0.8233  0.1726
  730MOL0     C98457   8.263   0.921   4.835  0.4813 -0.8454  0.1298
  730MOL0     C98458   8.291   0.938   4.685  0.6113  0.0466  0.8854
  730MOL0     C98459   8.199   0.845   4.590  0.4841  0.2553 -0.8664
  730MOL0    Cl98460   8.278   0.681   4.581  0.2815 -0.1633 -1.0688
  730MOL0     C98461   8.266   1.775   5.302 -0.4462 -0.1773  0.2370
  730MOL0     C98462   8.218   1.854   5.406 -0.6306 -0.5485  0.3766
  730MOL0     O98463   8.146   1.750   5.783  0.0661 -0.6464 -0.3723
  730MOL0     C98464   7.945   2.057   5.758 -0.2768 -0.8930  1.1515
  730MOL0     C98465   7.889   2.154   5.827  0.3717  0.2470 -0.3389
  730MOL0     N98466   8.225   2.662   6.065 -0.8865  0.5501 -0.4979
  730MOL0     N98467   8.301   2.758   6.036  0.3458  0.5230  0.1083
  730MOL0     C98468   8.952   3.624   6.266  0.3977 -0.4354 -0.1012
  730MOL0     C98469   9.085   3.646   6.314  0.4497  0.5827 -0.4426
  730MOL0     C98470   9.479   3.753   6.443  0.1129 -1.1946  0.6827
  730MOL0     C98471   9.501   3.890   6.461  0.1930 -0.3470  0.6584
  730MOL0     C98472   9.612   3.946   6.511 -1.2498  0.2891  0.3608
  730MOL0     C98473   9.718   3.866   6.541 -0.4239  0.3805 -0.6256
  730MOL0     O98474   9.828   3.938   6.590  0.6396  0.1205  0.5847
  730MOL0     C98475   9.941   3.853   6.605 -0.0503  0.0084  0.3198
  730MOL0     C98476  10.053   3.952   6.649 -0.7257  0.6868 -0.8961
  730MOL0     C98477  10.189   3.899   6.671 -0.2353 -0.8309 -0.1947
  730MOL0     C98478  10.289   3.999   6.737  0.4518  0.0771 -0.0653
  730MOL0     C98479  10.337   4.100   6.635  0.2284 -0.3452 -0.2221
  730MOL0     C98480  10.377   4.191   6.562 -0.2485  0.1566 -0.0906
  730MOL0     C98481   9.698   3.719   6.531  0.0609 -0.6254  0.4547
  730MOL0     C98482   9.571   3.666   6.496  0.1709 -0.0748  0.3222
  730MOL0     H98483   9.117   3.953   6.196 -0.7677  1.5298  2.0744
  730MOL0     H98484   8.903   3.903   6.101 -1.4846 -3.1753 -1.9367
  730MOL0     H98485   8.754   3.482   6.138 -2.3270 -0.6540 -0.5302
  730MOL0     H98486   8.633   3.583   6.227 -0.4246 -0.5268 -0.4721
  730MOL0     H98487   8.516   3.633   6.028 -1.9141 -1.8446  3.6284
  730MOL0     H98488   8.638   3.577   5.917 -1.4144  1.2130 -0.5985
  730MOL0     H98489   8.615   3.346   6.000 -0.4525  0.6621 -1.2083
  730MOL0     H98490   8.483   3.409   6.103 -1.0441 -1.6202 -0.3082
  730MOL0     H98491   8.365   3.491   5.897 -1.4470 -0.3814 -0.0039
  730MOL0     H98492   8.493   3.399   5.799 -3.7111 -2.1222 -1.4344
  730MOL0     H98493   8.337   3.263   6.026 -0.3099  2.6453  1.1067
  730MOL0     H98494   8.259   3.291   5.886 -0.0303 -0.4106  0.8196
  730MOL0     H98495   8.400   3.197   5.735  1.9563 -0.3570  0.0075
  730MOL0     H98496   8.504   3.125   5.866  0.0303  1.5828  0.1563
  730MOL0     H98497   8.224   3.067   5.790  1.1566 -1.0850 -3.6578
  730MOL0     H98498   8.334   2.942   5.792 -1.6982 -1.6712  0.1360
  730MOL0     H98499   8.219   3.071   6.042  0.5296 -2.1746  3.3276
  730MOL0     H98500   8.386   3.019   6.045  1.8402 -0.9794 -2.9596
  730MOL0     H98501   8.033   2.922   6.119  1.2824  0.6834 -0.3232
  730MOL0     H98502   8.014   2.627   6.277 -1.8266  0.7571  0.2800
  730MOL0     H98503   7.897   2.705   6.162  1.6227  1.7637 -1.3071
  730MOL0     H98504   8.045   2.434   6.147  2.9725  1.3642 -2.9317
  730MOL0     H98505   7.946   2.498   6.011 -1.2853  1.4158  0.9647
  730MOL0     H98506   7.749   2.464   6.117  1.5781 -0.0385 -1.3799
  730MOL0     H98507   7.823   2.464   6.286 -3.5241 -3.4161  1.0563
  730MOL0     H98508   7.747   2.236   6.208 -0.4354  1.2739 -1.1203
  730MOL0     H98509   7.930   2.246   6.207  0.5119 -0.4598 -2.0570
  730MOL0     H98510   7.897   2.024   6.137 -0.9774 -1.3131 -1.1361
  730MOL0     H98511   8.135   1.783   6.032  0.5439 -0.9052  2.4476
  730MOL0     H98512   8.030   1.840   6.153  5.1077  0.7620  0.0801
  730MOL0     H98513   7.974   1.724   6.024  1.1683 -0.8485 -0.6266
  730MOL0     H98514   8.029   1.633   5.561 -2.5894  1.5494 -1.9772
  730MOL0     H98515   8.107   1.495   5.377 -1.9872  0.8469  0.9537
  730MOL0     H98516   8.416   1.399   5.229 -0.6017 -0.1202  0.0639
  730MOL0     H98517   8.237   1.386   5.248  1.9649 -1.0120  3.7087
  730MOL0     H98518   8.208   1.423   5.015  1.5105  0.8586 -1.0260
  730MOL0     H98519   8.378   1.433   4.977  1.3271  1.3334  0.7118
  730MOL0     H98520   8.237   1.201   5.117 -1.8753 -1.0126 -2.1075
  730MOL0     H98521   8.417   1.208   5.076 -0.2417  1.9208 -1.0459
  730MOL0     H98522   8.181   1.179   4.887  0.4175  1.1085  0.7172
  730MOL0     H98523   8.344   1.203   4.824  1.3553  2.7872  1.3897
  730MOL0     H98524   8.303   0.991   5.037 -1.2055 -0.4165  0.0104
  730MOL0     H98525   8.436   1.021   4.917 -0.2831  0.8780 -0.7106
  730MOL0     H98526   8.294   0.825   4.878  1.1732 -0.4000  0.6467
  730MOL0     H98527   8.154   0.920   4.834  0.3233 -2.7999  3.5861
  730MOL0     H98528   8.395   0.931   4.652 -0.1181  1.7567 -2.1991
  730MOL0     H98529   8.248   1.035   4.659 -1.5048 -1.2906 -0.9484
  730MOL0     H98530   8.202   0.893   4.491  2.0736  0.4749 -0.7424
  730MOL0     H98531   8.097   0.832   4.627 -0.6510  1.1201 -3.4147
  730MOL0     H98532   8.349   1.823   5.251 -0.4210 -1.2247 -0.7333
  730MOL0     H98533   8.256   1.956   5.415 -2.2480  0.3979 -2.2700
  730MOL0     H98534   7.963   2.069   5.652 -0.7441 -2.6134  0.8542
  730MOL0     H98535   7.872   2.251   5.781  5.0375  0.6066 -1.8142
  730MOL0     H98536   8.904   3.527   6.276 -1.8526  0.5180 -0.8034
  730MOL0     H98537   9.138   3.571   6.371  0.1553  1.7628  1.4587
  730MOL0     H98538   9.423   3.960   6.433 -0.5569 -1.4473 -0.1027
  730MOL0     H98539   9.616   4.050   6.541 -3.5404  1.1032 -1.7596
  730MOL0     H98540   9.929   3.765   6.669  0.1133 -0.2100  0.0513
  730MOL0     H98541   9.979   3.803   6.515  2.4152 -0.6136  1.6214
  730MOL0     H98542  10.027   4.002   6.743 -0.9688 -0.0815 -0.5503
  730MOL0     H98543  10.066   4.029   6.572  1.5170  2.6397  1.2528
  730MOL0     H98544  10.235   3.879   6.574 -3.5094  1.3346 -2.3834
  730MOL0     H98545  10.170   3.811   6.733 -4.6207  1.0995  1.6017
  730MOL0     H98546  10.368   3.945   6.790 -0.3432  0.2843  1.4188
  730MOL0     H98547  10.238   4.047   6.822  0.2749  0.0531 -0.1587
  730MOL0     H98548  10.402   4.278   6.505  5.1694 -1.8250 -1.3385
  730MOL0     H98549   9.776   3.655   6.572  1.5907  1.3844  0.8550
  730MOL0     H98550   9.560   3.560   6.481  3.0676 -0.2137 -1.8052
  731MOL0     O98551   9.525   3.264   0.530 -0.0225 -0.3434 -0.3973
  731MOL0     C98552   9.632   3.312   0.495  0.9132  0.3233  0.5965
  731MOL0     O98553   9.680   3.327   0.370  0.3815  0.7739  0.1473
  731MOL0     C98554   9.595   3.324   0.263  0.8613 -0.6151 -0.4362
  731MOL0     C98555   9.638   3.298   0.129 -0.3894  0.6395  0.3108
  731MOL0     C98556   9.548   3.304   0.015  0.7403 -0.3323 -0.0513
  731MOL0     C98557   9.404   3.314   0.042 -0.2294  1.0403  0.5100
  731MOL0     O98558   9.319   3.307  -0.059 -0.1733  0.9039 -0.1935
  731MOL0     C98559   9.216   3.207  -0.054 -0.6565 -0.0898  0.1330
  731MOL0     C98560   9.217   3.114  -0.167 -0.3593 -0.1801 -0.2271
  731MOL0     C98561   9.157   3.164  -0.295 -0.3585 -0.2645  0.1102
  731MOL0     C98562   9.233   3.131  -0.415  0.1432  0.5234 -0.0767
  731MOL0     C98563   9.168   3.180  -0.537  0.4957 -0.5312  1.4613
  731MOL0     C98564   9.250   3.172  -0.675 -0.2885 -0.2532  0.2926
  731MOL0     C98565   9.301   3.032  -0.718 -0.4014  0.2715 -0.7243
  731MOL0     C98566   9.186   2.948  -0.784  0.6894 -0.6268 -0.0905
  731MOL0     N98567   9.165   2.989  -0.921  0.0657 -0.2419  0.4316
  731MOL0     C98568   9.040   2.999  -0.974  0.1803 -0.5402 -1.0840
  731MOL0     C98569   9.063   3.008  -1.101 -0.4283  0.1258 -0.4751
  731MOL0     C98570   8.943   3.022  -1.186 -0.7492  0.8727 -0.7459
  731MOL0     C98571   8.955   2.902  -1.280 -0.3132 -0.2716 -0.6689
  731MOL0     C98572   8.834   2.906  -1.375 -0.5536  0.2362  0.0158
  731MOL0     C98573   8.831   2.795  -1.480  0.1406 -0.1932  0.0335
  731MOL0     O98574   8.706   2.805  -1.536 -0.3052  0.1436 -0.3785
  731MOL0     C98575   8.700   2.773  -1.672  0.3647  0.0182 -0.3868
  731MOL0     C98576   8.748   2.849  -1.777  0.1104 -0.5347 -0.7266
  731MOL0     C98577   8.717   2.832  -1.919  0.6986  0.4747 -0.1298
  731MOL0     C98578   8.786   2.917  -2.018 -0.1486  0.4927  0.2526
  731MOL0     C98579   8.642   2.712  -1.945 -1.0880  0.3916  0.3846
  731MOL0     C98580   8.617   2.647  -2.069 -0.2878 -0.2465  0.0788
  731MOL0     O98581   8.562   2.729  -2.161 -0.4987  0.2068 -0.7445
  731MOL0     C98582   8.548   2.667  -2.278  0.0003 -1.3365 -0.1636
  731MOL0     C98583   8.610   2.721  -2.382 -0.0503  0.6703  0.3291
  731MOL0     C98584   8.573   2.670  -2.509 -0.3594  0.9048  0.7207
  731MOL0     C98585   8.485   2.565  -2.530  0.3543  0.1678  0.0167
  731MOL0     O98586   8.448   2.504  -2.650  0.0137 -0.4314  0.0225
  731MOL0     C98587   8.512   2.559  -2.763 -0.4378 -0.4734  0.0755
  731MOL0     C98588   8.460   2.502  -2.895  0.2333 -0.5215  1.1929
  731MOL0     C98589   8.329   2.563  -2.932  0.6750 -0.4605 -0.1553
  731MOL0     C98590   8.269   2.493  -3.050 -0.0497  0.3430 -0.1326
  731MOL0     C98591   8.137   2.551  -3.114  0.2655 -0.2304  0.6575
  731MOL0     C98592   8.013   2.486  -3.049  0.6213 -0.0371 -0.9777
  731MOL0     C98593   7.929   2.413  -3.145  0.7924 -0.9478  0.2353
  731MOL0     C98594   7.808   2.344  -3.092  0.4605 -0.6598  0.3241
  731MOL0    Cl98595   7.869   2.193  -2.992  0.1130  0.0056  0.0375
  731MOL0     C98596   8.412   2.522  -2.417  0.2420 -0.4455  0.0701
  731MOL0     C98597   8.443   2.573  -2.288  1.1224 -0.7854  0.3272
  731MOL0     O98598   8.657   2.528  -2.087 -0.9195  0.3307  0.4162
  731MOL0     C98599   8.602   2.638  -1.839  0.5610 -0.3233 -0.3636
  731MOL0     C98600   8.628   2.671  -1.711 -0.1402 -1.2700 -0.5164
  731MOL0     N98601   9.198   2.999  -1.134 -1.1732  0.7869 -0.4260
  731MOL0     N98602   9.258   2.977  -1.022 -0.2743  0.8349 -0.2509
  731MOL0     C98603   9.359   3.348   0.165  0.7511 -0.2896 -0.0977
  731MOL0     C98604   9.447   3.358   0.277  0.4566  0.5151 -0.5143
  731MOL0     C98605   9.712   3.359   0.596  1.1268  0.2231  0.0395
  731MOL0     C98606   9.851   3.336   0.589  0.0105 -0.8147 -0.7266
  731MOL0     C98607   9.928   3.376   0.702 -0.2998 -0.8263 -0.2002
  731MOL0     C98608   9.863   3.414   0.821 -0.3336  0.0725 -0.2876
  731MOL0     O98609   9.938   3.449   0.938  0.3984 -0.0698  0.4157
  731MOL0     C98610  10.054   3.379   0.968 -0.7064 -0.0643  0.3139
  731MOL0     C98611  10.113   3.443   1.104 -0.1625 -0.1804 -0.1918
  731MOL0     C98612  10.238   3.526   1.098  0.0184 -0.2405  0.2925
  731MOL0     C98613  10.369   3.444   1.078 -0.2762 -0.0374 -0.6103
  731MOL0     C98614  10.377   3.402   0.938 -0.2541  0.6000 -0.2165
  731MOL0     C98615  10.375   3.348   0.830  0.1646 -0.9758  1.2100
  731MOL0     C98616   9.733   3.428   0.827  0.2942  0.3860  0.6018
  731MOL0     C98617   9.656   3.408   0.716  0.4057  0.1260 -0.0928
  731MOL0     H98618   9.742   3.269   0.121 -0.3830  0.9041 -0.6047
  731MOL0     H98619   9.594   3.289  -0.082 -1.3599  0.4130 -1.2184
  731MOL0     H98620   9.208   3.148   0.038 -5.7193  0.6886  0.4476
  731MOL0     H98621   9.119   3.257  -0.052 -2.1241 -2.6806  3.4062
  731MOL0     H98622   9.320   3.083  -0.184 -0.3613 -0.2178 -0.1719
  731MOL0     H98623   9.161   3.023  -0.144 -3.2497  1.8881  1.6450
  731MOL0     H98624   9.056   3.131  -0.322  0.7008 -1.5105 -2.7016
  731MOL0     H98625   9.151   3.274  -0.296  1.0152 -0.1611 -0.7282
  731MOL0     H98626   9.335   3.166  -0.401  1.4648 -2.9850  0.2964
  731MOL0     H98627   9.240   3.021  -0.418 -1.0458  0.4314 -0.2533
  731MOL0     H98628   9.083   3.111  -0.544  1.0873 -1.1662  0.0490
  731MOL0     H98629   9.128   3.282  -0.538  1.3497 -0.0644 -2.4499
  731MOL0     H98630   9.187   3.222  -0.749  0.9223  2.3809  0.9216
  731MOL0     H98631   9.335   3.237  -0.652 -1.5635  0.5619  3.1328
  731MOL0     H98632   9.369   3.051  -0.802 -0.3372  0.3499 -0.6554
  731MOL0     H98633   9.363   2.975  -0.648 -0.2229 -1.1809 -2.0228
  731MOL0     H98634   9.091   2.952  -0.730 -0.5571  0.8596 -2.2153
  731MOL0     H98635   9.220   2.845  -0.775  0.6233 -0.8353 -1.8023
  731MOL0     H98636   8.952   2.993  -0.910  2.1933 -0.5187  1.8693
  731MOL0     H98637   8.856   3.008  -1.122  1.5428 -2.6434  2.0375
  731MOL0     H98638   8.946   3.114  -1.245 -1.4471 -0.6337 -3.3105
  731MOL0     H98639   8.956   2.818  -1.209  0.2905  0.3079  0.0324
  731MOL0     H98640   9.049   2.909  -1.335  0.1471 -1.8935 -0.1643
  731MOL0     H98641   8.813   2.998  -1.431 -1.1667  0.5267  0.6969
  731MOL0     H98642   8.751   2.890  -1.305  2.4956 -2.7704  3.3960
  731MOL0     H98643   8.848   2.698  -1.432  0.2043  0.3716  1.1817
  731MOL0     H98644   8.906   2.822  -1.556  2.4311 -3.6339  0.8549
  731MOL0     H98645   8.811   2.931  -1.744  1.7238 -2.4068  1.2029
  731MOL0     H98646   8.746   3.019  -2.023 -0.3588  0.7416  3.8679
  731MOL0     H98647   8.891   2.921  -1.986  0.8541 -4.1232 -1.6516
  731MOL0     H98648   8.780   2.871  -2.117  4.3540 -1.5507  0.6530
  731MOL0     H98649   8.701   2.779  -2.370  2.5862 -3.0732  0.1853
  731MOL0     H98650   8.633   2.697  -2.595  1.1845 -3.4870  0.1495
  731MOL0     H98651   8.499   2.668  -2.764 -1.6738 -0.5678 -1.9164
  731MOL0     H98652   8.618   2.540  -2.748 -0.5000 -1.3240 -0.5185
  731MOL0     H98653   8.530   2.539  -2.970  0.2610 -0.9005  1.0315
  731MOL0     H98654   8.458   2.393  -2.893 -1.2171 -0.6799 -2.2169
  731MOL0     H98655   8.335   2.672  -2.945 -1.4355 -0.2005  0.5943
  731MOL0     H98656   8.260   2.536  -2.852  0.1294  0.3106 -0.3470
  731MOL0     H98657   8.341   2.501  -3.133 -0.7638 -3.2614 -1.2477
  731MOL0     H98658   8.264   2.385  -3.035 -1.1233  0.5493  1.1279
  731MOL0     H98659   8.130   2.529  -3.221  2.6915 -2.8497  0.9343
  731MOL0     H98660   8.125   2.659  -3.103 -0.3697 -0.4638  2.6713
  731MOL0     H98661   8.044   2.414  -2.972  1.2271  1.0509 -0.1879
  731MOL0     H98662   7.957   2.566  -3.001  0.6413 -0.3887 -0.3458
  731MOL0     H98663   7.979   2.342  -3.212 -1.7019 -0.5892 -2.1473
  731MOL0     H98664   7.895   2.487  -3.218  1.7287 -0.0565  0.6647
  731MOL0     H98665   7.750   2.303  -3.176 -0.1773 -0.1588  0.5129
  731MOL0     H98666   7.751   2.413  -3.030  1.1554  1.2751 -1.0982
  731MOL0     H98667   8.337   2.446  -2.434 -1.9243  2.0895 -2.8208
  731MOL0     H98668   8.378   2.556  -2.203  1.0245 -1.4794  0.1201
  731MOL0     H98669   8.550   2.543  -1.843  1.7094 -1.1556  2.4503
  731MOL0     H98670   8.563   2.624  -1.638 -2.4743 -1.0263 -2.3246
  731MOL0     H98671   9.254   3.373   0.180  0.6153 -0.0849 -1.2884
  731MOL0     H98672   9.399   3.393   0.368  0.4405 -1.7890  0.4246
  731MOL0     H98673   9.892   3.291   0.499  0.6704  0.2997 -1.0108
  731MOL0     H98674  10.033   3.361   0.677 -0.4921  2.2430 -3.6581
  731MOL0     H98675  10.033   3.272   0.970  1.2249 -0.4842  2.0531
  731MOL0     H98676  10.124   3.381   0.884 -2.2676  3.7875 -1.1283
  731MOL0     H98677  10.150   3.363   1.168 -1.4961  0.9141  2.0800
  731MOL0     H98678  10.047   3.506   1.164  1.9454  0.2022  1.8750
  731MOL0     H98679  10.268   3.583   1.186  0.7255  0.3118 -0.2860
  731MOL0     H98680  10.218   3.607   1.027  2.1636  0.9550  0.9418
  731MOL0     H98681  10.370   3.353   1.139 -0.1779  2.3411  3.2514
  731MOL0     H98682  10.455   3.507   1.102 -1.9623  2.2405 -0.2376
  731MOL0     H98683  10.369   3.318   0.728 -3.0296  0.1411  0.9596
  731MOL0     H98684   9.683   3.463   0.916 -0.7145  3.0896 -0.9169
  731MOL0     H98685   9.550   3.426   0.729  0.3111 -0.3275 -0.2034
  732MOL0     O98686   5.633   6.962  10.275 -0.0950  0.3595  0.2149
  732MOL0     C98687   5.635   6.849  10.220  0.1956 -0.6212 -0.8158
  732MOL0     O98688   5.548   6.793  10.139  0.1359  0.4178 -0.5835
  732MOL0     C98689   5.425   6.843  10.130 -0.9606  0.3396 -0.0555
  732MOL0     C98690   5.351   6.923  10.225  0.0721 -0.3854  0.6142
  732MOL0     C98691   5.224   6.951  10.180  0.5833 -0.1651 -0.0966
  732MOL0     C98692   5.159   6.921  10.060 -0.1664 -0.4670  0.7851
  732MOL0     O98693   5.035   6.976  10.036 -0.3974  0.3154  0.1540
  732MOL0     C98694   4.940   6.869  10.048 -0.0821  0.3245 -0.1502
  732MOL0     C98695   4.811   6.913   9.980 -0.2196  0.7648  0.2527
  732MOL0     C98696   4.824   6.930   9.831  0.1290 -0.4024  0.3060
  732MOL0     C98697   4.711   7.018   9.762 -0.6713 -0.7289  0.9552
  732MOL0     C98698   4.681   6.999   9.615 -0.0724 -0.1805 -0.0269
  732MOL0     C98699   4.615   6.866   9.577 -0.2218  0.5287  0.4704
  732MOL0     C98700   4.473   6.852   9.645  0.3394 -0.0526  0.0664
  732MOL0     C98701   4.379   6.763   9.571  0.3891  0.3481  0.5981
  732MOL0     N98702   4.236   6.755   9.624  0.5240  0.0904  0.2623
  732MOL0     C98703   4.105   6.782   9.566  0.3219 -0.2854  0.3163
  732MOL0     C98704   4.017   6.725   9.647 -0.7187  0.1658 -0.9683
  732MOL0     C98705   3.866   6.745   9.635 -0.4007  0.2181  0.1425
  732MOL0     C98706   3.802   6.698   9.497 -0.3878 -0.1231  0.1649
  732MOL0     C98707   3.855   6.554   9.464  0.3301 -0.5787  1.0633
  732MOL0     C98708   3.783   6.503   9.337 -0.3190  0.5044 -0.9278
  732MOL0     O98709   3.638   6.469   9.362  0.7910  0.1463  0.4168
  732MOL0     C98710   3.592   6.338   9.376  0.8910 -1.2967 -0.5844
  732MOL0     C98711   3.456   6.302   9.356  0.4669 -1.2459  0.2851
  732MOL0     C98712   3.398   6.176   9.387 -0.3651  0.3568 -0.1576
  732MOL0     C98713   3.262   6.140   9.333  0.4828  1.1054  0.0612
  732MOL0     C98714   3.489   6.075   9.448  0.0610  0.2701  0.0863
  732MOL0     C98715   3.453   5.935   9.485 -1.5371 -1.0146  0.6049
  732MOL0     O98716   3.549   5.832   9.498  0.6814 -0.7206 -0.1511
  732MOL0     C98717   3.505   5.718   9.547  0.5228 -0.0019 -0.5078
  732MOL0     C98718   3.512   5.605   9.470 -0.0528 -0.6024 -0.4858
  732MOL0     C98719   3.504   5.481   9.527  0.5691  0.0549  0.0669
  732MOL0     C98720   3.470   5.472   9.664 -0.0551  0.2175 -0.0414
  732MOL0     O98721   3.481   5.358   9.735 -0.0428 -0.8904 -0.1079
  732MOL0     C98722   3.601   5.292   9.705 -0.5920  1.4171  0.8600
  732MOL0     C98723   3.662   5.235   9.837  0.2064 -0.5129  0.9001
  732MOL0     C98724   3.709   5.350   9.944  0.7008  0.4961  0.6997
  732MOL0     C98725   3.605   5.397  10.055  0.7569  0.7866  0.0256
  732MOL0     C98726   3.634   5.532  10.120  1.1176 -0.5253 -0.1525
  732MOL0     C98727   3.504   5.613  10.149 -0.4463 -0.5214 -0.7299
  732MOL0     C98728   3.396   5.559  10.238  0.4202 -0.7904 -0.1179
  732MOL0     C98729   3.261   5.628  10.202 -0.2032 -0.0083  0.0026
  732MOL0    Cl98730   3.208   5.584  10.032 -0.2107  0.2582 -0.3478
  732MOL0     C98731   3.437   5.586   9.740 -0.8972  0.1187  0.2939
  732MOL0     C98732   3.463   5.709   9.683  0.5569 -0.7084 -0.8958
  732MOL0     O98733   3.333   5.922   9.503  0.7631  0.6082 -0.4305
  732MOL0     C98734   3.620   6.110   9.462 -1.2448 -0.1496  0.6851
  732MOL0     C98735   3.672   6.241   9.428 -0.2051 -0.6063 -0.9276
  732MOL0     N98736   4.081   6.662   9.746  0.1203 -0.9268  0.9194
  732MOL0     N98737   4.209   6.673   9.725  0.7047  1.3012  0.6941
  732MOL0     C98738   5.237   6.845   9.971 -0.0247 -1.0316 -0.7928
  732MOL0     C98739   5.366   6.807  10.009  0.5978 -0.2116 -0.1346
  732MOL0     C98740   5.740   6.775  10.277 -0.6162 -0.4177 -0.3048
  732MOL0     C98741   5.866   6.823  10.304 -0.0949 -0.1924 -1.0854
  732MOL0     C98742   5.969   6.746  10.356  0.2266 -0.3118  0.2816
  732MOL0     C98743   5.957   6.605  10.379  0.7074 -1.1212  0.9730
  732MOL0     O98744   6.039   6.513  10.437  0.3960  0.3334  0.6139
  732MOL0     C98745   6.184   6.545  10.436 -0.2828 -0.0949 -0.2273
  732MOL0     C98746   6.230   6.648  10.538 -0.4600  0.4420  0.9678
  732MOL0     C98747   6.336   6.585  10.622  0.1471  0.6469  0.2803
  732MOL0     C98748   6.394   6.674  10.725 -0.1590 -0.1449 -0.4530
  732MOL0     C98749   6.473   6.771  10.641  0.2750  0.1247 -0.4380
  732MOL0     C98750   6.544   6.853  10.593  0.3015 -0.2643  0.1746
  732MOL0     C98751   5.827   6.555  10.352  0.7167  0.4086  0.3794
  732MOL0     C98752   5.722   6.643  10.310  0.3455 -0.3476 -0.7511
  732MOL0     H98753   5.386   6.932  10.327 -2.5235 -1.2831  1.6759
  732MOL0     H98754   5.157   7.002  10.248  0.9365 -1.4347  1.2512
  732MOL0     H98755   4.974   6.775  10.003 -2.2662  0.5000 -2.3655
  732MOL0     H98756   4.907   6.844  10.149  0.8209 -0.5527 -0.0517
  732MOL0     H98757   4.735   6.843  10.016 -1.7951  2.7055  0.9301
  732MOL0     H98758   4.799   7.011  10.028 -0.6649 -0.4636  2.8105
  732MOL0     H98759   4.915   6.986   9.809 -0.6446  0.5985 -0.4280
  732MOL0     H98760   4.830   6.826   9.796  0.4175 -0.5364  0.7446
  732MOL0     H98761   4.618   7.013   9.821 -0.0010  0.7595  2.2197
  732MOL0     H98762   4.750   7.117   9.788 -1.3624 -0.8852  2.7557
  732MOL0     H98763   4.621   7.086   9.583 -1.2262 -0.4784  1.2417
  732MOL0     H98764   4.775   7.020   9.563  1.0793 -2.7250  0.8753
  732MOL0     H98765   4.616   6.836   9.472  2.0391 -1.4145  0.9550
  732MOL0     H98766   4.668   6.792   9.637 -1.6113 -0.2558  0.7718
  732MOL0     H98767   4.483   6.810   9.746 -1.1498 -1.8785 -0.5170
  732MOL0     H98768   4.424   6.949   9.661  1.7654  0.7734 -0.3505
  732MOL0     H98769   4.417   6.661   9.581 -0.7054 -0.0324  0.9393
  732MOL0     H98770   4.378   6.789   9.464  3.0378 -2.8286 -0.3755
  732MOL0     H98771   4.098   6.838   9.473 -0.0557  0.3433  0.7157
  732MOL0     H98772   3.799   6.708   9.712 -1.8058  2.4530  0.0913
  732MOL0     H98773   3.839   6.851   9.637 -2.8714 -0.3084  3.6447
  732MOL0     H98774   3.837   6.759   9.413  1.3570  0.5535  1.3361
  732MOL0     H98775   3.693   6.702   9.509 -0.2000 -0.7589  2.7884
  732MOL0     H98776   3.834   6.480   9.541 -1.4191  0.0279  1.2069
  732MOL0     H98777   3.960   6.554   9.433 -0.4559 -0.0185 -1.9896
  732MOL0     H98778   3.831   6.414   9.296 -0.5458 -0.9901  1.8002
  732MOL0     H98779   3.785   6.575   9.256 -1.6927  2.9533  1.0787
  732MOL0     H98780   3.388   6.376   9.316  0.9033  0.1282  1.9699
  732MOL0     H98781   3.274   6.044   9.281  0.6184  1.4208 -0.5107
  732MOL0     H98782   3.185   6.133   9.410 -0.0018 -0.3650 -0.5128
  732MOL0     H98783   3.219   6.199   9.251  3.6694  0.3709 -2.3567
  732MOL0     H98784   3.550   5.607   9.368  1.7689  1.7753  0.1513
  732MOL0     H98785   3.519   5.409   9.447 -1.3884  0.6063 -0.8816
  732MOL0     H98786   3.572   5.213   9.635 -0.4812  2.3145 -0.2295
  732MOL0     H98787   3.677   5.358   9.662 -0.8706  2.2569  1.6156
  732MOL0     H98788   3.583   5.174   9.881 -1.3635 -0.3973 -1.5503
  732MOL0     H98789   3.742   5.166   9.809  0.4118  0.2645 -0.5235
  732MOL0     H98790   3.723   5.435   9.877 -0.7252 -0.8705 -1.4432
  732MOL0     H98791   3.796   5.321  10.005 -0.8646  2.4475  4.1350
  732MOL0     H98792   3.512   5.412   9.999 -0.2694 -5.2580 -0.4945
  732MOL0     H98793   3.577   5.313  10.118  0.4096  0.4231 -0.6045
  732MOL0     H98794   3.700   5.593  10.058 -2.2806  2.5022 -1.1743
  732MOL0     H98795   3.688   5.529  10.215 -0.5518  2.4924  1.0335
  732MOL0     H98796   3.537   5.701  10.205 -0.7541 -0.4876 -0.5974
  732MOL0     H98797   3.469   5.637  10.048  0.0376  3.8643 -0.0622
  732MOL0     H98798   3.422   5.587  10.341 -1.8418  1.6015 -0.0985
  732MOL0     H98799   3.384   5.452  10.217 -1.7073 -1.0340  1.8368
  732MOL0     H98800   3.269   5.736  10.211  1.5450  0.2224 -2.9151
  732MOL0     H98801   3.180   5.583  10.261 -0.5114 -1.7576 -1.6276
  732MOL0     H98802   3.420   5.572   9.846  0.2580 -0.3716  0.4275
  732MOL0     H98803   3.449   5.792   9.752  1.0443 -0.8944 -0.5644
  732MOL0     H98804   3.689   6.038   9.504  0.1429  0.8343  0.1810
  732MOL0     H98805   3.776   6.269   9.442 -0.3579 -0.2294 -0.5030
  732MOL0     H98806   5.201   6.839   9.869 -1.8917  0.0879 -0.2474
  732MOL0     H98807   5.432   6.751   9.943  0.5284  2.0520 -2.2807
  732MOL0     H98808   5.872   6.929  10.282 -3.9555  1.1344  2.7531
  732MOL0     H98809   6.067   6.780  10.387  0.8210 -1.1456 -0.6282
  732MOL0     H98810   6.223   6.445  10.460  0.3038  0.0767 -0.4533
  732MOL0     H98811   6.213   6.567  10.333  1.2606  0.1114  0.2230
  732MOL0     H98812   6.149   6.676  10.606 -1.3542 -2.5460  1.2300
  732MOL0     H98813   6.267   6.738  10.487 -1.2038 -1.0112 -2.3384
  732MOL0     H98814   6.412   6.557  10.548 -1.0503  0.3975 -0.8975
  732MOL0     H98815   6.292   6.496  10.669 -2.2858  0.8257 -1.4759
  732MOL0     H98816   6.464   6.618  10.787  1.2594  2.4304  0.4211
  732MOL0     H98817   6.310   6.707  10.787 -2.0100 -0.0211 -2.8727
  732MOL0     H98818   6.610   6.925  10.549 -0.5234  0.3597 -0.0855
  732MOL0     H98819   5.810   6.454  10.390 -0.3457  0.7765  0.9295
  732MOL0     H98820   5.623   6.598  10.309  0.2444 -0.2170  0.8946
  733MOL0     O98821   5.725  10.843   0.188  0.7885  1.5131  0.1018
  733MOL0     C98822   5.777  10.814   0.287  0.1392 -0.0678 -0.1439
  733MOL0     O98823   5.738  10.864   0.407  0.7563 -0.1342 -0.1036
  733MOL0     C98824   5.623  10.936   0.431 -0.3743  0.0730 -0.1247
  733MOL0     C98825   5.627  11.062   0.491 -0.3518 -0.1463 -0.0579
  733MOL0     C98826   5.507  11.146   0.513 -0.3636 -0.2123 -0.3083
  733MOL0     C98827   5.382  11.092   0.477  0.0219  1.1079 -0.0455
  733MOL0     O98828   5.263  11.151   0.518 -0.1431 -1.3337  0.0523
  733MOL0     C98829   5.256  11.288   0.547 -0.1129 -0.1991  0.4411
  733MOL0     C98830   5.111  11.347   0.533 -0.1901  0.0440  0.2566
  733MOL0     C98831   5.020  11.284   0.426 -0.6415  0.1728 -0.7757
  733MOL0     C98832   4.897  11.368   0.415  0.3366 -0.5652  0.2579
  733MOL0     C98833   4.793  11.329   0.517 -0.0641 -0.2728 -0.0289
  733MOL0     C98834   4.651  11.361   0.467 -0.9860 -0.5089 -0.0795
  733MOL0     C98835   4.551  11.303   0.563  1.3093 -0.0260  0.2010
  733MOL0     C98836   4.550  11.339   0.707  0.2921 -0.5503 -1.3393
  733MOL0     N98837   4.430  11.289   0.776 -0.6747  0.2551 -0.0585
  733MOL0     C98838   4.352  11.377   0.848 -0.5708  0.4866 -0.6569
  733MOL0     C98839   4.274  11.296   0.920  1.0051  0.6224  0.1675
  733MOL0     C98840   4.164  11.345   1.002  0.1206  0.9088 -0.2322
  733MOL0     C98841   4.182  11.315   1.150 -0.5196  0.1582  0.0014
  733MOL0     C98842   4.096  11.406   1.237 -0.2884  0.3667  0.8773
  733MOL0     C98843   4.152  11.425   1.373  0.4912  0.3185 -0.4116
  733MOL0     O98844   4.271  11.511   1.369  0.3897  0.4912  1.0408
  733MOL0     C98845   4.322  11.568   1.486  0.4981 -0.0367 -0.2840
  733MOL0     C98846   4.389  11.683   1.477 -1.0412 -0.0012 -0.7249
  733MOL0     C98847   4.449  11.742   1.583 -0.2905 -0.3284  0.2683
  733MOL0     C98848   4.491  11.882   1.572 -0.6712  0.4192 -0.2004
  733MOL0     C98849   4.444  11.685   1.711  1.4795 -0.4829 -0.4952
  733MOL0     C98850   4.474  11.754   1.834 -0.3565  0.0887 -0.5218
  733MOL0     O98851   4.597  11.744   1.897  0.5243 -0.8228  0.4333
  733MOL0     C98852   4.709  11.734   1.836 -0.3157  0.0863  0.0841
  733MOL0     C98853   4.792  11.835   1.860  0.1732 -0.5057 -0.3865
  733MOL0     C98854   4.922  11.832   1.798 -0.5016 -0.5080  0.9528
  733MOL0     C98855   4.967  11.733   1.707 -0.8428 -0.5702 -0.8291
  733MOL0     O98856   5.095  11.715   1.645  1.1326 -0.4138 -1.9416
  733MOL0     C98857   5.205  11.747   1.729  0.2017 -0.2151  0.5294
  733MOL0     C98858   5.335  11.711   1.651 -0.5637  0.3961  0.8405
  733MOL0     C98859   5.336  11.763   1.501  0.0729 -0.1910  0.3970
  733MOL0     C98860   5.410  11.897   1.500 -0.4760  0.5630 -0.3814
  733MOL0     C98861   5.400  11.973   1.364  0.1329 -0.5152  0.3055
  733MOL0     C98862   5.258  12.022   1.342  0.2731  0.3349  0.2061
  733MOL0     C98863   5.249  12.118   1.225 -0.4721  1.0481 -0.4476
  733MOL0     C98864   5.101  12.123   1.182  0.3923 -0.5950 -0.9580
  733MOL0    Cl98865   4.993  12.138   1.323 -0.0135 -0.3389  0.0179
  733MOL0     C98866   4.879  11.631   1.681  0.0705 -0.3785  0.5855
  733MOL0     C98867   4.753  11.628   1.744  0.8268 -0.3526  0.2354
  733MOL0     O98868   4.393  11.833   1.869  0.3039 -0.8068 -0.0755
  733MOL0     C98869   4.395  11.551   1.716 -0.3584 -0.8105  0.3048
  733MOL0     C98870   4.334  11.498   1.605  0.1132  1.1699  0.5978
  733MOL0     N98871   4.296  11.162   0.883 -0.2172  0.0531  0.0956
  733MOL0     N98872   4.390  11.160   0.797 -0.2497 -0.8617 -0.5005
  733MOL0     C98873   5.376  10.954   0.432  0.3151  0.2259 -0.6708
  733MOL0     C98874   5.493  10.886   0.411  0.5684 -1.0219 -0.0835
  733MOL0     C98875   5.896  10.733   0.291 -1.8092 -0.2706 -0.2225
  733MOL0     C98876   5.961  10.694   0.410  1.3955 -0.6528  0.5602
  733MOL0     C98877   6.081  10.632   0.414  0.1108  0.1575  0.6135
  733MOL0     C98878   6.145  10.598   0.293  0.6092  0.7286  0.9999
  733MOL0     O98879   6.254  10.523   0.284 -0.2597 -1.2192  0.5419
  733MOL0     C98880   6.339  10.518   0.403 -0.2771  0.4031 -0.4652
  733MOL0     C98881   6.451  10.411   0.398  0.8168  0.1514  0.1217
  733MOL0     C98882   6.534  10.421   0.264  0.5593 -0.4562  0.1150
  733MOL0     C98883   6.672  10.354   0.279  0.5833 -0.0135  1.0838
  733MOL0     C98884   6.745  10.333   0.154  0.7937  0.6107 -0.1294
  733MOL0     C98885   6.796  10.330   0.035  0.0516 -0.4919 -0.2994
  733MOL0     C98886   6.088  10.626   0.172 -0.1971 -0.1616 -0.1163
  733MOL0     C98887   5.965  10.696   0.172 -0.1864  0.3018 -0.8836
  733MOL0     H98888   5.726  11.101   0.513 -0.4964  0.7978 -0.9774
  733MOL0     H98889   5.524  11.223   0.588  1.9734 -2.7235  1.9871
  733MOL0     H98890   5.304  11.309   0.643  0.6507 -0.7224  0.1848
  733MOL0     H98891   5.319  11.342   0.475 -0.5752  0.0473  0.2171
  733MOL0     H98892   5.059  11.313   0.622 -0.4301  2.6546  1.2112
  733MOL0     H98893   5.118  11.454   0.556  2.7097 -0.9023  5.4253
  733MOL0     H98894   5.079  11.287   0.334  0.9149  2.4689  0.2047
  733MOL0     H98895   5.001  11.178   0.443  2.1808 -0.1560  0.9573
  733MOL0     H98896   4.922  11.471   0.442 -1.0672 -0.3092  0.6646
  733MOL0     H98897   4.863  11.361   0.311 -3.8178 -0.2699  1.3940
  733MOL0     H98898   4.783  11.223   0.541 -1.1807 -0.2394 -0.2749
  733MOL0     H98899   4.820  11.386   0.606  2.5951 -0.8632 -0.3815
  733MOL0     H98900   4.642  11.470   0.463  2.2864 -0.1735 -1.2422
  733MOL0     H98901   4.631  11.314   0.370 -1.3054  0.6940 -0.6249
  733MOL0     H98902   4.448  11.320   0.530  1.0892  2.4892  1.8798
  733MOL0     H98903   4.556  11.194   0.561  0.7291 -0.0583  0.4147
  733MOL0     H98904   4.538  11.445   0.732 -0.8698 -1.1787  1.1044
  733MOL0     H98905   4.639  11.312   0.765 -0.2398  0.3261 -0.0533
  733MOL0     H98906   4.360  11.485   0.856 -0.2002  0.3690  0.9454
  733MOL0     H98907   4.162  11.454   0.998 -3.4786  1.0375  0.9431
  733MOL0     H98908   4.063  11.316   0.971 -0.8587  2.0027  1.7248
  733MOL0     H98909   4.286  11.322   1.183 -1.1775 -0.3162  2.3962
  733MOL0     H98910   4.154  11.211   1.173  1.3655 -0.4646 -0.3188
  733MOL0     H98911   3.993  11.367   1.239 -0.0219 -0.3557  0.5651
  733MOL0     H98912   4.087  11.505   1.191  0.9050  0.0336 -0.1258
  733MOL0     H98913   4.171  11.329   1.423 -2.0383  0.8121  1.7083
  733MOL0     H98914   4.087  11.480   1.441  0.9318 -0.9663  1.1152
  733MOL0     H98915   4.393  11.740   1.384  0.4593  2.1348  0.5420
  733MOL0     H98916   4.567  11.889   1.493  2.1358 -2.5752  1.9643
  733MOL0     H98917   4.407  11.945   1.540 -3.2450 -2.2426  0.9360
  733MOL0     H98918   4.539  11.915   1.664 -0.7632  0.9920 -0.3489
  733MOL0     H98919   4.779  11.913   1.935  1.6501  0.5634 -1.1812
  733MOL0     H98920   4.991  11.912   1.822 -0.0619 -1.2947  2.4524
  733MOL0     H98921   5.207  11.851   1.762  1.8006  0.7662 -2.3076
  733MOL0     H98922   5.195  11.681   1.816  0.7592  1.9576  2.3214
  733MOL0     H98923   5.418  11.762   1.700  1.6962  1.1564 -3.2671
  733MOL0     H98924   5.343  11.602   1.643 -0.7366  0.4936 -1.7992
  733MOL0     H98925   5.236  11.761   1.458 -0.3298 -0.1572  1.2971
  733MOL0     H98926   5.388  11.695   1.433 -2.8622 -1.4107 -0.7982
  733MOL0     H98927   5.362  11.947   1.585 -1.9783  0.2424 -1.0079
  733MOL0     H98928   5.515  11.872   1.521 -1.2925 -3.0660  0.1276
  733MOL0     H98929   5.431  11.904   1.285 -0.8203 -1.2172  0.5189
  733MOL0     H98930   5.476  12.051   1.357 -1.0813  0.6934  0.2136
  733MOL0     H98931   5.182  11.945   1.323 -0.8934  1.6870 -0.8241
  733MOL0     H98932   5.226  12.082   1.428 -0.0297  1.2641 -0.5299
  733MOL0     H98933   5.313  12.077   1.145  1.1297 -1.1562  1.8132
  733MOL0     H98934   5.281  12.217   1.258  2.1048  1.3387 -3.3367
  733MOL0     H98935   5.069  12.027   1.140 -1.7308 -0.5838  0.4472
  733MOL0     H98936   5.080  12.205   1.112 -3.9250  0.1604  0.8646
  733MOL0     H98937   4.909  11.559   1.606 -2.1503  1.8417 -2.6634
  733MOL0     H98938   4.688  11.543   1.728 -1.9562  0.8500  3.8457
  733MOL0     H98939   4.372  11.500   1.809 -1.7324 -0.4791  0.1634
  733MOL0     H98940   4.280  11.406   1.625 -1.0189  1.2223 -1.7769
  733MOL0     H98941   5.275  10.916   0.420 -0.3906  1.2170  1.5669
  733MOL0     H98942   5.486  10.781   0.385  1.3259 -0.7118 -1.6920
  733MOL0     H98943   5.916  10.727   0.503 -0.2809  0.4530 -0.5787
  733MOL0     H98944   6.123  10.604   0.510  1.7376  1.8519  0.4507
  733MOL0     H98945   6.400  10.608   0.417  0.4223 -0.3404  1.7198
  733MOL0     H98946   6.269  10.487   0.482 -0.8923  2.1741 -0.2888
  733MOL0     H98947   6.409  10.311   0.391  1.2769  0.1016 -3.9642
  733MOL0     H98948   6.504  10.437   0.491 -0.1462  2.6986  0.0336
  733MOL0     H98949   6.544  10.522   0.224 -2.8727 -1.0363 -2.5948
  733MOL0     H98950   6.477  10.374   0.184 -0.7745 -0.5032  1.0582
  733MOL0     H98951   6.662  10.254   0.324 -0.4530 -0.6096 -0.4004
  733MOL0     H98952   6.730  10.411   0.352 -0.3184  1.2125  0.8765
  733MOL0     H98953   6.847  10.330  -0.059 -0.2707 -0.1430 -0.4749
  733MOL0     H98954   6.142  10.589   0.086  4.7080 -1.8300  3.2721
  733MOL0     H98955   5.922  10.727   0.077 -2.9791  2.2366  0.8348
  734MOL0     O98956   1.969   6.573   7.488 -0.7094  0.0505  0.4607
  734MOL0     C98957   1.855   6.595   7.524  0.0628  1.0613  0.1547
  734MOL0     O98958   1.782   6.698   7.473 -1.3809 -0.0031  0.7471
  734MOL0     C98959   1.827   6.790   7.378 -0.3536  0.2210  0.1313
  734MOL0     C98960   1.945   6.790   7.311 -0.7692 -0.1499 -0.6471
  734MOL0     C98961   1.982   6.892   7.216 -0.7573 -0.6576  0.5546
  734MOL0     C98962   1.889   6.997   7.198  0.1472 -0.5974 -0.4759
  734MOL0     O98963   1.914   7.110   7.126  0.2380  0.1632 -0.0285
  734MOL0     C98964   1.984   7.089   7.009  0.2723  0.2065  0.0897
  734MOL0     C98965   1.896   7.019   6.898  0.5420  0.0603 -0.0960
  734MOL0     C98966   1.965   7.043   6.757 -0.0069  0.0102 -0.3202
  734MOL0     C98967   2.081   6.943   6.730 -0.1692  0.3617 -1.5061
  734MOL0     C98968   2.163   7.007   6.615  0.6659  0.4743 -0.4691
  734MOL0     C98969   2.308   6.949   6.610  1.0804  0.3570  0.2986
  734MOL0     C98970   2.377   6.991   6.478  0.0834 -0.5213 -0.7477
  734MOL0     C98971   2.520   6.921   6.444 -0.4667 -0.3479  0.7547
  734MOL0     N98972   2.604   7.024   6.390 -0.9891 -0.1818 -1.1619
  734MOL0     C98973   2.590   7.095   6.278 -0.5148  0.0483 -0.6050
  734MOL0     C98974   2.705   7.159   6.254 -0.6607  0.0495 -0.1742
  734MOL0     C98975   2.710   7.222   6.119  0.5078 -0.3916  0.3008
  734MOL0     C98976   2.754   7.370   6.130  0.4413 -0.1263 -1.0901
  734MOL0     C98977   2.773   7.443   6.001  0.3596 -0.6349 -0.1540
  734MOL0     C98978   2.666   7.541   5.972  0.1009 -0.1429  0.7293
  734MOL0     O98979   2.556   7.460   5.937 -0.4231 -0.6092 -0.2317
  734MOL0     C98980   2.425   7.502   5.925 -0.6942 -0.1701  0.1280
  734MOL0     C98981   2.390   7.634   5.906 -0.9010 -0.0657  0.0891
  734MOL0     C98982   2.251   7.666   5.882  0.5627  0.1262 -0.7272
  734MOL0     C98983   2.217   7.810   5.860 -0.2583  0.5979 -0.7491
  734MOL0     C98984   2.150   7.558   5.888  0.0174 -0.2850  0.5012
  734MOL0     C98985   2.011   7.577   5.836  0.5241  0.6304 -0.0994
  734MOL0     O98986   1.972   7.478   5.761 -0.6285  0.4019 -0.9096
  734MOL0     C98987   1.841   7.450   5.743 -0.2966  0.0952  0.6895
  734MOL0     C98988   1.728   7.498   5.808 -0.4765  0.3855 -1.0706
  734MOL0     C98989   1.600   7.456   5.777 -0.5387  1.6832  1.1833
  734MOL0     C98990   1.570   7.374   5.663 -0.2795 -0.2878  0.3708
  734MOL0     O98991   1.439   7.325   5.653 -0.1437 -0.0036 -0.0642
  734MOL0     C98992   1.406   7.261   5.526 -0.2762 -0.4835 -0.1991
  734MOL0     C98993   1.384   7.364   5.407 -0.3482  0.0724  0.1108
  734MOL0     C98994   1.249   7.444   5.413 -0.0213 -0.6702  0.2021
  734MOL0     C98995   1.110   7.383   5.388  0.1216  0.0609 -0.0968
  734MOL0     C98996   1.000   7.486   5.413  0.3509 -0.1371 -0.2856
  734MOL0     C98997   1.001   7.603   5.316  1.3542 -0.0682 -0.1508
  734MOL0     C98998   0.982   7.580   5.162  0.0432 -0.1641 -0.3405
  734MOL0     C98999   1.029   7.703   5.084  0.4054  0.0840 -0.4852
  734MOL0    Cl99000   0.991   7.686   4.907  0.3985  0.6783 -0.4152
  734MOL0     C99001   1.680   7.345   5.585 -0.2774 -0.1096 -0.8786
  734MOL0     C99002   1.811   7.377   5.627 -0.9333 -0.6937  0.1106
  734MOL0     O99003   1.947   7.673   5.867  0.6019 -0.0424  1.3278
  734MOL0     C99004   2.193   7.440   5.918 -0.1093  0.6631  0.7363
  734MOL0     C99005   2.323   7.410   5.951  1.0250  0.8429  0.9871
  734MOL0     N99006   2.801   7.122   6.348  0.0652 -0.5306  1.2429
  734MOL0     N99007   2.734   7.046   6.429 -0.6721  0.6352  0.6445
  734MOL0     C99008   1.777   7.004   7.283  0.0943 -0.3571 -0.3473
  734MOL0     C99009   1.746   6.904   7.372 -0.2313  0.1413  0.1753
  734MOL0     C99010   1.790   6.512   7.625 -0.0599 -0.5006 -1.0101
  734MOL0     C99011   1.873   6.434   7.702  0.7072 -0.3195 -0.3293
  734MOL0     C99012   1.826   6.367   7.820  1.0103  0.7320  0.3092
  734MOL0     C99013   1.686   6.372   7.848  0.0982 -0.1826  0.5371
  734MOL0     O99014   1.648   6.308   7.959  0.0245 -0.4118 -0.1319
  734MOL0     C99015   1.528   6.365   8.016  0.6773  0.2698  0.1803
  734MOL0     C99016   1.485   6.259   8.123  0.0786 -0.2161  1.0325
  734MOL0     C99017   1.575   6.219   8.234 -1.1666 -0.1401  0.8987
  734MOL0     C99018   1.509   6.148   8.353 -0.4154  0.3955 -0.3922
  734MOL0     C99019   1.432   6.032   8.310  0.9973 -0.5035 -0.1416
  734MOL0     C99020   1.359   5.928   8.301 -0.2642  0.1057 -0.5905
  734MOL0     C99021   1.598   6.441   7.759  1.0063 -0.0955  1.1282
  734MOL0     C99022   1.655   6.514   7.654 -0.2702 -1.1054 -0.4950
  734MOL0     H99023   2.012   6.705   7.319 -3.1781 -2.0833 -0.0843
  734MOL0     H99024   2.086   6.905   7.188 -0.6008  0.2913  1.4920
  734MOL0     H99025   1.998   7.192   6.977  3.9039 -0.3834 -0.6482
  734MOL0     H99026   2.080   7.037   7.019  0.2298  0.5428  3.4514
  734MOL0     H99027   1.895   6.912   6.923 -0.1663  0.3513  1.2179
  734MOL0     H99028   1.796   7.062   6.904  0.5717 -0.0436  3.0256
  734MOL0     H99029   1.898   7.022   6.674  2.3028 -0.6068 -2.1572
  734MOL0     H99030   1.994   7.148   6.742 -3.3736  1.3053  1.2241
  734MOL0     H99031   2.144   6.918   6.816 -1.2218  0.7826 -0.5748
  734MOL0     H99032   2.042   6.846   6.697 -2.6994  1.9384 -3.5664
  734MOL0     H99033   2.110   7.003   6.519  1.8346  3.9946 -1.3819
  734MOL0     H99034   2.173   7.114   6.633 -1.0339  1.2244 -3.3498
  734MOL0     H99035   2.348   7.000   6.699 -0.4980 -1.4440  2.1526
  734MOL0     H99036   2.306   6.841   6.629  0.9476  0.4836  1.0614
  734MOL0     H99037   2.321   6.982   6.385  0.1982  1.5896 -1.0799
  734MOL0     H99038   2.392   7.099   6.491 -1.8781 -0.4860  2.2386
  734MOL0     H99039   2.499   6.849   6.364 -0.2462  3.2308 -2.8510
  734MOL0     H99040   2.570   6.874   6.530  0.7686 -1.2643 -0.4160
  734MOL0     H99041   2.501   7.082   6.216 -0.7207 -1.2815 -0.0652
  734MOL0     H99042   2.790   7.167   6.069  1.5739 -0.5950  2.1361
  734MOL0     H99043   2.623   7.210   6.055  0.1753 -2.4782  1.0608
  734MOL0     H99044   2.844   7.380   6.191 -1.3750  0.4587  1.6690
  734MOL0     H99045   2.677   7.410   6.196  0.1940 -0.4379 -1.1839
  734MOL0     H99046   2.788   7.377   5.914  1.9515  0.3720 -0.6790
  734MOL0     H99047   2.868   7.496   6.011  2.0574 -3.7392  1.6087
  734MOL0     H99048   2.689   7.611   5.890 -3.4861  1.7373  1.1105
  734MOL0     H99049   2.649   7.598   6.063 -0.1646 -0.8111  1.1066
  734MOL0     H99050   2.450   7.722   5.890  2.1533 -2.0695 -0.2752
  734MOL0     H99051   2.160   7.839   5.949 -1.7207 -2.4056 -0.5757
  734MOL0     H99052   2.295   7.886   5.871 -1.2454  1.3908  1.3833
  734MOL0     H99053   2.164   7.810   5.765  0.4071 -0.8647 -1.1569
  734MOL0     H99054   1.731   7.534   5.910  2.2040 -0.8992 -0.6257
  734MOL0     H99055   1.513   7.481   5.837 -1.8268  0.6884 -0.2123
  734MOL0     H99056   1.474   7.179   5.501 -0.2239 -0.7632  0.8076
  734MOL0     H99057   1.306   7.219   5.543  0.1486 -1.4383  0.0091
  734MOL0     H99058   1.470   7.430   5.396 -0.4281  0.4519  1.5667
  734MOL0     H99059   1.387   7.300   5.318  0.8442  0.4584 -0.1479
  734MOL0     H99060   1.262   7.532   5.350 -0.5776 -1.7560 -1.4889
  734MOL0     H99061   1.247   7.492   5.512 -1.6322 -2.1019  0.9098
  734MOL0     H99062   1.114   7.353   5.283 -1.9652  3.0344 -1.1746
  734MOL0     H99063   1.092   7.294   5.449 -1.7795  2.6013  3.3872
  734MOL0     H99064   1.015   7.533   5.511 -1.0927  0.8912 -0.5251
  734MOL0     H99065   0.903   7.436   5.409  0.4201 -1.3265  5.1115
  734MOL0     H99066   0.910   7.659   5.341  0.7303 -0.7634 -0.8024
  734MOL0     H99067   1.081   7.672   5.342 -0.2947  1.9656 -0.2105
  734MOL0     H99068   0.880   7.550   5.136  1.1304 -2.2362 -2.6264
  734MOL0     H99069   1.050   7.497   5.140 -0.5021 -1.7340  3.1686
  734MOL0     H99070   1.132   7.724   5.114  0.9578 -2.6975 -0.1527
  734MOL0     H99071   0.955   7.769   5.131 -1.1290 -1.6710 -0.3469
  734MOL0     H99072   1.665   7.305   5.486 -2.6602  5.0521 -2.9798
  734MOL0     H99073   1.893   7.362   5.557 -1.2169 -0.6082 -0.2417
  734MOL0     H99074   2.126   7.354   5.924  1.7144 -0.9157 -0.2996
  734MOL0     H99075   2.341   7.308   5.981 -0.7279 -0.2209 -1.3423
  734MOL0     H99076   1.720   7.096   7.281  1.9015  0.8598  1.2542
  734MOL0     H99077   1.653   6.911   7.428 -0.9164  0.7823 -1.0013
  734MOL0     H99078   1.980   6.429   7.686  1.0926  1.1794  1.3749
  734MOL0     H99079   1.892   6.309   7.885  4.5357  2.7040 -1.2018
  734MOL0     H99080   1.528   6.457   8.076 -2.0321  0.8601 -0.6047
  734MOL0     H99081   1.442   6.363   7.949  0.8995  4.1123 -0.4405
  734MOL0     H99082   1.459   6.173   8.062 -0.3589  0.8680 -0.3552
  734MOL0     H99083   1.392   6.295   8.170 -1.5033 -1.7736 -0.7329
  734MOL0     H99084   1.640   6.305   8.254 -1.2168  0.4444 -1.2100
  734MOL0     H99085   1.651   6.159   8.182 -0.8976  1.4038 -0.5680
  734MOL0     H99086   1.437   6.210   8.407 -1.0959 -0.5925 -0.1395
  734MOL0     H99087   1.583   6.123   8.428 -2.5541 -1.3806  1.2638
  734MOL0     H99088   1.305   5.835   8.301  2.8453 -1.9446  2.7324
  734MOL0     H99089   1.492   6.463   7.767  1.4760  1.9278  2.3381
  734MOL0     H99090   1.584   6.570   7.594  0.3897  3.9872  2.8864
  735MOL0     O99091   8.180   6.489   7.977 -0.2140  1.0857 -0.2675
  735MOL0     C99092   8.210   6.521   8.095 -0.1858  0.4663 -0.3624
  735MOL0     O99093   8.312   6.459   8.165  0.9711 -0.2963 -0.4392
  735MOL0     C99094   8.388   6.364   8.105 -0.4759  0.6581 -0.7057
  735MOL0     C99095   8.431   6.272   8.185 -0.2769  0.7031  0.4562
  735MOL0     C99096   8.502   6.163   8.139 -0.2629 -0.1668 -0.2449
  735MOL0     C99097   8.544   6.159   8.001 -0.6178  0.7988 -0.7926
  735MOL0     O99098   8.619   6.050   7.968  0.3138 -0.1384 -1.1748
  735MOL0     C99099   8.550   5.919   7.980  0.6854 -1.6053  1.6133
  735MOL0     C99100   8.644   5.815   8.022 -0.3020 -0.3994 -0.6487
  735MOL0     C99101   8.579   5.676   8.023  0.0702 -0.2825 -0.0804
  735MOL0     C99102   8.655   5.576   8.116  0.2726  1.0033 -0.4490
  735MOL0     C99103   8.616   5.430   8.092 -0.8398  0.3129 -0.1325
  735MOL0     C99104   8.687   5.339   8.190 -0.5148 -1.5520  0.4866
  735MOL0     C99105   8.730   5.207   8.117  0.9070 -0.4602 -0.4247
  735MOL0     C99106   8.827   5.134   8.216 -0.6884 -0.3930  0.0425
  735MOL0     N99107   8.761   5.082   8.336  0.2209  0.7056 -0.4656
  735MOL0     C99108   8.629   5.043   8.364 -0.6732 -0.7226 -0.6254
  735MOL0     C99109   8.627   5.013   8.492  0.5011 -0.5524  0.0032
  735MOL0     C99110   8.525   4.972   8.584 -0.4430  0.3648 -0.2747
  735MOL0     C99111   8.478   5.074   8.693 -0.0176 -0.0327 -1.2036
  735MOL0     C99112   8.575   5.110   8.807  0.1141 -0.2769  0.5035
  735MOL0     C99113   8.521   5.210   8.912  0.6234  0.0120  0.1286
  735MOL0     O99114   8.451   5.317   8.851  0.5295 -0.1032  1.1725
  735MOL0     C99115   8.517   5.430   8.797 -0.6843  1.0094  0.1486
  735MOL0     C99116   8.445   5.528   8.730  0.1811 -0.5083  0.1126
  735MOL0     C99117   8.516   5.645   8.682 -0.1108 -0.6034  0.0234
  735MOL0     C99118   8.434   5.733   8.600 -0.5518  0.6693  0.3375
  735MOL0     C99119   8.644   5.683   8.739  0.0955  0.6867  0.6335
  735MOL0     C99120   8.703   5.811   8.749 -0.4661 -0.5077  0.5441
  735MOL0     O99121   8.824   5.811   8.820 -0.0588 -0.4316  0.2199
  735MOL0     C99122   8.913   5.912   8.852  1.2039 -0.8292  0.5038
  735MOL0     C99123   9.011   5.881   8.934 -0.0653  0.3291 -0.5680
  735MOL0     C99124   9.104   5.983   8.977 -1.0357  0.2235  0.6412
  735MOL0     C99125   9.100   6.109   8.930 -0.1781 -0.7194 -0.3671
  735MOL0     O99126   9.174   6.210   8.995  0.2449 -0.1094  1.0194
  735MOL0     C99127   9.258   6.297   8.913 -0.5305  1.1925 -0.0376
  735MOL0     C99128   9.393   6.310   8.982 -0.7988 -0.3688  0.6840
  735MOL0     C99129   9.495   6.411   8.932  0.2118 -1.4916  0.0684
  735MOL0     C99130   9.641   6.377   8.971  0.2880 -0.8681  0.4677
  735MOL0     C99131   9.699   6.475   9.072  0.3988  1.2416  0.1910
  735MOL0     C99132   9.719   6.618   9.029  0.0780  0.8180 -0.2350
  735MOL0     C99133   9.672   6.721   9.119  0.4098  0.8010 -0.5759
  735MOL0     C99134   9.719   6.860   9.068  0.0599 -0.0366 -0.2050
  735MOL0    Cl99135   9.647   6.903   8.903 -0.1037 -0.2330  0.0055
  735MOL0     C99136   9.008   6.138   8.833  0.1124 -0.3361 -0.0294
  735MOL0     C99137   8.914   6.047   8.785 -0.9697  0.0244 -0.2859
  735MOL0     O99138   8.649   5.909   8.692 -0.0329  0.1857  0.0852
  735MOL0     C99139   8.718   5.572   8.798  0.1333 -1.0087 -0.0336
  735MOL0     C99140   8.653   5.451   8.826 -0.2330 -0.1156 -0.5127
  735MOL0     N99141   8.750   5.033   8.545  0.1613  0.2746 -0.1807
  735MOL0     N99142   8.830   5.063   8.450 -0.9449 -0.4895 -0.7843
  735MOL0     C99143   8.513   6.259   7.915 -0.6133  0.0255 -0.6200
  735MOL0     C99144   8.442   6.365   7.968 -0.0541 -0.1069  0.1099
  735MOL0     C99145   8.149   6.637   8.156 -0.1743 -0.1638 -0.2868
  735MOL0     C99146   8.040   6.705   8.103 -0.1844  0.2181  0.5252
  735MOL0     C99147   7.989   6.823   8.152 -0.5016  0.2091 -0.2332
  735MOL0     C99148   8.049   6.877   8.271 -0.7276  1.2461  0.5127
  735MOL0     O99149   8.019   6.998   8.334  0.8583  0.1026  0.0521
  735MOL0     C99150   7.913   7.077   8.290 -0.4875  0.1742 -0.0895
  735MOL0     C99151   7.926   7.168   8.159  0.3091  0.0313 -0.2832
  735MOL0     C99152   7.817   7.274   8.137  0.4377  0.1690  0.2564
  735MOL0     C99153   7.764   7.343   8.257  0.2623 -0.6538 -0.0476
  735MOL0     C99154   7.866   7.415   8.337  0.8185 -0.5861 -0.1677
  735MOL0     C99155   7.933   7.479   8.418  0.1159  0.3065  0.1071
  735MOL0     C99156   8.157   6.805   8.330 -0.8386  0.2013  0.6815
  735MOL0     C99157   8.200   6.681   8.282  0.0500 -0.0349  0.3207
  735MOL0     H99158   8.421   6.272   8.293 -1.1649  2.2732  0.3922
  735MOL0     H99159   8.521   6.088   8.216  2.5039  0.3657 -0.3231
  735MOL0     H99160   8.471   5.917   8.056  0.0186 -0.5943  0.9624
  735MOL0     H99161   8.503   5.905   7.882 -1.8196  1.1783  2.2644
  735MOL0     H99162   8.743   5.819   7.976 -1.6414  3.1719 -3.7365
  735MOL0     H99163   8.665   5.852   8.123 -2.6170  0.6046 -0.4737
  735MOL0     H99164   8.485   5.695   8.077  0.8503  3.6841  0.2096
  735MOL0     H99165   8.576   5.646   7.918  0.2992 -2.3959  0.4767
  735MOL0     H99166   8.764   5.588   8.104  0.4768 -0.3577 -0.0585
  735MOL0     H99167   8.628   5.588   8.221  1.2818 -2.3530  0.3031
  735MOL0     H99168   8.508   5.418   8.100 -0.8856 -1.8835 -2.5901
  735MOL0     H99169   8.646   5.411   7.988  2.3389 -4.3200  1.3053
  735MOL0     H99170   8.781   5.385   8.221 -1.5033  2.2307 -1.5177
  735MOL0     H99171   8.624   5.330   8.280  1.5115  0.5824  2.2319
  735MOL0     H99172   8.641   5.157   8.078 -0.6304  1.2281  0.7495
  735MOL0     H99173   8.792   5.239   8.032  2.2508  2.6750  1.5471
  735MOL0     H99174   8.913   5.195   8.243  1.0231 -1.0694 -3.3674
  735MOL0     H99175   8.871   5.050   8.162  0.4050  1.0669 -1.4392
  735MOL0     H99176   8.559   5.020   8.284  1.4118 -2.5478 -2.0380
  735MOL0     H99177   8.437   4.950   8.522 -1.0748 -0.0935  0.7442
  735MOL0     H99178   8.568   4.879   8.621 -1.5851  0.1227  0.4923
  735MOL0     H99179   8.378   5.056   8.734  0.7711 -0.7918  0.4567
  735MOL0     H99180   8.468   5.161   8.628  3.3814 -1.1194 -3.4411
  735MOL0     H99181   8.667   5.162   8.779  0.7174 -1.7492 -0.3475
  735MOL0     H99182   8.597   5.019   8.864  0.8876 -1.5033 -1.6340
  735MOL0     H99183   8.604   5.247   8.973  2.7453 -0.7636 -2.0972
  735MOL0     H99184   8.462   5.149   8.980 -0.3535  2.1392  1.2865
  735MOL0     H99185   8.337   5.523   8.723 -0.1833  2.5509  1.8582
  735MOL0     H99186   8.482   5.771   8.510  1.6851  2.3648  2.1257
  735MOL0     H99187   8.348   5.672   8.571  1.0757 -1.5149 -0.1727
  735MOL0     H99188   8.386   5.805   8.668 -0.3217  0.3375  0.8591
  735MOL0     H99189   9.005   5.780   8.974  1.8954  0.1354 -0.6662
  735MOL0     H99190   9.169   5.968   9.062  0.3129  2.2995  0.0407
  735MOL0     H99191   9.278   6.244   8.819 -2.0859 -1.2175  0.8734
  735MOL0     H99192   9.209   6.393   8.896  0.0678  1.2127 -1.7770
  735MOL0     H99193   9.372   6.336   9.086  0.2108  1.5242  0.4469
  735MOL0     H99194   9.450   6.217   8.988  1.4619  0.9290  0.4725
  735MOL0     H99195   9.469   6.513   8.961 -2.5423 -2.0944 -0.0269
  735MOL0     H99196   9.493   6.425   8.824  0.0942 -0.3889  0.2085
  735MOL0     H99197   9.645   6.273   9.005 -2.0599 -1.9900 -2.2192
  735MOL0     H99198   9.706   6.384   8.882 -1.1590  1.8502 -0.4998
  735MOL0     H99199   9.796   6.436   9.103  0.2016  2.1985  2.1364
  735MOL0     H99200   9.633   6.467   9.158 -1.9212 -2.7024 -1.6702
  735MOL0     H99201   9.828   6.629   9.032  0.1395  0.8733 -1.9548
  735MOL0     H99202   9.676   6.642   8.931 -2.1640 -2.6673 -0.2529
  735MOL0     H99203   9.719   6.707   9.217  0.5547 -2.1862 -0.9918
  735MOL0     H99204   9.565   6.712   9.142 -0.0812 -1.1771 -3.1391
  735MOL0     H99205   9.827   6.878   9.073 -0.1213  1.5260 -1.0203
  735MOL0     H99206   9.686   6.930   9.144 -0.2358 -1.4895  1.0461
  735MOL0     H99207   9.031   6.231   8.784 -0.0311  0.4639  1.3558
  735MOL0     H99208   8.854   6.082   8.701 -0.5937 -2.1105 -1.5456
  735MOL0     H99209   8.823   5.581   8.824  0.5340  4.6495 -2.0973
  735MOL0     H99210   8.718   5.371   8.860 -1.0988 -0.7279 -0.2786
  735MOL0     H99211   8.555   6.255   7.815  1.9754  0.7138  0.3654
  735MOL0     H99212   8.421   6.453   7.907 -2.6444  0.9078  2.2937
  735MOL0     H99213   7.999   6.647   8.021  0.2701  3.4848 -2.2361
  735MOL0     H99214   7.904   6.879   8.116 -2.1130 -0.4917  2.2299
  735MOL0     H99215   7.818   7.023   8.284  0.1624 -1.8757  4.0756
  735MOL0     H99216   7.911   7.144   8.377 -0.0710 -1.8106  1.5309
  735MOL0     H99217   7.934   7.107   8.068 -0.5472 -3.4210  1.7780
  735MOL0     H99218   8.021   7.219   8.176  0.8970 -0.9359 -0.6160
  735MOL0     H99219   7.734   7.219   8.091  0.9062 -2.4784  2.3173
  735MOL0     H99220   7.855   7.351   8.069 -0.4094  0.5002  0.1461
  735MOL0     H99221   7.712   7.266   8.316 -0.2337 -0.4790 -0.2522
  735MOL0     H99222   7.690   7.417   8.228  0.9128  1.2667  2.7437
  735MOL0     H99223   7.984   7.534   8.494 -0.1646 -0.7748  1.1069
  735MOL0     H99224   8.218   6.843   8.411  1.0365 -0.2844 -0.4196
  735MOL0     H99225   8.286   6.632   8.326  1.1224  1.2945 -0.2677
  736MOL0     O99226   8.042  10.588  10.960  0.1654  0.4177 -0.2967
  736MOL0     C99227   8.136  10.514  10.986 -0.1256 -0.6272  0.9322
  736MOL0     O99228   8.139  10.401  11.070  0.5926 -0.5226  1.0923
  736MOL0     C99229   8.030  10.360  11.141 -0.3581 -0.2552 -0.2473
  736MOL0     C99230   7.916  10.441  11.170 -0.3465  0.7717 -0.4839
  736MOL0     C99231   7.817  10.392  11.255 -0.0814  0.5214  0.2845
  736MOL0     C99232   7.825  10.258  11.304  0.0207  0.1566 -0.2000
  736MOL0     O99233   7.740  10.187  11.391 -0.4444 -0.8520 -0.1357
  736MOL0     C99234   7.640  10.266  11.463  0.0162  0.3440  0.9441
  736MOL0     C99235   7.601  10.205  11.598  0.0122  0.7459 -0.5231
  736MOL0     C99236   7.502  10.094  11.585  0.3208  0.3918  0.6192
  736MOL0     C99237   7.465  10.017  11.719  0.1512 -0.1048  0.6091
  736MOL0     C99238   7.586   9.951  11.789 -0.6253 -0.2318  0.4250
  736MOL0     C99239   7.655   9.839  11.693 -0.0098 -1.1111 -0.5426
  736MOL0     C99240   7.746   9.745  11.764 -0.5930  0.4222 -0.0632
  736MOL0     C99241   7.874   9.821  11.810  0.2469  0.9296 -0.4113
  736MOL0     N99242   7.960   9.834  11.688  0.9137 -0.8460 -0.5565
  736MOL0     C99243   8.032   9.728  11.634 -0.4395  0.4738  0.3074
  736MOL0     C99244   8.113   9.777  11.531  0.1702  0.2739 -0.0122
  736MOL0     C99245   8.209   9.693  11.432  0.4092 -0.4731 -0.4072
  736MOL0     C99246   8.176   9.558  11.400  0.1910 -0.1918  0.4596
  736MOL0     C99247   8.308   9.475  11.360 -0.8018 -0.5974  1.0364
  736MOL0     C99248   8.272   9.367  11.259 -0.1288 -1.0677 -0.5041
  736MOL0     O99249   8.396   9.303  11.238 -0.7768 -0.4505  0.0351
  736MOL0     C99250   8.475   9.351  11.130 -0.6505  0.0085 -0.2678
  736MOL0     C99251   8.585   9.263  11.108 -0.2486  0.1037 -0.2142
  736MOL0     C99252   8.674   9.288  11.007 -0.1321  0.1581  0.5446
  736MOL0     C99253   8.776   9.182  10.974  0.6126  0.7641 -1.5364
  736MOL0     C99254   8.649   9.405  10.918 -0.2519 -0.1808 -0.5092
  736MOL0     C99255   8.737   9.444  10.806  0.3737  0.3431 -0.2529
  736MOL0     O99256   8.687   9.535  10.717 -0.4273 -0.2065  0.4715
  736MOL0     C99257   8.756   9.557  10.595 -0.4204  0.0184 -0.5218
  736MOL0     C99258   8.729   9.683  10.543  0.1585  0.2756  0.2373
  736MOL0     C99259   8.791   9.716  10.421  0.8915  0.4428  0.2402
  736MOL0     C99260   8.852   9.618  10.337 -0.0300  0.4436  0.7078
  736MOL0     O99261   8.900   9.659  10.216  0.3037 -0.7391 -0.8500
  736MOL0     C99262   9.031   9.710  10.245 -0.1761  0.2892 -0.4119
  736MOL0     C99263   9.083   9.751  10.106  0.2419 -0.4880 -0.3068
  736MOL0     C99264   9.236   9.746  10.113  0.8831  0.0660 -0.1870
  736MOL0     C99265   9.313   9.801   9.993 -0.7827  0.1395  0.1482
  736MOL0     C99266   9.467   9.762  10.009  0.1411  0.3647  0.2613
  736MOL0     C99267   9.547   9.794   9.883 -0.0063  0.0313  0.1347
  736MOL0     C99268   9.571   9.947   9.870  0.7241  0.1001  0.6376
  736MOL0     C99269   9.644   9.956   9.738  0.0258 -0.3536 -0.4877
  736MOL0    Cl99270   9.546   9.914   9.590  0.7428 -0.1108 -0.0188
  736MOL0     C99271   8.885   9.500  10.387 -0.6496  1.0437 -0.0308
  736MOL0     C99272   8.838   9.461  10.518  0.2944 -0.1745  0.1852
  736MOL0     O99273   8.855   9.393  10.805 -0.2311 -1.4903 -0.5358
  736MOL0     C99274   8.545   9.497  10.954 -0.2704  0.1524 -0.4687
  736MOL0     C99275   8.452   9.466  11.054 -0.4976  0.3647  0.5129
  736MOL0     N99276   8.091   9.920  11.541  0.6317 -0.0100 -0.3991
  736MOL0     N99277   7.994   9.953  11.623 -0.0425 -0.3670  0.2423
  736MOL0     C99278   7.941  10.181  11.276 -0.3794  0.8034  0.0957
  736MOL0     C99279   8.048  10.228  11.191  0.5508  0.5176  0.8782
  736MOL0     C99280   8.264  10.557  10.911 -0.1920 -0.3766  0.0423
  736MOL0     C99281   8.391  10.520  10.956 -0.4762 -0.0936 -0.6755
  736MOL0     C99282   8.508  10.536  10.883  0.1032  0.1300 -0.2331
  736MOL0     C99283   8.502  10.604  10.764 -0.1154  0.5104 -0.1860
  736MOL0     O99284   8.617  10.636  10.700 -0.6499  0.2547 -0.0150
  736MOL0     C99285   8.752  10.618  10.743  0.5605 -0.5985  0.8397
  736MOL0     C99286   8.788  10.745  10.821  0.1713  0.6088  0.6082
  736MOL0     C99287   8.810  10.875  10.736  0.1909 -0.0476  0.9434
  736MOL0     C99288   8.902  10.982  10.788  0.4488 -0.2794 -0.8361
  736MOL0     C99289   8.931  11.081  10.693 -0.0988  0.0343 -0.2826
  736MOL0     C99290   8.955  11.142  10.592  0.0339 -0.1160 -0.2718
  736MOL0     C99291   8.385  10.656  10.718 -0.1083  0.1403 -0.4156
  736MOL0     C99292   8.266  10.634  10.792 -0.5617  0.4034  0.3167
  736MOL0     H99293   7.908  10.548  11.150 -2.2222  1.0367  1.3252
  736MOL0     H99294   7.738  10.460  11.287 -0.3493  0.4494 -0.2062
  736MOL0     H99295   7.674  10.367  11.490 -1.1184  0.2588  2.9593
  736MOL0     H99296   7.551  10.288  11.404 -2.1464  0.3638  3.9463
  736MOL0     H99297   7.694  10.167  11.642 -1.4123 -2.9751 -0.3694
  736MOL0     H99298   7.553  10.282  11.659 -2.9246 -2.5096  1.6344
  736MOL0     H99299   7.405  10.131  11.552 -0.4884 -0.0797  2.3318
  736MOL0     H99300   7.540  10.024  11.509 -1.2557  2.1183 -1.8894
  736MOL0     H99301   7.433  10.083  11.800  1.3804  0.7542  0.4321
  736MOL0     H99302   7.390   9.946  11.685  0.5104 -0.9751  1.6036
  736MOL0     H99303   7.656  10.030  11.818 -2.0447  1.9532 -1.7373
  736MOL0     H99304   7.552   9.897  11.878 -2.1494 -0.6069 -0.3631
  736MOL0     H99305   7.594   9.766  11.640  4.8579 -4.1068 -2.7192
  736MOL0     H99306   7.707   9.884  11.609 -2.2966  1.7887 -0.5782
  736MOL0     H99307   7.701   9.719  11.861  1.1457  3.8482  1.8241
  736MOL0     H99308   7.768   9.658  11.701 -2.7626  0.9620 -1.7220
  736MOL0     H99309   7.930   9.765  11.886 -2.1799 -2.2992 -0.7804
  736MOL0     H99310   7.851   9.918  11.856 -1.7400  0.6986 -0.8214
  736MOL0     H99311   8.019   9.626  11.667 -0.6980  1.3167  3.0275
  736MOL0     H99312   8.208   9.745  11.336 -1.7319 -0.0295 -0.1955
  736MOL0     H99313   8.310   9.699  11.472  0.2639  2.0050 -0.2377
  736MOL0     H99314   8.111   9.555  11.311  0.7272  2.6655 -0.1103
  736MOL0     H99315   8.129   9.504  11.483  0.3926 -0.3755  0.4549
  736MOL0     H99316   8.351   9.441  11.455 -0.7979  1.5664  1.8865
  736MOL0     H99317   8.385   9.540  11.318  1.0753 -3.8190 -0.9102
  736MOL0     H99318   8.215   9.411  11.177 -1.3775  1.5184  1.6057
  736MOL0     H99319   8.210   9.299  11.317 -1.7543  1.7659  1.2864
  736MOL0     H99320   8.601   9.171  11.163 -2.3438 -0.5508 -0.6226
  736MOL0     H99321   8.755   9.084  11.016 -4.1970  0.9230 -2.9472
  736MOL0     H99322   8.795   9.176  10.866  2.2453  1.5674 -1.3331
  736MOL0     H99323   8.876   9.221  10.999 -0.1973  1.0701  1.6335
  736MOL0     H99324   8.671   9.753  10.602  0.9654  2.6900 -1.6660
  736MOL0     H99325   8.775   9.811  10.370  2.3062  1.5538  1.7476
  736MOL0     H99326   9.037   9.803  10.301  3.7187  1.3401 -2.1704
  736MOL0     H99327   9.099   9.634  10.285  0.0279  0.5811 -0.2000
  736MOL0     H99328   9.050   9.687  10.024 -0.3586 -0.7895  0.1595
  736MOL0     H99329   9.046   9.846  10.066 -1.8357 -0.9929  0.3029
  736MOL0     H99330   9.270   9.643  10.119  3.0980  0.8398  2.7848
  736MOL0     H99331   9.264   9.795  10.207  0.6351 -0.7698  0.3323
  736MOL0     H99332   9.269   9.774   9.897  1.5346  1.8764 -1.5014
  736MOL0     H99333   9.295   9.908  10.002  0.5060  0.9645 -4.6225
  736MOL0     H99334   9.480   9.659  10.043 -0.9437  0.8082  2.1532
  736MOL0     H99335   9.514   9.826  10.084 -1.3829  3.7264 -1.4407
  736MOL0     H99336   9.653   9.769   9.892  0.9240  3.3332 -0.5264
  736MOL0     H99337   9.492   9.768   9.792  2.5842  4.0814 -2.9205
  736MOL0     H99338   9.624   9.993   9.954  1.4425 -0.5025  0.5187
  736MOL0     H99339   9.475   9.997   9.859 -0.1441 -1.9909 -2.6380
  736MOL0     H99340   9.731   9.890   9.744  0.5020  0.2429 -0.7054
  736MOL0     H99341   9.674  10.061   9.725  1.1771 -0.0275  3.6617
  736MOL0     H99342   8.942   9.431  10.324 -1.6652 -0.8186  0.9833
  736MOL0     H99343   8.876   9.363  10.545 -1.7751 -1.8496 -2.5941
  736MOL0     H99344   8.540   9.596  10.910 -0.6472 -0.1805 -1.1921
  736MOL0     H99345   8.355   9.515  11.057 -0.7633 -0.1260  0.0913
  736MOL0     H99346   7.961  10.081  11.312 -0.1771  1.8829  3.3619
  736MOL0     H99347   8.131  10.167  11.157 -0.4338 -0.1078 -0.4857
  736MOL0     H99348   8.411  10.474  11.053  1.9248  1.9667 -0.0914
  736MOL0     H99349   8.599  10.507  10.933 -0.9124  0.6042  2.0267
  736MOL0     H99350   8.758  10.526  10.802 -4.5559 -0.1871  2.4365
  736MOL0     H99351   8.832  10.600  10.670  1.6362  0.1034  1.8195
  736MOL0     H99352   8.878  10.714  10.875 -0.9355 -3.8193  0.3473
  736MOL0     H99353   8.714  10.768  10.897  0.8790  2.7066  0.7158
  736MOL0     H99354   8.716  10.925  10.711  0.2917  0.7238  2.0631
  736MOL0     H99355   8.857  10.853  10.639 -1.6975  2.0546 -0.5749
  736MOL0     H99356   9.000  10.943  10.817  2.1933  1.3753 -3.9488
  736MOL0     H99357   8.853  11.041  10.865 -1.5079  1.9374 -3.5671
  736MOL0     H99358   8.975  11.190  10.499 -1.2559  1.1098  0.0608
  736MOL0     H99359   8.392  10.699  10.619  0.4546 -0.9874 -0.8804
  736MOL0     H99360   8.168  10.669  10.761 -1.1409  1.2478  2.8614
  737MOL0     O99361   3.290   4.444   7.857 -0.6084 -0.0092 -0.0137
  737MOL0     C99362   3.178   4.403   7.892  0.8270  0.0911 -0.0554
  737MOL0     O99363   3.150   4.356   8.014  0.0612  0.0244 -0.7023
  737MOL0     C99364   3.236   4.355   8.122  0.2748  0.0557 -0.1770
  737MOL0     C99365   3.337   4.450   8.149 -0.7129  0.4585  0.6524
  737MOL0     C99366   3.419   4.425   8.262 -0.4004 -0.2540  0.2738
  737MOL0     C99367   3.392   4.318   8.347 -0.1788 -0.3546  0.8926
  737MOL0     O99368   3.450   4.314   8.469 -0.0770  0.4102 -0.0343
  737MOL0     C99369   3.522   4.190   8.500 -0.4108  0.2236 -1.2529
  737MOL0     C99370   3.510   4.126   8.640  0.0597 -0.5737  0.9681
  737MOL0     C99371   3.567   4.214   8.744  0.0588 -0.0392  0.2358
  737MOL0     C99372   3.542   4.156   8.884  0.3095  0.0680 -0.5533
  737MOL0     C99373   3.622   4.234   8.993 -0.3308 -0.2037  0.5640
  737MOL0     C99374   3.536   4.288   9.099 -0.1750 -0.2487 -1.0379
  737MOL0     C99375   3.608   4.371   9.207  0.5674 -0.3749  0.2472
  737MOL0     C99376   3.502   4.425   9.310  0.0347 -0.0014  0.4697
  737MOL0     N99377   3.558   4.519   9.406  0.3326  0.8283  0.3813
  737MOL0     C99378   3.658   4.619   9.372  0.6885  1.5549 -0.2553
  737MOL0     C99379   3.721   4.630   9.486  0.5659  0.3886 -0.3171
  737MOL0     C99380   3.850   4.702   9.513 -0.5608 -0.1690 -0.5246
  737MOL0     C99381   3.853   4.860   9.514  0.3600  0.9789  0.7120
  737MOL0     C99382   3.988   4.930   9.503 -0.2341 -0.5099 -1.1333
  737MOL0     C99383   3.962   5.077   9.518 -0.3506  0.1856  0.3800
  737MOL0     O99384   3.902   5.142   9.402 -0.7638  0.1175  0.6393
  737MOL0     C99385   3.878   5.278   9.402  0.1416  0.1091 -0.7344
  737MOL0     C99386   3.904   5.368   9.505  0.7687  0.9513 -1.1617
  737MOL0     C99387   3.908   5.510   9.475  0.4507  0.4645 -1.1604
  737MOL0     C99388   3.967   5.611   9.580  0.1174  0.2616  1.1375
  737MOL0     C99389   3.863   5.561   9.356  0.1452 -0.3925  0.6787
  737MOL0     C99390   3.859   5.705   9.318  0.5674 -0.1206  0.7144
  737MOL0     O99391   3.735   5.766   9.280  1.0070 -0.1433 -0.3371
  737MOL0     C99392   3.727   5.866   9.187  0.4845 -0.4249  0.2013
  737MOL0     C99393   3.829   5.926   9.118  1.0350 -0.7108  0.6282
  737MOL0     C99394   3.813   6.043   9.041  0.6451  0.1022 -0.6308
  737MOL0     C99395   3.685   6.096   9.036  0.2591  0.1704 -0.6817
  737MOL0     O99396   3.670   6.211   8.958  0.1793  0.6141 -1.0072
  737MOL0     C99397   3.571   6.214   8.848  0.1888  0.4203 -0.0394
  737MOL0     C99398   3.575   6.360   8.788  0.4433  0.1451 -0.3695
  737MOL0     C99399   3.648   6.374   8.645  1.1589 -0.5902 -0.0159
  737MOL0     C99400   3.563   6.299   8.532  1.4757 -0.7377 -0.3137
  737MOL0     C99401   3.617   6.336   8.388 -0.0132  0.9438  0.2861
  737MOL0     C99402   3.523   6.312   8.268  0.4020  0.5600 -0.9627
  737MOL0     C99403   3.594   6.233   8.168 -0.8156 -0.3497  0.1179
  737MOL0     C99404   3.554   6.264   8.021 -0.3169  0.7881  0.6656
  737MOL0    Cl99405   3.405   6.196   7.963  0.1484 -0.1709  0.4479
  737MOL0     C99406   3.575   6.029   9.091  0.5545  0.9954  0.2612
  737MOL0     C99407   3.598   5.916   9.166  0.3149  0.6559  0.1257
  737MOL0     O99408   3.971   5.760   9.314 -0.3647  1.3910 -0.4353
  737MOL0     C99409   3.834   5.466   9.260 -0.4682  0.3579  0.5793
  737MOL0     C99410   3.840   5.329   9.278 -1.0079 -0.3048  0.3007
  737MOL0     N99411   3.659   4.547   9.582 -1.2278 -0.4859  0.5456
  737MOL0     N99412   3.567   4.474   9.533 -0.3350 -0.0076 -0.7987
  737MOL0     C99413   3.289   4.226   8.320 -0.2200 -0.7387  0.4585
  737MOL0     C99414   3.204   4.247   8.206 -0.8227 -0.2446 -1.4377
  737MOL0     C99415   3.062   4.416   7.795 -0.4002  0.1187 -0.1168
  737MOL0     C99416   3.080   4.476   7.671  0.0736 -0.1706  0.3619
  737MOL0     C99417   2.990   4.467   7.560  0.7229  0.5888 -1.4085
  737MOL0     C99418   2.861   4.419   7.599  1.2111  0.1930 -0.3908
  737MOL0     O99419   2.746   4.418   7.514  0.1971  0.2994  0.0934
  737MOL0     C99420   2.729   4.494   7.393  0.4934  0.3106 -0.8721
  737MOL0     C99421   2.606   4.584   7.423 -0.4122 -0.8478 -0.9049
  737MOL0     C99422   2.572   4.709   7.353  0.4099 -0.0784  0.4032
  737MOL0     C99423   2.629   4.843   7.407  0.4933  0.6465  0.3102
  737MOL0     C99424   2.770   4.834   7.444  0.5207  0.2041 -0.3690
  737MOL0     C99425   2.888   4.846   7.458 -1.1672  0.2312  0.7842
  737MOL0     C99426   2.843   4.353   7.726 -0.6613 -0.0201 -0.2448
  737MOL0     C99427   2.942   4.352   7.821 -1.0938  0.4930  0.0534
  737MOL0     H99428   3.362   4.534   8.084 -0.8267 -1.9590 -2.7669
  737MOL0     H99429   3.502   4.488   8.293  1.4663 -1.7596 -1.3895
  737MOL0     H99430   3.507   4.110   8.427 -1.1316 -0.0130 -0.8526
  737MOL0     H99431   3.627   4.223   8.495 -0.6156  1.0117 -0.5529
  737MOL0     H99432   3.405   4.096   8.642 -0.7628  1.9870  0.5176
  737MOL0     H99433   3.575   4.039   8.636  1.4165  0.4330 -0.5459
  737MOL0     H99434   3.676   4.224   8.736  0.1827 -2.2960 -2.5623
  737MOL0     H99435   3.529   4.316   8.736  2.7653  0.9919 -0.9703
  737MOL0     H99436   3.436   4.155   8.911  0.5621  0.3977  0.4644
  737MOL0     H99437   3.585   4.056   8.886  0.1244 -0.2771 -4.5488
  737MOL0     H99438   3.694   4.169   9.043  0.7272 -1.3140 -2.2292
  737MOL0     H99439   3.671   4.316   8.940 -0.6428 -0.1932  0.2943
  737MOL0     H99440   3.444   4.343   9.076 -2.0855 -1.2153  3.2976
  737MOL0     H99441   3.492   4.196   9.138 -2.1220  1.7017  1.7430
  737MOL0     H99442   3.699   4.329   9.250 -0.4469  0.3856  3.3611
  737MOL0     H99443   3.658   4.457   9.164  0.7265 -0.7447 -0.3236
  737MOL0     H99444   3.460   4.335   9.354 -0.9335  0.2542  0.0881
  737MOL0     H99445   3.416   4.469   9.258 -1.6052 -1.3594  1.9381
  737MOL0     H99446   3.681   4.646   9.270  0.6068  0.6735 -0.5087
  737MOL0     H99447   3.893   4.668   9.607  0.3248 -1.4874 -1.3703
  737MOL0     H99448   3.924   4.670   9.440 -1.0850 -1.3002 -0.5796
  737MOL0     H99449   3.792   4.902   9.595 -0.7212  0.9643 -0.0800
  737MOL0     H99450   3.795   4.881   9.424 -1.4607  1.7756  1.9943
  737MOL0     H99451   4.036   4.907   9.407  0.8394 -0.5657 -0.5916
  737MOL0     H99452   4.055   4.887   9.578  1.2321  2.2062 -0.7795
  737MOL0     H99453   4.066   5.112   9.517 -0.0511 -0.6706  0.7212
  737MOL0     H99454   3.916   5.100   9.614 -0.4907 -0.3807  0.4521
  737MOL0     H99455   3.939   5.336   9.603  0.9974 -0.1763 -1.6075
  737MOL0     H99456   3.934   5.713   9.560  2.2389  0.8682  0.4595
  737MOL0     H99457   3.930   5.586   9.680  0.9358  1.0242  1.6430
  737MOL0     H99458   4.076   5.608   9.579  0.1277 -2.3245  2.1050
  737MOL0     H99459   3.933   5.898   9.136  0.5909 -2.4601  0.5696
  737MOL0     H99460   3.899   6.079   8.985  2.5207  0.6651  2.3810
  737MOL0     H99461   3.601   6.141   8.772  0.3358  2.3059 -1.8978
  737MOL0     H99462   3.464   6.209   8.867  0.2886  2.1068  1.1392
  737MOL0     H99463   3.480   6.409   8.809  0.9103 -0.2554  3.2826
  737MOL0     H99464   3.633   6.420   8.859 -1.5773  1.7010  0.0580
  737MOL0     H99465   3.748   6.332   8.630  1.2303  0.2520 -2.4099
  737MOL0     H99466   3.656   6.480   8.621 -2.3824 -0.4547 -1.2615
  737MOL0     H99467   3.565   6.191   8.547  2.4093 -0.6139  0.5113
  737MOL0     H99468   3.465   6.347   8.544  2.6115  1.6880 -0.2813
  737MOL0     H99469   3.713   6.284   8.376 -0.7451 -0.7383  1.2820
  737MOL0     H99470   3.633   6.444   8.399  3.4122  0.5152  0.6691
  737MOL0     H99471   3.438   6.257   8.311  1.0683  1.4131  1.6411
  737MOL0     H99472   3.481   6.402   8.222  1.5998  1.0726 -1.0804
  737MOL0     H99473   3.583   6.125   8.185  1.0729 -0.8526 -1.5079
  737MOL0     H99474   3.703   6.239   8.172 -0.8579  2.2454 -0.9977
  737MOL0     H99475   3.630   6.217   7.957 -1.7149  2.6269 -2.5922
  737MOL0     H99476   3.563   6.371   8.004  0.0152  0.6237 -0.2293
  737MOL0     H99477   3.480   6.078   9.077  0.1058  0.1312  0.1943
  737MOL0     H99478   3.521   5.862   9.221 -0.1544 -1.3772 -2.3674
  737MOL0     H99479   3.804   5.501   9.162 -1.2442  0.1032  0.7150
  737MOL0     H99480   3.835   5.260   9.195  2.7175 -1.3245  0.7322
  737MOL0     H99481   3.281   4.138   8.383 -0.0039 -0.4105  0.9479
  737MOL0     H99482   3.119   4.188   8.175 -3.2819  3.1446 -1.6506
  737MOL0     H99483   3.179   4.520   7.662 -2.0035  5.4303  0.4825
  737MOL0     H99484   3.017   4.491   7.458  0.3026  1.6440 -1.2896
  737MOL0     H99485   2.818   4.552   7.366  0.0931  0.3529 -2.1954
  737MOL0     H99486   2.711   4.439   7.300  0.4459 -0.2750 -0.5168
  737MOL0     H99487   2.607   4.603   7.531  2.8754 -0.0364 -0.9672
  737MOL0     H99488   2.518   4.522   7.405 -1.2527 -1.3881  3.8022
  737MOL0     H99489   2.468   4.725   7.327  1.2563  0.6050 -2.9618
  737MOL0     H99490   2.616   4.695   7.254  0.5289 -2.3966  0.7260
  737MOL0     H99491   2.572   4.876   7.495 -0.0876  0.7083 -0.0872
  737MOL0     H99492   2.617   4.914   7.325  1.2590  0.2282 -0.1710
  737MOL0     H99493   2.995   4.849   7.463 -1.0709 -0.7413 -0.2992
  737MOL0     H99494   2.754   4.308   7.768 -0.2588  1.8144  2.9090
  737MOL0     H99495   2.930   4.295   7.912  1.1385 -2.9229 -1.6046
  738MOL0     O99496  10.235   2.274   9.562 -0.7207 -0.5169 -0.3644
  738MOL0     C99497  10.283   2.234   9.674  0.8290 -0.0552 -0.2416
  738MOL0     O99498  10.289   2.307   9.778  0.6061 -0.1987 -0.0075
  738MOL0     C99499  10.204   2.416   9.781 -0.5048  0.0062 -1.2320
  738MOL0     C99500  10.255   2.546   9.794  0.3290 -1.3217  0.1347
  738MOL0     C99501  10.171   2.659   9.785 -0.7239  1.0669  0.0961
  738MOL0     C99502  10.035   2.643   9.767 -0.0347  0.4523  0.5402
  738MOL0     O99503   9.944   2.740   9.767  0.0819 -0.4593  0.1746
  738MOL0     C99504   9.942   2.853   9.682  0.3408 -0.8451  0.0812
  738MOL0     C99505   9.891   2.976   9.757 -0.3579  0.5924 -0.0012
  738MOL0     C99506   9.940   3.115   9.699  0.1740 -0.0708 -0.6598
  738MOL0     C99507   9.889   3.226   9.791  0.0505 -0.2358  1.1572
  738MOL0     C99508   9.855   3.348   9.702 -0.4072 -0.7531  0.8171
  738MOL0     C99509   9.812   3.466   9.790 -0.4064 -0.6071 -0.0294
  738MOL0     C99510   9.791   3.597   9.712  0.3172 -0.6417  0.3208
  738MOL0     C99511   9.928   3.674   9.699 -0.1894  0.3622 -0.4113
  738MOL0     N99512   9.917   3.802   9.628  0.6722 -0.3044  0.6189
  738MOL0     C99513   9.924   3.918   9.704  1.0297 -0.9411 -0.0024
  738MOL0     C99514   9.895   4.019   9.611  0.1676 -0.3676 -1.0378
  738MOL0     C99515   9.889   4.169   9.632 -0.0688  0.8903 -1.0755
  738MOL0     C99516  10.004   4.244   9.573 -0.2509  0.4248  0.1705
  738MOL0     C99517  10.023   4.239   9.417  0.9836  0.8446 -0.2350
  738MOL0     C99518  10.157   4.295   9.371  0.9086 -0.4004  0.5917
  738MOL0     O99519  10.188   4.261   9.240 -0.2746 -0.1726  0.8644
  738MOL0     C99520  10.308   4.285   9.178  0.6654 -0.0198  0.1712
  738MOL0     C99521  10.316   4.251   9.041  0.9757 -0.7060 -0.4978
  738MOL0     C99522  10.437   4.254   8.965  1.1708 -0.2102  0.1669
  738MOL0     C99523  10.429   4.200   8.825 -1.3338 -0.2307  0.4406
  738MOL0     C99524  10.551   4.300   9.024 -0.1719 -0.4342  0.1132
  738MOL0     C99525  10.680   4.324   8.960 -0.2209  0.4999  1.1480
  738MOL0     O99526  10.738   4.451   8.992  0.3182  0.0570  0.5082
  738MOL0     C99527  10.802   4.513   8.884  0.2236 -0.5861  0.1256
  738MOL0     C99528  10.892   4.616   8.923  0.3825 -0.8316 -0.0415
  738MOL0     C99529  10.940   4.700   8.825 -0.4879  0.3221  0.5799
  738MOL0     C99530  10.905   4.689   8.686  0.2050 -0.4468  0.6151
  738MOL0     O99531  10.950   4.766   8.584 -0.0110 -0.5488 -0.0972
  738MOL0     C99532  10.974   4.899   8.619 -0.4652 -1.0692  0.2132
  738MOL0     C99533  10.852   4.976   8.665 -0.0860  0.5525 -0.1813
  738MOL0     C99534  10.758   5.002   8.553  0.7604  0.4756  0.0727
  738MOL0     C99535  10.798   5.113   8.462 -0.5854 -0.1186 -0.4152
  738MOL0     C99536  10.826   5.056   8.319  0.3820 -0.1515 -0.2444
  738MOL0     C99537  10.870   5.168   8.222  0.6047 -0.4969 -0.1846
  738MOL0     C99538  10.870   5.116   8.082 -0.3153  0.1101  0.1268
  738MOL0     C99539  10.920   5.227   7.991  0.4604 -0.2938  0.0498
  738MOL0    Cl99540  11.098   5.239   7.998 -0.3155 -0.1227  0.2664
  738MOL0     C99541  10.820   4.584   8.650  0.7257 -0.4612  1.3987
  738MOL0     C99542  10.768   4.491   8.748  0.1939 -0.9685  1.3063
  738MOL0     O99543  10.722   4.235   8.885  0.6995 -0.1907 -0.5020
  738MOL0     C99544  10.541   4.345   9.160  0.9158  0.0579 -0.3320
  738MOL0     C99545  10.422   4.344   9.233  0.1431 -0.0638 -0.4115
  738MOL0     N99546   9.867   3.951   9.491  0.1357 -0.3041  0.1920
  738MOL0     N99547   9.896   3.830   9.497 -0.5660  0.0839  1.0862
  738MOL0     C99548   9.980   2.515   9.762  0.4506  0.7941  0.6894
  738MOL0     C99549  10.068   2.406   9.751  0.2326 -0.3016 -0.5163
  738MOL0     C99550  10.348   2.097   9.666  0.8762  0.3040  0.4326
  738MOL0     C99551  10.402   2.047   9.546 -0.1174 -0.5498 -0.0893
  738MOL0     C99552  10.478   1.932   9.552 -0.2770  0.2803 -0.5294
  738MOL0     C99553  10.502   1.861   9.667 -0.3809  0.3840  0.1256
  738MOL0     O99554  10.579   1.748   9.670  0.7884 -0.5220  0.6916
  738MOL0     C99555  10.646   1.689   9.555  0.4268 -1.3785  0.0084
  738MOL0     C99556  10.738   1.583   9.610  0.8225  0.9244  0.2736
  738MOL0     C99557  10.817   1.512   9.502  0.3440  0.0229 -0.9796
  738MOL0     C99558  10.938   1.430   9.541 -0.4847 -0.6648  0.0874
  738MOL0     C99559  10.926   1.337   9.648  0.2704 -0.4517 -0.4925
  738MOL0     C99560  10.895   1.254   9.729 -0.5453  0.2979 -0.6868
  738MOL0     C99561  10.446   1.907   9.775 -0.4391 -0.1008  0.6208
  738MOL0     C99562  10.369   2.024   9.783  0.4769 -0.8387 -0.1163
  738MOL0     H99563  10.360   2.568   9.814  0.3983 -1.8768  0.3786
  738MOL0     H99564  10.206   2.761   9.777  0.3759  0.5975 -2.3736
  738MOL0     H99565  10.042   2.883   9.650  0.2855  0.3370  0.9847
  738MOL0     H99566   9.889   2.838   9.587 -2.7026 -0.0375  1.5384
  738MOL0     H99567   9.783   2.977   9.767 -0.4849  2.4542 -1.0987
  738MOL0     H99568   9.942   2.979   9.854 -0.8543  3.4999  0.2736
  738MOL0     H99569  10.049   3.113   9.683  0.0717  1.1127 -1.6042
  738MOL0     H99570   9.899   3.123   9.598  0.0839  0.7929 -0.5620
  738MOL0     H99571   9.806   3.202   9.857 -0.9934 -0.4741 -0.1931
  738MOL0     H99572   9.970   3.256   9.858 -1.6518  1.0524  2.7145
  738MOL0     H99573   9.948   3.368   9.648  0.3640  0.4722  2.4826
  738MOL0     H99574   9.776   3.325   9.630 -0.1306 -2.2727  0.9815
  738MOL0     H99575   9.720   3.432   9.839 -0.7424  2.6238  1.8729
  738MOL0     H99576   9.883   3.491   9.869 -1.4770 -2.5830  1.6559
  738MOL0     H99577   9.745   3.580   9.614  1.4437 -5.7044  0.4166
  738MOL0     H99578   9.728   3.659   9.776 -0.0683  0.7618 -1.3227
  738MOL0     H99579   9.994   3.613   9.637 -0.6811  0.9398 -1.5444
  738MOL0     H99580   9.973   3.689   9.797 -2.1878 -4.6857  1.6122
  738MOL0     H99581   9.928   3.925   9.812  0.8489  1.0244 -0.0774
  738MOL0     H99582   9.802   4.192   9.569 -1.4633  0.6267  0.6864
  738MOL0     H99583   9.866   4.198   9.735 -1.8815 -0.4634 -1.0569
  738MOL0     H99584  10.095   4.222   9.629 -1.0736  2.8303  2.6388
  738MOL0     H99585   9.979   4.346   9.602  2.3670  1.7800 -1.9162
  738MOL0     H99586   9.940   4.281   9.360  2.2035  1.6333 -1.5114
  738MOL0     H99587  10.034   4.137   9.379  1.5686 -1.2421  4.7502
  738MOL0     H99588  10.241   4.266   9.435  0.9561  1.8154  1.6628
  738MOL0     H99589  10.154   4.402   9.394  1.8437 -0.2491  0.0482
  738MOL0     H99590  10.229   4.199   9.002 -0.7508  1.2041  0.5621
  738MOL0     H99591  10.331   4.193   8.776 -0.6775 -2.9274 -0.6819
  738MOL0     H99592  10.493   4.258   8.758 -1.9222  1.1290  1.0162
  738MOL0     H99593  10.469   4.099   8.828  2.6024  1.1946  1.3030
  738MOL0     H99594  10.927   4.635   9.024 -1.6505  0.0132  0.5493
  738MOL0     H99595  11.002   4.782   8.860 -1.3701  1.6743 -0.8768
  738MOL0     H99596  11.053   4.923   8.691  2.1082 -0.9651 -2.4255
  738MOL0     H99597  11.012   4.948   8.528  1.4042 -1.6189  0.6560
  738MOL0     H99598  10.801   4.929   8.750  0.4519  1.2718  0.5681
  738MOL0     H99599  10.883   5.074   8.704  2.2104  0.1436 -0.8473
  738MOL0     H99600  10.672   5.032   8.614  0.6582 -0.8288  0.5987
  738MOL0     H99601  10.735   4.908   8.501 -0.3538  0.4491  0.5847
  738MOL0     H99602  10.714   5.182   8.463  0.5253  1.3664 -2.1902
  738MOL0     H99603  10.880   5.173   8.503  0.3811 -2.4292  1.2513
  738MOL0     H99604  10.726   5.027   8.287  1.0517  0.0945 -2.7669
  738MOL0     H99605  10.888   4.966   8.312 -0.2507 -0.8443  2.0950
  738MOL0     H99606  10.799   5.250   8.236 -0.2268 -0.9731 -1.4199
  738MOL0     H99607  10.975   5.196   8.235  0.0244  1.9468 -0.1882
  738MOL0     H99608  10.764   5.091   8.074 -0.3621 -0.1550  1.3407
  738MOL0     H99609  10.933   5.027   8.084 -2.1512 -1.2796  3.1173
  738MOL0     H99610  10.868   5.321   8.011 -1.1413 -0.2982 -3.4481
  738MOL0     H99611  10.890   5.210   7.887  2.1001  0.7847 -0.6380
  738MOL0     H99612  10.778   4.570   8.551 -0.5899  1.8828  1.5500
  738MOL0     H99613  10.703   4.410   8.716  1.6801 -2.8542  2.8884
  738MOL0     H99614  10.628   4.393   9.203  2.2608  0.2446 -3.0373
  738MOL0     H99615  10.416   4.375   9.337  1.1049  1.9331 -0.9073
  738MOL0     H99616   9.873   2.498   9.765  0.6072 -1.0633 -1.2301
  738MOL0     H99617  10.033   2.306   9.729  1.0263 -0.8181  0.4695
  738MOL0     H99618  10.376   2.098   9.454  0.1397  1.7402  1.0427
  738MOL0     H99619  10.535   1.897   9.467  0.4607 -1.2739  0.5479
  738MOL0     H99620  10.580   1.642   9.481  0.1781 -0.7348 -0.1911
  738MOL0     H99621  10.711   1.765   9.509 -1.8099  1.6234  1.4342
  738MOL0     H99622  10.677   1.516   9.670 -0.9139  1.2716 -1.0262
  738MOL0     H99623  10.808   1.626   9.683  0.3585 -0.5864  1.6738
  738MOL0     H99624  10.844   1.591   9.430 -1.2516  1.1538 -0.3823
  738MOL0     H99625  10.749   1.437   9.460  0.1917 -0.2175 -0.3003
  738MOL0     H99626  11.022   1.496   9.567 -0.7425  1.8211 -4.3796
  738MOL0     H99627  10.987   1.383   9.456 -0.4146  2.3052 -1.6495
  738MOL0     H99628  10.866   1.181   9.801  0.9388 -0.3719 -0.7395
  738MOL0     H99629  10.464   1.846   9.863  4.1164 -0.6524 -0.4279
  738MOL0     H99630  10.332   2.059   9.878  2.2419  0.2754  0.2121
  739MOL0     O99631   0.664  10.714   9.944 -0.3280 -0.3369 -0.0850
  739MOL0     C99632   0.563  10.766   9.894 -0.1568  0.8344 -0.5097
  739MOL0     O99633   0.434  10.770   9.944 -0.5542  0.6024 -0.2192
  739MOL0     C99634   0.426  10.717  10.069  0.1259  0.6359  0.0768
  739MOL0     C99635   0.444  10.801  10.187  0.2984 -0.3875 -0.2122
  739MOL0     C99636   0.421  10.754  10.313  0.1056 -0.1820 -0.4719
  739MOL0     C99637   0.398  10.618  10.340  0.4045 -1.9144  0.0629
  739MOL0     O99638   0.375  10.579  10.467  0.2966  0.3468 -0.9468
  739MOL0     C99639   0.260  10.639  10.535 -0.3467 -1.3185  0.3972
  739MOL0     C99640   0.276  10.610  10.687  0.4411 -0.0459  1.5360
  739MOL0     C99641   0.140  10.636  10.760 -0.5859 -0.4166  0.1333
  739MOL0     C99642   0.082  10.503  10.807  0.0725  0.5066  0.3047
  739MOL0     C99643  -0.036  10.533  10.879 -0.1959 -0.2219 -1.0766
  739MOL0     C99644  -0.168  10.547  10.796 -0.0329  0.8849 -0.5284
  739MOL0     C99645  -0.286  10.587  10.887  0.1948  0.5445  0.7334
  739MOL0     C99646  -0.313  10.738  10.877 -0.3605 -0.1812  1.3196
  739MOL0     N99647  -0.443  10.789  10.913 -0.6044  0.8742 -0.3868
  739MOL0     C99648  -0.468  10.853  11.030  0.0458  0.4131 -0.7290
  739MOL0     C99649  -0.573  10.931  11.012  0.3494  0.3316  0.9071
  739MOL0     C99650  -0.642  11.017  11.115  0.0528  1.2186 -0.0532
  739MOL0     C99651  -0.582  11.170  11.133 -0.0928  1.3909  0.1303
  739MOL0     C99652  -0.671  11.248  11.231  0.5623  1.6169 -0.3694
  739MOL0     C99653  -0.627  11.391  11.227 -0.1843  0.3372  0.1025
  739MOL0     O99654  -0.721  11.457  11.136 -0.3297 -0.2007 -0.5695
  739MOL0     C99655  -0.695  11.571  11.068 -0.6571  0.0279  1.2029
  739MOL0     C99656  -0.800  11.628  10.997  0.3065 -0.5806  0.0694
  739MOL0     C99657  -0.806  11.751  10.934  0.5130 -0.8796  0.4333
  739MOL0     C99658  -0.929  11.774  10.857  0.4751 -1.1165  0.1988
  739MOL0     C99659  -0.691  11.833  10.939 -1.3292 -0.1906 -0.4030
  739MOL0     C99660  -0.679  11.978  10.901  2.1892  0.1381 -0.5873
  739MOL0     O99661  -0.557  12.028  10.905 -0.1217 -0.0552  0.3832
  739MOL0     C99662  -0.549  12.152  10.854  0.7396 -0.0681  1.4758
  739MOL0     C99663  -0.564  12.262  10.935  0.4975  0.1536  0.5843
  739MOL0     C99664  -0.538  12.390  10.882 -0.0590  0.0334 -0.5666
  739MOL0     C99665  -0.500  12.406  10.744 -0.6485  0.2131 -0.2597
  739MOL0     O99666  -0.465  12.528  10.685 -0.3233  1.4701  0.3698
  739MOL0     C99667  -0.405  12.635  10.760  0.5728  0.1343 -0.0348
  739MOL0     C99668  -0.386  12.752  10.659  0.5455  0.6834 -0.0697
  739MOL0     C99669  -0.261  12.732  10.568 -0.5268  0.2470 -0.5037
  739MOL0     C99670  -0.302  12.727  10.422  0.5012 -0.1782  0.6530
  739MOL0     C99671  -0.208  12.658  10.315  0.6241 -0.0899  0.2584
  739MOL0     C99672  -0.201  12.510  10.351  0.8696 -0.4374  0.0915
  739MOL0     C99673  -0.097  12.441  10.267 -0.8694 -0.3948  0.2020
  739MOL0     C99674   0.029  12.416  10.346  0.0321  0.4679  0.2830
  739MOL0    Cl99675   0.117  12.569  10.393 -0.3486 -0.2280 -0.3572
  739MOL0     C99676  -0.503  12.292  10.660 -1.0326 -0.5341 -0.5022
  739MOL0     C99677  -0.534  12.171  10.719 -0.6245 -0.1000  0.1422
  739MOL0     O99678  -0.780  12.042  10.865  0.0455  0.1284 -0.2165
  739MOL0     C99679  -0.576  11.769  11.000  0.0249 -1.1991  0.2747
  739MOL0     C99680  -0.573  11.646  11.059 -0.7157  0.4964 -0.3300
  739MOL0     N99681  -0.611  10.918  10.881 -0.1741 -0.7652  0.0824
  739MOL0     N99682  -0.536  10.825  10.820  0.3705 -1.1313  0.5115
  739MOL0     C99683   0.389  10.536  10.225 -0.1969  0.9891  0.1487
  739MOL0     C99684   0.388  10.584  10.086 -0.2724  0.5076 -0.4550
  739MOL0     C99685   0.582  10.812   9.762 -0.6748  0.1005 -0.7505
  739MOL0     C99686   0.482  10.873   9.690  0.8632 -0.0131  0.6623
  739MOL0     C99687   0.493  10.947   9.565  0.2632  1.1295  0.6102
  739MOL0     C99688   0.618  10.930   9.485  0.9955  0.3001 -1.0319
  739MOL0     O99689   0.628  10.977   9.364 -0.6112  0.0314  0.0153
  739MOL0     C99690   0.758  11.025   9.318 -0.1469  0.7794  0.6054
  739MOL0     C99691   0.741  11.090   9.185 -0.3671  0.5585 -0.4358
  739MOL0     C99692   0.874  11.115   9.116  0.2011 -0.4660 -0.1733
  739MOL0     C99693   0.872  11.190   8.980 -0.0362 -0.4357  0.0007
  739MOL0     C99694   0.777  11.305   8.969 -0.5184  0.0621 -0.6565
  739MOL0     C99695   0.707  11.395   8.952  0.8450  0.7370 -0.0243
  739MOL0     C99696   0.717  10.859   9.554 -0.2867 -0.1069 -0.5205
  739MOL0     C99697   0.704  10.800   9.689  0.0613 -0.7843 -0.1711
  739MOL0     H99698   0.474  10.905  10.178  0.2413 -0.1728  1.6555
  739MOL0     H99699   0.423  10.834  10.387  1.5994  0.5502 -1.2430
  739MOL0     H99700   0.245  10.743  10.503 -2.1758 -1.5693  0.3542
  739MOL0     H99701   0.173  10.583  10.500 -0.2694 -1.1823 -0.0117
  739MOL0     H99702   0.319  10.510  10.697  0.8718  0.1083  1.2645
  739MOL0     H99703   0.348  10.675  10.738  1.8386 -0.9435  0.8029
  739MOL0     H99704   0.158  10.705  10.843  0.3374  0.3825 -0.6863
  739MOL0     H99705   0.080  10.702  10.696  3.5620  3.7434 -0.0528
  739MOL0     H99706   0.062  10.435  10.723  0.2665 -1.0198  1.4571
  739MOL0     H99707   0.147  10.454  10.880  0.2402  0.4195  0.0971
  739MOL0     H99708  -0.060  10.445  10.939  0.1743  0.1237 -0.4094
  739MOL0     H99709  -0.022  10.619  10.946  2.5979 -1.4841  0.0946
  739MOL0     H99710  -0.151  10.624  10.720  3.6095  0.4736 -0.2908
  739MOL0     H99711  -0.185  10.454  10.743 -3.3886  0.9597  0.1830
  739MOL0     H99712  -0.380  10.545  10.851 -0.0751 -0.9805  2.9953
  739MOL0     H99713  -0.287  10.555  10.991 -0.8794 -1.8953  0.0362
  739MOL0     H99714  -0.300  10.782  10.778 -0.6793  0.7762  1.6997
  739MOL0     H99715  -0.250  10.786  10.953 -0.9914  0.7023  1.3023
  739MOL0     H99716  -0.426  10.822  11.125 -0.8466  1.2155 -0.0506
  739MOL0     H99717  -0.746  11.018  11.082 -1.2310 -0.4370  3.4503
  739MOL0     H99718  -0.630  10.958  11.207 -0.2653 -2.1488 -1.9973
  739MOL0     H99719  -0.597  11.222  11.038  0.7622  2.5721  0.6176
  739MOL0     H99720  -0.474  11.172  11.155  0.7462  0.3691 -3.2838
  739MOL0     H99721  -0.658  11.194  11.325 -1.4080 -1.4178 -1.6912
  739MOL0     H99722  -0.776  11.231  11.205  0.7990  0.9513 -0.9083
  739MOL0     H99723  -0.535  11.416  11.174 -1.2759  1.2359 -1.4661
  739MOL0     H99724  -0.640  11.445  11.322 -0.1183  3.0283 -1.3297
  739MOL0     H99725  -0.891  11.567  10.999 -1.7511  2.1743 -1.5476
  739MOL0     H99726  -0.919  11.858  10.788  0.5585  0.8684  2.4755
  739MOL0     H99727  -0.964  11.689  10.799 -2.1783 -1.6675  2.3979
  739MOL0     H99728  -1.006  11.803  10.929  0.5391  1.6316 -0.7203
  739MOL0     H99729  -0.602  12.242  11.034 -0.7303  0.2846  0.1521
  739MOL0     H99730  -0.544  12.480  10.943 -1.0706  0.6309 -1.5239
  739MOL0     H99731  -0.470  12.669  10.841  2.7461  0.7254  1.5427
  739MOL0     H99732  -0.303  12.608  10.790  0.5305 -0.8456 -0.7191
  739MOL0     H99733  -0.478  12.759  10.600 -0.8572 -2.7521  1.4847
  739MOL0     H99734  -0.368  12.839  10.722  3.0216  1.5669 -1.8398
  739MOL0     H99735  -0.216  12.640  10.605  0.4209 -0.6549 -3.5756
  739MOL0     H99736  -0.191  12.814  10.586 -3.5208  3.1427 -1.0317
  739MOL0     H99737  -0.401  12.683  10.408 -0.1564  1.1889  0.9038
  739MOL0     H99738  -0.324  12.827  10.384  0.8884 -1.9257 -5.0107
  739MOL0     H99739  -0.107  12.698  10.302  0.7884 -1.1354 -2.2614
  739MOL0     H99740  -0.268  12.661  10.224 -4.3752 -0.6269  3.1876
  739MOL0     H99741  -0.176  12.494  10.457 -0.8822 -3.7087  0.1652
  739MOL0     H99742  -0.305  12.476  10.344  0.2194  0.8275  2.4666
  739MOL0     H99743  -0.075  12.491  10.172 -1.0236 -5.4457 -2.9047
  739MOL0     H99744  -0.127  12.344  10.226  2.4017 -0.2298 -3.0999
  739MOL0     H99745   0.092  12.336  10.307 -1.2998 -0.2836 -0.4172
  739MOL0     H99746  -0.007  12.361  10.433 -1.1910 -0.5834 -0.8372
  739MOL0     H99747  -0.478  12.311  10.556  1.1410 -0.4591 -0.0144
  739MOL0     H99748  -0.533  12.081  10.657  0.0974  0.6763 -1.0126
  739MOL0     H99749  -0.489  11.833  10.999 -1.3646  0.8350 -1.6858
  739MOL0     H99750  -0.484  11.611  11.109 -1.6163 -0.9523  0.3522
  739MOL0     H99751   0.379  10.429  10.241  3.8785  0.5609  0.7278
  739MOL0     H99752   0.390  10.519   9.999  0.2339  0.6392 -0.5480
  739MOL0     H99753   0.379  10.883   9.723  0.5129  1.0059 -0.6146
  739MOL0     H99754   0.415  11.013   9.525  0.6844  0.3584 -1.6383
  739MOL0     H99755   0.799  11.093   9.393  0.1644  1.0417  0.2034
  739MOL0     H99756   0.833  10.946   9.312  1.4840  2.1996  1.2769
  739MOL0     H99757   0.700  11.190   9.205  0.5786  0.8087  0.3768
  739MOL0     H99758   0.666  11.048   9.117 -1.7290  0.9071  0.8042
  739MOL0     H99759   0.926  11.020   9.101  5.7342  1.9337  1.2388
  739MOL0     H99760   0.944  11.172   9.177 -2.1100  0.1379  2.0817
  739MOL0     H99761   0.853  11.120   8.898 -1.1754  1.6938 -1.6708
  739MOL0     H99762   0.973  11.231   8.969 -0.0250 -1.0613 -3.1939
  739MOL0     H99763   0.642  11.477   8.930  0.2753  0.1327 -0.6527
  739MOL0     H99764   0.815  10.840   9.511  0.5216 -0.9001  1.5644
  739MOL0     H99765   0.784  10.750   9.742 -0.1859 -0.1256  0.8370
  740MOL0     O99766   5.826   4.040   0.433 -1.0385  0.3497 -0.2808
  740MOL0     C99767   5.778   4.037   0.315  0.4397 -0.4985  0.9762
  740MOL0     O99768   5.841   4.085   0.195 -0.4939  0.4644  0.1516
  740MOL0     C99769   5.967   4.115   0.209 -0.5261 -0.0944 -0.0550
  740MOL0     C99770   6.013   4.225   0.278 -0.5330 -0.4333  0.1367
  740MOL0     C99771   6.153   4.255   0.285 -0.4021 -0.4007  0.0550
  740MOL0     C99772   6.243   4.172   0.223 -0.5787  0.4244  0.6065
  740MOL0     O99773   6.374   4.181   0.224  0.2384  1.1115  0.7870
  740MOL0     C99774   6.445   4.277   0.293 -0.0287 -0.3805 -0.2115
  740MOL0     C99775   6.479   4.400   0.217  0.2736 -0.0437 -0.2998
  740MOL0     C99776   6.559   4.493   0.307 -0.7036 -0.4065  0.3448
  740MOL0     C99777   6.623   4.607   0.243 -1.1742 -0.1962 -0.2653
  740MOL0     C99778   6.739   4.572   0.154  0.4947 -0.4458  0.5294
  740MOL0     C99779   6.855   4.667   0.168  0.0369 -0.0919 -0.2572
  740MOL0     C99780   6.823   4.794   0.097 -0.0312 -0.2789 -0.1059
  740MOL0     C99781   6.942   4.893   0.100  0.0135  0.9783  0.3937
  740MOL0     N99782   6.973   4.944   0.239  0.3561 -0.2119 -1.0552
  740MOL0     C99783   6.884   5.015   0.322 -0.8607 -0.5051 -0.0244
  740MOL0     C99784   6.947   5.025   0.441 -0.4208  1.1468 -0.0041
  740MOL0     C99785   6.885   5.087   0.563  1.0027 -0.4497  0.2349
  740MOL0     C99786   6.756   5.011   0.609  0.0098  0.8631 -0.1244
  740MOL0     C99787   6.779   4.867   0.647  0.1486  0.3372  0.3767
  740MOL0     C99788   6.649   4.797   0.628 -0.6682 -0.1211  0.1602
  740MOL0     O99789   6.675   4.654   0.661 -0.1521  0.4312 -0.2953
  740MOL0     C99790   6.574   4.567   0.660 -0.5138  0.8055  0.5715
  740MOL0     C99791   6.438   4.603   0.643  0.7880  0.3286  0.6595
  740MOL0     C99792   6.329   4.515   0.647 -0.8522 -0.2301 -0.2081
  740MOL0     C99793   6.186   4.570   0.642  0.0865  0.5115  0.1400
  740MOL0     C99794   6.364   4.379   0.670  0.5363 -0.0888  0.3212
  740MOL0     C99795   6.254   4.283   0.716 -0.5302 -0.4426  0.2084
  740MOL0     O99796   6.286   4.152   0.716  0.0280 -0.2595 -0.7746
  740MOL0     C99797   6.201   4.055   0.763  0.4857 -0.1774  0.3138
  740MOL0     C99798   6.090   4.065   0.848  0.7080  0.1515 -1.0319
  740MOL0     C99799   6.005   3.951   0.872 -0.1186 -0.6236  0.3398
  740MOL0     C99800   6.031   3.834   0.804  0.2927  0.9694  0.0105
  740MOL0     O99801   5.945   3.731   0.826  0.0985  0.2164  0.2732
  740MOL0     C99802   6.010   3.634   0.919  0.3750  0.4821 -0.5023
  740MOL0     C99803   5.944   3.498   0.878  0.5721  0.5330 -0.4424
  740MOL0     C99804   5.827   3.458   0.967  0.2642  0.8531 -0.3902
  740MOL0     C99805   5.703   3.542   0.955  0.9454 -0.5720 -0.3965
  740MOL0     C99806   5.598   3.525   1.070  0.2093  0.2472 -0.1942
  740MOL0     C99807   5.459   3.592   1.040  0.2249  0.5668 -0.2964
  740MOL0     C99808   5.379   3.612   1.166  0.0521  0.8197  0.0666
  740MOL0     C99809   5.247   3.685   1.130 -0.4450 -0.3060  0.2070
  740MOL0    Cl99810   5.146   3.688   1.281 -0.0136  0.1452 -0.0185
  740MOL0     C99811   6.128   3.820   0.706  0.2344 -0.1257 -0.6286
  740MOL0     C99812   6.216   3.930   0.696 -0.5713 -0.8936 -0.9847
  740MOL0     O99813   6.148   4.334   0.757  1.2393 -0.0958  0.1296
  740MOL0     C99814   6.499   4.336   0.685  0.9315 -0.7398 -1.4454
  740MOL0     C99815   6.602   4.428   0.672  0.1056 -0.0849 -0.2640
  740MOL0     N99816   7.076   4.968   0.430  0.2739  0.3878 -0.1949
  740MOL0     N99817   7.089   4.933   0.309  0.9961 -0.3052 -1.0624
  740MOL0     C99818   6.199   4.060   0.149  0.5796  0.3967  0.0764
  740MOL0     C99819   6.062   4.031   0.148 -0.4298 -0.3391  0.7517
  740MOL0     C99820   5.631   3.988   0.290 -0.4021 -0.3866 -0.0832
  740MOL0     C99821   5.557   4.015   0.165  0.7990 -0.0379 -0.5797
  740MOL0     C99822   5.423   3.964   0.149 -0.2755 -0.2349  0.1231
  740MOL0     C99823   5.371   3.886   0.255  1.2266  0.2953 -0.6075
  740MOL0     O99824   5.245   3.829   0.259 -0.6053 -0.1404  0.6507
  740MOL0     C99825   5.154   3.864   0.148 -0.5975 -0.4942 -0.7586
  740MOL0     C99826   5.020   3.802   0.190  0.6702  0.6069 -1.0255
  740MOL0     C99827   4.905   3.831   0.091  0.5645  0.1249 -0.9714
  740MOL0     C99828   4.896   3.752  -0.040  0.3308 -1.1075  0.4903
  740MOL0     C99829   4.995   3.790  -0.139 -0.4762 -0.5061 -0.2186
  740MOL0     C99830   5.073   3.813  -0.231  0.1004  0.2193 -0.1675
  740MOL0     C99831   5.453   3.852   0.364  0.7295 -0.8896 -0.2378
  740MOL0     C99832   5.586   3.905   0.380  0.5370 -0.8357 -0.4832
  740MOL0     H99833   5.952   4.289   0.341  0.4293 -0.1062  0.7502
  740MOL0     H99834   6.181   4.334   0.354 -4.8085 -0.8673  2.7970
  740MOL0     H99835   6.397   4.309   0.386  0.7781  2.0325 -0.5648
  740MOL0     H99836   6.540   4.229   0.320 -0.1850 -2.2478 -2.6414
  740MOL0     H99837   6.545   4.376   0.134 -1.3508  1.2859 -2.0882
  740MOL0     H99838   6.383   4.441   0.183 -1.3701 -3.6650 -0.5350
  740MOL0     H99839   6.485   4.539   0.373 -0.4304  0.2208  0.2173
  740MOL0     H99840   6.638   4.441   0.361  0.5740 -0.5198 -1.5329
  740MOL0     H99841   6.557   4.678   0.192  1.0992  2.1814 -0.0993
  740MOL0     H99842   6.661   4.661   0.330 -0.3627  0.8559 -1.2528
  740MOL0     H99843   6.778   4.473   0.178  0.2141 -1.6890 -3.4409
  740MOL0     H99844   6.708   4.558   0.050 -0.2353 -0.8214  0.7961
  740MOL0     H99845   6.890   4.699   0.267 -0.7226  3.8633 -1.0625
  740MOL0     H99846   6.940   4.619   0.119 -0.1016 -0.7314  0.1263
  740MOL0     H99847   6.795   4.774  -0.007 -1.5462 -0.7071  0.3620
  740MOL0     H99848   6.736   4.841   0.143 -0.9662 -2.3916  0.4270
  740MOL0     H99849   6.932   4.980   0.035 -1.2637  0.7306  0.2389
  740MOL0     H99850   7.029   4.842   0.056  0.5770  1.2743  1.1401
  740MOL0     H99851   6.781   5.043   0.303 -0.4570  2.9193  1.9188
  740MOL0     H99852   6.955   5.097   0.647  1.5602  3.0436 -0.4976
  740MOL0     H99853   6.855   5.188   0.534  0.3317 -0.6355  0.2637
  740MOL0     H99854   6.675   5.022   0.537 -0.7902 -0.6695  0.4860
  740MOL0     H99855   6.715   5.072   0.690  2.0528  2.1234  0.0191
  740MOL0     H99856   6.795   4.853   0.754  0.3982 -2.5892  0.0346
  740MOL0     H99857   6.859   4.822   0.587 -0.1341 -0.4331  0.5632
  740MOL0     H99858   6.610   4.805   0.526  3.7243  1.0306 -1.6544
  740MOL0     H99859   6.575   4.833   0.700 -0.4081  0.2032  0.2684
  740MOL0     H99860   6.416   4.709   0.636  1.0110  0.3892  0.8506
  740MOL0     H99861   6.111   4.501   0.602 -0.4517  0.8272  0.5851
  740MOL0     H99862   6.149   4.582   0.744 -2.3794 -1.7163 -0.3827
  740MOL0     H99863   6.190   4.669   0.596 -0.9538  0.2884 -0.4605
  740MOL0     H99864   6.059   4.161   0.887  0.9464 -1.1828  2.8920
  740MOL0     H99865   5.920   3.957   0.940  2.1375 -2.7536  3.6976
  740MOL0     H99866   6.118   3.629   0.906  0.5328 -2.8815  1.0171
  740MOL0     H99867   5.981   3.648   1.023 -0.7564  0.0553 -0.7380
  740MOL0     H99868   5.915   3.504   0.772  1.0137 -0.2023 -0.6057
  740MOL0     H99869   6.022   3.422   0.884 -2.3747 -2.6301  1.1107
  740MOL0     H99870   5.869   3.455   1.068  0.4550 -0.1790 -0.4955
  740MOL0     H99871   5.792   3.357   0.946  1.3872  0.0525  1.4096
  740MOL0     H99872   5.738   3.645   0.961  0.5029 -0.1633 -3.3660
  740MOL0     H99873   5.657   3.525   0.858  0.8200  2.3081 -0.9154
  740MOL0     H99874   5.641   3.578   1.156  2.4231  0.2663 -1.2400
  740MOL0     H99875   5.563   3.425   1.100  0.8366 -1.4238 -4.3991
  740MOL0     H99876   5.470   3.691   0.994 -2.0008  1.0533  0.1010
  740MOL0     H99877   5.416   3.533   0.959  1.5186  0.5115 -0.9774
  740MOL0     H99878   5.431   3.668   1.244 -0.1359  1.4435 -0.2441
  740MOL0     H99879   5.346   3.510   1.188  2.8670 -0.5196 -1.4531
  740MOL0     H99880   5.198   3.635   1.046  0.5541  0.4496 -0.8654
  740MOL0     H99881   5.274   3.787   1.101 -1.4373  0.7540  2.7372
  740MOL0     H99882   6.142   3.720   0.667  0.7067 -1.7708  3.3015
  740MOL0     H99883   6.294   3.934   0.621  0.1567 -0.1582 -0.2259
  740MOL0     H99884   6.519   4.235   0.720  0.8234  0.3240  2.1107
  740MOL0     H99885   6.707   4.404   0.672 -0.2267 -1.6359 -0.6189
  740MOL0     H99886   6.268   3.996   0.095 -0.3670 -0.0110 -0.7013
  740MOL0     H99887   6.024   3.953   0.082  1.1142  0.8893 -1.7737
  740MOL0     H99888   5.601   4.070   0.083  1.3169  0.4312  0.0114
  740MOL0     H99889   5.359   3.997   0.067 -0.6157  2.9415  1.5466
  740MOL0     H99890   5.138   3.971   0.129 -0.6353 -0.0406  1.5195
  740MOL0     H99891   5.194   3.830   0.052  2.4621  3.4611 -1.1880
  740MOL0     H99892   4.994   3.835   0.291  1.3329  0.6243 -0.8558
  740MOL0     H99893   5.014   3.694   0.203 -5.0511  0.6429 -0.8661
  740MOL0     H99894   4.895   3.940   0.085  0.8952  0.1577 -0.9434
  740MOL0     H99895   4.812   3.796   0.137  1.9411 -1.0647  1.0929
  740MOL0     H99896   4.805   3.789  -0.089  0.5430 -1.7531 -0.4278
  740MOL0     H99897   4.886   3.646  -0.016 -1.5228 -0.6017  2.2059
  740MOL0     H99898   5.126   3.801  -0.324 -1.5730  0.1886 -1.1714
  740MOL0     H99899   5.417   3.796   0.450  1.7593  0.5396  1.1993
  740MOL0     H99900   5.648   3.874   0.464 -1.7760 -0.9261  1.2828
  741MOL0     O99901   4.568  10.352   9.509  1.4575 -0.2304  0.2885
  741MOL0     C99902   4.581  10.278   9.415 -0.2648  0.2236  0.0771
  741MOL0     O99903   4.513  10.282   9.295  0.1895  0.0995  0.5671
  741MOL0     C99904   4.402  10.367   9.289 -0.1750 -0.9921  0.4576
  741MOL0     C99905   4.314  10.393   9.395  0.3354  0.0589  0.8955
  741MOL0     C99906   4.194  10.470   9.374 -0.6025 -0.1151  0.3488
  741MOL0     C99907   4.160  10.518   9.241  0.2804 -0.0775 -0.4371
  741MOL0     O99908   4.043  10.577   9.214 -0.6967 -0.0243 -0.0612
  741MOL0     C99909   3.933  10.581   9.305  0.1145 -0.1011 -0.5252
  741MOL0     C99910   3.813  10.660   9.258 -0.1530  0.4303 -0.9156
  741MOL0     C99911   3.837  10.813   9.248 -0.0211 -0.4274  0.0673
  741MOL0     C99912   3.698  10.885   9.266  0.3308  0.7546 -0.1528
  741MOL0     C99913   3.713  10.994   9.380  0.1090  0.4860  0.0796
  741MOL0     C99914   3.583  11.034   9.445 -0.2827  0.8958  0.9160
  741MOL0     C99915   3.488  11.098   9.346 -0.0535 -0.6897  0.4909
  741MOL0     C99916   3.549  11.225   9.272  0.1671  1.0113  0.8033
  741MOL0     N99917   3.608  11.324   9.368  0.1285 -0.0636 -0.2060
  741MOL0     C99918   3.533  11.366   9.469 -0.5823 -0.6248 -0.0329
  741MOL0     C99919   3.607  11.472   9.512 -1.2775 -0.3476  0.1364
  741MOL0     C99920   3.581  11.556   9.637 -0.8271  0.0488  0.8065
  741MOL0     C99921   3.475  11.661   9.598  0.2975 -0.4033  0.4791
  741MOL0     C99922   3.529  11.774   9.519 -0.0413  0.6360  0.4780
  741MOL0     C99923   3.430  11.887   9.512  0.3065 -0.3895 -0.2210
  741MOL0     O99924   3.299  11.848   9.468 -0.0949  0.0030 -0.9082
  741MOL0     C99925   3.206  11.947   9.458  0.1380 -0.1130  0.3281
  741MOL0     C99926   3.076  11.904   9.434 -0.4487  0.9194 -0.1907
  741MOL0     C99927   2.969  11.992   9.404 -0.4165 -0.3188 -0.3847
  741MOL0     C99928   2.827  11.947   9.381 -0.3406  0.6554  0.0706
  741MOL0     C99929   3.005  12.137   9.424  0.3625  0.0897  0.3050
  741MOL0     C99930   2.897  12.253   9.430 -0.5104  0.1660 -0.3316
  741MOL0     O99931   2.784  12.223   9.359 -0.1410 -0.2987  0.2599
  741MOL0     C99932   2.711  12.325   9.301  0.4351 -0.5485 -0.0274
  741MOL0     C99933   2.570  12.327   9.316  0.3426  0.1531  1.1286
  741MOL0     C99934   2.501  12.431   9.260 -0.2128  0.3863 -1.0670
  741MOL0     C99935   2.559  12.534   9.193 -0.2172 -0.6193 -1.6793
  741MOL0     O99936   2.468  12.619   9.133 -0.0759  0.3410 -0.1209
  741MOL0     C99937   2.525  12.729   9.054  0.4775  0.1087  0.2380
  741MOL0     C99938   2.407  12.823   9.035  1.2395 -0.2237 -0.0349
  741MOL0     C99939   2.440  12.960   8.967 -0.0224  0.1902 -1.2833
  741MOL0     C99940   2.429  12.955   8.818  0.7007  0.4154 -0.4387
  741MOL0     C99941   2.355  13.083   8.761 -1.6939 -0.3978  0.4792
  741MOL0     C99942   2.433  13.212   8.802  0.2361 -0.0284 -0.3795
  741MOL0     C99943   2.404  13.333   8.711 -0.3784 -0.3249 -0.6128
  741MOL0     C99944   2.510  13.349   8.607  0.8988  0.4916  1.1315
  741MOL0    Cl99945   2.659  13.409   8.669  0.9557 -0.6459 -0.6309
  741MOL0     C99946   2.695  12.537   9.184 -0.4030 -0.9978  0.0309
  741MOL0     C99947   2.775  12.440   9.245 -0.3489  0.5678 -0.1502
  741MOL0     O99948   2.922  12.359   9.478  0.1122  0.7112  0.8205
  741MOL0     C99949   3.135  12.175   9.437 -0.5394  1.3799  0.5122
  741MOL0     C99950   3.237  12.081   9.454  0.0726  0.1639 -0.0039
  741MOL0     N99951   3.729  11.476   9.445 -0.5413  0.1676  0.9835
  741MOL0     N99952   3.737  11.372   9.358 -0.6189 -0.2312  0.0254
  741MOL0     C99953   4.246  10.489   9.139 -0.2419 -0.0202 -0.3227
  741MOL0     C99954   4.365  10.417   9.163 -0.7829  0.3899 -0.7636
  741MOL0     C99955   4.663  10.157   9.440  0.7737  0.2352 -0.2636
  741MOL0     C99956   4.676  10.068   9.332 -0.2634 -0.6972 -0.0053
  741MOL0     C99957   4.752   9.952   9.338  1.1531 -0.2323 -0.5293
  741MOL0     C99958   4.818   9.930   9.458 -0.4164 -0.2133  0.4179
  741MOL0     O99959   4.897   9.820   9.479  0.0795  0.2671  0.3749
  741MOL0     C99960   4.836   9.722   9.560  0.4732  0.2418 -1.1686
  741MOL0     C99961   4.914   9.596   9.545  0.2182  0.5818  0.4023
  741MOL0     C99962   4.943   9.560   9.405  0.5838  0.1428  0.9374
  741MOL0     C99963   5.049   9.441   9.388  0.0689  0.6709 -0.4539
  741MOL0     C99964   5.117   9.439   9.257  0.6328 -0.0263  0.3001
  741MOL0     C99965   5.160   9.416   9.148 -0.5673 -0.5953  0.1822
  741MOL0     C99966   4.810  10.020   9.562  0.2761 -0.6626  0.1600
  741MOL0     C99967   4.725  10.124   9.560 -0.1901 -0.1924 -0.2077
  741MOL0     H99968   4.321  10.350   9.495 -2.2183  0.4648  1.3226
  741MOL0     H99969   4.115  10.485   9.446 -0.0651  1.0493  0.7170
  741MOL0     H99970   3.912  10.475   9.319 -1.6356  0.3943  0.9401
  741MOL0     H99971   3.965  10.634   9.395  1.9945 -0.1114 -1.1407
  741MOL0     H99972   3.782  10.619   9.161 -2.9507  0.6991 -0.2024
  741MOL0     H99973   3.739  10.642   9.336 -0.4586 -0.5429 -1.4050
  741MOL0     H99974   3.909  10.837   9.328 -0.0106  2.4167 -0.6631
  741MOL0     H99975   3.869  10.839   9.147  0.3214  0.7697  0.4601
  741MOL0     H99976   3.676  10.941   9.174 -0.1177  0.7576 -0.0414
  741MOL0     H99977   3.623  10.812   9.296  3.3995 -2.2809  0.6920
  741MOL0     H99978   3.780  10.961   9.459  1.3645 -0.2225 -1.2459
  741MOL0     H99979   3.772  11.081   9.349  1.9978  0.4892  3.2392
  741MOL0     H99980   3.545  10.940   9.486  1.5399 -0.5846 -0.6204
  741MOL0     H99981   3.606  11.109   9.522 -1.1181  1.4224  0.6725
  741MOL0     H99982   3.466  11.030   9.263  1.8771 -0.1326 -0.5449
  741MOL0     H99983   3.391  11.120   9.392 -1.7287 -3.4378 -1.4473
  741MOL0     H99984   3.467  11.272   9.216 -1.6490  0.1879  2.6321
  741MOL0     H99985   3.626  11.209   9.197 -0.6852 -0.2895  0.1779
  741MOL0     H99986   3.436  11.326   9.497 -2.2959  2.7583 -0.6404
  741MOL0     H99987   3.539  11.488   9.712 -2.1090  1.1448  1.1054
  741MOL0     H99988   3.680  11.584   9.673 -0.3170 -2.1504  1.2622
  741MOL0     H99989   3.431  11.701   9.690 -0.3447 -0.0436  0.0255
  741MOL0     H99990   3.398  11.600   9.552  0.7388 -1.3834  1.0142
  741MOL0     H99991   3.554  11.735   9.420  0.1144 -3.4325  1.9279
  741MOL0     H99992   3.622  11.815   9.560  0.6197  1.4880 -1.6724
  741MOL0     H99993   3.477  11.957   9.443 -1.3742  0.2681 -0.7351
  741MOL0     H99994   3.429  11.937   9.609  2.1526  0.7782 -0.7634
  741MOL0     H99995   3.063  11.796   9.426  0.2096  0.9251 -1.7156
  741MOL0     H99996   2.754  11.964   9.461 -0.7805 -2.0114  0.3413
  741MOL0     H99997   2.792  11.993   9.288  4.8853  1.5604 -1.7571
  741MOL0     H99998   2.825  11.838   9.374 -2.6900  0.6979 -0.9456
  741MOL0     H99999   2.520  12.241   9.359 -0.4039  0.3322  0.6254
  741MOL0     H    0   2.393  12.421   9.256 -0.0318 -2.6438 -0.6895
  741MOL0     H    1   2.608  12.784   9.099  2.4916 -1.1050 -1.7939
  741MOL0     H    2   2.561  12.698   8.955 -2.0140  2.3133 -1.5212
  741MOL0     H    3   2.332  12.772   8.974  0.6388  3.2621 -2.4663
  741MOL0     H    4   2.350  12.856   9.122 -2.2459 -0.8111 -1.9355
  741MOL0     H    5   2.547  12.983   8.977  0.1993 -0.9123 -0.9526
  741MOL0     H    6   2.379  13.032   9.021  1.1573 -0.3179  0.8605
  741MOL0     H    7   2.532  12.948   8.782  0.5347  0.2113 -0.8770
  741MOL0     H    8   2.365  12.871   8.793  0.3921  0.0068  1.5478
  741MOL0     H    9   2.258  13.088   8.810 -1.6570 -1.6363  0.6978
  741MOL0     H   10   2.345  13.089   8.653 -1.8442  2.1560  0.5829
  741MOL0     H   11   2.406  13.248   8.902  1.3769 -0.5169  0.1225
  741MOL0     H   12   2.541  13.200   8.815 -0.1026 -0.2170  3.8067
  741MOL0     H   13   2.411  13.427   8.765 -0.4932  0.6061 -2.1566
  741MOL0     H   14   2.299  13.327   8.681 -0.4997  0.4288 -0.3465
  741MOL0     H   15   2.466  13.422   8.539 -0.8396  0.5706  2.2958
  741MOL0     H   16   2.528  13.266   8.539  1.1409  3.9788 -3.5567
  741MOL0     H   17   2.741  12.621   9.133 -0.4692  0.0165  1.5628
  741MOL0     H   18   2.882  12.449   9.231 -0.1027  1.4144  2.0041
  741MOL0     H   19   3.162  12.280   9.442  0.3675  1.3121 -1.8025
  741MOL0     H   20   3.335  12.127   9.464 -0.6547  1.4105  1.9854
  741MOL0     H   21   4.216  10.533   9.044 -0.1637 -1.0805 -0.8589
  741MOL0     H   22   4.435  10.398   9.083 -1.9129 -1.7197 -1.3437
  741MOL0     H   23   4.639  10.084   9.231 -1.8758 -1.3545  0.4390
  741MOL0     H   24   4.756   9.895   9.246  0.2582 -1.3538  0.0937
  741MOL0     H   25   4.836   9.768   9.660  0.7692  2.1169 -1.9855
  741MOL0     H   26   4.734   9.696   9.530 -0.1265  2.0090 -0.8017
  741MOL0     H   27   4.868   9.505   9.585 -2.1458  0.3200 -2.5388
  741MOL0     H   28   5.012   9.616   9.588 -0.8362  0.0128  3.3585
  741MOL0     H   29   4.985   9.647   9.354 -0.4311 -0.8910 -1.8018
  741MOL0     H   30   4.853   9.530   9.352 -1.0154  2.1413  2.3642
  741MOL0     H   31   4.992   9.348   9.400  1.7327 -0.1222  2.2991
  741MOL0     H   32   5.129   9.436   9.462  0.5443 -1.2729 -1.0423
  741MOL0     H   33   5.196   9.416   9.048  1.7036 -0.0746  0.9474
  741MOL0     H   34   4.857  10.004   9.658  1.3865  1.7225  0.0697
  741MOL0     H   35   4.720  10.190   9.647 -0.1217 -1.5807  0.8874
  742MOL0     O   36   2.964   9.027   4.249  0.2222  0.6007  0.3780
  742MOL0     C   37   3.069   8.985   4.197  0.3028  0.2741 -0.2832
  742MOL0     O   38   3.197   9.049   4.196  0.4359  0.9465 -0.5673
  742MOL0     C   39   3.221   9.167   4.255 -0.1056 -0.0142 -0.5537
  742MOL0     C   40   3.323   9.181   4.347 -0.8174  0.7326  0.3899
  742MOL0     C   41   3.343   9.294   4.418 -0.5305  0.2731 -0.4758
  742MOL0     C   42   3.276   9.405   4.379  0.6431 -0.9713 -0.8798
  742MOL0     O   43   3.282   9.525   4.458 -0.2044  0.1453  0.9812
  742MOL0     C   44   3.321   9.651   4.383 -0.1856 -0.1683 -0.7268
  742MOL0     C   45   3.402   9.726   4.487  0.5429  0.2695 -0.2921
  742MOL0     C   46   3.521   9.655   4.536 -0.0374 -0.0728 -0.3763
  742MOL0     C   47   3.580   9.728   4.667  0.5019 -0.5642  0.3739
  742MOL0     C   48   3.672   9.623   4.739  0.4478 -0.2316 -0.0552
  742MOL0     C   49   3.741   9.680   4.865  0.1272  0.1240 -0.3276
  742MOL0     C   50   3.639   9.681   4.982 -0.5624 -0.1855 -0.0839
  742MOL0     C   51   3.698   9.744   5.110  0.7060 -0.4080 -0.9304
  742MOL0     N   52   3.604   9.752   5.226  0.3779  1.4892  0.4520
  742MOL0     C   53   3.583   9.652   5.316  0.6596 -1.1808 -0.0070
  742MOL0     C   54   3.495   9.704   5.409  0.0032 -0.7563 -1.0010
  742MOL0     C   55   3.430   9.635   5.527  0.1101  0.1945 -0.2548
  742MOL0     C   56   3.294   9.590   5.476  0.3303 -0.3934  1.0935
  742MOL0     C   57   3.296   9.459   5.380  0.6342 -0.9397  0.4337
  742MOL0     C   58   3.164   9.455   5.295 -0.6049  0.4538 -1.0379
  742MOL0     O   59   3.137   9.315   5.266 -0.7923  0.1392 -0.0679
  742MOL0     C   60   3.017   9.287   5.221  0.6120  0.0973  0.1988
  742MOL0     C   61   3.004   9.155   5.190  0.2227 -0.2804  0.1921
  742MOL0     C   62   2.884   9.093   5.160  0.0916 -0.6530 -0.1942
  742MOL0     C   63   2.876   8.942   5.153  0.1573 -0.8081 -0.1957
  742MOL0     C   64   2.765   9.182   5.136  0.3156  0.0263 -0.7697
  742MOL0     C   65   2.634   9.143   5.070 -0.0985  0.0244 -0.0994
  742MOL0     O   66   2.622   9.014   5.036 -0.2050 -1.1759  0.3883
  742MOL0     C   67   2.538   8.957   4.940  1.2978 -1.1419 -0.7977
  742MOL0     C   68   2.452   9.028   4.851 -1.0193 -0.1837  1.0968
  742MOL0     C   69   2.379   8.968   4.749 -0.6472  0.0310  0.8913
  742MOL0     C   70   2.380   8.834   4.733 -0.7411 -0.1657  0.3124
  742MOL0     O   71   2.306   8.773   4.627 -0.4539  0.6034 -0.2261
  742MOL0     C   72   2.201   8.850   4.567 -0.3250 -0.2581  0.6847
  742MOL0     C   73   2.105   8.754   4.491  0.7323 -0.2809 -0.2094
  742MOL0     C   74   1.994   8.699   4.579 -0.1912 -0.0473 -0.3168
  742MOL0     C   75   1.945   8.563   4.528 -0.0453  0.3071  0.8480
  742MOL0     C   76   1.921   8.549   4.381  0.0783  0.0546 -0.4117
  742MOL0     C   77   1.778   8.612   4.356 -0.2199 -0.0670  0.1644
  742MOL0     C   78   1.739   8.622   4.210 -1.5483 -0.1784  0.0039
  742MOL0     C   79   1.599   8.682   4.170  0.2271  0.2068  0.9010
  742MOL0    Cl   80   1.456   8.595   4.234 -0.4159  0.2344 -0.0307
  742MOL0     C   81   2.471   8.756   4.818  0.7161  0.1892  0.6112
  742MOL0     C   82   2.549   8.826   4.917 -0.1167 -0.6108  0.7145
  742MOL0     O   83   2.559   9.233   5.040 -0.1843 -0.7307 -0.1352
  742MOL0     C   84   2.778   9.321   5.164 -0.5029 -0.5548 -0.2326
  742MOL0     C   85   2.903   9.374   5.209 -0.9616  0.6553  1.1108
  742MOL0     N   86   3.466   9.833   5.368  0.5065 -1.0575 -0.3787
  742MOL0     N   87   3.529   9.862   5.256  0.6719 -0.7550  0.2151
  742MOL0     C   88   3.178   9.404   4.287 -0.2952 -0.2374 -0.3721
  742MOL0     C   89   3.149   9.283   4.224  0.9708  0.6423  0.1578
  742MOL0     C   90   3.056   8.846   4.135  0.7394  0.0838 -0.4442
  742MOL0     C   91   2.940   8.772   4.124  0.1681  0.2235 -0.8534
  742MOL0     C   92   2.934   8.648   4.068 -0.4579 -0.3308  0.1588
  742MOL0     C   93   3.050   8.586   4.014 -1.0026  0.6488  0.0505
  742MOL0     O   94   3.040   8.453   3.964  0.4782  0.2586 -0.0342
  742MOL0     C   95   3.155   8.366   3.949 -0.2051 -0.9004 -0.2463
  742MOL0     C   96   3.114   8.220   3.917  0.5052 -0.0696  0.3908
  742MOL0     C   97   3.228   8.123   3.925 -0.7198  0.5090  0.2687
  742MOL0     C   98   3.333   8.121   3.808  0.0103  0.0214 -0.2111
  742MOL0     C   99   3.433   8.014   3.824 -0.1040  0.3251  0.1640
  742MOL0     C  100   3.519   7.931   3.853  0.3082  0.5219 -0.9274
  742MOL0     C  101   3.163   8.664   4.005 -1.0590  0.2195 -0.0979
  742MOL0     C  102   3.167   8.795   4.059  0.1433  0.2635 -0.2977
  742MOL0     H  103   3.386   9.094   4.365 -3.0036 -0.8050  0.9434
  742MOL0     H  104   3.409   9.294   4.503 -0.5981 -2.1940 -0.3759
  742MOL0     H  105   3.377   9.631   4.291 -0.1626  1.4988 -1.0984
  742MOL0     H  106   3.234   9.710   4.352 -1.6962 -1.6574  0.4826
  742MOL0     H  107   3.419   9.825   4.442  1.0810 -0.6648 -2.2511
  742MOL0     H  108   3.335   9.745   4.571  0.1651 -0.8706 -0.3227
  742MOL0     H  109   3.492   9.553   4.561 -3.4842  0.9258  0.1577
  742MOL0     H  110   3.597   9.653   4.457 -1.5949 -3.3255 -1.9716
  742MOL0     H  111   3.650   9.809   4.643 -1.6307  0.8954 -1.2760
  742MOL0     H  112   3.505   9.767   4.736  1.1591 -1.9055  1.9176
  742MOL0     H  113   3.623   9.534   4.781  0.1500 -0.2001 -0.3363
  742MOL0     H  114   3.752   9.590   4.672  0.9546  2.6751 -1.0358
  742MOL0     H  115   3.827   9.618   4.891 -3.8004 -5.1768  1.8329
  742MOL0     H  116   3.765   9.787   4.853 -2.3602  1.3217  3.5596
  742MOL0     H  117   3.549   9.730   4.942 -1.3178 -2.7392 -1.7771
  742MOL0     H  118   3.604   9.580   5.004 -3.9738  1.2355  1.7377
  742MOL0     H  119   3.746   9.839   5.082  2.9136 -1.1320  0.1660
  742MOL0     H  120   3.776   9.673   5.138  0.1400 -0.2187  1.3472
  742MOL0     H  121   3.630   9.554   5.321  1.6748 -0.6977  0.1539
  742MOL0     H  122   3.488   9.552   5.570  3.9652  3.3565  1.2689
  742MOL0     H  123   3.411   9.708   5.606 -0.3095  3.1088 -2.8768
  742MOL0     H  124   3.254   9.663   5.405  2.0756 -1.1652 -0.7824
  742MOL0     H  125   3.228   9.572   5.562 -4.9443 -1.6608 -2.7261
  742MOL0     H  126   3.334   9.366   5.424  0.2813 -2.1570 -1.7004
  742MOL0     H  127   3.363   9.494   5.302 -0.0428  1.2435  0.7690
  742MOL0     H  128   3.178   9.533   5.219  0.0548  2.5887  1.1507
  742MOL0     H  129   3.092   9.494   5.366 -0.1672 -0.5808  0.0027
  742MOL0     H  130   3.100   9.105   5.196 -0.2128 -0.9739  1.8275
  742MOL0     H  131   2.933   8.887   5.228  1.4528  0.3144 -0.3017
  742MOL0     H  132   2.771   8.911   5.157 -0.0231 -0.8383 -3.0656
  742MOL0     H  133   2.914   8.914   5.054  1.8896  0.4170  0.0830
  742MOL0     H  134   2.441   9.136   4.861 -2.8178 -0.1064 -1.0221
  742MOL0     H  135   2.317   9.034   4.690 -0.0380  2.6534  3.0096
  742MOL0     H  136   2.128   8.898   4.633 -0.8389  1.5631 -1.1154
  742MOL0     H  137   2.239   8.928   4.501  0.7282 -1.0130  0.3733
  742MOL0     H  138   2.054   8.795   4.403 -2.5768 -1.7569  0.8610
  742MOL0     H  139   2.168   8.671   4.455  1.2203  0.2826 -0.6941
  742MOL0     H  140   1.908   8.765   4.590 -0.8705 -1.0847  0.8000
  742MOL0     H  141   2.030   8.687   4.682  2.9594  2.3377 -0.9577
  742MOL0     H  142   2.013   8.484   4.561 -0.7610 -0.9147 -0.4672
  742MOL0     H  143   1.856   8.544   4.588 -0.0622  1.9531  1.3902
  742MOL0     H  144   1.921   8.445   4.348  0.1461  0.3061 -1.2170
  742MOL0     H  145   1.997   8.595   4.318  0.6164 -0.2502  0.0100
  742MOL0     H  146   1.701   8.570   4.421  0.0850 -0.9047 -0.0099
  742MOL0     H  147   1.783   8.718   4.383  2.2043 -0.1635  0.3287
  742MOL0     H  148   1.750   8.521   4.169 -1.3883  0.5964 -1.9814
  742MOL0     H  149   1.817   8.680   4.160 -2.5260  2.2635  1.1368
  742MOL0     H  150   1.586   8.686   4.062 -0.1172  1.9215  0.9707
  742MOL0     H  151   1.588   8.788   4.195  0.4425  0.3914  0.2463
  742MOL0     H  152   2.474   8.648   4.811  2.2473  0.3123 -2.8855
  742MOL0     H  153   2.606   8.760   4.981 -0.7124 -1.9187 -0.0628
  742MOL0     H  154   2.691   9.385   5.153  0.5406  1.2463  1.3917
  742MOL0     H  155   2.916   9.480   5.231 -1.8574  0.9700  0.2139
  742MOL0     H  156   3.118   9.493   4.271 -2.2375 -1.2897  0.7376
  742MOL0     H  157   3.064   9.283   4.156  0.1078  1.4109  1.2047
  742MOL0     H  158   2.852   8.810   4.176  0.3193 -0.6743  0.1060
  742MOL0     H  159   2.840   8.596   4.085 -0.3550 -0.4094  0.4946
  742MOL0     H  160   3.212   8.411   3.867  3.3321  1.2230  2.9930
  742MOL0     H  161   3.214   8.357   4.041 -1.2284  0.1411  0.5397
  742MOL0     H  162   3.064   8.207   3.821  0.9192 -1.4070  0.3391
  742MOL0     H  163   3.026   8.190   3.975  1.9395 -5.9036  0.1725
  742MOL0     H  164   3.176   8.027   3.931 -2.0717  1.3050  2.8568
  742MOL0     H  165   3.272   8.131   4.025 -1.2481 -1.9284  0.7591
  742MOL0     H  166   3.370   8.224   3.815  1.5212 -0.4232 -1.1132
  742MOL0     H  167   3.287   8.116   3.709 -0.2327 -2.3644 -0.0380
  742MOL0     H  168   3.602   7.863   3.864  0.1326 -0.3231 -3.9549
  742MOL0     H  169   3.246   8.621   3.950 -1.5078 -2.7085  1.2971
  742MOL0     H  170   3.254   8.858   4.042 -1.2286  2.1956 -0.3967
  743MOL0     O  171   8.665   4.318   6.037  0.0512  0.3859 -0.3636
  743MOL0     C  172   8.742   4.342   5.943  0.4830  1.3098 -1.5007
  743MOL0     O  173   8.750   4.262   5.838  0.0424  1.0258 -1.0106
  743MOL0     C  174   8.666   4.156   5.845 -0.7304 -0.1156  0.1832
  743MOL0     C  175   8.532   4.167   5.811 -0.0507  0.6431 -0.0231
  743MOL0     C  176   8.463   4.042   5.794 -0.1006  0.0696  1.0875
  743MOL0     C  177   8.527   3.923   5.808  0.5357  0.5057  0.3606
  743MOL0     O  178   8.473   3.807   5.763 -0.4451 -0.3987 -0.2339
  743MOL0     C  179   8.348   3.806   5.697  0.7059 -0.6306 -0.8162
  743MOL0     C  180   8.295   3.667   5.709 -0.3873  1.0732  0.3315
  743MOL0     C  181   8.187   3.630   5.610 -0.3417 -0.5609 -0.4709
  743MOL0     C  182   8.136   3.482   5.614 -0.9008 -0.2902  0.3452
  743MOL0     C  183   8.226   3.371   5.549  0.4537 -0.6681 -0.4310
  743MOL0     C  184   8.166   3.230   5.542  0.3778 -0.1527 -0.8706
  743MOL0     C  185   8.030   3.210   5.493 -0.2860  0.5817  0.8183
  743MOL0     C  186   8.005   3.059   5.474  0.6339  0.4439 -0.1707
  743MOL0     N  187   7.860   3.033   5.459  0.1152 -1.2262 -0.4389
  743MOL0     C  188   7.795   3.088   5.352  0.2169 -0.1393  0.8617
  743MOL0     C  189   7.662   3.068   5.386  0.0403 -0.7386  0.1550
  743MOL0     C  190   7.535   3.134   5.319  0.1318  0.0542 -0.2834
  743MOL0     C  191   7.445   3.214   5.415  0.4348 -0.4081 -0.5756
  743MOL0     C  192   7.510   3.346   5.468 -0.6194  0.3480  0.8619
  743MOL0     C  193   7.451   3.406   5.593  0.3886 -0.8267  0.0689
  743MOL0     O  194   7.528   3.486   5.672 -0.1881 -0.9654  0.4324
  743MOL0     C  195   7.625   3.430   5.756  0.1640  0.9573  0.7115
  743MOL0     C  196   7.646   3.292   5.781 -0.0006  0.8432 -1.0917
  743MOL0     C  197   7.737   3.241   5.878 -0.2457  0.2999 -0.9525
  743MOL0     C  198   7.750   3.100   5.906  0.1324  0.4708  0.4371
  743MOL0     C  199   7.829   3.336   5.933 -0.6575  0.2867 -0.8473
  743MOL0     C  200   7.946   3.294   6.021  1.1756  0.3175  0.1219
  743MOL0     O  201   8.030   3.407   6.042 -0.1853  1.6948 -0.4694
  743MOL0     C  202   8.129   3.414   6.141  0.2214  0.6916 -0.5995
  743MOL0     C  203   8.196   3.539   6.130  0.0119 -0.4003  0.1377
  743MOL0     C  204   8.292   3.576   6.235  0.7084  0.4788  0.1672
  743MOL0     C  205   8.327   3.489   6.332  0.1708 -0.7119  0.0357
  743MOL0     O  206   8.406   3.550   6.424  0.1441 -0.2745 -0.6223
  743MOL0     C  207   8.515   3.469   6.470  0.0463 -0.1090  0.0889
  743MOL0     C  208   8.607   3.562   6.545  0.2038  0.0374  0.5193
  743MOL0     C  209   8.672   3.496   6.664 -1.1772  0.2404  0.4239
  743MOL0     C  210   8.782   3.389   6.627  0.1217  0.4709  0.0193
  743MOL0     C  211   8.823   3.326   6.760 -0.7025  0.8906  0.4674
  743MOL0     C  212   8.958   3.265   6.746 -0.9631 -0.4499  0.2256
  743MOL0     C  213   9.016   3.225   6.884 -0.7923  0.7362  0.5474
  743MOL0     C  214   9.159   3.180   6.887  0.2156  0.4135  0.6613
  743MOL0    Cl  215   9.203   3.138   7.048  0.1748  0.4318  0.4321
  743MOL0     C  216   8.266   3.363   6.335  1.1096 -0.3303 -0.3003
  743MOL0     C  217   8.167   3.325   6.239  0.0556 -0.0329 -0.9819
  743MOL0     O  218   7.972   3.174   6.056 -0.5304 -0.6266 -0.2715
  743MOL0     C  219   7.823   3.474   5.891  0.8038 -0.5763  0.2470
  743MOL0     C  220   7.722   3.514   5.809 -0.0620 -0.2914  0.1039
  743MOL0     N  221   7.655   2.996   5.500 -0.6622  0.6552 -0.6106
  743MOL0     N  222   7.780   2.971   5.543 -0.2815  1.0187 -0.0312
  743MOL0     C  223   8.655   3.921   5.863  0.7604  0.2733  0.4044
  743MOL0     C  224   8.730   4.036   5.865  0.2692 -1.0284  0.4552
  743MOL0     C  225   8.825   4.456   5.960 -0.7812 -0.0050 -0.9064
  743MOL0     C  226   8.913   4.495   5.869 -0.2892  0.0836 -0.1613
  743MOL0     C  227   9.009   4.602   5.886  0.3402 -0.4216  0.3570
  743MOL0     C  228   9.001   4.680   6.008  0.4123 -0.5544 -0.6587
  743MOL0     O  229   9.087   4.786   6.047  1.0232 -0.5474  0.1385
  743MOL0     C  230   9.175   4.850   5.950  0.0604  0.0896 -0.5912
  743MOL0     C  231   9.235   4.971   6.025 -0.4280 -1.3399 -0.8160
  743MOL0     C  232   9.327   5.046   5.926  0.6325  0.4153 -0.7193
  743MOL0     C  233   9.405   5.155   5.987 -0.4021 -0.0877  0.0665
  743MOL0     C  234   9.298   5.249   6.044 -0.4653  0.0501  1.0421
  743MOL0     C  235   9.229   5.327   6.088  0.2518 -0.7089 -1.4937
  743MOL0     C  236   8.910   4.635   6.107 -0.8696  0.3076  0.8413
  743MOL0     C  237   8.820   4.529   6.082 -0.6209  0.2218  0.6841
  743MOL0     H  238   8.477   4.260   5.817  1.7835  1.7337  0.9597
  743MOL0     H  239   8.362   4.051   5.754  0.2433 -2.3319 -0.5286
  743MOL0     H  240   8.276   3.873   5.744  1.7881  0.0608 -0.0994
  743MOL0     H  241   8.366   3.837   5.594  2.4893  2.8883  0.3846
  743MOL0     H  242   8.383   3.610   5.676 -0.2014  1.9137 -0.6709
  743MOL0     H  243   8.270   3.641   5.812  1.5218 -2.6386  0.0073
  743MOL0     H  244   8.099   3.693   5.630  0.5128  0.6725 -0.4877
  743MOL0     H  245   8.220   3.658   5.509 -2.6842  0.5341 -1.0283
  743MOL0     H  246   8.110   3.467   5.719  2.0757  0.9659  1.3376
  743MOL0     H  247   8.046   3.487   5.551  0.4032  1.1018 -1.4896
  743MOL0     H  248   8.245   3.405   5.447  0.0702  1.5001  0.1600
  743MOL0     H  249   8.320   3.370   5.606  0.3588 -2.8299 -0.2310
  743MOL0     H  250   8.226   3.180   5.467 -1.1022 -2.6435 -0.5040
  743MOL0     H  251   8.161   3.181   5.640 -1.7917 -2.5186 -2.0480
  743MOL0     H  252   7.956   3.261   5.555 -2.4327 -1.8283  0.3903
  743MOL0     H  253   8.026   3.260   5.396  1.7821 -1.4434 -0.4057
  743MOL0     H  254   8.056   2.998   5.550  1.7700 -0.3099 -1.4869
  743MOL0     H  255   8.064   3.035   5.385  1.8178  1.2684  0.3657
  743MOL0     H  256   7.840   3.127   5.261  0.3895 -2.0417  0.0791
  743MOL0     H  257   7.569   3.212   5.250 -0.3944  0.7407  0.2282
  743MOL0     H  258   7.485   3.047   5.275 -2.7496  0.8432  1.1966
  743MOL0     H  259   7.412   3.154   5.501  0.5119 -0.2461 -0.4307
  743MOL0     H  260   7.352   3.233   5.362  2.5459  0.2545 -4.4471
  743MOL0     H  261   7.509   3.422   5.389 -0.6409 -2.6855 -2.3396
  743MOL0     H  262   7.614   3.312   5.479  0.0306  0.3036 -3.5595
  743MOL0     H  263   7.410   3.327   5.656  0.3334 -1.7814 -1.1039
  743MOL0     H  264   7.363   3.459   5.555  0.2817 -0.6163  0.6001
  743MOL0     H  265   7.579   3.216   5.742 -1.0579 -2.0561  5.0812
  743MOL0     H  266   7.730   3.070   6.009  0.1858 -4.1904 -0.6720
  743MOL0     H  267   7.673   3.057   5.841  2.4937  0.5873 -2.6852
  743MOL0     H  268   7.842   3.050   5.873 -0.9562 -0.2162 -1.8024
  743MOL0     H  269   8.157   3.615   6.064  1.6908 -0.5039 -1.0393
  743MOL0     H  270   8.333   3.674   6.257  0.6922  0.1503  1.8116
  743MOL0     H  271   8.492   3.384   6.535  0.2635 -0.8910 -0.8345
  743MOL0     H  272   8.570   3.422   6.388 -0.4269 -0.0249 -0.2796
  743MOL0     H  273   8.684   3.612   6.485  0.5331 -0.2394  0.7055
  743MOL0     H  274   8.546   3.642   6.587  0.4271 -0.5915  2.1010
  743MOL0     H  275   8.598   3.445   6.727  0.1944  1.3253  3.0894
  743MOL0     H  276   8.720   3.566   6.733  0.5989 -0.5110 -0.0013
  743MOL0     H  277   8.736   3.311   6.565  0.6171  2.4315 -2.9980
  743MOL0     H  278   8.871   3.435   6.585  0.9893  0.7724  2.0394
  743MOL0     H  279   8.745   3.269   6.810 -1.2437  2.0794  1.0100
  743MOL0     H  280   8.835   3.409   6.831  1.9700  0.9155  0.0981
  743MOL0     H  281   8.957   3.175   6.683  0.4883  1.4915 -2.8012
  743MOL0     H  282   9.007   3.343   6.688 -1.8875  0.0229  0.0558
  743MOL0     H  283   8.950   3.143   6.913 -1.3669  0.4298 -1.4349
  743MOL0     H  284   9.009   3.311   6.951 -1.5725  1.3093 -0.2437
  743MOL0     H  285   9.215   3.262   6.840 -1.3948  0.3504 -1.5977
  743MOL0     H  286   9.169   3.087   6.830 -0.1694  0.9322 -0.2898
  743MOL0     H  287   8.303   3.292   6.407  0.7017 -4.1928 -3.5625
  743MOL0     H  288   8.120   3.227   6.235 -1.4595  0.5681  0.7808
  743MOL0     H  289   7.887   3.557   5.920  0.8455 -0.3709 -0.4225
  743MOL0     H  290   7.711   3.618   5.779 -1.2076 -0.3018  0.4468
  743MOL0     H  291   8.694   3.823   5.890 -1.5761 -0.3911  1.5524
  743MOL0     H  292   8.838   4.033   5.880  0.4517  1.8458  0.1799
  743MOL0     H  293   8.915   4.442   5.774  1.0516 -0.6584  0.2512
  743MOL0     H  294   9.076   4.633   5.807 -4.1064  1.0965 -3.1912
  743MOL0     H  295   9.253   4.788   5.905  1.5990  2.2947 -1.1245
  743MOL0     H  296   9.112   4.892   5.871  1.1713  1.4121 -0.7992
  743MOL0     H  297   9.295   4.947   6.113 -2.3388  2.4854  1.8210
  743MOL0     H  298   9.151   5.024   6.070  0.6827 -0.1021 -0.1295
  743MOL0     H  299   9.260   5.092   5.853 -4.6388  0.6808  3.6585
  743MOL0     H  300   9.386   4.976   5.867 -1.7936 -1.6934 -0.8265
  743MOL0     H  301   9.469   5.190   5.906  1.3120 -0.4955  1.1887
  743MOL0     H  302   9.464   5.111   6.068 -2.6078 -1.3359  1.0832
  743MOL0     H  303   9.160   5.401   6.123  1.8801  0.0365  0.4033
  743MOL0     H  304   8.885   4.693   6.195  2.9766 -0.1314  2.4213
  743MOL0     H  305   8.760   4.519   6.172 -2.7458  1.2187 -0.5458
  744MOL0     O  306   8.217   6.681   5.779 -0.2031 -0.0429  0.2256
  744MOL0     C  307   8.201   6.790   5.832  0.7491  0.0713 -0.3333
  744MOL0     O  308   8.138   6.894   5.776 -0.2041 -0.7397  0.4105
  744MOL0     C  309   8.075   6.889   5.656  0.3292 -0.6249  0.6116
  744MOL0     C  310   8.146   6.960   5.550  0.0555  0.0573 -0.6644
  744MOL0     C  311   8.104   6.947   5.421  0.5059  0.4701  0.2449
  744MOL0     C  312   7.983   6.871   5.394  0.1105 -0.9925  0.3156
  744MOL0     O  313   7.917   6.861   5.276  0.2885  0.9806 -0.2678
  744MOL0     C  314   7.890   6.980   5.214 -0.0150  0.4570  0.5710
  744MOL0     C  315   7.743   6.974   5.150 -1.5052  0.8589 -1.6095
  744MOL0     C  316   7.678   7.103   5.100 -0.0434 -0.1859 -0.0102
  744MOL0     C  317   7.557   7.063   5.027  0.0389 -0.2331  0.5173
  744MOL0     C  318   7.501   7.190   4.947  0.1379  0.2579  0.1686
  744MOL0     C  319   7.567   7.230   4.818  2.1197 -0.2236  0.9055
  744MOL0     C  320   7.538   7.151   4.691  0.3144  0.7525  0.1278
  744MOL0     C  321   7.627   7.191   4.578  0.0963  0.0783 -0.0260
  744MOL0     N  322   7.635   7.333   4.528  0.3376  0.7873 -0.3822
  744MOL0     C  323   7.538   7.421   4.499  0.6084 -0.3316 -1.0772
  744MOL0     C  324   7.602   7.514   4.423 -1.1939 -0.0581 -0.2361
  744MOL0     C  325   7.522   7.641   4.375 -0.2736 -0.1961  0.2573
  744MOL0     C  326   7.590   7.774   4.419 -0.1975  0.5441 -0.4045
  744MOL0     C  327   7.726   7.803   4.358  0.6807  0.0384  0.5636
  744MOL0     C  328   7.769   7.949   4.381  0.3961 -0.5276 -0.2856
  744MOL0     O  329   7.905   7.970   4.344  0.0469 -0.3042 -0.4157
  744MOL0     C  330   7.968   8.093   4.321  0.6815 -0.3472  0.1796
  744MOL0     C  331   8.105   8.086   4.295 -0.4914 -0.5610 -0.3140
  744MOL0     C  332   8.184   8.191   4.255 -0.7404 -0.1074  0.1929
  744MOL0     C  333   8.330   8.158   4.259 -0.5563  0.0736 -1.1461
  744MOL0     C  334   8.120   8.313   4.225 -0.3116  0.8309  0.9415
  744MOL0     C  335   8.186   8.429   4.155  0.2561 -0.1232 -0.0239
  744MOL0     O  336   8.312   8.434   4.133  0.1194  0.5964 -0.0951
  744MOL0     C  337   8.356   8.529   4.035  0.9450  0.4098  0.1317
  744MOL0     C  338   8.336   8.663   4.054  0.3729  1.0720  0.0653
  744MOL0     C  339   8.396   8.757   3.965  0.6538  0.2477  0.3896
  744MOL0     C  340   8.465   8.716   3.852 -0.0605 -0.7874  0.6988
  744MOL0     O  341   8.523   8.821   3.777 -0.5139 -0.3500  0.0780
  744MOL0     C  342   8.527   8.808   3.633 -0.3608 -0.4334 -0.1251
  744MOL0     C  343   8.474   8.936   3.559 -0.2373 -0.3074 -0.8940
  744MOL0     C  344   8.568   9.056   3.592  0.1758 -0.1576 -0.5243
  744MOL0     C  345   8.547   9.171   3.500  0.2494  0.5051 -0.4720
  744MOL0     C  346   8.540   9.313   3.571  0.1292 -0.0917  0.2660
  744MOL0     C  347   8.549   9.428   3.469 -0.0175 -0.3207  0.2127
  744MOL0     C  348   8.572   9.569   3.541 -1.5783 -0.5977 -0.6085
  744MOL0     C  349   8.704   9.621   3.484 -0.4322 -0.4224  0.6272
  744MOL0    Cl  350   8.734   9.770   3.573 -0.2676  0.1859 -0.0842
  744MOL0     C  351   8.481   8.582   3.822 -0.4051 -0.3066 -1.5699
  744MOL0     C  352   8.428   8.493   3.919 -0.1189  0.1401  0.5331
  744MOL0     O  353   8.107   8.523   4.140  0.5031  0.8145 -0.0713
  744MOL0     C  354   7.985   8.321   4.262 -0.3414 -0.2191  0.2081
  744MOL0     C  355   7.908   8.212   4.308  1.2445  0.6110 -1.0695
  744MOL0     N  356   7.728   7.478   4.397 -0.2821 -0.3431 -0.4988
  744MOL0     N  357   7.746   7.363   4.456  0.7078 -0.3749  0.6894
  744MOL0     C  358   7.914   6.813   5.503  0.7485  1.0293  0.1059
  744MOL0     C  359   7.958   6.828   5.634  0.5717  0.0958 -0.2137
  744MOL0     C  360   8.249   6.810   5.973 -0.3956  0.1285 -0.7974
  744MOL0     C  361   8.176   6.893   6.058 -1.1742 -1.7360 -0.2383
  744MOL0     C  362   8.202   6.896   6.196 -0.5134 -0.0023  0.3739
  744MOL0     C  363   8.298   6.811   6.253 -0.1383 -0.5226 -0.8832
  744MOL0     O  364   8.303   6.811   6.390  0.1939 -0.6805  0.1786
  744MOL0     C  365   8.432   6.811   6.454 -0.6646  0.1297 -0.3171
  744MOL0     C  366   8.466   6.929   6.560  0.3404  0.1738  0.5347
  744MOL0     C  367   8.368   6.933   6.677 -1.0247 -0.7014  0.6601
  744MOL0     C  368   8.391   7.054   6.771 -0.2871 -0.2455  0.5955
  744MOL0     C  369   8.293   7.081   6.872 -0.1983  0.2376  0.3047
  744MOL0     C  370   8.200   7.101   6.942  0.2022  0.4290 -0.1789
  744MOL0     C  371   8.378   6.739   6.163 -0.6807  0.5411  1.9203
  744MOL0     C  372   8.352   6.739   6.024  0.0397 -0.9442 -0.0294
  744MOL0     H  373   8.240   7.010   5.571  2.6643 -3.4882 -2.7610
  744MOL0     H  374   8.169   6.982   5.341 -1.1451  0.3996 -1.1840
  744MOL0     H  375   7.899   7.063   5.285  0.3517  0.8276  0.0994
  744MOL0     H  376   7.959   7.007   5.133  1.5547 -1.4678  1.1973
  744MOL0     H  377   7.752   6.908   5.063  0.2716  0.4333 -1.1439
  744MOL0     H  378   7.675   6.931   5.225  0.7041 -1.5171 -0.8300
  744MOL0     H  379   7.643   7.165   5.183  0.1001  0.2872 -0.2981
  744MOL0     H  380   7.747   7.163   5.040 -0.8210  1.5115  0.7257
  744MOL0     H  381   7.571   6.982   4.954 -1.5851  0.6269 -0.8355
  744MOL0     H  382   7.480   7.025   5.094 -1.8978 -1.5274 -2.2103
  744MOL0     H  383   7.394   7.181   4.926  0.7925 -0.4441 -3.6781
  744MOL0     H  384   7.504   7.273   5.018 -0.5066 -2.7400  4.0473
  744MOL0     H  385   7.533   7.333   4.800 -0.6374 -1.2909 -0.5343
  744MOL0     H  386   7.675   7.235   4.833  1.8344  0.6758  3.0391
  744MOL0     H  387   7.547   7.043   4.702  1.3841  0.7405 -0.6514
  744MOL0     H  388   7.434   7.166   4.660 -0.1772 -0.1001  1.2975
  744MOL0     H  389   7.612   7.142   4.481  0.4602  1.4032 -0.7710
  744MOL0     H  390   7.724   7.155   4.614 -0.5651 -1.4179  0.3669
  744MOL0     H  391   7.433   7.424   4.526  0.8609  0.9303 -0.1629
  744MOL0     H  392   7.510   7.636   4.267  1.2012 -0.2469  0.0758
  744MOL0     H  393   7.418   7.635   4.411 -0.6588 -1.1449 -0.9469
  744MOL0     H  394   7.603   7.786   4.527  0.1630  2.6075 -0.6336
  744MOL0     H  395   7.521   7.854   4.391  0.0348  1.0748  0.4756
  744MOL0     H  396   7.703   7.794   4.251 -2.2479  1.1732  1.0188
  744MOL0     H  397   7.807   7.740   4.397 -1.1048 -2.4478  0.4992
  744MOL0     H  398   7.764   7.963   4.490  1.1741  6.2824 -0.6921
  744MOL0     H  399   7.696   8.005   4.321 -1.0729 -0.1884  1.6862
  744MOL0     H  400   8.158   7.991   4.290 -0.6165 -1.1935  4.7409
  744MOL0     H  401   8.385   8.215   4.184  3.7806  0.5923  2.0372
  744MOL0     H  402   8.371   8.193   4.354  0.6329 -1.8474 -0.8981
  744MOL0     H  403   8.357   8.053   4.244  4.2262  1.0155 -0.7791
  744MOL0     H  404   8.274   8.696   4.138 -1.1231 -0.1220 -0.5237
  744MOL0     H  405   8.385   8.862   3.989 -0.4765  0.6424 -1.6257
  744MOL0     H  406   8.630   8.791   3.600 -0.7124 -0.7675 -1.0983
  744MOL0     H  407   8.461   8.726   3.603 -0.2446  0.5247 -3.3901
  744MOL0     H  408   8.471   8.926   3.450  0.8875 -2.9360 -0.7426
  744MOL0     H  409   8.372   8.969   3.582 -1.2559 -1.9207 -2.7669
  744MOL0     H  410   8.675   9.037   3.593  0.6635  1.9329 -2.8597
  744MOL0     H  411   8.544   9.087   3.694 -2.1217 -1.5707 -0.5565
  744MOL0     H  412   8.631   9.166   3.430 -1.3953 -2.4744 -2.4487
  744MOL0     H  413   8.460   9.172   3.433 -0.5808 -2.4534  0.4302
  744MOL0     H  414   8.622   9.327   3.642 -0.3093  2.5225  0.3379
  744MOL0     H  415   8.452   9.327   3.634 -0.2726 -0.7477 -0.1402
  744MOL0     H  416   8.629   9.405   3.398 -0.3153 -1.7793  0.3072
  744MOL0     H  417   8.453   9.430   3.417  0.5022 -0.1993 -0.7534
  744MOL0     H  418   8.590   9.570   3.649 -1.1539  3.0576 -0.5962
  744MOL0     H  419   8.491   9.640   3.522 -0.5731  0.7694 -0.0033
  744MOL0     H  420   8.702   9.625   3.375  0.3128 -1.8777  0.5365
  744MOL0     H  421   8.791   9.559   3.509  2.3364  2.7026 -0.4269
  744MOL0     H  422   8.537   8.532   3.743  1.2254 -0.4870 -0.3447
  744MOL0     H  423   8.437   8.390   3.888  0.7518  1.4511 -4.6337
  744MOL0     H  424   7.922   8.406   4.235 -3.4665 -2.8400 -1.6171
  744MOL0     H  425   7.806   8.241   4.332  1.7487 -0.4100  3.0094
  744MOL0     H  426   7.821   6.763   5.479  0.0758  0.5816  3.1474
  744MOL0     H  427   7.915   6.790   5.726  2.5544 -1.3014  0.2085
  744MOL0     H  428   8.097   6.958   6.022  0.3061  1.0107  1.1429
  744MOL0     H  429   8.147   6.957   6.266 -0.7912  0.4272 -0.2161
  744MOL0     H  430   8.423   6.715   6.506 -0.8532 -0.4762 -1.4155
  744MOL0     H  431   8.510   6.801   6.378 -1.1031  1.3248 -0.9522
  744MOL0     H  432   8.469   7.025   6.508 -0.4845  0.8718  1.7411
  744MOL0     H  433   8.569   6.924   6.596  0.7400 -3.0576 -0.7585
  744MOL0     H  434   8.363   6.840   6.734 -1.8159 -1.9336 -1.3041
  744MOL0     H  435   8.266   6.936   6.639 -0.1799 -0.1039 -1.7918
  744MOL0     H  436   8.397   7.141   6.705 -0.5569 -0.8982 -0.3181
  744MOL0     H  437   8.486   7.045   6.825  1.1392  2.4555 -1.1680
  744MOL0     H  438   8.121   7.104   7.014 -1.0888 -1.9596 -1.3889
  744MOL0     H  439   8.461   6.676   6.194  0.8734  0.6503 -1.5841
  744MOL0     H  440   8.413   6.684   5.954  0.1189  1.5936 -2.1276
  745MOL0     O  441   0.179   7.557   5.910 -0.6365 -0.2544  0.6765
  745MOL0     C  442   0.185   7.641   5.819 -0.0844 -0.5955  0.0139
  745MOL0     O  443   0.218   7.774   5.831 -0.0849  0.1329 -0.8034
  745MOL0     C  444   0.260   7.812   5.951  0.1335 -0.0969  0.5090
  745MOL0     C  445   0.172   7.835   6.060  0.5949  0.0974 -0.0788
  745MOL0     C  446   0.229   7.870   6.186 -0.5513  0.0533  0.7870
  745MOL0     C  447   0.370   7.906   6.197 -1.4474  0.0002  0.1963
  745MOL0     O  448   0.437   7.951   6.311 -0.4014  0.2867  0.2489
  745MOL0     C  449   0.352   8.006   6.412 -0.3106 -0.0705  0.4104
  745MOL0     C  450   0.419   8.090   6.517 -0.4173 -0.5296  0.4949
  745MOL0     C  451   0.516   7.990   6.597  0.4490  0.9351 -0.8728
  745MOL0     C  452   0.521   8.039   6.749  0.2444 -0.2547 -0.2289
  745MOL0     C  453   0.619   7.960   6.838 -0.1046  0.5161 -0.2153
  745MOL0     C  454   0.748   8.033   6.872 -0.0715  0.0037 -0.1653
  745MOL0     C  455   0.843   7.941   6.951  0.5588  0.4735 -0.9625
  745MOL0     C  456   0.837   7.986   7.104  0.2625 -0.5864  0.3834
  745MOL0     N  457   0.926   7.910   7.192 -0.7296  0.3509 -0.4409
  745MOL0     C  458   1.055   7.867   7.155 -0.3397 -0.0688 -0.5070
  745MOL0     C  459   1.111   7.810   7.266  0.0271 -0.1185  0.5638
  745MOL0     C  460   1.246   7.747   7.268 -0.1963 -0.5978 -0.3368
  745MOL0     C  461   1.247   7.629   7.177 -0.6692 -0.7093  0.5736
  745MOL0     C  462   1.379   7.552   7.155  0.9696  0.0544  0.2052
  745MOL0     C  463   1.456   7.518   7.273 -0.6757 -0.8485 -0.4659
  745MOL0     O  464   1.542   7.415   7.238  0.3672  0.1302 -0.3132
  745MOL0     C  465   1.669   7.457   7.206 -0.3185 -1.0624 -0.7803
  745MOL0     C  466   1.760   7.513   7.292 -0.7341 -0.8599  0.0659
  745MOL0     C  467   1.890   7.530   7.260 -1.1882  0.1221  0.3455
  745MOL0     C  468   1.978   7.566   7.379 -0.0684 -0.2202 -0.9623
  745MOL0     C  469   1.935   7.498   7.121  0.0541  0.8427  0.3280
  745MOL0     C  470   2.070   7.529   7.081  0.8849 -0.7560 -0.6917
  745MOL0     O  471   2.125   7.427   7.015 -0.2716  0.0132  0.6384
  745MOL0     C  472   2.252   7.437   6.941 -0.5833 -0.3872 -0.6110
  745MOL0     C  473   2.346   7.545   6.956 -0.5048  0.9643 -0.0157
  745MOL0     C  474   2.466   7.529   6.880 -1.2243  0.1495  0.7792
  745MOL0     C  475   2.497   7.423   6.793 -0.3001  0.1533  0.3553
  745MOL0     O  476   2.619   7.415   6.729  0.2840  0.1885 -1.0042
  745MOL0     C  477   2.637   7.515   6.631  1.0014 -0.6898  0.3775
  745MOL0     C  478   2.765   7.490   6.562 -0.8214 -0.6049  0.0059
  745MOL0     C  479   2.796   7.626   6.480 -0.1785 -0.2473  0.7742
  745MOL0     C  480   2.905   7.619   6.372 -0.7021  0.6911  0.2944
  745MOL0     C  481   2.934   7.759   6.317 -0.1038 -0.0660 -0.1581
  745MOL0     C  482   3.072   7.753   6.250 -0.3182 -0.2723 -0.0030
  745MOL0     C  483   3.130   7.875   6.175 -0.5045  0.8339  0.7023
  745MOL0     C  484   3.052   7.896   6.052  0.8047 -0.2868  0.6097
  745MOL0    Cl  485   3.148   8.017   5.950 -0.0247 -0.0123  0.3928
  745MOL0     C  486   2.398   7.323   6.780  0.3681  0.6126 -0.4572
  745MOL0     C  487   2.275   7.332   6.855 -0.2995 -0.0377  0.4991
  745MOL0     O  488   2.101   7.641   7.080 -0.7132 -1.4435 -0.5680
  745MOL0     C  489   1.841   7.459   7.030  0.4149 -0.7290 -0.3605
  745MOL0     C  490   1.711   7.430   7.070 -0.4412  0.7926 -0.0016
  745MOL0     N  491   1.018   7.822   7.372 -0.4518  0.8554  1.0511
  745MOL0     N  492   0.906   7.871   7.323  0.2490  0.9288  0.4611
  745MOL0     C  493   0.443   7.897   6.083 -0.8914 -0.3097 -0.3785
  745MOL0     C  494   0.396   7.841   5.964  0.0050 -0.2587  0.7327
  745MOL0     C  495   0.164   7.594   5.685 -0.6403 -0.7743 -0.3051
  745MOL0     C  496   0.211   7.469   5.640  0.0918 -0.8928  0.0552
  745MOL0     C  497   0.179   7.425   5.514  0.7485 -0.3481 -0.3977
  745MOL0     C  498   0.107   7.506   5.427 -0.2869 -0.1704  0.1345
  745MOL0     O  499   0.092   7.448   5.302 -0.9069 -0.4145 -0.4621
  745MOL0     C  500   0.022   7.518   5.198  0.1113 -0.8103  1.0205
  745MOL0     C  501   0.032   7.424   5.079  0.3903  1.0007 -0.1225
  745MOL0     C  502  -0.003   7.489   4.945 -0.7153 -0.5606  0.1575
  745MOL0     C  503  -0.158   7.514   4.944  0.0202  0.6620 -0.4895
  745MOL0     C  504  -0.205   7.568   4.811 -0.1604  0.5494 -0.1125
  745MOL0     C  505  -0.262   7.618   4.715  0.7226  0.0974  0.0729
  745MOL0     C  506   0.061   7.624   5.470 -0.4650 -0.0870  0.3965
  745MOL0     C  507   0.097   7.676   5.596  0.1641  0.4026  0.1956
  745MOL0     H  508   0.068   7.807   6.053  0.7383 -0.6330  0.4527
  745MOL0     H  509   0.176   7.867   6.280 -0.0384 -1.3189  1.0582
  745MOL0     H  510   0.274   8.067   6.365 -1.5040  0.0948  2.4929
  745MOL0     H  511   0.301   7.919   6.454  0.9954 -0.4298  1.2875
  745MOL0     H  512   0.473   8.168   6.463 -2.4488 -0.9221 -2.3691
  745MOL0     H  513   0.344   8.136   6.582  1.1944  1.6089  0.9584
  745MOL0     H  514   0.481   7.886   6.595  2.5553  0.1868 -2.1867
  745MOL0     H  515   0.611   7.994   6.543  2.3539 -1.1990  2.0084
  745MOL0     H  516   0.542   8.146   6.742 -2.6231  0.5704  1.6606
  745MOL0     H  517   0.424   8.015   6.795 -1.0641  0.9488 -2.2297
  745MOL0     H  518   0.568   7.934   6.931 -3.6308  3.0855 -1.2388
  745MOL0     H  519   0.637   7.866   6.784  1.1590  1.4150 -1.4538
  745MOL0     H  520   0.789   8.072   6.779 -3.0714  2.4062 -0.6196
  745MOL0     H  521   0.740   8.122   6.935  3.1055  0.6941 -0.5608
  745MOL0     H  522   0.806   7.838   6.954  3.9706 -0.9531  4.1386
  745MOL0     H  523   0.944   7.953   6.911  0.0471 -0.2127 -2.5526
  745MOL0     H  524   0.730   7.982   7.129 -0.5155 -0.5268 -2.5035
  745MOL0     H  525   0.860   8.092   7.105 -0.9309  0.0171 -4.8047
  745MOL0     H  526   1.105   7.879   7.059  0.9263  3.3798  0.4219
  745MOL0     H  527   1.325   7.818   7.244 -1.0438  0.9580  1.2289
  745MOL0     H  528   1.263   7.714   7.371 -0.0925 -2.1707 -0.8342
  745MOL0     H  529   1.216   7.661   7.078  0.8537 -0.7636  0.0556
  745MOL0     H  530   1.181   7.551   7.218 -2.5933  0.3310 -0.4369
  745MOL0     H  531   1.438   7.616   7.088  0.9154 -0.6498 -0.5427
  745MOL0     H  532   1.356   7.465   7.092 -3.2008  3.1778 -3.1955
  745MOL0     H  533   1.391   7.467   7.345 -0.5759 -0.5551 -0.1691
  745MOL0     H  534   1.501   7.608   7.316 -1.5700  0.4935 -2.1994
  745MOL0     H  535   1.715   7.541   7.387  0.9991 -0.8743  0.9325
  745MOL0     H  536   1.940   7.525   7.473  0.5935  0.5635 -0.3363
  745MOL0     H  537   2.078   7.525   7.365 -0.9515 -1.8124 -3.2639
  745MOL0     H  538   1.993   7.674   7.387  1.2106 -0.4017 -0.7701
  745MOL0     H  539   2.321   7.636   7.010  1.4682 -0.4143  3.6128
  745MOL0     H  540   2.549   7.589   6.915 -0.4085 -0.4952 -0.0297
  745MOL0     H  541   2.551   7.521   6.564 -2.1731  1.7167  4.2378
  745MOL0     H  542   2.646   7.617   6.670  1.6779 -0.4961 -0.2517
  745MOL0     H  543   2.846   7.483   6.635 -2.5371 -0.7058  1.9601
  745MOL0     H  544   2.737   7.400   6.506 -3.9319 -0.5489  1.2903
  745MOL0     H  545   2.811   7.710   6.548  2.8018  0.1602 -0.2275
  745MOL0     H  546   2.711   7.647   6.414  0.9451 -0.9866 -0.9894
  745MOL0     H  547   2.989   7.571   6.423 -1.7986 -0.6615  0.9042
  745MOL0     H  548   2.873   7.556   6.289  1.8896 -1.7033  0.9359
  745MOL0     H  549   2.932   7.835   6.396  0.4317 -0.8889  0.6507
  745MOL0     H  550   2.842   7.789   6.265  1.1339  4.8221 -0.0231
  745MOL0     H  551   3.149   7.732   6.325  1.6643  2.8441 -0.9523
  745MOL0     H  552   3.059   7.671   6.180 -0.5742 -1.1171  1.0044
  745MOL0     H  553   3.233   7.853   6.145  0.9854  6.1453  0.9270
  745MOL0     H  554   3.135   7.954   6.250  0.4427  0.3315  1.1839
  745MOL0     H  555   2.951   7.930   6.078 -0.5643 -1.9279 -2.0931
  745MOL0     H  556   3.050   7.807   5.988 -1.6982  2.6968 -4.1381
  745MOL0     H  557   2.419   7.235   6.720  1.9988 -2.5512  4.2165
  745MOL0     H  558   2.198   7.257   6.841  1.4666 -1.6705 -1.1446
  745MOL0     H  559   1.871   7.425   6.931  1.6855 -1.7705  0.3671
  745MOL0     H  560   1.651   7.371   7.001  3.1279 -0.4763 -2.3032
  745MOL0     H  561   0.539   7.948   6.081 -2.9073  4.0480 -0.0150
  745MOL0     H  562   0.469   7.831   5.884  2.5615 -0.4476  2.9304
  745MOL0     H  563   0.282   7.395   5.676  2.8789  0.8828 -1.4282
  745MOL0     H  564   0.210   7.327   5.478 -1.0784 -1.1369  0.0889
  745MOL0     H  565  -0.087   7.519   5.214  0.3446  0.4320  2.8989
  745MOL0     H  566   0.049   7.620   5.170 -3.1602 -0.1311 -0.1197
  745MOL0     H  567  -0.030   7.336   5.096  0.9077  0.9183  1.5550
  745MOL0     H  568   0.133   7.383   5.067 -1.0855 -3.2171  0.2008
  745MOL0     H  569   0.030   7.423   4.864  0.1920 -0.7582  0.6682
  745MOL0     H  570   0.057   7.581   4.940  1.8357 -1.9822  2.0794
  745MOL0     H  571  -0.180   7.593   5.016 -1.0489  0.0266 -0.1064
  745MOL0     H  572  -0.219   7.432   4.984 -1.8772  2.8697  1.4159
  745MOL0     H  573  -0.331   7.658   4.644 -0.3072  1.3060  1.6999
  745MOL0     H  574   0.006   7.691   5.404 -0.7912 -0.0150  0.7361
  745MOL0     H  575   0.069   7.778   5.620  3.9105  1.7171 -0.3920
  746MOL0     O  576   7.178   8.576   3.571  0.6859 -1.2248  0.1241
  746MOL0     C  577   7.236   8.618   3.673 -0.6859  0.7543  0.3479
  746MOL0     O  578   7.226   8.566   3.800 -0.9712  0.9534 -0.5089
  746MOL0     C  579   7.144   8.463   3.835 -0.6224  0.7862 -0.9017
  746MOL0     C  580   7.009   8.432   3.795 -0.2832  0.3873  0.1959
  746MOL0     C  581   6.936   8.327   3.858  0.7271  0.3893 -0.5422
  746MOL0     C  582   7.001   8.248   3.951 -0.4082  0.4028 -0.5546
  746MOL0     O  583   6.951   8.139   4.021 -0.5725  0.4546  0.0518
  746MOL0     C  584   6.810   8.104   4.023  0.7586  0.9113 -0.8120
  746MOL0     C  585   6.801   7.977   4.117  0.8701  0.0018 -0.4650
  746MOL0     C  586   6.856   7.852   4.054 -0.2978  0.0445 -0.6583
  746MOL0     C  587   6.779   7.801   3.934  0.1982 -0.1627  0.2244
  746MOL0     C  588   6.765   7.645   3.918 -0.4510 -1.8078 -0.2246
  746MOL0     C  589   6.906   7.581   3.899  0.2715 -1.1152  0.3080
  746MOL0     C  590   6.904   7.426   3.893 -0.1672 -0.0212  0.4967
  746MOL0     C  591   6.905   7.366   4.030  0.2000  0.2814  0.2689
  746MOL0     N  592   6.933   7.223   4.020 -0.3938  0.4716  0.5826
  746MOL0     C  593   7.057   7.176   3.988 -0.7565  0.7258 -0.2133
  746MOL0     C  594   7.061   7.043   4.001  0.6107  0.4239 -1.0392
  746MOL0     C  595   7.173   6.940   4.017  0.0975  0.4400  1.0265
  746MOL0     C  596   7.208   6.840   3.900 -0.7011  0.4530 -1.2441
  746MOL0     C  597   7.152   6.891   3.775  1.0003  0.9685  0.1426
  746MOL0     C  598   7.166   6.782   3.674 -0.0864  0.7454 -0.2123
  746MOL0     O  599   7.161   6.818   3.539 -0.2345  0.4338  0.2017
  746MOL0     C  600   7.033   6.851   3.503 -0.9262 -0.4968  0.0264
  746MOL0     C  601   6.970   6.976   3.511  1.4982  1.1484  0.0890
  746MOL0     C  602   6.831   6.985   3.491  0.3135 -0.1836 -0.0701
  746MOL0     C  603   6.764   7.123   3.497 -0.2534  0.7366  0.1390
  746MOL0     C  604   6.758   6.868   3.460 -0.7646 -0.5164  0.2086
  746MOL0     C  605   6.612   6.876   3.466 -0.9342 -0.2812 -1.1878
  746MOL0     O  606   6.543   6.760   3.521 -0.4740 -0.0885 -0.3771
  746MOL0     C  607   6.406   6.750   3.499 -0.4769  0.7380  0.0546
  746MOL0     C  608   6.364   6.613   3.484 -0.6189  0.0100 -0.1243
  746MOL0     C  609   6.233   6.578   3.483  0.2109  0.6314  0.2537
  746MOL0     C  610   6.139   6.678   3.487 -0.5396  0.6024 -0.1907
  746MOL0     O  611   6.006   6.647   3.479  0.5596  0.5081 -0.2284
  746MOL0     C  612   5.930   6.726   3.397 -0.7401 -0.2794  0.5630
  746MOL0     C  613   5.794   6.663   3.371 -0.1631  0.4293 -0.5580
  746MOL0     C  614   5.800   6.533   3.277  0.8145 -0.6850 -0.1912
  746MOL0     C  615   5.654   6.496   3.263  0.3625 -0.2969 -0.6786
  746MOL0     C  616   5.597   6.555   3.129 -0.2193  0.1669 -0.9027
  746MOL0     C  617   5.599   6.706   3.117 -0.4303 -0.6004 -1.1250
  746MOL0     C  618   5.504   6.757   3.010  0.1266 -0.3825 -0.2920
  746MOL0     C  619   5.501   6.909   2.977  0.0988 -0.7388  0.1224
  746MOL0    Cl  620   5.377   6.938   2.859 -0.9491  0.1828  0.1688
  746MOL0     C  621   6.179   6.820   3.500 -0.5020 -0.0583 -0.0819
  746MOL0     C  622   6.314   6.851   3.509 -0.0008  0.2671 -0.3764
  746MOL0     O  623   6.553   6.964   3.407  0.2002 -0.8568 -0.3270
  746MOL0     C  624   6.824   6.748   3.435 -0.2692  1.0121 -0.2360
  746MOL0     C  625   6.965   6.732   3.449 -0.0999 -0.0065  1.0736
  746MOL0     N  626   6.935   7.022   4.056 -0.3041 -0.0021  0.5616
  746MOL0     N  627   6.858   7.123   4.061  0.2973  0.3016  0.3618
  746MOL0     C  628   7.129   8.278   3.989  0.2859  0.0582 -0.0797
  746MOL0     C  629   7.199   8.379   3.932  1.4285  0.3993 -0.3764
  746MOL0     C  630   7.318   8.744   3.640 -0.2642  0.7161 -0.4730
  746MOL0     C  631   7.313   8.799   3.509  0.1416 -0.0364 -0.0148
  746MOL0     C  632   7.394   8.904   3.476 -0.1721  0.6001 -0.9675
  746MOL0     C  633   7.468   8.970   3.568 -0.3683  0.1276 -0.4179
  746MOL0     O  634   7.536   9.083   3.519  0.2672 -0.2662  0.8246
  746MOL0     C  635   7.622   9.153   3.607  0.9062  0.2341 -0.1810
  746MOL0     C  636   7.705   9.246   3.526 -0.8527 -0.0601 -0.2788
  746MOL0     C  637   7.632   9.352   3.442 -0.5486 -0.0697  0.3412
  746MOL0     C  638   7.717   9.444   3.363  0.0124 -1.0017  0.4286
  746MOL0     C  639   7.785   9.540   3.451 -0.4513 -0.4437 -0.0458
  746MOL0     C  640   7.864   9.610   3.512  0.3856 -0.0057  0.1526
  746MOL0     C  641   7.478   8.923   3.701  0.5175  0.0247  0.4725
  746MOL0     C  642   7.408   8.808   3.729 -0.0768 -0.0820 -0.4996
  746MOL0     H  643   6.962   8.496   3.720 -0.9487 -3.3486 -2.8812
  746MOL0     H  644   6.831   8.312   3.833  1.0165 -0.5449 -1.2620
  746MOL0     H  645   6.742   8.180   4.064  0.4975 -0.0538  0.6106
  746MOL0     H  646   6.771   8.077   3.924 -3.2326  0.3836  0.6941
  746MOL0     H  647   6.843   8.000   4.215 -0.1835 -1.2241  0.2965
  746MOL0     H  648   6.694   7.972   4.139  1.1498 -0.1530  0.9391
  746MOL0     H  649   6.958   7.858   4.016 -0.5111 -1.1588 -1.4976
  746MOL0     H  650   6.844   7.778   4.134 -2.8295  1.1241  0.0668
  746MOL0     H  651   6.680   7.847   3.937 -0.4006 -0.9717 -3.3523
  746MOL0     H  652   6.824   7.835   3.841 -3.4035 -1.4516 -2.1953
  746MOL0     H  653   6.727   7.607   4.013  0.1745 -0.1016  0.7566
  746MOL0     H  654   6.702   7.624   3.831 -1.0676  1.8176 -0.8119
  746MOL0     H  655   6.942   7.625   3.806 -2.9329 -0.5987 -0.8171
  746MOL0     H  656   6.972   7.613   3.981  0.2077 -0.7389  0.2162
  746MOL0     H  657   6.823   7.392   3.828  1.6854 -3.3618 -0.3064
  746MOL0     H  658   6.985   7.380   3.836 -1.0601 -1.1540  0.0952
  746MOL0     H  659   6.805   7.376   4.073 -1.2248  2.7650 -3.1320
  746MOL0     H  660   6.978   7.413   4.096  0.2908  0.2180  0.2162
  746MOL0     H  661   7.144   7.229   3.949 -0.9100  1.2091  0.0956
  746MOL0     H  662   7.264   6.997   4.040 -0.0077 -0.1274  2.9891
  746MOL0     H  663   7.147   6.874   4.100  2.1579  0.0321  1.4013
  746MOL0     H  664   7.168   6.741   3.922  1.1438 -0.2158 -0.7318
  746MOL0     H  665   7.317   6.833   3.891 -0.6682  1.1763 -1.4894
  746MOL0     H  666   7.190   6.990   3.751 -1.6465  2.7164  2.5593
  746MOL0     H  667   7.043   6.895   3.782  0.8157 -2.2740  0.6845
  746MOL0     H  668   7.098   6.701   3.703  0.0063  0.2060 -1.4273
  746MOL0     H  669   7.269   6.749   3.690  0.8600  3.7053  0.4546
  746MOL0     H  670   7.029   7.066   3.529  2.9703  0.1898  0.2628
  746MOL0     H  671   6.693   7.140   3.578 -0.4380  3.5755 -0.5110
  746MOL0     H  672   6.847   7.194   3.510 -0.2824  0.9587 -0.8300
  746MOL0     H  673   6.713   7.140   3.402 -3.8940  0.8393  1.9632
  746MOL0     H  674   6.446   6.542   3.488 -0.6383 -0.0950 -1.2610
  746MOL0     H  675   6.195   6.477   3.475 -1.8454  1.0816  2.9984
  746MOL0     H  676   5.913   6.824   3.443  0.5892 -0.0381  0.5672
  746MOL0     H  677   5.987   6.744   3.306  0.1661  3.6299  1.7235
  746MOL0     H  678   5.755   6.642   3.471  1.0975 -1.2534 -0.3863
  746MOL0     H  679   5.732   6.742   3.328  1.2496  2.8951  1.5811
  746MOL0     H  680   5.873   6.462   3.318  3.0783  0.0756 -2.6307
  746MOL0     H  681   5.834   6.552   3.175  1.8326  1.2819  0.4613
  746MOL0     H  682   5.637   6.388   3.269  1.6297 -0.4674  0.2287
  746MOL0     H  683   5.602   6.546   3.345  0.3634 -0.3191 -0.6649
  746MOL0     H  684   5.492   6.524   3.116 -0.1807 -1.3718  1.7208
  746MOL0     H  685   5.651   6.514   3.043  0.4283 -2.1749  0.5549
  746MOL0     H  686   5.562   6.746   3.212 -0.8399 -1.1563 -1.0408
  746MOL0     H  687   5.701   6.744   3.107 -0.6887  1.4660  2.3860
  746MOL0     H  688   5.407   6.717   3.040 -0.0979 -0.8069 -1.5308
  746MOL0     H  689   5.529   6.728   2.908 -0.4725  0.6798 -0.7593
  746MOL0     H  690   5.601   6.935   2.941  0.1490  0.4968  1.1170
  746MOL0     H  691   5.472   6.975   3.059 -1.9932  0.3984 -1.4084
  746MOL0     H  692   6.112   6.902   3.526  0.0446  0.2670  0.3062
  746MOL0     H  693   6.346   6.953   3.532  1.2080 -0.5058  1.7152
  746MOL0     H  694   6.755   6.664   3.433  2.8831 -1.9050  1.6159
  746MOL0     H  695   7.017   6.638   3.437 -0.1219  0.1673 -0.6764
  746MOL0     H  696   7.175   8.213   4.063 -5.4175 -2.8008  1.5233
  746MOL0     H  697   7.302   8.401   3.958  0.6591  3.2499  0.6270
  746MOL0     H  698   7.245   8.774   3.428  0.3973 -0.2818 -0.1551
  746MOL0     H  699   7.385   8.930   3.371 -0.5335 -5.4329 -2.7973
  746MOL0     H  700   7.554   9.200   3.680 -0.3599  0.0322 -1.1984
  746MOL0     H  701   7.688   9.079   3.654  0.3147 -2.9501 -3.8814
  746MOL0     H  702   7.773   9.186   3.465  0.0039 -0.8623  1.3904
  746MOL0     H  703   7.777   9.292   3.594 -1.0897 -1.5556  1.0548
  746MOL0     H  704   7.562   9.413   3.499  0.3256  2.3234 -1.0244
  746MOL0     H  705   7.578   9.302   3.362 -1.4125 -0.4902  1.1701
  746MOL0     H  706   7.661   9.496   3.285 -0.6297 -1.6654  0.4419
  746MOL0     H  707   7.790   9.373   3.321 -2.2003 -1.1412 -3.6521
  746MOL0     H  708   7.938   9.666   3.566 -0.0069 -2.6487  3.8352
  746MOL0     H  709   7.546   8.959   3.776  1.6212  1.5217 -1.1515
  746MOL0     H  710   7.416   8.769   3.830 -0.1880 -1.8996 -1.1568
  747MOL0     O  711   0.442   5.113   0.876  0.0860 -0.1425 -0.8127
  747MOL0     C  712   0.494   5.077   0.774  0.6701  0.0381 -0.6110
  747MOL0     O  713   0.617   5.027   0.766 -0.4127  0.3876  0.4416
  747MOL0     C  714   0.699   5.016   0.880  0.1577  0.2248  1.0179
  747MOL0     C  715   0.762   4.899   0.905 -0.1500  0.4831  0.4217
  747MOL0     C  716   0.859   4.883   1.010  0.1473 -0.1570  0.7445
  747MOL0     C  717   0.895   4.991   1.090  0.9375 -0.7331 -0.4230
  747MOL0     O  718   1.001   4.974   1.180 -0.1099  0.4107  0.1337
  747MOL0     C  719   1.001   5.079   1.279  0.1922  0.5438 -0.2827
  747MOL0     C  720   1.106   5.077   1.386  0.3235  0.7685 -0.3271
  747MOL0     C  721   1.229   5.143   1.326 -0.2970  0.0922 -0.4614
  747MOL0     C  722   1.364   5.147   1.413  0.9023 -0.4680  0.2230
  747MOL0     C  723   1.393   5.007   1.465 -0.4249  0.5004  0.2276
  747MOL0     C  724   1.542   5.007   1.539 -0.8566  0.1859  0.9230
  747MOL0     C  725   1.585   4.878   1.614  1.0570  1.0778  0.0347
  747MOL0     C  726   1.517   4.878   1.748  0.0342  0.5046  0.4886
  747MOL0     N  727   1.518   4.743   1.801 -0.2362 -0.4949  0.2798
  747MOL0     C  728   1.631   4.666   1.810  0.1322  0.6047 -1.1211
  747MOL0     C  729   1.576   4.550   1.864 -1.3169  0.2552  1.2706
  747MOL0     C  730   1.669   4.440   1.915  0.0649  0.0555  0.2261
  747MOL0     C  731   1.771   4.403   1.810  0.1716  0.6510  0.5531
  747MOL0     C  732   1.716   4.354   1.675  1.6237  0.8076 -0.0517
  747MOL0     C  733   1.821   4.249   1.633  0.7283  0.2420 -0.6583
  747MOL0     O  734   1.938   4.313   1.588 -0.0171  0.4956 -0.0812
  747MOL0     C  735   2.039   4.224   1.560 -0.7778 -1.3157  0.7317
  747MOL0     C  736   2.154   4.295   1.508  0.4910  0.2436 -0.6852
  747MOL0     C  737   2.276   4.229   1.482 -0.6166  0.2717  0.7973
  747MOL0     C  738   2.379   4.329   1.453 -1.1514  0.1090 -0.1295
  747MOL0     C  739   2.279   4.091   1.479 -0.6870 -0.2188 -0.7841
  747MOL0     C  740   2.399   4.007   1.456 -0.5410 -0.5618 -0.8282
  747MOL0     O  741   2.489   4.048   1.361 -0.1798 -0.1664 -0.6085
  747MOL0     C  742   2.612   3.982   1.351  0.1133 -0.7364  0.0507
  747MOL0     C  743   2.715   3.986   1.453  0.3536  0.4784 -0.6214
  747MOL0     C  744   2.822   3.900   1.447 -0.7729  0.6550 -0.3135
  747MOL0     C  745   2.837   3.806   1.344  1.0466 -0.3000 -0.3574
  747MOL0     O  746   2.940   3.713   1.347  0.6011  0.8205  0.4210
  747MOL0     C  747   2.958   3.640   1.223  0.1125  0.0876  0.2327
  747MOL0     C  748   3.083   3.550   1.251 -0.5337  0.2863  0.0292
  747MOL0     C  749   3.114   3.454   1.135  0.6644  0.3434  0.3606
  747MOL0     C  750   3.219   3.345   1.166  1.2189 -0.4619  0.5550
  747MOL0     C  751   3.192   3.221   1.075 -0.4320  0.7169 -0.5991
  747MOL0     C  752   3.225   3.251   0.922 -0.9613  0.0106 -0.2473
  747MOL0     C  753   3.372   3.247   0.894 -0.3955  0.1327 -0.3679
  747MOL0     C  754   3.400   3.251   0.744 -0.2630  0.3464 -0.5199
  747MOL0    Cl  755   3.354   3.406   0.669  0.1301  0.3108 -0.1489
  747MOL0     C  756   2.746   3.817   1.236  0.2864 -0.0672 -0.6175
  747MOL0     C  757   2.637   3.896   1.244 -0.6703  0.5580  0.3107
  747MOL0     O  758   2.405   3.904   1.520 -0.3091  0.0482 -0.0207
  747MOL0     C  759   2.158   4.022   1.507  0.1131 -0.6549  0.0773
  747MOL0     C  760   2.048   4.088   1.552  1.2327  0.5809 -0.7554
  747MOL0     N  761   1.436   4.560   1.877  0.2582  0.2959  0.3844
  747MOL0     N  762   1.397   4.670   1.825 -0.5886  0.6266 -1.2904
  747MOL0     C  763   0.826   5.120   1.060 -0.8115 -0.3090  0.0820
  747MOL0     C  764   0.722   5.129   0.966  0.0375  0.0101  0.5802
  747MOL0     C  765   0.400   5.055   0.669  0.7722  0.3974  0.1642
  747MOL0     C  766   0.433   4.956   0.568  0.3977 -0.4378  1.2194
  747MOL0     C  767   0.351   4.945   0.447 -0.3561 -0.4665  0.2019
  747MOL0     C  768   0.235   5.018   0.437  0.2375  0.4153  0.1932
  747MOL0     O  769   0.157   5.012   0.321 -0.1224 -0.0472  0.0490
  747MOL0     C  770   0.188   4.933   0.212  0.4417  0.2453  0.1807
  747MOL0     C  771   0.077   4.962   0.104 -0.6931  0.9312 -0.4951
  747MOL0     C  772   0.068   5.110   0.077  1.5818  0.4052 -0.0765
  747MOL0     C  773  -0.017   5.138  -0.054 -0.5386  0.3980  0.4851
  747MOL0     C  774  -0.030   5.287  -0.067  0.5511 -0.1777 -0.2371
  747MOL0     C  775  -0.047   5.409  -0.050  0.1669  0.4222 -0.0905
  747MOL0     C  776   0.192   5.099   0.542  0.5004  0.2585 -0.6220
  747MOL0     C  777   0.266   5.120   0.654 -0.8386  0.0133 -0.1703
  747MOL0     H  778   0.738   4.809   0.850 -1.5270  0.3055  1.2493
  747MOL0     H  779   0.916   4.790   1.005  0.5039  0.1201 -0.7732
  747MOL0     H  780   1.010   5.178   1.232  1.9852  0.5430 -0.0266
  747MOL0     H  781   0.905   5.064   1.328  0.8852 -2.6408  0.3244
  747MOL0     H  782   1.071   5.145   1.464  2.1220  2.2444 -0.7491
  747MOL0     H  783   1.124   4.983   1.439 -0.2591  0.0021 -1.4324
  747MOL0     H  784   1.263   5.080   1.243  2.6867  0.2966  0.4825
  747MOL0     H  785   1.211   5.247   1.298  2.8888  0.6980 -0.6900
  747MOL0     H  786   1.450   5.170   1.349 -0.5271 -0.9310 -1.9536
  747MOL0     H  787   1.361   5.225   1.490 -0.7260 -1.2161  0.9652
  747MOL0     H  788   1.324   4.982   1.546 -2.2078 -1.6664 -1.8158
  747MOL0     H  789   1.393   4.932   1.385 -2.2078 -1.4393  1.9283
  747MOL0     H  790   1.612   5.032   1.458 -1.3494  0.8651  0.6979
  747MOL0     H  791   1.548   5.091   1.608 -1.9466  3.2429 -2.3932
  747MOL0     H  792   1.559   4.801   1.542 -0.1062  2.5727 -1.2109
  747MOL0     H  793   1.693   4.878   1.633  0.5936 -0.8893  3.5925
  747MOL0     H  794   1.409   4.895   1.749  0.0280  0.4555  0.6034
  747MOL0     H  795   1.580   4.937   1.815  1.4368 -0.2648 -0.1188
  747MOL0     H  796   1.734   4.699   1.797  0.3646  0.2951 -0.1565
  747MOL0     H  797   1.705   4.480   2.010 -1.0169 -0.5178  0.8892
  747MOL0     H  798   1.608   4.355   1.948 -0.1025 -1.0153 -2.5428
  747MOL0     H  799   1.830   4.319   1.848 -0.3167 -0.5935 -1.2508
  747MOL0     H  800   1.837   4.487   1.791 -0.6936  1.5914  1.5853
  747MOL0     H  801   1.695   4.432   1.602 -0.9364 -0.6890 -1.0501
  747MOL0     H  802   1.619   4.305   1.685  2.0132 -0.6156 -2.4532
  747MOL0     H  803   1.782   4.188   1.551 -0.7598 -2.2298  1.7055
  747MOL0     H  804   1.841   4.168   1.704 -3.1301 -3.5966 -3.3696
  747MOL0     H  805   2.139   4.402   1.506 -0.7488  0.1210  0.4327
  747MOL0     H  806   2.368   4.420   1.512  5.7428  1.5468 -0.2365
  747MOL0     H  807   2.467   4.280   1.496  0.8042  1.3734 -2.4803
  747MOL0     H  808   2.398   4.351   1.348  2.2452 -0.3663  0.2696
  747MOL0     H  809   2.710   4.061   1.532  1.4627  0.3733 -0.4352
  747MOL0     H  810   2.901   3.920   1.518  1.1919  0.3242 -2.3052
  747MOL0     H  811   2.873   3.573   1.209  0.1685  0.1017 -0.1987
  747MOL0     H  812   2.968   3.707   1.137 -2.2507  0.0479 -0.1278
  747MOL0     H  813   3.168   3.616   1.269 -0.3803 -0.1250  0.8486
  747MOL0     H  814   3.069   3.492   1.344  1.9754 -2.1030 -0.9479
  747MOL0     H  815   3.127   3.517   1.047 -2.5321  0.3036 -0.2690
  747MOL0     H  816   3.022   3.401   1.109 -0.2752  1.7473  0.7252
  747MOL0     H  817   3.312   3.399   1.147  0.1629  0.9566 -0.8853
  747MOL0     H  818   3.211   3.318   1.272  1.1014  0.0483  0.6795
  747MOL0     H  819   3.088   3.190   1.084  0.4819 -2.6584 -0.0818
  747MOL0     H  820   3.250   3.133   1.106  0.7201  1.2107 -1.2899
  747MOL0     H  821   3.172   3.183   0.854  1.3381 -0.5110 -1.6245
  747MOL0     H  822   3.173   3.341   0.887 -2.3765 -1.8170 -3.2878
  747MOL0     H  823   3.414   3.149   0.920  1.0211  0.4885 -1.1834
  747MOL0     H  824   3.430   3.325   0.944 -1.2747 -0.4835  1.7433
  747MOL0     H  825   3.336   3.182   0.687  0.7737  1.0083 -2.5552
  747MOL0     H  826   3.505   3.232   0.725 -0.3604  0.1008 -0.8138
  747MOL0     H  827   2.741   3.753   1.149  2.4415  1.2689 -1.7952
  747MOL0     H  828   2.561   3.894   1.167  0.3073 -2.5210 -0.7084
  747MOL0     H  829   2.147   3.915   1.496 -1.1724 -0.3772 -1.8426
  747MOL0     H  830   1.972   4.023   1.594  2.3763  0.9936  2.2179
  747MOL0     H  831   0.842   5.212   1.114 -2.9178  0.4856 -0.5292
  747MOL0     H  832   0.679   5.228   0.958 -2.2212 -1.0367 -1.7123
  747MOL0     H  833   0.512   4.883   0.574 -0.4561 -1.4905  0.1063
  747MOL0     H  834   0.387   4.882   0.366  2.8707 -0.3651  1.4180
  747MOL0     H  835   0.280   4.976   0.170  0.1719 -0.1429 -0.8482
  747MOL0     H  836   0.202   4.829   0.243 -0.4378  0.4649  1.3882
  747MOL0     H  837  -0.016   4.924   0.147 -0.7094 -1.9804 -2.7964
  747MOL0     H  838   0.108   4.903   0.017  1.5833  1.3322 -0.0432
  747MOL0     H  839   0.166   5.155   0.061  1.6355 -0.3809 -2.3458
  747MOL0     H  840   0.006   5.149   0.158  0.3266  1.4930 -1.4979
  747MOL0     H  841  -0.115   5.092  -0.037 -0.3023 -0.4476 -0.3559
  747MOL0     H  842   0.025   5.093  -0.144 -0.1204 -3.0142  2.2254
  747MOL0     H  843  -0.058   5.515  -0.049  0.1753  0.4462 -1.1618
  747MOL0     H  844   0.104   5.161   0.529 -0.0864 -0.6511 -1.0829
  747MOL0     H  845   0.224   5.191   0.725  0.8174  0.5543  0.3092
  748MOL0     O  846   3.498   6.328   0.134  0.7985  0.3907 -0.6087
  748MOL0     C  847   3.517   6.326   0.012 -0.1758 -0.0835  0.3427
  748MOL0     O  848   3.637   6.274  -0.051 -0.0808  0.0429 -0.9196
  748MOL0     C  849   3.720   6.192   0.024 -0.4974 -0.1399  0.1583
  748MOL0     C  850   3.849   6.191  -0.018  0.2658  0.0012  0.6559
  748MOL0     C  851   3.945   6.109   0.024  0.0780 -0.2903  0.3681
  748MOL0     C  852   3.920   6.028   0.141  0.1244 -0.4457  0.2250
  748MOL0     O  853   4.024   5.955   0.194  0.5171 -1.2886 -0.0528
  748MOL0     C  854   4.053   5.947   0.334  0.2629  0.2460  0.1352
  748MOL0     C  855   4.033   5.805   0.385 -0.0654 -0.4579  0.6291
  748MOL0     C  856   3.892   5.756   0.358 -0.0469  0.1582 -0.5864
  748MOL0     C  857   3.876   5.608   0.402  0.3834  0.3413 -0.3412
  748MOL0     C  858   3.735   5.560   0.425 -1.0548  0.3423 -0.4912
  748MOL0     C  859   3.739   5.410   0.452  0.4326  1.0219  0.6412
  748MOL0     C  860   3.699   5.333   0.329  1.5903 -0.1653 -0.4680
  748MOL0     C  861   3.804   5.284   0.238 -0.0384 -1.1244  0.3831
  748MOL0     N  862   3.772   5.164   0.170 -0.1445 -0.0695  0.4509
  748MOL0     C  863   3.667   5.149   0.077  0.5671 -0.8408  0.5964
  748MOL0     C  864   3.673   5.026   0.032  0.1377 -0.2176  0.8786
  748MOL0     C  865   3.582   4.976  -0.085 -0.1570  0.1290 -1.0667
  748MOL0     C  866   3.628   5.004  -0.232  1.3233 -0.3141  0.0275
  748MOL0     C  867   3.747   4.924  -0.275  0.0466  0.8358 -0.1250
  748MOL0     C  868   3.885   4.997  -0.259  0.4407  1.4633 -0.1878
  748MOL0     O  869   3.986   4.911  -0.298  0.0585  0.9386 -0.1549
  748MOL0     C  870   4.113   4.957  -0.317 -0.1052 -0.8155  0.8462
  748MOL0     C  871   4.161   5.087  -0.278  0.1801 -0.0212 -0.2283
  748MOL0     C  872   4.285   5.129  -0.309  0.2707 -0.1819  0.3974
  748MOL0     C  873   4.317   5.269  -0.271  0.6837  0.4237 -0.6530
  748MOL0     C  874   4.369   5.045  -0.405  0.3288 -0.0196 -0.0630
  748MOL0     C  875   4.509   5.077  -0.437 -0.1476 -0.7311 -0.0205
  748MOL0     O  876   4.580   5.152  -0.344 -0.6541 -0.1787 -0.4182
  748MOL0     C  877   4.707   5.192  -0.359 -0.8159 -1.0984  0.8100
  748MOL0     C  878   4.737   5.304  -0.275 -0.1704 -0.7806 -1.3284
  748MOL0     C  879   4.871   5.354  -0.272  0.6027 -0.5120 -0.5698
  748MOL0     C  880   4.973   5.298  -0.355 -0.5575 -0.3767  0.7004
  748MOL0     O  881   5.103   5.342  -0.378 -0.8787 -0.0205 -0.3335
  748MOL0     C  882   5.148   5.462  -0.310  0.9584 -0.4665 -0.4348
  748MOL0     C  883   5.301   5.477  -0.325 -0.6454  0.1953 -0.1845
  748MOL0     C  884   5.360   5.589  -0.241 -0.0745  0.2837  0.0805
  748MOL0     C  885   5.513   5.600  -0.271  0.1407 -0.1098 -0.6035
  748MOL0     C  886   5.575   5.716  -0.192 -0.7973 -0.8873  0.1620
  748MOL0     C  887   5.592   5.679  -0.043 -0.7243 -0.2223 -0.5335
  748MOL0     C  888   5.643   5.809   0.027  0.6731 -0.0517  1.0730
  748MOL0     C  889   5.701   5.773   0.164  0.6037 -0.0175  0.9150
  748MOL0    Cl  890   5.808   5.902   0.239  0.2713 -0.2697 -0.1894
  748MOL0     C  891   4.929   5.196  -0.441 -0.0861 -1.0650  0.1894
  748MOL0     C  892   4.804   5.148  -0.440 -1.1461  1.5613 -0.2433
  748MOL0     O  893   4.556   5.045  -0.548 -0.0546 -0.0290 -0.5569
  748MOL0     C  894   4.313   4.926  -0.449  0.4094 -0.0184  0.5374
  748MOL0     C  895   4.193   4.876  -0.403  0.2275  0.4656 -0.2157
  748MOL0     N  896   3.773   4.958   0.100  0.1939  0.8447 -0.6963
  748MOL0     N  897   3.827   5.039   0.180  0.6008  0.5565 -0.1457
  748MOL0     C  898   3.789   6.026   0.188  0.1160 -0.5124  0.1573
  748MOL0     C  899   3.688   6.110   0.132 -1.0517 -0.6310 -0.1664
  748MOL0     C  900   3.404   6.367  -0.074 -0.2874 -0.9968 -0.6422
  748MOL0     C  901   3.272   6.384  -0.017 -0.9514 -0.1053  0.0925
  748MOL0     C  902   3.149   6.405  -0.100 -0.4099 -0.1892 -0.7435
  748MOL0     C  903   3.168   6.422  -0.240  0.6680  0.4408 -0.3991
  748MOL0     O  904   3.065   6.440  -0.333 -0.0474 -0.2700  0.2914
  748MOL0     C  905   2.944   6.496  -0.284  0.4131 -1.0181 -1.1248
  748MOL0     C  906   2.893   6.566  -0.404 -0.4212 -0.1529 -0.5349
  748MOL0     C  907   2.783   6.676  -0.371 -0.6644  1.0765 -0.3706
  748MOL0     C  908   2.647   6.610  -0.322 -0.3675 -0.7368 -0.0200
  748MOL0     C  909   2.643   6.575  -0.179 -0.0694 -0.3495  0.3757
  748MOL0     C  910   2.659   6.556  -0.057 -0.1044  0.2816 -1.1602
  748MOL0     C  911   3.300   6.411  -0.290  0.3912  0.3023  0.5541
  748MOL0     C  912   3.405   6.380  -0.211  0.5066 -0.5702 -0.3014
  748MOL0     H  913   3.870   6.273  -0.086  1.8649  0.4458  1.6473
  748MOL0     H  914   4.048   6.117  -0.008  0.3029  1.9401  1.4091
  748MOL0     H  915   4.158   5.971   0.354  0.4010 -0.5364  0.3906
  748MOL0     H  916   3.988   6.021   0.381  0.0783  0.0403  0.2020
  748MOL0     H  917   4.113   5.740   0.349  0.7648 -0.4133  2.2858
  748MOL0     H  918   4.055   5.802   0.493  0.1342 -4.2569  0.6370
  748MOL0     H  919   3.847   5.830   0.425 -1.7995  2.2662 -3.8445
  748MOL0     H  920   3.855   5.772   0.257  0.3413 -4.4767 -1.6764
  748MOL0     H  921   3.921   5.534   0.336  1.0379 -2.7734  3.2255
  748MOL0     H  922   3.936   5.593   0.493  1.0088 -0.9308 -0.9411
  748MOL0     H  923   3.689   5.610   0.510 -0.0688  3.3180 -1.5768
  748MOL0     H  924   3.668   5.585   0.342 -0.5610  1.4358 -0.5850
  748MOL0     H  925   3.835   5.373   0.490 -0.4602 -0.6506  1.3355
  748MOL0     H  926   3.670   5.388   0.533  1.0156 -1.9882  0.4652
  748MOL0     H  927   3.644   5.246   0.365 -2.2180  1.7530 -1.1117
  748MOL0     H  928   3.616   5.377   0.272  1.1492  0.9592  0.9926
  748MOL0     H  929   3.903   5.277   0.284  2.0507  1.7887 -3.1106
  748MOL0     H  930   3.814   5.368   0.169 -1.6875 -1.6441 -0.5397
  748MOL0     H  931   3.592   5.220   0.042  0.9755 -1.3014 -1.2944
  748MOL0     H  932   3.572   4.868  -0.073 -0.2427  0.3777  1.7803
  748MOL0     H  933   3.481   5.019  -0.076 -0.4188 -0.4325 -1.2596
  748MOL0     H  934   3.652   5.108  -0.254  0.6128 -0.0228  0.5749
  748MOL0     H  935   3.541   4.974  -0.292  2.1421 -0.7341 -0.9700
  748MOL0     H  936   3.733   4.907  -0.382  4.8422 -0.9344 -0.7283
  748MOL0     H  937   3.740   4.827  -0.225 -1.1586  2.4594  3.2060
  748MOL0     H  938   3.889   5.014  -0.151 -4.0155 -1.6624  0.7604
  748MOL0     H  939   3.886   5.089  -0.319  1.1654  1.4839 -0.1505
  748MOL0     H  940   4.092   5.152  -0.225  0.6451 -2.0886  3.2604
  748MOL0     H  941   4.227   5.317  -0.233  1.3221  2.8475 -2.0039
  748MOL0     H  942   4.389   5.287  -0.191 -1.7459  4.9796  0.8761
  748MOL0     H  943   4.332   5.324  -0.364 -2.9030  2.4403 -0.2047
  748MOL0     H  944   4.667   5.353  -0.208  1.5696 -0.3485  0.2456
  748MOL0     H  945   4.895   5.425  -0.193  0.2611 -1.0056 -0.0177
  748MOL0     H  946   5.105   5.548  -0.362  2.6991 -0.6136 -2.2145
  748MOL0     H  947   5.116   5.454  -0.206  1.2612  2.6080 -0.0027
  748MOL0     H  948   5.351   5.382  -0.302 -0.7079 -0.5744 -2.9261
  748MOL0     H  949   5.323   5.502  -0.429 -0.9681 -1.7766 -0.7789
  748MOL0     H  950   5.348   5.554  -0.138 -0.2956 -2.2449 -0.7368
  748MOL0     H  951   5.306   5.680  -0.267  1.7408  0.9340 -1.6850
  748MOL0     H  952   5.566   5.507  -0.249 -1.7728 -1.4178 -1.3241
  748MOL0     H  953   5.514   5.620  -0.378 -0.4077  1.3308 -0.3599
  748MOL0     H  954   5.525   5.812  -0.202 -0.7313 -0.6081  2.1744
  748MOL0     H  955   5.667   5.740  -0.247 -1.2846  1.9278  0.4599
  748MOL0     H  956   5.489   5.658  -0.014 -0.8374 -0.3262 -1.0096
  748MOL0     H  957   5.651   5.588  -0.031  2.2506  1.1757 -2.9822
  748MOL0     H  958   5.556   5.872   0.048  2.9800  2.4361  3.9946
  748MOL0     H  959   5.718   5.856  -0.036  1.2886 -1.1825  0.9305
  748MOL0     H  960   5.772   5.692   0.145 -1.0839 -1.2603 -0.3703
  748MOL0     H  961   5.625   5.734   0.232 -1.1606 -0.2153 -1.0664
  748MOL0     H  962   4.995   5.162  -0.520  1.1225 -1.5206  1.3546
  748MOL0     H  963   4.784   5.063  -0.504  2.8586  0.8887 -0.8784
  748MOL0     H  964   4.357   4.867  -0.530  1.8313 -0.3733  1.5239
  748MOL0     H  965   4.168   4.781  -0.449  2.5387 -0.5772  0.4947
  748MOL0     H  966   3.756   5.967   0.272  1.3395  0.3235  1.2541
  748MOL0     H  967   3.589   6.104   0.175 -0.8816 -0.5922  0.2417
  748MOL0     H  968   3.262   6.396   0.091  0.9853 -3.6823  0.8044
  748MOL0     H  969   3.054   6.418  -0.051  0.7508  3.0430  0.9283
  748MOL0     H  970   2.877   6.420  -0.243 -0.4664  0.8823  1.1016
  748MOL0     H  971   2.967   6.568  -0.205  1.5354 -0.8537 -1.5727
  748MOL0     H  972   2.860   6.494  -0.480  0.3222 -0.7808 -0.2708
  748MOL0     H  973   2.979   6.629  -0.430  1.6588 -1.1455  3.2542
  748MOL0     H  974   2.766   6.719  -0.470 -1.3996 -1.6803 -1.5342
  748MOL0     H  975   2.819   6.749  -0.298 -2.0511  0.9636  0.4648
  748MOL0     H  976   2.625   6.520  -0.380 -3.3122 -1.5251  2.0816
  748MOL0     H  977   2.563   6.678  -0.336 -0.4446 -0.8317 -0.0224
  748MOL0     H  978   2.661   6.538   0.049 -0.2072 -2.0479 -1.5181
  748MOL0     H  979   3.324   6.395  -0.394 -0.8769 -3.0777  0.6657
  748MOL0     H  980   3.494   6.361  -0.270  0.8109 -1.7503  0.5012
  749MOL0     O  981   4.588   7.486   9.225 -0.3563  0.6869  0.2298
  749MOL0     C  982   4.554   7.593   9.261  1.0755  0.5218  0.5732
  749MOL0     O  983   4.628   7.696   9.292 -0.3211  0.7030  1.1586
  749MOL0     C  984   4.756   7.685   9.240  0.4913  1.1137 -0.2096
  749MOL0     C  985   4.782   7.751   9.117 -0.5242 -0.2758  0.0591
  749MOL0     C  986   4.907   7.737   9.068 -0.1494 -0.5731  0.0151
  749MOL0     C  987   5.011   7.661   9.128  0.8232  0.9860 -0.7954
  749MOL0     O  988   5.132   7.654   9.065  0.0212 -0.4727 -0.1921
  749MOL0     C  989   5.229   7.695   9.142 -0.5521  0.1478 -0.9015
  749MOL0     C  990   5.360   7.707   9.071 -0.3596 -0.2037  0.2458
  749MOL0     C  991   5.433   7.574   9.038 -0.6323 -0.2133  0.2896
  749MOL0     C  992   5.545   7.610   8.928  0.2049  0.3753  0.2446
  749MOL0     C  993   5.631   7.488   8.898 -0.4201 -0.4620 -0.8417
  749MOL0     C  994   5.574   7.382   8.793  0.6362  0.0357  0.5955
  749MOL0     C  995   5.675   7.276   8.736 -0.2007  1.1773  0.0736
  749MOL0     C  996   5.714   7.166   8.834  0.3050 -0.6655  0.5700
  749MOL0     N  997   5.596   7.092   8.874  0.1330  0.2039  0.8383
  749MOL0     C  998   5.550   7.103   9.001  0.8784 -0.0484 -0.1121
  749MOL0     C  999   5.430   7.049   8.989  0.4641 -0.7053 -0.0576
  749MOL0     C 1000   5.313   7.075   9.078 -0.5347  0.0348  0.0507
  749MOL0     C 1001   5.247   7.209   9.071  0.0439 -0.0885 -0.8937
  749MOL0     C 1002   5.139   7.213   8.967 -0.5464 -0.2629 -0.2325
  749MOL0     C 1003   5.056   7.338   8.973 -0.1874  0.5393  0.3601
  749MOL0     O 1004   4.973   7.340   9.092  0.2352 -0.4428 -1.2635
  749MOL0     C 1005   4.848   7.272   9.104 -0.7145 -0.2311  0.9785
  749MOL0     C 1006   4.767   7.236   8.995  0.3548  0.4167  0.3472
  749MOL0     C 1007   4.635   7.190   9.008 -0.0172  0.1517 -0.3671
  749MOL0     C 1008   4.565   7.154   8.876  1.2009  0.6096 -0.6490
  749MOL0     C 1009   4.586   7.164   9.140 -0.4949  1.3917  0.3093
  749MOL0     C 1010   4.454   7.103   9.168  0.2095  0.4753  0.0705
  749MOL0     O 1011   4.408   7.119   9.304 -0.3473 -0.1052  0.3485
  749MOL0     C 1012   4.280   7.103   9.344 -0.2337 -0.5412 -0.0755
  749MOL0     C 1013   4.259   7.143   9.477 -0.2188 -0.1290 -0.5302
  749MOL0     C 1014   4.131   7.145   9.538  0.3245  0.2328 -0.4972
  749MOL0     C 1015   4.021   7.130   9.462 -0.8471  0.7226  0.1663
  749MOL0     O 1016   3.902   7.131   9.521 -0.0595 -0.4970 -0.8547
  749MOL0     C 1017   3.798   7.210   9.459  0.6323  0.0065  0.4066
  749MOL0     C 1018   3.705   7.269   9.565  0.6454  0.3068  0.0920
  749MOL0     C 1019   3.571   7.313   9.516 -0.1928 -0.4585 -0.0408
  749MOL0     C 1020   3.584   7.425   9.409 -0.5406 -1.3350  0.4086
  749MOL0     C 1021   3.450   7.450   9.323  0.3461  0.0069 -0.3840
  749MOL0     C 1022   3.424   7.347   9.211 -0.7501 -0.2440 -0.7803
  749MOL0     C 1023   3.335   7.391   9.108  0.6497 -0.3586  0.6742
  749MOL0     C 1024   3.229   7.282   9.072  0.2879  0.3537  0.1670
  749MOL0    Cl 1025   3.164   7.289   8.895 -0.0073 -0.0011 -0.3129
  749MOL0     C 1026   4.042   7.107   9.322  0.2106 -0.5429  0.3633
  749MOL0     C 1027   4.168   7.093   9.267  0.3220  0.0114  0.2018
  749MOL0     O 1028   4.397   7.036   9.080 -0.2271  0.0016  0.1430
  749MOL0     C 1029   4.671   7.184   9.250 -0.3672 -0.5865  0.1574
  749MOL0     C 1030   4.798   7.244   9.227 -0.3217 -0.0666 -0.9046
  749MOL0     N 1031   5.418   6.992   8.862  0.3779 -0.1905 -0.4693
  749MOL0     N 1032   5.513   7.022   8.787 -0.9248 -0.2012 -0.5766
  749MOL0     C 1033   4.983   7.607   9.246  0.7084 -0.1325 -1.2817
  749MOL0     C 1034   4.861   7.619   9.307  0.2800  1.0248  0.5214
  749MOL0     C 1035   4.408   7.608   9.286 -0.2962 -0.8475  0.7833
  749MOL0     C 1036   4.318   7.507   9.301  0.4535 -0.2443 -0.3905
  749MOL0     C 1037   4.189   7.523   9.349 -0.1052 -0.0600 -0.0096
  749MOL0     C 1038   4.140   7.649   9.381  0.1079  0.6750  0.4203
  749MOL0     O 1039   4.013   7.653   9.428 -0.2152 -0.3018  0.4874
  749MOL0     C 1040   3.975   7.771   9.492 -1.3030 -0.3083 -0.2681
  749MOL0     C 1041   3.829   7.739   9.516  0.5336 -1.0428  0.5810
  749MOL0     C 1042   3.753   7.857   9.587 -0.3880  0.8632 -0.1698
  749MOL0     C 1043   3.607   7.836   9.600  0.3211  0.4787 -0.1435
  749MOL0     C 1044   3.547   7.864   9.464  0.3703  0.1257  0.3757
  749MOL0     C 1045   3.495   7.890   9.355 -0.0088  0.6895 -0.3535
  749MOL0     C 1046   4.232   7.761   9.358 -0.4465 -0.4845 -0.3320
  749MOL0     C 1047   4.359   7.736   9.307  0.0425  0.3441 -0.4222
  749MOL0     H 1048   4.712   7.809   9.059  0.2640  1.7127  0.9859
  749MOL0     H 1049   4.925   7.773   8.967  0.2186 -0.3210  0.1666
  749MOL0     H 1050   5.208   7.789   9.194 -2.3703 -1.6517  1.8881
  749MOL0     H 1051   5.254   7.624   9.221 -0.7891  0.6381 -0.3792
  749MOL0     H 1052   5.343   7.749   8.971 -0.6297  2.0853  1.2099
  749MOL0     H 1053   5.427   7.780   9.116 -1.0408  1.5902 -1.4704
  749MOL0     H 1054   5.468   7.537   9.134 -2.5540 -0.0068  1.1082
  749MOL0     H 1055   5.373   7.495   8.992 -0.5520  0.4659 -1.0585
  749MOL0     H 1056   5.493   7.645   8.838 -3.4737 -2.4715  1.0165
  749MOL0     H 1057   5.611   7.694   8.949  0.1397  0.9232 -1.5518
  749MOL0     H 1058   5.731   7.527   8.879 -0.8541  1.3551  0.3465
  749MOL0     H 1059   5.650   7.437   8.993  3.4980  0.7699 -0.7862
  749MOL0     H 1060   5.482   7.333   8.827 -0.2813 -1.4240 -3.5190
  749MOL0     H 1061   5.558   7.425   8.694  3.5479 -2.7198 -1.2418
  749MOL0     H 1062   5.618   7.242   8.648 -0.7113  1.1263  0.4181
  749MOL0     H 1063   5.760   7.332   8.696  0.2938  0.3135 -0.1103
  749MOL0     H 1064   5.771   7.216   8.913  1.5762 -0.4708 -0.4364
  749MOL0     H 1065   5.784   7.115   8.767  2.5125  0.1378  2.1554
  749MOL0     H 1066   5.600   7.157   9.081 -1.2975  1.6604  0.1804
  749MOL0     H 1067   5.244   6.991   9.067 -0.1399 -0.1244 -1.4867
  749MOL0     H 1068   5.356   7.056   9.177  3.5065  2.5113 -1.0100
  749MOL0     H 1069   5.329   7.275   9.043 -0.8237  1.1773 -0.5631
  749MOL0     H 1070   5.202   7.234   9.168  0.6188  1.1607 -0.9359
  749MOL0     H 1071   5.075   7.125   8.980  2.5249 -2.5364  0.5574
  749MOL0     H 1072   5.190   7.216   8.870  0.1051  3.1538  0.0797
  749MOL0     H 1073   4.994   7.363   8.886  0.1194 -0.7637 -0.2611
  749MOL0     H 1074   5.131   7.418   8.979  2.5262 -1.9402  1.6764
  749MOL0     H 1075   4.794   7.242   8.890 -0.5274 -0.8092  0.0331
  749MOL0     H 1076   4.610   7.211   8.795  1.6099 -2.3686 -2.6754
  749MOL0     H 1077   4.588   7.049   8.853  2.2120  1.0473 -1.6957
  749MOL0     H 1078   4.457   7.171   8.877  0.8666 -1.0838 -2.3941
  749MOL0     H 1079   4.346   7.180   9.530 -1.0994  3.2742 -1.2219
  749MOL0     H 1080   4.117   7.168   9.643 -1.7832  1.0126 -0.8957
  749MOL0     H 1081   3.841   7.292   9.400  1.0535 -1.9943 -2.2966
  749MOL0     H 1082   3.738   7.144   9.395  0.4199 -0.7418  1.3651
  749MOL0     H 1083   3.687   7.196   9.645 -1.8562  1.6713  0.8834
  749MOL0     H 1084   3.758   7.353   9.611  3.0736 -1.5959  1.0422
  749MOL0     H 1085   3.536   7.364   9.606  1.7771  0.1874  0.4274
  749MOL0     H 1086   3.510   7.228   9.485 -0.8099 -0.0682  0.0935
  749MOL0     H 1087   3.606   7.526   9.443 -0.7750 -0.8074 -0.9415
  749MOL0     H 1088   3.655   7.404   9.328 -1.6228 -0.1998 -0.8952
  749MOL0     H 1089   3.463   7.549   9.278 -2.1745  0.4496 -0.3054
  749MOL0     H 1090   3.365   7.454   9.392 -1.0342 -1.2438 -1.9437
  749MOL0     H 1091   3.518   7.314   9.167 -2.5520 -1.8020 -3.7391
  749MOL0     H 1092   3.387   7.255   9.258 -1.8935  0.8204  0.5266
  749MOL0     H 1093   3.400   7.416   9.024 -1.7308 -1.0356 -1.4920
  749MOL0     H 1094   3.280   7.482   9.136  1.7266  0.7991 -0.8396
  749MOL0     H 1095   3.136   7.268   9.128 -0.0893 -0.7183 -0.6841
  749MOL0     H 1096   3.277   7.185   9.089 -0.0846  0.2530  0.6601
  749MOL0     H 1097   3.945   7.117   9.273  0.8135 -2.4096 -1.3854
  749MOL0     H 1098   4.187   7.063   9.165  0.3147 -3.0829  1.0291
  749MOL0     H 1099   4.643   7.167   9.354  3.5559  2.8572  2.1138
  749MOL0     H 1100   4.861   7.276   9.309  0.8075 -2.2069 -0.8798
  749MOL0     H 1101   5.059   7.555   9.304  2.2521  0.9281 -2.2536
  749MOL0     H 1102   4.837   7.570   9.401 -1.4431  0.7706 -0.0095
  749MOL0     H 1103   4.357   7.408   9.276 -0.3011 -0.2594 -1.6073
  749MOL0     H 1104   4.118   7.442   9.365 -0.6143  0.5229  0.7383
  749MOL0     H 1105   4.024   7.783   9.589 -1.0524 -0.0191 -0.4309
  749MOL0     H 1106   3.979   7.864   9.434  3.0471 -2.2900 -3.6899
  749MOL0     H 1107   3.822   7.650   9.580 -0.7442 -1.3378  0.0639
  749MOL0     H 1108   3.784   7.722   9.418 -2.4554  1.9020  1.2691
  749MOL0     H 1109   3.786   7.942   9.526  3.3143 -1.3951 -1.6976
  749MOL0     H 1110   3.776   7.873   9.693 -2.7439  0.8806  0.3951
  749MOL0     H 1111   3.554   7.905   9.665 -4.0507 -2.8691  0.3130
  749MOL0     H 1112   3.597   7.736   9.641  0.4192  0.5399  0.0275
  749MOL0     H 1113   3.443   7.901   9.262 -2.5478 -1.6242  0.6445
  749MOL0     H 1114   4.197   7.857   9.394 -2.1038 -1.1060 -0.1624
  749MOL0     H 1115   4.423   7.821   9.286  0.9540  0.0924  1.2520
  750MOL0     O 1116   8.054   0.640   9.505 -1.2266 -0.0934 -0.3921
  750MOL0     C 1117   8.013   0.566   9.597  0.2814 -0.2246  0.0697
  750MOL0     O 1118   8.090   0.503   9.693  1.0134  0.9350 -1.6300
  750MOL0     C 1119   8.222   0.533   9.684  0.5915  0.1551 -1.1020
  750MOL0     C 1120   8.318   0.434   9.669 -0.2594  0.2227  0.4200
  750MOL0     C 1121   8.456   0.462   9.658  0.1099 -1.0147  0.9129
  750MOL0     C 1122   8.500   0.599   9.657  0.5019  0.3533  0.3365
  750MOL0     O 1123   8.639   0.617   9.648  0.5581  0.1742  0.1471
  750MOL0     C 1124   8.671   0.756   9.620  0.5322  0.3498  0.5579
  750MOL0     C 1125   8.813   0.751   9.560 -0.3880 -1.1007  0.5565
  750MOL0     C 1126   8.870   0.896   9.532 -0.1408 -0.5844  0.8132
  750MOL0     C 1127   8.878   0.999   9.651 -0.7035  0.2151  0.2075
  750MOL0     C 1128   9.005   0.971   9.734  1.1765 -0.0530 -0.2478
  750MOL0     C 1129   9.020   1.050   9.868 -1.0320  0.2924  0.1863
  750MOL0     C 1130   8.990   1.203   9.852 -0.5582  0.5128 -0.5166
  750MOL0     C 1131   8.847   1.236   9.902 -0.1649  0.2522 -0.3622
  750MOL0     N 1132   8.754   1.257   9.794 -0.0407 -0.0244 -0.4149
  750MOL0     C 1133   8.753   1.371   9.722 -0.9690  0.6883  0.7225
  750MOL0     C 1134   8.654   1.358   9.622 -0.1916 -0.7915 -0.3192
  750MOL0     C 1135   8.625   1.469   9.527  0.3370  0.7407 -0.4011
  750MOL0     C 1136   8.723   1.450   9.414  0.0688 -0.2326  0.7211
  750MOL0     C 1137   8.662   1.527   9.290 -1.1565  0.1030 -0.5867
  750MOL0     C 1138   8.646   1.433   9.168 -1.2436 -0.4508 -0.0616
  750MOL0     O 1139   8.561   1.486   9.068 -0.1142 -0.0571  0.9928
  750MOL0     C 1140   8.609   1.538   8.948 -0.3999  0.4927  0.2030
  750MOL0     C 1141   8.748   1.545   8.897  0.1928  1.0991 -0.6132
  750MOL0     C 1142   8.784   1.603   8.783 -1.3639 -0.6689  0.3585
  750MOL0     C 1143   8.932   1.589   8.739  0.5148  0.7348 -0.8986
  750MOL0     C 1144   8.681   1.671   8.706  0.4608 -0.0445  0.8015
  750MOL0     C 1145   8.710   1.739   8.566  0.0472  1.5342 -1.0706
  750MOL0     O 1146   8.591   1.803   8.511  0.2329 -0.5296 -0.2546
  750MOL0     C 1147   8.607   1.919   8.454 -0.0473 -0.8633 -1.1248
  750MOL0     C 1148   8.621   1.925   8.322  1.2221 -0.4472 -0.2746
  750MOL0     C 1149   8.639   2.046   8.255  0.4046 -0.2614  0.0411
  750MOL0     C 1150   8.666   2.162   8.315 -0.2205 -0.7544 -0.9318
  750MOL0     O 1151   8.676   2.280   8.249 -0.1534  0.1034 -0.0497
  750MOL0     C 1152   8.805   2.340   8.244 -0.4671 -0.4028  0.3047
  750MOL0     C 1153   8.808   2.465   8.156  1.0098  0.1820  0.0878
  750MOL0     C 1154   8.952   2.526   8.134  0.0587 -0.8068 -1.0585
  750MOL0     C 1155   8.956   2.647   8.045 -0.3805 -0.7278  1.0525
  750MOL0     C 1156   9.088   2.736   8.074  0.6430  0.0445 -0.2874
  750MOL0     C 1157   9.229   2.678   8.037 -0.0021 -0.8641 -0.7018
  750MOL0     C 1158   9.227   2.613   7.896  0.1363 -0.0295 -0.5042
  750MOL0     C 1159   9.185   2.694   7.775 -0.5459  0.2767  0.3932
  750MOL0    Cl 1160   9.261   2.628   7.614 -0.0619 -0.2554  0.0789
  750MOL0     C 1161   8.666   2.159   8.458 -0.2535 -0.1688 -0.1578
  750MOL0     C 1162   8.623   2.040   8.520  0.9011 -0.8229 -0.3890
  750MOL0     O 1163   8.822   1.746   8.512 -0.1429  0.0602 -0.7696
  750MOL0     C 1164   8.546   1.657   8.742 -0.1553  0.7582 -0.0676
  750MOL0     C 1165   8.516   1.590   8.864 -0.1215  0.3129 -0.4299
  750MOL0     N 1166   8.593   1.246   9.635  0.2910  0.4741 -0.3585
  750MOL0     N 1167   8.648   1.187   9.735 -0.3833 -0.4644  0.1144
  750MOL0     C 1168   8.398   0.696   9.694 -0.2002 -0.6673  0.6347
  750MOL0     C 1169   8.265   0.661   9.711 -0.6173 -0.4297 -0.6701
  750MOL0     C 1170   7.867   0.545   9.592  0.3598  0.0590  0.5266
  750MOL0     C 1171   7.820   0.444   9.676 -0.3741 -0.2118  0.1441
  750MOL0     C 1172   7.688   0.422   9.691  0.1586  1.3834 -0.2050
  750MOL0     C 1173   7.590   0.469   9.600 -0.7381  0.2995  0.0748
  750MOL0     O 1174   7.454   0.430   9.601  0.4210 -0.0703 -1.0337
  750MOL0     C 1175   7.401   0.422   9.736 -0.2919  0.2021  0.0824
  750MOL0     C 1176   7.243   0.414   9.732  0.2630  0.9158  0.3185
  750MOL0     C 1177   7.185   0.523   9.637 -1.1055  1.0705 -0.0634
  750MOL0     C 1178   7.041   0.571   9.667 -1.0179 -0.1950 -0.0111
  750MOL0     C 1179   7.002   0.669   9.568 -0.2274 -0.5611  0.2591
  750MOL0     C 1180   6.968   0.749   9.477  0.2973  1.2459  0.6234
  750MOL0     C 1181   7.646   0.560   9.497  0.2063  0.3548 -0.1763
  750MOL0     C 1182   7.786   0.606   9.501  0.2550  0.1319 -0.2682
  750MOL0     H 1183   8.282   0.332   9.662 -4.7988  1.6205  0.5224
  750MOL0     H 1184   8.528   0.382   9.668  3.8582  1.8820 -0.3124
  750MOL0     H 1185   8.604   0.803   9.548  2.2772  3.5234  0.8024
  750MOL0     H 1186   8.667   0.823   9.706 -3.8275 -0.5028  1.2414
  750MOL0     H 1187   8.873   0.689   9.627  0.4098 -0.2902  0.6038
  750MOL0     H 1188   8.825   0.695   9.467  2.2583 -1.6651  1.1857
  750MOL0     H 1189   8.973   0.888   9.497 -0.1352  2.2475 -0.0862
  750MOL0     H 1190   8.819   0.950   9.451  1.7997 -0.3340 -0.2964
  750MOL0     H 1191   8.873   1.095   9.599 -0.4934 -0.5413 -1.2603
  750MOL0     H 1192   8.793   0.984   9.719  1.2687 -0.1102  2.7865
  750MOL0     H 1193   9.012   0.866   9.764  2.5013  0.2288  0.5145
  750MOL0     H 1194   9.097   0.985   9.677  1.5196 -5.2905 -1.5541
  750MOL0     H 1195   8.957   1.006   9.946 -0.0888 -1.7804 -0.1677
  750MOL0     H 1196   9.123   1.045   9.902 -0.3847  0.1036 -1.7210
  750MOL0     H 1197   9.065   1.255   9.913 -0.3514 -0.8421  0.4311
  750MOL0     H 1198   9.006   1.233   9.748 -2.3691  4.4430  0.1430
  750MOL0     H 1199   8.848   1.336   9.944  1.7411 -1.0086  2.9647
  750MOL0     H 1200   8.813   1.177   9.987  0.9787  0.0746 -0.0166
  750MOL0     H 1201   8.823   1.450   9.747  2.9237 -2.7015  1.6284
  750MOL0     H 1202   8.519   1.462   9.503 -0.1853  2.5500  1.0796
  750MOL0     H 1203   8.638   1.567   9.576 -0.6759 -0.8336  3.3908
  750MOL0     H 1204   8.739   1.345   9.389 -0.4487 -0.2367  0.3977
  750MOL0     H 1205   8.823   1.483   9.443  0.4669 -1.9846  1.4925
  750MOL0     H 1206   8.733   1.609   9.272  0.3044 -0.7149  1.1390
  750MOL0     H 1207   8.563   1.574   9.303 -1.5134 -0.1928 -2.0582
  750MOL0     H 1208   8.611   1.336   9.206 -0.5893 -0.7964 -0.3215
  750MOL0     H 1209   8.743   1.409   9.124 -1.9753 -1.6123 -1.1239
  750MOL0     H 1210   8.828   1.494   8.950  0.7200  1.5571 -0.9613
  750MOL0     H 1211   8.987   1.523   8.806 -1.6372 -2.3877 -1.9773
  750MOL0     H 1212   8.940   1.559   8.634  0.5256  1.3013 -1.0655
  750MOL0     H 1213   8.981   1.687   8.737 -0.6819  1.5148  1.9579
  750MOL0     H 1214   8.634   1.831   8.269  1.4970 -0.4488 -0.2049
  750MOL0     H 1215   8.626   2.047   8.147  0.9266  0.2278 -0.0225
  750MOL0     H 1216   8.832   2.367   8.347  2.0788  0.2362 -0.4564
  750MOL0     H 1217   8.887   2.273   8.215 -1.9165 -2.3449  0.5004
  750MOL0     H 1218   8.762   2.447   8.059  1.9689 -0.6619 -0.2325
  750MOL0     H 1219   8.758   2.549   8.204  1.4635  1.0606 -0.9379
  750MOL0     H 1220   9.037   2.462   8.108  2.9325  2.9657 -1.9124
  750MOL0     H 1221   8.974   2.555   8.237 -0.1396 -1.9134 -0.6899
  750MOL0     H 1222   8.951   2.618   7.939  1.0153  1.0698  0.4546
  750MOL0     H 1223   8.865   2.708   8.047 -1.1333 -1.8367  2.1722
  750MOL0     H 1224   9.102   2.760   8.180  1.0611  0.1138 -0.3592
  750MOL0     H 1225   9.073   2.824   8.011 -0.5467 -1.0112 -1.5299
  750MOL0     H 1226   9.303   2.758   8.041  1.5680 -2.2580 -0.9771
  750MOL0     H 1227   9.263   2.594   8.097 -0.2573 -2.1029 -2.2170
  750MOL0     H 1228   9.175   2.517   7.889  2.0628 -1.0737 -1.0919
  750MOL0     H 1229   9.329   2.587   7.868  1.2655  3.6581 -0.3465
  750MOL0     H 1230   9.216   2.798   7.788 -0.2863  0.6122 -2.2532
  750MOL0     H 1231   9.077   2.680   7.773 -0.5236 -0.3503  2.1416
  750MOL0     H 1232   8.680   2.255   8.506 -0.2301 -0.3694  0.2364
  750MOL0     H 1233   8.607   2.044   8.627 -1.2804 -0.2525 -0.6897
  750MOL0     H 1234   8.462   1.699   8.687 -1.5595  1.1887  2.2339
  750MOL0     H 1235   8.416   1.575   8.903  0.2565 -3.3739 -0.4959
  750MOL0     H 1236   8.425   0.801   9.697 -0.9014 -0.3404 -2.0213
  750MOL0     H 1237   8.198   0.730   9.763  0.5333 -0.1250  0.4666
  750MOL0     H 1238   7.885   0.390   9.744 -2.9957 -0.9438  2.2071
  750MOL0     H 1239   7.654   0.363   9.775 -0.1632 -0.4853 -1.5928
  750MOL0     H 1240   7.443   0.337   9.789  0.7678  0.3550 -0.4887
  750MOL0     H 1241   7.435   0.510   9.791  0.1754  0.6208 -0.8398
  750MOL0     H 1242   7.200   0.434   9.830  0.9233 -1.8638  1.2516
  750MOL0     H 1243   7.212   0.319   9.687 -3.4982  2.3564 -0.4878
  750MOL0     H 1244   7.213   0.496   9.535  0.9855  0.4194  0.6360
  750MOL0     H 1245   7.241   0.615   9.653 -0.3890  1.4788 -4.0223
  750MOL0     H 1246   7.039   0.622   9.763 -0.4181 -1.4782  0.7135
  750MOL0     H 1247   6.974   0.486   9.679 -3.2100  1.6007  1.1903
  750MOL0     H 1248   6.924   0.798   9.392 -1.5274 -0.9225  0.2160
  750MOL0     H 1249   7.571   0.600   9.430  0.9148  6.4842  1.9734
  750MOL0     H 1250   7.823   0.677   9.427 -0.1634  2.2322  1.4504
  751MOL0     O 1251   4.187   2.460   7.577 -0.2622 -0.7465  0.4526
  751MOL0     C 1252   4.233   2.372   7.651  0.5480  0.0940  1.1418
  751MOL0     O 1253   4.326   2.381   7.754 -0.7613 -0.2857 -0.1928
  751MOL0     C 1254   4.353   2.514   7.778 -1.1802 -0.4487  0.4962
  751MOL0     C 1255   4.283   2.579   7.876  0.0529  0.4870  0.4022
  751MOL0     C 1256   4.330   2.695   7.925 -1.6579 -0.7058  0.1795
  751MOL0     C 1257   4.447   2.764   7.859  0.7568  0.0860 -0.6123
  751MOL0     O 1258   4.465   2.886   7.915 -1.0987 -0.3326  0.8045
  751MOL0     C 1259   4.553   2.981   7.863  0.0400  1.2093  0.4874
  751MOL0     C 1260   4.481   3.098   7.797 -0.0885 -0.3201 -0.2598
  751MOL0     C 1261   4.418   3.076   7.656 -0.1334 -0.2710  0.6723
  751MOL0     C 1262   4.410   3.211   7.587  0.8120 -0.7293  0.1289
  751MOL0     C 1263   4.356   3.207   7.446 -0.2002  0.2903 -0.4179
  751MOL0     C 1264   4.330   3.358   7.400  0.9409  0.4947  0.4797
  751MOL0     C 1265   4.444   3.449   7.415 -0.5207  0.3733 -0.3122
  751MOL0     C 1266   4.417   3.596   7.366  0.3707  0.4906  0.2048
  751MOL0     N 1267   4.382   3.693   7.482  1.0761  0.3846 -0.6792
  751MOL0     C 1268   4.479   3.747   7.567  0.4069  0.8613  0.7070
  751MOL0     C 1269   4.411   3.835   7.643  0.0000  0.3982 -0.3641
  751MOL0     C 1270   4.467   3.906   7.761  0.0180  0.0097 -0.4925
  751MOL0     C 1271   4.509   4.048   7.732  0.7885 -0.3704  0.5651
  751MOL0     C 1272   4.588   4.102   7.862 -1.3965  0.3561  0.0845
  751MOL0     C 1273   4.745   4.087   7.845  0.4267  0.1863  0.0408
  751MOL0     O 1274   4.796   4.184   7.754 -0.2537 -0.1841  0.1848
  751MOL0     C 1275   4.919   4.162   7.690 -0.1472 -0.0260 -0.8859
  751MOL0     C 1276   4.960   4.269   7.613 -0.6357 -0.4365  0.0323
  751MOL0     C 1277   5.078   4.267   7.535 -0.5319 -0.3998  0.2296
  751MOL0     C 1278   5.115   4.398   7.469  0.2922 -0.1180 -0.1183
  751MOL0     C 1279   5.159   4.154   7.536  0.0784  0.1050  0.5458
  751MOL0     C 1280   5.273   4.140   7.450 -0.9805  0.2714  1.2265
  751MOL0     O 1281   5.355   4.027   7.473 -0.1420 -0.5333  0.9578
  751MOL0     C 1282   5.469   4.004   7.409 -1.0048 -0.1933 -0.8436
  751MOL0     C 1283   5.461   4.001   7.272 -0.3271 -0.4003 -0.3360
  751MOL0     C 1284   5.579   3.989   7.201  1.0415 -0.2350  0.0983
  751MOL0     C 1285   5.705   3.985   7.266  0.5374  0.6380 -0.1089
  751MOL0     O 1286   5.821   3.958   7.195 -0.2068 -0.1362 -0.4417
  751MOL0     C 1287   5.856   3.818   7.181 -0.8654  0.4481  0.0464
  751MOL0     C 1288   5.916   3.783   7.048  1.0323 -0.1292  0.1794
  751MOL0     C 1289   5.835   3.836   6.930 -0.8011  0.3218 -0.0346
  751MOL0     C 1290   5.905   3.832   6.793  0.9395 -1.0242 -1.1277
  751MOL0     C 1291   5.840   3.920   6.686 -0.5071 -0.8925 -0.4831
  751MOL0     C 1292   5.691   3.911   6.675 -0.0144  0.8089 -0.2416
  751MOL0     C 1293   5.634   3.780   6.612  0.1256  0.0030  0.3277
  751MOL0     C 1294   5.692   3.740   6.481  1.1154 -0.9371  0.9961
  751MOL0    Cl 1295   5.610   3.590   6.421 -0.3914 -0.0704 -0.2568
  751MOL0     C 1296   5.714   3.993   7.402 -0.8116  0.5502  0.4237
  751MOL0     C 1297   5.593   3.999   7.475 -0.5027 -0.6294  0.4420
  751MOL0     O 1298   5.306   4.226   7.371 -0.0095 -0.0231  0.0668
  751MOL0     C 1299   5.110   4.043   7.603  0.6288  0.3911 -0.2834
  751MOL0     C 1300   5.003   4.049   7.696 -0.0022 -0.2739 -0.8619
  751MOL0     N 1301   4.275   3.828   7.609  0.0325  0.1325 -0.7084
  751MOL0     N 1302   4.255   3.744   7.513  0.4535  0.2462 -0.1805
  751MOL0     C 1303   4.509   2.700   7.754  0.3456 -0.3689  0.0990
  751MOL0     C 1304   4.469   2.575   7.714 -0.3937 -0.2063  0.4334
  751MOL0     C 1305   4.162   2.243   7.639 -0.2369 -0.2089  0.0257
  751MOL0     C 1306   4.052   2.224   7.553  0.7985 -0.1140 -0.5728
  751MOL0     C 1307   3.994   2.098   7.552 -0.4030  0.0308  0.7560
  751MOL0     C 1308   4.030   1.991   7.626 -0.1673 -0.1354  0.2176
  751MOL0     O 1309   3.963   1.875   7.596 -0.0325 -0.2560 -0.6810
  751MOL0     C 1310   4.046   1.758   7.613  0.4435 -0.0536 -0.8163
  751MOL0     C 1311   3.991   1.646   7.517  0.3478 -0.1371  0.0699
  751MOL0     C 1312   3.919   1.695   7.388  0.6056  0.1362  0.5765
  751MOL0     C 1313   3.836   1.584   7.323  0.3085 -0.3750  0.4543
  751MOL0     C 1314   3.827   1.594   7.183 -0.2923  0.3102 -0.6733
  751MOL0     C 1315   3.793   1.616   7.069 -0.3345  0.0724  0.0993
  751MOL0     C 1316   4.138   2.010   7.711  0.2544  0.4506  0.5388
  751MOL0     C 1317   4.204   2.136   7.714 -0.1793  0.6871 -0.0761
  751MOL0     H 1318   4.196   2.525   7.911  1.8279 -3.9334 -1.2327
  751MOL0     H 1319   4.279   2.739   8.010 -2.5948  2.2926 -1.7477
  751MOL0     H 1320   4.595   3.040   7.945 -0.4502  1.3658  0.6322
  751MOL0     H 1321   4.638   2.942   7.806 -0.0705 -0.3210  1.3245
  751MOL0     H 1322   4.412   3.142   7.870  2.3273  0.8514  1.4773
  751MOL0     H 1323   4.549   3.182   7.784 -0.2538 -0.5451 -3.1055
  751MOL0     H 1324   4.473   3.005   7.594 -0.3335 -0.5724  0.8375
  751MOL0     H 1325   4.317   3.034   7.665 -1.0680  1.2604 -1.5977
  751MOL0     H 1326   4.334   3.269   7.640 -1.2935 -4.4098  1.4936
  751MOL0     H 1327   4.509   3.258   7.585  0.7500 -0.5888 -1.6557
  751MOL0     H 1328   4.418   3.157   7.370 -0.8422  1.0946 -1.5074
  751MOL0     H 1329   4.261   3.154   7.442  1.2230 -2.3911 -1.4574
  751MOL0     H 1330   4.301   3.351   7.295 -2.0307  2.5995  1.0260
  751MOL0     H 1331   4.244   3.402   7.450  2.8009  1.4049  3.0768
  751MOL0     H 1332   4.489   3.458   7.514 -0.5358  3.9653 -0.5236
  751MOL0     H 1333   4.524   3.420   7.346 -0.4826 -0.7401  0.1730
  751MOL0     H 1334   4.338   3.594   7.290  0.6927 -1.4586 -0.1233
  751MOL0     H 1335   4.508   3.633   7.318  0.6265  1.8165  1.6395
  751MOL0     H 1336   4.584   3.717   7.573  0.2818  0.3288  0.3683
  751MOL0     H 1337   4.399   3.929   7.843  1.3492  1.9615  0.1170
  751MOL0     H 1338   4.551   3.851   7.805 -1.8125 -1.4749  1.3540
  751MOL0     H 1339   4.417   4.101   7.707  1.4635  0.8028  0.4910
  751MOL0     H 1340   4.572   4.070   7.646 -0.4256  2.1808  0.2273
  751MOL0     H 1341   4.551   4.046   7.948  0.6669 -2.4802 -0.7068
  751MOL0     H 1342   4.568   4.208   7.873  0.5302  0.8740 -0.8705
  751MOL0     H 1343   4.775   3.986   7.816  2.6997  1.3893 -2.1534
  751MOL0     H 1344   4.786   4.115   7.943  0.6076  2.3764 -0.6114
  751MOL0     H 1345   4.901   4.358   7.634  1.8130  0.9498  1.4676
  751MOL0     H 1346   5.133   4.389   7.361 -0.9106  1.8112 -0.5230
  751MOL0     H 1347   5.045   4.481   7.481  0.2866 -0.2919  1.1434
  751MOL0     H 1348   5.211   4.419   7.518  1.3996 -1.3632 -1.6439
  751MOL0     H 1349   5.371   4.009   7.212  0.5789  1.6951 -1.5307
  751MOL0     H 1350   5.574   3.986   7.093  1.8218 -0.9461  0.0686
  751MOL0     H 1351   5.928   3.793   7.260 -0.1099 -2.5357 -1.4533
  751MOL0     H 1352   5.778   3.743   7.194  0.4710 -1.0909 -0.4702
  751MOL0     H 1353   6.011   3.836   7.047  2.2583 -2.1490 -2.4436
  751MOL0     H 1354   5.935   3.676   7.033 -2.2331 -0.6783 -1.0321
  751MOL0     H 1355   5.795   3.935   6.955 -1.7118  0.8566 -3.1639
  751MOL0     H 1356   5.753   3.764   6.922  0.6169 -1.2613 -0.8122
  751MOL0     H 1357   6.009   3.866   6.802  0.4772 -0.0699  1.5156
  751MOL0     H 1358   5.913   3.725   6.769  1.9696 -1.9663  2.7007
  751MOL0     H 1359   5.895   3.898   6.594 -1.6746  1.1279 -1.7458
  751MOL0     H 1360   5.860   4.025   6.712 -1.5297 -1.0161  0.9192
  751MOL0     H 1361   5.658   3.933   6.777 -0.4699 -0.7654 -0.0198
  751MOL0     H 1362   5.658   3.995   6.613  0.3947  0.4488 -0.9654
  751MOL0     H 1363   5.525   3.790   6.612  0.1381  0.2049  1.0382
  751MOL0     H 1364   5.661   3.701   6.683 -1.5309 -3.4309 -2.5514
  751MOL0     H 1365   5.798   3.720   6.499  1.3058 -0.1539  0.7852
  751MOL0     H 1366   5.690   3.828   6.417  1.7537 -1.2661  0.5159
  751MOL0     H 1367   5.813   3.992   7.448 -1.2124 -1.1986  1.3371
  751MOL0     H 1368   5.590   4.010   7.582 -0.9257 -1.6858  0.5586
  751MOL0     H 1369   5.153   3.944   7.595 -0.9660 -0.3845  0.3424
  751MOL0     H 1370   4.976   3.976   7.772  0.9537  1.5137  1.2887
  751MOL0     H 1371   4.594   2.739   7.699 -0.9369  2.5841  0.0280
  751MOL0     H 1372   4.519   2.521   7.635 -1.0727  0.0988 -0.2151
  751MOL0     H 1373   4.002   2.301   7.495  2.2519  0.8353 -0.6151
  751MOL0     H 1374   3.901   2.091   7.496  1.4816  3.2128 -3.1944
  751MOL0     H 1375   4.150   1.781   7.586 -0.0455 -0.3381 -3.1586
  751MOL0     H 1376   4.043   1.712   7.712 -1.3630  1.0853 -0.2863
  751MOL0     H 1377   3.929   1.583   7.581  2.5291  0.8288  3.3931
  751MOL0     H 1378   4.073   1.582   7.485  1.2322  0.7508  0.5254
  751MOL0     H 1379   3.991   1.727   7.313  0.3568  3.1104  1.4995
  751MOL0     H 1380   3.849   1.778   7.401 -0.3213 -0.1379 -2.1210
  751MOL0     H 1381   3.737   1.591   7.369  0.8983 -0.6215  1.8211
  751MOL0     H 1382   3.877   1.494   7.369  2.3558 -0.2653 -1.0110
  751MOL0     H 1383   3.766   1.632   6.967 -0.5728  0.5413  0.2356
  751MOL0     H 1384   4.185   1.936   7.774  1.2037  0.4655 -0.1438
  751MOL0     H 1385   4.289   2.140   7.781 -0.7097  2.1388  0.5639
  752MOL0     O 1386   1.004   4.579   3.359 -0.2945  0.5513  0.1842
  752MOL0     C 1387   1.031   4.692   3.391 -0.9153 -0.9752  0.0305
  752MOL0     O 1388   1.041   4.805   3.309  0.0302 -0.0607  0.7156
  752MOL0     C 1389   1.053   4.800   3.177 -0.7910 -0.1600 -0.1041
  752MOL0     C 1390   1.047   4.683   3.090 -0.2094 -0.7115  0.5366
  752MOL0     C 1391   1.067   4.704   2.949 -0.1405  0.8580 -0.4505
  752MOL0     C 1392   1.106   4.827   2.883 -0.0731  0.1797  0.4806
  752MOL0     O 1393   1.136   4.850   2.746  0.7051 -0.1824 -0.0928
  752MOL0     C 1394   1.173   4.735   2.666  0.2616  0.2160 -0.1095
  752MOL0     C 1395   1.053   4.692   2.593 -0.6158 -0.1774  0.8793
  752MOL0     C 1396   0.989   4.792   2.492 -0.4802  0.1435 -0.1079
  752MOL0     C 1397   1.075   4.800   2.363  0.3750 -0.1129 -0.1516
  752MOL0     C 1398   1.031   4.901   2.264 -0.7063 -0.0205  0.9860
  752MOL0     C 1399   0.921   4.849   2.167 -0.1430 -0.0751  0.0363
  752MOL0     C 1400   0.784   4.832   2.233 -0.0801 -0.2205 -0.3417
  752MOL0     C 1401   0.672   4.898   2.147  0.1087 -0.2005 -0.4568
  752MOL0     N 1402   0.682   5.043   2.158  0.3111  1.0895  0.2286
  752MOL0     C 1403   0.760   5.126   2.080 -0.4914  0.6811 -0.1305
  752MOL0     C 1404   0.768   5.247   2.147 -0.0104 -0.4700 -0.5231
  752MOL0     C 1405   0.854   5.361   2.102 -0.0614 -0.1407  0.2742
  752MOL0     C 1406   0.822   5.498   2.185 -0.1996 -0.0182  0.6008
  752MOL0     C 1407   0.884   5.496   2.319  0.9524  0.1101  0.6934
  752MOL0     C 1408   1.030   5.470   2.332  0.1192 -0.6126 -0.5894
  752MOL0     O 1409   1.114   5.553   2.248  0.4307 -0.4739  0.1558
  752MOL0     C 1410   1.150   5.680   2.267 -0.6587  0.3849 -0.0070
  752MOL0     C 1411   1.237   5.727   2.365  0.4752  0.0823  0.3389
  752MOL0     C 1412   1.280   5.857   2.359 -0.1208  0.4077 -0.2797
  752MOL0     C 1413   1.401   5.889   2.447  0.4285 -0.8086 -0.0579
  752MOL0     C 1414   1.228   5.949   2.271  0.2414 -0.9395  0.3205
  752MOL0     C 1415   1.261   6.095   2.270  0.3251 -0.3836 -0.6988
  752MOL0     O 1416   1.153   6.177   2.243  0.3012 -0.3706  0.2439
  752MOL0     C 1417   1.168   6.317   2.248  0.2628 -1.3330  0.3523
  752MOL0     C 1418   1.075   6.397   2.321 -0.8159  1.6122  0.0257
  752MOL0     C 1419   1.085   6.535   2.329  0.3089 -0.5995 -1.4051
  752MOL0     C 1420   1.187   6.605   2.270  0.2212  0.5274  0.2894
  752MOL0     O 1421   1.209   6.740   2.269  0.1624  0.6929 -0.1743
  752MOL0     C 1422   1.093   6.828   2.257 -0.0950 -0.4274  1.0142
  752MOL0     C 1423   1.136   6.974   2.265 -0.2814 -0.5717  0.1007
  752MOL0     C 1424   1.020   7.073   2.266  0.0259  0.0083 -0.2990
  752MOL0     C 1425   0.944   7.072   2.128  0.6199  0.4338 -0.5672
  752MOL0     C 1426   0.846   7.186   2.118 -0.1943  0.0955  0.6493
  752MOL0     C 1427   0.758   7.180   2.003  0.7537  0.2901 -0.1119
  752MOL0     C 1428   0.668   7.297   1.991 -0.1570  1.2005 -0.5277
  752MOL0     C 1429   0.636   7.315   1.844  0.5314 -0.1733 -0.0850
  752MOL0    Cl 1430   0.523   7.446   1.837 -0.0520  0.0383  0.4998
  752MOL0     C 1431   1.294   6.525   2.209  1.0307 -0.1080  1.2045
  752MOL0     C 1432   1.272   6.387   2.184  0.6573  0.7780  0.6505
  752MOL0     O 1433   1.375   6.138   2.291 -0.5906 -0.2091  0.3218
  752MOL0     C 1434   1.134   5.904   2.181  0.0754  0.0615 -0.1832
  752MOL0     C 1435   1.097   5.766   2.168  0.3375 -0.4218  0.5405
  752MOL0     N 1436   0.694   5.241   2.260 -0.0701  0.0619  0.2665
  752MOL0     N 1437   0.651   5.117   2.268  0.6801 -0.5327 -0.5602
  752MOL0     C 1438   1.113   4.939   2.973  0.2050  0.3107 -1.3218
  752MOL0     C 1439   1.094   4.921   3.122  0.8009 -0.7209  0.9109
  752MOL0     C 1440   1.016   4.721   3.536 -0.7868  0.6766 -0.6946
  752MOL0     C 1441   1.027   4.847   3.595 -0.1400  1.0735  0.2103
  752MOL0     C 1442   0.992   4.861   3.732  0.7538 -0.9812  0.0471
  752MOL0     C 1443   0.979   4.751   3.820  0.2628 -0.0722 -0.1028
  752MOL0     O 1444   0.933   4.770   3.944  0.8861 -0.3209 -1.0174
  752MOL0     C 1445   1.029   4.771   4.052  0.4482 -0.4658 -0.0820
  752MOL0     C 1446   1.095   4.908   4.046 -1.2661 -0.2436  0.9680
  752MOL0     C 1447   0.999   5.009   4.104 -0.6845 -0.2947  0.4602
  752MOL0     C 1448   1.074   5.143   4.148 -0.5502  1.0817 -1.3386
  752MOL0     C 1449   0.961   5.223   4.202 -0.0474 -0.1627 -0.3426
  752MOL0     C 1450   0.853   5.290   4.221 -0.6350  0.0410 -0.1219
  752MOL0     C 1451   0.974   4.623   3.764 -0.8216  0.4015  0.1122
  752MOL0     C 1452   0.993   4.609   3.622  0.9315  0.0304  1.1200
  752MOL0     H 1453   1.022   4.580   3.116 -1.8189 -0.6190 -0.5100
  752MOL0     H 1454   1.078   4.619   2.883 -3.8430 -1.2067  1.2438
  752MOL0     H 1455   1.250   4.752   2.590  1.3240 -1.2627  0.5798
  752MOL0     H 1456   1.211   4.653   2.728 -2.6944  0.0168  1.6231
  752MOL0     H 1457   1.075   4.602   2.535  0.7893 -0.0657  1.2015
  752MOL0     H 1458   0.990   4.663   2.677  0.5582 -3.7270  0.6978
  752MOL0     H 1459   0.891   4.758   2.457  1.2291 -1.6502 -3.6406
  752MOL0     H 1460   0.988   4.895   2.531 -0.5705  0.2067 -0.2745
  752MOL0     H 1461   1.175   4.835   2.392  0.5621 -1.1112  0.4405
  752MOL0     H 1462   1.090   4.703   2.314  1.3345 -0.2747  0.4328
  752MOL0     H 1463   0.995   4.988   2.320 -0.2112 -0.2302  1.6345
  752MOL0     H 1464   1.115   4.944   2.208 -2.8038  2.9508 -0.1685
  752MOL0     H 1465   0.918   4.918   2.082 -3.3150 -1.8656 -1.4737
  752MOL0     H 1466   0.960   4.758   2.122  2.7109  1.1084 -0.0762
  752MOL0     H 1467   0.749   4.729   2.248 -3.1408  0.9062  1.2038
  752MOL0     H 1468   0.787   4.877   2.332 -3.2636  0.2599 -0.3569
  752MOL0     H 1469   0.585   4.868   2.205 -0.6347  3.5125  0.5888
  752MOL0     H 1470   0.676   4.855   2.046  2.2626 -0.7498 -0.1998
  752MOL0     H 1471   0.820   5.088   1.998  2.5902  1.4363  1.5980
  752MOL0     H 1472   0.957   5.324   2.101 -0.5396 -1.5926  1.3841
  752MOL0     H 1473   0.827   5.386   1.999 -1.0511 -1.5727  0.1507
  752MOL0     H 1474   0.714   5.504   2.202 -0.3729 -2.8697  1.0345
  752MOL0     H 1475   0.848   5.583   2.122  1.1536 -2.4509 -2.3493
  752MOL0     H 1476   0.830   5.423   2.380  3.0970 -0.8327  1.5838
  752MOL0     H 1477   0.866   5.592   2.368 -1.6071 -0.4297  0.9442
  752MOL0     H 1478   1.045   5.370   2.292  0.5912 -0.0684 -1.8137
  752MOL0     H 1479   1.045   5.479   2.440  0.9982 -2.5956 -0.5037
  752MOL0     H 1480   1.277   5.655   2.436 -1.1995  0.0989  1.3560
  752MOL0     H 1481   1.481   5.939   2.392 -0.5513  0.3809 -0.4289
  752MOL0     H 1482   1.367   5.967   2.515  2.3631  0.1617 -0.1348
  752MOL0     H 1483   1.448   5.804   2.498  0.2725  0.3409  2.1295
  752MOL0     H 1484   1.003   6.333   2.370 -0.5398  2.0810  1.0826
  752MOL0     H 1485   1.023   6.592   2.397  1.1173 -2.7642  1.3124
  752MOL0     H 1486   1.050   6.798   2.161 -0.4646  1.0632  0.6878
  752MOL0     H 1487   1.007   6.798   2.317 -1.4799 -3.2752 -2.0677
  752MOL0     H 1488   1.194   6.991   2.357 -0.0425 -3.1566  0.4868
  752MOL0     H 1489   1.210   7.006   2.191  0.0181 -1.7073 -0.1145
  752MOL0     H 1490   1.054   7.174   2.291 -2.3043  1.5688 -2.8722
  752MOL0     H 1491   0.937   7.038   2.328  0.4210 -1.4202 -0.5328
  752MOL0     H 1492   1.011   7.078   2.042 -0.4080  2.1175 -1.3170
  752MOL0     H 1493   0.882   6.983   2.113 -0.0001  1.0565 -1.8656
  752MOL0     H 1494   0.905   7.278   2.111  1.8853 -1.1603  0.6958
  752MOL0     H 1495   0.787   7.197   2.209 -0.8439  7.5306 -0.0042
  752MOL0     H 1496   0.822   7.175   1.915 -1.0844  0.3376 -1.5169
  752MOL0     H 1497   0.699   7.088   1.996 -0.6742  1.1253  0.3025
  752MOL0     H 1498   0.723   7.375   2.045  1.1062 -1.6273  2.6638
  752MOL0     H 1499   0.582   7.263   2.050 -0.0951 -1.6554 -1.9056
  752MOL0     H 1500   0.579   7.226   1.817 -2.0456  1.3438  0.0880
  752MOL0     H 1501   0.725   7.325   1.780  0.9229 -0.4391  0.4072
  752MOL0     H 1502   1.383   6.585   2.191  0.8488  0.3359  1.7340
  752MOL0     H 1503   1.356   6.332   2.142  0.5012  0.0927  1.2285
  752MOL0     H 1504   1.087   5.968   2.108  0.5657  1.3818  0.6272
  752MOL0     H 1505   1.036   5.737   2.084 -1.4717  3.2811  0.3653
  752MOL0     H 1506   1.122   5.036   2.926 -3.6047  0.9361 -1.0784
  752MOL0     H 1507   1.091   5.002   3.194 -0.6449 -1.4582  1.6988
  752MOL0     H 1508   1.044   4.932   3.529  0.6704  1.7388  1.2494
  752MOL0     H 1509   0.983   4.965   3.763  1.9166 -1.2019  1.1997
  752MOL0     H 1510   0.993   4.761   4.155  1.0686  3.3142  0.6665
  752MOL0     H 1511   1.107   4.697   4.033  1.8079  1.1413 -1.1729
  752MOL0     H 1512   1.109   4.944   3.944 -0.4388 -0.1427  1.1046
  752MOL0     H 1513   1.194   4.906   4.093 -0.0977 -1.8545 -1.3659
  752MOL0     H 1514   0.951   4.966   4.193  1.3103 -0.3197  1.6011
  752MOL0     H 1515   0.923   5.030   4.028 -0.8980  0.3089  0.8306
  752MOL0     H 1516   1.119   5.195   4.063  0.9678  2.9647  0.5281
  752MOL0     H 1517   1.142   5.119   4.229 -0.7337 -0.4170 -1.5901
  752MOL0     H 1518   0.763   5.343   4.243 -0.2368 -0.0324  1.8860
  752MOL0     H 1519   0.964   4.538   3.832 -1.0291  0.7434  0.5123
  752MOL0     H 1520   0.987   4.514   3.570  2.3212  0.4692  0.0749
  753MOL0     O 1521   6.652   9.417   5.938  0.9073 -0.2171  0.2084
  753MOL0     C 1522   6.734   9.413   5.849 -0.2905 -0.8159  0.8368
  753MOL0     O 1523   6.814   9.317   5.824 -0.2350 -0.3066  0.0040
  753MOL0     C 1524   6.815   9.208   5.908 -0.1368  0.4733 -0.4399
  753MOL0     C 1525   6.720   9.103   5.894  0.5640 -1.0524  0.8826
  753MOL0     C 1526   6.717   9.001   5.984  0.5441  0.5108 -0.2771
  753MOL0     C 1527   6.810   8.989   6.080  0.0564 -0.1223 -0.2521
  753MOL0     O 1528   6.798   8.886   6.169  0.4418 -0.0365 -0.3919
  753MOL0     C 1529   6.921   8.813   6.202 -0.9978  0.5635  1.3041
  753MOL0     C 1530   6.907   8.689   6.282  0.4127  1.1738  0.4284
  753MOL0     C 1531   6.839   8.711   6.414 -0.9102 -0.5842  0.4067
  753MOL0     C 1532   6.841   8.590   6.507 -0.2494  0.5190 -0.2046
  753MOL0     C 1533   6.741   8.476   6.489  0.5310 -0.3519 -0.5253
  753MOL0     C 1534   6.727   8.395   6.624  0.8594  0.7698  0.2087
  753MOL0     C 1535   6.647   8.258   6.626 -0.5550 -0.3964  0.0901
  753MOL0     C 1536   6.616   8.208   6.770  0.7639  0.9646 -0.6513
  753MOL0     N 1537   6.721   8.220   6.865  0.2051  0.1878 -0.5509
  753MOL0     C 1538   6.733   8.325   6.950 -0.0665 -0.4192  0.2478
  753MOL0     C 1539   6.852   8.321   7.009 -1.1293  0.2715  0.4730
  753MOL0     C 1540   6.916   8.414   7.115 -0.5606 -0.1812  0.6674
  753MOL0     C 1541   6.953   8.547   7.050 -1.1195  1.2672  0.3433
  753MOL0     C 1542   6.964   8.659   7.148  0.4682 -0.5434 -0.7356
  753MOL0     C 1543   7.062   8.643   7.266  0.4811  0.7205  0.3922
  753MOL0     O 1544   7.006   8.736   7.365 -0.1305 -0.7752 -0.5179
  753MOL0     C 1545   7.089   8.845   7.398  0.3740  0.2867 -0.9259
  753MOL0     C 1546   7.106   8.856   7.540 -0.3075  0.0099 -0.4927
  753MOL0     C 1547   7.198   8.951   7.601 -0.0433 -0.0174  0.4080
  753MOL0     C 1548   7.226   8.918   7.744 -0.8055 -0.0589 -0.3235
  753MOL0     C 1549   7.262   9.042   7.518  0.7231  0.7579 -0.3877
  753MOL0     C 1550   7.336   9.158   7.570  0.5349  0.8977  0.7684
  753MOL0     O 1551   7.281   9.219   7.678 -0.3671 -0.7292  0.6084
  753MOL0     C 1552   7.363   9.295   7.762  0.2412  0.0783  0.5726
  753MOL0     C 1553   7.444   9.232   7.858  0.5515 -0.6868  0.5931
  753MOL0     C 1554   7.498   9.312   7.957  1.0103  0.3283  0.2981
  753MOL0     C 1555   7.488   9.451   7.957  0.0579  0.1898  0.6133
  753MOL0     O 1556   7.551   9.509   8.064 -0.1324  0.5952  0.5433
  753MOL0     C 1557   7.589   9.646   8.048  1.2992  0.5954 -0.3121
  753MOL0     C 1558   7.684   9.665   8.161 -0.0246  0.8628  1.0378
  753MOL0     C 1559   7.613   9.674   8.289  0.6394  0.2731 -0.2946
  753MOL0     C 1560   7.682   9.750   8.403  0.1781 -0.2423  0.8173
  753MOL0     C 1561   7.610   9.775   8.524  0.8547 -1.4071  0.2483
  753MOL0     C 1562   7.560   9.651   8.583 -1.0209  1.1601 -0.6859
  753MOL0     C 1563   7.495   9.683   8.715  0.5038  0.8021 -0.9092
  753MOL0     C 1564   7.438   9.563   8.790  0.9581  0.6203 -0.5555
  753MOL0    Cl 1565   7.404   9.610   8.955  0.2108 -0.7399 -0.4488
  753MOL0     C 1566   7.416   9.519   7.855 -1.0139  0.2020  0.5527
  753MOL0     C 1567   7.363   9.437   7.754 -0.3068  0.0541  0.3240
  753MOL0     O 1568   7.432   9.199   7.508 -0.1273  0.6602 -0.3990
  753MOL0     C 1569   7.223   9.031   7.381  0.5654  0.1136  1.3398
  753MOL0     C 1570   7.152   8.932   7.313  0.3231 -0.9311 -0.2080
  753MOL0     N 1571   6.914   8.208   6.957  0.6124 -0.2965  0.0990
  753MOL0     N 1572   6.842   8.164   6.857  0.2227  0.3245 -0.8930
  753MOL0     C 1573   6.914   9.086   6.080  0.2295  0.3319 -0.2881
  753MOL0     C 1574   6.925   9.193   5.995  0.2426 -0.0483  1.0367
  753MOL0     C 1575   6.735   9.522   5.745  0.7188 -0.3760 -0.4254
  753MOL0     C 1576   6.674   9.646   5.776  0.0878  0.6521 -1.7178
  753MOL0     C 1577   6.687   9.753   5.693 -0.2347  1.1057  0.2730
  753MOL0     C 1578   6.743   9.744   5.566 -0.4039 -0.4652  0.8144
  753MOL0     O 1579   6.731   9.862   5.493  0.0300  0.2348  0.1376
  753MOL0     C 1580   6.838   9.873   5.398  0.1967 -1.2755  0.3411
  753MOL0     C 1581   6.824  10.024   5.370  0.3325 -0.1997 -0.8237
  753MOL0     C 1582   6.706  10.069   5.287  0.3183 -0.7406 -0.6114
  753MOL0     C 1583   6.716  10.221   5.273  0.7793  0.5406  0.4670
  753MOL0     C 1584   6.818  10.254   5.174 -0.8262  0.8865  0.3322
  753MOL0     C 1585   6.894  10.281   5.088  0.2921  0.9997 -0.7264
  753MOL0     C 1586   6.792   9.618   5.522  0.4269  0.2880  0.5544
  753MOL0     C 1587   6.795   9.514   5.616  0.4949  0.1623  1.1454
  753MOL0     H 1588   6.638   9.106   5.824  0.7011  0.9943  0.7457
  753MOL0     H 1589   6.638   8.929   5.967  1.1448 -0.7770  1.9287
  753MOL0     H 1590   6.961   8.778   6.106 -0.3303  4.8688 -0.1865
  753MOL0     H 1591   6.995   8.880   6.248 -1.0654  1.6677 -0.1151
  753MOL0     H 1592   6.852   8.613   6.226  0.7529 -1.7585  3.7310
  753MOL0     H 1593   7.005   8.649   6.312 -0.2636  1.4149  3.2314
  753MOL0     H 1594   6.876   8.797   6.470 -1.4869 -0.6327  0.8599
  753MOL0     H 1595   6.738   8.750   6.398 -0.9625  0.4849  2.8764
  753MOL0     H 1596   6.942   8.547   6.500 -0.1864 -0.6295  4.3966
  753MOL0     H 1597   6.835   8.627   6.610  3.8313 -1.5213  1.0027
  753MOL0     H 1598   6.642   8.513   6.464  0.6491  0.0519 -0.4033
  753MOL0     H 1599   6.772   8.409   6.408 -0.2279 -0.3011 -0.8656
  753MOL0     H 1600   6.828   8.375   6.660  0.4517 -1.4947  0.2315
  753MOL0     H 1601   6.681   8.454   6.704 -1.3243 -1.2401  0.5513
  753MOL0     H 1602   6.556   8.266   6.565 -0.3488 -1.9975 -0.4667
  753MOL0     H 1603   6.714   8.186   6.579  1.9867  1.1743  1.0753
  753MOL0     H 1604   6.594   8.101   6.771  0.7070  0.9018  2.8196
  753MOL0     H 1605   6.520   8.244   6.807  0.0022 -2.8704  1.6326
  753MOL0     H 1606   6.660   8.404   6.967  0.3194  0.7481 -2.8130
  753MOL0     H 1607   6.850   8.421   7.202 -0.7313 -1.1454  0.6234
  753MOL0     H 1608   7.019   8.390   7.144  0.4428  2.4922 -0.2609
  753MOL0     H 1609   6.867   8.565   6.985  0.0439 -1.9562 -2.3655
  753MOL0     H 1610   7.039   8.535   6.984 -2.8849 -3.7124 -1.5021
  753MOL0     H 1611   6.869   8.685   7.197  1.7423  2.2675  0.4788
  753MOL0     H 1612   6.996   8.749   7.094 -0.1819  0.6006  0.6985
  753MOL0     H 1613   7.162   8.679   7.239  0.3126  1.7041  1.0351
  753MOL0     H 1614   7.085   8.541   7.300  4.6197  1.0328 -0.8343
  753MOL0     H 1615   7.068   8.779   7.607  2.0464 -1.4166 -0.6837
  753MOL0     H 1616   7.151   8.954   7.816 -0.2381 -0.3605  0.4358
  753MOL0     H 1617   7.231   8.809   7.753  2.3988  0.0953  0.9157
  753MOL0     H 1618   7.324   8.953   7.776 -1.8515  5.0051 -1.7590
  753MOL0     H 1619   7.432   9.126   7.875 -3.1962 -0.4045  0.4451
  753MOL0     H 1620   7.547   9.271   8.045  0.1036 -2.1127 -0.2461
  753MOL0     H 1621   7.635   9.656   7.949 -0.9362  1.0484 -1.3493
  753MOL0     H 1622   7.501   9.708   8.065  2.2845  1.0156  4.9122
  753MOL0     H 1623   7.762   9.588   8.165 -0.4092  0.4590  0.8332
  753MOL0     H 1624   7.729   9.763   8.142  0.8229  0.4039  0.6187
  753MOL0     H 1625   7.593   9.571   8.320 -1.7674  0.3322 -1.4106
  753MOL0     H 1626   7.511   9.709   8.272  1.1500  0.0425 -5.3195
  753MOL0     H 1627   7.784   9.714   8.421  0.6935 -1.1254 -3.0677
  753MOL0     H 1628   7.699   9.848   8.356  1.0895  0.1109  1.8403
  753MOL0     H 1629   7.523   9.837   8.499  1.5189 -0.9719 -1.0597
  753MOL0     H 1630   7.667   9.834   8.596  0.8137 -2.0766  0.8377
  753MOL0     H 1631   7.489   9.601   8.517 -0.9056  0.5151 -0.3352
  753MOL0     H 1632   7.642   9.584   8.613  0.5733  3.2235 -0.1940
  753MOL0     H 1633   7.408   9.747   8.697 -0.5363 -0.5681 -0.9144
  753MOL0     H 1634   7.563   9.727   8.789 -1.6996  0.7500  1.2582
  753MOL0     H 1635   7.510   9.480   8.791  1.6079  0.7509  5.5512
  753MOL0     H 1636   7.345   9.529   8.745  2.5786  1.0568 -4.6860
  753MOL0     H 1637   7.400   9.627   7.855 -2.7228  0.0113  2.1420
  753MOL0     H 1638   7.313   9.485   7.670  0.6033 -1.5734 -1.2101
  753MOL0     H 1639   7.259   9.116   7.323 -2.4510 -0.0058 -0.9753
  753MOL0     H 1640   7.150   8.927   7.205  1.1074 -0.6440 -0.2391
  753MOL0     H 1641   6.997   9.091   6.151 -1.2960 -0.6240  1.6652
  753MOL0     H 1642   7.010   9.259   5.988  0.5303 -0.1753  3.0245
  753MOL0     H 1643   6.619   9.660   5.868 -1.2474 -2.4669 -1.9301
  753MOL0     H 1644   6.643   9.851   5.709 -1.4124  0.4640  1.1176
  753MOL0     H 1645   6.936   9.859   5.443  2.1568  1.6852 -2.5784
  753MOL0     H 1646   6.836   9.816   5.305  0.8001 -1.2249  0.2942
  753MOL0     H 1647   6.916  10.048   5.316  0.0132 -0.3965 -1.4684
  753MOL0     H 1648   6.828  10.080   5.464 -1.4868 -1.5913  0.1471
  753MOL0     H 1649   6.618  10.038   5.344  0.1379  0.1997 -0.3530
  753MOL0     H 1650   6.706  10.017   5.191  0.0727 -1.9996  0.0616
  753MOL0     H 1651   6.733  10.260   5.374  0.8392 -2.0432  1.5277
  753MOL0     H 1652   6.627  10.273   5.239  0.8382  1.1500  1.2250
  753MOL0     H 1653   6.942  10.302   4.995 -2.8424  1.5415 -2.3471
  753MOL0     H 1654   6.838   9.604   5.425 -0.1580  0.2531  0.2793
  753MOL0     H 1655   6.854   9.427   5.589 -2.5119 -2.7070  3.0349
  754MOL0     O 1656   0.303   8.263   3.091  0.3682  0.1080 -0.2271
  754MOL0     C 1657   0.238   8.363   3.090 -0.5454 -0.8826  0.6612
  754MOL0     O 1658   0.170   8.422   3.199 -0.5294  0.1442 -0.4869
  754MOL0     C 1659   0.184   8.389   3.329  0.3564 -0.2624  0.4956
  754MOL0     C 1660   0.153   8.506   3.409  0.3883  0.3255 -0.0807
  754MOL0     C 1661   0.154   8.487   3.539  0.5069 -0.3971  0.1619
  754MOL0     C 1662   0.191   8.369   3.609 -0.8050 -0.2304  1.1577
  754MOL0     O 1663   0.190   8.374   3.746  0.4555  0.1934  0.2326
  754MOL0     C 1664   0.100   8.280   3.803  0.6202  1.2313  0.2261
  754MOL0     C 1665   0.141   8.271   3.952  0.6963 -0.4864 -0.8829
  754MOL0     C 1666   0.283   8.221   3.965 -0.1076  0.6391 -0.6645
  754MOL0     C 1667   0.325   8.170   4.108  0.1470  0.3555 -0.2506
  754MOL0     C 1668   0.284   8.018   4.128 -0.1519 -0.9968 -1.8308
  754MOL0     C 1669   0.294   7.984   4.282 -1.2416 -0.2152 -0.5278
  754MOL0     C 1670   0.225   7.856   4.316 -0.4795  0.9567 -0.5403
  754MOL0     C 1671   0.267   7.783   4.446  0.5927  0.6925  0.5774
  754MOL0     N 1672   0.395   7.717   4.423 -0.6472  0.3643  0.1100
  754MOL0     C 1673   0.504   7.730   4.502  0.5653  0.4541 -0.3055
  754MOL0     C 1674   0.594   7.645   4.441 -0.8057  0.3710  0.6669
  754MOL0     C 1675   0.723   7.605   4.502  0.3919  0.4125 -0.2283
  754MOL0     C 1676   0.825   7.721   4.505  0.2808 -0.1003 -0.2531
  754MOL0     C 1677   0.841   7.791   4.371 -0.0566  0.3374  0.5705
  754MOL0     C 1678   0.924   7.914   4.387  0.2299  0.2888 -0.1704
  754MOL0     O 1679   0.864   8.014   4.473  0.4253 -0.8132 -0.3981
  754MOL0     C 1680   0.966   8.079   4.546 -0.5589 -0.3823  0.3116
  754MOL0     C 1681   1.051   8.162   4.476  0.1876 -0.8974  0.0879
  754MOL0     C 1682   1.156   8.227   4.542  0.8083  0.2112  0.3184
  754MOL0     C 1683   1.221   8.335   4.456  0.0657 -0.1932 -0.7403
  754MOL0     C 1684   1.190   8.180   4.676  0.3520  0.3409 -0.5202
  754MOL0     C 1685   1.303   8.237   4.758 -1.1173 -0.0537  0.7652
  754MOL0     O 1686   1.401   8.290   4.680 -1.0235 -0.1373  0.6461
  754MOL0     C 1687   1.503   8.364   4.731  0.0140  0.8814  0.1081
  754MOL0     C 1688   1.493   8.480   4.815 -0.9147  0.5753 -0.1844
  754MOL0     C 1689   1.609   8.544   4.852  0.1441  0.1428  0.2542
  754MOL0     C 1690   1.735   8.491   4.828 -0.1323  0.2609  0.3722
  754MOL0     O 1691   1.850   8.557   4.863  0.4697  0.0574 -0.4451
  754MOL0     C 1692   1.859   8.672   4.948  0.1073 -0.0494 -0.0215
  754MOL0     C 1693   1.992   8.660   5.025  0.6407 -0.0941 -0.4104
  754MOL0     C 1694   2.072   8.792   5.008  0.2713 -0.0094 -0.7962
  754MOL0     C 1695   1.999   8.908   5.084  0.5287 -0.3091 -0.3538
  754MOL0     C 1696   2.065   9.042   5.093  0.2061 -0.2836  0.1061
  754MOL0     C 1697   1.997   9.147   5.178 -0.7460 -1.0616  0.7261
  754MOL0     C 1698   2.088   9.267   5.186  0.3766 -0.5792  0.5559
  754MOL0     C 1699   2.082   9.345   5.058 -0.5651  0.3276 -1.4066
  754MOL0    Cl 1700   1.937   9.449   5.041  0.1711  0.7478  0.3422
  754MOL0     C 1701   1.744   8.369   4.754 -0.6501 -0.3094  0.1390
  754MOL0     C 1702   1.637   8.315   4.703  0.7709  0.0919 -0.8511
  754MOL0     O 1703   1.309   8.231   4.884 -0.4411 -0.3190  0.0848
  754MOL0     C 1704   1.094   8.101   4.744 -0.4101 -0.5351 -1.4048
  754MOL0     C 1705   0.994   8.041   4.679 -0.8355  0.2893 -0.2568
  754MOL0     N 1706   0.540   7.592   4.335 -0.1928 -0.6044  0.6374
  754MOL0     N 1707   0.420   7.631   4.321  0.1917 -0.7217 -0.2626
  754MOL0     C 1708   0.221   8.258   3.537 -0.1100  0.0715  0.4440
  754MOL0     C 1709   0.208   8.266   3.394  0.3184 -0.7660  0.0430
  754MOL0     C 1710   0.218   8.424   2.952  0.6667 -0.9482 -0.5083
  754MOL0     C 1711   0.254   8.366   2.828 -0.2484  0.0830  1.0497
  754MOL0     C 1712   0.234   8.438   2.704 -0.8411  0.6608  0.4772
  754MOL0     C 1713   0.175   8.561   2.712  0.3923 -0.4635  0.2348
  754MOL0     O 1714   0.161   8.614   2.585  0.4747 -1.2578  0.6358
  754MOL0     C 1715   0.078   8.729   2.558 -0.4830 -1.2778 -0.4133
  754MOL0     C 1716  -0.045   8.697   2.458 -0.3489  1.0810 -0.0636
  754MOL0     C 1717  -0.130   8.823   2.438 -0.0153 -0.1930  0.9664
  754MOL0     C 1718  -0.278   8.786   2.427 -0.0369  0.3100  0.3599
  754MOL0     C 1719  -0.380   8.890   2.446  0.1435 -0.0647  0.0270
  754MOL0     C 1720  -0.456   8.980   2.465  0.9200  0.0806 -0.0468
  754MOL0     C 1721   0.132   8.610   2.834  0.4086  0.6346  0.1708
  754MOL0     C 1722   0.161   8.546   2.955 -0.7195  0.1403  0.1750
  754MOL0     H 1723   0.136   8.607   3.374 -3.0704 -0.1163  0.0557
  754MOL0     H 1724   0.117   8.567   3.603 -2.1413 -0.6773 -0.8928
  754MOL0     H 1725  -0.002   8.319   3.794 -0.9923 -2.3092  1.5237
  754MOL0     H 1726   0.097   8.185   3.750  1.7184  1.9118 -1.1192
  754MOL0     H 1727   0.118   8.364   4.005 -2.1699 -1.7500  0.3168
  754MOL0     H 1728   0.084   8.184   3.987  0.1827 -0.0239 -0.5483
  754MOL0     H 1729   0.308   8.148   3.887  2.4297 -3.2936  3.3701
  754MOL0     H 1730   0.345   8.307   3.940 -2.0156  2.3674  0.2837
  754MOL0     H 1731   0.434   8.179   4.114  0.3341 -1.3997 -0.5274
  754MOL0     H 1732   0.286   8.234   4.188  1.5287 -2.3308  2.7920
  754MOL0     H 1733   0.182   7.995   4.095 -0.6634 -4.0430  1.2983
  754MOL0     H 1734   0.356   7.952   4.079  0.4021 -2.3452  0.6581
  754MOL0     H 1735   0.400   7.972   4.304 -1.9392 -1.7071  2.5727
  754MOL0     H 1736   0.251   8.060   4.348 -0.9995 -0.8979  0.4372
  754MOL0     H 1737   0.117   7.868   4.306 -0.3646  0.8163 -2.2911
  754MOL0     H 1738   0.241   7.790   4.230 -3.2636 -1.0008  0.3234
  754MOL0     H 1739   0.189   7.710   4.471  2.0267 -0.8294  0.8019
  754MOL0     H 1740   0.281   7.858   4.524 -2.0954  1.6941  0.1780
  754MOL0     H 1741   0.510   7.780   4.598 -2.1371  2.3589 -1.0155
  754MOL0     H 1742   0.690   7.578   4.603  0.2002 -0.0347 -0.4098
  754MOL0     H 1743   0.762   7.517   4.451 -1.8940 -0.2779 -0.9125
  754MOL0     H 1744   0.920   7.675   4.533 -0.6310 -2.0219 -0.1792
  754MOL0     H 1745   0.796   7.804   4.571 -0.3406  0.1715 -0.8666
  754MOL0     H 1746   0.742   7.814   4.331 -0.0899 -0.6178  0.0823
  754MOL0     H 1747   0.888   7.713   4.310 -0.4406 -1.9075  2.9731
  754MOL0     H 1748   0.920   7.962   4.289 -0.2428 -0.6585 -0.6262
  754MOL0     H 1749   1.025   7.889   4.422 -0.3284 -0.9555  0.6245
  754MOL0     H 1750   1.030   8.173   4.370  2.0701 -0.6714 -0.2856
  754MOL0     H 1751   1.181   8.351   4.356  0.2724 -3.1101 -1.3805
  754MOL0     H 1752   1.221   8.432   4.507  0.4409 -0.8381  0.5180
  754MOL0     H 1753   1.326   8.309   4.437 -0.2148  0.4689 -3.6302
  754MOL0     H 1754   1.403   8.526   4.856 -1.4376 -1.2928  0.8547
  754MOL0     H 1755   1.598   8.636   4.909 -0.2664 -0.0361  0.4661
  754MOL0     H 1756   1.855   8.764   4.888 -0.0906  0.4469  0.7474
  754MOL0     H 1757   1.774   8.658   5.015  0.4172 -3.5427 -0.1576
  754MOL0     H 1758   1.980   8.632   5.130  3.8421  0.7201  0.2733
  754MOL0     H 1759   2.041   8.572   4.984  2.7666 -0.2851  2.2896
  754MOL0     H 1760   2.071   8.812   4.901 -1.4205  0.9710 -0.6263
  754MOL0     H 1761   2.175   8.784   5.043  0.1003 -0.1622 -0.3186
  754MOL0     H 1762   1.898   8.915   5.042  0.7300 -0.6383 -0.9007
  754MOL0     H 1763   1.986   8.876   5.188  1.1140  0.2065 -0.1174
  754MOL0     H 1764   2.089   9.081   4.993  0.6054  0.2634  0.4081
  754MOL0     H 1765   2.166   9.014   5.126 -0.1067 -3.7225 -1.4392
  754MOL0     H 1766   1.903   9.171   5.127 -0.2446  0.8751  0.6392
  754MOL0     H 1767   1.979   9.094   5.272  1.2654  2.1277  3.0872
  754MOL0     H 1768   2.188   9.228   5.204  0.5786 -0.1520  0.3718
  754MOL0     H 1769   2.066   9.327   5.275  1.1597 -0.3698  0.6072
  754MOL0     H 1770   2.105   9.278   4.974  0.4225  0.7611 -1.4983
  754MOL0     H 1771   2.169   9.411   5.068 -1.0434  1.0426 -1.8952
  754MOL0     H 1772   1.839   8.321   4.732  0.1017  0.0887  2.3552
  754MOL0     H 1773   1.645   8.218   4.654 -0.0525 -1.3211  1.6012
  754MOL0     H 1774   1.120   8.069   4.844 -1.2550 -0.0065 -1.0043
  754MOL0     H 1775   0.920   7.969   4.711 -0.4393  0.9431  2.3473
  754MOL0     H 1776   0.241   8.170   3.597 -0.6451 -0.4207 -0.0772
  754MOL0     H 1777   0.210   8.175   3.334 -1.3420 -0.1560 -1.0366
  754MOL0     H 1778   0.309   8.273   2.831  0.2591  0.3421  0.0244
  754MOL0     H 1779   0.265   8.405   2.606 -3.3626 -1.6088  0.3157
  754MOL0     H 1780   0.047   8.779   2.650 -0.2646 -3.0501  0.6687
  754MOL0     H 1781   0.137   8.801   2.500  0.6565 -0.4267  1.6990
  754MOL0     H 1782  -0.097   8.611   2.501  0.5474 -1.3020 -3.3554
  754MOL0     H 1783  -0.005   8.660   2.363 -0.2693  0.1938  0.3076
  754MOL0     H 1784  -0.098   8.865   2.342 -0.5663  1.9239  1.6573
  754MOL0     H 1785  -0.124   8.900   2.516 -0.3313  0.1556  0.6513
  754MOL0     H 1786  -0.299   8.729   2.518  1.4427 -0.9153 -0.0233
  754MOL0     H 1787  -0.302   8.730   2.336 -0.7827  0.6109  0.3686
  754MOL0     H 1788  -0.520   9.064   2.482 -0.6014 -1.5193  2.8189
  754MOL0     H 1789   0.087   8.709   2.837 -1.6463 -0.2379 -0.0075
  754MOL0     H 1790   0.127   8.591   3.047  1.1183 -1.1628  1.5592
  755MOL0     O 1791   6.140   9.030   2.892 -0.3763  0.1830  0.0285
  755MOL0     C 1792   6.047   9.006   2.957 -0.0781  0.8876 -0.3572
  755MOL0     O 1793   6.034   9.013   3.088  0.4019 -0.0669  0.5028
  755MOL0     C 1794   6.141   9.073   3.150 -0.1631 -0.1383 -1.1852
  755MOL0     C 1795   6.256   8.989   3.176  0.2244  0.4550  0.0502
  755MOL0     C 1796   6.365   9.058   3.240 -0.3651  0.2139  0.2695
  755MOL0     C 1797   6.349   9.192   3.288 -0.5893  0.9683 -0.0141
  755MOL0     O 1798   6.457   9.248   3.349  0.0642  0.3393 -0.3167
  755MOL0     C 1799   6.484   9.379   3.300 -0.2486 -0.1216 -0.4690
  755MOL0     C 1800   6.630   9.412   3.337 -0.0107 -0.0214 -0.2005
  755MOL0     C 1801   6.685   9.556   3.287  0.1162  0.2642  0.8733
  755MOL0     C 1802   6.832   9.568   3.299 -0.3043 -0.7521 -0.4104
  755MOL0     C 1803   6.899   9.697   3.235 -0.0253  0.3394  0.3889
  755MOL0     C 1804   6.887   9.700   3.078 -0.8407 -0.7022  0.9612
  755MOL0     C 1805   6.956   9.828   3.018 -0.5993 -0.0717  0.0617
  755MOL0     C 1806   6.956   9.842   2.871 -0.1604  1.0130  0.5555
  755MOL0     N 1807   6.825   9.873   2.809 -0.2627 -0.4915  0.1075
  755MOL0     C 1808   6.770  10.002   2.799  0.6563  0.2310 -0.5187
  755MOL0     C 1809   6.652   9.975   2.731 -0.6286 -0.2887  0.0520
  755MOL0     C 1810   6.547  10.088   2.712  0.2619  1.0226 -0.0771
  755MOL0     C 1811   6.583  10.221   2.800 -0.4431  0.4232 -0.1784
  755MOL0     C 1812   6.449  10.301   2.806  0.4499 -0.7980 -1.0655
  755MOL0     C 1813   6.494  10.443   2.842 -0.4778  0.9617 -0.0565
  755MOL0     O 1814   6.374  10.512   2.898 -0.3438 -0.5035  0.0081
  755MOL0     C 1815   6.328  10.636   2.849  0.8708  0.6120 -0.0390
  755MOL0     C 1816   6.406  10.740   2.798 -1.3441  0.5204  0.5545
  755MOL0     C 1817   6.357  10.860   2.750  0.3482  0.5592  0.4524
  755MOL0     C 1818   6.465  10.968   2.712  0.8087 -0.1732 -0.3575
  755MOL0     C 1819   6.215  10.855   2.725 -0.3189  0.1680  0.9015
  755MOL0     C 1820   6.156  10.970   2.648 -0.1252  0.2946  0.6383
  755MOL0     O 1821   6.205  11.093   2.668  0.7374 -0.8225  0.1283
  755MOL0     C 1822   6.200  11.204   2.586 -1.0480  0.7623 -0.2597
  755MOL0     C 1823   6.174  11.196   2.447 -0.0747  0.4194  0.1823
  755MOL0     C 1824   6.164  11.309   2.368  0.8205  0.0095 -0.5181
  755MOL0     C 1825   6.188  11.432   2.433 -0.3027 -0.8707 -0.1191
  755MOL0     O 1826   6.193  11.550   2.371  0.1736  0.6448 -0.8661
  755MOL0     C 1827   6.064  11.591   2.320 -0.4890  0.1945 -0.7284
  755MOL0     C 1828   6.068  11.700   2.216  0.2593 -0.7703  1.3277
  755MOL0     C 1829   6.125  11.633   2.090  0.0051 -0.5288  0.1172
  755MOL0     C 1830   6.161  11.719   1.971  0.3238 -0.0675 -0.2851
  755MOL0     C 1831   6.301  11.775   1.975 -0.0128  0.3832 -0.3688
  755MOL0     C 1832   6.329  11.880   1.865  0.2593  0.5169 -0.8026
  755MOL0     C 1833   6.475  11.945   1.871 -0.3960  0.4983 -0.5817
  755MOL0     C 1834   6.489  12.067   1.788 -1.0041  0.1880  0.0827
  755MOL0    Cl 1835   6.498  12.015   1.615 -0.1817 -0.3244  0.2691
  755MOL0     C 1836   6.219  11.444   2.561 -0.8328  0.9769 -0.2531
  755MOL0     C 1837   6.218  11.331   2.636  0.9003 -0.6070 -0.3057
  755MOL0     O 1838   6.071  10.944   2.564 -0.3300 -0.9118 -0.6897
  755MOL0     C 1839   6.129  10.756   2.777  0.9829 -0.3274  0.2516
  755MOL0     C 1840   6.189  10.651   2.856 -0.1259 -0.6017  0.1574
  755MOL0     N 1841   6.633   9.841   2.711  0.6475  0.1370  0.3875
  755MOL0     N 1842   6.728   9.784   2.764 -0.1846  0.4500  0.0068
  755MOL0     C 1843   6.229   9.256   3.264 -0.3652 -0.0472 -0.3163
  755MOL0     C 1844   6.128   9.202   3.194 -0.3545  0.0318 -0.3474
  755MOL0     C 1845   5.914   8.987   2.889  0.6025 -0.0915 -0.9831
  755MOL0     C 1846   5.920   8.930   2.765  0.0081 -0.3617  0.4762
  755MOL0     C 1847   5.802   8.921   2.682  0.4878  0.6808 -0.3859
  755MOL0     C 1848   5.676   8.946   2.737  0.2157 -1.1641 -0.7917
  755MOL0     O 1849   5.563   8.918   2.668  0.3204 -0.3701 -0.1832
  755MOL0     C 1850   5.545   8.955   2.521  0.5634 -0.5117 -0.2736
  755MOL0     C 1851   5.429   9.040   2.485  1.2061 -0.2096 -0.1389
  755MOL0     C 1852   5.293   8.969   2.515 -0.8862  0.0591  0.0406
  755MOL0     C 1853   5.266   8.836   2.437 -0.1355 -0.0602 -0.3212
  755MOL0     C 1854   5.274   8.844   2.289 -0.6030 -0.1230  0.5268
  755MOL0     C 1855   5.280   8.818   2.167 -0.0840  0.7355 -0.4831
  755MOL0     C 1856   5.670   8.993   2.871 -1.4622 -0.5621  0.4487
  755MOL0     C 1857   5.787   9.022   2.945 -0.2838 -0.4319  0.3787
  755MOL0     H 1858   6.265   8.884   3.150  2.3832 -0.4713  3.8131
  755MOL0     H 1859   6.459   9.005   3.249 -0.3846  0.4220  2.1745
  755MOL0     H 1860   6.480   9.385   3.191 -1.5199  1.7432 -0.3680
  755MOL0     H 1861   6.409   9.448   3.340  2.0815  1.9885  0.5205
  755MOL0     H 1862   6.644   9.419   3.446  0.1453  2.4205 -0.3187
  755MOL0     H 1863   6.699   9.332   3.309  0.3559  0.0979  0.3437
  755MOL0     H 1864   6.656   9.571   3.182 -0.7672 -2.7851  0.5899
  755MOL0     H 1865   6.634   9.639   3.339  2.8156  1.6948  1.4012
  755MOL0     H 1866   6.854   9.562   3.406 -2.0515  0.8813  0.1102
  755MOL0     H 1867   6.880   9.485   3.248 -0.0554  0.1888 -1.7588
  755MOL0     H 1868   6.858   9.786   3.283 -2.6471 -0.9136  0.6546
  755MOL0     H 1869   7.005   9.689   3.259  0.0940  1.4285  0.2236
  755MOL0     H 1870   6.946   9.618   3.038 -0.3223  0.4563 -0.7562
  755MOL0     H 1871   6.782   9.698   3.048 -1.3357 -0.7720  2.5754
  755MOL0     H 1872   6.917   9.915   3.070 -0.6639  1.6418 -2.6627
  755MOL0     H 1873   7.058   9.821   3.057 -0.5782 -2.4481 -0.2413
  755MOL0     H 1874   6.988   9.748   2.825 -0.3468  0.9539  0.5463
  755MOL0     H 1875   7.031   9.917   2.845  4.2132 -2.9245  0.4800
  755MOL0     H 1876   6.808  10.101   2.821  1.0825  0.1946 -1.0602
  755MOL0     H 1877   6.549  10.124   2.609 -0.7349 -1.6165 -1.0964
  755MOL0     H 1878   6.454  10.038   2.739  0.4625  0.9004  0.4057
  755MOL0     H 1879   6.664  10.280   2.756  0.2814 -0.2020  0.2873
  755MOL0     H 1880   6.626  10.194   2.897  3.0008 -0.6310 -1.8286
  755MOL0     H 1881   6.377  10.266   2.881 -0.4098  1.2707 -0.8554
  755MOL0     H 1882   6.399  10.308   2.708  0.0917 -0.7109 -0.8805
  755MOL0     H 1883   6.527  10.493   2.750  2.0548 -2.0947 -0.9974
  755MOL0     H 1884   6.581  10.449   2.907  0.2130 -1.3608 -0.6827
  755MOL0     H 1885   6.513  10.724   2.795 -1.6709 -2.2361  1.0584
  755MOL0     H 1886   6.566  10.928   2.728  1.9767  1.0521 -3.7643
  755MOL0     H 1887   6.455  10.983   2.604  0.6253  0.6005 -0.2332
  755MOL0     H 1888   6.452  11.067   2.757  3.6410 -0.4001  1.1717
  755MOL0     H 1889   6.164  11.096   2.406 -0.2185 -1.2317  3.8839
  755MOL0     H 1890   6.129  11.315   2.265 -0.4393  0.1957 -0.0912
  755MOL0     H 1891   6.008  11.505   2.280 -1.9183 -0.6286  2.6336
  755MOL0     H 1892   6.002  11.626   2.403 -1.3108 -1.3102 -0.6750
  755MOL0     H 1893   5.975  11.751   2.189  3.2349  4.7437 -0.0433
  755MOL0     H 1894   6.146  11.773   2.238  2.2635 -2.9942  2.0230
  755MOL0     H 1895   6.060  11.550   2.060  1.0892 -1.5166  0.4308
  755MOL0     H 1896   6.218  11.581   2.114  0.7355  0.7332  0.1065
  755MOL0     H 1897   6.134  11.653   1.888 -0.8688 -0.3082  0.2771
  755MOL0     H 1898   6.086  11.798   1.979 -1.7714 -2.0014 -0.0442
  755MOL0     H 1899   6.369  11.694   1.947  0.6593  1.5833 -2.4339
  755MOL0     H 1900   6.326  11.826   2.068  2.3671  0.1082 -0.7979
  755MOL0     H 1901   6.315  11.833   1.767 -0.6903 -0.8506 -0.0445
  755MOL0     H 1902   6.254  11.959   1.864 -0.5473 -0.1420  1.9061
  755MOL0     H 1903   6.546  11.867   1.842 -1.0906 -1.0004  1.4915
  755MOL0     H 1904   6.511  11.961   1.974  1.1010  1.3638 -1.2045
  755MOL0     H 1905   6.576  12.128   1.815 -1.9490  0.1953  3.6125
  755MOL0     H 1906   6.397  12.124   1.801 -1.1541 -0.3069  1.3714
  755MOL0     H 1907   6.225  11.547   2.593 -1.9510  1.6848 -2.1421
  755MOL0     H 1908   6.226  11.353   2.742  4.2032  1.3555 -0.8289
  755MOL0     H 1909   6.021  10.763   2.762  1.1853  0.1975 -1.1195
  755MOL0     H 1910   6.136  10.573   2.910  1.7300  0.1376  3.2887
  755MOL0     H 1911   6.219   9.363   3.282  1.2370  0.0143  0.3457
  755MOL0     H 1912   6.038   9.258   3.172 -0.0991  0.3940 -0.4728
  755MOL0     H 1913   6.017   8.908   2.720 -0.9231  0.7836 -2.3399
  755MOL0     H 1914   5.819   8.878   2.583  0.1402  0.8801 -0.5356
  755MOL0     H 1915   5.638   9.004   2.491  0.1532  0.4932  0.0336
  755MOL0     H 1916   5.545   8.863   2.462 -1.9148 -1.0486  0.4563
  755MOL0     H 1917   5.418   9.067   2.380 -1.9242  1.4965  0.4926
  755MOL0     H 1918   5.425   9.133   2.544 -0.0964 -0.0895 -0.3912
  755MOL0     H 1919   5.221   9.044   2.483  2.6226  2.7988 -2.1809
  755MOL0     H 1920   5.265   8.954   2.620 -1.1170  1.7393  0.2447
  755MOL0     H 1921   5.170   8.788   2.461  0.7078 -1.4028  0.4797
  755MOL0     H 1922   5.336   8.768   2.486 -1.3781  0.8715  3.0094
  755MOL0     H 1923   5.282   8.815   2.060 -1.0303  2.5213 -0.5829
  755MOL0     H 1924   5.582   9.013   2.931 -0.7393  3.1038  0.5081
  755MOL0     H 1925   5.784   9.044   3.051 -0.0161  1.7030 -0.0181
  756MOL0     O 1926   4.458   0.424   5.098  0.2972  0.7939 -0.2556
  756MOL0     C 1927   4.362   0.495   5.117  0.1086  0.1284 -0.2320
  756MOL0     O 1928   4.368   0.605   5.193  0.5512  0.2642 -1.2217
  756MOL0     C 1929   4.483   0.626   5.260  0.7701 -0.4210  0.3509
  756MOL0     C 1930   4.580   0.708   5.211 -0.2234  0.2639  0.3757
  756MOL0     C 1931   4.692   0.736   5.287 -0.3736  0.3906 -0.1108
  756MOL0     C 1932   4.708   0.683   5.418 -1.1988  1.1423  0.5626
  756MOL0     O 1933   4.819   0.724   5.487  0.7171 -0.1353 -0.5750
  756MOL0     C 1934   4.881   0.615   5.554 -0.1154 -1.3844  0.2210
  756MOL0     C 1935   5.016   0.682   5.595  0.3540  0.0914  0.0075
  756MOL0     C 1936   5.088   0.588   5.691  0.4233 -0.3509  0.2615
  756MOL0     C 1937   5.208   0.660   5.755 -0.1497 -0.1197 -1.0090
  756MOL0     C 1938   5.290   0.546   5.815 -0.1442  0.1828 -0.3562
  756MOL0     C 1939   5.400   0.591   5.900 -0.3487 -0.3786 -0.4068
  756MOL0     C 1940   5.462   0.467   5.969 -0.0792 -0.6811  1.1118
  756MOL0     C 1941   5.567   0.512   6.072 -0.4162  0.4953 -1.1561
  756MOL0     N 1942   5.654   0.401   6.101 -0.2980  0.1133  0.1401
  756MOL0     C 1943   5.786   0.406   6.093  0.0235 -0.1033  0.3977
  756MOL0     C 1944   5.838   0.300   6.155 -0.7217  0.9583  0.2051
  756MOL0     C 1945   5.981   0.277   6.193 -0.3562 -0.7505 -0.2131
  756MOL0     C 1946   6.052   0.405   6.253 -0.1502  0.0891  0.2448
  756MOL0     C 1947   6.201   0.371   6.243 -0.0226  0.0751 -0.1776
  756MOL0     C 1948   6.283   0.449   6.350 -0.3453  0.1134  0.6304
  756MOL0     O 1949   6.426   0.443   6.330 -0.0702  0.8642  0.1107
  756MOL0     C 1950   6.492   0.558   6.292  0.1410 -0.2084 -0.8292
  756MOL0     C 1951   6.463   0.687   6.333  0.1753  0.3251 -0.0577
  756MOL0     C 1952   6.540   0.797   6.288 -0.6408  0.8498 -0.3727
  756MOL0     C 1953   6.496   0.932   6.338 -0.2476 -0.1900  0.0556
  756MOL0     C 1954   6.647   0.777   6.203 -1.0516 -0.5224 -0.2821
  756MOL0     C 1955   6.738   0.891   6.164 -0.1485 -0.3002  0.2765
  756MOL0     O 1956   6.776   0.913   6.033 -0.4917 -0.1107  0.4605
  756MOL0     C 1957   6.854   1.026   6.018  0.1994  0.4198 -1.1840
  756MOL0     C 1958   6.812   1.161   6.011  1.0481 -0.6927 -0.5471
  756MOL0     C 1959   6.898   1.267   6.008  0.1096  1.0738 -1.2331
  756MOL0     C 1960   7.035   1.243   6.027  0.6390  0.1900  0.2367
  756MOL0     O 1961   7.125   1.340   6.023  1.3190 -0.7542 -0.9529
  756MOL0     C 1962   7.100   1.465   6.079  0.4289  0.7715  0.0655
  756MOL0     C 1963   7.214   1.560   6.049 -0.7465 -0.0157 -0.3915
  756MOL0     C 1964   7.343   1.511   6.115  0.5404 -0.0043 -0.5021
  756MOL0     C 1965   7.467   1.595   6.070 -0.1357  0.6731 -0.2077
  756MOL0     C 1966   7.450   1.745   6.081 -0.1770  0.3240 -0.2255
  756MOL0     C 1967   7.585   1.825   6.069  0.0172  0.8235  0.4646
  756MOL0     C 1968   7.570   1.961   6.130  0.2638  0.3065  0.5606
  756MOL0     C 1969   7.492   1.973   6.264 -0.3996 -1.0205  0.4790
  756MOL0    Cl 1970   7.530   2.148   6.336 -0.3741  0.0130  0.0164
  756MOL0     C 1971   7.080   1.111   6.036  0.0062 -1.5098 -0.8465
  756MOL0     C 1972   6.989   1.008   6.023  0.2152  0.1866 -0.9410
  756MOL0     O 1973   6.784   0.947   6.264  0.2865  0.0851 -0.6271
  756MOL0     C 1974   6.688   0.647   6.165  0.2557  0.6506  0.4407
  756MOL0     C 1975   6.607   0.542   6.207 -0.1745  0.1576  0.6701
  756MOL0     N 1976   5.736   0.216   6.189  0.4075 -0.5042  0.0655
  756MOL0     N 1977   5.624   0.282   6.171 -0.8011  0.3861 -0.3772
  756MOL0     C 1978   4.609   0.603   5.470 -0.5325 -0.0314 -0.4685
  756MOL0     C 1979   4.494   0.578   5.393  0.2617 -0.3452  0.4524
  756MOL0     C 1980   4.231   0.444   5.089  0.0759  0.0854  0.4512
  756MOL0     C 1981   4.209   0.338   4.995  0.6919 -0.3625  0.0751
  756MOL0     C 1982   4.082   0.286   4.967 -0.8892 -0.0410  0.5627
  756MOL0     C 1983   3.965   0.337   5.026  0.0378 -0.9926 -0.5917
  756MOL0     O 1984   3.841   0.296   4.987 -0.2559  1.1528  0.6019
  756MOL0     C 1985   3.737   0.401   5.011 -0.7706  0.0023 -0.8977
  756MOL0     C 1986   3.601   0.347   4.967  0.1026  0.3875  0.2034
  756MOL0     C 1987   3.553   0.410   4.834  0.7836 -0.5275  0.3541
  756MOL0     C 1988   3.402   0.410   4.823  0.3154  0.4107  0.0552
  756MOL0     C 1989   3.358   0.450   4.685 -0.6554  0.9083 -0.5644
  756MOL0     C 1990   3.311   0.475   4.576 -0.4061 -0.9108 -0.1821
  756MOL0     C 1991   3.988   0.438   5.122  0.5196  0.0415  1.0740
  756MOL0     C 1992   4.116   0.494   5.147 -0.4246 -0.0841 -0.2289
  756MOL0     H 1993   4.572   0.765   5.119  0.9228 -0.6668 -0.3353
  756MOL0     H 1994   4.763   0.807   5.247 -1.6658  1.9070  0.2153
  756MOL0     H 1995   4.828   0.575   5.641  1.6176  0.0734  2.0513
  756MOL0     H 1996   4.900   0.539   5.477  1.3914  2.3521 -3.5070
  756MOL0     H 1997   5.071   0.695   5.502 -0.0615 -1.0989 -0.4333
  756MOL0     H 1998   4.996   0.777   5.645 -2.2488  0.3354 -1.3526
  756MOL0     H 1999   5.024   0.562   5.776 -1.7214  3.1317 -0.1172
  756MOL0     H 2000   5.121   0.495   5.643 -1.8806 -0.1692 -1.8124
  756MOL0     H 2001   5.260   0.703   5.669  0.7630  0.2490 -0.2920
  756MOL0     H 2002   5.197   0.742   5.826  1.7894  1.6288 -2.5929
  756MOL0     H 2003   5.222   0.493   5.883 -1.3271  1.4410 -0.5062
  756MOL0     H 2004   5.323   0.468   5.747  1.4622 -1.6673  2.3522
  756MOL0     H 2005   5.479   0.641   5.844  0.2548 -0.4764  0.3478
  756MOL0     H 2006   5.360   0.673   5.960 -1.4063 -1.2764  0.1625
  756MOL0     H 2007   5.391   0.406   6.024 -4.4545  1.4435 -1.5873
  756MOL0     H 2008   5.515   0.409   5.893 -2.4457 -0.3522 -0.9101
  756MOL0     H 2009   5.514   0.527   6.166 -0.7190 -0.8769 -1.0940
  756MOL0     H 2010   5.628   0.600   6.049 -1.3619  1.1360 -1.2807
  756MOL0     H 2011   5.838   0.492   6.054 -1.7264  1.6285  1.7228
  756MOL0     H 2012   5.986   0.193   6.263 -1.4291 -0.5683  0.1051
  756MOL0     H 2013   6.027   0.235   6.103  3.2881  0.2203  1.0187
  756MOL0     H 2014   6.015   0.411   6.356 -2.1492  1.3155 -0.4949
  756MOL0     H 2015   6.032   0.501   6.205  0.4425  0.7387  1.2353
  756MOL0     H 2016   6.251   0.385   6.147  1.5928 -0.9770  0.4816
  756MOL0     H 2017   6.219   0.265   6.264  1.3069  0.5605  1.3195
  756MOL0     H 2018   6.257   0.408   6.448  0.7221  0.4018  1.0417
  756MOL0     H 2019   6.253   0.554   6.346 -0.2756  0.1292  0.4851
  756MOL0     H 2020   6.383   0.714   6.401  0.5278 -2.3464  1.5893
  756MOL0     H 2021   6.495   1.007   6.258 -2.1591 -0.9493 -0.7095
  756MOL0     H 2022   6.392   0.936   6.372 -0.9686 -4.9267 -0.9580
  756MOL0     H 2023   6.569   0.966   6.412  2.3326  0.6105 -2.6555
  756MOL0     H 2024   6.705   1.178   6.017  1.5548  2.7967  3.4314
  756MOL0     H 2025   6.873   1.372   5.992 -0.1635  0.9585 -1.5927
  756MOL0     H 2026   7.006   1.503   6.037 -0.9722 -1.2065  1.2859
  756MOL0     H 2027   7.094   1.449   6.187  2.3432 -2.3823 -0.1770
  756MOL0     H 2028   7.233   1.564   5.942  0.0336  0.4889 -0.2384
  756MOL0     H 2029   7.179   1.662   6.069  1.9072  0.9402 -0.2117
  756MOL0     H 2030   7.352   1.403   6.098 -0.0948  0.3281 -3.6163
  756MOL0     H 2031   7.327   1.534   6.221  1.0394  0.7400 -0.5829
  756MOL0     H 2032   7.556   1.564   6.125  0.5378 -0.4962 -1.8652
  756MOL0     H 2033   7.486   1.579   5.963 -1.1929 -0.8182 -0.1939
  756MOL0     H 2034   7.390   1.766   6.170 -0.4342 -0.6816 -0.1483
  756MOL0     H 2035   7.380   1.781   6.005 -0.4433  0.9337  0.3028
  756MOL0     H 2036   7.665   1.773   6.123  0.0154  2.3296  2.0368
  756MOL0     H 2037   7.596   1.832   5.961 -4.2285 -3.7249 -0.6252
  756MOL0     H 2038   7.538   2.029   6.050  5.3868  1.1915 -1.1153
  756MOL0     H 2039   7.667   2.008   6.151  1.2435 -0.3839 -2.0426
  756MOL0     H 2040   7.527   1.893   6.330  0.5010  0.3771  1.7533
  756MOL0     H 2041   7.384   1.969   6.245 -0.8676  1.0228  2.3173
  756MOL0     H 2042   7.188   1.103   6.049  0.2004  1.0072 -0.3665
  756MOL0     H 2043   7.018   0.904   6.030  0.7109  0.4131  1.1733
  756MOL0     H 2044   6.772   0.618   6.103 -0.8348  0.9410 -1.2197
  756MOL0     H 2045   6.632   0.447   6.161 -0.9692 -0.0892  0.7283
  756MOL0     H 2046   4.615   0.576   5.575 -0.5577  1.8342  0.0377
  756MOL0     H 2047   4.420   0.519   5.446 -0.1784  1.5715  2.0896
  756MOL0     H 2048   4.299   0.307   4.942  1.1465 -1.0678  1.2364
  756MOL0     H 2049   4.083   0.211   4.888  4.2742  2.5460 -2.3344
  756MOL0     H 2050   3.717   0.403   5.119  0.4884 -0.4866 -0.6340
  756MOL0     H 2051   3.768   0.500   4.977  1.1952  0.8183  2.7466
  756MOL0     H 2052   3.527   0.372   5.043 -2.0511  1.5146 -2.0891
  756MOL0     H 2053   3.601   0.238   4.961 -1.1471  0.3420  0.7434
  756MOL0     H 2054   3.614   0.371   4.752  0.6037 -2.2168  0.9769
  756MOL0     H 2055   3.561   0.519   4.840 -1.2917 -0.1857 -1.5934
  756MOL0     H 2056   3.358   0.481   4.894  0.0682  1.4564 -1.0997
  756MOL0     H 2057   3.352   0.319   4.857 -3.1458  2.3320  0.6821
  756MOL0     H 2058   3.263   0.512   4.488 -0.5377 -0.5101  0.0512
  756MOL0     H 2059   3.912   0.487   5.182 -0.4503 -1.8035  1.4046
  756MOL0     H 2060   4.120   0.579   5.214  1.1776  0.0151 -0.4156
  757MOL0     O 2061   9.157   0.465   4.296 -0.0418  0.4424 -0.3657
  757MOL0     C 2062   9.227   0.394   4.364 -1.0030 -0.1682  0.6662
  757MOL0     O 2063   9.357   0.409   4.377  0.6064  0.1493 -0.7648
  757MOL0     C 2064   9.427   0.519   4.342  0.5503 -0.1989  0.8974
  757MOL0     C 2065   9.458   0.626   4.429  0.1612  0.0137 -0.6399
  757MOL0     C 2066   9.532   0.738   4.378 -0.3603 -0.2818 -0.3496
  757MOL0     C 2067   9.582   0.745   4.252 -0.1165 -0.4353 -0.0665
  757MOL0     O 2068   9.680   0.834   4.206 -0.2152  0.2990  0.2660
  757MOL0     C 2069   9.661   0.971   4.242 -0.2437 -0.4580 -0.4855
  757MOL0     C 2070   9.756   1.018   4.362  0.5771  0.7094 -0.0028
  757MOL0     C 2071   9.899   1.055   4.299  0.0061  0.3604  0.2724
  757MOL0     C 2072  10.007   0.971   4.370 -0.0868 -0.1693 -0.2529
  757MOL0     C 2073  10.156   1.015   4.333  0.4099 -0.4311 -0.1523
  757MOL0     C 2074  10.260   0.919   4.388  0.3320  0.7243  0.0845
  757MOL0     C 2075  10.410   0.973   4.354  0.0288  0.0094  0.3560
  757MOL0     C 2076  10.522   0.864   4.371  1.1516 -0.1951 -0.3767
  757MOL0     N 2077  10.528   0.794   4.505 -0.9599 -1.8285  0.3140
  757MOL0     C 2078  10.564   0.861   4.620  0.6395 -0.1192  0.5902
  757MOL0     C 2079  10.523   0.764   4.718  0.4314 -0.2887 -0.5536
  757MOL0     C 2080  10.551   0.781   4.865  0.1753 -0.4115  0.5550
  757MOL0     C 2081  10.427   0.845   4.931  0.2630  0.4094 -0.2856
  757MOL0     C 2082  10.465   0.857   5.079 -0.2964 -0.1918 -0.3251
  757MOL0     C 2083  10.366   0.963   5.144 -0.4738 -0.1914  0.0337
  757MOL0     O 2084  10.240   0.907   5.149 -0.4596 -0.4115  0.3374
  757MOL0     C 2085  10.137   0.980   5.215  0.4860  0.1858 -0.1101
  757MOL0     C 2086  10.144   1.003   5.349  0.1799 -0.3653  0.0268
  757MOL0     C 2087  10.053   1.069   5.418  0.5924 -0.0940 -0.3329
  757MOL0     C 2088  10.061   1.059   5.572 -0.8334 -1.5280  0.2120
  757MOL0     C 2089   9.939   1.114   5.355  0.1671 -0.4121 -0.1839
  757MOL0     C 2090   9.833   1.185   5.416  0.6312 -0.7741  0.3100
  757MOL0     O 2091   9.749   1.128   5.512 -1.0096  0.1629  0.6635
  757MOL0     C 2092   9.639   1.191   5.543  0.1076 -0.6868 -1.3030
  757MOL0     C 2093   9.598   1.184   5.678  0.5435 -0.2724  0.1251
  757MOL0     C 2094   9.473   1.240   5.712 -0.6372 -0.8077 -0.1608
  757MOL0     C 2095   9.392   1.308   5.622 -0.4186 -0.7170 -0.2726
  757MOL0     O 2096   9.268   1.357   5.664  0.7835 -0.7595  0.3796
  757MOL0     C 2097   9.205   1.465   5.599  0.4696  0.9836 -0.0259
  757MOL0     C 2098   9.092   1.515   5.676  1.0912  0.1889  0.7173
  757MOL0     C 2099   8.976   1.409   5.675  0.2207 -0.5643 -1.0858
  757MOL0     C 2100   8.866   1.423   5.785  0.0794  0.2252  0.3664
  757MOL0     C 2101   8.776   1.296   5.780 -0.1135 -1.3717  0.3863
  757MOL0     C 2102   8.668   1.316   5.683  0.1470 -0.0043 -0.0746
  757MOL0     C 2103   8.560   1.209   5.705  0.1774 -0.4983 -0.2699
  757MOL0     C 2104   8.442   1.206   5.609 -0.0261  0.0844  0.5528
  757MOL0    Cl 2105   8.391   1.378   5.576  0.3851 -0.0621 -0.1813
  757MOL0     C 2106   9.435   1.317   5.489 -0.0905 -0.7916 -0.0334
  757MOL0     C 2107   9.560   1.268   5.458  0.4321 -1.0144  0.9487
  757MOL0     O 2108   9.848   1.306   5.397  0.4941 -0.5440  0.0915
  757MOL0     C 2109   9.934   1.104   5.213  1.0189 -0.0546 -0.0423
  757MOL0     C 2110  10.028   1.030   5.146 -0.0939 -0.1977 -0.7107
  757MOL0     N 2111  10.466   0.649   4.661 -0.2661  0.3818 -0.3799
  757MOL0     N 2112  10.468   0.672   4.531 -0.8428  0.1125 -0.4485
  757MOL0     C 2113   9.552   0.632   4.172 -0.8112 -0.5569  0.7150
  757MOL0     C 2114   9.477   0.527   4.207  0.0267  1.2643  0.3997
  757MOL0     C 2115   9.169   0.278   4.438  0.9082  0.7714  0.2743
  757MOL0     C 2116   9.249   0.190   4.515  0.0877 -0.3823 -0.6828
  757MOL0     C 2117   9.199   0.093   4.609  0.6103  0.9814  0.4045
  757MOL0     C 2118   9.060   0.078   4.611 -1.0684  0.3756  0.3333
  757MOL0     O 2119   8.987  -0.017   4.686 -0.5266 -0.5862 -0.3065
  757MOL0     C 2120   9.051  -0.098   4.780  0.1674  0.0524  0.0666
  757MOL0     C 2121   8.947  -0.205   4.812 -0.5975 -0.0478 -0.4809
  757MOL0     C 2122   8.941  -0.308   4.705 -0.7504  0.3822  0.4085
  757MOL0     C 2123   8.869  -0.433   4.757 -1.5356 -0.0269  0.4683
  757MOL0     C 2124   8.732  -0.401   4.802 -1.5012  0.0407 -0.3694
  757MOL0     C 2125   8.619  -0.375   4.844  0.1786  0.3643  0.6147
  757MOL0     C 2126   8.992   0.154   4.515 -0.2000  1.7627 -0.0877
  757MOL0     C 2127   9.038   0.258   4.437  0.2873  0.2671 -0.1932
  757MOL0     H 2128   9.446   0.624   4.537  3.1213 -0.8470 -0.2451
  757MOL0     H 2129   9.556   0.825   4.438  1.5462 -3.3239  3.8235
  757MOL0     H 2130   9.682   1.038   4.158 -0.0543 -0.3692 -0.3702
  757MOL0     H 2131   9.564   0.991   4.287  0.7672  0.7162  1.3162
  757MOL0     H 2132   9.712   1.112   4.397 -0.1031  1.6573 -3.0736
  757MOL0     H 2133   9.765   0.937   4.435 -2.1960 -1.7489 -2.1643
  757MOL0     H 2134   9.901   1.049   4.189  1.5148 -0.5318  0.3296
  757MOL0     H 2135   9.912   1.161   4.321 -1.0374  0.6297 -0.3063
  757MOL0     H 2136  10.010   0.990   4.478 -0.9530  3.1338 -0.7100
  757MOL0     H 2137   9.995   0.863   4.360  0.1565 -0.2309  0.0712
  757MOL0     H 2138  10.183   1.035   4.229  4.0988 -0.4130  0.6747
  757MOL0     H 2139  10.162   1.115   4.379 -1.0780  0.1199 -1.0620
  757MOL0     H 2140  10.248   0.897   4.494 -1.5665 -2.6143 -0.6712
  757MOL0     H 2141  10.240   0.823   4.340 -1.2841  0.9640  0.2055
  757MOL0     H 2142  10.408   0.999   4.248 -1.0739  0.8817  0.5743
  757MOL0     H 2143  10.437   1.069   4.399  3.2814 -1.1398  1.1127
  757MOL0     H 2144  10.618   0.904   4.337  0.4185 -0.3061 -2.7709
  757MOL0     H 2145  10.484   0.780   4.312 -1.0508 -0.3032  1.0777
  757MOL0     H 2146  10.595   0.962   4.642 -1.3580  0.5324  0.6154
  757MOL0     H 2147  10.570   0.680   4.902  1.2641 -0.2930  0.3451
  757MOL0     H 2148  10.635   0.850   4.872  0.2951 -0.5344  0.3110
  757MOL0     H 2149  10.344   0.775   4.921 -2.0674  2.7038  1.6098
  757MOL0     H 2150  10.399   0.939   4.884 -1.5614  1.0010  1.8328
  757MOL0     H 2151  10.564   0.901   5.095 -1.1141  0.5585  3.7261
  757MOL0     H 2152  10.441   0.775   5.147  0.3718 -2.0700 -2.2176
  757MOL0     H 2153  10.352   1.045   5.073  0.0934  0.2009  0.3682
  757MOL0     H 2154  10.398   0.994   5.243 -2.0705  0.0576  0.4979
  757MOL0     H 2155  10.229   0.954   5.395  0.3196 -0.4888 -0.3630
  757MOL0     H 2156  10.161   1.036   5.609 -0.2043 -3.2726 -2.3614
  757MOL0     H 2157  10.034   1.152   5.624  0.8179 -0.8409 -0.1162
  757MOL0     H 2158   9.991   0.981   5.603  0.3911 -1.1958  4.5188
  757MOL0     H 2159   9.661   1.139   5.754 -1.0905  2.2451  3.2092
  757MOL0     H 2160   9.432   1.236   5.812  2.0115  4.2016  1.4759
  757MOL0     H 2161   9.282   1.536   5.566  1.0574  0.4462  0.1481
  757MOL0     H 2162   9.158   1.421   5.510  2.9047  1.6277 -1.7459
  757MOL0     H 2163   9.128   1.535   5.777  2.3950 -0.8351  0.4816
  757MOL0     H 2164   9.058   1.606   5.626  1.1256 -0.7151 -1.0446
  757MOL0     H 2165   9.021   1.311   5.693  1.9926  0.7043  2.2896
  757MOL0     H 2166   8.921   1.400   5.581  2.5270 -1.6750 -2.4312
  757MOL0     H 2167   8.908   1.429   5.886 -2.1051 -2.4105  1.5303
  757MOL0     H 2168   8.812   1.518   5.776 -2.2980 -1.1494 -0.6058
  757MOL0     H 2169   8.739   1.288   5.882  0.9741 -0.5131  0.8732
  757MOL0     H 2170   8.842   1.211   5.758  1.0604 -0.0913 -1.3426
  757MOL0     H 2171   8.626   1.414   5.706 -1.5768 -0.8121  0.3976
  757MOL0     H 2172   8.720   1.315   5.587  1.9711 -2.5126  0.8206
  757MOL0     H 2173   8.514   1.254   5.794 -2.6769  2.2673 -2.8855
  757MOL0     H 2174   8.600   1.112   5.733 -1.4989 -0.9285  0.7970
  757MOL0     H 2175   8.364   1.144   5.652 -0.6734 -1.2135 -2.2205
  757MOL0     H 2176   8.469   1.159   5.513  0.0911 -3.1506  2.0469
  757MOL0     H 2177   9.373   1.375   5.422 -0.0884  1.2048  1.5923
  757MOL0     H 2178   9.600   1.279   5.358  3.9976  1.1126  2.3822
  757MOL0     H 2179   9.849   1.145   5.159  0.7720 -0.2332  0.2075
  757MOL0     H 2180  10.030   1.002   5.041  2.2507 -0.5376 -0.6362
  757MOL0     H 2181   9.608   0.616   4.081 -0.2864  1.1714  0.7031
  757MOL0     H 2182   9.444   0.448   4.140  0.9151  0.0682  1.3273
  757MOL0     H 2183   9.356   0.211   4.514  0.6496 -2.9725 -1.2140
  757MOL0     H 2184   9.269   0.055   4.682  0.4657  0.4020  0.2466
  757MOL0     H 2185   9.147  -0.139   4.746  2.3888  1.6350  3.7912
  757MOL0     H 2186   9.082  -0.037   4.865  0.9126 -0.7226  0.3732
  757MOL0     H 2187   8.850  -0.155   4.809  0.5529  2.2610 -1.2267
  757MOL0     H 2188   8.956  -0.237   4.917  0.9086  3.0143  0.4231
  757MOL0     H 2189   9.037  -0.352   4.676  0.2087  0.3716  3.3187
  757MOL0     H 2190   8.881  -0.273   4.620 -1.0777 -1.9018 -0.3756
  757MOL0     H 2191   8.919  -0.491   4.836  0.1513  1.8675  0.8659
  757MOL0     H 2192   8.864  -0.508   4.678 -1.2539 -1.5539  1.8482
  757MOL0     H 2193   8.524  -0.360   4.891  0.6504 -2.0925  2.5263
  757MOL0     H 2194   8.884   0.146   4.514 -0.0726 -2.3764 -2.4096
  757MOL0     H 2195   8.965   0.313   4.379  0.9034  4.1569  2.3757
  758MOL0     O 2196  10.836   0.026  10.087  0.3037  0.1639 -0.0000
  758MOL0     C 2197  10.904   0.114  10.038 -0.3902  0.2625 -0.3936
  758MOL0     O 2198  10.861   0.242  10.016  0.5453 -0.0814  0.2096
  758MOL0     C 2199  10.726   0.271  10.028  0.2383 -0.1920 -0.2836
  758MOL0     C 2200  10.619   0.201   9.985 -0.8371 -0.5461 -0.9472
  758MOL0     C 2201  10.501   0.261   9.965  0.4825  0.1801  0.6780
  758MOL0     C 2202  10.473   0.389   9.996  0.0881  0.3320  0.1185
  758MOL0     O 2203  10.340   0.425   9.977 -0.9384 -0.5501 -0.1228
  758MOL0     C 2204  10.287   0.530  10.050  0.5830 -0.9092 -1.6142
  758MOL0     C 2205  10.139   0.550  10.016 -0.2495  0.4794 -1.0254
  758MOL0     C 2206  10.127   0.610   9.870  0.3596  1.1059 -0.2025
  758MOL0     C 2207   9.983   0.621   9.815  0.1595 -0.1659  0.6621
  758MOL0     C 2208   9.959   0.761   9.743  0.6626  0.4289  0.6557
  758MOL0     C 2209  10.055   0.771   9.625 -0.2785  0.2231 -0.2608
  758MOL0     C 2210  10.040   0.900   9.563  0.1713  0.1091 -0.4122
  758MOL0     C 2211  10.128   1.008   9.597  0.0557  0.6007  0.1803
  758MOL0     N 2212  10.096   1.072   9.731  0.1459 -0.8874  0.1082
  758MOL0     C 2213  10.032   1.192   9.742 -0.8600  0.3645  0.2029
  758MOL0     C 2214  10.043   1.221   9.872 -0.5219  0.0444 -0.4568
  758MOL0     C 2215   9.984   1.333   9.952 -0.0259 -0.0580 -0.4843
  758MOL0     C 2216   9.826   1.307   9.965  0.2099 -0.5668 -1.0641
  758MOL0     C 2217   9.797   1.231  10.100 -0.0851  0.2089 -0.1599
  758MOL0     C 2218   9.639   1.224  10.122 -0.5054  0.0095  0.7223
  758MOL0     O 2219   9.584   1.345  10.175 -0.0521  0.2800  0.3697
  758MOL0     C 2220   9.450   1.339  10.189 -0.4488  0.2240 -0.1151
  758MOL0     C 2221   9.388   1.455  10.228 -1.1673  0.1787  0.1223
  758MOL0     C 2222   9.254   1.459  10.249 -0.0594 -0.1418  0.1838
  758MOL0     C 2223   9.198   1.597  10.307 -0.2805  1.0621  1.1391
  758MOL0     C 2224   9.174   1.349  10.243  0.3349 -0.2113 -0.2097
  758MOL0     C 2225   9.029   1.355  10.269 -0.1479  0.2893 -0.1690
  758MOL0     O 2226   8.969   1.262  10.348  0.7149 -0.6508  0.2813
  758MOL0     C 2227   8.830   1.230  10.336  0.0010 -0.0018  0.0184
  758MOL0     C 2228   8.788   1.092  10.338 -1.1139 -0.0511 -0.3419
  758MOL0     C 2229   8.654   1.056  10.342 -0.0856 -1.5679  0.4316
  758MOL0     C 2230   8.561   1.163  10.334  0.7458 -0.3441  0.4229
  758MOL0     O 2231   8.420   1.150  10.325  0.4809  0.5356 -0.0897
  758MOL0     C 2232   8.371   1.050  10.228  0.2182  0.2570 -0.6908
  758MOL0     C 2233   8.216   1.066  10.196 -0.2940 -0.7821 -0.9117
  758MOL0     C 2234   8.175   1.044  10.045  0.1131  0.8316 -0.5060
  758MOL0     C 2235   8.043   1.108  10.006  0.2090  0.2781 -0.0355
  758MOL0     C 2236   8.028   1.096   9.852  0.1746 -0.3824 -0.4222
  758MOL0     C 2237   7.910   1.180   9.798 -0.0967 -0.2198 -0.0823
  758MOL0     C 2238   7.907   1.199   9.645  0.1111  0.4032 -0.0498
  758MOL0     C 2239   7.965   1.085   9.561 -0.3150 -0.7829  0.2235
  758MOL0    Cl 2240   7.865   0.945   9.578  0.2580 -0.3488 -0.3276
  758MOL0     C 2241   8.594   1.296  10.322 -0.2285  0.1311 -0.1990
  758MOL0     C 2242   8.728   1.327  10.327 -0.1265  0.5979 -0.1856
  758MOL0     O 2243   8.969   1.436  10.204  0.5274 -0.5933 -0.5925
  758MOL0     C 2244   9.232   1.228  10.218 -1.3172 -0.1493  0.3317
  758MOL0     C 2245   9.370   1.218  10.185 -0.2473 -0.2833 -0.8329
  758MOL0     N 2246  10.114   1.121   9.940 -0.5604  0.3666  0.2993
  758MOL0     N 2247  10.154   1.043   9.846  0.4025 -0.3160  0.0469
  758MOL0     C 2248  10.573   0.468  10.057 -0.3041  0.2597  0.3133
  758MOL0     C 2249  10.700   0.405  10.072 -0.1989  0.3995 -0.6427
  758MOL0     C 2250  11.047   0.097  10.021 -1.1490 -0.8740 -1.1353
  758MOL0     C 2251  11.106  -0.030  10.020  0.2875  0.1761  0.2249
  758MOL0     C 2252  11.245  -0.047   9.993  0.6962  0.3954 -0.0024
  758MOL0     C 2253  11.327   0.069   9.968 -0.7853  0.0248 -0.3966
  758MOL0     O 2254  11.462   0.060   9.931 -0.0650  0.1272  0.5174
  758MOL0     C 2255  11.515  -0.071   9.895  0.7984  0.7366  1.2287
  758MOL0     C 2256  11.455  -0.123   9.760 -1.7221  0.3789  0.3656
  758MOL0     C 2257  11.458  -0.021   9.653  0.0511  1.9177 -0.4208
  758MOL0     C 2258  11.327  -0.033   9.569 -0.4593  0.8297  0.0813
  758MOL0     C 2259  11.318  -0.160   9.497  1.1220 -0.2479  0.2227
  758MOL0     C 2260  11.308  -0.262   9.428  1.2207 -0.6189  0.1440
  758MOL0     C 2261  11.267   0.196   9.964 -0.1355 -0.7162  1.0687
  758MOL0     C 2262  11.127   0.218  10.006 -0.7091  0.6966 -0.3398
  758MOL0     H 2263  10.625   0.093   9.977 -2.5026 -0.8236  0.7688
  758MOL0     H 2264  10.424   0.198   9.919  1.6022 -0.5278 -0.2830
  758MOL0     H 2265  10.317   0.510  10.153  1.0632 -0.4060 -1.6527
  758MOL0     H 2266  10.327   0.629  10.027 -1.4648  0.6149  0.7926
  758MOL0     H 2267  10.089   0.453  10.021 -1.0174  0.8028 -2.1216
  758MOL0     H 2268  10.097   0.621  10.088  1.2119  1.5381 -1.1732
  758MOL0     H 2269  10.178   0.706   9.865 -1.3023  2.0458  0.0066
  758MOL0     H 2270  10.191   0.550   9.805 -0.0694  0.2389  0.1500
  758MOL0     H 2271   9.947   0.533   9.760 -1.5683 -0.2295  1.8038
  758MOL0     H 2272   9.919   0.619   9.904  0.3044 -3.1000  0.8094
  758MOL0     H 2273   9.854   0.772   9.717  1.0881  2.6642 -0.3095
  758MOL0     H 2274   9.974   0.838   9.819 -1.8046  0.4348  1.2106
  758MOL0     H 2275  10.159   0.753   9.655  0.8611  1.9569 -2.7951
  758MOL0     H 2276  10.029   0.695   9.551 -0.7255  1.7361 -1.7229
  758MOL0     H 2277  10.032   0.887   9.455  2.0800  0.7790 -0.6514
  758MOL0     H 2278   9.938   0.934   9.586  0.6706  0.2107  1.8430
  758MOL0     H 2279  10.119   1.077   9.513 -2.4572  0.2231  0.0664
  758MOL0     H 2280  10.236   0.991   9.595 -0.0196  0.1369  0.0022
  758MOL0     H 2281   9.987   1.242   9.656 -3.7024 -1.9557  0.1798
  758MOL0     H 2282  10.037   1.339  10.048 -1.7884 -1.6374  0.6433
  758MOL0     H 2283   9.999   1.426   9.896 -1.2705 -0.0684 -0.8622
  758MOL0     H 2284   9.785   1.246   9.883  1.5103 -0.9204 -1.4872
  758MOL0     H 2285   9.772   1.401   9.955  0.8623 -0.3040 -2.5039
  758MOL0     H 2286   9.826   1.292  10.186 -1.4413 -0.8703  1.1084
  758MOL0     H 2287   9.844   1.132  10.104 -1.9207 -0.7640 -1.0908
  758MOL0     H 2288   9.627   1.140  10.190  1.5553 -2.3061 -1.5226
  758MOL0     H 2289   9.586   1.205  10.028 -0.5623  0.1401  0.7292
  758MOL0     H 2290   9.446   1.546  10.240 -2.0852  0.9399 -0.9041
  758MOL0     H 2291   9.279   1.640  10.366  0.0689  3.3416 -0.8285
  758MOL0     H 2292   9.184   1.669  10.225  1.3196 -0.7806 -0.8585
  758MOL0     H 2293   9.099   1.595  10.354 -0.8750 -1.0424 -0.0919
  758MOL0     H 2294   8.877   1.032  10.351 -0.4167  0.7660 -1.2165
  758MOL0     H 2295   8.617   0.954  10.343 -0.5687 -1.4415 -1.4182
  758MOL0     H 2296   8.429   1.048  10.136 -2.1649  2.8723 -2.4007
  758MOL0     H 2297   8.397   0.954  10.276  1.2445  0.0049 -1.7075
  758MOL0     H 2298   8.168   0.992  10.260  0.3688  1.4871  2.5433
  758MOL0     H 2299   8.187   1.166  10.230  2.5566 -0.3949  0.7094
  758MOL0     H 2300   8.173   0.936  10.025 -3.0802  1.1664 -2.7453
  758MOL0     H 2301   8.250   1.091   9.981 -1.8129  5.0353 -0.0061
  758MOL0     H 2302   7.959   1.053  10.049 -1.3624  1.8409 -0.9819
  758MOL0     H 2303   8.028   1.213  10.034 -1.8205 -0.3518  1.4804
  758MOL0     H 2304   8.019   0.994   9.814  2.2279  0.3627 -3.2417
  758MOL0     H 2305   8.122   1.125   9.803  0.3023 -2.5094 -1.5358
  758MOL0     H 2306   7.818   1.129   9.829  2.5199 -3.5709  3.0603
  758MOL0     H 2307   7.909   1.279   9.844 -0.1229  0.1086 -0.7834
  758MOL0     H 2308   7.970   1.288   9.631 -1.3614  1.5970  0.6467
  758MOL0     H 2309   7.805   1.230   9.623  0.5033  0.0672 -2.6082
  758MOL0     H 2310   8.069   1.060   9.583 -0.1659 -4.4243 -3.4881
  758MOL0     H 2311   7.958   1.116   9.456 -0.1291  2.0616  0.9839
  758MOL0     H 2312   8.519   1.373  10.306  0.6596  1.1272  0.3787
  758MOL0     H 2313   8.760   1.431  10.332  0.2625  0.5173 -0.8627
  758MOL0     H 2314   9.188   1.129  10.217  0.9750 -1.3482  3.2527
  758MOL0     H 2315   9.412   1.122  10.158  0.6903  0.5107 -2.3039
  758MOL0     H 2316  10.565   0.572  10.086 -0.9061  0.2466  0.1951
  758MOL0     H 2317  10.781   0.456  10.122 -1.7909  0.6294  1.9097
  758MOL0     H 2318  11.042  -0.117  10.021 -0.0137  0.2518 -2.7288
  758MOL0     H 2319  11.274  -0.151  10.002  1.3966  0.5016 -0.8430
  758MOL0     H 2320  11.623  -0.050   9.891  0.6990  1.2208  0.9566
  758MOL0     H 2321  11.501  -0.147   9.971 -5.3277  0.3282  0.1766
  758MOL0     H 2322  11.352  -0.153   9.783 -1.2556 -2.7818 -1.0639
  758MOL0     H 2323  11.508  -0.210   9.720 -0.7486  1.7033 -1.3466
  758MOL0     H 2324  11.546  -0.033   9.589 -1.1270 -1.1845 -1.6387
  758MOL0     H 2325  11.461   0.079   9.697 -0.4735  1.7142  0.0917
  758MOL0     H 2326  11.321   0.049   9.497  0.4039  0.9624  0.1540
  758MOL0     H 2327  11.244  -0.029   9.641  0.8420 -1.6958  1.8643
  758MOL0     H 2328  11.306  -0.349   9.366 -1.5762 -0.2269 -0.4301
  758MOL0     H 2329  11.342   0.274   9.953  1.4359 -2.1124  1.4617
  758MOL0     H 2330  11.090   0.320  10.011  1.2986  1.4165  0.9507
  759MOL0     O 2331  10.393   3.117   6.971 -0.1329 -0.4043 -0.2647
  759MOL0     C 2332  10.326   3.151   7.074  0.0491 -0.9706  0.2713
  759MOL0     O 2333  10.372   3.227   7.182 -0.0009  0.2256  0.0036
  759MOL0     C 2334  10.509   3.236   7.190 -0.2560  1.2817 -0.7747
  759MOL0     C 2335  10.585   3.343   7.133  0.2483 -0.3066 -0.6024
  759MOL0     C 2336  10.720   3.355   7.150 -0.3278  0.6304 -0.4036
  759MOL0     C 2337  10.792   3.258   7.210 -0.8186  0.5551 -0.3097
  759MOL0     O 2338  10.930   3.264   7.217  0.0087 -0.0573 -0.1208
  759MOL0     C 2339  10.993   3.308   7.347  0.1529  0.8572  0.1588
  759MOL0     C 2340  11.113   3.232   7.399 -0.1505 -0.5406  0.4574
  759MOL0     C 2341  11.222   3.214   7.299  0.6658 -0.6782 -0.6531
  759MOL0     C 2342  11.241   3.058   7.279 -0.7230  0.5501  0.0006
  759MOL0     C 2343  11.334   3.026   7.159 -0.5937  0.1935 -1.0012
  759MOL0     C 2344  11.476   3.059   7.194 -0.6437 -0.2477  0.1046
  759MOL0     C 2345  11.575   3.053   7.080  0.2100  0.3715 -0.1331
  759MOL0     C 2346  11.719   3.100   7.103  1.0755 -0.5158  0.0901
  759MOL0     N 2347  11.773   3.039   7.227  0.2493 -0.6763  0.1321
  759MOL0     C 2348  11.744   3.065   7.359 -0.5016 -0.3861  0.1371
  759MOL0     C 2349  11.816   2.974   7.424  0.4388 -0.5693  0.2552
  759MOL0     C 2350  11.827   2.974   7.569 -0.1039 -0.1536 -0.5168
  759MOL0     C 2351  11.972   3.000   7.616 -0.4179  0.0141  0.2461
  759MOL0     C 2352  12.024   3.147   7.585  0.8754 -0.1997  0.2188
  759MOL0     C 2353  11.965   3.253   7.686  0.1201  0.2084 -0.0863
  759MOL0     O 2354  12.008   3.238   7.817 -0.3031  0.6610  0.4085
  759MOL0     C 2355  12.131   3.275   7.860 -1.3271 -0.4533  0.6704
  759MOL0     C 2356  12.243   3.326   7.780 -0.0229  0.3944  0.8596
  759MOL0     C 2357  12.364   3.360   7.844 -0.5250 -0.4253  0.5752
  759MOL0     C 2358  12.469   3.436   7.771 -0.2610 -0.2921  1.3286
  759MOL0     C 2359  12.373   3.346   7.982 -0.5097 -0.1294  0.7118
  759MOL0     C 2360  12.499   3.386   8.056 -0.8900  0.2694  0.0019
  759MOL0     O 2361  12.488   3.495   8.140 -0.7011 -0.1775  0.7228
  759MOL0     C 2362  12.594   3.525   8.211 -0.5716  0.8884 -0.1628
  759MOL0     C 2363  12.695   3.607   8.154 -0.4176 -0.3381  0.2962
  759MOL0     C 2364  12.819   3.625   8.215  0.7228 -0.2606 -0.3447
  759MOL0     C 2365  12.845   3.579   8.343 -1.0093  0.2771 -0.1303
  759MOL0     O 2366  12.948   3.615   8.421 -0.6247 -0.3490  0.2707
  759MOL0     C 2367  13.030   3.723   8.377  0.2318 -0.0056  1.2846
  759MOL0     C 2368  13.137   3.755   8.479  0.3081 -0.1043 -0.3247
  759MOL0     C 2369  13.057   3.818   8.589 -0.3223 -0.4171  1.0487
  759MOL0     C 2370  13.131   3.824   8.717  0.2827  0.8864 -0.0282
  759MOL0     C 2371  13.231   3.934   8.724 -1.0471 -0.7191 -0.7810
  759MOL0     C 2372  13.329   3.929   8.838  0.3321 -0.0875  0.7306
  759MOL0     C 2373  13.443   3.827   8.805  0.1622  0.5205  0.6270
  759MOL0     C 2374  13.516   3.779   8.929 -0.1628  0.0814  0.4074
  759MOL0    Cl 2375  13.583   3.912   9.038 -0.3734 -0.2627  0.1432
  759MOL0     C 2376  12.742   3.514   8.403  0.3822  0.7325  0.2859
  759MOL0     C 2377  12.623   3.468   8.336  0.3091  0.8927  1.0725
  759MOL0     O 2378  12.608   3.330   8.026  0.0439  0.3824  0.2528
  759MOL0     C 2379  12.271   3.296   8.061  0.1239 -0.6504 -0.0075
  759MOL0     C 2380  12.153   3.259   7.998  0.6638  0.4718  0.2952
  759MOL0     N 2381  11.898   2.897   7.334 -0.4451 -0.6461  0.6447
  759MOL0     N 2382  11.871   2.944   7.217  1.2113 -0.0791 -0.7565
  759MOL0     C 2383  10.723   3.142   7.249  1.0512  0.4354  0.3433
  759MOL0     C 2384  10.585   3.134   7.255 -1.0561 -0.4714 -0.1449
  759MOL0     C 2385  10.189   3.118   7.071 -0.2251 -0.1468 -0.7538
  759MOL0     C 2386  10.142   2.998   7.019  0.4543  0.4497  0.1340
  759MOL0     C 2387  10.007   2.962   7.011  0.4214 -0.3283 -0.5517
  759MOL0     C 2388   9.909   3.060   7.068  0.2165 -0.7762 -0.3662
  759MOL0     O 2389   9.776   3.051   7.054  0.4340 -0.0559  0.1882
  759MOL0     C 2390   9.725   2.935   6.996 -0.5232  0.0101  0.0271
  759MOL0     C 2391   9.709   2.819   7.102  0.1273 -0.0828 -0.4338
  759MOL0     C 2392   9.597   2.860   7.208  0.8109  0.1089 -0.0184
  759MOL0     C 2393   9.469   2.834   7.133  1.3386 -0.3021 -0.6010
  759MOL0     C 2394   9.355   2.811   7.216 -0.2468  0.2693 -0.5096
  759MOL0     C 2395   9.258   2.779   7.282 -0.0666  0.8441 -0.7421
  759MOL0     C 2396   9.954   3.176   7.128 -0.0393  0.3085 -0.9490
  759MOL0     C 2397  10.091   3.196   7.138  0.4391  0.3875 -0.6545
  759MOL0     H 2398  10.518   3.418   7.092 -1.3727 -1.1991  0.2897
  759MOL0     H 2399  10.774   3.443   7.116  1.2978 -0.2804 -0.2880
  759MOL0     H 2400  11.022   3.412   7.333 -1.0516  1.2730  0.6276
  759MOL0     H 2401  10.919   3.319   7.426  2.1341  1.1101  2.0714
  759MOL0     H 2402  11.161   3.288   7.480  4.4334  3.0214 -4.0235
  759MOL0     H 2403  11.079   3.134   7.431  2.5470 -2.1823 -1.2812
  759MOL0     H 2404  11.194   3.265   7.206 -2.7273  1.6301  1.4125
  759MOL0     H 2405  11.314   3.260   7.336  1.7832 -1.4359 -2.3317
  759MOL0     H 2406  11.265   3.007   7.373  1.2645 -0.4402 -0.9841
  759MOL0     H 2407  11.145   3.018   7.248 -0.5814 -2.5927  2.9887
  759MOL0     H 2408  11.336   2.918   7.143 -3.5644 -0.3146  1.1900
  759MOL0     H 2409  11.294   3.081   7.073  0.6732 -2.1220 -3.2062
  759MOL0     H 2410  11.479   3.162   7.228 -1.1000 -0.5531  1.0839
  759MOL0     H 2411  11.498   2.989   7.274 -1.7531 -0.7324  0.0082
  759MOL0     H 2412  11.593   2.953   7.040  3.1436  0.9461 -0.4477
  759MOL0     H 2413  11.538   3.103   6.990 -1.6230  2.4867  1.6717
  759MOL0     H 2414  11.723   3.209   7.097 -1.9781 -0.3767 -1.0024
  759MOL0     H 2415  11.776   3.071   7.014 -1.2036  3.0821 -2.8405
  759MOL0     H 2416  11.688   3.152   7.391  2.9323  1.7722  0.7647
  759MOL0     H 2417  11.765   3.050   7.617  0.3774  1.0252 -1.7006
  759MOL0     H 2418  11.798   2.871   7.593  1.9851 -0.9617 -1.2130
  759MOL0     H 2419  12.042   2.924   7.580  0.6952  1.0261  0.2087
  759MOL0     H 2420  11.968   2.987   7.724 -3.0862 -0.5686  0.1286
  759MOL0     H 2421  11.989   3.184   7.488 -1.1811  2.4123  1.8001
  759MOL0     H 2422  12.133   3.153   7.588  0.9499 -1.0981 -0.3254
  759MOL0     H 2423  11.856   3.247   7.675 -0.0662  0.3908  1.4756
  759MOL0     H 2424  11.996   3.352   7.650 -1.8239  0.9877  0.2700
  759MOL0     H 2425  12.230   3.347   7.675  1.4231 -0.5917  0.4547
  759MOL0     H 2426  12.566   3.387   7.768  0.5264  1.0838 -3.8891
  759MOL0     H 2427  12.447   3.451   7.665 -2.4672  0.6183  1.8467
  759MOL0     H 2428  12.479   3.537   7.814 -0.8999  1.5847 -2.5174
  759MOL0     H 2429  12.686   3.657   8.058 -0.8038  0.6284  0.8308
  759MOL0     H 2430  12.897   3.678   8.161  0.3178 -1.8953 -2.7253
  759MOL0     H 2431  13.087   3.691   8.289 -1.7570 -1.1912  0.3374
  759MOL0     H 2432  12.976   3.817   8.369 -3.0007 -1.4163  3.8542
  759MOL0     H 2433  13.176   3.659   8.515  0.3171 -1.1497 -2.8967
  759MOL0     H 2434  13.217   3.821   8.447 -0.3213  0.7765 -0.1052
  759MOL0     H 2435  12.958   3.772   8.595  0.0026 -1.3856 -0.4790
  759MOL0     H 2436  13.047   3.920   8.553 -0.7429 -0.3581  1.3326
  759MOL0     H 2437  13.052   3.824   8.792 -0.1611  1.2777 -0.4850
  759MOL0     H 2438  13.195   3.736   8.727  0.4037  0.7679 -1.5114
  759MOL0     H 2439  13.177   4.026   8.746  1.3258  0.4245  0.7146
  759MOL0     H 2440  13.282   3.945   8.628 -2.4299  2.6332 -1.2596
  759MOL0     H 2441  13.375   4.028   8.846  1.7250 -0.6069 -0.5142
  759MOL0     H 2442  13.266   3.901   8.923 -1.1216  1.2347  0.1434
  759MOL0     H 2443  13.509   3.872   8.731 -1.9296  3.4878  0.3980
  759MOL0     H 2444  13.397   3.738   8.762  0.7760 -1.4141  3.6483
  759MOL0     H 2445  13.601   3.716   8.902  0.2187  1.1995 -1.1103
  759MOL0     H 2446  13.448   3.709   8.978 -1.9675  0.2944 -1.6473
  759MOL0     H 2447  12.773   3.472   8.498 -2.9222  0.2297  1.2916
  759MOL0     H 2448  12.546   3.395   8.358  3.0678 -2.2732  1.0082
  759MOL0     H 2449  12.295   3.276   8.165  0.1860 -3.2152 -0.4457
  759MOL0     H 2450  12.069   3.224   8.058 -1.9009  0.9012 -2.7570
  759MOL0     H 2451  10.769   3.051   7.286 -0.0878 -1.0934 -1.8100
  759MOL0     H 2452  10.527   3.051   7.293 -3.8275  0.7625 -1.4040
  759MOL0     H 2453  10.224   2.930   6.996  1.7784  1.8004  0.6496
  759MOL0     H 2454   9.988   2.864   6.970  0.8296 -0.5966 -0.1035
  759MOL0     H 2455   9.626   2.968   6.962 -0.2143 -0.1710 -1.1164
  759MOL0     H 2456   9.784   2.899   6.911  1.5060  1.0070  0.9335
  759MOL0     H 2457   9.808   2.818   7.148  0.9913  1.3114 -2.1115
  759MOL0     H 2458   9.688   2.721   7.060 -0.0033 -0.2639  0.0551
  759MOL0     H 2459   9.591   2.960   7.252 -1.7749 -1.1013  2.7379
  759MOL0     H 2460   9.611   2.799   7.297  0.1205  0.5071  0.3701
  759MOL0     H 2461   9.470   2.743   7.072 -3.5093 -0.6509 -0.5824
  759MOL0     H 2462   9.446   2.912   7.059 -0.8561  0.1988  0.5349
  759MOL0     H 2463   9.178   2.743   7.344  0.6474  0.6346  0.0778
  759MOL0     H 2464   9.888   3.249   7.173  0.9126  0.8396 -0.4059
  759MOL0     H 2465  10.120   3.288   7.189  1.2758 -1.3972  2.4005
  760MOL0     O 2466  10.339   4.515   9.731  0.7212 -0.4618  0.2959
  760MOL0     C 2467  10.446   4.570   9.757 -0.5382  0.6370  0.2693
  760MOL0     O 2468  10.494   4.623   9.878 -0.5522  0.3636 -0.0040
  760MOL0     C 2469  10.469   4.564   9.999  0.5367  0.7786  0.1501
  760MOL0     C 2470  10.528   4.629  10.112  0.4983 -0.8123  0.0789
  760MOL0     C 2471  10.493   4.596  10.247  0.1571  0.5126  0.3103
  760MOL0     C 2472  10.384   4.507  10.276 -0.2015 -0.0003 -0.1121
  760MOL0     O 2473  10.354   4.455  10.401  0.3656 -0.3231 -0.2494
  760MOL0     C 2474  10.397   4.529  10.514  0.4333 -0.2490  0.5285
  760MOL0     C 2475  10.336   4.477  10.643  0.4011  0.4992 -0.6417
  760MOL0     C 2476  10.438   4.420  10.736 -0.6728 -0.1084 -0.1607
  760MOL0     C 2477  10.511   4.526  10.813  0.5895 -0.2817 -0.5002
  760MOL0     C 2478  10.587   4.476  10.940  0.1636  0.5729 -1.2143
  760MOL0     C 2479  10.700   4.376  10.914 -0.3026  0.3477 -0.3191
  760MOL0     C 2480  10.759   4.363  11.054 -0.4882  0.3855 -0.5740
  760MOL0     C 2481  10.902   4.311  11.037 -0.6838  0.8569 -0.1317
  760MOL0     N 2482  10.985   4.328  11.161  0.1288 -0.7676 -0.3917
  760MOL0     C 2483  10.978   4.284  11.292 -0.3021  0.4747  0.0464
  760MOL0     C 2484  11.079   4.349  11.359  0.4062  0.3336 -0.6641
  760MOL0     C 2485  11.114   4.323  11.500 -0.2718 -0.0656 -0.1514
  760MOL0     C 2486  11.154   4.177  11.540  0.8136 -0.4656 -0.1078
  760MOL0     C 2487  11.202   4.157  11.678 -0.6579 -0.7879 -0.3810
  760MOL0     C 2488  11.348   4.193  11.690 -0.6393  1.0843 -0.2411
  760MOL0     O 2489  11.366   4.185  11.835  0.3418 -0.2389  0.2650
  760MOL0     C 2490  11.487   4.220  11.885 -0.8011 -0.1787  0.1789
  760MOL0     C 2491  11.599   4.249  11.805 -0.1513  0.0890 -0.1962
  760MOL0     C 2492  11.716   4.294  11.862  0.5096  0.3154  0.4111
  760MOL0     C 2493  11.821   4.334  11.757  0.3467 -0.1544  0.9645
  760MOL0     C 2494  11.746   4.283  12.005 -0.7612  0.3913  0.7228
  760MOL0     C 2495  11.872   4.304  12.082  0.5122  0.1157  0.0565
  760MOL0     O 2496  11.869   4.294  12.224 -0.1570  0.8201 -0.5120
  760MOL0     C 2497  11.968   4.354  12.305  0.1288  0.1210  1.1629
  760MOL0     C 2498  11.932   4.381  12.438 -0.7818  0.6115 -0.0681
  760MOL0     C 2499  12.013   4.447  12.525 -0.1517 -0.9753  0.2147
  760MOL0     C 2500  12.137   4.490  12.481 -0.0377  0.3215 -1.2255
  760MOL0     O 2501  12.205   4.573  12.563  0.5919 -0.8288  0.3333
  760MOL0     C 2502  12.327   4.517  12.617 -0.1845 -0.2138  0.3123
  760MOL0     C 2503  12.353   4.542  12.766 -0.3539  0.3502  0.1693
  760MOL0     C 2504  12.497   4.575  12.804  0.6530  0.3757  0.1045
  760MOL0     C 2505  12.511   4.590  12.955 -0.1593 -0.9289 -0.4400
  760MOL0     C 2506  12.645   4.655  13.007 -0.4828  0.3158  0.2727
  760MOL0     C 2507  12.774   4.599  12.945 -0.2394  0.3773 -0.5276
  760MOL0     C 2508  12.799   4.448  12.954  0.1729  0.1948  0.0823
  760MOL0     C 2509  12.936   4.404  13.029 -0.0527  1.1181 -0.1799
  760MOL0    Cl 2510  13.002   4.244  12.981  0.1700  0.2873  0.3967
  760MOL0     C 2511  12.179   4.472  12.353 -0.1602  0.5023  0.0456
  760MOL0     C 2512  12.095   4.398  12.265 -0.0788  0.3727  0.6354
  760MOL0     O 2513  11.974   4.316  12.017  0.1534 -0.1553  0.0958
  760MOL0     C 2514  11.631   4.262  12.083  0.4078  0.1250  0.1166
  760MOL0     C 2515  11.503   4.230  12.024  0.1721  0.1250  0.1059
  760MOL0     N 2516  11.149   4.419  11.269  0.1977 -0.1250 -0.4523
  760MOL0     N 2517  11.092   4.399  11.161  0.2318 -0.7556 -0.2432
  760MOL0     C 2518  10.327   4.433  10.168 -0.1688  1.1133 -0.2701
  760MOL0     C 2519  10.362   4.464  10.033 -0.0676  0.2432  0.0830
  760MOL0     C 2520  10.544   4.599   9.640  0.2084 -0.2554  0.3410
  760MOL0     C 2521  10.682   4.650   9.647  1.7352 -0.5619 -0.1140
  760MOL0     C 2522  10.740   4.703   9.528  0.5332 -0.7659  0.2327
  760MOL0     C 2523  10.678   4.694   9.402 -0.4607 -0.1092  0.0521
  760MOL0     O 2524  10.740   4.727   9.285  0.1405 -0.8336  0.3671
  760MOL0     C 2525  10.658   4.813   9.206 -0.3074 -0.7402  0.5902
  760MOL0     C 2526  10.747   4.907   9.120 -0.3749 -0.3321  0.3913
  760MOL0     C 2527  10.803   5.036   9.195 -0.4089  0.1532  0.1684
  760MOL0     C 2528  10.864   5.121   9.085  0.0390  0.0603  0.0501
  760MOL0     C 2529  11.000   5.078   9.050  0.4013  1.1741  0.2480
  760MOL0     C 2530  11.113   5.047   9.009  0.9913 -0.9323  0.0901
  760MOL0     C 2531  10.550   4.631   9.406  0.6288  0.1163  0.3207
  760MOL0     C 2532  10.486   4.587   9.513  0.2158 -1.0564  0.1104
  760MOL0     H 2533  10.598   4.712  10.110 -0.0007 -0.3938 -0.2309
  760MOL0     H 2534  10.528   4.657  10.329 -2.3496  0.7250  1.3104
  760MOL0     H 2535  10.506   4.532  10.525  0.8735  0.4686 -3.0035
  760MOL0     H 2536  10.367   4.631  10.487  1.3520 -0.6750 -2.4099
  760MOL0     H 2537  10.272   4.553  10.688  1.5015  0.2708  1.4263
  760MOL0     H 2538  10.256   4.405  10.624  0.6740  0.3686 -1.3244
  760MOL0     H 2539  10.408   4.337  10.801  1.0847 -0.9503 -0.3519
  760MOL0     H 2540  10.507   4.360  10.675 -0.8275 -3.1967  2.4413
  760MOL0     H 2541  10.599   4.566  10.761  2.3317 -3.1314  0.0446
  760MOL0     H 2542  10.433   4.599  10.834  0.9457 -0.3238  1.0754
  760MOL0     H 2543  10.636   4.559  10.992  1.9898 -1.0822 -0.1514
  760MOL0     H 2544  10.520   4.433  11.015  0.5725 -2.1184 -2.3058
  760MOL0     H 2545  10.663   4.278  10.882 -0.2052 -0.0314  0.6975
  760MOL0     H 2546  10.772   4.421  10.844 -0.0327 -0.0196 -0.2774
  760MOL0     H 2547  10.760   4.455  11.113 -2.1010 -1.1399  2.0524
  760MOL0     H 2548  10.699   4.293  11.114  0.8119  0.2216  0.5828
  760MOL0     H 2549  10.959   4.356  10.954  0.9414  0.9550  0.9946
  760MOL0     H 2550  10.895   4.204  11.015  1.2027  1.0699 -2.2184
  760MOL0     H 2551  10.914   4.207  11.335 -0.2650 -0.3826 -1.3442
  760MOL0     H 2552  11.192   4.396  11.526 -3.9096  4.5778 -0.9869
  760MOL0     H 2553  11.025   4.346  11.558  1.2472  4.4469  0.8096
  760MOL0     H 2554  11.220   4.133  11.465  2.0691  1.0418  0.0743
  760MOL0     H 2555  11.060   4.120  11.538  0.9066 -0.6063 -0.7790
  760MOL0     H 2556  11.198   4.053  11.711  0.7431 -0.6907  0.1482
  760MOL0     H 2557  11.152   4.227  11.745  0.7443  1.1737 -1.2712
  760MOL0     H 2558  11.365   4.295  11.654  2.0145  0.8269  0.0969
  760MOL0     H 2559  11.405   4.121  11.631 -1.7263  0.9498 -1.1791
  760MOL0     H 2560  11.597   4.265  11.698 -1.3229 -0.3732 -0.2630
  760MOL0     H 2561  11.861   4.237  11.727 -0.0478  0.0388 -0.2415
  760MOL0     H 2562  11.787   4.390  11.669 -2.0475 -3.7176 -0.6419
  760MOL0     H 2563  11.907   4.387  11.799  0.2738  0.9501 -0.2052
  760MOL0     H 2564  11.829   4.368  12.469 -0.5993  2.2170  1.3446
  760MOL0     H 2565  11.976   4.464  12.625  4.1733 -0.3566  1.9426
  760MOL0     H 2566  12.333   4.412  12.589  1.2312  0.6581 -3.1081
  760MOL0     H 2567  12.406   4.561  12.556 -0.3723  1.0069  0.9046
  760MOL0     H 2568  12.290   4.626  12.795 -3.1711 -0.6331 -2.4880
  760MOL0     H 2569  12.315   4.461  12.830  2.3125  0.9299  2.6921
  760MOL0     H 2570  12.532   4.662  12.749  2.6294 -1.6102 -2.0225
  760MOL0     H 2571  12.556   4.491  12.765  0.4501  0.3195 -0.0803
  760MOL0     H 2572  12.428   4.648  12.995 -0.2545  1.6892 -3.9257
  760MOL0     H 2573  12.512   4.489  12.997 -4.7634 -0.9441  0.0984
  760MOL0     H 2574  12.659   4.639  13.115  2.0812 -0.0643 -0.0484
  760MOL0     H 2575  12.646   4.764  12.999  2.3991  0.3589 -0.0035
  760MOL0     H 2576  12.769   4.630  12.840  2.5871  1.0751 -0.5299
  760MOL0     H 2577  12.864   4.653  12.976 -1.3103  2.8342 -1.4509
  760MOL0     H 2578  12.778   4.409  12.854 -1.1215  2.4588 -0.6103
  760MOL0     H 2579  12.713   4.402  13.004 -0.1936 -2.0282 -2.3964
  760MOL0     H 2580  12.918   4.397  13.137 -0.6428  0.5530 -0.3032
  760MOL0     H 2581  13.002   4.488  13.004 -1.5933  2.5094  0.2721
  760MOL0     H 2582  12.274   4.511  12.316 -0.1643  1.1660  0.7061
  760MOL0     H 2583  12.135   4.382  12.166  2.0585  4.1836  0.6782
  760MOL0     H 2584  11.630   4.262  12.191  1.0329 -1.7619  0.1505
  760MOL0     H 2585  11.420   4.204  12.089  0.9119  2.6205  2.1817
  760MOL0     H 2586  10.251   4.361  10.196  1.1259  0.9716  3.5605
  760MOL0     H 2587  10.306   4.408   9.959 -1.2457 -1.5058  2.1727
  760MOL0     H 2588  10.721   4.668   9.747  0.4115  1.0858  0.1376
  760MOL0     H 2589  10.834   4.758   9.523 -0.3437  0.7516 -0.0352
  760MOL0     H 2590  10.590   4.763   9.138  1.0440  2.5120 -3.5769
  760MOL0     H 2591  10.598   4.879   9.270  2.0133 -2.1341  4.6318
  760MOL0     H 2592  10.674   4.936   9.044 -0.3295  0.2936  0.5789
  760MOL0     H 2593  10.825   4.849   9.072  0.0846 -1.1135  2.0044
  760MOL0     H 2594  10.884   5.008   9.263  2.0985  2.1104 -1.7854
  760MOL0     H 2595  10.722   5.089   9.245 -2.1442 -2.2030  0.0400
  760MOL0     H 2596  10.861   5.229   9.099 -4.1465  0.2908 -1.3685
  760MOL0     H 2597  10.799   5.121   8.997 -1.1045  1.3971  0.8489
  760MOL0     H 2598  11.211   5.031   8.969  0.8508 -2.7889  0.4066
  760MOL0     H 2599  10.496   4.625   9.312 -0.5512 -0.7288  1.0327
  760MOL0     H 2600  10.386   4.545   9.503 -0.6117  1.1871 -1.7425
  761MOL0     O 2601  11.419   3.879   2.228 -0.9349  0.5294 -0.4042
  761MOL0     C 2602  11.541   3.846   2.221 -0.9199 -1.0569 -1.0834
  761MOL0     O 2603  11.590   3.730   2.267 -0.1635 -0.6648 -0.3198
  761MOL0     C 2604  11.512   3.636   2.334  0.4758  0.0830  0.1585
  761MOL0     C 2605  11.395   3.588   2.260  0.4472 -0.6392  0.2876
  761MOL0     C 2606  11.332   3.473   2.306  0.5979 -0.6354 -0.7571
  761MOL0     C 2607  11.372   3.418   2.427  0.8359 -0.4806  1.2630
  761MOL0     O 2608  11.333   3.300   2.478  0.5873  0.2080 -0.6359
  761MOL0     C 2609  11.348   3.183   2.395  0.6387 -0.0334  0.7377
  761MOL0     C 2610  11.337   3.057   2.478 -0.9166 -0.1834  0.6762
  761MOL0     C 2611  11.472   3.050   2.560 -0.2817 -0.6784  0.1263
  761MOL0     C 2612  11.472   2.934   2.655 -0.4438 -0.1228 -0.0805
  761MOL0     C 2613  11.489   2.802   2.585 -0.9843 -0.1213  0.9746
  761MOL0     C 2614  11.478   2.677   2.671  0.5347 -0.4157 -0.8904
  761MOL0     C 2615  11.609   2.632   2.735  0.5934 -0.4488 -0.5978
  761MOL0     C 2616  11.607   2.491   2.797  1.0430 -0.0191 -0.0970
  761MOL0     N 2617  11.507   2.480   2.911 -0.2507  0.2743  0.8386
  761MOL0     C 2618  11.547   2.535   3.029  0.6553  0.6588 -0.2918
  761MOL0     C 2619  11.437   2.527   3.107 -1.1058 -0.6114  0.8167
  761MOL0     C 2620  11.438   2.590   3.238 -0.1507  0.3437 -1.5286
  761MOL0     C 2621  11.438   2.489   3.356  0.3801  0.1361  0.2959
  761MOL0     C 2622  11.470   2.552   3.495  0.1048 -0.0665  0.5121
  761MOL0     C 2623  11.579   2.653   3.497  0.1593  0.1666 -0.1148
  761MOL0     O 2624  11.587   2.676   3.640 -0.4168  0.3626  0.0452
  761MOL0     C 2625  11.684   2.757   3.678 -0.8353 -0.8209  0.0807
  761MOL0     C 2626  11.644   2.888   3.697 -0.4233 -0.9797  0.5427
  761MOL0     C 2627  11.744   2.974   3.756 -1.0958 -0.7270 -0.0894
  761MOL0     C 2628  11.694   3.110   3.804 -0.1784  0.1658 -0.7109
  761MOL0     C 2629  11.879   2.930   3.791 -0.3112  0.2299  0.8274
  761MOL0     C 2630  11.989   3.009   3.848 -0.2971 -0.7557  0.1179
  761MOL0     O 2631  11.984   3.144   3.827  0.0908  0.1343  0.1543
  761MOL0     C 2632  12.065   3.233   3.871  0.1351  0.2322 -0.3411
  761MOL0     C 2633  12.204   3.217   3.889  1.0297  0.3092  0.0194
  761MOL0     C 2634  12.289   3.323   3.938 -0.1608 -1.0009  0.7466
  761MOL0     C 2635  12.236   3.442   3.988  0.2012 -0.5156  0.2297
  761MOL0     O 2636  12.313   3.532   4.054 -0.3337 -0.4356 -0.6886
  761MOL0     C 2637  12.292   3.557   4.191 -0.8350 -0.2154 -0.1469
  761MOL0     C 2638  12.396   3.659   4.226  0.0398  0.0398  0.3694
  761MOL0     C 2639  12.545   3.620   4.212  0.0586 -0.0157  0.1635
  761MOL0     C 2640  12.635   3.718   4.279  0.4248 -0.2714 -0.5682
  761MOL0     C 2641  12.784   3.664   4.276 -0.6357 -0.8848 -1.3161
  761MOL0     C 2642  12.875   3.773   4.343  0.4555  0.5287  0.4025
  761MOL0     C 2643  13.021   3.770   4.305 -0.4765  0.3692  0.1675
  761MOL0     C 2644  13.094   3.675   4.408 -0.7121  0.1651 -0.3773
  761MOL0    Cl 2645  13.117   3.750   4.559  0.4722 -0.1706 -0.1143
  761MOL0     C 2646  12.092   3.452   3.991 -0.7699 -0.1302 -0.6236
  761MOL0     C 2647  12.018   3.354   3.925  0.2350 -0.1243  1.4728
  761MOL0     O 2648  12.080   2.948   3.915  0.5505 -1.0228 -0.0723
  761MOL0     C 2649  11.913   2.796   3.756  0.6223  1.0358  0.0355
  761MOL0     C 2650  11.814   2.705   3.708 -0.0747  0.5340  0.1054
  761MOL0     N 2651  11.341   2.467   3.032  1.1721 -0.4172 -0.3139
  761MOL0     N 2652  11.374   2.440   2.914 -0.6963 -0.1147  0.7048
  761MOL0     C 2653  11.485   3.469   2.494 -0.0395 -0.3522 -0.1804
  761MOL0     C 2654  11.564   3.579   2.450  0.4025 -0.8446 -0.6144
  761MOL0     C 2655  11.627   3.930   2.145 -1.0168  0.0063  0.0387
  761MOL0     C 2656  11.594   4.062   2.131  0.8037 -0.6970 -0.1489
  761MOL0     C 2657  11.675   4.153   2.051  0.5272  0.0668 -0.5518
  761MOL0     C 2658  11.780   4.096   1.980  0.0698 -0.2218 -0.8083
  761MOL0     O 2659  11.860   4.174   1.900 -0.5799 -0.0217  0.3050
  761MOL0     C 2660  11.847   4.315   1.878  0.2988 -0.5550 -0.9140
  761MOL0     C 2661  11.968   4.375   1.795 -0.2797  0.3972 -0.7315
  761MOL0     C 2662  11.951   4.338   1.647 -0.3631 -0.4329  0.1803
  761MOL0     C 2663  12.033   4.438   1.562  0.4024  1.0379  0.4832
  761MOL0     C 2664  12.032   4.368   1.426  0.6486 -1.2959 -0.2232
  761MOL0     C 2665  12.018   4.299   1.329 -0.9009  1.1292 -0.9948
  761MOL0     C 2666  11.807   3.961   1.992  0.2469  0.2004  0.1663
  761MOL0     C 2667  11.738   3.879   2.080  0.5512  0.4848  0.4426
  761MOL0     H 2668  11.362   3.623   2.163 -1.7364 -3.2257 -0.0208
  761MOL0     H 2669  11.254   3.420   2.252 -2.2965  1.9004  0.6936
  761MOL0     H 2670  11.262   3.193   2.329  1.5574  1.0228 -0.3532
  761MOL0     H 2671  11.445   3.188   2.345 -0.1273  1.1094 -0.7030
  761MOL0     H 2672  11.242   3.064   2.532 -1.1933  2.3244 -0.0006
  761MOL0     H 2673  11.329   2.981   2.400  0.2266  0.6728 -0.3147
  761MOL0     H 2674  11.553   3.062   2.487 -0.5698 -0.4467 -0.1573
  761MOL0     H 2675  11.477   3.138   2.625  0.3641 -1.6255  1.4172
  761MOL0     H 2676  11.560   2.942   2.719  1.6426  1.9486 -2.9250
  761MOL0     H 2677  11.377   2.932   2.710 -1.2432  0.8338 -1.3695
  761MOL0     H 2678  11.419   2.813   2.502 -1.1226  2.6794  1.3470
  761MOL0     H 2679  11.590   2.808   2.544 -0.5885  2.3506  2.1225
  761MOL0     H 2680  11.407   2.695   2.753 -0.2786  1.9715 -2.0327
  761MOL0     H 2681  11.448   2.597   2.603  3.2623 -0.5490 -2.0504
  761MOL0     H 2682  11.688   2.635   2.660  0.4794  0.2680 -0.6941
  761MOL0     H 2683  11.633   2.706   2.812 -2.0037  0.2744 -0.3938
  761MOL0     H 2684  11.710   2.469   2.827  0.6169 -1.1893  0.5828
  761MOL0     H 2685  11.584   2.415   2.722 -1.0571 -2.3006  2.5982
  761MOL0     H 2686  11.639   2.589   3.045  0.2261  0.9269  1.4694
  761MOL0     H 2687  11.519   2.663   3.245 -1.7167  1.9776  2.5459
  761MOL0     H 2688  11.346   2.650   3.239  0.4370  1.3112 -2.6931
  761MOL0     H 2689  11.519   2.416   3.349  1.6020  1.0357  3.2501
  761MOL0     H 2690  11.340   2.440   3.366  1.0724 -1.7016 -1.2103
  761MOL0     H 2691  11.496   2.474   3.567  3.0397  0.3137 -0.0066
  761MOL0     H 2692  11.375   2.596   3.528  1.0022  0.9292  1.8812
  761MOL0     H 2693  11.547   2.741   3.442  1.1883  1.1535  0.8172
  761MOL0     H 2694  11.671   2.604   3.463  1.1038  0.9277  1.2701
  761MOL0     H 2695  11.549   2.916   3.653  0.9898  1.1931 -1.4094
  761MOL0     H 2696  11.760   3.181   3.754  0.6717  0.6949  1.0716
  761MOL0     H 2697  11.588   3.121   3.779 -1.1949 -2.7845  1.6734
  761MOL0     H 2698  11.691   3.128   3.912 -0.4658 -1.8708 -0.3354
  761MOL0     H 2699  12.264   3.130   3.867  5.2790  2.8620  0.3304
  761MOL0     H 2700  12.396   3.312   3.934 -0.0861 -1.7221 -5.2998
  761MOL0     H 2701  12.193   3.592   4.221  0.8834  4.7139  0.7919
  761MOL0     H 2702  12.322   3.462   4.236  1.1124 -1.0882 -2.9334
  761MOL0     H 2703  12.377   3.746   4.161 -0.9475  1.3722  2.3361
  761MOL0     H 2704  12.382   3.688   4.330  1.0067 -0.9463  0.7907
  761MOL0     H 2705  12.577   3.612   4.108 -1.4806  0.6609 -0.3755
  761MOL0     H 2706  12.557   3.525   4.265  1.7584 -0.7745 -1.4545
  761MOL0     H 2707  12.626   3.815   4.229  2.1076  1.0754  1.5557
  761MOL0     H 2708  12.600   3.727   4.382  0.4436  1.0920 -0.6603
  761MOL0     H 2709  12.829   3.635   4.181 -0.9449 -0.8547 -1.4728
  761MOL0     H 2710  12.799   3.568   4.326 -0.3857 -1.6377 -2.7901
  761MOL0     H 2711  12.839   3.871   4.309  3.2161  2.0037  1.3968
  761MOL0     H 2712  12.865   3.782   4.451 -0.0075  6.0272  0.1758
  761MOL0     H 2713  13.056   3.873   4.293 -1.6581  0.5530 -2.2160
  761MOL0     H 2714  13.031   3.726   4.206 -1.2118  1.3657 -0.3627
  761MOL0     H 2715  13.190   3.657   4.359 -0.0601 -1.7118  1.4371
  761MOL0     H 2716  13.042   3.582   4.433 -0.3412  0.1946  0.5368
  761MOL0     H 2717  12.034   3.533   4.034 -2.4833 -1.1143 -0.9904
  761MOL0     H 2718  11.914   3.372   3.900  0.4020 -0.0260  0.8439
  761MOL0     H 2719  12.015   2.763   3.769  0.5464 -0.2056 -2.0984
  761MOL0     H 2720  11.824   2.598   3.699  2.8015  0.8406 -1.8152
  761MOL0     H 2721  11.522   3.412   2.578 -1.2863 -1.4589 -0.3498
  761MOL0     H 2722  11.658   3.604   2.497  0.7882 -0.8731 -1.3563
  761MOL0     H 2723  11.513   4.103   2.192 -1.6279 -2.0060 -2.2755
  761MOL0     H 2724  11.631   4.252   2.046  2.0121  1.4166  5.2558
  761MOL0     H 2725  11.755   4.344   1.827  0.2796  4.3768  1.3079
  761MOL0     H 2726  11.838   4.369   1.973 -1.8761 -0.8785 -0.8880
  761MOL0     H 2727  12.059   4.328   1.835 -2.8096 -4.1899  0.4773
  761MOL0     H 2728  11.961   4.484   1.798  1.6440  0.5590  2.5083
  761MOL0     H 2729  11.848   4.347   1.611 -0.1948  2.9811  0.2206
  761MOL0     H 2730  11.984   4.234   1.633 -2.5963 -1.2457  0.4907
  761MOL0     H 2731  12.133   4.452   1.603  0.2410  0.2262  1.1778
  761MOL0     H 2732  11.974   4.530   1.561  1.0399  1.5019  2.5427
  761MOL0     H 2733  11.992   4.230   1.251 -0.2748 -2.6275  1.8236
  761MOL0     H 2734  11.895   3.927   1.939  1.5441  1.9462  1.0760
  761MOL0     H 2735  11.757   3.773   2.095  1.5758  0.6100  0.1391
  762MOL0     O 2736   1.281   2.582   2.328  0.8882  0.2697 -0.3401
  762MOL0     C 2737   1.282   2.690   2.386  0.2755 -0.5704  0.5169
  762MOL0     O 2738   1.218   2.803   2.348 -0.0963 -0.3424  0.4614
  762MOL0     C 2739   1.164   2.821   2.221 -0.3565 -0.1689  0.1449
  762MOL0     C 2740   1.213   2.762   2.097  0.0586  0.1058 -0.5383
  762MOL0     C 2741   1.157   2.780   1.974  0.1191 -0.4611 -0.4876
  762MOL0     C 2742   1.035   2.862   1.962 -0.1851  0.2185 -0.5312
  762MOL0     O 2743   0.949   2.892   1.861  0.3975 -0.2872 -0.0797
  762MOL0     C 2744   0.984   2.825   1.741 -0.1608  0.0533 -0.7013
  762MOL0     C 2745   0.862   2.844   1.654 -0.7934  0.6076 -0.8133
  762MOL0     C 2746   0.876   2.772   1.526 -0.0849  0.5108  0.4738
  762MOL0     C 2747   0.770   2.786   1.424 -0.1971 -0.2737  0.1938
  762MOL0     C 2748   0.814   2.706   1.307 -0.0492 -0.0093  0.2218
  762MOL0     C 2749   0.705   2.700   1.193  0.5727 -0.2869 -0.4231
  762MOL0     C 2750   0.753   2.623   1.072  0.0397 -0.1539 -0.5971
  762MOL0     C 2751   0.656   2.615   0.955  0.4156 -0.2523  0.2721
  762MOL0     N 2752   0.661   2.740   0.874 -0.2171  0.1024 -0.1035
  762MOL0     C 2753   0.769   2.780   0.792  0.0925  0.3013 -0.7546
  762MOL0     C 2754   0.722   2.890   0.727  0.3527  0.4111 -0.5047
  762MOL0     C 2755   0.792   2.974   0.635 -0.6333 -0.2715 -0.4704
  762MOL0     C 2756   0.781   2.917   0.494  0.5868  0.3720 -0.4439
  762MOL0     C 2757   0.815   3.026   0.392 -0.3547 -0.7643 -0.3202
  762MOL0     C 2758   0.832   2.968   0.258  0.7625 -0.5237 -0.5859
  762MOL0     O 2759   0.694   2.932   0.224  0.5461 -0.1336 -0.2697
  762MOL0     C 2760   0.660   2.870   0.108 -0.1657  0.0875  0.7550
  762MOL0     C 2761   0.521   2.827   0.085 -0.5173 -0.9712  0.3102
  762MOL0     C 2762   0.468   2.772  -0.032 -0.6616 -0.8824 -0.2032
  762MOL0     C 2763   0.319   2.735  -0.030 -0.3614  0.4599 -0.0698
  762MOL0     C 2764   0.564   2.714  -0.124  0.4357 -0.3080 -0.2551
  762MOL0     C 2765   0.529   2.629  -0.241 -0.6294  0.5165 -0.6115
  762MOL0     O 2766   0.402   2.629  -0.286 -0.0174  0.2370  0.4857
  762MOL0     C 2767   0.377   2.585  -0.409 -0.2816 -0.2692  1.0293
  762MOL0     C 2768   0.324   2.674  -0.504  0.4516  0.5610 -0.1712
  762MOL0     C 2769   0.266   2.622  -0.622 -0.7912  0.1008 -1.2608
  762MOL0     C 2770   0.264   2.484  -0.656  0.5967 -0.1225  0.3299
  762MOL0     O 2771   0.203   2.430  -0.770  0.5463  0.2975  0.0206
  762MOL0     C 2772   0.140   2.506  -0.870  0.0607 -0.5403  1.2940
  762MOL0     C 2773   0.127   2.421  -1.000  0.2882 -0.1989 -0.9184
  762MOL0     C 2774   0.256   2.399  -1.074  0.1642 -0.0517 -0.1337
  762MOL0     C 2775   0.234   2.347  -1.206  0.9916 -0.5973 -0.0816
  762MOL0     C 2776   0.201   2.199  -1.207  0.4591  0.8070  0.3426
  762MOL0     C 2777   0.192   2.144  -1.342 -0.4228 -0.4945  0.0139
  762MOL0     C 2778   0.151   1.993  -1.338  0.4170  0.3853 -0.2199
  762MOL0     C 2779   0.129   1.932  -1.473  1.2863  0.3394  0.2494
  762MOL0    Cl 2780   0.285   1.886  -1.546  0.1675 -0.3725 -0.0467
  762MOL0     C 2781   0.312   2.397  -0.555 -0.6989  0.6365  1.3758
  762MOL0     C 2782   0.361   2.446  -0.436 -1.6535  0.0853  0.6013
  762MOL0     O 2783   0.620   2.562  -0.300 -0.2219 -0.2355 -0.3669
  762MOL0     C 2784   0.694   2.767  -0.115 -0.0562 -0.1253  0.1033
  762MOL0     C 2785   0.741   2.841  -0.004  0.3381  0.8950 -0.4147
  762MOL0     N 2786   0.587   2.903   0.766 -0.9020 -0.2602  1.4007
  762MOL0     N 2787   0.549   2.818   0.850 -0.1240 -0.1665  0.0819
  762MOL0     C 2788   0.995   2.922   2.082  0.2402 -0.9292 -0.5895
  762MOL0     C 2789   1.066   2.910   2.208 -0.4056 -1.2882  0.4620
  762MOL0     C 2790   1.368   2.691   2.515  0.3265  0.2603 -1.0159
  762MOL0     C 2791   1.375   2.814   2.590  0.0941  0.3694 -0.0714
  762MOL0     C 2792   1.452   2.831   2.702  0.6982 -0.4262  0.8210
  762MOL0     C 2793   1.513   2.720   2.755 -0.9402 -0.8198 -0.9915
  762MOL0     O 2794   1.588   2.740   2.870 -0.2192  0.0078  0.2625
  762MOL0     C 2795   1.669   2.627   2.918 -0.1218  0.3909 -0.4725
  762MOL0     C 2796   1.595   2.519   3.008 -0.2808  0.4623  0.7663
  762MOL0     C 2797   1.548   2.580   3.146 -0.0218  0.5125 -0.1297
  762MOL0     C 2798   1.500   2.459   3.236  0.2350 -0.1119  0.1344
  762MOL0     C 2799   1.608   2.387   3.297 -0.4155  0.6727 -0.5198
  762MOL0     C 2800   1.703   2.332   3.355 -0.2750  0.6568 -0.3929
  762MOL0     C 2801   1.494   2.597   2.687  0.1591 -0.8777 -0.8439
  762MOL0     C 2802   1.429   2.580   2.569  0.7013  0.3069  0.4697
  762MOL0     H 2803   1.308   2.714   2.116 -1.0344 -2.2082 -0.5141
  762MOL0     H 2804   1.201   2.733   1.886  1.8440  5.1716 -3.0779
  762MOL0     H 2805   1.079   2.866   1.704  1.3008 -2.8851 -0.4501
  762MOL0     H 2806   0.991   2.719   1.768  0.7946  1.0123  3.5918
  762MOL0     H 2807   0.779   2.808   1.715  0.6085 -2.1758 -0.4056
  762MOL0     H 2808   0.846   2.949   1.630  1.6085  1.7786  2.2219
  762MOL0     H 2809   0.968   2.819   1.490 -0.6826  0.4471 -1.1789
  762MOL0     H 2810   0.889   2.665   1.543  1.1200  0.5317 -0.2157
  762MOL0     H 2811   0.672   2.745   1.453 -0.8969  1.9032  1.1242
  762MOL0     H 2812   0.759   2.893   1.404 -0.5869 -0.8485 -3.2208
  762MOL0     H 2813   0.914   2.745   1.288  0.2431  0.1029  1.8399
  762MOL0     H 2814   0.827   2.603   1.341 -2.3575  0.3119  2.3829
  762MOL0     H 2815   0.620   2.649   1.240  0.3489  2.2600  2.2725
  762MOL0     H 2816   0.660   2.797   1.166 -2.3938 -1.6177 -0.7112
  762MOL0     H 2817   0.842   2.680   1.042 -0.4264 -0.7941 -3.5002
  762MOL0     H 2818   0.778   2.528   1.119  0.0879  0.7301  1.2566
  762MOL0     H 2819   0.552   2.603   0.986  0.6327 -0.7673  0.8005
  762MOL0     H 2820   0.682   2.527   0.895 -0.3442 -3.0111  3.6419
  762MOL0     H 2821   0.866   2.732   0.788  1.6504  2.9230  1.3252
  762MOL0     H 2822   0.748   3.074   0.630 -0.5136 -0.1725  0.2418
  762MOL0     H 2823   0.895   2.975   0.672 -0.6940 -2.8246 -0.0378
  762MOL0     H 2824   0.679   2.882   0.482  0.3677  0.8001  0.1327
  762MOL0     H 2825   0.853   2.835   0.485 -0.6822 -0.8990  0.5932
  762MOL0     H 2826   0.914   3.064   0.418 -2.2109  1.8169  4.1022
  762MOL0     H 2827   0.737   3.101   0.376 -0.0322 -0.4877 -0.6122
  762MOL0     H 2828   0.906   2.888   0.249  3.0516  1.1339  1.9354
  762MOL0     H 2829   0.868   3.048   0.193  0.8448  1.7131  2.0190
  762MOL0     H 2830   0.442   2.854   0.154 -0.4328  3.6895 -1.0427
  762MOL0     H 2831   0.318   2.625  -0.034 -1.7513  0.3374  2.2037
  762MOL0     H 2832   0.263   2.766   0.059 -0.8592  3.1511 -1.2259
  762MOL0     H 2833   0.259   2.775  -0.113  1.2182  2.4297 -0.3359
  762MOL0     H 2834   0.322   2.779  -0.478 -0.8615  0.4478  0.2366
  762MOL0     H 2835   0.238   2.694  -0.698  0.9996 -2.2547 -4.4158
  762MOL0     H 2836   0.039   2.539  -0.843  0.1700  1.1120 -0.1219
  762MOL0     H 2837   0.196   2.597  -0.895 -1.5335  0.0810 -0.2695
  762MOL0     H 2838   0.093   2.325  -0.960  0.2480  0.9490  2.0998
  762MOL0     H 2839   0.051   2.466  -1.064 -1.6313 -1.9880 -0.0196
  762MOL0     H 2840   0.330   2.339  -1.021  0.4599  1.2855  1.0391
  762MOL0     H 2841   0.304   2.497  -1.083 -1.1944  1.0702  3.0902
  762MOL0     H 2842   0.153   2.409  -1.246  1.3361 -0.4219 -0.5104
  762MOL0     H 2843   0.318   2.371  -1.271 -0.3386 -0.6194 -1.8829
  762MOL0     H 2844   0.097   2.182  -1.177  1.4899 -2.8742  2.4847
  762MOL0     H 2845   0.270   2.142  -1.144 -2.0386 -2.0243  0.7621
  762MOL0     H 2846   0.129   2.198  -1.413 -0.5933 -0.2295  0.3649
  762MOL0     H 2847   0.293   2.150  -1.384 -0.2730 -1.3285  0.2342
  762MOL0     H 2848   0.068   1.977  -1.268  0.0478  1.6391 -0.3423
  762MOL0     H 2849   0.229   1.928  -1.299  0.0277 -0.8498 -1.4310
  762MOL0     H 2850   0.071   2.007  -1.528  1.1705 -0.7413 -1.1343
  762MOL0     H 2851   0.063   1.847  -1.451 -0.9623  2.5691  3.0605
  762MOL0     H 2852   0.306   2.289  -0.559 -0.5629  0.6311  1.3204
  762MOL0     H 2853   0.385   2.388  -0.347  0.9719 -0.2824 -0.2740
  762MOL0     H 2854   0.765   2.749  -0.195 -0.3809 -0.7405 -0.0554
  762MOL0     H 2855   0.849   2.848  -0.001  0.4607 -0.2594 -1.2597
  762MOL0     H 2856   0.909   2.988   2.080  2.1662  1.7678 -0.9511
  762MOL0     H 2857   1.034   2.959   2.300 -0.0854 -3.2927  1.7013
  762MOL0     H 2858   1.314   2.895   2.551 -1.3068 -0.5756  0.0846
  762MOL0     H 2859   1.463   2.921   2.762  1.6364 -0.3661  0.5762
  762MOL0     H 2860   1.712   2.572   2.833 -0.3515 -1.6723  0.6731
  762MOL0     H 2861   1.759   2.658   2.972  1.4856 -2.8503 -1.0324
  762MOL0     H 2862   1.666   2.438   3.024 -0.7860 -0.4094 -1.0551
  762MOL0     H 2863   1.512   2.475   2.951  0.3330  2.0242 -1.4808
  762MOL0     H 2864   1.462   2.647   3.140 -1.5902 -1.4306 -0.4637
  762MOL0     H 2865   1.638   2.630   3.185  0.7578 -2.8115  2.7943
  762MOL0     H 2866   1.455   2.382   3.173 -0.0272  0.8931 -0.9367
  762MOL0     H 2867   1.423   2.499   3.303 -2.1942  0.4924 -2.7790
  762MOL0     H 2868   1.785   2.278   3.398 -3.4247 -1.9414  2.9486
  762MOL0     H 2869   1.540   2.512   2.735  1.0229  0.4247  0.7529
  762MOL0     H 2870   1.404   2.486   2.522 -0.7309  0.9415 -0.0807
  763MOL0     O 2871  10.898   4.521   7.523  0.1413 -0.4206 -0.2825
  763MOL0     C 2872  10.889   4.434   7.611 -0.0875 -0.8325 -0.6186
  763MOL0     O 2873  10.994   4.350   7.648  0.5986  0.3911  0.8334
  763MOL0     C 2874  11.110   4.365   7.587  0.5628 -0.7589 -0.0768
  763MOL0     C 2875  11.182   4.484   7.609  0.4950  0.8764 -0.9895
  763MOL0     C 2876  11.294   4.502   7.537  0.1060  0.7999  0.3045
  763MOL0     C 2877  11.330   4.408   7.442  0.0861  0.3644  0.5206
  763MOL0     O 2878  11.437   4.455   7.374 -0.1862  0.2947  0.1201
  763MOL0     C 2879  11.464   4.418   7.241  0.4045 -0.5112  0.7311
  763MOL0     C 2880  11.561   4.519   7.163  0.5864  0.5989 -0.3917
  763MOL0     C 2881  11.607   4.457   7.039 -0.5758 -0.7244  0.2506
  763MOL0     C 2882  11.708   4.532   6.964 -0.2553 -0.6839 -0.0688
  763MOL0     C 2883  11.761   4.457   6.844 -0.4633 -0.4142  0.6186
  763MOL0     C 2884  11.656   4.396   6.750  0.7791 -0.3128 -0.2939
  763MOL0     C 2885  11.715   4.373   6.610  0.4547  0.1085  0.0407
  763MOL0     C 2886  11.816   4.262   6.624  0.0704  0.2840  0.5278
  763MOL0     N 2887  11.839   4.173   6.512 -0.0540 -0.2294 -0.2402
  763MOL0     C 2888  11.930   4.080   6.509 -1.1701  0.0175  1.2517
  763MOL0     C 2889  11.936   4.016   6.387 -0.5749 -0.4731  0.0695
  763MOL0     C 2890  12.020   3.891   6.345  0.4638 -0.2722  0.6252
  763MOL0     C 2891  12.175   3.904   6.374 -0.0561  0.1303 -0.5669
  763MOL0     C 2892  12.254   4.003   6.285 -0.5318 -0.5396 -0.4480
  763MOL0     C 2893  12.262   4.144   6.351 -0.4551 -0.5777 -0.4405
  763MOL0     O 2894  12.356   4.150   6.464  0.1148 -0.2032  0.0965
  763MOL0     C 2895  12.354   4.252   6.551  0.9346 -0.2172  0.9649
  763MOL0     C 2896  12.277   4.373   6.539 -0.1503 -0.0375  0.2257
  763MOL0     C 2897  12.273   4.475   6.635  1.3655 -0.2271 -0.0170
  763MOL0     C 2898  12.188   4.601   6.595  0.0334  0.7027  0.3842
  763MOL0     C 2899  12.338   4.448   6.765 -0.7382  0.3373  0.7913
  763MOL0     C 2900  12.344   4.536   6.885  0.3605  0.8248  0.1742
  763MOL0     O 2901  12.399   4.482   7.005  1.1606  0.0506  0.5884
  763MOL0     C 2902  12.406   4.559   7.118 -0.0185 -0.0313  0.6181
  763MOL0     C 2903  12.531   4.620   7.147 -0.2968  0.8275 -0.2524
  763MOL0     C 2904  12.560   4.676   7.273  0.0194 -0.2671  0.6435
  763MOL0     C 2905  12.457   4.683   7.381 -1.6231  0.7087  0.1709
  763MOL0     O 2906  12.474   4.749   7.505  0.0430  0.0736 -0.3743
  763MOL0     C 2907  12.603   4.756   7.559  0.6083 -0.7088  0.9115
  763MOL0     C 2908  12.592   4.792   7.701 -0.1010 -0.6120 -0.5108
  763MOL0     C 2909  12.561   4.674   7.805 -1.2689  0.1465  0.0956
  763MOL0     C 2910  12.583   4.731   7.942 -0.0728 -0.6459 -0.5158
  763MOL0     C 2911  12.572   4.637   8.055 -0.4119 -0.0824  0.0973
  763MOL0     C 2912  12.612   4.702   8.190 -0.7325  0.1758  1.2460
  763MOL0     C 2913  12.646   4.597   8.300 -0.2291 -0.3632 -0.1662
  763MOL0     C 2914  12.727   4.656   8.419  0.0532  0.4123 -0.1028
  763MOL0    Cl 2915  12.898   4.721   8.377  0.3129  0.2014  0.2806
  763MOL0     C 2916  12.336   4.612   7.355  0.1777 -0.8461 -0.0154
  763MOL0     C 2917  12.313   4.553   7.229  0.0735 -0.6894  0.1333
  763MOL0     O 2918  12.286   4.644   6.876 -0.1329  0.2323  0.7261
  763MOL0     C 2919  12.424   4.331   6.768  0.6227 -0.5934 -0.0995
  763MOL0     C 2920  12.443   4.242   6.666  1.2069 -0.2594  0.6324
  763MOL0     N 2921  11.841   4.084   6.315  0.9077  0.9484  0.1168
  763MOL0     N 2922  11.789   4.176   6.385 -0.3767 -0.0043 -0.7110
  763MOL0     C 2923  11.261   4.289   7.427 -0.5324 -0.3852 -0.6590
  763MOL0     C 2924  11.154   4.264   7.508  0.4748  0.2793  1.0959
  763MOL0     C 2925  10.766   4.413   7.679  0.1274  0.6375 -0.6284
  763MOL0     C 2926  10.677   4.513   7.694 -0.5128 -0.7044 -0.6901
  763MOL0     C 2927  10.548   4.487   7.745  0.6172 -0.9762  0.2183
  763MOL0     C 2928  10.511   4.361   7.794  0.3720 -0.4477 -0.4383
  763MOL0     O 2929  10.398   4.336   7.856 -0.0898 -0.0712  0.3211
  763MOL0     C 2930  10.329   4.210   7.844 -0.6268  0.5753  0.0532
  763MOL0     C 2931  10.180   4.231   7.844 -0.1800 -0.0983  0.0374
  763MOL0     C 2932  10.125   4.261   7.706 -0.8087  0.7267 -0.5310
  763MOL0     C 2933   9.984   4.304   7.734  0.7394 -0.1349 -0.6586
  763MOL0     C 2934   9.906   4.180   7.734  1.1533  1.4910  0.1194
  763MOL0     C 2935   9.850   4.073   7.736 -1.4472 -1.0931 -0.2741
  763MOL0     C 2936  10.604   4.272   7.792  0.7057  0.9748 -0.2090
  763MOL0     C 2937  10.729   4.291   7.739 -0.0289  0.1160 -0.1844
  763MOL0     H 2938  11.139   4.550   7.684  1.1704  0.4203 -0.1766
  763MOL0     H 2939  11.352   4.593   7.547 -1.3811  1.7246  0.8407
  763MOL0     H 2940  11.498   4.315   7.226 -0.3260 -0.5536 -0.8544
  763MOL0     H 2941  11.368   4.424   7.189 -0.1979 -3.5246  1.2947
  763MOL0     H 2942  11.516   4.615   7.137  1.0230  0.3496 -2.1806
  763MOL0     H 2943  11.646   4.543   7.228  1.5763 -0.6934 -1.1540
  763MOL0     H 2944  11.658   4.363   7.061  0.1171 -0.2238  0.8269
  763MOL0     H 2945  11.525   4.450   6.967  2.7391  0.3418 -4.0599
  763MOL0     H 2946  11.664   4.626   6.928  2.1938  0.8330  0.6737
  763MOL0     H 2947  11.789   4.566   7.030  0.7498  0.9241 -2.0303
  763MOL0     H 2948  11.803   4.538   6.784 -0.1288 -0.5667  0.6415
  763MOL0     H 2949  11.857   4.403   6.848  2.1619  3.6920 -0.7502
  763MOL0     H 2950  11.612   4.304   6.791  0.0658 -1.1833 -2.8308
  763MOL0     H 2951  11.573   4.466   6.739 -0.1722 -1.7023 -2.4497
  763MOL0     H 2952  11.647   4.353   6.527  0.3210 -0.1787  0.2200
  763MOL0     H 2953  11.776   4.457   6.576 -0.6681  0.6077 -0.7990
  763MOL0     H 2954  11.797   4.214   6.720 -3.5049  2.6778  1.2514
  763MOL0     H 2955  11.909   4.316   6.643  0.5260  0.3155 -1.5412
  763MOL0     H 2956  11.977   4.032   6.594 -1.1147  1.0275  1.7930
  763MOL0     H 2957  11.985   3.812   6.412 -0.2337  1.2653  2.1584
  763MOL0     H 2958  12.022   3.873   6.238  2.4931  2.2266  0.1263
  763MOL0     H 2959  12.233   3.812   6.371  3.0338  1.9276 -3.6154
  763MOL0     H 2960  12.181   3.926   6.481 -2.8496  0.4944 -0.4063
  763MOL0     H 2961  12.213   4.017   6.185  0.2118  3.8072 -0.3025
  763MOL0     H 2962  12.358   3.970   6.279 -0.7948 -1.0725 -2.9078
  763MOL0     H 2963  12.164   4.165   6.395  1.2420  2.0617  2.4364
  763MOL0     H 2964  12.288   4.230   6.289 -0.2388  0.5411  1.1311
  763MOL0     H 2965  12.241   4.393   6.439  0.0608 -1.7384 -0.2047
  763MOL0     H 2966  12.112   4.619   6.672 -0.6603 -1.2342  0.2153
  763MOL0     H 2967  12.245   4.692   6.577  0.0505  0.6116 -0.0257
  763MOL0     H 2968  12.138   4.578   6.501 -1.0195  1.2567  0.7957
  763MOL0     H 2969  12.603   4.622   7.066 -1.9510 -4.4326 -2.3531
  763MOL0     H 2970  12.649   4.735   7.293 -1.9510  3.2516 -0.0226
  763MOL0     H 2971  12.654   4.660   7.554  1.3675 -0.4648  2.8292
  763MOL0     H 2972  12.657   4.835   7.505 -2.0974 -1.4665 -3.3711
  763MOL0     H 2973  12.695   4.817   7.727  0.4760 -1.9082 -1.4289
  763MOL0     H 2974  12.540   4.884   7.729  1.3778 -0.0969  0.6868
  763MOL0     H 2975  12.634   4.597   7.779 -3.6043 -2.1480 -0.0892
  763MOL0     H 2976  12.460   4.634   7.792 -1.0816  0.1265 -1.5680
  763MOL0     H 2977  12.679   4.783   7.952 -2.1678  3.2812  1.4018
  763MOL0     H 2978  12.510   4.808   7.965  3.8220  2.9607  0.9443
  763MOL0     H 2979  12.634   4.551   8.026  0.5305  0.7425 -0.3903
  763MOL0     H 2980  12.469   4.601   8.063 -0.2700 -0.3296  0.8647
  763MOL0     H 2981  12.704   4.753   8.160 -0.0177 -2.6290 -1.9877
  763MOL0     H 2982  12.535   4.766   8.234 -0.4571  0.8203  0.8000
  763MOL0     H 2983  12.713   4.517   8.265  0.9717 -1.2486  3.6238
  763MOL0     H 2984  12.559   4.542   8.337 -0.1043 -0.0966  0.5279
  763MOL0     H 2985  12.730   4.572   8.489 -0.1573 -0.9776 -1.6975
  763MOL0     H 2986  12.674   4.738   8.468 -1.0161 -0.8512  0.9232
  763MOL0     H 2987  12.253   4.597   7.424 -3.3240  3.4758 -2.7018
  763MOL0     H 2988  12.218   4.505   7.206  0.9634 -1.3524 -2.5424
  763MOL0     H 2989  12.473   4.311   6.863  1.6292  1.9662  0.0002
  763MOL0     H 2990  12.516   4.162   6.669 -0.2185 -1.6454 -0.1314
  763MOL0     H 2991  11.298   4.208   7.365  0.1299 -2.3431  2.0701
  763MOL0     H 2992  11.094   4.174   7.505  1.8586 -0.6513 -1.2479
  763MOL0     H 2993  10.698   4.605   7.640  2.4511 -1.0478 -0.3067
  763MOL0     H 2994  10.478   4.569   7.734 -2.2528 -3.2795  0.1550
  763MOL0     H 2995  10.356   4.160   7.750 -1.1803 -1.9239  1.1460
  763MOL0     H 2996  10.351   4.145   7.929 -2.0578  0.9067  0.6985
  763MOL0     H 2997  10.152   4.300   7.924  1.7415  0.8226 -0.0343
  763MOL0     H 2998  10.132   4.135   7.865  1.5070 -0.4973  2.4778
  763MOL0     H 2999  10.137   4.176   7.639 -4.8632  1.1251 -2.0776
  763MOL0     H 3000  10.182   4.340   7.656  2.6570 -1.0303  0.3807
  763MOL0     H 3001   9.951   4.356   7.642  0.2105  1.6496  0.4789
  763MOL0     H 3002   9.952   4.364   7.820 -0.6066 -0.3653 -0.9693
  763MOL0     H 3003   9.816   3.971   7.738 -3.2195 -0.6339  4.0879
  763MOL0     H 3004  10.582   4.174   7.834 -3.1974  1.8532  0.1682
  763MOL0     H 3005  10.805   4.213   7.738  1.2409  1.3178 -0.3599
  764MOL0     O 3006   1.270   7.616  10.038 -0.0471 -0.1689  0.3503
  764MOL0     C 3007   1.235   7.726   9.999  0.5567 -0.6311  0.1765
  764MOL0     O 3008   1.312   7.813   9.922  0.2137  0.0580 -0.0736
  764MOL0     C 3009   1.439   7.780   9.890 -0.3414  0.9904 -0.0388
  764MOL0     C 3010   1.474   7.662   9.821  0.2296 -0.1181 -0.4901
  764MOL0     C 3011   1.604   7.636   9.790  0.2544 -0.7372 -0.2104
  764MOL0     C 3012   1.700   7.731   9.811 -0.4750  1.0549  0.4071
  764MOL0     O 3013   1.824   7.737   9.758 -0.2370  0.0851  0.5163
  764MOL0     C 3014   1.906   7.615   9.772 -0.6602 -0.4067  0.3992
  764MOL0     C 3015   1.969   7.581   9.638  0.2921 -0.1652 -0.1960
  764MOL0     C 3016   2.065   7.691   9.587  0.5780 -0.0816 -0.1947
  764MOL0     C 3017   2.186   7.631   9.514  0.6217  1.1665 -0.7175
  764MOL0     C 3018   2.134   7.564   9.384  0.1003  0.2257 -0.8127
  764MOL0     C 3019   2.235   7.548   9.288  0.1436 -0.0955 -0.2716
  764MOL0     C 3020   2.168   7.495   9.158 -0.2060 -0.1640 -0.4715
  764MOL0     C 3021   2.267   7.532   9.038  0.2923  0.0819  0.0158
  764MOL0     N 3022   2.253   7.673   8.984 -0.4876  0.2656  0.2920
  764MOL0     C 3023   2.332   7.786   9.010 -0.2676  0.0243  0.5796
  764MOL0     C 3024   2.290   7.879   8.920 -0.4660 -0.3775  0.6737
  764MOL0     C 3025   2.357   8.021   8.900 -0.1510  0.2590 -0.9036
  764MOL0     C 3026   2.314   8.097   8.767 -0.3244 -0.0236 -0.1381
  764MOL0     C 3027   2.167   8.134   8.751  0.9964 -0.2706  0.0296
  764MOL0     C 3028   2.144   8.243   8.650  0.2305  0.3661  0.6192
  764MOL0     O 3029   2.146   8.175   8.528  0.7056  0.1958 -0.1417
  764MOL0     C 3030   2.124   8.246   8.417 -0.0346  0.7008 -0.1013
  764MOL0     C 3031   2.113   8.171   8.297  0.0273  0.5430  0.6402
  764MOL0     C 3032   2.091   8.222   8.168  0.3392 -1.5883 -0.2675
  764MOL0     C 3033   2.098   8.141   8.051 -0.8064  1.1960 -0.9295
  764MOL0     C 3034   2.065   8.362   8.162  0.0044  0.1657  0.3085
  764MOL0     C 3035   2.041   8.438   8.032  0.9263  0.4388  0.5721
  764MOL0     O 3036   1.995   8.370   7.928  0.1510 -0.0888 -0.0702
  764MOL0     C 3037   2.043   8.368   7.797  0.0381  0.4440  1.1805
  764MOL0     C 3038   2.143   8.452   7.749  0.1115 -0.0318 -0.1516
  764MOL0     C 3039   2.186   8.445   7.614 -0.1809 -0.3133  0.6561
  764MOL0     C 3040   2.122   8.368   7.519  0.0192 -0.2435  0.4201
  764MOL0     O 3041   2.134   8.373   7.381  0.5420 -0.9792 -0.5800
  764MOL0     C 3042   2.257   8.441   7.334  0.6072 -0.0072 -0.0569
  764MOL0     C 3043   2.248   8.451   7.181  0.1729  0.8937 -0.4856
  764MOL0     C 3044   2.111   8.504   7.130 -0.2074 -0.4091 -0.7923
  764MOL0     C 3045   2.026   8.406   7.057  0.2725 -0.1354 -1.1056
  764MOL0     C 3046   2.043   8.407   6.906  0.5444  0.3244 -0.0652
  764MOL0     C 3047   1.982   8.523   6.829 -0.0355 -0.2955  0.0149
  764MOL0     C 3048   1.968   8.496   6.686  0.0978  0.1670 -0.0089
  764MOL0     C 3049   1.899   8.604   6.608 -0.1704  0.0824 -0.0642
  764MOL0    Cl 3050   1.892   8.551   6.430  0.1921  0.1564 -0.1780
  764MOL0     C 3051   2.014   8.277   7.570 -0.1241  0.1835  0.5962
  764MOL0     C 3052   1.982   8.283   7.703  0.1106  0.4288  0.0765
  764MOL0     O 3053   2.058   8.558   8.032 -0.0849 -0.6265 -0.8564
  764MOL0     C 3054   2.072   8.441   8.283  0.1918  0.3823 -0.0752
  764MOL0     C 3055   2.113   8.388   8.410  0.1192 -0.0885  0.2303
  764MOL0     N 3056   2.197   7.823   8.830  0.1677 -0.1221 -0.5748
  764MOL0     N 3057   2.176   7.703   8.876  0.7467 -0.1846 -0.0409
  764MOL0     C 3058   1.661   7.850   9.869  0.4343  1.2208 -0.2785
  764MOL0     C 3059   1.533   7.870   9.919  0.0559  0.6654 -0.6862
  764MOL0     C 3060   1.099   7.762  10.023  0.5113 -0.3375  0.3269
  764MOL0     C 3061   0.999   7.669  10.053  0.0006 -0.4315  0.2838
  764MOL0     C 3062   0.868   7.703  10.072 -1.2535  0.3577  0.1776
  764MOL0     C 3063   0.817   7.825  10.038  0.2710  0.4919  1.4106
  764MOL0     O 3064   0.685   7.860  10.024  0.2289 -0.4178  0.0446
  764MOL0     C 3065   0.573   7.769  10.036  0.0841  0.3021 -0.4727
  764MOL0     C 3066   0.516   7.776  10.177 -0.0080  0.4620 -0.0788
  764MOL0     C 3067   0.480   7.910  10.238 -0.2302 -0.0308  1.0811
  764MOL0     C 3068   0.443   7.890  10.384 -0.0958  0.7567 -0.0025
  764MOL0     C 3069   0.552   7.837  10.471 -0.3430  0.8281 -0.5402
  764MOL0     C 3070   0.642   7.820  10.550  0.8429 -0.3948 -0.6368
  764MOL0     C 3071   0.909   7.925  10.005  0.0862  0.2118 -0.4406
  764MOL0     C 3072   1.046   7.895   9.996 -0.2642 -0.6771  0.2247
  764MOL0     H 3073   1.404   7.580   9.808 -0.4920  0.4823 -0.4780
  764MOL0     H 3074   1.639   7.553   9.731  1.3073 -0.0645 -0.5518
  764MOL0     H 3075   1.997   7.623   9.831  1.8717 -0.4748 -3.1605
  764MOL0     H 3076   1.844   7.537   9.817 -0.1619  0.7451  3.2569
  764MOL0     H 3077   2.011   7.480   9.641  1.9129  0.3015 -3.1363
  764MOL0     H 3078   1.887   7.580   9.565  1.6132 -0.8908 -1.7482
  764MOL0     H 3079   2.012   7.755   9.516  1.7161 -1.1910 -2.1398
  764MOL0     H 3080   2.102   7.749   9.672  0.3249 -0.5644  0.2500
  764MOL0     H 3081   2.275   7.691   9.497  3.3306 -2.0407  0.9098
  764MOL0     H 3082   2.229   7.548   9.571 -0.6861  2.0733  1.7345
  764MOL0     H 3083   2.097   7.463   9.406 -0.0357  0.5187  0.4091
  764MOL0     H 3084   2.059   7.629   9.340 -2.6212 -0.5821  2.2515
  764MOL0     H 3085   2.286   7.644   9.277  0.5831 -0.4836 -1.7372
  764MOL0     H 3086   2.305   7.468   9.313 -1.6802 -1.5793  0.3559
  764MOL0     H 3087   2.156   7.386   9.163  0.6479 -0.2082  1.8459
  764MOL0     H 3088   2.070   7.544   9.150 -0.4015  0.3784  3.2664
  764MOL0     H 3089   2.252   7.464   8.954 -0.2632 -0.0047  0.1808
  764MOL0     H 3090   2.373   7.521   9.064  0.9197 -2.9388 -3.0948
  764MOL0     H 3091   2.411   7.807   9.081  0.8515 -1.9134 -0.0057
  764MOL0     H 3092   2.313   8.075   8.985  0.4257 -0.5460 -0.0690
  764MOL0     H 3093   2.464   8.009   8.920 -0.4198  2.4348  2.7729
  764MOL0     H 3094   2.352   8.041   8.681 -1.2274 -0.8243 -0.0331
  764MOL0     H 3095   2.367   8.192   8.782 -3.2352  1.2340  4.3058
  764MOL0     H 3096   2.121   8.166   8.845  0.7678 -1.9152  0.5179
  764MOL0     H 3097   2.111   8.046   8.718  1.0819 -0.1671 -0.3979
  764MOL0     H 3098   2.225   8.316   8.656  0.6777 -0.1302  0.6612
  764MOL0     H 3099   2.050   8.296   8.667 -0.5869 -1.4687  2.2669
  764MOL0     H 3100   2.119   8.064   8.315  0.4988  0.5374  0.4789
  764MOL0     H 3101   1.990   8.136   8.033 -0.7263  2.7650 -2.0241
  764MOL0     H 3102   2.146   8.178   7.959  2.9076  2.9820  1.4956
  764MOL0     H 3103   2.151   8.047   8.069 -3.1020 -0.0892 -0.5615
  764MOL0     H 3104   2.204   8.513   7.816  0.5136  1.5838 -1.9018
  764MOL0     H 3105   2.266   8.512   7.583 -2.2311  0.9114 -2.4606
  764MOL0     H 3106   2.276   8.539   7.379 -0.2061  0.5317 -0.8512
  764MOL0     H 3107   2.339   8.373   7.360  0.4535  0.5037  1.9468
  764MOL0     H 3108   2.324   8.522   7.148  1.8359 -0.6360 -0.0753
  764MOL0     H 3109   2.264   8.353   7.136  0.6938  1.3766 -1.3818
  764MOL0     H 3110   2.129   8.585   7.058 -1.6872 -0.2431 -0.9893
  764MOL0     H 3111   2.055   8.550   7.212 -2.2791  0.9961 -2.8754
  764MOL0     H 3112   2.035   8.303   7.092 -3.9474 -0.6659 -1.1115
  764MOL0     H 3113   1.921   8.431   7.070  0.7280  1.2036  0.3217
  764MOL0     H 3114   1.992   8.312   6.883 -3.3220  2.2992 -0.5479
  764MOL0     H 3115   2.150   8.399   6.886  0.1866  0.4601 -2.2068
  764MOL0     H 3116   1.881   8.538   6.871  0.0930  1.9747 -0.3728
  764MOL0     H 3117   2.054   8.604   6.846  1.3545 -0.9743 -2.2752
  764MOL0     H 3118   1.914   8.403   6.664  2.7945 -1.7166  0.8158
  764MOL0     H 3119   2.069   8.476   6.651  0.4345 -0.4702  1.2625
  764MOL0     H 3120   1.963   8.693   6.603  0.0059 -0.0379  0.0778
  764MOL0     H 3121   1.794   8.628   6.628  0.1725  0.3892  1.4811
  764MOL0     H 3122   1.962   8.216   7.498 -1.6865  2.0780  0.0131
  764MOL0     H 3123   1.889   8.240   7.738 -1.2106  3.4522  0.6452
  764MOL0     H 3124   2.047   8.546   8.270  2.9539  1.0570 -0.5386
  764MOL0     H 3125   2.109   8.449   8.500  1.1002  0.2467  0.0606
  764MOL0     H 3126   1.728   7.934   9.877  1.8062  0.0635  0.9923
  764MOL0     H 3127   1.508   7.946   9.993 -0.5630  2.1036 -2.2937
  764MOL0     H 3128   1.036   7.570  10.077 -0.1481 -0.7744 -0.8860
  764MOL0     H 3129   0.802   7.620  10.093 -1.3352  1.2210  3.9569
  764MOL0     H 3130   0.490   7.781   9.965 -1.6670  0.7250  1.5490
  764MOL0     H 3131   0.599   7.665  10.014 -0.1138  0.1356  0.0642
  764MOL0     H 3132   0.591   7.741  10.250 -2.0371  3.4090  3.7850
  764MOL0     H 3133   0.432   7.706  10.182 -1.2224  1.7005 -1.8560
  764MOL0     H 3134   0.395   7.961  10.192 -0.9649 -1.6938  0.5264
  764MOL0     H 3135   0.570   7.969  10.219  0.1631 -0.6497  1.0054
  764MOL0     H 3136   0.374   7.805  10.384 -0.6671  1.2018  1.3215
  764MOL0     H 3137   0.393   7.977  10.427 -0.3960  2.1689 -2.9488
  764MOL0     H 3138   0.717   7.802  10.624  1.0858 -4.3617 -1.6459
  764MOL0     H 3139   0.869   8.016   9.961  2.8142  1.1397 -1.2153
  764MOL0     H 3140   1.112   7.972   9.958  0.1994 -0.3940  1.5647
  765MOL0     O 3141   0.568   8.904   2.466  0.1252 -0.5490 -0.3618
  765MOL0     C 3142   0.602   8.909   2.347 -0.4653  0.1210 -0.2174
  765MOL0     O 3143   0.531   8.967   2.242  0.7634 -0.4678 -0.2986
  765MOL0     C 3144   0.401   9.011   2.272 -0.5776 -0.4785 -0.2310
  765MOL0     C 3145   0.373   9.095   2.382 -0.4162  0.3465  0.1796
  765MOL0     C 3146   0.243   9.141   2.394  0.0950  0.5669  0.8706
  765MOL0     C 3147   0.147   9.123   2.295  0.5829 -0.4334  0.5685
  765MOL0     O 3148   0.021   9.160   2.287 -0.3246  0.2676  0.9256
  765MOL0     C 3149  -0.017   9.296   2.322 -0.0240  0.4057  1.7043
  765MOL0     C 3150  -0.160   9.327   2.273 -0.0687  0.4340 -0.7578
  765MOL0     C 3151  -0.172   9.349   2.130  1.2948 -0.0694 -0.1232
  765MOL0     C 3152  -0.175   9.491   2.087 -0.3574 -0.3569 -0.9288
  765MOL0     C 3153  -0.237   9.509   1.944 -0.6025 -0.7514 -0.2370
  765MOL0     C 3154  -0.234   9.651   1.896 -0.6309  0.6496  0.4135
  765MOL0     C 3155  -0.311   9.684   1.763  0.1525  0.6490 -0.3165
  765MOL0     C 3156  -0.228   9.654   1.640  0.5805 -0.1359  0.2328
  765MOL0     N 3157  -0.321   9.637   1.525 -0.5003  0.0497  0.4710
  765MOL0     C 3158  -0.358   9.515   1.474 -0.5379  0.0708  0.3491
  765MOL0     C 3159  -0.425   9.550   1.361 -0.3916 -0.2883  0.8937
  765MOL0     C 3160  -0.450   9.469   1.235 -0.1969  0.0586  0.9288
  765MOL0     C 3161  -0.550   9.362   1.258  0.3721  0.5317 -0.5501
  765MOL0     C 3162  -0.622   9.313   1.127  0.3177  0.4995  0.2637
  765MOL0     C 3163  -0.721   9.193   1.158  0.2176  0.1566  0.0018
  765MOL0     O 3164  -0.797   9.203   1.278  0.1620  0.3331 -0.7458
  765MOL0     C 3165  -0.871   9.317   1.308 -0.5417  0.1773 -0.5825
  765MOL0     C 3166  -0.899   9.419   1.225  0.1338  0.6236 -0.5117
  765MOL0     C 3167  -0.973   9.529   1.273 -0.5401 -0.7871  0.2633
  765MOL0     C 3168  -1.001   9.629   1.166  0.3068 -0.4395  0.5519
  765MOL0     C 3169  -1.020   9.527   1.401 -0.0331  0.0378 -0.4871
  765MOL0     C 3170  -1.095   9.641   1.459 -0.7066 -0.3097  0.2965
  765MOL0     O 3171  -1.034   9.753   1.496  0.0008  0.4101  0.7250
  765MOL0     C 3172  -0.932   9.762   1.587  0.6314  0.8427  0.2960
  765MOL0     C 3173  -0.976   9.802   1.712  0.1119  0.0305 -0.4926
  765MOL0     C 3174  -0.865   9.810   1.809 -0.4538  0.8809 -0.2693
  765MOL0     C 3175  -0.732   9.769   1.787  0.6506 -0.3524  0.2886
  765MOL0     O 3176  -0.647   9.758   1.895  0.1765  0.0674  0.4017
  765MOL0     C 3177  -0.668   9.637   1.969  0.8931 -0.3134  0.1588
  765MOL0     C 3178  -0.570   9.637   2.094 -0.3152  0.0967  0.4414
  765MOL0     C 3179  -0.585   9.504   2.177 -0.8976 -0.8276 -1.0021
  765MOL0     C 3180  -0.551   9.522   2.329 -0.4060 -0.7285  0.0621
  765MOL0     C 3181  -0.552   9.381   2.408  0.6781  0.7601 -0.4348
  765MOL0     C 3182  -0.593   9.429   2.550  0.4506 -0.1608 -0.5813
  765MOL0     C 3183  -0.585   9.306   2.646 -0.0243  0.0708 -1.0383
  765MOL0     C 3184  -0.449   9.265   2.707  1.0015  0.2473 -0.3603
  765MOL0    Cl 3185  -0.362   9.395   2.813  0.2148 -0.1019  0.5440
  765MOL0     C 3186  -0.698   9.737   1.658 -1.4197  1.0975  0.1893
  765MOL0     C 3187  -0.795   9.723   1.561  0.5073  0.2899 -0.0388
  765MOL0     O 3188  -1.208   9.610   1.486  0.2882  0.3180  0.1149
  765MOL0     C 3189  -0.978   9.426   1.494  0.3191  0.4977  0.4465
  765MOL0     C 3190  -0.917   9.319   1.439 -0.8713 -0.5163 -0.0476
  765MOL0     N 3191  -0.443   9.693   1.372  0.2672  0.3668  0.0695
  765MOL0     N 3192  -0.367   9.740   1.463  0.3520 -0.2058 -0.6192
  765MOL0     C 3193   0.178   9.043   2.188 -0.1778  0.6893 -0.5678
  765MOL0     C 3194   0.302   8.989   2.176 -0.1413  0.6351 -0.2947
  765MOL0     C 3195   0.712   8.824   2.308 -0.1613 -0.1605 -0.6427
  765MOL0     C 3196   0.773   8.844   2.179 -0.8586 -0.3008  0.2626
  765MOL0     C 3197   0.891   8.763   2.143 -0.2376 -0.8340  0.9841
  765MOL0     C 3198   0.951   8.691   2.242  0.2173  0.6244  0.7623
  765MOL0     O 3199   1.065   8.622   2.217  0.5066  0.2861 -0.1482
  765MOL0     C 3200   1.154   8.662   2.117  0.4643  0.1326 -0.0587
  765MOL0     C 3201   1.241   8.778   2.166 -0.3967 -0.0041 -0.1647
  765MOL0     C 3202   1.189   8.918   2.128 -0.8686  0.3662 -0.0853
  765MOL0     C 3203   1.301   9.023   2.158  0.6933 -0.6222 -1.7378
  765MOL0     C 3204   1.244   9.159   2.182 -0.5941  0.5079 -0.0335
  765MOL0     C 3205   1.200   9.267   2.195  1.0639 -0.0575  1.0309
  765MOL0     C 3206   0.898   8.684   2.374 -0.8644  0.2487 -0.1251
  765MOL0     C 3207   0.782   8.746   2.404  0.0899 -0.2430 -0.2556
  765MOL0     H 3208   0.448   9.124   2.455 -1.2739  0.2844  1.1066
  765MOL0     H 3209   0.219   9.199   2.482 -0.6796 -2.0036  2.4607
  765MOL0     H 3210   0.008   9.328   2.424  0.2655 -1.5955  2.3013
  765MOL0     H 3211   0.047   9.358   2.258 -0.8178 -0.9535 -0.5130
  765MOL0     H 3212  -0.230   9.255   2.318 -2.4367  4.0412  1.8535
  765MOL0     H 3213  -0.195   9.414   2.328  0.2316  0.6024 -0.8337
  765MOL0     H 3214  -0.091   9.302   2.073  1.4882 -0.5092  0.5066
  765MOL0     H 3215  -0.255   9.290   2.092  1.8983 -0.5151 -0.7906
  765MOL0     H 3216  -0.231   9.555   2.156 -1.1761 -1.7938 -0.2149
  765MOL0     H 3217  -0.073   9.529   2.077  0.1545 -0.8109  1.7673
  765MOL0     H 3218  -0.194   9.442   1.869 -1.2237 -1.8265  0.3387
  765MOL0     H 3219  -0.342   9.479   1.944 -0.4773 -1.2373 -1.4032
  765MOL0     H 3220  -0.284   9.707   1.976 -5.1775 -4.6394  1.9603
  765MOL0     H 3221  -0.127   9.676   1.889 -1.3121  3.4628 -2.1419
  765MOL0     H 3222  -0.413   9.644   1.758  0.1706  0.7269 -2.0240
  765MOL0     H 3223  -0.327   9.792   1.755 -1.7667  0.7030  2.6502
  765MOL0     H 3224  -0.164   9.567   1.654  0.2906 -0.6279 -1.2222
  765MOL0     H 3225  -0.173   9.748   1.635  0.8067 -0.2741  0.1210
  765MOL0     H 3226  -0.333   9.410   1.486 -1.0721 -0.0650  0.2969
  765MOL0     H 3227  -0.473   9.535   1.150  1.6468 -0.4335 -0.0027
  765MOL0     H 3228  -0.363   9.407   1.213  0.7297  0.4594  3.2370
  765MOL0     H 3229  -0.618   9.396   1.336 -0.9097  1.0452 -1.8305
  765MOL0     H 3230  -0.494   9.276   1.294  2.4472  0.5747 -3.3164
  765MOL0     H 3231  -0.547   9.272   1.058  0.4942 -2.2246  1.9336
  765MOL0     H 3232  -0.672   9.402   1.089  0.6481  0.5096 -0.1512
  765MOL0     H 3233  -0.658   9.104   1.159  1.3655  0.8720 -2.1769
  765MOL0     H 3234  -0.789   9.187   1.072  1.2948 -0.9970 -0.8102
  765MOL0     H 3235  -0.874   9.421   1.119  0.2029  3.2838 -0.5176
  765MOL0     H 3236  -0.916   9.635   1.098  0.0414 -0.9168  0.1665
  765MOL0     H 3237  -1.082   9.594   1.100  2.2840  0.5787 -2.6340
  765MOL0     H 3238  -1.022   9.728   1.206  1.6531 -0.6961  1.9625
  765MOL0     H 3239  -1.081   9.818   1.734  0.0123 -1.5447  0.3094
  765MOL0     H 3240  -0.885   9.837   1.913  2.5567 -1.9276  1.1949
  765MOL0     H 3241  -0.773   9.633   2.002 -0.2307  2.9845 -2.4186
  765MOL0     H 3242  -0.643   9.557   1.900 -1.0173 -0.2567 -0.6719
  765MOL0     H 3243  -0.470   9.654   2.055 -1.1895 -0.4278 -2.2908
  765MOL0     H 3244  -0.604   9.726   2.148  0.6132  1.9252 -1.8199
  765MOL0     H 3245  -0.520   9.426   2.136 -1.8001 -0.6407 -2.8971
  765MOL0     H 3246  -0.686   9.464   2.166 -1.0148 -0.0462 -3.3141
  765MOL0     H 3247  -0.452   9.569   2.341 -1.0464  0.1174  2.5138
  765MOL0     H 3248  -0.621   9.602   2.356 -0.5745  0.4110 -3.2328
  765MOL0     H 3249  -0.449   9.344   2.411  0.0785 -1.0959 -0.8534
  765MOL0     H 3250  -0.615   9.306   2.359  1.6655  0.7847 -1.8334
  765MOL0     H 3251  -0.530   9.515   2.577 -1.5733  1.2599 -0.1992
  765MOL0     H 3252  -0.693   9.472   2.553  0.7495  0.5053  0.8232
  765MOL0     H 3253  -0.631   9.220   2.596  0.2026 -0.8928  0.3463
  765MOL0     H 3254  -0.638   9.316   2.741  0.2066 -1.8871 -0.6611
  765MOL0     H 3255  -0.370   9.242   2.635  0.2946 -1.6014 -0.6070
  765MOL0     H 3256  -0.452   9.177   2.773  1.5661 -2.0195 -3.1762
  765MOL0     H 3257  -0.598   9.713   1.623 -1.7362  0.1373 -0.1025
  765MOL0     H 3258  -0.760   9.695   1.462  2.4933  2.3679 -0.0083
  765MOL0     H 3259  -1.015   9.427   1.596  1.0954  0.9406  0.7286
  765MOL0     H 3260  -0.883   9.255   1.520 -3.2343  2.7612  3.9639
  765MOL0     H 3261   0.111   9.026   2.104 -2.8414 -0.7774  1.6817
  765MOL0     H 3262   0.324   8.944   2.080  5.1038 -2.5676  1.9988
  765MOL0     H 3263   0.735   8.910   2.102  1.5650  1.3406  0.3558
  765MOL0     H 3264   0.923   8.775   2.040  1.1312 -4.5876  0.8159
  765MOL0     H 3265   1.217   8.574   2.099  0.1591  0.1881 -1.4704
  765MOL0     H 3266   1.103   8.675   2.021 -1.0684  1.4305  0.8913
  765MOL0     H 3267   1.341   8.773   2.122  1.5999 -2.2697  4.0139
  765MOL0     H 3268   1.263   8.759   2.272 -2.0453 -1.3458 -0.0137
  765MOL0     H 3269   1.113   8.947   2.202 -1.5411 -2.1005  0.2701
  765MOL0     H 3270   1.164   8.916   2.022  1.3133 -2.8814 -0.6708
  765MOL0     H 3271   1.385   9.030   2.088  2.8797 -1.0530  0.6606
  765MOL0     H 3272   1.352   8.980   2.245 -1.5383 -1.5493 -0.8223
  765MOL0     H 3273   1.150   9.361   2.206 -0.5874 -0.9357  1.3831
  765MOL0     H 3274   0.975   8.639   2.436  1.4115  1.8640 -1.6139
  765MOL0     H 3275   0.733   8.732   2.500 -0.7811  2.1825 -0.2955
  766MOL0     O 3276   3.460   8.008   6.431 -0.6990 -0.4289 -0.4238
  766MOL0     C 3277   3.559   7.936   6.449 -0.2576  0.9863  0.1392
  766MOL0     O 3278   3.665   7.933   6.370  0.2131  1.2418 -0.0409
  766MOL0     C 3279   3.661   8.007   6.254  0.0196 -0.1827 -1.1910
  766MOL0     C 3280   3.556   7.982   6.159  0.7383 -0.5798 -0.1907
  766MOL0     C 3281   3.562   8.038   6.027 -0.6900  0.1732 -1.3550
  766MOL0     C 3282   3.676   8.105   5.989  0.5297 -0.8381 -0.2305
  766MOL0     O 3283   3.688   8.169   5.861 -0.0544 -0.8245 -0.1714
  766MOL0     C 3284   3.668   8.093   5.740  0.2093  0.0209  0.4195
  766MOL0     C 3285   3.704   8.178   5.615 -0.4789  0.7824 -0.4100
  766MOL0     C 3286   3.856   8.155   5.608 -0.9907  1.0482  0.3725
  766MOL0     C 3287   3.897   8.243   5.486 -0.2625  0.7132 -0.1543
  766MOL0     C 3288   4.050   8.213   5.440  0.5490 -0.7643  0.5690
  766MOL0     C 3289   4.162   8.302   5.509 -0.3400  0.3574 -0.0414
  766MOL0     C 3290   4.286   8.313   5.420 -0.5621 -0.0920  0.9329
  766MOL0     C 3291   4.331   8.459   5.416 -0.4129  0.0614 -0.2811
  766MOL0     N 3292   4.403   8.481   5.542 -0.6992 -0.1903  0.4988
  766MOL0     C 3293   4.508   8.401   5.577 -1.5576 -1.2607  1.1835
  766MOL0     C 3294   4.525   8.429   5.710  0.5162 -0.3621 -0.1772
  766MOL0     C 3295   4.627   8.371   5.796  0.3135  0.0558  0.3874
  766MOL0     C 3296   4.749   8.457   5.784 -0.5949 -0.3148 -0.3384
  766MOL0     C 3297   4.868   8.409   5.874 -0.1938 -0.3992 -0.1992
  766MOL0     C 3298   4.962   8.529   5.900  0.6478 -0.4269  0.0196
  766MOL0     O 3299   5.029   8.560   5.779 -0.1605  0.3319 -0.1257
  766MOL0     C 3300   5.085   8.683   5.770  0.1460  0.1473  0.8869
  766MOL0     C 3301   5.122   8.715   5.635 -0.1501  0.5017 -1.1319
  766MOL0     C 3302   5.150   8.845   5.599  0.4517 -1.8058  0.4892
  766MOL0     C 3303   5.153   8.889   5.448  0.3444  0.5428 -0.0867
  766MOL0     C 3304   5.169   8.941   5.706  0.8827 -0.8344 -0.1374
  766MOL0     C 3305   5.231   9.075   5.679  0.0776 -0.3172 -1.2732
  766MOL0     O 3306   5.188   9.141   5.562 -0.5027 -0.1061 -1.0420
  766MOL0     C 3307   5.219   9.270   5.532 -0.3935  0.3546 -0.2591
  766MOL0     C 3308   5.347   9.319   5.541 -0.6646 -0.0466  1.1297
  766MOL0     C 3309   5.374   9.454   5.513 -0.1781 -0.1799  0.1007
  766MOL0     C 3310   5.273   9.534   5.451  0.3338 -0.2557  0.5321
  766MOL0     O 3311   5.277   9.671   5.438 -0.5227 -0.4926  1.0466
  766MOL0     C 3312   5.394   9.744   5.483 -0.4341  0.3361 -0.1962
  766MOL0     C 3313   5.375   9.890   5.467  0.6840 -0.1342  0.6413
  766MOL0     C 3314   5.418   9.955   5.587  1.1709 -0.5280  1.2677
  766MOL0     C 3315   5.387  10.102   5.573 -0.5761  0.6258  1.0180
  766MOL0     C 3316   5.444  10.174   5.691  0.0152 -0.6629 -0.6111
  766MOL0     C 3317   5.427  10.329   5.669  0.3521  0.6922  0.2947
  766MOL0     C 3318   5.532  10.395   5.578  0.2160  0.2442 -0.0354
  766MOL0     C 3319   5.509  10.548   5.589 -0.3769  0.5979 -0.2004
  766MOL0    Cl 3320   5.595  10.618   5.734 -0.3827 -0.3257 -0.5736
  766MOL0     C 3321   5.149   9.477   5.425 -0.1334 -0.3990  0.6780
  766MOL0     C 3322   5.121   9.347   5.461 -0.5465  0.0052 -0.4140
  766MOL0     O 3323   5.303   9.129   5.765  0.5107  0.4851  0.0695
  766MOL0     C 3324   5.149   8.902   5.841 -0.3664  0.5557  0.6518
  766MOL0     C 3325   5.103   8.775   5.874 -0.4418  0.1122  0.3169
  766MOL0     N 3326   4.430   8.519   5.752  1.0632 -0.4337  0.6044
  766MOL0     N 3327   4.350   8.535   5.652  0.4894  0.0414  0.0649
  766MOL0     C 3328   3.777   8.132   6.082  0.4892  0.1268 -0.0148
  766MOL0     C 3329   3.773   8.074   6.211  0.0928  1.2471 -0.1883
  766MOL0     C 3330   3.566   7.854   6.571  0.0265  0.0362  0.1808
  766MOL0     C 3331   3.697   7.812   6.619  0.4431  0.4532 -0.7674
  766MOL0     C 3332   3.703   7.727   6.733 -0.2435 -0.4880 -0.6454
  766MOL0     C 3333   3.592   7.678   6.800 -0.1742  1.6065 -0.0153
  766MOL0     O 3334   3.603   7.581   6.900 -0.1217 -0.2367 -0.3801
  766MOL0     C 3335   3.515   7.576   7.019 -0.2042  0.5122 -0.2662
  766MOL0     C 3336   3.550   7.667   7.137 -0.2666 -0.8523 -0.5080
  766MOL0     C 3337   3.598   7.811   7.094 -0.7903  0.6765  0.8018
  766MOL0     C 3338   3.631   7.907   7.208  0.4510 -0.9692 -0.0507
  766MOL0     C 3339   3.517   7.918   7.303  1.7705 -0.8583  1.2843
  766MOL0     C 3340   3.403   7.920   7.355  0.5719 -0.0414 -0.5285
  766MOL0     C 3341   3.466   7.712   6.737 -0.4547  0.0096 -1.4195
  766MOL0     C 3342   3.454   7.791   6.627  0.3568 -0.3043 -0.3658
  766MOL0     H 3343   3.475   7.913   6.182 -1.7874  2.1998 -0.0239
  766MOL0     H 3344   3.481   8.012   5.959 -4.3006  2.9624  1.4614
  766MOL0     H 3345   3.734   8.007   5.746 -2.6698 -2.2706  2.2299
  766MOL0     H 3346   3.570   8.046   5.749  1.4237 -3.2899 -1.7355
  766MOL0     H 3347   3.649   8.144   5.527  0.2935 -0.6005 -0.3706
  766MOL0     H 3348   3.683   8.283   5.639 -1.3669  0.1436  1.8828
  766MOL0     H 3349   3.905   8.177   5.703 -0.4891  0.4651  0.2568
  766MOL0     H 3350   3.878   8.050   5.585 -1.5599  0.9671  0.1824
  766MOL0     H 3351   3.840   8.218   5.396 -0.5335  0.2764  0.1333
  766MOL0     H 3352   3.889   8.349   5.510  4.5822  1.7092 -1.6937
  766MOL0     H 3353   4.068   8.108   5.461  2.7414 -0.7429 -0.8114
  766MOL0     H 3354   4.050   8.218   5.330 -1.8243  1.4033  0.5733
  766MOL0     H 3355   4.112   8.397   5.528  0.2019  0.7391 -0.4854
  766MOL0     H 3356   4.177   8.253   5.606  1.1891  2.5958  0.9508
  766MOL0     H 3357   4.358   8.239   5.457  0.9406  2.0932  2.6579
  766MOL0     H 3358   4.264   8.280   5.318 -2.2869  1.8377  0.6216
  766MOL0     H 3359   4.246   8.527   5.410 -0.7438  0.0402  2.6470
  766MOL0     H 3360   4.414   8.473   5.346  0.3224  0.8424  0.7082
  766MOL0     H 3361   4.573   8.350   5.507  1.7266  3.9522 -0.1677
  766MOL0     H 3362   4.595   8.374   5.901 -1.9984 -0.4614 -0.2490
  766MOL0     H 3363   4.646   8.268   5.764 -1.1415  0.0124 -0.4223
  766MOL0     H 3364   4.725   8.559   5.813  1.8155  0.0577  0.5994
  766MOL0     H 3365   4.784   8.464   5.680 -0.7511 -1.5712 -0.4890
  766MOL0     H 3366   4.930   8.331   5.830 -3.8520 -2.6323 -1.9359
  766MOL0     H 3367   4.825   8.379   5.970 -2.1591 -1.0212 -1.2002
  766MOL0     H 3368   5.036   8.505   5.977  1.2988 -2.2599 -1.1110
  766MOL0     H 3369   4.901   8.609   5.943 -0.0606 -1.1263  0.3276
  766MOL0     H 3370   5.117   8.639   5.557  2.1576 -0.8178 -0.1232
  766MOL0     H 3371   5.108   8.986   5.424  0.5954  0.5919 -0.3704
  766MOL0     H 3372   5.257   8.882   5.412  0.6068  0.6332  0.6481
  766MOL0     H 3373   5.098   8.817   5.386 -0.9319 -0.3040  1.9401
  766MOL0     H 3374   5.413   9.253   5.596 -1.1840  0.1357  1.9799
  766MOL0     H 3375   5.476   9.484   5.536 -0.3790  2.2931 -1.8335
  766MOL0     H 3376   5.416   9.709   5.584  0.3835  0.3715 -0.3521
  766MOL0     H 3377   5.481   9.719   5.420  0.5376  1.4756  0.6413
  766MOL0     H 3378   5.426   9.918   5.374 -1.0752 -3.7039 -1.6319
  766MOL0     H 3379   5.267   9.902   5.456  0.8168 -0.1860 -1.1075
  766MOL0     H 3380   5.524   9.939   5.611  1.8073  0.8154 -0.4404
  766MOL0     H 3381   5.354   9.918   5.667  0.2316  3.4687  2.5885
  766MOL0     H 3382   5.443  10.139   5.487  0.2162  1.6226  1.9413
  766MOL0     H 3383   5.280  10.123   5.577 -0.8673 -0.7328  0.8445
  766MOL0     H 3384   5.551  10.161   5.707 -0.3902 -1.9203  1.4576
  766MOL0     H 3385   5.387  10.150   5.781 -0.3823 -0.7209 -0.8725
  766MOL0     H 3386   5.332  10.355   5.622  0.4252 -1.2728 -1.0562
  766MOL0     H 3387   5.426  10.378   5.767 -3.2390  2.1279 -0.3007
  766MOL0     H 3388   5.512  10.362   5.476 -1.1231 -2.5654  1.0256
  766MOL0     H 3389   5.638  10.381   5.600  0.4296 -0.6068 -1.5059
  766MOL0     H 3390   5.402  10.571   5.592 -0.8243 -0.3481 -4.0339
  766MOL0     H 3391   5.563  10.611   5.517 -0.3450 -0.5530 -1.2100
  766MOL0     H 3392   5.088   9.549   5.372  2.5228  1.5850  0.1290
  766MOL0     H 3393   5.015   9.323   5.456 -0.6266  0.4830 -1.1142
  766MOL0     H 3394   5.190   8.966   5.918 -0.3797  1.1335  0.1895
  766MOL0     H 3395   5.069   8.757   5.975  0.7187 -0.1074  0.6863
  766MOL0     H 3396   3.855   8.192   6.036  0.8529 -0.6541 -0.4339
  766MOL0     H 3397   3.860   8.080   6.276  1.0187 -2.0477 -0.9236
  766MOL0     H 3398   3.788   7.853   6.578  1.3110 -1.1874 -0.5722
  766MOL0     H 3399   3.800   7.698   6.772 -2.5144 -2.7962  4.0925
  766MOL0     H 3400   3.409   7.590   6.996 -0.6455  0.2508  1.4372
  766MOL0     H 3401   3.523   7.472   7.051  3.2978  0.9884  0.9189
  766MOL0     H 3402   3.620   7.630   7.212 -0.8715  1.8701  1.5086
  766MOL0     H 3403   3.454   7.685   7.185 -0.5852 -2.7628 -0.3193
  766MOL0     H 3404   3.522   7.856   7.030  1.2008  1.6202 -1.0328
  766MOL0     H 3405   3.696   7.804   7.045  0.0639 -1.8792  2.6527
  766MOL0     H 3406   3.654   8.006   7.167  1.7241 -0.0667  2.6088
  766MOL0     H 3407   3.704   7.860   7.274  0.2165 -0.8174  0.3153
  766MOL0     H 3408   3.301   7.927   7.389  1.2404  2.4950  1.2916
  766MOL0     H 3409   3.379   7.671   6.788  1.4259 -1.4131  0.8817
  766MOL0     H 3410   3.351   7.815   6.604 -0.5969 -2.2274  1.4803
  767MOL0     O 3411  10.585   9.986  10.123  0.0503  1.0219  0.3553
  767MOL0     C 3412  10.534   9.960  10.016  0.0379  0.0768  0.8782
  767MOL0     O 3413  10.535  10.044   9.909  0.0383 -0.6310 -0.0754
  767MOL0     C 3414  10.602  10.164   9.896 -0.7189  0.0730  0.0059
  767MOL0     C 3415  10.559  10.248   9.798  0.7049  0.7592  0.5056
  767MOL0     C 3416  10.623  10.370   9.768 -0.3756  0.3930 -0.7150
  767MOL0     C 3417  10.724  10.409   9.848 -0.9100 -0.1669  0.3654
  767MOL0     O 3418  10.793  10.527   9.824  0.4152  0.2890  0.0980
  767MOL0     C 3419  10.728  10.650   9.873  0.3746  1.1430  0.0377
  767MOL0     C 3420  10.827  10.761   9.913  0.5974  0.2610 -0.2369
  767MOL0     C 3421  10.950  10.706   9.981  0.5895  1.1933 -0.2019
  767MOL0     C 3422  10.925  10.624  10.098  0.5716  0.3203  0.3731
  767MOL0     C 3423  11.044  10.537  10.128 -0.1615  0.3570  0.2728
  767MOL0     C 3424  11.056  10.483  10.277  0.1050 -0.7731 -0.8656
  767MOL0     C 3425  11.106  10.597  10.382  0.7369 -0.6446  0.3998
  767MOL0     C 3426  11.131  10.542  10.520  0.7449  0.2110  0.4945
  767MOL0     N 3427  11.006  10.494  10.587  0.6394 -0.3867  0.7012
  767MOL0     C 3428  10.908  10.577  10.632 -0.5285  0.3596  0.0207
  767MOL0     C 3429  10.803  10.491  10.655  0.0629 -0.1922 -0.5629
  767MOL0     C 3430  10.669  10.533  10.703 -0.6261 -0.5267  0.3435
  767MOL0     C 3431  10.624  10.469  10.834 -0.3784  0.0563  0.4691
  767MOL0     C 3432  10.468  10.483  10.880 -0.3478 -0.4045  0.4516
  767MOL0     C 3433  10.375  10.486  10.754 -0.3523 -0.2022 -0.5293
  767MOL0     O 3434  10.403  10.376  10.668  0.9277 -0.2342  0.6218
  767MOL0     C 3435  10.343  10.390  10.547  1.0767 -0.2472 -0.1814
  767MOL0     C 3436  10.406  10.330  10.443 -0.6698 -0.0973  0.4870
  767MOL0     C 3437  10.369  10.325  10.305 -0.7814 -0.1375  0.1109
  767MOL0     C 3438  10.441  10.235  10.214  0.6041 -0.7588 -0.3181
  767MOL0     C 3439  10.251  10.390  10.275  0.4377  0.2272  0.6853
  767MOL0     C 3440  10.172  10.370  10.148  0.5105  0.2659 -0.6273
  767MOL0     O 3441  10.157  10.239  10.112 -0.3642  0.0016  0.6889
  767MOL0     C 3442  10.087  10.218   9.996 -0.5835 -0.4763  0.0391
  767MOL0     C 3443  10.176  10.186   9.885 -0.4127  0.3399  0.8780
  767MOL0     C 3444  10.114  10.150   9.761  0.2905  0.2279  0.7492
  767MOL0     C 3445   9.976  10.146   9.745  0.3874 -0.4159 -1.1855
  767MOL0     O 3446   9.917  10.095   9.636 -0.0748 -0.4242  0.1729
  767MOL0     C 3447  10.002  10.056   9.531  0.1529 -0.1001  1.1874
  767MOL0     C 3448   9.912  10.006   9.419  0.1779 -0.0461  0.8690
  767MOL0     C 3449   9.837  10.121   9.351  0.0398  0.4253 -0.8755
  767MOL0     C 3450   9.734  10.067   9.260  0.4285  0.4583  0.9090
  767MOL0     C 3451   9.644  10.168   9.192 -0.3988  0.5786  0.6135
  767MOL0     C 3452   9.555  10.101   9.076 -0.5383 -1.0802 -1.4330
  767MOL0     C 3453   9.506  10.202   8.968  0.0483  0.5788  0.0293
  767MOL0     C 3454   9.466  10.127   8.832  0.1594  0.5314 -0.4274
  767MOL0    Cl 3455   9.405  10.245   8.714 -0.2424 -0.5981  0.5444
  767MOL0     C 3456   9.898  10.178   9.856 -0.6408  0.8781  0.2445
  767MOL0     C 3457   9.949  10.224   9.979  0.8365  0.5223  0.6878
  767MOL0     O 3458  10.100  10.463  10.119  0.7363 -0.2430  0.1353
  767MOL0     C 3459  10.190  10.470  10.383  0.2095  0.7075  0.0852
  767MOL0     C 3460  10.225  10.465  10.516  0.6609 -0.9851  0.2274
  767MOL0     N 3461  10.839  10.368  10.627 -0.4757  0.1084 -0.5972
  767MOL0     N 3462  10.966  10.367  10.594  0.1960  0.2714 -0.1421
  767MOL0     C 3463  10.764  10.333   9.952 -0.7450  0.4130  0.3030
  767MOL0     C 3464  10.716  10.207   9.979  0.0657  0.3277  0.5582
  767MOL0     C 3465  10.481   9.820   9.992  0.2616 -1.0467 -0.6414
  767MOL0     C 3466  10.506   9.714  10.089 -0.1734  0.0082  0.0768
  767MOL0     C 3467  10.441   9.593  10.091  0.5669  0.3949 -0.0134
  767MOL0     C 3468  10.357   9.558   9.989 -0.4199 -0.5371  0.4791
  767MOL0     O 3469  10.272   9.452   9.984  0.3301  0.4780 -0.3189
  767MOL0     C 3470  10.333   9.330   9.939 -0.4436 -0.3980  0.2875
  767MOL0     C 3471  10.393   9.241  10.052  0.0434  0.6067  0.8281
  767MOL0     C 3472  10.301   9.227  10.175 -0.1871 -0.2631  0.6363
  767MOL0     C 3473  10.154   9.183  10.158  0.1429  0.2902 -1.2370
  767MOL0     C 3474  10.069   9.252  10.262 -0.0481  0.4012  0.5155
  767MOL0     C 3475   9.993   9.312  10.332  0.5289  0.0528 -0.2976
  767MOL0     C 3476  10.354   9.656   9.878  0.5543  0.1431 -0.2901
  767MOL0     C 3477  10.403   9.782   9.881 -0.3541 -0.8849 -0.3352
  767MOL0     H 3478  10.492  10.209   9.723  0.3943  1.3571  0.4650
  767MOL0     H 3479  10.596  10.438   9.689  0.3409  3.1782  1.2932
  767MOL0     H 3480  10.658  10.673   9.793  2.0306 -2.2287 -2.6613
  767MOL0     H 3481  10.677  10.635   9.968 -1.8014 -1.1498 -1.3956
  767MOL0     H 3482  10.856  10.812   9.821 -0.5313  3.5989  1.0962
  767MOL0     H 3483  10.781  10.840   9.973 -1.4293  0.2434 -1.6653
  767MOL0     H 3484  11.015  10.670   9.901  1.2399  4.0468 -1.0734
  767MOL0     H 3485  11.008  10.792  10.017  0.4777  0.1029  2.8817
  767MOL0     H 3486  10.902  10.678  10.191  1.2379  1.2092  0.0381
  767MOL0     H 3487  10.846  10.548  10.096  0.3940  0.2426  3.9180
  767MOL0     H 3488  11.038  10.450  10.062 -2.1378  1.3636 -0.9666
  767MOL0     H 3489  11.144  10.580  10.117  1.0582 -1.8607  1.6545
  767MOL0     H 3490  10.961  10.445  10.313  1.2006 -1.0662  1.9256
  767MOL0     H 3491  11.116  10.391  10.281  1.7695  0.2976  0.2523
  767MOL0     H 3492  11.204  10.635  10.351 -0.2023  1.1360 -0.5157
  767MOL0     H 3493  11.034  10.679  10.381  2.4297  0.9196  1.1499
  767MOL0     H 3494  11.174  10.616  10.588  0.9140  0.9413 -0.3952
  767MOL0     H 3495  11.200  10.457  10.517  0.1680 -0.2350 -1.2493
  767MOL0     H 3496  10.896  10.683  10.651 -0.6020 -0.0401  2.6743
  767MOL0     H 3497  10.685  10.638  10.729  3.3509 -1.0548  0.6535
  767MOL0     H 3498  10.602  10.524  10.616  0.2798 -1.6214 -0.2600
  767MOL0     H 3499  10.681  10.510  10.918  1.3972 -1.5131  0.0992
  767MOL0     H 3500  10.643  10.362  10.830  2.1368  0.4503  0.7397
  767MOL0     H 3501  10.456  10.582  10.926  2.5072  0.9588 -1.4810
  767MOL0     H 3502  10.430  10.399  10.938 -0.2438  0.1442  1.3272
  767MOL0     H 3503  10.403  10.577  10.700  2.5873 -0.9390 -0.3946
  767MOL0     H 3504  10.274  10.484  10.797 -0.7463 -2.9080 -1.4104
  767MOL0     H 3505  10.502  10.284  10.463 -1.7295 -1.9416  1.6687
  767MOL0     H 3506  10.456  10.289  10.120 -3.6487  1.6441  0.0965
  767MOL0     H 3507  10.534  10.200  10.259  0.4669  1.1228  1.5848
  767MOL0     H 3508  10.370  10.154  10.190  1.7453 -1.9432  0.1966
  767MOL0     H 3509  10.283  10.195   9.898 -0.4230  2.1030 -0.0402
  767MOL0     H 3510  10.184  10.129   9.681  0.0277 -0.9775  0.8208
  767MOL0     H 3511  10.060  10.140   9.493 -0.6357 -1.4072 -3.5836
  767MOL0     H 3512  10.060   9.969   9.565 -2.7732 -1.1351  3.9713
  767MOL0     H 3513   9.980   9.950   9.353  0.1303 -0.1435  0.9024
  767MOL0     H 3514   9.838   9.939   9.463  0.2206  1.7599  3.9942
  767MOL0     H 3515   9.908  10.185   9.298  0.7851 -0.4481 -0.9487
  767MOL0     H 3516   9.792  10.197   9.416 -3.3140  0.1423 -2.6036
  767MOL0     H 3517   9.791  10.021   9.178 -1.9105 -4.4002  1.6855
  767MOL0     H 3518   9.672   9.999   9.319  0.1544 -0.2075 -0.1205
  767MOL0     H 3519   9.711  10.235   9.138  2.3918 -1.1008  1.8110
  767MOL0     H 3520   9.579  10.216   9.267  0.0134 -1.2292  2.2132
  767MOL0     H 3521   9.623  10.030   9.027  1.8511  0.5262 -0.6323
  767MOL0     H 3522   9.475  10.039   9.117 -1.1288  0.4059 -0.2438
  767MOL0     H 3523   9.589  10.268   8.941  1.2469 -0.7274  0.3522
  767MOL0     H 3524   9.432  10.271   9.009 -3.0451 -2.3538 -0.1132
  767MOL0     H 3525   9.379  10.068   8.865  0.9914  1.2092  3.4775
  767MOL0     H 3526   9.543  10.070   8.782 -0.8293  1.2374 -2.8923
  767MOL0     H 3527   9.790  10.184   9.841 -0.3828 -0.3383 -2.6157
  767MOL0     H 3528   9.891  10.247  10.068 -1.2857 -1.9176  0.0563
  767MOL0     H 3529  10.096  10.520  10.363  1.2817  1.8022 -2.8090
  767MOL0     H 3530  10.167  10.511  10.596 -0.3549  2.0224 -2.0689
  767MOL0     H 3531  10.845  10.369  10.014  0.3773 -0.7846 -0.4178
  767MOL0     H 3532  10.753  10.146  10.061 -0.8832 -3.3042 -1.4989
  767MOL0     H 3533  10.560   9.744  10.178 -2.4953 -0.5544  1.7476
  767MOL0     H 3534  10.445   9.520  10.172  2.1438 -0.2466 -0.6302
  767MOL0     H 3535  10.247   9.283   9.891 -0.4019 -1.7853  1.4956
  767MOL0     H 3536  10.404   9.354   9.859  0.2716  1.2531  1.3657
  767MOL0     H 3537  10.481   9.301  10.076  0.2313  2.1253 -2.9462
  767MOL0     H 3538  10.407   9.142  10.008 -0.2026  0.4102  1.1922
  767MOL0     H 3539  10.300   9.331  10.208  1.6324  0.4482 -1.3385
  767MOL0     H 3540  10.344   9.167  10.255  1.3038  2.5437  2.0993
  767MOL0     H 3541  10.144   9.074  10.157 -5.2840  0.5283 -2.6792
  767MOL0     H 3542  10.117   9.220  10.062 -3.5335 -1.0289 -0.4757
  767MOL0     H 3543   9.928   9.368  10.396 -0.4145 -0.3569 -0.8769
  767MOL0     H 3544  10.293   9.621   9.795  1.7681 -0.4972 -0.9338
  767MOL0     H 3545  10.386   9.859   9.807 -0.5332  0.0634  0.6730
  768MOL0     O 3546   1.679   0.564   3.213 -0.0324 -0.2642  0.1106
  768MOL0     C 3547   1.642   0.522   3.323  0.1377 -0.2494  0.3636
  768MOL0     O 3548   1.725   0.507   3.433 -0.7195 -0.3786 -0.9204
  768MOL0     C 3549   1.864   0.524   3.430  0.8746 -0.5669 -0.4511
  768MOL0     C 3550   1.930   0.576   3.544 -0.6091 -0.0807  0.4515
  768MOL0     C 3551   2.073   0.601   3.539  0.3735 -0.6271 -0.2782
  768MOL0     C 3552   2.145   0.569   3.420 -0.1494 -0.0637 -0.1836
  768MOL0     O 3553   2.279   0.614   3.411 -0.2071 -0.5080 -0.1364
  768MOL0     C 3554   2.371   0.555   3.502 -0.3724  0.4915 -0.0346
  768MOL0     C 3555   2.502   0.516   3.440  1.0226  0.0209  0.3564
  768MOL0     C 3556   2.482   0.386   3.345 -0.1805  0.5484  1.2892
  768MOL0     C 3557   2.615   0.328   3.305 -0.2615 -0.0030 -0.0922
  768MOL0     C 3558   2.594   0.218   3.203  0.0066 -0.6568  1.0840
  768MOL0     C 3559   2.573   0.079   3.267  0.7631 -0.4346  0.4440
  768MOL0     C 3560   2.531  -0.028   3.166  0.7215 -0.2056 -0.1239
  768MOL0     C 3561   2.629  -0.045   3.042  0.4578 -0.2232  0.4122
  768MOL0     N 3562   2.614  -0.175   2.989  0.2541  0.7484  0.4239
  768MOL0     C 3563   2.709  -0.247   2.916  0.4322  0.4325 -1.3900
  768MOL0     C 3564   2.649  -0.364   2.885 -0.0091 -0.3455 -0.2157
  768MOL0     C 3565   2.710  -0.495   2.832 -0.1018 -0.1215  0.5305
  768MOL0     C 3566   2.684  -0.519   2.675 -0.2599 -0.4073  0.2346
  768MOL0     C 3567   2.573  -0.624   2.650 -0.0551  0.0477  1.6633
  768MOL0     C 3568   2.499  -0.592   2.519  0.3896  0.6679 -0.8161
  768MOL0     O 3569   2.598  -0.578   2.430 -0.1824  0.6978 -0.2462
  768MOL0     C 3570   2.567  -0.590   2.297  0.7522  0.6464 -1.1195
  768MOL0     C 3571   2.444  -0.537   2.239 -0.1152  0.5777  1.0458
  768MOL0     C 3572   2.426  -0.538   2.105  0.4605  0.7387 -0.2451
  768MOL0     C 3573   2.307  -0.459   2.055  0.7417 -0.7591  0.4694
  768MOL0     C 3574   2.511  -0.616   2.024  0.8835  0.2732  1.0509
  768MOL0     C 3575   2.483  -0.618   1.875 -1.9577  0.4719  0.0290
  768MOL0     O 3576   2.597  -0.641   1.791 -0.6031  0.3972 -0.1824
  768MOL0     C 3577   2.585  -0.646   1.663 -0.4892  1.6079  1.1537
  768MOL0     C 3578   2.609  -0.764   1.592  0.6847 -0.1766 -0.2527
  768MOL0     C 3579   2.600  -0.775   1.454 -0.1339 -0.2226 -0.5760
  768MOL0     C 3580   2.543  -0.657   1.386  0.1268 -0.4936 -0.1730
  768MOL0     O 3581   2.528  -0.645   1.254 -0.7078 -0.6037  0.4392
  768MOL0     C 3582   2.527  -0.755   1.165  0.6152  0.1119  0.0231
  768MOL0     C 3583   2.421  -0.731   1.050 -0.1429  0.3864 -1.0872
  768MOL0     C 3584   2.274  -0.710   1.100 -0.6662 -0.1470 -0.4657
  768MOL0     C 3585   2.169  -0.693   0.985 -0.0672 -0.6162 -0.3326
  768MOL0     C 3586   2.023  -0.715   1.028  1.0499  0.1140  0.2678
  768MOL0     C 3587   1.926  -0.644   0.919  1.5827 -0.2781 -0.5755
  768MOL0     C 3588   1.929  -0.488   0.948 -0.1323 -0.2409  0.0427
  768MOL0     C 3589   1.818  -0.409   0.878  0.1980  1.4202  0.5101
  768MOL0    Cl 3590   1.874  -0.250   0.828 -0.0761  0.2165  0.4678
  768MOL0     C 3591   2.512  -0.542   1.457  0.0158  1.0658  0.1623
  768MOL0     C 3592   2.531  -0.541   1.590  0.2082 -1.0239  0.0048
  768MOL0     O 3593   2.370  -0.636   1.838  0.3095  0.7304  0.2448
  768MOL0     C 3594   2.620  -0.683   2.081 -0.8348 -0.3794  0.0903
  768MOL0     C 3595   2.648  -0.669   2.221  0.5144  0.5609 -0.7038
  768MOL0     N 3596   2.510  -0.360   2.925 -0.0223 -0.7876  0.3705
  768MOL0     N 3597   2.494  -0.249   2.988  0.5390 -0.2739 -0.2299
  768MOL0     C 3598   2.073   0.515   3.309 -0.3988  0.6293 -0.1862
  768MOL0     C 3599   1.933   0.479   3.320 -2.0064  0.3367  0.6788
  768MOL0     C 3600   1.501   0.460   3.329  0.1292 -1.3074 -0.0491
  768MOL0     C 3601   1.405   0.500   3.233 -0.1070 -0.1863  0.2911
  768MOL0     C 3602   1.276   0.446   3.235 -0.7265  0.4656 -0.8424
  768MOL0     C 3603   1.244   0.351   3.337 -0.8663 -0.3285  0.8480
  768MOL0     O 3604   1.117   0.296   3.349  0.1761  0.4694  0.4278
  768MOL0     C 3605   1.005   0.358   3.281 -0.5126  0.5362  0.5815
  768MOL0     C 3606   0.872   0.303   3.345 -0.5302 -0.9465  0.4050
  768MOL0     C 3607   0.747   0.321   3.264  0.6251 -0.2559 -0.6660
  768MOL0     C 3608   0.678   0.458   3.285  0.0336 -0.0446  0.0242
  768MOL0     C 3609   0.652   0.494   3.423  0.0763  0.0274 -0.4699
  768MOL0     C 3610   0.627   0.531   3.534 -0.1312 -0.6820 -0.9572
  768MOL0     C 3611   1.341   0.316   3.433  0.2502 -0.7376  0.0339
  768MOL0     C 3612   1.467   0.374   3.434 -0.1493  0.1964  0.2360
  768MOL0     H 3613   1.873   0.589   3.636  1.7808 -2.5008  2.4623
  768MOL0     H 3614   2.127   0.653   3.617 -0.5549  1.9123 -1.2270
  768MOL0     H 3615   2.394   0.622   3.586  0.7756 -0.9281  0.8433
  768MOL0     H 3616   2.324   0.468   3.548  1.3069 -0.0590  0.7207
  768MOL0     H 3617   2.546   0.599   3.384 -0.3057  0.8306  0.4727
  768MOL0     H 3618   2.564   0.497   3.528  1.0466 -0.0440  0.3258
  768MOL0     H 3619   2.416   0.306   3.378 -2.8727  2.0538 -0.0961
  768MOL0     H 3620   2.438   0.419   3.250  2.1442 -0.4239 -0.2306
  768MOL0     H 3621   2.678   0.406   3.261 -2.5769  0.5961 -2.6378
  768MOL0     H 3622   2.661   0.293   3.397  0.6636  2.4502  0.4328
  768MOL0     H 3623   2.507   0.247   3.144  0.1569  2.9391  2.3420
  768MOL0     H 3624   2.687   0.217   3.145 -0.2883  1.3914  0.4935
  768MOL0     H 3625   2.668   0.051   3.312  1.3694  3.1098  1.6779
  768MOL0     H 3626   2.506   0.077   3.354  0.1817 -0.2168  0.0110
  768MOL0     H 3627   2.537  -0.119   3.227  2.2923  0.5303  0.8724
  768MOL0     H 3628   2.427  -0.022   3.132  1.8360  0.0205 -4.0479
  768MOL0     H 3629   2.729  -0.019   3.077  0.6715 -1.0330  0.4062
  768MOL0     H 3630   2.593   0.020   2.961  0.2665 -1.3124 -0.3996
  768MOL0     H 3631   2.812  -0.217   2.900 -0.1341  1.2344 -4.1120
  768MOL0     H 3632   2.818  -0.483   2.837  0.0802  1.6729 -3.5434
  768MOL0     H 3633   2.675  -0.583   2.887 -2.0304  1.3606  1.8247
  768MOL0     H 3634   2.768  -0.548   2.611 -1.7411 -0.1020 -2.0014
  768MOL0     H 3635   2.661  -0.423   2.627 -2.0171 -0.2382  1.3086
  768MOL0     H 3636   2.496  -0.616   2.728 -1.6741 -0.1662  0.1588
  768MOL0     H 3637   2.610  -0.727   2.652 -0.5868 -0.2113  0.1426
  768MOL0     H 3638   2.444  -0.499   2.532  2.0739  1.5127  0.7242
  768MOL0     H 3639   2.437  -0.677   2.487 -0.9729  1.7147 -1.0449
  768MOL0     H 3640   2.388  -0.466   2.298 -1.6219 -1.4058  2.1026
  768MOL0     H 3641   2.345  -0.377   1.994  0.1980 -0.6609  0.2555
  768MOL0     H 3642   2.225  -0.511   2.005 -1.7055  0.8755  2.5732
  768MOL0     H 3643   2.251  -0.415   2.137 -3.3304 -1.7422 -1.5105
  768MOL0     H 3644   2.635  -0.846   1.658  0.1322  0.2195  0.4782
  768MOL0     H 3645   2.642  -0.867   1.415  1.1746  1.0498 -2.3781
  768MOL0     H 3646   2.627  -0.763   1.121  2.3274  0.7608  3.4046
  768MOL0     H 3647   2.501  -0.848   1.215  1.9947  0.2648  1.0992
  768MOL0     H 3648   2.456  -0.647   0.991  1.0775  0.1902 -0.6747
  768MOL0     H 3649   2.424  -0.827   0.998  0.3292  0.0859 -0.5188
  768MOL0     H 3650   2.258  -0.640   1.183 -3.2660 -2.3365  1.0422
  768MOL0     H 3651   2.242  -0.799   1.155 -2.8282  0.5056 -0.5580
  768MOL0     H 3652   2.188  -0.601   0.929  0.3037 -1.4890 -1.6948
  768MOL0     H 3653   2.179  -0.776   0.915  0.1128 -0.6615 -0.2514
  768MOL0     H 3654   1.999  -0.686   1.130  1.9993 -0.0676  0.5506
  768MOL0     H 3655   1.994  -0.820   1.036 -2.6875  0.9711  0.2331
  768MOL0     H 3656   1.957  -0.658   0.815  0.4474 -3.2433 -0.5858
  768MOL0     H 3657   1.823  -0.677   0.936  0.9827  1.8460  0.2201
  768MOL0     H 3658   2.030  -0.448   0.932 -0.9465  0.9554 -2.6191
  768MOL0     H 3659   1.914  -0.483   1.056 -0.9596 -0.6062 -0.0536
  768MOL0     H 3660   1.727  -0.409   0.939 -0.0726 -1.4952  0.2584
  768MOL0     H 3661   1.807  -0.456   0.779  3.7471  0.5047  0.4214
  768MOL0     H 3662   2.475  -0.450   1.412 -0.1135  2.2680  2.5635
  768MOL0     H 3663   2.505  -0.449   1.641  0.1615 -1.0851  0.0916
  768MOL0     H 3664   2.688  -0.738   2.017 -1.5322 -1.3418  0.1397
  768MOL0     H 3665   2.742  -0.707   2.260 -1.3493 -3.6033  0.1851
  768MOL0     H 3666   2.131   0.479   3.226 -1.7211 -3.0935  0.3178
  768MOL0     H 3667   1.881   0.422   3.244  0.0800 -1.7473  0.7230
  768MOL0     H 3668   1.437   0.564   3.152 -1.2598 -0.7829 -0.6816
  768MOL0     H 3669   1.215   0.484   3.154 -0.5431  0.3079 -1.0547
  768MOL0     H 3670   1.014   0.467   3.287 -1.7005  0.7176 -0.4721
  768MOL0     H 3671   1.004   0.329   3.175 -1.0981 -1.7146  1.1619
  768MOL0     H 3672   0.860   0.336   3.449 -3.0751 -0.1579 -0.0660
  768MOL0     H 3673   0.902   0.199   3.362  2.6573  0.2660  3.4020
  768MOL0     H 3674   0.670   0.250   3.295  0.5508  2.4339  7.8329
  768MOL0     H 3675   0.772   0.309   3.158 -2.0843  0.4025 -1.4651
  768MOL0     H 3676   0.583   0.456   3.230 -0.8993 -0.3874  1.5555
  768MOL0     H 3677   0.731   0.536   3.230  2.0779 -0.5840  1.1399
  768MOL0     H 3678   0.615   0.556   3.638  1.5009  0.7662 -1.0747
  768MOL0     H 3679   1.309   0.244   3.508 -0.9136  1.7228  2.0399
  768MOL0     H 3680   1.541   0.336   3.503 -1.7405  1.0064  2.5488
  769MOL0     O 3681  10.050   3.004   2.280 -0.3495 -0.1789 -0.7837
  769MOL0     C 3682  10.097   3.008   2.398  1.3200  0.1036  0.4942
  769MOL0     O 3683  10.056   2.932   2.504  0.5434  0.7663  0.4893
  769MOL0     C 3684   9.930   2.868   2.493  0.1474 -0.4092  0.2094
  769MOL0     C 3685   9.840   2.883   2.608  0.4148  0.6870  0.5956
  769MOL0     C 3686   9.709   2.834   2.598 -0.4726  0.1731  1.6612
  769MOL0     C 3687   9.658   2.767   2.478 -0.0512  0.2763 -0.4861
  769MOL0     O 3688   9.529   2.716   2.454  0.4605  0.8186 -0.1825
  769MOL0     C 3689   9.470   2.657   2.571  0.2342  0.0012 -0.4216
  769MOL0     C 3690   9.543   2.520   2.596  0.2707 -0.0053  0.0953
  769MOL0     C 3691   9.524   2.420   2.487  0.0345  0.1491  0.5938
  769MOL0     C 3692   9.505   2.273   2.519 -0.4779 -0.8876  1.1382
  769MOL0     C 3693   9.523   2.173   2.398 -0.3058  0.5070 -0.2557
  769MOL0     C 3694   9.432   2.207   2.279  0.3980 -0.1475 -0.4716
  769MOL0     C 3695   9.452   2.121   2.155  0.5005  0.3804 -0.5643
  769MOL0     C 3696   9.592   2.145   2.073  0.5422 -0.1153  0.0669
  769MOL0     N 3697   9.570   2.271   1.994  0.1517  0.5152 -0.5217
  769MOL0     C 3698   9.610   2.398   2.030 -0.2487  1.1281  0.9397
  769MOL0     C 3699   9.556   2.480   1.934  0.0480 -0.1081  0.4338
  769MOL0     C 3700   9.597   2.620   1.928  0.1105 -0.0792  0.8390
  769MOL0     C 3701   9.529   2.707   2.030 -0.1545  1.2875 -0.7268
  769MOL0     C 3702   9.570   2.854   2.031 -0.3119  0.0008 -0.7474
  769MOL0     C 3703   9.488   2.938   2.130 -0.1510 -1.3751 -0.2272
  769MOL0     O 3704   9.352   2.974   2.086  0.4617  0.1638 -0.3710
  769MOL0     C 3705   9.237   2.928   2.151 -0.9036 -0.8523 -0.2121
  769MOL0     C 3706   9.123   3.015   2.160  0.5445 -0.2655 -0.6596
  769MOL0     C 3707   9.005   2.972   2.234 -0.1347  0.2241 -0.6062
  769MOL0     C 3708   8.894   3.074   2.231 -0.2455 -0.1855  0.0695
  769MOL0     C 3709   9.001   2.838   2.292  0.7193  0.1434  0.3456
  769MOL0     C 3710   8.872   2.786   2.348 -0.7082  0.0812 -0.5194
  769MOL0     O 3711   8.756   2.820   2.281 -0.1336 -0.3598 -0.3677
  769MOL0     C 3712   8.630   2.775   2.322 -0.3802  0.1960 -0.3541
  769MOL0     C 3713   8.604   2.657   2.393 -0.2540  0.0100 -0.1119
  769MOL0     C 3714   8.473   2.627   2.422  0.5511 -0.8278 -0.3574
  769MOL0     C 3715   8.356   2.695   2.364  0.5277 -0.4966 -0.7737
  769MOL0     O 3716   8.220   2.676   2.403  0.7920 -0.4850  0.0629
  769MOL0     C 3717   8.171   2.546   2.455 -0.1633  0.5517  0.1060
  769MOL0     C 3718   8.153   2.448   2.343  0.2929 -0.0074  0.4826
  769MOL0     C 3719   8.098   2.324   2.385 -0.9991  0.0764  0.4932
  769MOL0     C 3720   8.119   2.221   2.266  0.0695  0.0495  0.1577
  769MOL0     C 3721   8.123   2.075   2.312 -0.1167 -0.6405  0.6422
  769MOL0     C 3722   8.125   1.977   2.196  0.2724 -0.3312 -0.3968
  769MOL0     C 3723   8.060   1.844   2.233 -0.4841  0.5249  0.1375
  769MOL0     C 3724   8.165   1.751   2.302  0.1700  0.1165 -0.1204
  769MOL0    Cl 3725   8.082   1.617   2.387  0.1053 -0.4103  0.1540
  769MOL0     C 3726   8.382   2.814   2.295 -0.3777 -0.4798 -0.0255
  769MOL0     C 3727   8.518   2.851   2.282 -0.6785 -0.1258 -0.0732
  769MOL0     O 3728   8.879   2.719   2.449  0.8036  0.2574  0.1145
  769MOL0     C 3729   9.127   2.769   2.295  0.2924 -0.1827  1.0775
  769MOL0     C 3730   9.236   2.804   2.216  0.1737  0.6402 -0.7457
  769MOL0     N 3731   9.495   2.401   1.839 -0.1817  0.7981 -0.3631
  769MOL0     N 3732   9.504   2.278   1.875 -0.3706 -0.1193 -1.0164
  769MOL0     C 3733   9.742   2.752   2.366 -1.0339  0.0364  0.2032
  769MOL0     C 3734   9.881   2.802   2.378  0.5395  0.3561  1.5397
  769MOL0     C 3735  10.199   3.115   2.426  0.1476  0.3270 -0.1403
  769MOL0     C 3736  10.242   3.146   2.558  0.1101 -1.0672  0.3488
  769MOL0     C 3737  10.313   3.263   2.593 -0.9000  0.0426  0.6494
  769MOL0     C 3738  10.359   3.349   2.484  0.5113 -0.5011 -0.1216
  769MOL0     O 3739  10.430   3.465   2.507  0.1724  0.1019 -0.1026
  769MOL0     C 3740  10.476   3.547   2.404 -0.5219 -0.9474  0.4132
  769MOL0     C 3741  10.613   3.608   2.470  0.2202 -0.4471 -0.2287
  769MOL0     C 3742  10.721   3.504   2.473  0.2074  0.8009  0.4657
  769MOL0     C 3743  10.768   3.479   2.611  0.1394  0.1326 -0.0470
  769MOL0     C 3744  10.848   3.358   2.593 -0.5453  0.4833  0.7866
  769MOL0     C 3745  10.915   3.258   2.561  0.3144  0.3829  0.9591
  769MOL0     C 3746  10.322   3.314   2.350 -0.4209  0.4086  0.0146
  769MOL0     C 3747  10.244   3.204   2.325  0.0898  0.4009  0.2164
  769MOL0     H 3748   9.845   2.925   2.708 -2.6042  0.3637  0.9747
  769MOL0     H 3749   9.644   2.859   2.682 -1.7424  1.6308  0.3074
  769MOL0     H 3750   9.480   2.713   2.664  0.7030 -1.8372  0.7026
  769MOL0     H 3751   9.361   2.665   2.559  0.4265  0.9357 -1.6661
  769MOL0     H 3752   9.648   2.531   2.624  0.8483 -1.0681 -1.4958
  769MOL0     H 3753   9.496   2.474   2.684  2.8911 -1.0062  1.0592
  769MOL0     H 3754   9.429   2.439   2.435  1.3845  3.1609 -1.0920
  769MOL0     H 3755   9.618   2.438   2.432  0.5576  0.6450  1.6283
  769MOL0     H 3756   9.575   2.227   2.589 -0.8037 -1.4746  1.0807
  769MOL0     H 3757   9.406   2.258   2.563 -1.5867 -1.3764 -1.3291
  769MOL0     H 3758   9.623   2.177   2.353 -0.0266 -0.4177  0.2679
  769MOL0     H 3759   9.504   2.074   2.439 -0.6804 -0.4165 -2.4890
  769MOL0     H 3760   9.330   2.209   2.320  0.1401 -0.6291 -1.0695
  769MOL0     H 3761   9.450   2.310   2.247  3.0090 -0.4235 -0.0996
  769MOL0     H 3762   9.452   2.014   2.180 -2.2154 -0.1305 -2.3097
  769MOL0     H 3763   9.375   2.123   2.077  1.8578 -4.2173 -2.3761
  769MOL0     H 3764   9.609   2.054   2.014 -0.1227  1.0416 -2.0156
  769MOL0     H 3765   9.683   2.152   2.133 -1.5299  0.5442  3.3735
  769MOL0     H 3766   9.653   2.424   2.126 -0.1269  1.7336  0.7221
  769MOL0     H 3767   9.706   2.619   1.935  0.1304  0.5980  0.6852
  769MOL0     H 3768   9.567   2.650   1.827 -0.3883  2.0742  1.5899
  769MOL0     H 3769   9.552   2.663   2.127 -1.1846  3.0112  0.3480
  769MOL0     H 3770   9.421   2.697   2.019 -0.9768  2.6226  4.0108
  769MOL0     H 3771   9.567   2.884   1.926 -0.8928  2.8864  0.0053
  769MOL0     H 3772   9.673   2.858   2.069 -1.5281 -0.2134  2.9562
  769MOL0     H 3773   9.542   3.033   2.139  1.2171 -2.0152 -1.3500
  769MOL0     H 3774   9.477   2.903   2.232  2.0593 -0.6240  0.3151
  769MOL0     H 3775   9.126   3.114   2.115 -2.9598 -1.4928 -4.0909
  769MOL0     H 3776   8.881   3.095   2.338  1.1654 -1.0764  0.4477
  769MOL0     H 3777   8.913   3.170   2.182 -1.8934  0.2549  0.2305
  769MOL0     H 3778   8.801   3.041   2.185  0.9353 -0.9390 -1.8811
  769MOL0     H 3779   8.680   2.590   2.433 -2.8280 -1.3826  2.8679
  769MOL0     H 3780   8.447   2.547   2.490  2.1370 -1.5740 -0.6021
  769MOL0     H 3781   8.235   2.509   2.535  1.4030  0.3862 -1.1861
  769MOL0     H 3782   8.079   2.574   2.507 -0.1269  0.5330  0.1796
  769MOL0     H 3783   8.089   2.479   2.260  0.4284  2.1179  1.1036
  769MOL0     H 3784   8.248   2.432   2.293  0.8803  0.2386  1.4803
  769MOL0     H 3785   7.994   2.325   2.419 -0.7252  2.5886  1.4125
  769MOL0     H 3786   8.154   2.279   2.467 -0.6196  0.7702  0.6196
  769MOL0     H 3787   8.041   2.257   2.198 -0.5415  0.1141  0.8709
  769MOL0     H 3788   8.218   2.234   2.223 -0.0661  1.4955  0.2194
  769MOL0     H 3789   8.036   2.044   2.371 -2.0302  2.4430 -0.2918
  769MOL0     H 3790   8.212   2.058   2.374  0.3473  1.2707  0.5793
  769MOL0     H 3791   8.075   2.024   2.111 -1.5292  0.4899  1.0377
  769MOL0     H 3792   8.224   1.959   2.153 -0.9110  1.7985 -4.5250
  769MOL0     H 3793   8.027   1.793   2.142  0.1834 -0.9395  0.6919
  769MOL0     H 3794   7.971   1.850   2.296 -0.8838  0.8921 -0.4512
  769MOL0     H 3795   8.219   1.804   2.380 -2.6142 -0.2861  2.2564
  769MOL0     H 3796   8.238   1.706   2.234  0.2207 -0.3599  0.2449
  769MOL0     H 3797   8.299   2.877   2.264  0.1675  0.5655  0.5710
  769MOL0     H 3798   8.538   2.948   2.239 -1.8889  0.3831  0.4660
  769MOL0     H 3799   9.141   2.675   2.348  1.8047 -0.6236 -0.0370
  769MOL0     H 3800   9.311   2.727   2.226 -1.0805 -0.3482  2.2642
  769MOL0     H 3801   9.710   2.706   2.273 -4.2613  1.3525  0.5229
  769MOL0     H 3802   9.944   2.781   2.292 -1.0815  1.0687  0.1218
  769MOL0     H 3803  10.217   3.081   2.642 -0.3272 -1.4052 -0.0429
  769MOL0     H 3804  10.336   3.293   2.695  2.4195 -2.0435  0.6664
  769MOL0     H 3805  10.504   3.484   2.319  1.0017  2.9107 -2.2315
  769MOL0     H 3806  10.415   3.632   2.370 -0.2066 -1.1395 -0.6686
  769MOL0     H 3807  10.587   3.647   2.569 -2.4166 -1.9782 -0.2416
  769MOL0     H 3808  10.647   3.691   2.407 -0.4610  0.0290  0.0153
  769MOL0     H 3809  10.809   3.526   2.412  0.9597 -0.1095  1.1978
  769MOL0     H 3810  10.678   3.411   2.434 -0.6792  1.5928 -0.5465
  769MOL0     H 3811  10.677   3.456   2.668  1.6616 -1.1470  1.9764
  769MOL0     H 3812  10.834   3.558   2.649  1.9217 -0.6432 -1.3993
  769MOL0     H 3813  10.989   3.181   2.554  1.5567  1.4743  1.7050
  769MOL0     H 3814  10.357   3.368   2.263 -1.1334 -0.8847 -1.1030
  769MOL0     H 3815  10.218   3.170   2.225  5.0306 -0.2293 -1.1296
  770MOL0     O 3816   1.328   2.960   0.350 -0.3209  0.0848 -0.0344
  770MOL0     C 3817   1.259   3.054   0.308 -0.4178 -0.2614  0.1317
  770MOL0     O 3818   1.148   3.037   0.227  0.4505 -0.1526 -0.1079
  770MOL0     C 3819   1.141   2.941   0.127  0.1824  0.1434  0.4945
  770MOL0     C 3820   1.202   2.809   0.125  0.0701  0.7631 -0.7178
  770MOL0     C 3821   1.216   2.746   0.010  0.4550  0.4160  1.0622
  770MOL0     C 3822   1.183   2.789  -0.113  0.2053 -0.4467  0.7443
  770MOL0     O 3823   1.211   2.713  -0.234  0.4369 -0.0939 -0.0339
  770MOL0     C 3824   1.219   2.770  -0.361  0.0106 -0.0041 -0.0943
  770MOL0     C 3825   1.083   2.761  -0.431  0.0448  0.4875 -0.5738
  770MOL0     C 3826   1.023   2.625  -0.410  0.7738 -0.0204 -0.3239
  770MOL0     C 3827   0.904   2.592  -0.503  0.8148 -0.2427 -0.8720
  770MOL0     C 3828   0.863   2.442  -0.486 -0.5643 -1.1421  0.4426
  770MOL0     C 3829   0.963   2.330  -0.532  0.3924 -0.2706 -0.1921
  770MOL0     C 3830   0.905   2.184  -0.510  0.2357 -0.6043 -0.2786
  770MOL0     C 3831   1.018   2.088  -0.562  0.4499  0.6801 -1.1832
  770MOL0     N 3832   1.124   2.086  -0.464  1.2752  0.8979  0.9094
  770MOL0     C 3833   1.244   2.131  -0.481  0.6247  0.9317  0.3298
  770MOL0     C 3834   1.303   2.093  -0.365 -0.7288 -1.5112  0.5172
  770MOL0     C 3835   1.447   2.088  -0.330 -0.6897  0.2336  0.6342
  770MOL0     C 3836   1.537   2.000  -0.414  0.1450 -0.3548  0.0099
  770MOL0     C 3837   1.458   1.882  -0.479  0.9107 -0.2096 -0.3007
  770MOL0     C 3838   1.552   1.767  -0.516  0.5669  0.2132 -0.3771
  770MOL0     O 3839   1.663   1.815  -0.589 -0.0847  0.5336 -0.8970
  770MOL0     C 3840   1.737   1.733  -0.666 -0.4235 -0.2731  0.6629
  770MOL0     C 3841   1.845   1.803  -0.728 -0.0721  0.5200  0.8649
  770MOL0     C 3842   1.936   1.735  -0.811 -1.3063  0.6977  0.9230
  770MOL0     C 3843   2.037   1.826  -0.868  0.2328 -0.1786 -0.2507
  770MOL0     C 3844   1.927   1.596  -0.824 -0.4260  0.6681 -0.2919
  770MOL0     C 3845   2.020   1.520  -0.913 -0.5966 -0.9867 -0.0881
  770MOL0     O 3846   2.096   1.594  -1.001 -0.0305  0.6248 -0.2996
  770MOL0     C 3847   2.170   1.517  -1.091  0.4178 -0.3824 -0.7395
  770MOL0     C 3848   2.115   1.497  -1.218 -1.4010  0.2360  0.3819
  770MOL0     C 3849   2.170   1.410  -1.304  0.7979  0.3032  0.1830
  770MOL0     C 3850   2.285   1.333  -1.274 -0.0802  0.6766 -0.1756
  770MOL0     O 3851   2.323   1.233  -1.366 -0.6178  0.5438  0.1479
  770MOL0     C 3852   2.403   1.126  -1.313  0.1669  0.4189 -1.4038
  770MOL0     C 3853   2.415   1.005  -1.397  0.6630 -0.0840  0.8979
  770MOL0     C 3854   2.486   0.887  -1.332  1.1565 -0.6089 -0.2457
  770MOL0     C 3855   2.543   0.782  -1.439  0.2545 -0.0069  0.1402
  770MOL0     C 3856   2.598   0.671  -1.357  0.2071  0.4090  0.8856
  770MOL0     C 3857   2.710   0.694  -1.258 -1.0593  0.0423 -0.4948
  770MOL0     C 3858   2.837   0.758  -1.321 -0.4851 -0.3146  0.8568
  770MOL0     C 3859   2.967   0.679  -1.281  0.0541  0.5532 -0.9607
  770MOL0    Cl 3860   3.018   0.710  -1.108 -0.3504 -0.0193  0.1091
  770MOL0     C 3861   2.341   1.343  -1.148  0.7412  0.2171  0.2333
  770MOL0     C 3862   2.283   1.436  -1.052 -0.6904 -0.4351 -0.1061
  770MOL0     O 3863   2.017   1.396  -0.899 -0.7925  0.5581  0.0021
  770MOL0     C 3864   1.819   1.525  -0.756  0.5879  0.0847  0.0255
  770MOL0     C 3865   1.728   1.594  -0.671  0.0886  0.7046  1.1721
  770MOL0     N 3866   1.209   2.026  -0.291 -0.3431  0.4132 -0.3099
  770MOL0     N 3867   1.099   2.020  -0.353 -1.5100  0.3805 -0.4938
  770MOL0     C 3868   1.113   2.914  -0.118 -0.2031 -0.5821 -1.1931
  770MOL0     C 3869   1.101   2.995  -0.003 -0.1618 -0.2887 -0.8985
  770MOL0     C 3870   1.298   3.193   0.335 -1.1104 -0.8054  0.2311
  770MOL0     C 3871   1.417   3.218   0.415 -0.1644 -0.5968  0.1792
  770MOL0     C 3872   1.447   3.352   0.442  0.2408 -0.1489 -0.2322
  770MOL0     C 3873   1.356   3.458   0.407 -0.4863 -1.1960  1.2255
  770MOL0     O 3874   1.369   3.594   0.456  0.0260  0.5716 -0.2032
  770MOL0     C 3875   1.448   3.616   0.574  0.5038 -0.2442  0.1579
  770MOL0     C 3876   1.464   3.770   0.613  0.0100 -0.3792 -0.5875
  770MOL0     C 3877   1.324   3.832   0.636  0.5169 -0.1613 -0.1015
  770MOL0     C 3878   1.322   3.983   0.627  0.1706 -0.6592 -0.3723
  770MOL0     C 3879   1.448   4.042   0.671 -0.6714 -0.2857 -1.2406
  770MOL0     C 3880   1.556   4.073   0.702 -0.0741 -0.6795 -1.5203
  770MOL0     C 3881   1.252   3.432   0.323 -0.5354 -0.3978 -0.0187
  770MOL0     C 3882   1.217   3.303   0.293  0.0681  0.4815  0.9687
  770MOL0     H 3883   1.244   2.767   0.215  0.3904  2.1406 -0.2002
  770MOL0     H 3884   1.256   2.645   0.015 -2.7998 -0.9579  4.4470
  770MOL0     H 3885   1.266   2.869  -0.356  1.9397 -0.8521 -0.6381
  770MOL0     H 3886   1.286   2.719  -0.431  2.9495 -1.8783  3.7505
  770MOL0     H 3887   1.023   2.841  -0.387  2.6532  2.4921 -0.4284
  770MOL0     H 3888   1.096   2.784  -0.537 -1.3585 -1.1936 -1.1438
  770MOL0     H 3889   1.097   2.548  -0.433  1.3450  0.1442  0.9095
  770MOL0     H 3890   0.992   2.610  -0.307  1.8285  2.6816  0.4668
  770MOL0     H 3891   0.820   2.660  -0.485 -0.2360 -1.1327 -2.2784
  770MOL0     H 3892   0.939   2.608  -0.605  2.4953  4.4269  0.1682
  770MOL0     H 3893   0.844   2.423  -0.380  3.0431 -1.2427  1.1920
  770MOL0     H 3894   0.772   2.427  -0.544 -1.9306 -4.5383  3.0801
  770MOL0     H 3895   0.994   2.336  -0.637  2.5463 -4.2235  0.0431
  770MOL0     H 3896   1.054   2.341  -0.472  0.9566  0.1605 -1.0937
  770MOL0     H 3897   0.895   2.156  -0.404  1.2253  2.5379  0.7479
  770MOL0     H 3898   0.816   2.167  -0.571  0.1435  2.6124 -1.2123
  770MOL0     H 3899   1.063   2.119  -0.657 -0.4703  0.9494 -1.5499
  770MOL0     H 3900   0.978   1.988  -0.578  0.8195  0.0944  1.2452
  770MOL0     H 3901   1.273   2.168  -0.579 -2.5517 -1.4554 -1.7223
  770MOL0     H 3902   1.484   2.190  -0.341  2.1239 -0.3940  3.0110
  770MOL0     H 3903   1.435   2.061  -0.225 -2.4056  2.3317  1.0441
  770MOL0     H 3904   1.618   1.962  -0.351  1.3519 -0.0001 -1.2987
  770MOL0     H 3905   1.582   2.058  -0.495  1.1349 -3.4628 -1.8396
  770MOL0     H 3906   1.414   1.895  -0.578 -1.7351 -2.6879  0.3992
  770MOL0     H 3907   1.374   1.858  -0.413  0.6644  3.7059  1.0363
  770MOL0     H 3908   1.497   1.703  -0.585  1.6002 -0.1219 -0.9079
  770MOL0     H 3909   1.585   1.722  -0.421 -1.3283  1.4058  0.9284
  770MOL0     H 3910   1.835   1.911  -0.729 -2.4996  0.3625  1.4027
  770MOL0     H 3911   2.037   1.841  -0.977  0.6451  0.4504 -0.1709
  770MOL0     H 3912   2.020   1.928  -0.833  2.2654  0.2524 -0.4012
  770MOL0     H 3913   2.138   1.791  -0.846 -0.5705 -1.0075  2.4518
  770MOL0     H 3914   2.022   1.550  -1.234 -0.7668  2.0025  2.2092
  770MOL0     H 3915   2.138   1.381  -1.404 -2.3834 -1.9680  1.6778
  770MOL0     H 3916   2.504   1.161  -1.288  0.5918 -2.6617  2.1424
  770MOL0     H 3917   2.352   1.092  -1.222  0.7740  2.8223 -0.0497
  770MOL0     H 3918   2.317   0.979  -1.438  2.0220  0.4984 -3.1743
  770MOL0     H 3919   2.468   1.034  -1.488  0.9988 -3.7462 -0.2348
  770MOL0     H 3920   2.411   0.845  -1.264 -0.3923  2.5596  0.1806
  770MOL0     H 3921   2.565   0.946  -1.283 -1.5112  0.9262  2.5701
  770MOL0     H 3922   2.467   0.740  -1.506  1.1926 -0.4734 -0.6580
  770MOL0     H 3923   2.622   0.826  -1.501  0.4455 -0.4149  0.0932
  770MOL0     H 3924   2.637   0.596  -1.425  1.5962  0.9566  1.0423
  770MOL0     H 3925   2.515   0.617  -1.310 -1.9210  0.9726 -1.9690
  770MOL0     H 3926   2.669   0.763  -1.184 -1.4157  1.9668 -2.3747
  770MOL0     H 3927   2.748   0.604  -1.210  1.7470  1.4615  0.2080
  770MOL0     H 3928   2.845   0.861  -1.283  0.3534 -0.3696  0.8536
  770MOL0     H 3929   2.828   0.753  -1.430 -0.7033  1.0352  0.7893
  770MOL0     H 3930   3.049   0.711  -1.345  1.1048 -0.3396 -0.0973
  770MOL0     H 3931   2.957   0.571  -1.294  1.1864  0.3005  0.1126
  770MOL0     H 3932   2.420   1.275  -1.117  0.1328 -1.5313 -1.8582
  770MOL0     H 3933   2.329   1.428  -0.954  1.4124 -2.8801 -1.1846
  770MOL0     H 3934   1.817   1.420  -0.785  1.3452 -0.2470  1.0757
  770MOL0     H 3935   1.655   1.539  -0.612  0.9787 -0.1244  1.5170
  770MOL0     H 3936   1.072   2.965  -0.206  2.9319  0.6949 -2.0422
  770MOL0     H 3937   1.040   3.085  -0.004  3.0969  2.1778  0.9083
  770MOL0     H 3938   1.482   3.136   0.441  1.5189  0.7065  0.2520
  770MOL0     H 3939   1.541   3.376   0.489  0.0957  1.1069 -0.5411
  770MOL0     H 3940   1.402   3.553   0.651  0.3195  0.3262  0.5196
  770MOL0     H 3941   1.550   3.577   0.563  0.5677 -0.3721  1.1095
  770MOL0     H 3942   1.523   3.813   0.532  3.0726  1.5594  2.3972
  770MOL0     H 3943   1.519   3.784   0.706 -1.2245 -0.2860  0.1532
  770MOL0     H 3944   1.307   3.807   0.741 -2.7180 -1.2072 -0.7677
  770MOL0     H 3945   1.243   3.786   0.580 -0.7283 -1.3760  2.5412
  770MOL0     H 3946   1.247   4.024   0.696  3.3453 -0.1253  3.0772
  770MOL0     H 3947   1.303   4.013   0.523 -1.0490 -2.5846 -0.7602
  770MOL0     H 3948   1.658   4.104   0.717  0.0211  2.2413 -6.0788
  770MOL0     H 3949   1.179   3.508   0.296 -2.6663 -1.3618  2.5570
  770MOL0     H 3950   1.128   3.278   0.237  2.0443 -3.0122 -0.9772
  771MOL0     O 3951   0.791   2.417   7.386  0.6383  0.6136  0.0300
  771MOL0     C 3952   0.877   2.502   7.419 -1.1547 -0.6087  0.1930
  771MOL0     O 3953   0.864   2.591   7.530 -0.0983 -0.7391  0.1511
  771MOL0     C 3954   0.739   2.582   7.585 -0.6832  0.6923 -0.0983
  771MOL0     C 3955   0.696   2.494   7.686 -0.2190  0.1418 -0.4685
  771MOL0     C 3956   0.570   2.488   7.725  1.0223 -0.5560 -0.4600
  771MOL0     C 3957   0.469   2.573   7.665 -0.0757 -0.4482 -0.3397
  771MOL0     O 3958   0.334   2.573   7.717  0.0240 -0.4195  0.6307
  771MOL0     C 3959   0.317   2.581   7.858  0.5880  0.6010  0.5885
  771MOL0     C 3960   0.253   2.717   7.897 -0.4970  0.2102  0.6477
  771MOL0     C 3961   0.118   2.727   7.834 -0.0768 -0.1553  0.7015
  771MOL0     C 3962   0.043   2.844   7.885  0.6650 -0.7941  0.7868
  771MOL0     C 3963   0.109   2.984   7.875 -0.4136  0.6085 -0.2530
  771MOL0     C 3964   0.108   3.048   8.007  1.1875  0.9906 -0.8203
  771MOL0     C 3965   0.194   3.172   8.012 -0.6431  0.0975 -0.5018
  771MOL0     C 3966   0.141   3.278   8.101  0.1517 -0.5946 -0.6769
  771MOL0     N 3967   0.203   3.403   8.070 -0.9640 -0.1595  0.2332
  771MOL0     C 3968   0.332   3.431   8.105 -1.4499  0.2797  0.5018
  771MOL0     C 3969   0.357   3.551   8.051 -0.4364 -0.5887 -0.6660
  771MOL0     C 3970   0.487   3.623   8.050  0.0203 -0.5231 -0.1222
  771MOL0     C 3971   0.496   3.709   7.914  0.5341  0.9608 -0.2463
  771MOL0     C 3972   0.632   3.782   7.918 -0.4619 -0.8027  0.8734
  771MOL0     C 3973   0.615   3.921   7.970 -0.7723 -0.4162  0.4933
  771MOL0     O 3974   0.572   3.937   8.097 -0.2934 -0.6541  0.9895
  771MOL0     C 3975   0.603   4.055   8.156 -0.2218  0.3569  0.7146
  771MOL0     C 3976   0.647   4.177   8.096  0.2254 -0.3560  0.8906
  771MOL0     C 3977   0.653   4.295   8.164  0.6185 -0.3829 -0.6846
  771MOL0     C 3978   0.672   4.418   8.079  0.0854  0.1226  1.2352
  771MOL0     C 3979   0.626   4.297   8.306 -0.7298 -0.4531 -0.3872
  771MOL0     C 3980   0.657   4.411   8.408  0.8254 -0.8187  0.2073
  771MOL0     O 3981   0.775   4.480   8.412 -0.5510 -0.2375  0.6416
  771MOL0     C 3982   0.792   4.579   8.511 -0.2063 -0.1777  0.4720
  771MOL0     C 3983   0.774   4.715   8.488 -0.9575  0.4655  0.2155
  771MOL0     C 3984   0.768   4.802   8.597 -0.7944  0.0713 -0.7042
  771MOL0     C 3985   0.769   4.754   8.725  0.1967  0.3061  0.4250
  771MOL0     O 3986   0.750   4.846   8.821 -0.8575  0.2106  0.9235
  771MOL0     C 3987   0.645   4.815   8.916  0.5217  0.1417 -0.6145
  771MOL0     C 3988   0.612   4.934   9.007  0.0832 -0.5458 -0.8596
  771MOL0     C 3989   0.731   4.989   9.087 -0.7422 -0.3076 -0.0002
  771MOL0     C 3990   0.693   5.108   9.194  0.7330 -0.0147  0.0190
  771MOL0     C 3991   0.792   5.111   9.308 -0.8890 -0.5660  0.2730
  771MOL0     C 3992   0.775   5.219   9.400  0.2836  0.4338 -0.3204
  771MOL0     C 3993   0.858   5.205   9.531  0.3715 -0.2005 -0.2724
  771MOL0     C 3994   0.998   5.239   9.527  0.3549  0.7489 -0.6166
  771MOL0    Cl 3995   1.038   5.408   9.489 -0.0025  0.0548  0.4167
  771MOL0     C 3996   0.784   4.622   8.746  0.5081  0.7016  0.5277
  771MOL0     C 3997   0.788   4.532   8.641 -0.5169 -0.4090  1.3305
  771MOL0     O 3998   0.561   4.436   8.489 -0.8227 -0.0194 -0.1908
  771MOL0     C 3999   0.598   4.170   8.363 -0.0698 -0.4639 -1.0796
  771MOL0     C 4000   0.586   4.061   8.291 -0.1246  0.9043  0.0225
  771MOL0     N 4001   0.242   3.592   7.979 -0.2790  0.2291  0.9301
  771MOL0     N 4002   0.156   3.495   7.987  0.2351  0.1666 -0.2277
  771MOL0     C 4003   0.513   2.650   7.550  0.4411 -0.5059 -0.1498
  771MOL0     C 4004   0.645   2.653   7.513  0.2403 -0.7010 -0.6391
  771MOL0     C 4005   1.000   2.508   7.337 -0.4368 -0.3095 -1.4760
  771MOL0     C 4006   1.118   2.569   7.373  0.5129  0.0973 -0.4779
  771MOL0     C 4007   1.229   2.577   7.285 -0.4653 -0.1316 -0.4980
  771MOL0     C 4008   1.227   2.523   7.159  0.5349 -0.2911  0.1425
  771MOL0     O 4009   1.323   2.525   7.063 -0.6281 -0.0515 -0.3477
  771MOL0     C 4010   1.435   2.612   7.095  0.5299 -0.6553  0.1562
  771MOL0     C 4011   1.392   2.761   7.079  0.2531 -0.0825  0.0471
  771MOL0     C 4012   1.512   2.851   7.051 -0.8848 -0.0905 -0.5251
  771MOL0     C 4013   1.472   2.984   7.007  0.1518  0.3579 -0.0845
  771MOL0     C 4014   1.383   3.051   7.098  0.2045 -0.3475  0.0498
  771MOL0     C 4015   1.320   3.090   7.201 -1.0918  0.8248 -0.4624
  771MOL0     C 4016   1.112   2.448   7.119 -0.3985  0.3916 -0.1450
  771MOL0     C 4017   1.002   2.450   7.206 -0.0462 -0.0185  0.2998
  771MOL0     H 4018   0.766   2.427   7.735  1.0923  1.9486  0.2406
  771MOL0     H 4019   0.550   2.421   7.807  0.9206 -0.1936 -0.1844
  771MOL0     H 4020   0.254   2.499   7.895  2.0753  0.7619  3.7665
  771MOL0     H 4021   0.413   2.574   7.910  2.0596 -0.6330 -2.0742
  771MOL0     H 4022   0.259   2.740   8.004  0.8775 -0.2474  0.6818
  771MOL0     H 4023   0.327   2.782   7.850  1.7710 -1.4275  1.8060
  771MOL0     H 4024   0.120   2.726   7.724 -2.1048 -3.5689  0.5350
  771MOL0     H 4025   0.056   2.641   7.860 -2.3046 -0.1501 -3.6385
  771MOL0     H 4026  -0.036   2.831   7.810  1.1229 -0.0305  0.1516
  771MOL0     H 4027   0.016   2.828   7.990 -0.8049  2.5276  1.0520
  771MOL0     H 4028   0.209   2.969   7.833 -1.7851  1.2727 -4.1691
  771MOL0     H 4029   0.044   3.040   7.806  0.3883  2.6814  0.5785
  771MOL0     H 4030   0.006   3.057   8.045  1.3833 -2.1022  0.7970
  771MOL0     H 4031   0.159   2.980   8.076 -0.2613  1.6104  0.9454
  771MOL0     H 4032   0.293   3.145   8.051 -0.5067 -1.7529 -1.9658
  771MOL0     H 4033   0.202   3.217   7.913  2.9721  1.6570  0.3364
  771MOL0     H 4034   0.165   3.257   8.206  0.4484  0.9648 -0.4045
  771MOL0     H 4035   0.033   3.289   8.090  0.0639  0.5806  0.8653
  771MOL0     H 4036   0.411   3.386   8.164  1.3025 -0.6968 -3.5050
  771MOL0     H 4037   0.510   3.674   8.144  0.2035  0.0493 -0.4735
  771MOL0     H 4038   0.570   3.554   8.034  1.1143  0.5287  0.7931
  771MOL0     H 4039   0.413   3.779   7.921 -1.0385 -0.9920  2.5751
  771MOL0     H 4040   0.479   3.633   7.836  0.9268  0.1415  0.4466
  771MOL0     H 4041   0.685   3.780   7.822 -2.3675 -0.1041 -0.2547
  771MOL0     H 4042   0.702   3.739   7.990 -0.7612  0.1496  1.7693
  771MOL0     H 4043   0.542   3.965   7.901 -0.6841  1.8348  1.7181
  771MOL0     H 4044   0.713   3.964   7.947 -1.5914 -0.7409 -4.6214
  771MOL0     H 4045   0.666   4.171   7.990 -0.3089 -2.2944  0.8639
  771MOL0     H 4046   0.625   4.405   7.981  0.5428  1.5323  0.7991
  771MOL0     H 4047   0.635   4.507   8.132 -0.9653  1.0762 -0.9739
  771MOL0     H 4048   0.776   4.437   8.054 -0.4353 -1.8213 -3.5858
  771MOL0     H 4049   0.768   4.753   8.387  1.3012 -0.4649 -0.3151
  771MOL0     H 4050   0.760   4.910   8.596  0.7176  0.4467  3.8848
  771MOL0     H 4051   0.553   4.798   8.859 -1.6947  0.6649  2.5494
  771MOL0     H 4052   0.664   4.723   8.970 -1.2926 -1.0537 -1.8784
  771MOL0     H 4053   0.588   5.024   8.950 -1.2485 -1.7957 -2.3515
  771MOL0     H 4054   0.523   4.915   9.068 -0.4936  0.2846 -1.4242
  771MOL0     H 4055   0.789   5.043   9.012 -0.9953 -1.0727 -0.7524
  771MOL0     H 4056   0.799   4.920   9.139  0.7777 -0.1491 -1.6650
  771MOL0     H 4057   0.705   5.196   9.129 -2.1356  0.8454  0.5160
  771MOL0     H 4058   0.593   5.095   9.234 -0.9031  1.2713 -3.2762
  771MOL0     H 4059   0.897   5.121   9.280 -0.5349  0.7528  1.8806
  771MOL0     H 4060   0.789   5.014   9.359  2.8767 -0.7428  0.4113
  771MOL0     H 4061   0.794   5.318   9.357  1.1747  1.2191  1.7466
  771MOL0     H 4062   0.668   5.221   9.425  0.0869  3.7526 -0.9368
  771MOL0     H 4063   0.841   5.108   9.577 -0.0719  0.5568  1.2240
  771MOL0     H 4064   0.801   5.274   9.594 -1.8399 -2.2461  0.0909
  771MOL0     H 4065   1.040   5.168   9.455 -1.3440 -2.7488  1.5359
  771MOL0     H 4066   1.031   5.208   9.626 -1.5544 -1.4840 -0.6067
  771MOL0     H 4067   0.786   4.596   8.852 -1.1204  0.1630  0.4534
  771MOL0     H 4068   0.800   4.425   8.651  1.0187 -0.5177 -0.9758
  771MOL0     H 4069   0.566   4.152   8.465  0.4571 -2.8261 -1.2678
  771MOL0     H 4070   0.554   3.970   8.340 -0.1555  0.9579  0.1017
  771MOL0     H 4071   0.437   2.685   7.482  0.3388 -0.5455 -0.0564
  771MOL0     H 4072   0.681   2.721   7.436 -2.2654 -0.3148 -1.5735
  771MOL0     H 4073   1.128   2.610   7.473 -1.2923 -0.9374  0.1591
  771MOL0     H 4074   1.300   2.654   7.313 -1.3827  0.1950  1.0297
  771MOL0     H 4075   1.480   2.597   7.193  1.0114 -2.2183 -0.2896
  771MOL0     H 4076   1.508   2.586   7.018  1.9950  2.3905  0.3631
  771MOL0     H 4077   1.341   2.805   7.165 -0.2134  1.8653 -1.1531
  771MOL0     H 4078   1.313   2.757   7.003 -1.4001 -0.0093  1.6997
  771MOL0     H 4079   1.580   2.803   6.981  0.2972  0.3308  0.3079
  771MOL0     H 4080   1.573   2.861   7.141  0.4576 -2.6758 -1.0509
  771MOL0     H 4081   1.424   2.970   6.909  2.6418  0.7289 -1.4367
  771MOL0     H 4082   1.555   3.051   6.979  1.0520 -0.3373  0.8725
  771MOL0     H 4083   1.263   3.135   7.281 -1.5134  2.1788 -1.4847
  771MOL0     H 4084   1.118   2.408   7.019  1.5877 -1.2699  0.5601
  771MOL0     H 4085   0.910   2.406   7.170  0.0519  0.1104 -0.1100
  772MOL0     O 4086   1.522   8.236  11.394  1.1426  0.1305  0.4958
  772MOL0     C 4087   1.597   8.139  11.419 -0.2311  0.9580 -0.5092
  772MOL0     O 4088   1.601   8.024  11.336 -0.1304 -0.2880  0.6406
  772MOL0     C 4089   1.516   8.016  11.237 -0.8067 -0.7771 -0.1119
  772MOL0     C 4090   1.568   8.035  11.109  0.1493  0.1303  0.0280
  772MOL0     C 4091   1.475   8.015  11.003 -0.7457 -0.2771  0.1786
  772MOL0     C 4092   1.340   7.973  11.022 -0.0698 -0.2753  0.7518
  772MOL0     O 4093   1.250   7.954  10.919  0.1297 -0.0836 -0.0638
  772MOL0     C 4094   1.251   8.054  10.818 -0.1715 -0.2764 -0.1298
  772MOL0     C 4095   1.101   8.070  10.754 -0.3219 -0.0697  0.2722
  772MOL0     C 4096   1.009   8.126  10.856  0.6384 -0.5574  0.3404
  772MOL0     C 4097   0.883   8.188  10.801  0.8142 -0.3426 -0.1756
  772MOL0     C 4098   0.913   8.332  10.772  0.0162  0.1292  0.8747
  772MOL0     C 4099   0.801   8.426  10.743  1.4257  0.2040 -0.1609
  772MOL0     C 4100   0.845   8.541  10.667 -0.2335 -0.0344  1.2220
  772MOL0     C 4101   0.730   8.602  10.596  0.1355 -0.5848 -0.0565
  772MOL0     N 4102   0.766   8.698  10.487 -0.6307  0.3746 -0.6643
  772MOL0     C 4103   0.770   8.833  10.498 -0.5999 -0.7214  1.1663
  772MOL0     C 4104   0.803   8.875  10.370  0.9942 -0.4881  1.0857
  772MOL0     C 4105   0.869   9.014  10.332  0.5050  0.3364 -0.4818
  772MOL0     C 4106   1.017   9.009  10.323  0.4446 -0.1527  0.0870
  772MOL0     C 4107   1.075   8.963  10.193  0.1515 -1.3496 -1.4111
  772MOL0     C 4108   1.213   9.017  10.186 -0.8006 -0.1960  0.8597
  772MOL0     O 4109   1.278   9.014  10.063 -0.0441 -0.1610 -0.1496
  772MOL0     C 4110   1.216   8.943   9.957  0.2690 -0.3342 -0.0658
  772MOL0     C 4111   1.234   8.804   9.938 -0.1057  0.2112 -0.7123
  772MOL0     C 4112   1.178   8.727   9.837  0.0232  0.0705  0.4121
  772MOL0     C 4113   1.200   8.580   9.841  0.4359 -0.4107  0.2681
  772MOL0     C 4114   1.082   8.791   9.744 -0.0311 -0.9683 -0.1006
  772MOL0     C 4115   1.005   8.732   9.634  1.2401  0.0132  0.2040
  772MOL0     O 4116   0.923   8.822   9.576 -0.2257  0.5382  0.6804
  772MOL0     C 4117   0.860   8.776   9.465 -0.1746  0.9410  0.3250
  772MOL0     C 4118   0.762   8.671   9.457  0.1662 -0.5356  0.1953
  772MOL0     C 4119   0.713   8.644   9.334 -0.3346  0.0477 -0.2231
  772MOL0     C 4120   0.736   8.713   9.218 -0.1034  0.1134 -0.1639
  772MOL0     O 4121   0.667   8.700   9.096 -0.3586  0.4180  0.4088
  772MOL0     C 4122   0.584   8.589   9.087  0.1464  0.0039  0.3748
  772MOL0     C 4123   0.519   8.580   8.945 -0.2565  0.6126  0.3790
  772MOL0     C 4124   0.623   8.508   8.844  0.5038 -0.3044 -0.1988
  772MOL0     C 4125   0.763   8.570   8.855  0.0002 -1.6129  0.1711
  772MOL0     C 4126   0.857   8.524   8.742 -0.9448  0.1896  0.1918
  772MOL0     C 4127   0.986   8.602   8.734 -0.5417 -1.2037 -0.0490
  772MOL0     C 4128   1.104   8.529   8.666  0.2141  0.3133  0.1111
  772MOL0     C 4129   1.234   8.624   8.663 -0.1161  0.4211  0.4812
  772MOL0    Cl 4130   1.297   8.622   8.826  0.7447 -0.1152  0.9514
  772MOL0     C 4131   0.826   8.818   9.232 -1.1204 -0.7185  0.8969
  772MOL0     C 4132   0.886   8.848   9.358  0.9120 -0.5501  0.5635
  772MOL0     O 4133   1.022   8.612   9.604 -0.0707 -0.0194 -1.1779
  772MOL0     C 4134   1.065   8.935   9.766 -0.3569  0.2223  0.1687
  772MOL0     C 4135   1.129   9.006   9.867  0.3054 -0.5804  0.6049
  772MOL0     N 4136   0.816   8.762  10.288 -0.0283  0.7118  0.9444
  772MOL0     N 4137   0.789   8.655  10.358  0.3751 -0.2761 -0.1823
  772MOL0     C 4138   1.303   7.955  11.154 -0.2735 -0.1964  0.4463
  772MOL0     C 4139   1.384   7.969  11.263 -0.4335 -0.2312 -1.4238
  772MOL0     C 4140   1.688   8.130  11.530 -0.0929 -0.2779 -0.8643
  772MOL0     C 4141   1.804   8.048  11.523 -1.4226  0.1889 -0.3058
  772MOL0     C 4142   1.882   8.039  11.634  0.0011  0.0827 -1.0470
  772MOL0     C 4143   1.867   8.116  11.746 -0.3349 -0.1180  0.3054
  772MOL0     O 4144   1.954   8.127  11.860 -0.8998  0.0320 -0.4538
  772MOL0     C 4145   2.080   8.177  11.825 -1.3122 -0.0721  0.0770
  772MOL0     C 4146   2.195   8.079  11.876  0.2164  0.5362  0.5799
  772MOL0     C 4147   2.323   8.154  11.897  0.1895 -0.2333  0.1072
  772MOL0     C 4148   2.420   8.099  12.005 -0.0633 -0.0071 -0.9047
  772MOL0     C 4149   2.456   7.959  11.993  0.0495 -0.2759  0.5298
  772MOL0     C 4150   2.489   7.846  11.981  0.1831 -0.2193  0.7085
  772MOL0     C 4151   1.763   8.207  11.743  0.9818  0.9021 -0.5303
  772MOL0     C 4152   1.669   8.212  11.643  0.5363  0.2732 -0.1959
  772MOL0     H 4153   1.674   8.055  11.095  0.8515 -3.0963  0.0479
  772MOL0     H 4154   1.506   8.026  10.900  0.9762  1.1124  0.7823
  772MOL0     H 4155   1.276   8.149  10.865 -1.7017 -0.2101  0.6098
  772MOL0     H 4156   1.331   8.033  10.747  1.3892 -1.8978  1.9784
  772MOL0     H 4157   1.103   8.132  10.663 -3.6525  0.7333  0.6251
  772MOL0     H 4158   1.058   7.973  10.731 -0.4074 -0.2697  1.2483
  772MOL0     H 4159   0.981   8.042  10.921 -4.2756 -1.6492 -2.6513
  772MOL0     H 4160   1.067   8.197  10.915  2.5625 -1.5665 -0.2607
  772MOL0     H 4161   0.851   8.138  10.709 -2.2008 -0.2975  0.7270
  772MOL0     H 4162   0.801   8.196  10.873  0.8158  0.9512 -0.3034
  772MOL0     H 4163   0.978   8.368  10.852  1.2381 -0.0081 -0.0241
  772MOL0     H 4164   0.982   8.327  10.688  0.0297  0.0102  0.8912
  772MOL0     H 4165   0.733   8.372  10.677  0.6977  0.8173  0.0779
  772MOL0     H 4166   0.742   8.451  10.832  1.1522 -1.0545  0.0305
  772MOL0     H 4167   0.895   8.616  10.729 -0.2848  1.4801 -0.4614
  772MOL0     H 4168   0.926   8.516  10.598 -1.0581  3.0690 -1.0967
  772MOL0     H 4169   0.667   8.658  10.666 -0.8245 -0.6547 -0.8477
  772MOL0     H 4170   0.666   8.525  10.552 -0.8985  0.6976 -0.8762
  772MOL0     H 4171   0.770   8.892  10.589 -4.3287 -2.0034  2.1681
  772MOL0     H 4172   0.841   9.042  10.230  3.4182 -0.9979 -1.7748
  772MOL0     H 4173   0.836   9.101  10.390 -0.7824  0.2721 -1.0724
  772MOL0     H 4174   1.041   8.937  10.402 -2.6703 -0.3099  1.0311
  772MOL0     H 4175   1.051   9.110  10.346  2.9182 -0.8045 -0.4383
  772MOL0     H 4176   1.009   8.999  10.113 -0.9006 -0.3851 -0.1542
  772MOL0     H 4177   1.070   8.854  10.195 -2.5057 -1.2781  0.4096
  772MOL0     H 4178   1.280   8.964  10.254 -0.0900  0.5533  0.7643
  772MOL0     H 4179   1.204   9.125  10.206 -0.0453  0.3980 -1.6448
  772MOL0     H 4180   1.305   8.759  10.007  1.5629  5.0779  1.1623
  772MOL0     H 4181   1.109   8.541   9.885  1.3094 -0.6994  1.9077
  772MOL0     H 4182   1.213   8.532   9.744  2.9385  2.6199 -1.0761
  772MOL0     H 4183   1.284   8.554   9.907  0.0843 -0.6173  0.6378
  772MOL0     H 4184   0.726   8.610   9.539 -0.2978  2.7418  2.6132
  772MOL0     H 4185   0.650   8.556   9.331 -0.2606 -0.0539  0.7520
  772MOL0     H 4186   0.631   8.495   9.116  0.9039  0.5302  0.9084
  772MOL0     H 4187   0.503   8.609   9.157  1.4483  0.1122  1.8925
  772MOL0     H 4188   0.425   8.526   8.956  0.9719 -3.0859 -4.1655
  772MOL0     H 4189   0.499   8.676   8.897  0.0031 -0.4465 -1.9679
  772MOL0     H 4190   0.602   8.510   8.737  2.8057 -1.8186 -0.7500
  772MOL0     H 4191   0.622   8.402   8.872 -0.5189  0.0359  1.2216
  772MOL0     H 4192   0.738   8.676   8.844 -1.3164 -1.4757  3.2717
  772MOL0     H 4193   0.802   8.557   8.956  0.0705 -1.9916  0.0988
  772MOL0     H 4194   0.813   8.537   8.642  0.8155 -2.1748 -0.9891
  772MOL0     H 4195   0.876   8.417   8.755 -1.3243  0.4368  3.9456
  772MOL0     H 4196   0.970   8.694   8.677  1.3754 -1.3143 -0.8440
  772MOL0     H 4197   1.009   8.626   8.839  0.4384  1.4834 -0.8016
  772MOL0     H 4198   1.083   8.519   8.559  1.3188  1.6283 -0.2651
  772MOL0     H 4199   1.113   8.427   8.704 -1.0475 -0.1676 -0.8142
  772MOL0     H 4200   1.213   8.728   8.640  1.9573  0.8889  0.5169
  772MOL0     H 4201   1.303   8.580   8.591 -2.2383  0.2838 -1.5824
  772MOL0     H 4202   0.829   8.887   9.148 -1.0262 -1.9153 -0.1153
  772MOL0     H 4203   0.949   8.936   9.357  0.6916 -0.3586 -1.8319
  772MOL0     H 4204   0.995   9.002   9.716 -2.2703  0.6856  3.1536
  772MOL0     H 4205   1.114   9.111   9.890 -0.6621 -0.5753  0.0133
  772MOL0     H 4206   1.198   7.933  11.168 -0.5705  0.3475 -0.7891
  772MOL0     H 4207   1.342   7.954  11.362  0.8309  0.0978 -0.8173
  772MOL0     H 4208   1.833   7.986  11.439 -1.5769 -0.5847  0.1935
  772MOL0     H 4209   1.972   7.979  11.645  1.5808  2.6716  2.1723
  772MOL0     H 4210   2.091   8.184  11.717 -0.9215  1.1753  0.1812
  772MOL0     H 4211   2.091   8.274  11.875  0.3770 -1.8189  3.4346
  772MOL0     H 4212   2.193   7.994  11.808 -0.3427 -1.0433  2.4828
  772MOL0     H 4213   2.167   8.054  11.978 -0.7389 -3.5306 -0.5106
  772MOL0     H 4214   2.293   8.258  11.914  0.3230 -0.1857  0.0524
  772MOL0     H 4215   2.377   8.149  11.802 -2.0227 -1.7077 -1.1480
  772MOL0     H 4216   2.380   8.123  12.105  2.7316 -0.1629  0.3345
  772MOL0     H 4217   2.513   8.153  11.989 -1.1401  2.9158  1.6311
  772MOL0     H 4218   2.535   7.750  11.981  2.3124  0.7404  0.4794
  772MOL0     H 4219   1.760   8.261  11.837 -0.5131  0.8635 -0.5345
  772MOL0     H 4220   1.583   8.279  11.646 -0.7940 -1.1742 -2.6554
  773MOL0     O 4221   0.696   1.667  10.440 -0.1337  0.4646 -0.1591
  773MOL0     C 4222   0.771   1.604  10.368 -0.5985  0.4312 -0.4483
  773MOL0     O 4223   0.725   1.510  10.272 -0.9943 -0.0119 -0.5151
  773MOL0     C 4224   0.590   1.493  10.278  0.8175 -1.1869 -0.9295
  773MOL0     C 4225   0.497   1.534  10.182  0.0331  0.0223  0.4418
  773MOL0     C 4226   0.362   1.511  10.195  0.0814 -0.6655 -1.0249
  773MOL0     C 4227   0.304   1.438  10.306 -0.6170  0.1848 -0.1805
  773MOL0     O 4228   0.176   1.402  10.330  0.3422 -0.2855 -0.3394
  773MOL0     C 4229   0.071   1.504  10.327 -0.4061  0.0693  0.5072
  773MOL0     C 4230  -0.012   1.473  10.198  0.6752 -0.4164 -0.1988
  773MOL0     C 4231  -0.131   1.563  10.186 -0.5999  0.3026 -0.2614
  773MOL0     C 4232  -0.166   1.590  10.038 -0.0615 -0.0838  0.4381
  773MOL0     C 4233  -0.316   1.589  10.023 -0.8567  0.0457  0.4202
  773MOL0     C 4234  -0.376   1.455  10.007 -0.5462 -0.5881  1.2387
  773MOL0     C 4235  -0.510   1.450  10.082 -0.0226 -0.2640 -0.3006
  773MOL0     C 4236  -0.615   1.498   9.995  0.0449  0.2977  0.4189
  773MOL0     N 4237  -0.665   1.628  10.046 -0.2215  1.1973 -0.4630
  773MOL0     C 4238  -0.798   1.655  10.082  0.0975  0.4260 -0.3936
  773MOL0     C 4239  -0.805   1.790  10.093 -0.6934 -0.3644 -0.1027
  773MOL0     C 4240  -0.929   1.857  10.141  0.4855 -0.7577 -0.7516
  773MOL0     C 4241  -0.896   1.940  10.266 -1.3146  0.0238 -0.6121
  773MOL0     C 4242  -1.016   2.026  10.313 -0.5061 -0.3978  0.2620
  773MOL0     C 4243  -0.973   2.084  10.457 -0.9569 -0.0958  0.4919
  773MOL0     O 4244  -1.080   2.134  10.534  0.0329 -0.5858 -0.4529
  773MOL0     C 4245  -1.147   2.256  10.502 -0.1909  1.0038 -0.1537
  773MOL0     C 4246  -1.256   2.305  10.578  0.1760 -0.3807  0.0338
  773MOL0     C 4247  -1.316   2.426  10.557 -0.2922  0.6943 -0.1083
  773MOL0     C 4248  -1.434   2.467  10.637 -0.2488 -0.0180  0.1763
  773MOL0     C 4249  -1.265   2.505  10.449  0.4152 -0.7873 -0.3513
  773MOL0     C 4250  -1.318   2.639  10.404  0.0184  1.1626 -0.0889
  773MOL0     O 4251  -1.266   2.702  10.301  0.1569  0.4234  0.2427
  773MOL0     C 4252  -1.318   2.829  10.268  0.6855  0.3440 -0.4559
  773MOL0     C 4253  -1.298   2.939  10.350 -0.2327 -1.2602 -0.3201
  773MOL0     C 4254  -1.329   3.063  10.307 -0.1382  0.1940  0.3143
  773MOL0     C 4255  -1.363   3.096  10.174 -1.4304 -0.2018 -0.1994
  773MOL0     O 4256  -1.404   3.214  10.122  0.6979 -0.5688  0.6408
  773MOL0     C 4257  -1.356   3.326  10.204 -0.4765 -1.0208 -0.3173
  773MOL0     C 4258  -1.377   3.461  10.138  0.4572 -0.0962 -0.2900
  773MOL0     C 4259  -1.292   3.465   9.999 -0.4615  0.1754  0.1011
  773MOL0     C 4260  -1.310   3.602   9.915  0.3923 -0.0412  1.4017
  773MOL0     C 4261  -1.265   3.600   9.766 -0.4681  0.2710 -0.2649
  773MOL0     C 4262  -1.237   3.740   9.715  0.2493 -0.4351  0.8787
  773MOL0     C 4263  -1.201   3.741   9.562 -0.5748  0.1638 -0.9218
  773MOL0     C 4264  -1.224   3.869   9.501  0.0791  0.2945 -0.2016
  773MOL0    Cl 4265  -1.100   3.995   9.542  0.2443 -0.2080  0.1947
  773MOL0     C 4266  -1.372   2.989  10.082 -0.1036  0.2556 -1.2031
  773MOL0     C 4267  -1.355   2.849  10.129  0.4729 -0.4889 -0.4788
  773MOL0     O 4268  -1.403   2.693  10.479 -0.8165 -0.8667  0.6950
  773MOL0     C 4269  -1.164   2.457  10.371  0.1608  0.4499 -0.6672
  773MOL0     C 4270  -1.108   2.333  10.390 -0.5560 -0.7402 -0.4207
  773MOL0     N 4271  -0.680   1.844  10.054 -0.4628 -0.0254 -0.4181
  773MOL0     N 4272  -0.596   1.740  10.053 -0.1761 -0.5464  0.1353
  773MOL0     C 4273   0.400   1.391  10.396  0.1399 -0.3424  0.3575
  773MOL0     C 4274   0.535   1.415  10.386 -0.2340 -0.2328 -0.0344
  773MOL0     C 4275   0.918   1.628  10.362 -0.7300  0.4682 -0.5418
  773MOL0     C 4276   0.975   1.750  10.397 -0.1423 -0.9259  1.6150
  773MOL0     C 4277   1.109   1.770  10.403 -0.1747  0.4664 -0.5179
  773MOL0     C 4278   1.188   1.662  10.360 -1.1654 -0.0108  0.3882
  773MOL0     O 4279   1.320   1.676  10.354  0.0004 -0.6044  1.0377
  773MOL0     C 4280   1.387   1.625  10.480  0.1798 -1.6970  0.3815
  773MOL0     C 4281   1.546   1.614  10.465  0.4278  0.9571  0.2099
  773MOL0     C 4282   1.585   1.518  10.351  0.0300  0.1993 -0.3510
  773MOL0     C 4283   1.736   1.523  10.312 -0.4764 -1.1201 -0.2943
  773MOL0     C 4284   1.767   1.455  10.188 -0.3825  0.5500 -1.2614
  773MOL0     C 4285   1.781   1.404  10.078  0.1203  0.1491 -0.3641
  773MOL0     C 4286   1.138   1.535  10.308  0.1257  0.5898 -0.0993
  773MOL0     C 4287   1.001   1.518  10.314  0.2955 -0.4513 -1.0033
  773MOL0     H 4288   0.527   1.593  10.096 -3.7337  0.1196 -0.9942
  773MOL0     H 4289   0.286   1.552  10.130  1.6145  0.2376 -2.3108
  773MOL0     H 4290   0.018   1.521  10.421 -1.0237 -2.3022  0.6359
  773MOL0     H 4291   0.124   1.599  10.316 -0.7212  0.5472  2.7093
  773MOL0     H 4292   0.054   1.485  10.112 -0.6938  2.7507 -0.9439
  773MOL0     H 4293  -0.052   1.372  10.212  4.6503 -1.8409  2.8858
  773MOL0     H 4294  -0.220   1.524  10.236 -0.3615  0.5746  0.3976
  773MOL0     H 4295  -0.119   1.661  10.235 -1.8284 -1.3819  3.8247
  773MOL0     H 4296  -0.125   1.688  10.014  1.6787 -0.0378  3.2010
  773MOL0     H 4297  -0.108   1.517   9.980  3.2284 -1.5945  5.0280
  773MOL0     H 4298  -0.368   1.648  10.098  0.2752  2.9467 -0.9554
  773MOL0     H 4299  -0.328   1.633   9.923  0.9398  1.2739  0.6945
  773MOL0     H 4300  -0.384   1.415   9.906  0.0540  1.2536  0.4161
  773MOL0     H 4301  -0.310   1.384  10.057  1.0711  0.9264  1.3697
  773MOL0     H 4302  -0.522   1.343  10.100 -0.0405 -0.5391 -1.7990
  773MOL0     H 4303  -0.517   1.501  10.179  1.1973  2.1030 -1.3573
  773MOL0     H 4304  -0.691   1.419   9.991  0.9536 -0.6082  0.5028
  773MOL0     H 4305  -0.579   1.516   9.894 -0.1454  0.7318  0.4282
  773MOL0     H 4306  -0.877   1.582  10.096 -0.3027  0.6516 -1.4231
  773MOL0     H 4307  -0.957   1.918  10.055  1.8044  0.4087 -0.3986
  773MOL0     H 4308  -0.997   1.774  10.164  0.3568 -0.1269  1.3223
  773MOL0     H 4309  -0.812   2.009  10.252 -0.9674  0.7173  3.5131
  773MOL0     H 4310  -0.870   1.873  10.349 -1.4034  0.7281 -0.0075
  773MOL0     H 4311  -1.111   1.971  10.312 -0.2888 -0.7776  0.2058
  773MOL0     H 4312  -1.030   2.105  10.239 -1.2182 -0.5554  0.2182
  773MOL0     H 4313  -0.896   2.161  10.455 -1.1379  0.0776 -0.0639
  773MOL0     H 4314  -0.938   2.001  10.519  0.0869 -0.1768 -0.1906
  773MOL0     H 4315  -1.279   2.227  10.649  0.6612 -0.1069  0.4925
  773MOL0     H 4316  -1.416   2.563  10.686 -2.4428 -0.6650  2.4693
  773MOL0     H 4317  -1.513   2.483  10.564 -1.1418 -0.9754  0.9062
  773MOL0     H 4318  -1.463   2.396  10.715 -2.2992  2.2610  1.6085
  773MOL0     H 4319  -1.272   2.935  10.455 -1.6377 -0.6580  0.0746
  773MOL0     H 4320  -1.305   3.148  10.371  2.1403  1.3468 -1.9036
  773MOL0     H 4321  -1.412   3.326  10.298 -0.7005  1.1994 -0.3914
  773MOL0     H 4322  -1.252   3.321  10.235 -0.0321  1.1054 -1.2945
  773MOL0     H 4323  -1.480   3.469  10.102 -0.2419 -1.6159  1.2582
  773MOL0     H 4324  -1.354   3.533  10.217 -1.9693  0.6723 -0.2051
  773MOL0     H 4325  -1.329   3.386   9.933 -0.7734  1.7809 -1.7357
  773MOL0     H 4326  -1.192   3.433  10.029 -1.6080 -2.1340  1.7442
  773MOL0     H 4327  -1.416   3.621   9.930 -0.0510 -0.1899 -1.1592
  773MOL0     H 4328  -1.247   3.671   9.972 -0.2419 -1.0632  3.4293
  773MOL0     H 4329  -1.341   3.559   9.699  0.2580 -0.7429 -0.4835
  773MOL0     H 4330  -1.179   3.535   9.747  1.4394  2.3450  0.8228
  773MOL0     H 4331  -1.319   3.807   9.743  1.2165  0.8963  0.6118
  773MOL0     H 4332  -1.155   3.789   9.767 -2.3318  2.9363  2.0933
  773MOL0     H 4333  -1.267   3.676   9.505  2.0555 -1.5241 -2.2617
  773MOL0     H 4334  -1.099   3.708   9.540 -1.4145 -1.4457 -2.6762
  773MOL0     H 4335  -1.326   3.905   9.514 -0.3335  0.9912 -4.0451
  773MOL0     H 4336  -1.215   3.860   9.392  0.1188  1.2221 -0.2791
  773MOL0     H 4337  -1.397   3.016   9.979 -0.1923  0.4588 -1.1289
  773MOL0     H 4338  -1.360   2.768  10.057 -0.3726 -0.1823 -0.7813
  773MOL0     H 4339  -1.131   2.521  10.289 -2.8205  0.4022 -2.0205
  773MOL0     H 4340  -1.027   2.298  10.326 -0.4441 -0.2708 -0.5442
  773MOL0     H 4341   0.363   1.341  10.485 -1.4990 -0.0129 -0.1033
  773MOL0     H 4342   0.592   1.367  10.466  1.7061 -0.4402 -1.4666
  773MOL0     H 4343   0.915   1.830  10.440  0.0511 -0.4714  1.0478
  773MOL0     H 4344   1.154   1.863  10.437 -0.2133  0.7453 -1.2254
  773MOL0     H 4345   1.352   1.694  10.557 -2.9849 -1.4134 -1.1732
  773MOL0     H 4346   1.345   1.529  10.510  1.2062 -1.2903  3.4049
  773MOL0     H 4347   1.584   1.584  10.563  1.4248 -4.4380 -1.5298
  773MOL0     H 4348   1.580   1.714  10.437  1.1860  0.8355  0.6665
  773MOL0     H 4349   1.528   1.547  10.263 -2.1021  1.0459  1.2085
  773MOL0     H 4350   1.552   1.421  10.389  0.3205 -0.2290 -1.1725
  773MOL0     H 4351   1.798   1.487  10.394  0.6062  1.3051  0.0408
  773MOL0     H 4352   1.751   1.631  10.301 -1.3656 -1.0570 -1.1463
  773MOL0     H 4353   1.775   1.352   9.985 -2.6214  0.9328 -0.7334
  773MOL0     H 4354   1.204   1.452  10.285 -0.2931 -0.1932  1.3557
  773MOL0     H 4355   0.968   1.417  10.289  5.2082 -2.6555  0.2093
  774MOL0     O 4356   5.681   4.672   2.971  0.4048  0.3083 -0.4697
  774MOL0     C 4357   5.675   4.631   3.088  0.4637 -1.0978 -0.3662
  774MOL0     O 4358   5.776   4.635   3.171  0.1703 -0.2460 -0.4832
  774MOL0     C 4359   5.884   4.709   3.138 -0.1231  0.0006  0.2748
  774MOL0     C 4360   6.010   4.665   3.174  0.9534  0.4490  0.0043
  774MOL0     C 4361   6.122   4.742   3.173 -0.5937 -0.4525  1.2032
  774MOL0     C 4362   6.132   4.874   3.119  0.2599  0.7410  0.3815
  774MOL0     O 4363   6.250   4.944   3.112 -0.2092 -0.0989 -1.1835
  774MOL0     C 4364   6.342   4.878   3.022  0.0248 -0.6948  0.3150
  774MOL0     C 4365   6.479   4.950   3.024 -1.3587 -0.2931 -0.7130
  774MOL0     C 4366   6.580   4.867   2.945 -1.0625 -0.2998  0.3857
  774MOL0     C 4367   6.720   4.924   2.945 -0.5310 -0.0461  0.3172
  774MOL0     C 4368   6.819   4.819   2.897  0.0461  0.3723 -0.4689
  774MOL0     C 4369   6.788   4.748   2.761  0.9210 -0.6226  0.1256
  774MOL0     C 4370   6.813   4.839   2.642  0.1161 -0.6958  0.2163
  774MOL0     C 4371   6.809   4.761   2.512 -0.2508  0.0898 -0.0092
  774MOL0     N 4372   6.674   4.733   2.458  0.1727 -0.5087  0.1622
  774MOL0     C 4373   6.661   4.676   2.327  0.6828  0.6781  0.1066
  774MOL0     C 4374   6.525   4.687   2.302 -1.1166 -0.5740 -0.2623
  774MOL0     C 4375   6.442   4.651   2.181 -1.3614 -0.0211 -1.0914
  774MOL0     C 4376   6.512   4.542   2.097 -0.3105 -0.1147  0.4688
  774MOL0     C 4377   6.473   4.569   1.949  1.0911 -0.3798 -0.6081
  774MOL0     C 4378   6.321   4.534   1.908 -0.1293  0.3552  0.1623
  774MOL0     O 4379   6.233   4.628   1.968  0.4335 -0.5161  0.4468
  774MOL0     C 4380   6.117   4.590   2.019 -0.9326  0.6952  0.4901
  774MOL0     C 4381   6.052   4.679   2.110  1.7094  0.0437  0.4884
  774MOL0     C 4382   5.912   4.663   2.159  0.1059 -0.8010  0.0248
  774MOL0     C 4383   5.861   4.760   2.264 -0.2119 -0.2887 -0.1185
  774MOL0     C 4384   5.858   4.533   2.138  0.6628  0.6619  0.7530
  774MOL0     C 4385   5.747   4.475   2.216  0.4646 -0.6425  0.0408
  774MOL0     O 4386   5.742   4.343   2.220  0.1858  0.4900  0.4109
  774MOL0     C 4387   5.658   4.295   2.313  0.1133  0.4205 -0.1703
  774MOL0     C 4388   5.543   4.237   2.263 -0.0743  1.2212  0.3462
  774MOL0     C 4389   5.431   4.220   2.345  0.0261  0.5566 -0.4062
  774MOL0     C 4390   5.442   4.228   2.482  0.4988  0.3708  0.3042
  774MOL0     O 4391   5.330   4.208   2.561  0.9370  0.6569  0.3283
  774MOL0     C 4392   5.298   4.312   2.652  0.1659 -0.1861  0.5752
  774MOL0     C 4393   5.168   4.267   2.714  0.0717 -0.1596 -0.4054
  774MOL0     C 4394   5.116   4.363   2.824  0.1701 -0.2846  0.0284
  774MOL0     C 4395   5.005   4.463   2.775 -0.2971 -1.4442  0.3763
  774MOL0     C 4396   4.961   4.521   2.914  0.6982 -0.4052 -0.7263
  774MOL0     C 4397   4.858   4.639   2.920 -0.3671  0.2455 -0.5291
  774MOL0     C 4398   4.812   4.680   3.058 -0.2870  0.5252  0.4760
  774MOL0     C 4399   4.768   4.828   3.042 -0.5098  0.4393  0.8918
  774MOL0    Cl 4400   4.727   4.887   3.207  0.2587  0.1839 -0.0142
  774MOL0     C 4401   5.565   4.277   2.527 -0.1995  0.3071  0.3419
  774MOL0     C 4402   5.674   4.308   2.449  0.2017  0.1677 -0.5158
  774MOL0     O 4403   5.657   4.555   2.258  0.0328 -0.0786  0.0805
  774MOL0     C 4404   5.923   4.441   2.043 -0.1203  0.7381 -1.7008
  774MOL0     C 4405   6.043   4.472   1.989  0.5560 -0.0600  0.2740
  774MOL0     N 4406   6.462   4.734   2.420 -0.4277  1.0468 -0.7804
  774MOL0     N 4407   6.548   4.758   2.507 -0.1493  0.8635  0.7399
  774MOL0     C 4408   6.005   4.916   3.074  0.1181 -0.3176 -0.3395
  774MOL0     C 4409   5.886   4.839   3.089  0.1223  0.1372 -0.6720
  774MOL0     C 4410   5.540   4.605   3.156  0.2688  0.6679  0.2851
  774MOL0     C 4411   5.428   4.644   3.081  0.2066 -0.4246  0.2713
  774MOL0     C 4412   5.301   4.606   3.135 -0.9138  0.8769 -0.7314
  774MOL0     C 4413   5.281   4.532   3.244 -1.1453 -0.7132  0.3769
  774MOL0     O 4414   5.158   4.504   3.276  0.0373 -0.8783 -0.1942
  774MOL0     C 4415   5.142   4.489   3.413  0.1353  0.7411 -0.5711
  774MOL0     C 4416   4.998   4.508   3.468  0.3660 -0.4484  0.5217
  774MOL0     C 4417   4.924   4.381   3.423 -0.5680  0.5972 -0.1239
  774MOL0     C 4418   4.779   4.377   3.453 -0.7370 -0.1671 -0.2188
  774MOL0     C 4419   4.728   4.241   3.488  0.6117 -0.4004  0.3228
  774MOL0     C 4420   4.670   4.148   3.528  0.4591  0.1280  0.1568
  774MOL0     C 4421   5.398   4.492   3.315 -0.2258  0.1915 -0.4223
  774MOL0     C 4422   5.526   4.533   3.278  0.5344 -1.2417 -0.6493
  774MOL0     H 4423   6.022   4.568   3.221 -2.8406 -0.1898 -0.0721
  774MOL0     H 4424   6.218   4.703   3.204  0.6286 -0.4698 -2.1924
  774MOL0     H 4425   6.367   4.773   3.038  2.2505 -0.1991  0.4994
  774MOL0     H 4426   6.298   4.891   2.923 -1.9442 -0.0258  1.2311
  774MOL0     H 4427   6.468   5.052   2.985  1.1814  0.6604  0.7779
  774MOL0     H 4428   6.525   4.962   3.122 -0.6974 -0.8932 -0.9387
  774MOL0     H 4429   6.579   4.767   2.989 -2.2839  0.8810  3.2267
  774MOL0     H 4430   6.552   4.855   2.839  1.4130 -6.2473  0.0131
  774MOL0     H 4431   6.735   5.012   2.882  2.1890  0.0365  0.9574
  774MOL0     H 4432   6.739   4.958   3.048  2.3525  2.2874 -0.8384
  774MOL0     H 4433   6.915   4.872   2.887  1.5086 -1.9281  0.4685
  774MOL0     H 4434   6.822   4.742   2.975  2.4217 -1.1001 -1.8955
  774MOL0     H 4435   6.854   4.661   2.753  0.4733 -0.7939 -3.2560
  774MOL0     H 4436   6.690   4.701   2.756  0.5541  0.2659 -2.6122
  774MOL0     H 4437   6.741   4.922   2.637  0.2571 -0.4999  1.1362
  774MOL0     H 4438   6.918   4.870   2.649  1.0833 -2.7576 -3.1088
  774MOL0     H 4439   6.860   4.665   2.522 -0.4687 -0.1627 -1.2284
  774MOL0     H 4440   6.864   4.823   2.441 -0.1904  0.8549  0.6942
  774MOL0     H 4441   6.740   4.633   2.268 -1.3224  0.1882 -2.4114
  774MOL0     H 4442   6.345   4.608   2.208 -1.8700  0.2250 -2.4015
  774MOL0     H 4443   6.425   4.746   2.129 -3.3507 -0.4341 -1.2814
  774MOL0     H 4444   6.475   4.440   2.117 -0.1850  0.1530  2.1855
  774MOL0     H 4445   6.621   4.546   2.105  0.0073 -4.9089  1.9604
  774MOL0     H 4446   6.528   4.494   1.892  2.0749 -1.7952  2.0508
  774MOL0     H 4447   6.501   4.670   1.917  0.5612 -0.2165 -0.5643
  774MOL0     H 4448   6.296   4.430   1.932 -1.6758  0.6404 -0.1531
  774MOL0     H 4449   6.314   4.531   1.799  0.2831  0.0933  0.1398
  774MOL0     H 4450   6.113   4.761   2.148  0.3028  2.6330 -2.3835
  774MOL0     H 4451   5.838   4.710   2.358 -3.4914 -2.1847 -1.7447
  774MOL0     H 4452   5.929   4.842   2.288  0.6850 -1.6168  2.1249
  774MOL0     H 4453   5.769   4.810   2.233 -0.8712 -1.0704  0.5349
  774MOL0     H 4454   5.536   4.219   2.156  1.9101  1.0172  0.2135
  774MOL0     H 4455   5.346   4.164   2.306 -1.4149  1.8874  0.7525
  774MOL0     H 4456   5.371   4.324   2.733 -0.7916 -0.6748  1.5420
  774MOL0     H 4457   5.288   4.400   2.588  1.4331 -3.0746 -4.0157
  774MOL0     H 4458   5.091   4.259   2.638 -0.9667  2.3912  0.3053
  774MOL0     H 4459   5.188   4.167   2.756 -2.0116 -0.4101  0.0913
  774MOL0     H 4460   5.203   4.408   2.871  0.0614 -0.4300  0.3764
  774MOL0     H 4461   5.067   4.300   2.900 -2.3195 -1.2680 -2.2344
  774MOL0     H 4462   5.047   4.541   2.709 -2.6681  1.6269  2.2290
  774MOL0     H 4463   4.919   4.425   2.719  0.5757 -0.1350 -2.0233
  774MOL0     H 4464   5.041   4.550   2.982 -0.9517  3.1411 -0.0931
  774MOL0     H 4465   4.908   4.435   2.957 -2.3270 -0.3457 -3.8989
  774MOL0     H 4466   4.906   4.724   2.871 -0.9683  0.7658 -0.2352
  774MOL0     H 4467   4.767   4.626   2.860 -0.9179  1.2806  0.0450
  774MOL0     H 4468   4.897   4.667   3.126 -2.0791 -1.5848  2.5073
  774MOL0     H 4469   4.731   4.618   3.099 -0.3557  1.1362  1.3014
  774MOL0     H 4470   4.680   4.842   2.979  0.0544  0.7157  0.1343
  774MOL0     H 4471   4.849   4.889   2.999 -0.0943  1.1552  2.6137
  774MOL0     H 4472   5.585   4.282   2.633  1.9686  1.7074 -0.0745
  774MOL0     H 4473   5.769   4.328   2.498  0.0930 -0.2508 -0.1300
  774MOL0     H 4474   5.883   4.340   2.041  1.7878 -0.1792  1.3757
  774MOL0     H 4475   6.092   4.405   1.919 -0.7757 -0.2311 -0.5406
  774MOL0     H 4476   5.998   5.020   3.045  2.7054  0.3778  1.2439
  774MOL0     H 4477   5.794   4.888   3.057 -0.5568 -1.4221 -1.1860
  774MOL0     H 4478   5.435   4.709   2.995  1.8926 -0.2620  0.5037
  774MOL0     H 4479   5.211   4.630   3.079 -3.1029 -2.5581  0.9323
  774MOL0     H 4480   5.173   4.386   3.433  1.7530  1.2171 -0.4479
  774MOL0     H 4481   5.201   4.558   3.474  1.2189 -0.3167 -0.3793
  774MOL0     H 4482   4.947   4.592   3.418  0.4393 -0.5838  0.2191
  774MOL0     H 4483   5.010   4.520   3.576 -2.4478 -0.9700  0.9868
  774MOL0     H 4484   4.975   4.296   3.469  3.0516  2.0724 -1.0669
  774MOL0     H 4485   4.955   4.372   3.318 -0.9319  2.8897 -0.4898
  774MOL0     H 4486   4.736   4.431   3.368  3.8987 -0.0199 -2.7651
  774MOL0     H 4487   4.759   4.429   3.548 -2.0466  2.0534 -1.6309
  774MOL0     H 4488   4.621   4.053   3.537  1.1851 -0.2133  0.6003
  774MOL0     H 4489   5.404   4.444   3.412  0.0952 -1.2862 -1.1542
  774MOL0     H 4490   5.607   4.513   3.347  1.3974  0.3446 -1.1616
  775MOL0     O 4491   7.478  11.291  11.030  0.1895  0.4044  0.2265
  775MOL0     C 4492   7.543  11.340  11.118 -0.1999  0.2671  0.2393
  775MOL0     O 4493   7.628  11.443  11.112  0.8669 -0.4026 -0.4891
  775MOL0     C 4494   7.628  11.533  11.005  0.1029 -0.3525  1.0694
  775MOL0     C 4495   7.610  11.505  10.867 -0.0814 -0.9917 -0.0278
  775MOL0     C 4496   7.600  11.600  10.764 -0.1821 -0.9518  0.5338
  775MOL0     C 4497   7.598  11.737  10.799 -0.2074  0.1313  0.3925
  775MOL0     O 4498   7.603  11.838  10.705 -0.0212 -0.2552 -0.0856
  775MOL0     C 4499   7.520  11.821  10.588 -0.3690  0.9829  0.3734
  775MOL0     C 4500   7.373  11.797  10.614 -0.3068 -0.3472  0.4419
  775MOL0     C 4501   7.315  11.867  10.736  0.3448 -0.2968 -0.1533
  775MOL0     C 4502   7.170  11.822  10.769  0.0229 -0.4333 -0.4364
  775MOL0     C 4503   7.071  11.832  10.650  0.3892  0.7857 -0.2703
  775MOL0     C 4504   6.925  11.828  10.702  0.4375 -0.4830  0.0639
  775MOL0     C 4505   6.870  11.701  10.777  0.2353 -0.6650 -0.0507
  775MOL0     C 4506   6.720  11.718  10.805  0.0323  0.2488  0.0595
  775MOL0     N 4507   6.682  11.832  10.882  0.4162 -0.2849 -0.5659
  775MOL0     C 4508   6.719  11.869  11.010 -0.2669 -0.3982  0.3459
  775MOL0     C 4509   6.662  11.982  11.050  0.8579  0.0833  0.9018
  775MOL0     C 4510   6.684  12.062  11.178  0.8416 -0.2766  0.0705
  775MOL0     C 4511   6.572  12.045  11.274  0.3216  1.1288 -0.3710
  775MOL0     C 4512   6.442  12.108  11.218  0.0285  0.3103  0.6911
  775MOL0     C 4513   6.320  12.077  11.303 -0.2475 -0.3750  0.8420
  775MOL0     O 4514   6.341  12.138  11.424  0.0688 -0.7741 -0.0073
  775MOL0     C 4515   6.219  12.148  11.483 -1.8537 -0.6662  0.2992
  775MOL0     C 4516   6.183  12.051  11.569  0.2021 -0.5244 -0.9884
  775MOL0     C 4517   6.062  12.064  11.649 -0.3070  0.5549  1.6379
  775MOL0     C 4518   6.025  11.951  11.738  0.7270  0.7670 -0.2330
  775MOL0     C 4519   5.982  12.180  11.635  0.1084  0.0936 -0.9950
  775MOL0     C 4520   5.858  12.219  11.724 -0.1152 -0.0562  0.3436
  775MOL0     O 4521   5.811  12.123  11.807 -0.6747  0.1083  0.1978
  775MOL0     C 4522   5.753  12.170  11.927 -0.0432 -0.8148 -0.3057
  775MOL0     C 4523   5.836  12.195  12.032 -1.0182 -0.2877 -0.3257
  775MOL0     C 4524   5.793  12.238  12.154 -0.1379 -0.7723 -0.2900
  775MOL0     C 4525   5.655  12.256  12.175 -0.2572  0.0860  1.1782
  775MOL0     O 4526   5.610  12.291  12.300 -0.5695 -0.7205  0.0698
  775MOL0     C 4527   5.475  12.248  12.337  0.8040 -1.6232 -0.1271
  775MOL0     C 4528   5.440  12.305  12.470  0.2325 -0.6562  0.2468
  775MOL0     C 4529   5.432  12.461  12.462  0.0308 -0.6747 -0.0027
  775MOL0     C 4530   5.426  12.514  12.601  1.1727 -0.4223 -0.0897
  775MOL0     C 4531   5.373  12.666  12.618  0.8803  0.3014 -0.0671
  775MOL0     C 4532   5.368  12.722  12.765  0.1031 -0.1154 -0.4443
  775MOL0     C 4533   5.319  12.623  12.867  0.9168  0.4475 -0.5010
  775MOL0     C 4534   5.316  12.700  12.997 -0.1234 -0.7603 -0.0799
  775MOL0    Cl 4535   5.478  12.766  13.059 -0.0953  0.9239 -0.1212
  775MOL0     C 4536   5.563  12.247  12.061 -0.8303 -0.1111  0.6991
  775MOL0     C 4537   5.620  12.211  11.936 -0.8937  0.7367  0.2713
  775MOL0     O 4538   5.819  12.337  11.724 -0.6139 -0.0632 -0.1284
  775MOL0     C 4539   6.020  12.269  11.531 -0.3041  0.0145  0.0971
  775MOL0     C 4540   6.140  12.256  11.459 -0.0895 -0.4232  0.6819
  775MOL0     N 4541   6.579  12.007  10.944  0.0340  0.0063 -0.2274
  775MOL0     N 4542   6.594  11.921  10.844 -0.9119  0.6244 -0.2503
  775MOL0     C 4543   7.615  11.768  10.923  0.4036 -0.1938  0.4839
  775MOL0     C 4544   7.628  11.666  11.031 -0.4447  0.0964 -0.1659
  775MOL0     C 4545   7.527  11.268  11.255 -0.1861  0.0327 -0.5818
  775MOL0     C 4546   7.411  11.188  11.275 -0.8236 -0.4530 -0.3460
  775MOL0     C 4547   7.387  11.125  11.394 -0.0779  0.0588  0.6283
  775MOL0     C 4548   7.491  11.126  11.490  0.3176 -1.1456 -1.3133
  775MOL0     O 4549   7.473  11.081  11.618  0.2417 -0.0948  0.8075
  775MOL0     C 4550   7.336  11.091  11.669 -0.4082  0.4809  0.0872
  775MOL0     C 4551   7.344  11.015  11.802  0.3371  0.4874  0.2358
  775MOL0     C 4552   7.213  11.011  11.882 -0.2259 -0.2471  0.4162
  775MOL0     C 4553   7.204  10.936  12.003 -0.0486  0.0826 -0.1970
  775MOL0     C 4554   7.087  10.987  12.078 -0.2550  1.0123  0.2795
  775MOL0     C 4555   6.996  11.038  12.136 -0.3999 -0.1202 -0.0808
  775MOL0     C 4556   7.606  11.203  11.472  0.4854  0.3213 -0.4326
  775MOL0     C 4557   7.619  11.276  11.354 -0.7670 -0.2846 -0.2893
  775MOL0     H 4558   7.606  11.402  10.835  1.3078 -2.3223  3.5875
  775MOL0     H 4559   7.595  11.575  10.659  0.1586  0.5051  0.1511
  775MOL0     H 4560   7.522  11.913  10.529  2.5989 -0.5204 -2.1440
  775MOL0     H 4561   7.560  11.735  10.533  0.2358 -1.2182  3.9182
  775MOL0     H 4562   7.307  11.817  10.529 -1.8623 -2.7281  0.9687
  775MOL0     H 4563   7.368  11.688  10.618  2.9826 -0.8993 -3.5327
  775MOL0     H 4564   7.372  11.856  10.828  1.4742  0.7949 -0.6849
  775MOL0     H 4565   7.318  11.967  10.691 -0.5365 -1.8068 -3.9461
  775MOL0     H 4566   7.171  11.721  10.812  1.3684  0.6576  2.3181
  775MOL0     H 4567   7.138  11.893  10.846  0.6534 -0.8436  0.2170
  775MOL0     H 4568   7.097  11.924  10.596  0.3372  2.1214  1.8705
  775MOL0     H 4569   7.091  11.754  10.576  1.5377 -0.9713  1.7882
  775MOL0     H 4570   6.938  11.915  10.767 -0.4615  0.3843 -0.8737
  775MOL0     H 4571   6.851  11.864  10.630  0.8753  2.7632  1.0784
  775MOL0     H 4572   6.893  11.613  10.716 -3.2204 -0.5618 -1.7629
  775MOL0     H 4573   6.923  11.692  10.873 -0.4971  3.1775  0.8635
  775MOL0     H 4574   6.678  11.630  10.854 -0.9497  0.7899  0.2135
  775MOL0     H 4575   6.675  11.727  10.706  1.0814  2.7868 -0.2715
  775MOL0     H 4576   6.795  11.813  11.064 -0.8599 -2.3075 -0.6732
  775MOL0     H 4577   6.780  12.035  11.222  0.5980 -0.1171  0.7014
  775MOL0     H 4578   6.689  12.167  11.146 -0.5092  0.1631  1.2015
  775MOL0     H 4579   6.601  12.089  11.369  0.3068 -3.0510  1.8076
  775MOL0     H 4580   6.553  11.940  11.301  3.6377  1.1421  2.8436
  775MOL0     H 4581   6.407  12.049  11.133 -3.5126  0.2671  2.0393
  775MOL0     H 4582   6.463  12.211  11.185 -1.4045 -0.5197 -3.4040
  775MOL0     H 4583   6.308  11.970  11.323 -2.3535  0.3398  4.1422
  775MOL0     H 4584   6.241  12.119  11.240  2.8568  0.0982 -3.1974
  775MOL0     H 4585   6.245  11.962  11.565 -0.6302 -1.1610 -0.2305
  775MOL0     H 4586   6.006  11.980  11.842 -0.5754 -1.7830  0.3374
  775MOL0     H 4587   5.937  11.890  11.715 -0.0223  0.7970  2.2612
  775MOL0     H 4588   6.112  11.885  11.744  1.8908  2.2614 -0.0174
  775MOL0     H 4589   5.943  12.185  12.014 -0.8928 -0.4726  0.4934
  775MOL0     H 4590   5.865  12.242  12.235  1.1172  2.6437 -1.4041
  775MOL0     H 4591   5.399  12.278  12.264  1.9037  0.5782 -0.4626
  775MOL0     H 4592   5.483  12.140  12.353  2.2032 -1.4439  0.5630
  775MOL0     H 4593   5.345  12.260  12.500 -0.7010 -1.3029 -3.2107
  775MOL0     H 4594   5.518  12.286  12.544  0.4574  1.2528  0.5528
  775MOL0     H 4595   5.349  12.485  12.394  1.6860  3.6400 -0.8264
  775MOL0     H 4596   5.521  12.500  12.411  0.1205  0.0516  0.6993
  775MOL0     H 4597   5.374  12.449  12.672 -0.1625  1.9994  1.2781
  775MOL0     H 4598   5.527  12.514  12.643  1.4553  0.9273 -0.7185
  775MOL0     H 4599   5.271  12.658  12.577  0.4092 -5.4416  1.3843
  775MOL0     H 4600   5.423  12.732  12.546 -1.3618  1.3129 -0.8009
  775MOL0     H 4601   5.470  12.759  12.783 -0.3140  0.9583 -0.2374
  775MOL0     H 4602   5.292  12.800  12.757  0.1480  0.0227  0.3443
  775MOL0     H 4603   5.389  12.541  12.884 -0.2984 -0.6346 -0.5977
  775MOL0     H 4604   5.220  12.591  12.834  1.9676 -1.5724 -1.9186
  775MOL0     H 4605   5.269  12.634  13.071 -3.9327  0.0999 -1.5386
  775MOL0     H 4606   5.244  12.783  12.997  0.2686 -0.2193  3.6385
  775MOL0     H 4607   5.458  12.273  12.060 -0.7648  0.1526 -0.0517
  775MOL0     H 4608   5.551  12.200  11.853  1.3731  0.7376 -1.6907
  775MOL0     H 4609   5.958  12.350  11.495 -1.9976 -1.9385 -1.6936
  775MOL0     H 4610   6.172  12.326  11.382  4.3638 -3.1947 -0.3305
  775MOL0     H 4611   7.605  11.873  10.949 -0.1992 -0.0682 -0.2466
  775MOL0     H 4612   7.631  11.683  11.138 -0.6164 -3.7722  0.6081
  775MOL0     H 4613   7.342  11.161  11.196 -0.4403 -0.6813 -0.6070
  775MOL0     H 4614   7.292  11.075  11.408 -1.3479  2.2820  0.3991
  775MOL0     H 4615   7.297  11.193  11.670  1.6128  1.3065  1.8105
  775MOL0     H 4616   7.271  11.040  11.597 -0.7732  2.2259 -0.8577
  775MOL0     H 4617   7.430  11.061  11.851 -0.3829  1.7878  0.3354
  775MOL0     H 4618   7.372  10.910  11.788 -0.8273  0.2040 -0.0812
  775MOL0     H 4619   7.135  10.971  11.816  0.0866  1.1894 -0.8985
  775MOL0     H 4620   7.187  11.116  11.901  0.1935  0.0647 -0.6437
  775MOL0     H 4621   7.292  10.931  12.067  0.6152  3.1187 -0.7275
  775MOL0     H 4622   7.172  10.836  11.973  3.0439 -0.4678 -2.0865
  775MOL0     H 4623   6.915  11.086  12.188  0.5109 -0.4700  1.7088
  775MOL0     H 4624   7.680  11.207  11.552  0.8809 -2.0343 -0.6153
  775MOL0     H 4625   7.689  11.357  11.339 -0.4441 -0.2374  1.3226
  776MOL0     O 4626  11.412   6.246   8.943  0.0656  0.0765  0.3758
  776MOL0     C 4627  11.416   6.139   9.008  0.1997 -0.6921 -0.1818
  776MOL0     O 4628  11.420   6.126   9.144 -0.5341 -0.1110 -0.5581
  776MOL0     C 4629  11.415   6.236   9.225  0.0274  0.0250 -0.2626
  776MOL0     C 4630  11.499   6.354   9.223  0.0448  0.1396  0.3340
  776MOL0     C 4631  11.489   6.443   9.333 -0.1898  0.2046  0.3409
  776MOL0     C 4632  11.401   6.431   9.434 -0.5097  0.8768  0.8044
  776MOL0     O 4633  11.392   6.519   9.533  0.2454 -0.7527  0.1756
  776MOL0     C 4634  11.379   6.658   9.517 -0.8215  0.3977 -0.4518
  776MOL0     C 4635  11.234   6.692   9.570 -0.1139 -0.2939 -0.2056
  776MOL0     C 4636  11.217   6.843   9.608 -0.6545 -0.5959 -0.5651
  776MOL0     C 4637  11.082   6.898   9.563  0.7804  1.3611  0.4597
  776MOL0     C 4638  11.084   7.053   9.558  0.1378 -0.6131 -0.0255
  776MOL0     C 4639  10.933   7.095   9.574 -1.1378  0.0695  0.4470
  776MOL0     C 4640  10.939   7.252   9.553  0.8918  0.6204 -0.2343
  776MOL0     C 4641  10.799   7.298   9.525 -1.2467 -0.4943  0.7626
  776MOL0     N 4642  10.770   7.437   9.542 -0.2209  0.3126  0.3726
  776MOL0     C 4643  10.748   7.523   9.440 -1.0275  0.3827 -0.0541
  776MOL0     C 4644  10.743   7.644   9.508 -0.3390  0.1522 -0.2506
  776MOL0     C 4645  10.739   7.771   9.436 -0.7922  0.0792  0.3853
  776MOL0     C 4646  10.653   7.880   9.504  0.6282 -0.1369  1.0732
  776MOL0     C 4647  10.612   8.001   9.406 -0.5457  0.4138  0.5078
  776MOL0     C 4648  10.552   8.129   9.466  0.3371 -0.7182  0.0553
  776MOL0     O 4649  10.441   8.186   9.388 -0.2840 -1.0050 -0.7774
  776MOL0     C 4650  10.494   8.256   9.279 -0.3204  0.3862 -0.1320
  776MOL0     C 4651  10.592   8.355   9.271 -0.2247  0.3107  0.0553
  776MOL0     C 4652  10.641   8.407   9.153 -0.3111 -0.6855  0.0955
  776MOL0     C 4653  10.760   8.495   9.158 -0.1851 -0.6305  0.0738
  776MOL0     C 4654  10.590   8.371   9.030 -0.3421 -0.6845 -0.9290
  776MOL0     C 4655  10.630   8.425   8.901  0.3548  0.0935  0.3733
  776MOL0     O 4656  10.606   8.360   8.795 -0.5400 -0.3116 -0.1905
  776MOL0     C 4657  10.622   8.394   8.661 -0.1131 -0.2793  0.7302
  776MOL0     C 4658  10.709   8.492   8.620 -0.3470 -0.5118  0.1237
  776MOL0     C 4659  10.732   8.534   8.492  0.0932  0.5215 -0.0776
  776MOL0     C 4660  10.660   8.467   8.382  0.5936 -0.3797 -0.0150
  776MOL0     O 4661  10.678   8.499   8.245  0.1070  0.7249  0.2306
  776MOL0     C 4662  10.573   8.461   8.151 -0.5408  0.2349 -0.1191
  776MOL0     C 4663  10.449   8.554   8.165 -0.4980  0.6533 -0.4646
  776MOL0     C 4664  10.338   8.536   8.061  0.0474 -1.7484  0.3610
  776MOL0     C 4665  10.272   8.670   8.011 -0.3829 -0.3594 -0.7866
  776MOL0     C 4666  10.146   8.634   7.949 -0.5168 -0.9907  0.1299
  776MOL0     C 4667  10.171   8.558   7.820 -0.2332  0.5186 -0.0645
  776MOL0     C 4668  10.041   8.552   7.737  0.7127 -0.1419 -1.1872
  776MOL0     C 4669  10.050   8.447   7.633  0.5428  1.0899  0.6164
  776MOL0    Cl 4670  10.146   8.518   7.500  0.3663  0.6177  0.0387
  776MOL0     C 4671  10.570   8.357   8.429  0.1953 -0.5452  0.2019
  776MOL0     C 4672  10.552   8.313   8.567 -0.2244 -0.3323  0.9813
  776MOL0     O 4673  10.668   8.541   8.903  0.7545 -0.1029  0.0576
  776MOL0     C 4674  10.501   8.264   9.032 -0.2669  0.7332  0.0187
  776MOL0     C 4675  10.460   8.202   9.151  0.7092 -0.2012  0.4468
  776MOL0     N 4676  10.764   7.623   9.643 -0.5630 -1.5938 -0.3277
  776MOL0     N 4677  10.771   7.496   9.661  0.4305  0.4720  0.5857
  776MOL0     C 4678  11.320   6.325   9.431  0.1325  0.3980 -0.2809
  776MOL0     C 4679  11.330   6.227   9.333  0.6585  0.7512 -0.4536
  776MOL0     C 4680  11.415   6.010   8.941  0.3036  0.7303 -0.5544
  776MOL0     C 4681  11.361   5.897   9.004  0.1087  0.0007 -0.0635
  776MOL0     C 4682  11.359   5.778   8.934 -0.0611  0.0436 -0.8136
  776MOL0     C 4683  11.396   5.768   8.802 -0.0703 -0.6760 -1.9843
  776MOL0     O 4684  11.389   5.659   8.730  0.0631  0.2356  0.1930
  776MOL0     C 4685  11.482   5.560   8.778  0.7268 -0.4612  0.2461
  776MOL0     C 4686  11.506   5.473   8.659 -0.0522 -0.6268 -1.3774
  776MOL0     C 4687  11.571   5.339   8.699  0.2186 -0.0821 -0.4126
  776MOL0     C 4688  11.476   5.235   8.757 -0.6562 -0.4183  0.5564
  776MOL0     C 4689  11.372   5.186   8.660  0.1252 -0.3742 -0.1936
  776MOL0     C 4690  11.277   5.162   8.588  0.0401  0.0163 -0.2749
  776MOL0     C 4691  11.431   5.879   8.734  0.2919  0.3476 -0.3554
  776MOL0     C 4692  11.447   5.997   8.802 -0.1981  0.7895 -0.0299
  776MOL0     H 4693  11.550   6.375   9.129 -1.7320 -1.2533 -1.0391
  776MOL0     H 4694  11.550   6.533   9.329  0.2284 -0.1166 -1.5329
  776MOL0     H 4695  11.458   6.717   9.564 -1.5198  1.3713 -0.4685
  776MOL0     H 4696  11.388   6.675   9.409  0.0791  2.6617 -0.0761
  776MOL0     H 4697  11.164   6.679   9.487 -1.4077  3.8134  0.0180
  776MOL0     H 4698  11.222   6.622   9.653 -1.2465  1.5343  1.2809
  776MOL0     H 4699  11.230   6.852   9.716  0.2793  2.6134 -0.8401
  776MOL0     H 4700  11.301   6.891   9.557  0.4493  2.8604  3.8602
  776MOL0     H 4701  11.053   6.870   9.461 -3.5036  1.7422  1.3921
  776MOL0     H 4702  11.000   6.866   9.628  0.8973 -2.6723 -1.0751
  776MOL0     H 4703  11.148   7.098   9.634  1.3761 -0.6564 -1.0137
  776MOL0     H 4704  11.126   7.090   9.464 -1.6609  0.7750 -0.3497
  776MOL0     H 4705  10.875   7.043   9.497  0.3817 -1.1527  0.0848
  776MOL0     H 4706  10.894   7.085   9.676  1.8681  3.5757  2.1873
  776MOL0     H 4707  10.962   7.303   9.647  0.8684 -0.8025  0.5757
  776MOL0     H 4708  11.006   7.294   9.477  1.6544 -1.6846 -0.9307
  776MOL0     H 4709  10.729   7.238   9.584 -2.0163 -0.3902 -0.0269
  776MOL0     H 4710  10.777   7.268   9.422 -0.0848  2.0073 -0.3080
  776MOL0     H 4711  10.751   7.507   9.333 -1.3393  1.6967 -0.2804
  776MOL0     H 4712  10.841   7.812   9.432 -1.0721  0.7189 -0.5707
  776MOL0     H 4713  10.700   7.770   9.334 -0.7115 -1.0142  0.3589
  776MOL0     H 4714  10.715   7.927   9.580  2.4664 -4.3501  2.4825
  776MOL0     H 4715  10.564   7.838   9.551  1.0494 -1.0813  1.0491
  776MOL0     H 4716  10.542   7.966   9.329 -2.1821 -0.7196  2.4053
  776MOL0     H 4717  10.705   8.013   9.352 -0.7609  2.0855  0.4609
  776MOL0     H 4718  10.627   8.206   9.487 -1.1476  0.9413 -0.5190
  776MOL0     H 4719  10.516   8.100   9.565 -3.4314  0.6014 -0.7671
  776MOL0     H 4720  10.614   8.398   9.369  0.7287 -3.1450  1.5351
  776MOL0     H 4721  10.742   8.598   9.128  0.4757 -0.5992 -0.2145
  776MOL0     H 4722  10.813   8.499   9.254  3.9615  1.7396 -2.0519
  776MOL0     H 4723  10.820   8.459   9.074 -2.9111 -0.0532 -2.2610
  776MOL0     H 4724  10.767   8.536   8.701 -2.7285  4.6619 -0.5794
  776MOL0     H 4725  10.818   8.597   8.473  2.7964 -3.3394 -1.8123
  776MOL0     H 4726  10.605   8.498   8.053  4.8901  0.6965  1.4857
  776MOL0     H 4727  10.551   8.354   8.154  1.0663 -0.1032  2.1867
  776MOL0     H 4728  10.405   8.542   8.264  0.7032 -1.1141 -0.0931
  776MOL0     H 4729  10.489   8.655   8.151  0.2717  0.1970 -1.7554
  776MOL0     H 4730  10.266   8.461   8.095  0.2922 -3.1936 -2.0613
  776MOL0     H 4731  10.383   8.498   7.969 -1.1107  0.8329 -1.3828
  776MOL0     H 4732  10.268   8.733   8.101  4.4733 -1.4775  0.5451
  776MOL0     H 4733  10.341   8.717   7.941 -0.7488  0.0004 -0.9090
  776MOL0     H 4734  10.092   8.728   7.932 -0.9633 -1.2559  0.0706
  776MOL0     H 4735  10.084   8.575   8.017  0.6569  0.6991  2.8690
  776MOL0     H 4736  10.256   8.593   7.760  1.3323 -0.6619  1.3485
  776MOL0     H 4737  10.177   8.457   7.863 -0.7080  1.0336  1.2873
  776MOL0     H 4738  10.020   8.653   7.700  0.1539  0.8809  1.6946
  776MOL0     H 4739   9.968   8.516   7.810  1.0243 -0.4468 -1.0221
  776MOL0     H 4740   9.948   8.419   7.605 -0.3934  3.7596  1.0773
  776MOL0     H 4741  10.104   8.358   7.667 -2.2919 -1.1157 -0.2931
  776MOL0     H 4742  10.508   8.303   8.358 -2.2191  0.8520  1.1138
  776MOL0     H 4743  10.499   8.223   8.595 -0.7458 -0.3451  0.0143
  776MOL0     H 4744  10.469   8.223   8.937  1.4767 -3.3254  0.9576
  776MOL0     H 4745  10.385   8.124   9.150  1.5883 -1.1130  2.0840
  776MOL0     H 4746  11.242   6.317   9.507  2.3985  1.9121  2.3791
  776MOL0     H 4747  11.259   6.145   9.339 -0.2307  1.5808  0.9181
  776MOL0     H 4748  11.335   5.896   9.109  1.3833  3.2136  0.3966
  776MOL0     H 4749  11.312   5.685   8.965 -0.9208 -0.9547 -4.6209
  776MOL0     H 4750  11.569   5.618   8.809 -0.7433  0.4516  2.9670
  776MOL0     H 4751  11.441   5.505   8.864 -3.3084  1.8647  0.0479
  776MOL0     H 4752  11.576   5.529   8.595  2.1285  2.2413  3.0562
  776MOL0     H 4753  11.412   5.455   8.605 -0.0168 -0.1546 -1.6033
  776MOL0     H 4754  11.653   5.348   8.771 -0.3298  0.0651  0.2068
  776MOL0     H 4755  11.605   5.298   8.604 -1.1444  0.8331 -1.3301
  776MOL0     H 4756  11.432   5.268   8.851 -1.2202 -0.2077  0.2240
  776MOL0     H 4757  11.537   5.147   8.779  0.4676 -0.6654 -2.9531
  776MOL0     H 4758  11.205   5.136   8.513  1.1452 -0.5690 -1.1615
  776MOL0     H 4759  11.460   5.876   8.629  1.0378 -0.9821 -0.1322
  776MOL0     H 4760  11.479   6.090   8.755  1.6665  0.5290  0.6608
  777MOL0     O 4761   4.545   8.006   7.341 -0.7391 -0.0201 -0.0753
  777MOL0     C 4762   4.450   8.044   7.277 -0.9360 -0.4628 -0.7088
  777MOL0     O 4763   4.461   8.108   7.155  0.4279 -0.0646 -0.6058
  777MOL0     C 4764   4.590   8.119   7.107 -0.2102  0.4048 -0.6853
  777MOL0     C 4765   4.683   8.213   7.154  1.2964 -0.2281  0.6199
  777MOL0     C 4766   4.803   8.213   7.085  0.4427 -0.2899 -0.6489
  777MOL0     C 4767   4.831   8.125   6.975 -0.5553  0.0642 -0.1536
  777MOL0     O 4768   4.959   8.139   6.934  0.1823  0.2319  0.5074
  777MOL0     C 4769   5.023   8.034   6.852 -0.8738  0.2065 -0.0871
  777MOL0     C 4770   5.076   7.928   6.951 -0.6666  0.1271  0.2324
  777MOL0     C 4771   5.198   7.962   7.033 -0.3251 -0.4852 -1.1491
  777MOL0     C 4772   5.257   7.836   7.091 -0.8541 -0.5989 -0.5931
  777MOL0     C 4773   5.341   7.741   7.007 -0.2406  0.2545 -0.4332
  777MOL0     C 4774   5.353   7.607   7.066 -0.5034 -0.2968  0.7134
  777MOL0     C 4775   5.429   7.515   6.970 -0.0733 -0.7426  0.5795
  777MOL0     C 4776   5.349   7.444   6.854 -0.6187  0.3565 -0.1718
  777MOL0     N 4777   5.305   7.545   6.758 -0.7121 -0.3954  0.5330
  777MOL0     C 4778   5.392   7.618   6.673  0.1756 -0.8085 -0.2414
  777MOL0     C 4779   5.305   7.682   6.585  0.2434 -0.1021  0.0083
  777MOL0     C 4780   5.326   7.786   6.474 -1.1365  0.3310  0.0869
  777MOL0     C 4781   5.415   7.904   6.527  0.3891  0.6616 -1.1821
  777MOL0     C 4782   5.359   7.976   6.657 -0.4215 -0.0004 -0.5304
  777MOL0     C 4783   5.466   8.081   6.704  0.2557  0.1818  0.9276
  777MOL0     O 4784   5.588   8.019   6.742 -0.0722 -0.1035 -0.1423
  777MOL0     C 4785   5.656   8.066   6.856 -0.0946  1.0526  0.1657
  777MOL0     C 4786   5.648   8.198   6.910  0.3557  0.0800 -1.0877
  777MOL0     C 4787   5.722   8.239   7.029 -0.0708 -0.4394 -0.6790
  777MOL0     C 4788   5.713   8.376   7.084 -0.3215  0.5915 -0.4523
  777MOL0     C 4789   5.807   8.133   7.088  0.3198 -0.5981  0.0410
  777MOL0     C 4790   5.901   8.165   7.197 -1.6645  0.7257  0.8040
  777MOL0     O 4791   5.951   8.057   7.276  0.6880 -0.3541 -0.5034
  777MOL0     C 4792   6.000   8.070   7.402 -0.3360  0.5197 -0.4772
  777MOL0     C 4793   5.964   8.173   7.489 -0.0507 -0.7887 -0.9752
  777MOL0     C 4794   6.040   8.199   7.610  0.2590 -0.1535  0.1722
  777MOL0     C 4795   6.135   8.111   7.652  0.2620  0.2047 -0.2019
  777MOL0     O 4796   6.215   8.139   7.765 -0.0476  0.3945 -0.3079
  777MOL0     C 4797   6.139   8.171   7.878 -0.5183 -0.9000  0.4892
  777MOL0     C 4798   6.062   8.054   7.933  0.2758 -0.5418  0.2339
  777MOL0     C 4799   6.137   7.920   7.955 -0.4970  0.2461  0.0623
  777MOL0     C 4800   6.061   7.818   8.027  0.6002  0.4222 -0.0544
  777MOL0     C 4801   6.063   7.845   8.176 -0.9492  0.4213 -0.4993
  777MOL0     C 4802   5.973   7.741   8.247  0.0713 -0.4303  0.6205
  777MOL0     C 4803   5.953   7.755   8.399 -0.5968 -0.0208 -0.3560
  777MOL0     C 4804   5.942   7.623   8.473  0.6515  0.0773  0.8566
  777MOL0    Cl 4805   5.906   7.663   8.658  0.4198  0.0141 -0.1127
  777MOL0     C 4806   6.166   7.994   7.572  0.7878 -0.2286  0.1714
  777MOL0     C 4807   6.093   7.982   7.453 -0.1102 -0.0252 -0.1807
  777MOL0     O 4808   5.952   8.275   7.209  0.3662  0.8043 -1.3578
  777MOL0     C 4809   5.816   8.007   7.026  0.2190  0.0384 -0.3023
  777MOL0     C 4810   5.730   7.967   6.916 -0.5217  0.3304 -0.9418
  777MOL0     N 4811   5.174   7.663   6.621  0.4614 -0.1805 -0.1508
  777MOL0     N 4812   5.173   7.584   6.724 -0.3935 -0.8553 -0.4159
  777MOL0     C 4813   4.743   8.036   6.936  0.4010  0.6541 -0.5775
  777MOL0     C 4814   4.620   8.030   7.000 -0.4488 -0.0679 -0.0229
  777MOL0     C 4815   4.316   8.005   7.327  0.5794  0.6977 -0.1448
  777MOL0     C 4816   4.283   7.947   7.453 -0.3144 -0.9003 -0.2562
  777MOL0     C 4817   4.156   7.910   7.490 -0.2282  0.8182  0.4879
  777MOL0     C 4818   4.045   7.938   7.411 -0.2663  0.4357  0.6302
  777MOL0     O 4819   3.921   7.902   7.443  0.7385 -0.0674 -0.6606
  777MOL0     C 4820   3.878   7.932   7.576 -0.3869  0.4433  0.0324
  777MOL0     C 4821   3.731   7.947   7.563  0.3522  0.3417  0.7969
  777MOL0     C 4822   3.654   7.949   7.688 -0.4226 -0.5381 -0.3630
  777MOL0     C 4823   3.667   8.080   7.760  0.3582  0.5510 -0.2790
  777MOL0     C 4824   3.558   8.169   7.711  0.1648  0.3285  0.0276
  777MOL0     C 4825   3.466   8.221   7.661  0.4194 -0.5626  0.8604
  777MOL0     C 4826   4.073   7.994   7.280 -0.6228 -0.0003 -0.5715
  777MOL0     C 4827   4.206   8.029   7.248  1.0416 -0.0558 -0.1296
  777MOL0     H 4828   4.647   8.285   7.227  1.1468 -1.9081  2.2693
  777MOL0     H 4829   4.880   8.285   7.112  1.2316  0.5658 -4.5676
  777MOL0     H 4830   4.952   7.993   6.780  1.0066 -1.6641 -0.9631
  777MOL0     H 4831   5.099   8.088   6.796 -2.2380  1.7471 -0.5456
  777MOL0     H 4832   4.989   7.900   7.012 -1.7970 -1.5230 -1.9768
  777MOL0     H 4833   5.098   7.842   6.887  2.1211 -1.0154  2.5289
  777MOL0     H 4834   5.265   8.020   6.969  2.4413  0.0650  1.9130
  777MOL0     H 4835   5.168   8.035   7.110  1.5725  1.2327 -1.9354
  777MOL0     H 4836   5.311   7.875   7.178 -0.4537 -0.9586 -0.6745
  777MOL0     H 4837   5.183   7.769   7.134  0.9054 -1.3544  1.4904
  777MOL0     H 4838   5.285   7.733   6.913 -3.0572  1.8080  1.0165
  777MOL0     H 4839   5.442   7.774   6.983  0.2516 -0.4360  0.6122
  777MOL0     H 4840   5.414   7.609   7.157  2.5939 -1.6731 -1.1529
  777MOL0     H 4841   5.259   7.558   7.092 -2.3460  0.9732 -2.8802
  777MOL0     H 4842   5.511   7.569   6.922 -0.8975 -2.7689 -3.5784
  777MOL0     H 4843   5.474   7.433   7.026  0.2088  0.5830  2.3802
  777MOL0     H 4844   5.260   7.388   6.884 -2.1088  1.6827 -1.8690
  777MOL0     H 4845   5.414   7.369   6.808 -0.4848 -0.2810  1.0166
  777MOL0     H 4846   5.500   7.630   6.660 -0.1260 -0.6821 -3.4452
  777MOL0     H 4847   5.378   7.738   6.391 -1.9236 -0.0832 -0.1809
  777MOL0     H 4848   5.228   7.811   6.432  0.0735 -0.6423 -3.7172
  777MOL0     H 4849   5.427   7.973   6.443 -1.3279 -0.5939 -2.5437
  777MOL0     H 4850   5.510   7.863   6.562 -0.6149  1.2104  2.5683
  777MOL0     H 4851   5.338   7.901   6.734 -0.3573  0.3700 -0.1503
  777MOL0     H 4852   5.273   8.033   6.621  1.7399  1.9364 -3.0150
  777MOL0     H 4853   5.425   8.122   6.797 -2.6300  0.5713 -0.4234
  777MOL0     H 4854   5.489   8.149   6.621  1.9980 -1.2701  0.1469
  777MOL0     H 4855   5.568   8.262   6.875  0.8336  0.4542 -1.5012
  777MOL0     H 4856   5.808   8.418   7.050 -0.3988  1.7010  0.6220
  777MOL0     H 4857   5.636   8.439   7.038  0.0071  0.7060 -0.8553
  777MOL0     H 4858   5.699   8.375   7.193 -2.9422 -2.6777 -0.6703
  777MOL0     H 4859   5.886   8.244   7.462 -1.2162  0.4148  4.4268
  777MOL0     H 4860   6.022   8.290   7.667 -3.3942  0.8990 -2.2887
  777MOL0     H 4861   6.217   8.202   7.948 -0.2079  0.6425 -0.4933
  777MOL0     H 4862   6.070   8.254   7.860  1.0912  0.8255  1.8045
  777MOL0     H 4863   6.009   8.088   8.023 -1.4571 -4.1738  0.7664
  777MOL0     H 4864   5.979   8.035   7.865 -1.5976  3.6701  0.9843
  777MOL0     H 4865   6.224   7.949   8.014  0.1730  1.0984 -1.3022
  777MOL0     H 4866   6.187   7.885   7.864 -2.5365  1.3102 -1.5559
  777MOL0     H 4867   5.960   7.825   7.986  0.9702 -0.1813 -1.1183
  777MOL0     H 4868   6.109   7.724   8.000  1.0632 -0.3258  2.9347
  777MOL0     H 4869   6.043   7.950   8.198  0.2485  0.3542  1.0649
  777MOL0     H 4870   6.164   7.826   8.214 -0.5931  1.5170 -0.8620
  777MOL0     H 4871   5.869   7.740   8.214 -0.0665 -0.0444  1.0427
  777MOL0     H 4872   6.013   7.640   8.227 -0.1653 -0.2865 -0.7163
  777MOL0     H 4873   5.864   7.811   8.426 -1.3229 -1.0434 -0.5739
  777MOL0     H 4874   6.039   7.813   8.435  0.0893 -0.4169 -1.2924
  777MOL0     H 4875   6.036   7.566   8.467 -0.1172 -1.0421 -2.8429
  777MOL0     H 4876   5.866   7.558   8.429 -0.2541  0.1065  2.3193
  777MOL0     H 4877   6.236   7.918   7.608 -1.7834 -3.0125 -0.2971
  777MOL0     H 4878   6.092   7.891   7.393 -3.8033  1.2823 -2.4803
  777MOL0     H 4879   5.901   7.941   7.044  1.1022  0.6411 -2.0654
  777MOL0     H 4880   5.749   7.866   6.881  1.1799 -0.7977  2.6922
  777MOL0     H 4881   4.755   7.958   6.861 -2.8808 -1.1604  0.5511
  777MOL0     H 4882   4.551   7.953   6.965  0.2231 -0.2817 -0.8930
  777MOL0     H 4883   4.369   7.932   7.517  3.7969 -0.3981 -5.0462
  777MOL0     H 4884   4.131   7.867   7.586 -3.9741  0.0900 -0.6489
  777MOL0     H 4885   3.909   7.854   7.646  0.7899  1.2241  0.4273
  777MOL0     H 4886   3.909   8.032   7.609  0.4731  0.6827 -1.4031
  777MOL0     H 4887   3.697   7.856   7.514  1.6644  1.1260 -1.7704
  777MOL0     H 4888   3.707   8.027   7.493  2.0946 -0.9101 -1.3609
  777MOL0     H 4889   3.684   7.869   7.756  2.3208  1.0061  0.3679
  777MOL0     H 4890   3.549   7.924   7.667 -0.5888  0.3799 -0.6539
  777MOL0     H 4891   3.764   8.128   7.749  1.1881 -0.9511  0.1669
  777MOL0     H 4892   3.655   8.070   7.868 -0.5058  0.5685 -0.3606
  777MOL0     H 4893   3.376   8.263   7.620 -0.5048 -0.4484  2.8998
  777MOL0     H 4894   3.982   8.005   7.221 -2.3876 -0.7318  1.8261
  777MOL0     H 4895   4.228   8.066   7.149  3.7107 -4.8046 -1.6379
  778MOL0     O 4896   6.310   2.035   7.063 -0.4633  0.1329  0.7831
  778MOL0     C 4897   6.274   1.982   6.959  0.6516 -0.0123  0.3897
  778MOL0     O 4898   6.338   1.991   6.842  0.0895  0.9426 -0.4074
  778MOL0     C 4899   6.475   2.006   6.850  0.5344 -0.2835  0.6130
  778MOL0     C 4900   6.562   1.964   6.950 -0.4714 -0.1698 -0.8887
  778MOL0     C 4901   6.699   1.982   6.947 -0.3417 -0.9368  0.2992
  778MOL0     C 4902   6.763   2.031   6.834  0.1120 -0.5488  0.2311
  778MOL0     O 4903   6.902   2.052   6.819 -0.2126  0.3752  0.7724
  778MOL0     C 4904   6.988   1.988   6.915 -0.3256  0.4927  0.9193
  778MOL0     C 4905   7.140   2.014   6.886 -0.6078 -0.0975  0.3147
  778MOL0     C 4906   7.188   2.158   6.878  0.1722  0.1686  0.6367
  778MOL0     C 4907   7.338   2.168   6.839  1.1357  0.4623  0.2403
  778MOL0     C 4908   7.415   2.294   6.901 -0.3212 -0.3757  0.5178
  778MOL0     C 4909   7.379   2.410   6.803  0.9053  1.1815 -0.1180
  778MOL0     C 4910   7.475   2.517   6.805  0.9414 -0.0220 -0.2043
  778MOL0     C 4911   7.585   2.486   6.709  1.0062 -0.0067 -0.3808
  778MOL0     N 4912   7.606   2.597   6.613  0.3120 -0.0849 -0.7575
  778MOL0     C 4913   7.641   2.727   6.651  0.1788  0.9119  0.1908
  778MOL0     C 4914   7.687   2.786   6.542 -0.0071 -0.5717  0.0507
  778MOL0     C 4915   7.749   2.931   6.537  0.0995  0.9206  0.3035
  778MOL0     C 4916   7.829   2.944   6.408  0.5703  0.7986 -1.5299
  778MOL0     C 4917   7.880   3.090   6.413  0.2025 -1.7736 -0.3547
  778MOL0     C 4918   7.768   3.177   6.350  0.9191  0.0742  0.0777
  778MOL0     O 4919   7.808   3.308   6.345 -0.4769  0.2625  1.0873
  778MOL0     C 4920   7.721   3.392   6.269 -0.5796 -0.5566  0.5438
  778MOL0     C 4921   7.602   3.354   6.197  0.0160 -0.0825  0.8431
  778MOL0     C 4922   7.531   3.440   6.116 -0.0616 -0.1667  0.1462
  778MOL0     C 4923   7.412   3.391   6.046 -0.5577  0.3164  0.0354
  778MOL0     C 4924   7.574   3.580   6.101  0.1821  0.3688  0.8175
  778MOL0     C 4925   7.513   3.683   6.004  0.0552  0.2044  0.0465
  778MOL0     O 4926   7.597   3.787   5.961 -0.6243  0.9713  0.9291
  778MOL0     C 4927   7.559   3.898   5.891 -0.4144 -0.5396 -0.0457
  778MOL0     C 4928   7.488   3.892   5.772 -0.4197  0.3748  0.4699
  778MOL0     C 4929   7.459   4.004   5.709  0.7349 -0.2881 -1.1831
  778MOL0     C 4930   7.497   4.130   5.742  0.2543 -0.1907 -0.3735
  778MOL0     O 4931   7.473   4.226   5.654  0.2860 -0.4215 -0.2355
  778MOL0     C 4932   7.395   4.332   5.717  0.6071  0.3432 -0.4937
  778MOL0     C 4933   7.262   4.354   5.646  0.1808  0.9857  0.0295
  778MOL0     C 4934   7.157   4.425   5.731  0.4261 -0.2396  0.4704
  778MOL0     C 4935   7.033   4.431   5.646  0.7115  0.4177  0.6423
  778MOL0     C 4936   6.909   4.499   5.718  0.0570  0.0171 -0.2714
  778MOL0     C 4937   6.778   4.499   5.632 -0.1205 -0.3341 -0.3105
  778MOL0     C 4938   6.661   4.562   5.706 -0.3072  0.2514  0.2798
  778MOL0     C 4939   6.538   4.468   5.687  0.0389 -0.5197  0.0638
  778MOL0    Cl 4940   6.477   4.484   5.525  0.2078 -0.2290  0.0031
  778MOL0     C 4941   7.578   4.136   5.856 -0.8155  0.9797 -0.2566
  778MOL0     C 4942   7.613   4.020   5.929 -0.5159 -1.0516  0.3196
  778MOL0     O 4943   7.394   3.672   5.984  0.3808 -0.1598 -0.1190
  778MOL0     C 4944   7.696   3.615   6.171 -0.3178  0.4577  0.5688
  778MOL0     C 4945   7.756   3.525   6.257  0.6532  0.1461  0.5328
  778MOL0     N 4946   7.669   2.702   6.431 -1.0698 -0.2835  0.1987
  778MOL0     N 4947   7.631   2.588   6.483  0.8705  0.0651 -0.0825
  778MOL0     C 4948   6.681   2.074   6.722 -0.6336  0.5230 -0.3947
  778MOL0     C 4949   6.541   2.056   6.730 -0.2282 -0.2438 -0.4021
  778MOL0     C 4950   6.142   1.932   6.954  0.7113  1.0924  0.3975
  778MOL0     C 4951   6.047   1.946   7.059 -0.2991  0.1360  1.0627
  778MOL0     C 4952   5.916   1.907   7.043 -0.6383  0.0900 -0.7634
  778MOL0     C 4953   5.874   1.835   6.933 -0.5553 -0.0547  0.5063
  778MOL0     O 4954   5.746   1.796   6.908 -0.9179  0.5902 -0.1725
  778MOL0     C 4955   5.614   1.832   6.981  0.1388  0.6441  0.0017
  778MOL0     C 4956   5.587   1.981   6.972 -0.4453  0.1843 -0.5670
  778MOL0     C 4957   5.439   2.021   6.960  0.3283 -1.0572  0.2168
  778MOL0     C 4958   5.350   1.975   7.082 -0.4883  0.2045  0.0564
  778MOL0     C 4959   5.323   1.829   7.080 -0.0769  0.3751 -0.1408
  778MOL0     C 4960   5.310   1.707   7.100 -0.3120 -0.5918 -0.3746
  778MOL0     C 4961   5.969   1.803   6.834  0.0027  0.2256 -0.4104
  778MOL0     C 4962   6.106   1.847   6.846 -0.2906 -0.1201  0.3807
  778MOL0     H 4963   6.527   1.932   7.048 -1.5456  2.3459 -0.3649
  778MOL0     H 4964   6.757   1.979   7.039  2.8292  1.2502 -1.4535
  778MOL0     H 4965   6.974   2.020   7.018 -4.2545 -1.3877  1.1666
  778MOL0     H 4966   6.980   1.880   6.904  0.6357  0.2867  2.0707
  778MOL0     H 4967   7.214   1.957   6.943  2.9855  3.2515 -0.6105
  778MOL0     H 4968   7.159   1.975   6.786 -3.7166  1.1277 -0.8824
  778MOL0     H 4969   7.129   2.213   6.804 -1.7179  1.0991  2.7107
  778MOL0     H 4970   7.173   2.199   6.978  1.1084 -0.7181  1.1577
  778MOL0     H 4971   7.393   2.083   6.880  2.5599  0.8717 -0.7604
  778MOL0     H 4972   7.352   2.158   6.731 -0.7070  0.2721 -0.0161
  778MOL0     H 4973   7.377   2.325   6.998  1.6339 -0.5008  1.3713
  778MOL0     H 4974   7.522   2.273   6.909  0.6352  2.0191 -3.1910
  778MOL0     H 4975   7.365   2.371   6.701 -0.5217 -1.9976  1.1314
  778MOL0     H 4976   7.280   2.436   6.841  0.2355  0.9328 -1.5975
  778MOL0     H 4977   7.427   2.614   6.790 -1.8257 -1.1627  0.6780
  778MOL0     H 4978   7.518   2.525   6.905  0.8544 -0.0446 -0.1646
  778MOL0     H 4979   7.579   2.386   6.667  2.1304 -1.4183  2.5450
  778MOL0     H 4980   7.668   2.476   6.780 -0.4779 -2.9683  1.0914
  778MOL0     H 4981   7.652   2.759   6.754  1.1809 -2.9966  1.4717
  778MOL0     H 4982   7.669   3.005   6.548 -1.0022 -0.0940 -0.6275
  778MOL0     H 4983   7.820   2.938   6.620  2.7251 -0.8002 -1.6173
  778MOL0     H 4984   7.774   2.916   6.318  0.0029 -2.1725 -0.3761
  778MOL0     H 4985   7.917   2.880   6.411 -0.1224 -0.1309  0.5927
  778MOL0     H 4986   7.976   3.104   6.362 -0.3353 -0.7003 -1.0949
  778MOL0     H 4987   7.894   3.133   6.512 -0.9025  3.0509 -2.0164
  778MOL0     H 4988   7.678   3.166   6.410 -0.1859 -0.0632 -1.5503
  778MOL0     H 4989   7.748   3.141   6.248 -0.2638 -1.0552  0.6907
  778MOL0     H 4990   7.564   3.253   6.193 -2.2318  0.6200  2.1699
  778MOL0     H 4991   7.428   3.416   5.940  2.2822 -1.0280  0.0498
  778MOL0     H 4992   7.390   3.285   6.059  0.0082  0.3728  1.6418
  778MOL0     H 4993   7.326   3.438   6.094  1.0096 -1.1387  4.8533
  778MOL0     H 4994   7.453   3.798   5.731  0.7023  1.0040 -2.1908
  778MOL0     H 4995   7.395   3.986   5.623  0.4527  0.4416 -1.1334
  778MOL0     H 4996   7.363   4.321   5.821  3.4902  0.8136  0.5418
  778MOL0     H 4997   7.448   4.428   5.712  0.7414  0.4263  1.5636
  778MOL0     H 4998   7.276   4.413   5.555  1.7586 -1.2143 -1.2407
  778MOL0     H 4999   7.225   4.260   5.604 -0.4920  0.6576  1.3152
  778MOL0     H 5000   7.183   4.527   5.761 -0.3774 -0.2061  1.0991
  778MOL0     H 5001   7.142   4.380   5.829 -3.2754  1.4987  0.8774
  778MOL0     H 5002   7.038   4.495   5.558 -1.8004  0.2962  0.3483
  778MOL0     H 5003   6.997   4.332   5.614 -1.4876  1.5204 -0.4816
  778MOL0     H 5004   6.941   4.598   5.751  0.6519 -0.9972  2.4038
  778MOL0     H 5005   6.887   4.445   5.810  0.9574 -1.0276 -0.6451
  778MOL0     H 5006   6.784   4.555   5.538 -0.6095  4.8461  2.3911
  778MOL0     H 5007   6.751   4.394   5.620 -2.4518 -0.9465  6.2146
  778MOL0     H 5008   6.639   4.658   5.658  5.2777  2.5698  1.6238
  778MOL0     H 5009   6.691   4.578   5.810  1.8952 -0.5407 -0.1715
  778MOL0     H 5010   6.458   4.514   5.745 -0.9906  0.4502 -2.0283
  778MOL0     H 5011   6.556   4.363   5.713 -1.6377  0.0340  4.1207
  778MOL0     H 5012   7.619   4.234   5.879  0.4071  0.1446  1.3494
  778MOL0     H 5013   7.657   4.026   6.028  0.8255  0.9064 -0.3297
  778MOL0     H 5014   7.751   3.707   6.158 -0.5009  0.3448 -1.1569
  778MOL0     H 5015   7.854   3.555   6.295  1.9853  0.4200 -2.7857
  778MOL0     H 5016   6.730   2.109   6.631  0.4618 -2.3637 -1.0107
  778MOL0     H 5017   6.469   2.080   6.652 -1.6841 -1.0880  0.6235
  778MOL0     H 5018   6.052   1.999   7.154 -1.4794  2.3378 -0.0204
  778MOL0     H 5019   5.849   1.942   7.121 -0.0838  0.0774 -0.2748
  778MOL0     H 5020   5.533   1.798   6.916  0.5542 -0.1975 -0.0969
  778MOL0     H 5021   5.608   1.789   7.082  1.1342 -1.9717 -0.9671
  778MOL0     H 5022   5.642   2.031   6.891  1.6514 -2.3386 -0.8541
  778MOL0     H 5023   5.638   2.021   7.060 -0.6901 -1.9044  0.5791
  778MOL0     H 5024   5.404   1.973   6.868 -1.7294  0.3315  0.2306
  778MOL0     H 5025   5.426   2.128   6.941 -2.1809 -1.3160  0.1394
  778MOL0     H 5026   5.246   2.009   7.075 -1.6173 -3.1887 -2.3250
  778MOL0     H 5027   5.408   2.008   7.168  1.4609 -2.4413 -0.1337
  778MOL0     H 5028   5.317   1.601   7.116 -2.0856 -0.3862  2.3967
  778MOL0     H 5029   5.939   1.741   6.750  0.6703  1.3006 -1.4773
  778MOL0     H 5030   6.177   1.829   6.766 -1.0023 -0.2694 -0.2327
  779MOL0     O 5031   6.274   9.764   9.188 -0.3109  0.1170 -0.1720
  779MOL0     C 5032   6.269   9.733   9.303  0.6663  0.9228  0.0196
  779MOL0     O 5033   6.266   9.820   9.410  0.3019  0.5149  0.1424
  779MOL0     C 5034   6.250   9.951   9.404 -0.3776 -0.4739 -0.1513
  779MOL0     C 5035   6.161  10.016   9.325  0.7031  0.7003 -0.6641
  779MOL0     C 5036   6.149  10.162   9.324  0.7562 -0.6391  0.4068
  779MOL0     C 5037   6.240  10.244   9.392  0.4483 -0.3516 -0.3518
  779MOL0     O 5038   6.248  10.390   9.404 -0.2596  0.5985  0.2038
  779MOL0     C 5039   6.218  10.460   9.286  0.1201 -0.1593  0.5070
  779MOL0     C 5040   6.276  10.602   9.287 -0.5271  0.2736 -0.5707
  779MOL0     C 5041   6.257  10.677   9.413  0.9238 -0.1947  0.0788
  779MOL0     C 5042   6.344  10.796   9.422 -0.3486 -0.7567 -0.4357
  779MOL0     C 5043   6.342  10.851   9.570 -0.6615 -0.1050 -0.3614
  779MOL0     C 5044   6.429  10.990   9.571  0.2272 -0.5208  0.7776
  779MOL0     C 5045   6.354  11.111   9.508  0.8827  0.1137 -0.5027
  779MOL0     C 5046   6.409  11.246   9.559 -0.5385 -0.0476 -0.4514
  779MOL0     N 5047   6.334  11.365   9.514 -0.1445  0.2446 -0.1149
  779MOL0     C 5048   6.200  11.397   9.543 -0.7972  0.2421  0.2402
  779MOL0     C 5049   6.185  11.527   9.503  0.0742 -0.2565  0.6889
  779MOL0     C 5050   6.059  11.621   9.509  0.1481  0.2352 -0.0783
  779MOL0     C 5051   5.970  11.586   9.631 -0.0696 -0.3993 -0.8943
  779MOL0     C 5052   5.877  11.478   9.616  0.4315  0.8187  0.6534
  779MOL0     C 5053   5.786  11.468   9.739  0.1771  0.3929 -0.3046
  779MOL0     O 5054   5.856  11.444   9.855 -0.2248 -0.5360 -0.1174
  779MOL0     C 5055   5.801  11.474   9.979 -0.4193 -0.2022  0.5747
  779MOL0     C 5056   5.678  11.509  10.020  1.6304  0.0527 -1.3289
  779MOL0     C 5057   5.641  11.536  10.150  1.0068 -0.7163 -0.3207
  779MOL0     C 5058   5.490  11.565  10.179 -0.9444  0.1542  0.1338
  779MOL0     C 5059   5.734  11.525  10.252  0.1478 -0.0862 -0.1723
  779MOL0     C 5060   5.706  11.551  10.394  0.0587 -0.1569 -0.7261
  779MOL0     O 5061   5.796  11.495  10.473 -0.0013 -0.2979 -0.1311
  779MOL0     C 5062   5.752  11.482  10.606  0.4416  0.8056 -0.8975
  779MOL0     C 5063   5.680  11.379  10.657  0.5618 -0.0582  0.2182
  779MOL0     C 5064   5.651  11.363  10.790 -0.3099 -1.1861 -0.3252
  779MOL0     C 5065   5.686  11.457  10.885 -0.0224  0.6517  0.3618
  779MOL0     O 5066   5.677  11.439  11.022 -0.4116 -0.6816 -0.4699
  779MOL0     C 5067   5.704  11.296  11.068  0.8968 -0.6316 -0.1750
  779MOL0     C 5068   5.614  11.267  11.185 -0.3639 -0.1337  0.5516
  779MOL0     C 5069   5.627  11.123  11.229  0.2495 -0.1249 -0.3244
  779MOL0     C 5070   5.516  11.114  11.338  0.5612  0.9562  0.4502
  779MOL0     C 5071   5.523  11.020  11.447 -0.2442 -0.4092 -0.1026
  779MOL0     C 5072   5.430  11.049  11.567 -0.0220 -0.4317  0.6668
  779MOL0     C 5073   5.292  11.084  11.524 -0.2653 -0.4038  0.7664
  779MOL0     C 5074   5.199  11.083  11.653 -0.3338  0.5015 -0.8291
  779MOL0    Cl 5075   5.183  10.905  11.692  0.1927  0.4051 -0.5696
  779MOL0     C 5076   5.768  11.564  10.838  0.8811 -0.0423 -0.1896
  779MOL0     C 5077   5.796  11.573  10.701 -0.8975 -0.0903 -0.2707
  779MOL0     O 5078   5.596  11.606  10.431 -0.1694  0.0177  0.0721
  779MOL0     C 5079   5.864  11.500  10.213 -0.3047 -0.9045 -0.4318
  779MOL0     C 5080   5.893  11.482  10.080 -0.0107  0.1101  0.5686
  779MOL0     N 5081   6.309  11.574   9.445  0.2547  0.1786  0.9137
  779MOL0     N 5082   6.396  11.474   9.467  0.7418  0.3991  0.3514
  779MOL0     C 5083   6.323  10.173   9.470  0.1346 -1.3975 -1.0513
  779MOL0     C 5084   6.338  10.033   9.473  0.3088 -0.2258 -0.4949
  779MOL0     C 5085   6.267   9.588   9.332 -0.2814 -0.5903  0.1663
  779MOL0     C 5086   6.267   9.488   9.236 -0.3813 -0.1343 -0.1471
  779MOL0     C 5087   6.274   9.357   9.270 -0.3570 -0.0888  0.1073
  779MOL0     C 5088   6.275   9.305   9.400 -0.7882  0.4708  0.5615
  779MOL0     O 5089   6.260   9.174   9.443 -0.6797 -0.0460 -0.6477
  779MOL0     C 5090   6.269   9.069   9.341 -0.5061  0.7577  0.4047
  779MOL0     C 5091   6.335   8.948   9.412  0.1551  0.1550  0.5300
  779MOL0     C 5092   6.236   8.862   9.484  0.2207  0.2633 -0.0761
  779MOL0     C 5093   6.280   8.717   9.514  0.4614  0.3129 -0.4708
  779MOL0     C 5094   6.423   8.689   9.481  0.5672  0.6962 -0.7474
  779MOL0     C 5095   6.535   8.680   9.452  0.1261  0.1802 -0.9374
  779MOL0     C 5096   6.267   9.406   9.498  0.2967  0.5913  0.1265
  779MOL0     C 5097   6.267   9.548   9.465  0.1953 -0.7553 -0.0423
  779MOL0     H 5098   6.101   9.940   9.276  0.2025  0.8374 -0.2776
  779MOL0     H 5099   6.070  10.194   9.257  1.0016 -2.5482 -0.8543
  779MOL0     H 5100   6.263  10.410   9.200 -0.1171 -0.9695  0.8442
  779MOL0     H 5101   6.109  10.459   9.273  0.1564 -2.7653  0.0243
  779MOL0     H 5102   6.382  10.605   9.260  0.4351  0.5222  2.8657
  779MOL0     H 5103   6.227  10.651   9.201 -1.0950 -0.0287 -0.4284
  779MOL0     H 5104   6.153  10.709   9.430  1.7218  1.2366  2.7638
  779MOL0     H 5105   6.286  10.612   9.495 -2.9864 -1.8276  0.3938
  779MOL0     H 5106   6.445  10.772   9.388 -0.4607  0.9965 -2.2131
  779MOL0     H 5107   6.306  10.869   9.350  2.5628  0.8045 -0.5732
  779MOL0     H 5108   6.241  10.871   9.607 -0.4456  1.0637 -0.3840
  779MOL0     H 5109   6.363  10.778   9.648 -1.5935 -0.3245 -0.2932
  779MOL0     H 5110   6.450  11.022   9.674  3.9988 -0.3911  0.1161
  779MOL0     H 5111   6.523  10.977   9.516 -1.7530  0.7921 -3.2643
  779MOL0     H 5112   6.348  11.107   9.399 -4.0030  0.7632 -0.5087
  779MOL0     H 5113   6.247  11.105   9.533  0.5984  0.8372 -1.4881
  779MOL0     H 5114   6.517  11.257   9.546 -0.5479  0.3818 -0.1445
  779MOL0     H 5115   6.387  11.228   9.664  0.6927 -3.1619 -0.5997
  779MOL0     H 5116   6.140  11.325   9.597  1.4306 -2.9480 -1.1900
  779MOL0     H 5117   6.103  11.721   9.509 -0.7277  0.6241 -0.3359
  779MOL0     H 5118   6.001  11.607   9.417 -0.6670  3.0468 -0.0677
  779MOL0     H 5119   5.912  11.675   9.658 -1.1565 -0.4499 -2.8499
  779MOL0     H 5120   6.037  11.559   9.713  2.4283 -1.7385 -3.1854
  779MOL0     H 5121   5.934  11.386   9.602  0.7069  1.4379 -3.6900
  779MOL0     H 5122   5.812  11.480   9.529  0.0403 -1.7123  0.8069
  779MOL0     H 5123   5.725  11.379   9.720  0.3255 -0.2215  1.8506
  779MOL0     H 5124   5.718  11.552   9.753 -2.5573 -1.7786  0.4437
  779MOL0     H 5125   5.598  11.528   9.948 -0.6551  3.2448  1.7103
  779MOL0     H 5126   5.460  11.509  10.268 -1.0867 -0.0806 -0.0587
  779MOL0     H 5127   5.486  11.670  10.207  0.6974 -0.6058  3.9096
  779MOL0     H 5128   5.427  11.532  10.096  0.6170 -2.9960  0.0233
  779MOL0     H 5129   5.631  11.302  10.598  0.3619 -0.7259  1.2315
  779MOL0     H 5130   5.599  11.270  10.812  0.4612 -2.4579 -3.4005
  779MOL0     H 5131   5.694  11.221  10.989  3.0546 -1.0108 -0.1621
  779MOL0     H 5132   5.802  11.293  11.115 -0.0794  1.0914  2.1409
  779MOL0     H 5133   5.639  11.334  11.268  0.3987 -1.5866  1.5381
  779MOL0     H 5134   5.509  11.290  11.163  0.4875  2.6229 -1.1365
  779MOL0     H 5135   5.719  11.100  11.283  1.2774  1.8484 -1.1296
  779MOL0     H 5136   5.611  11.046  11.153  1.3833 -0.2661 -0.4313
  779MOL0     H 5137   5.488  11.211  11.379 -0.5849  0.8147  0.0348
  779MOL0     H 5138   5.427  11.078  11.285  1.3069 -0.4204  0.0940
  779MOL0     H 5139   5.626  11.005  11.481  0.2041  0.8573 -0.8607
  779MOL0     H 5140   5.493  10.928  11.395  1.3652 -1.2313  0.3573
  779MOL0     H 5141   5.422  10.964  11.636  0.6383 -1.2177 -0.2045
  779MOL0     H 5142   5.479  11.130  11.623 -1.3871  1.0202 -0.1728
  779MOL0     H 5143   5.253  11.014  11.450 -0.3319  1.9982 -1.6482
  779MOL0     H 5144   5.284  11.189  11.492 -2.1257 -1.1936 -1.6474
  779MOL0     H 5145   5.102  11.131  11.637  0.5888  1.8991 -2.7329
  779MOL0     H 5146   5.250  11.129  11.738  0.6198 -0.8183 -0.6630
  779MOL0     H 5147   5.805  11.632  10.914  1.8236 -0.1146 -0.5626
  779MOL0     H 5148   5.852  11.657  10.662 -0.2079 -1.2299 -1.8733
  779MOL0     H 5149   5.950  11.507  10.279 -0.4445 -1.6444 -0.1591
  779MOL0     H 5150   5.998  11.459  10.062  0.2276 -1.5881  3.4452
  779MOL0     H 5151   6.377  10.229   9.545  0.6573 -1.5091 -1.3416
  779MOL0     H 5152   6.406   9.989   9.546  0.7001  0.5394 -0.3870
  779MOL0     H 5153   6.257   9.520   9.132 -1.0847 -0.4782 -0.1949
  779MOL0     H 5154   6.275   9.284   9.189  1.0307 -0.3014  0.2984
  779MOL0     H 5155   6.169   9.040   9.306  0.9022 -1.0625 -2.5644
  779MOL0     H 5156   6.323   9.091   9.248  0.2973 -2.3913  0.0004
  779MOL0     H 5157   6.398   8.992   9.489 -0.2125 -0.5222  1.2262
  779MOL0     H 5158   6.390   8.899   9.331 -3.1652 -0.5067 -1.5467
  779MOL0     H 5159   6.138   8.841   9.439 -0.6500 -0.7632  2.1724
  779MOL0     H 5160   6.210   8.921   9.573  1.8922 -0.3590  0.8616
  779MOL0     H 5161   6.209   8.647   9.470 -1.9739  0.4134  2.9214
  779MOL0     H 5162   6.272   8.686   9.618  1.9436 -0.4068 -0.5386
  779MOL0     H 5163   6.632   8.694   9.409  0.4142 -1.4921 -0.8963
  779MOL0     H 5164   6.245   9.380   9.601  2.6840  0.0482  0.5468
  779MOL0     H 5165   6.237   9.608   9.549  1.5773  0.9124 -0.6858
  780MOL0     O 5166   7.739   1.770   6.477 -0.6077 -0.4328  0.0974
  780MOL0     C 5167   7.765   1.684   6.562  0.2312 -0.8084  0.0453
  780MOL0     O 5168   7.888   1.659   6.621  0.4642 -0.3069 -0.0610
  780MOL0     C 5169   8.003   1.725   6.574  1.2708  0.1354  0.3352
  780MOL0     C 5170   8.055   1.711   6.443 -0.3048  0.6714  0.2284
  780MOL0     C 5171   8.179   1.770   6.414  0.3204  0.5626  0.5926
  780MOL0     C 5172   8.248   1.854   6.500 -1.0515 -0.8211 -0.9278
  780MOL0     O 5173   8.365   1.927   6.470 -0.3985  0.3164 -0.0734
  780MOL0     C 5174   8.397   1.949   6.329  0.7608  0.3440  0.0163
  780MOL0     C 5175   8.306   2.058   6.269  0.0754  0.1450 -0.4979
  780MOL0     C 5176   8.335   2.068   6.119  0.1042  0.1923  0.1942
  780MOL0     C 5177   8.273   2.183   6.034 -0.8543  0.0247 -0.2299
  780MOL0     C 5178   8.302   2.167   5.884 -0.6708 -0.0766  0.1527
  780MOL0     C 5179   8.458   2.139   5.844  0.2451  0.3375 -0.4762
  780MOL0     C 5180   8.554   2.255   5.901  0.3220  0.7238  0.2903
  780MOL0     C 5181   8.702   2.226   5.862  0.3544  0.1818 -0.0329
  780MOL0     N 5182   8.754   2.118   5.937  0.1697  0.0529  0.7295
  780MOL0     C 5183   8.799   2.001   5.877 -0.4891  0.5119 -1.6104
  780MOL0     C 5184   8.869   1.939   5.984  0.4179  0.7938  0.5679
  780MOL0     C 5185   8.945   1.810   5.974 -0.6064 -0.1236 -0.5835
  780MOL0     C 5186   9.034   1.783   6.099 -0.2966 -0.4356 -0.2708
  780MOL0     C 5187   9.133   1.660   6.077  0.3502 -0.2215 -0.5320
  780MOL0     C 5188   9.264   1.696   6.000 -0.7007  0.4614  0.3994
  780MOL0     O 5189   9.244   1.778   5.878  0.1562 -0.2792  0.5830
  780MOL0     C 5190   9.314   1.759   5.756 -0.7195 -0.1774  0.6994
  780MOL0     C 5191   9.291   1.832   5.644 -0.5005 -0.1229  0.1518
  780MOL0     C 5192   9.353   1.816   5.526 -0.7542  0.5804 -0.0749
  780MOL0     C 5193   9.292   1.882   5.397  0.9432 -0.0682  0.1479
  780MOL0     C 5194   9.463   1.731   5.510 -0.4598  0.4820  0.3148
  780MOL0     C 5195   9.538   1.711   5.380 -0.2624 -0.0067  0.2954
  780MOL0     O 5196   9.604   1.589   5.371 -0.2608 -0.0852  0.5442
  780MOL0     C 5197   9.624   1.531   5.251 -0.0955  0.1456  0.9087
  780MOL0     C 5198   9.763   1.521   5.223  0.7010  0.2355  0.3505
  780MOL0     C 5199   9.813   1.457   5.112  0.2048  0.4009 -0.7213
  780MOL0     C 5200   9.720   1.379   5.030 -0.0550  0.7958 -0.8507
  780MOL0     O 5201   9.777   1.316   4.925 -0.3264 -0.1827  0.6045
  780MOL0     C 5202   9.816   1.410   4.824  0.7854 -1.0178  0.4568
  780MOL0     C 5203   9.784   1.370   4.677 -0.0729  0.1189 -0.1471
  780MOL0     C 5204   9.640   1.400   4.645  0.4261  0.9838  1.3012
  780MOL0     C 5205   9.573   1.304   4.541  0.7674 -0.4715 -0.8029
  780MOL0     C 5206   9.439   1.365   4.493 -0.0594  0.0624 -0.9384
  780MOL0     C 5207   9.331   1.358   4.605  0.2712  0.1872 -0.4481
  780MOL0     C 5208   9.189   1.397   4.561 -0.4481 -0.1053 -0.5851
  780MOL0     C 5209   9.122   1.306   4.470  0.4509  0.0453  0.4235
  780MOL0    Cl 5210   8.963   1.373   4.422  0.0410  0.2968 -0.3652
  780MOL0     C 5211   9.578   1.387   5.056  0.2516 -0.4382 -0.1440
  780MOL0     C 5212   9.527   1.474   5.163 -0.0282 -0.4871 -0.6249
  780MOL0     O 5213   9.550   1.804   5.294  0.1080  0.0318  0.4319
  780MOL0     C 5214   9.477   1.643   5.620  1.1214  0.5728  1.0262
  780MOL0     C 5215   9.406   1.658   5.733 -1.2116 -0.9073  0.1640
  780MOL0     N 5216   8.844   2.004   6.104  0.6331 -0.6534 -0.0423
  780MOL0     N 5217   8.787   2.117   6.076  0.2343  0.7156  0.3897
  780MOL0     C 5218   8.203   1.876   6.626  0.9164 -0.4098 -0.0655
  780MOL0     C 5219   8.076   1.821   6.656 -0.3409  0.1828 -0.8049
  780MOL0     C 5220   7.650   1.615   6.634  0.2285  0.3393  0.7438
  780MOL0     C 5221   7.677   1.499   6.701 -0.4249 -0.7968  0.0758
  780MOL0     C 5222   7.574   1.448   6.787 -0.8570 -0.2781 -0.3978
  780MOL0     C 5223   7.447   1.491   6.802 -0.4890 -0.4676 -0.0063
  780MOL0     O 5224   7.369   1.427   6.896  0.1880 -0.1449  0.1769
  780MOL0     C 5225   7.248   1.488   6.924 -0.2827 -0.8955 -0.2198
  780MOL0     C 5226   7.159   1.371   6.996 -1.0039  0.4827  0.6593
  780MOL0     C 5227   7.038   1.426   7.077  0.6334  1.1337  0.0008
  780MOL0     C 5228   6.979   1.304   7.154 -0.5736 -0.0349 -0.0854
  780MOL0     C 5229   6.924   1.199   7.068 -0.1979 -0.2595 -0.2222
  780MOL0     C 5230   6.875   1.101   7.006  0.1559  0.5096  0.3531
  780MOL0     C 5231   7.417   1.609   6.728  0.0359  0.6602  0.7943
  780MOL0     C 5232   7.513   1.664   6.647 -0.6013  0.1510  0.8415
  780MOL0     H 5233   8.022   1.633   6.374  1.4009 -0.8728  1.0691
  780MOL0     H 5234   8.225   1.753   6.317 -0.6978 -2.6357  0.5713
  780MOL0     H 5235   8.497   1.991   6.314  1.8289 -2.6191 -2.4338
  780MOL0     H 5236   8.385   1.859   6.268 -0.4800  0.1455  0.5172
  780MOL0     H 5237   8.201   2.035   6.286  0.3877  0.3339  2.1253
  780MOL0     H 5238   8.338   2.158   6.300 -0.8544  1.6434 -4.0016
  780MOL0     H 5239   8.441   2.076   6.091 -0.4801  0.6440 -2.1516
  780MOL0     H 5240   8.308   1.977   6.065 -4.8376  0.5801  1.5743
  780MOL0     H 5241   8.166   2.182   6.055 -0.6654  0.2225  0.8253
  780MOL0     H 5242   8.309   2.282   6.063 -0.7517 -0.0028 -0.2617
  780MOL0     H 5243   8.236   2.091   5.840 -0.2250 -1.7002  2.1146
  780MOL0     H 5244   8.275   2.267   5.850 -1.9658 -0.3018  0.4498
  780MOL0     H 5245   8.493   2.046   5.890  2.0530  1.7510  1.1934
  780MOL0     H 5246   8.482   2.131   5.738 -0.4984 -0.3947 -0.5967
  780MOL0     H 5247   8.515   2.351   5.866  0.8256  0.0950 -2.2022
  780MOL0     H 5248   8.546   2.266   6.010  0.5123  0.3402  0.3457
  780MOL0     H 5249   8.758   2.317   5.885  0.8019 -0.3916  1.2394
  780MOL0     H 5250   8.709   2.211   5.754  0.2151 -4.6917  0.4008
  780MOL0     H 5251   8.792   1.985   5.770  0.1562 -3.0119 -1.2549
  780MOL0     H 5252   8.881   1.725   5.947  0.5409 -0.6669 -1.6609
  780MOL0     H 5253   9.005   1.814   5.883 -0.3859 -1.6620 -0.5295
  780MOL0     H 5254   8.971   1.754   6.184  0.6993 -0.8008  0.3547
  780MOL0     H 5255   9.088   1.874   6.129 -0.2368 -1.1726  2.0989
  780MOL0     H 5256   9.070   1.578   6.042 -1.7739  0.6169  1.0699
  780MOL0     H 5257   9.164   1.628   6.177  0.1783  1.4070  0.0737
  780MOL0     H 5258   9.307   1.600   5.969 -1.6379  0.7542 -2.0455
  780MOL0     H 5259   9.330   1.746   6.072 -2.8159  1.7726  1.5386
  780MOL0     H 5260   9.208   1.901   5.650  0.3790  1.0514 -0.6864
  780MOL0     H 5261   9.350   1.965   5.356 -1.5415  2.1148  0.7531
  780MOL0     H 5262   9.270   1.802   5.326 -2.5903 -1.7997  2.8441
  780MOL0     H 5263   9.189   1.916   5.414  0.1394 -2.6793  1.0351
  780MOL0     H 5264   9.832   1.533   5.305  0.6417 -0.4059  0.5027
  780MOL0     H 5265   9.920   1.456   5.099  0.3212 -0.0967  0.1915
  780MOL0     H 5266   9.765   1.504   4.844  1.5141 -0.6589  0.6232
  780MOL0     H 5267   9.921   1.440   4.820  0.2884  0.7443 -0.0297
  780MOL0     H 5268   9.854   1.415   4.606  1.1133  3.9620  3.0609
  780MOL0     H 5269   9.793   1.261   4.674 -0.2324 -0.1712  4.0222
  780MOL0     H 5270   9.636   1.504   4.610  2.0447  0.5466 -0.3341
  780MOL0     H 5271   9.581   1.398   4.737  0.1512 -3.0905  1.2045
  780MOL0     H 5272   9.645   1.303   4.459  4.0872 -2.0311  1.8858
  780MOL0     H 5273   9.567   1.205   4.588  1.7553  1.1162  3.0924
  780MOL0     H 5274   9.410   1.313   4.401 -1.8451  0.7915 -0.8336
  780MOL0     H 5275   9.450   1.466   4.454  2.3901 -0.6661 -2.3240
  780MOL0     H 5276   9.341   1.254   4.636 -4.3376  0.9069  4.9829
  780MOL0     H 5277   9.350   1.413   4.697  0.9923 -2.0632  0.8200
  780MOL0     H 5278   9.205   1.495   4.516  0.1581  0.3094  0.4808
  780MOL0     H 5279   9.129   1.408   4.652 -0.6197  2.0565 -0.9109
  780MOL0     H 5280   9.132   1.208   4.518  4.2801 -1.8354 -3.5559
  780MOL0     H 5281   9.180   1.295   4.378  1.6400 -0.3798  1.1974
  780MOL0     H 5282   9.529   1.325   4.982 -0.6174  0.5292 -0.4126
  780MOL0     H 5283   9.424   1.504   5.176  0.3635  0.2452  0.9901
  780MOL0     H 5284   9.551   1.564   5.618  0.3640 -0.1515  0.1580
  780MOL0     H 5285   9.414   1.569   5.796 -1.9738 -0.9759  0.1783
  780MOL0     H 5286   8.246   1.949   6.693 -1.3855  0.3681  0.6504
  780MOL0     H 5287   8.032   1.845   6.752  0.8810 -1.9224  0.3417
  780MOL0     H 5288   7.777   1.457   6.708  0.0457  0.5361  2.3628
  780MOL0     H 5289   7.597   1.356   6.839  1.5270 -1.0333 -2.5707
  780MOL0     H 5290   7.255   1.576   6.989 -3.2228 -0.4048 -0.4451
  780MOL0     H 5291   7.198   1.522   6.833 -0.8328  0.7346  0.6665
  780MOL0     H 5292   7.215   1.317   7.073 -2.4359 -0.7239  0.8807
  780MOL0     H 5293   7.124   1.298   6.922 -2.7747  1.4889  0.4447
  780MOL0     H 5294   6.962   1.459   7.006 -0.8546 -0.8008  0.6164
  780MOL0     H 5295   7.072   1.512   7.136  2.2662 -0.1470  1.0444
  780MOL0     H 5296   6.907   1.333   7.232  2.3312  2.7233  1.8537
  780MOL0     H 5297   7.058   1.261   7.216 -1.4591 -0.0128  1.0939
  780MOL0     H 5298   6.852   1.010   6.957  2.0398 -0.0320  0.3741
  780MOL0     H 5299   7.323   1.663   6.736  0.5153  1.3999  1.6579
  780MOL0     H 5300   7.494   1.749   6.582  0.0994  1.5792  2.4293
  781MOL0     O 5301   9.435   3.427   9.631 -0.1361 -0.1363  0.3369
  781MOL0     C 5302   9.447   3.540   9.667  0.9000 -0.2324  0.6650
  781MOL0     O 5303   9.500   3.642   9.594 -0.2067  0.0762 -0.0507
  781MOL0     C 5304   9.464   3.667   9.461  0.5207  0.0528 -0.6785
  781MOL0     C 5305   9.557   3.737   9.380  0.7980 -0.5537 -0.0733
  781MOL0     C 5306   9.535   3.748   9.241  0.1676 -1.4226 -0.1063
  781MOL0     C 5307   9.426   3.679   9.177  0.4012 -0.1646 -0.4107
  781MOL0     O 5308   9.404   3.678   9.040  0.0554  0.4147  0.9160
  781MOL0     C 5309   9.528   3.642   8.961  0.0710 -0.1642  0.1489
  781MOL0     C 5310   9.604   3.514   8.995  0.9086  1.0306  0.8882
  781MOL0     C 5311   9.713   3.481   8.898 -0.2450  0.4468 -0.4749
  781MOL0     C 5312   9.849   3.476   8.980 -1.6674  0.3769  0.9021
  781MOL0     C 5313   9.976   3.442   8.885 -0.6882  1.1576  0.1327
  781MOL0     C 5314  10.108   3.415   8.962  0.1194  2.0631 -0.7518
  781MOL0     C 5315  10.223   3.392   8.863  0.2772 -0.1035 -0.1925
  781MOL0     C 5316  10.353   3.337   8.919 -0.4583  0.9611 -0.4283
  781MOL0     N 5317  10.435   3.263   8.823  0.4779 -0.3746 -0.5258
  781MOL0     C 5318  10.556   3.284   8.771  0.1225  0.2491 -0.6925
  781MOL0     C 5319  10.580   3.182   8.695  0.5708 -0.4345  0.7655
  781MOL0     C 5320  10.711   3.172   8.626  0.1139 -0.2224  0.2126
  781MOL0     C 5321  10.822   3.150   8.736  0.0456 -0.3196  0.2374
  781MOL0     C 5322  10.809   3.021   8.831  0.5256  0.4818  0.2356
  781MOL0     C 5323  10.858   2.892   8.754 -0.2787 -0.1243  0.0000
  781MOL0     O 5324  10.994   2.907   8.690  0.8453  0.5595  0.7307
  781MOL0     C 5325  11.062   2.781   8.681 -0.4781 -0.5295  0.1655
  781MOL0     C 5326  11.019   2.651   8.708 -0.7479 -0.2257  0.7532
  781MOL0     C 5327  11.093   2.534   8.696  0.2738  0.4261  0.4374
  781MOL0     C 5328  11.017   2.402   8.718  1.4191  0.2985 -0.3419
  781MOL0     C 5329  11.232   2.533   8.647  0.7613 -1.0316  0.9329
  781MOL0     C 5330  11.317   2.408   8.638  0.2847 -0.3547 -0.7275
  781MOL0     O 5331  11.270   2.284   8.691 -0.0575  0.0269 -0.0492
  781MOL0     C 5332  11.350   2.182   8.740 -0.5461  0.0486  0.0951
  781MOL0     C 5333  11.499   2.187   8.776 -0.7710 -0.4279 -0.4396
  781MOL0     C 5334  11.560   2.069   8.813 -0.0033 -0.0457 -0.4462
  781MOL0     C 5335  11.489   1.949   8.816 -0.5280  0.2310 -0.8516
  781MOL0     O 5336  11.556   1.831   8.854 -0.3729  0.2784  0.2839
  781MOL0     C 5337  11.481   1.718   8.881 -0.5937 -0.6406  1.2245
  781MOL0     C 5338  11.573   1.602   8.919  0.7074 -0.5520  0.0886
  781MOL0     C 5339  11.665   1.544   8.806  0.4474 -0.3142  0.0047
  781MOL0     C 5340  11.744   1.419   8.862  0.4932  0.1331 -0.1934
  781MOL0     C 5341  11.801   1.371   8.729 -0.0444  0.3808 -0.5013
  781MOL0     C 5342  11.914   1.263   8.753  0.0125 -0.3452 -0.8557
  781MOL0     C 5343  11.869   1.142   8.819 -0.4521 -0.1815 -0.0301
  781MOL0     C 5344  11.980   1.038   8.828 -0.3958 -0.5316  0.2011
  781MOL0    Cl 5345  12.144   1.090   8.899 -0.7371 -0.7486  0.3391
  781MOL0     C 5346  11.353   1.948   8.782 -1.1125 -0.3469 -0.0948
  781MOL0     C 5347  11.287   2.068   8.746 -1.0803 -1.2674 -0.3109
  781MOL0     O 5348  11.426   2.429   8.593 -0.6592  0.0096  0.0128
  781MOL0     C 5349  11.277   2.668   8.617  0.7136  0.5165 -0.1563
  781MOL0     C 5350  11.199   2.782   8.652 -0.0165 -0.0921  0.1436
  781MOL0     N 5351  10.486   3.085   8.716  0.5542 -0.8340 -0.5224
  781MOL0     N 5352  10.405   3.131   8.802  0.4566  0.6675 -0.4047
  781MOL0     C 5353   9.330   3.619   9.264  0.7402  0.4504 -0.2743
  781MOL0     C 5354   9.345   3.609   9.399 -0.1135 -1.6935 -0.0714
  781MOL0     C 5355   9.421   3.560   9.818 -0.4862 -0.5994  0.7041
  781MOL0     C 5356   9.381   3.690   9.860 -0.3275 -0.4927 -0.1393
  781MOL0     C 5357   9.331   3.696   9.992  0.0518 -0.0075  0.1111
  781MOL0     C 5358   9.338   3.592  10.091  1.6128 -0.1565  1.0846
  781MOL0     O 5359   9.319   3.629  10.217 -0.0204  0.5846  0.5162
  781MOL0     C 5360   9.275   3.529  10.305 -0.7806  0.0903  0.2133
  781MOL0     C 5361   9.266   3.595  10.443 -0.0304 -1.0382 -0.5017
  781MOL0     C 5362   9.183   3.509  10.546  0.5943  0.8809  0.2535
  781MOL0     C 5363   9.232   3.550  10.686 -0.3769 -1.1468  0.2790
  781MOL0     C 5364   9.373   3.566  10.708  0.2471 -0.0631 -0.2768
  781MOL0     C 5365   9.492   3.567  10.738 -0.0273 -1.1878  0.2682
  781MOL0     C 5366   9.363   3.458  10.040  0.1174 -0.1478 -0.3649
  781MOL0     C 5367   9.412   3.446   9.902  0.6614 -0.0545  0.0110
  781MOL0     H 5368   9.655   3.773   9.410  1.9244 -4.5444  1.6635
  781MOL0     H 5369   9.605   3.808   9.183  0.1363 -0.0664  1.1990
  781MOL0     H 5370   9.496   3.647   8.856 -2.4028  0.0054  0.8462
  781MOL0     H 5371   9.593   3.728   8.980  0.5622 -0.9416  2.2426
  781MOL0     H 5372   9.648   3.516   9.096 -0.8829 -1.7624  1.8459
  781MOL0     H 5373   9.533   3.432   9.011  2.5318 -0.1377  2.4989
  781MOL0     H 5374   9.689   3.382   8.858 -0.9319  0.3748  0.1047
  781MOL0     H 5375   9.716   3.565   8.828 -2.3998  3.2925  2.5249
  781MOL0     H 5376   9.877   3.565   9.037  0.4686 -1.2794  2.5838
  781MOL0     H 5377   9.831   3.407   9.062 -1.7878 -1.2991 -0.4839
  781MOL0     H 5378   9.947   3.349   8.836 -3.1219  1.2457  1.2573
  781MOL0     H 5379   9.988   3.512   8.802  0.1579  2.8890  1.6408
  781MOL0     H 5380  10.131   3.498   9.029  0.7076  0.3890  1.2341
  781MOL0     H 5381  10.091   3.334   9.034 -2.4270  0.5559 -2.8983
  781MOL0     H 5382  10.190   3.314   8.793 -0.6334 -1.8664  2.0999
  781MOL0     H 5383  10.238   3.485   8.807  3.4359  0.1770  0.9408
  781MOL0     H 5384  10.318   3.262   8.990 -0.2191 -3.0214 -4.1117
  781MOL0     H 5385  10.418   3.412   8.964 -0.5535  2.9969 -3.4060
  781MOL0     H 5386  10.610   3.378   8.773  0.8378 -0.0746 -2.5433
  781MOL0     H 5387  10.699   3.084   8.563  4.7964 -0.4069 -0.8118
  781MOL0     H 5388  10.727   3.264   8.568  0.0694 -1.0861 -1.1994
  781MOL0     H 5389  10.840   3.242   8.792  0.3755  0.4290 -1.0533
  781MOL0     H 5390  10.921   3.138   8.691 -0.1541 -3.7407  0.4526
  781MOL0     H 5391  10.711   3.019   8.880 -0.2253  0.2007 -1.2247
  781MOL0     H 5392  10.879   3.040   8.913  0.3562  2.3149 -0.0127
  781MOL0     H 5393  10.781   2.864   8.681  0.5539 -0.8658 -0.6216
  781MOL0     H 5394  10.854   2.813   8.829 -0.5646 -0.3886 -0.2904
  781MOL0     H 5395  10.912   2.647   8.725 -0.5159 -0.3637  2.3290
  781MOL0     H 5396  11.015   2.328   8.637 -0.6796 -3.3568  2.6834
  781MOL0     H 5397  11.052   2.355   8.810  1.0685 -0.4057 -0.5597
  781MOL0     H 5398  10.914   2.432   8.738  1.8485  0.7055  1.4745
  781MOL0     H 5399  11.558   2.272   8.742  0.4722 -0.9151  0.4313
  781MOL0     H 5400  11.669   2.070   8.819  0.0651  1.1823 -1.6570
  781MOL0     H 5401  11.412   1.738   8.963  0.2224 -2.4794  2.4319
  781MOL0     H 5402  11.424   1.698   8.790 -1.5292 -0.8708  1.8572
  781MOL0     H 5403  11.622   1.634   9.011  0.6791 -0.0441 -0.0672
  781MOL0     H 5404  11.508   1.521   8.950  0.7763 -0.5267  0.2974
  781MOL0     H 5405  11.729   1.621   8.762 -0.2824  0.9995  1.1502
  781MOL0     H 5406  11.593   1.515   8.729  1.3443  3.4053 -2.4851
  781MOL0     H 5407  11.819   1.454   8.933 -1.6562  2.1403  1.2419
  781MOL0     H 5408  11.687   1.334   8.900 -1.3845  1.0681 -0.7836
  781MOL0     H 5409  11.852   1.460   8.690  0.6259  0.2312  0.0080
  781MOL0     H 5410  11.725   1.330   8.662  0.6454 -0.4673 -0.7908
  781MOL0     H 5411  11.968   1.239   8.660  0.9173 -3.0603  0.2550
  781MOL0     H 5412  11.980   1.312   8.825  1.4131  1.0102 -2.9388
  781MOL0     H 5413  11.791   1.094   8.759  0.2902 -0.1175 -1.0738
  781MOL0     H 5414  11.834   1.170   8.919  0.8068 -1.1121  0.7006
  781MOL0     H 5415  12.009   1.011   8.726 -0.1887  3.0120 -0.7936
  781MOL0     H 5416  11.949   0.947   8.881  2.1605 -0.3049  2.2686
  781MOL0     H 5417  11.295   1.856   8.785  1.9362 -2.5085 -1.9409
  781MOL0     H 5418  11.187   2.051   8.708 -1.4489 -0.8794  0.4571
  781MOL0     H 5419  11.372   2.690   8.569 -0.8538  2.6575 -2.4726
  781MOL0     H 5420  11.237   2.883   8.638  0.5376 -0.4986 -1.5073
  781MOL0     H 5421   9.267   3.545   9.217  0.5234  1.8164 -2.2848
  781MOL0     H 5422   9.279   3.546   9.457  0.0760 -1.5164  0.3411
  781MOL0     H 5423   9.385   3.784   9.806 -1.6641  0.5138  1.3828
  781MOL0     H 5424   9.291   3.795  10.013  1.1663  0.8393 -1.5681
  781MOL0     H 5425   9.178   3.495  10.267 -0.9468  1.3170 -0.5187
  781MOL0     H 5426   9.333   3.437  10.313 -4.9297 -2.7848  0.2996
  781MOL0     H 5427   9.211   3.688  10.425  0.3012 -0.7093  0.1496
  781MOL0     H 5428   9.369   3.617  10.474  1.3734 -4.0391 -2.4455
  781MOL0     H 5429   9.194   3.402  10.524 -0.0949  1.4038 -3.1924
  781MOL0     H 5430   9.077   3.534  10.544 -0.6953 -3.7320 -0.7662
  781MOL0     H 5431   9.191   3.488  10.766 -0.0176 -0.4593  1.0052
  781MOL0     H 5432   9.192   3.650  10.704  2.4741 -0.2271  2.1529
  781MOL0     H 5433   9.593   3.560  10.775 -0.0362 -0.1296  0.5212
  781MOL0     H 5434   9.366   3.374  10.107  2.3430 -0.7962 -1.1745
  781MOL0     H 5435   9.431   3.348   9.859 -2.1750 -0.7996  0.2733
  782MOL0     O 5436   2.341   5.922   1.462  0.1620  0.9077  0.5015
  782MOL0     C 5437   2.353   5.800   1.445 -0.4362  0.9245  0.2128
  782MOL0     O 5438   2.390   5.711   1.541 -0.6026  0.2147  0.0038
  782MOL0     C 5439   2.472   5.751   1.644  0.3365 -0.1069 -0.2698
  782MOL0     C 5440   2.551   5.866   1.648 -0.1121 -0.0353 -0.6243
  782MOL0     C 5441   2.648   5.880   1.747 -0.8319  0.9262  0.0540
  782MOL0     C 5442   2.659   5.796   1.858  0.6864  0.5372 -0.7266
  782MOL0     O 5443   2.746   5.823   1.964  1.3354  0.4262  0.2373
  782MOL0     C 5444   2.769   5.718   2.067  0.8877  0.3772 -0.2088
  782MOL0     C 5445   2.884   5.775   2.156  0.9143 -0.5208 -0.2548
  782MOL0     C 5446   2.935   5.688   2.263 -0.4127 -0.1953 -0.4217
  782MOL0     C 5447   2.833   5.600   2.333  0.3955 -0.7629  0.5330
  782MOL0     C 5448   2.900   5.486   2.423 -0.5110 -0.2906 -0.7786
  782MOL0     C 5449   2.954   5.378   2.340 -0.7622 -0.0300  0.0395
  782MOL0     C 5450   3.002   5.256   2.419 -0.1925 -0.1691 -0.7638
  782MOL0     C 5451   3.155   5.238   2.432 -0.1715 -0.9853  0.2538
  782MOL0     N 5452   3.178   5.108   2.510 -0.3337  0.2451  0.5564
  782MOL0     C 5453   3.229   5.089   2.633 -0.3870 -0.2459 -0.4326
  782MOL0     C 5454   3.229   4.954   2.647 -1.1181 -0.3872 -0.1435
  782MOL0     C 5455   3.307   4.888   2.756  0.6996 -0.0171 -0.5558
  782MOL0     C 5456   3.451   4.930   2.792  0.3328  0.0254 -0.4567
  782MOL0     C 5457   3.511   4.880   2.924 -0.0838 -0.1483  0.0166
  782MOL0     C 5458   3.663   4.898   2.921 -0.9270 -0.7752 -0.0655
  782MOL0     O 5459   3.695   5.040   2.896  0.1727 -0.1071  0.5293
  782MOL0     C 5460   3.825   5.092   2.887  0.0007  0.6294 -0.8143
  782MOL0     C 5461   3.848   5.223   2.891  0.2644 -0.2612 -0.5582
  782MOL0     C 5462   3.969   5.274   2.868 -0.3420  0.5338 -0.9252
  782MOL0     C 5463   3.988   5.419   2.907  1.0548 -0.0720 -0.1852
  782MOL0     C 5464   4.078   5.192   2.835  0.4818 -0.0398 -0.3264
  782MOL0     C 5465   4.206   5.252   2.803 -0.3680 -0.3796 -0.9429
  782MOL0     O 5466   4.304   5.156   2.780 -0.8283 -0.6055  0.6822
  782MOL0     C 5467   4.427   5.213   2.756  0.0731  0.0283  1.4324
  782MOL0     C 5468   4.451   5.294   2.641 -1.4318  0.4476 -0.1264
  782MOL0     C 5469   4.580   5.359   2.623  0.1658 -1.4852  0.7839
  782MOL0     C 5470   4.674   5.346   2.720 -0.0782 -0.1842  0.2459
  782MOL0     O 5471   4.790   5.421   2.713  0.5311  0.4812 -0.1174
  782MOL0     C 5472   4.825   5.484   2.838  0.5195 -0.4582  0.0091
  782MOL0     C 5473   4.971   5.517   2.830 -0.7444  0.0913  0.5455
  782MOL0     C 5474   4.993   5.657   2.753 -0.2647 -0.1669 -0.0246
  782MOL0     C 5475   5.137   5.659   2.699  0.4596  0.6660 -0.0843
  782MOL0     C 5476   5.161   5.798   2.635  0.3101 -0.3653  0.1259
  782MOL0     C 5477   5.309   5.830   2.625 -0.3515 -0.2729  0.0948
  782MOL0     C 5478   5.339   5.966   2.563  0.2885 -0.3078 -0.5979
  782MOL0     C 5479   5.267   6.025   2.442 -0.1026  0.5480 -0.3209
  782MOL0    Cl 5480   5.268   5.895   2.320 -0.4418 -0.2502 -0.0805
  782MOL0     C 5481   4.658   5.245   2.818  0.2181 -0.5269 -0.0356
  782MOL0     C 5482   4.535   5.187   2.841 -0.0090 -0.2940  0.8522
  782MOL0     O 5483   4.224   5.376   2.795 -0.5632 -0.4231 -0.0943
  782MOL0     C 5484   4.058   5.056   2.823  0.5982  0.2378  0.7600
  782MOL0     C 5485   3.934   5.005   2.846  0.7899  0.4923 -0.2575
  782MOL0     N 5486   3.181   4.892   2.540  0.9694 -0.3219  1.5831
  782MOL0     N 5487   3.154   4.984   2.447  0.3222  0.7921 -0.7815
  782MOL0     C 5488   2.579   5.674   1.852 -0.2301 -0.1556 -0.1937
  782MOL0     C 5489   2.489   5.653   1.745 -0.2576 -0.4763 -0.0527
  782MOL0     C 5490   2.337   5.752   1.307  0.2183 -0.9298 -1.0590
  782MOL0     C 5491   2.271   5.832   1.210  0.0960  0.6477  0.6363
  782MOL0     C 5492   2.212   5.768   1.096 -0.0203  0.8338  0.6193
  782MOL0     C 5493   2.232   5.640   1.073  0.2253  0.4464 -0.0847
  782MOL0     O 5494   2.182   5.581   0.962  0.5560  0.2397  0.5970
  782MOL0     C 5495   2.243   5.455   0.910  0.4928  0.5750 -0.0179
  782MOL0     C 5496   2.170   5.416   0.782  0.3995  0.4628  0.9533
  782MOL0     C 5497   2.021   5.419   0.786  0.2093  0.3791 -0.6241
  782MOL0     C 5498   1.954   5.392   0.649  0.0394  0.4265  0.1614
  782MOL0     C 5499   2.000   5.487   0.555 -0.1647 -0.2762  0.5705
  782MOL0     C 5500   2.033   5.572   0.473 -0.2841 -0.5873 -0.4009
  782MOL0     C 5501   2.315   5.568   1.160 -0.6332 -0.1301 -0.3774
  782MOL0     C 5502   2.368   5.624   1.279  0.2931 -0.0935  1.2482
  782MOL0     H 5503   2.553   5.948   1.578 -0.4791  2.0438  1.6501
  782MOL0     H 5504   2.731   5.949   1.729 -0.7662 -0.0862 -4.8528
  782MOL0     H 5505   2.675   5.689   2.115  0.3389 -1.6652 -2.2812
  782MOL0     H 5506   2.814   5.633   2.014  1.1410  0.6782 -0.4828
  782MOL0     H 5507   2.968   5.819   2.101  1.1705  2.9027  2.5064
  782MOL0     H 5508   2.834   5.858   2.208  2.0262 -1.0689  1.7904
  782MOL0     H 5509   3.017   5.635   2.214 -0.9505  0.5779 -2.2733
  782MOL0     H 5510   2.985   5.747   2.340 -0.2667 -0.6513 -0.1682
  782MOL0     H 5511   2.766   5.652   2.402 -1.1051 -1.9899  0.0401
  782MOL0     H 5512   2.758   5.556   2.267  1.0455 -1.1117  0.0168
  782MOL0     H 5513   2.980   5.519   2.489 -0.9672 -2.4422  0.9571
  782MOL0     H 5514   2.820   5.442   2.483 -0.0487  1.5656  1.3092
  782MOL0     H 5515   2.869   5.344   2.281 -0.3158 -0.1189 -0.5716
  782MOL0     H 5516   3.031   5.399   2.264  0.6503 -3.1210  0.4473
  782MOL0     H 5517   2.948   5.248   2.514  0.5663  4.3501  0.2396
  782MOL0     H 5518   2.971   5.171   2.357 -1.3520  0.7248 -1.4454
  782MOL0     H 5519   3.183   5.329   2.485 -3.5340 -0.3901  1.2269
  782MOL0     H 5520   3.199   5.231   2.332  1.6346  0.9350  0.8559
  782MOL0     H 5521   3.259   5.166   2.702  2.4469  0.3613 -2.1680
  782MOL0     H 5522   3.248   4.893   2.849  0.1027  1.7310 -0.9912
  782MOL0     H 5523   3.305   4.782   2.729  2.8972 -0.0648 -0.7378
  782MOL0     H 5524   3.456   5.040   2.789  3.5578  0.1258  2.6404
  782MOL0     H 5525   3.521   4.909   2.710  1.1554  1.2136 -0.0924
  782MOL0     H 5526   3.487   4.773   2.922 -2.0278  0.2453 -1.4650
  782MOL0     H 5527   3.477   4.943   3.007  2.2169  0.4919  0.5439
  782MOL0     H 5528   3.703   4.841   2.836  3.2201  1.0687  0.3991
  782MOL0     H 5529   3.699   4.870   3.020  0.7339  3.0847  0.6216
  782MOL0     H 5530   3.772   5.299   2.910  1.9069  1.5740 -1.0186
  782MOL0     H 5531   4.080   5.454   2.956  0.3501 -1.0214  1.9534
  782MOL0     H 5532   3.966   5.484   2.822  0.2208  2.1357  1.6281
  782MOL0     H 5533   3.908   5.444   2.976 -0.5933 -0.6868 -1.8053
  782MOL0     H 5534   4.372   5.307   2.568 -2.4803 -0.8010  0.7480
  782MOL0     H 5535   4.585   5.419   2.532 -1.5375 -1.5809  0.6006
  782MOL0     H 5536   4.760   5.571   2.853 -0.1197 -0.3866 -2.6836
  782MOL0     H 5537   4.824   5.411   2.919 -1.9283  0.0986  0.5487
  782MOL0     H 5538   5.011   5.522   2.932  1.8669  0.8641 -0.4283
  782MOL0     H 5539   5.031   5.440   2.780  0.2251  2.6352 -2.5813
  782MOL0     H 5540   4.975   5.741   2.822 -2.8999 -0.6516 -0.0011
  782MOL0     H 5541   4.918   5.670   2.674  1.3673 -1.3697 -1.8552
  782MOL0     H 5542   5.203   5.646   2.784 -2.4855 -0.2661  2.2460
  782MOL0     H 5543   5.142   5.570   2.635 -2.4682 -1.7150  2.6561
  782MOL0     H 5544   5.101   5.867   2.695 -1.6092 -2.8105  1.2049
  782MOL0     H 5545   5.114   5.794   2.537 -1.9774  0.0371  1.1535
  782MOL0     H 5546   5.352   5.822   2.725  1.8409  0.2055 -0.7473
  782MOL0     H 5547   5.357   5.750   2.568  2.6071  0.0006  2.0154
  782MOL0     H 5548   5.442   5.963   2.527  0.4487 -2.9425 -0.1379
  782MOL0     H 5549   5.331   6.041   2.643  0.6908 -0.4109 -0.4596
  782MOL0     H 5550   5.328   6.103   2.395  2.6010  0.0626  2.1187
  782MOL0     H 5551   5.167   6.059   2.471  0.0809  0.0901  0.9120
  782MOL0     H 5552   4.740   5.213   2.881 -0.7003 -4.9083 -0.7577
  782MOL0     H 5553   4.505   5.121   2.922 -3.4326  0.1050  0.0298
  782MOL0     H 5554   4.124   4.974   2.798 -3.4700 -2.9093 -0.8769
  782MOL0     H 5555   3.919   4.899   2.826 -2.9520  1.4473 -3.8046
  782MOL0     H 5556   2.578   5.604   1.935  2.5351  0.5441  0.5121
  782MOL0     H 5557   2.431   5.561   1.743  0.2490 -0.8030  0.1511
  782MOL0     H 5558   2.247   5.938   1.223  3.0095  1.4012  0.5310
  782MOL0     H 5559   2.154   5.826   1.025 -2.3914 -1.0769  0.8575
  782MOL0     H 5560   2.353   5.449   0.908  0.4928 -0.9356  1.8103
  782MOL0     H 5561   2.214   5.375   0.977 -2.9240  0.1447 -1.8233
  782MOL0     H 5562   2.203   5.314   0.759 -1.5945 -0.3469  1.4198
  782MOL0     H 5563   2.198   5.490   0.707  2.1474 -0.9051  0.1662
  782MOL0     H 5564   1.994   5.520   0.818 -1.6913 -0.4804  0.7008
  782MOL0     H 5565   1.978   5.351   0.860  0.4949  0.7280 -0.1330
  782MOL0     H 5566   1.845   5.384   0.654  0.2008 -2.4802  1.6369
  782MOL0     H 5567   1.984   5.291   0.618  0.3772 -0.2749  2.5098
  782MOL0     H 5568   2.064   5.650   0.406  0.1612  1.5334  2.1298
  782MOL0     H 5569   2.339   5.463   1.142  0.4249  0.1054 -0.4432
  782MOL0     H 5570   2.416   5.557   1.349  0.3289  2.5061  3.9138
  783MOL0     O 5571  11.015   2.325   7.306  0.5974 -1.1790  0.1909
  783MOL0     C 5572  10.988   2.390   7.404 -0.7939 -0.7092 -0.5464
  783MOL0     O 5573  11.083   2.446   7.496 -0.1076 -0.2061  0.2525
  783MOL0     C 5574  11.212   2.401   7.471 -0.1717  0.1003 -0.4261
  783MOL0     C 5575  11.310   2.500   7.464  0.1958  0.3661  0.3642
  783MOL0     C 5576  11.441   2.480   7.429 -0.3847  0.5317  0.1478
  783MOL0     C 5577  11.484   2.352   7.411 -0.8502 -0.8381  0.6242
  783MOL0     O 5578  11.619   2.325   7.384  0.2355 -0.3211  0.3382
  783MOL0     C 5579  11.721   2.402   7.443  0.5782 -0.7029 -0.0507
  783MOL0     C 5580  11.852   2.398   7.356 -0.0494 -1.4216 -0.2210
  783MOL0     C 5581  11.887   2.254   7.327 -0.3441  0.5556 -0.6795
  783MOL0     C 5582  12.036   2.234   7.293 -0.2300 -0.2481 -0.5882
  783MOL0     C 5583  12.077   2.092   7.270 -0.3745 -0.3228  1.0015
  783MOL0     C 5584  12.220   2.080   7.278 -0.6756 -0.6568  0.2803
  783MOL0     C 5585  12.278   2.029   7.407  0.4831  0.8150 -0.8080
  783MOL0     C 5586  12.301   1.881   7.393  0.0513  0.2728  0.0482
  783MOL0     N 5587  12.180   1.803   7.381  0.8189  0.2564  0.0589
  783MOL0     C 5588  12.078   1.792   7.473 -0.3681  0.3093 -0.1078
  783MOL0     C 5589  11.970   1.729   7.411 -0.4607  0.0088 -0.7028
  783MOL0     C 5590  11.829   1.714   7.456 -0.1483 -0.3382 -0.4761
  783MOL0     C 5591  11.739   1.798   7.357  0.3777 -1.1300  0.5753
  783MOL0     C 5592  11.679   1.924   7.420  0.8931  0.6621  0.2378
  783MOL0     C 5593  11.571   1.891   7.518 -0.9788  0.7795 -0.1421
  783MOL0     O 5594  11.454   1.863   7.450  0.1556 -0.3848 -0.9950
  783MOL0     C 5595  11.350   1.801   7.523 -0.8192 -0.2696 -0.1105
  783MOL0     C 5596  11.355   1.775   7.662  0.0600 -1.2059  0.2346
  783MOL0     C 5597  11.250   1.720   7.738 -0.7629 -0.3417 -0.2360
  783MOL0     C 5598  11.279   1.703   7.884 -0.6596  0.0444  0.0739
  783MOL0     C 5599  11.126   1.684   7.665 -0.2396 -0.4689  0.2676
  783MOL0     C 5600  11.025   1.599   7.724  0.0970 -0.3599  0.5709
  783MOL0     O 5601  10.903   1.592   7.671  0.3916  0.3472  0.8595
  783MOL0     C 5602  10.816   1.621   7.778 -0.0269  0.2564  0.5349
  783MOL0     C 5603  10.722   1.520   7.820 -0.3101  0.0982  0.3932
  783MOL0     C 5604  10.643   1.542   7.935 -0.7758  1.0962 -0.3038
  783MOL0     C 5605  10.661   1.656   8.012 -0.6942  0.4565  0.4344
  783MOL0     O 5606  10.589   1.663   8.128 -0.0510 -0.8409  0.4503
  783MOL0     C 5607  10.661   1.677   8.252  0.5045  1.0599  0.5240
  783MOL0     C 5608  10.691   1.814   8.310  0.3180  1.0324 -0.1711
  783MOL0     C 5609  10.556   1.899   8.331 -0.4280  0.8675 -0.4532
  783MOL0     C 5610  10.437   1.836   8.402  1.1130  0.2999 -0.1790
  783MOL0     C 5611  10.330   1.952   8.429 -0.5569 -0.4565 -0.3237
  783MOL0     C 5612  10.224   1.926   8.538  0.9999 -0.4549 -0.1989
  783MOL0     C 5613  10.116   1.830   8.500  0.4358  0.0671  0.4986
  783MOL0     C 5614  10.008   1.803   8.603 -0.4167 -0.5372  0.2198
  783MOL0    Cl 5615  10.054   1.688   8.738  0.0884 -0.6027  0.2658
  783MOL0     C 5616  10.753   1.756   7.974  0.5516 -0.0972 -0.4214
  783MOL0     C 5617  10.826   1.742   7.855  1.1969  0.5785 -0.2074
  783MOL0     O 5618  11.066   1.535   7.817  0.4531  0.6958  0.0328
  783MOL0     C 5619  11.114   1.723   7.526 -0.4658 -0.4041 -0.5957
  783MOL0     C 5620  11.229   1.780   7.454  0.0687 -0.4072  1.6274
  783MOL0     N 5621  12.031   1.687   7.300  0.2227 -0.8962  0.7953
  783MOL0     N 5622  12.151   1.723   7.280  1.0184  0.3941 -0.0886
  783MOL0     C 5623  11.387   2.247   7.402 -1.0402 -0.5697 -0.2002
  783MOL0     C 5624  11.253   2.272   7.436 -0.5817  0.3024 -0.3576
  783MOL0     C 5625  10.846   2.414   7.429  0.7935  0.2295 -0.8899
  783MOL0     C 5626  10.744   2.354   7.356  0.0608  0.2755 -0.4617
  783MOL0     C 5627  10.609   2.385   7.382 -0.4112  1.2646 -0.0112
  783MOL0     C 5628  10.576   2.459   7.495 -0.0448 -0.3531 -0.6027
  783MOL0     O 5629  10.459   2.478   7.550  0.1596  0.0329 -0.3041
  783MOL0     C 5630  10.356   2.415   7.474 -0.6755 -0.5006  0.5934
  783MOL0     C 5631  10.222   2.419   7.556  0.3199 -0.5556 -0.2695
  783MOL0     C 5632  10.207   2.291   7.652 -0.4516 -0.1784  0.6768
  783MOL0     C 5633  10.138   2.174   7.579 -1.1803  0.1087 -0.2679
  783MOL0     C 5634  10.008   2.194   7.513  0.2967 -1.3478 -0.8114
  783MOL0     C 5635   9.889   2.209   7.481  0.9421  0.4570 -0.5622
  783MOL0     C 5636  10.676   2.522   7.569  0.7096  0.3262  0.1576
  783MOL0     C 5637  10.813   2.512   7.524 -0.7413  0.2798 -0.0615
  783MOL0     H 5638  11.287   2.606   7.467 -0.8354  0.4383 -3.7546
  783MOL0     H 5639  11.513   2.560   7.413  2.1275 -0.7687  3.7472
  783MOL0     H 5640  11.697   2.508   7.452  0.7719 -0.5895 -0.8245
  783MOL0     H 5641  11.738   2.352   7.539  0.3001  1.1613  1.0118
  783MOL0     H 5642  11.846   2.450   7.260  1.6500 -1.3765 -0.3352
  783MOL0     H 5643  11.925   2.463   7.403  0.4807  0.4491 -3.3244
  783MOL0     H 5644  11.851   2.193   7.411 -1.7160  1.6897 -0.4170
  783MOL0     H 5645  11.843   2.219   7.234 -1.2547  1.2592 -0.5302
  783MOL0     H 5646  12.063   2.287   7.201  2.5340  2.1897  1.4221
  783MOL0     H 5647  12.088   2.274   7.380 -0.2527  0.8233 -1.0498
  783MOL0     H 5648  12.035   2.029   7.349  1.0754 -1.6484  0.7581
  783MOL0     H 5649  12.035   2.057   7.175  1.2304  4.2261 -1.7319
  783MOL0     H 5650  12.247   2.008   7.199  2.6544 -1.8538  2.2958
  783MOL0     H 5651  12.265   2.177   7.254 -0.2317 -1.5906 -3.3643
  783MOL0     H 5652  12.371   2.083   7.428  1.3258 -1.2729  1.3623
  783MOL0     H 5653  12.216   2.042   7.497  0.0557 -1.1827 -0.7658
  783MOL0     H 5654  12.356   1.833   7.474  1.5069 -1.5090 -1.8979
  783MOL0     H 5655  12.360   1.851   7.307 -2.9906 -0.0275 -2.1046
  783MOL0     H 5656  12.076   1.841   7.569  1.9902 -1.5122  0.9910
  783MOL0     H 5657  11.803   1.609   7.441  2.9023 -1.2752  0.1705
  783MOL0     H 5658  11.825   1.744   7.562 -0.7448  1.4920 -0.9797
  783MOL0     H 5659  11.659   1.730   7.325 -1.1018  0.5316  0.6006
  783MOL0     H 5660  11.794   1.827   7.267  0.3604  0.0067  0.9235
  783MOL0     H 5661  11.627   1.968   7.334  2.3092  2.2391  0.1185
  783MOL0     H 5662  11.750   1.998   7.458 -1.0478  3.0605 -0.5277
  783MOL0     H 5663  11.554   1.982   7.576  1.1897  1.6994 -0.8497
  783MOL0     H 5664  11.622   1.816   7.578 -0.6500  0.9587 -0.1951
  783MOL0     H 5665  11.452   1.794   7.707 -0.5861 -2.8360  2.5012
  783MOL0     H 5666  11.342   1.783   7.923 -2.3995  0.3838  2.4049
  783MOL0     H 5667  11.182   1.729   7.927 -0.5936 -2.2162  1.7882
  783MOL0     H 5668  11.310   1.599   7.899  1.2958 -0.2720 -4.4723
  783MOL0     H 5669  10.711   1.428   7.764  0.8280  0.9181 -1.2801
  783MOL0     H 5670  10.579   1.459   7.966  1.4860 -1.2979 -1.6511
  783MOL0     H 5671  10.611   1.611   8.323  2.3230 -2.0092 -0.8109
  783MOL0     H 5672  10.754   1.624   8.228  0.8435  2.1961 -0.8197
  783MOL0     H 5673  10.742   1.802   8.406  0.0944 -0.7751 -0.2537
  783MOL0     H 5674  10.753   1.870   8.239  0.3135  1.4410  0.1431
  783MOL0     H 5675  10.510   1.931   8.237  3.1979  0.6170 -2.5244
  783MOL0     H 5676  10.590   1.983   8.392  0.9683 -0.5873  0.8798
  783MOL0     H 5677  10.400   1.749   8.347  3.3226 -1.3668  0.7908
  783MOL0     H 5678  10.465   1.792   8.498  1.6460  1.6821  0.3213
  783MOL0     H 5679  10.292   1.976   8.329 -0.0344  1.1336 -0.1653
  783MOL0     H 5680  10.381   2.045   8.456  2.2232 -1.2965 -2.2461
  783MOL0     H 5681  10.253   1.889   8.637 -2.4344  2.4345  2.1574
  783MOL0     H 5682  10.186   2.028   8.548 -0.1994 -0.8607 -0.5317
  783MOL0     H 5683  10.140   1.736   8.450  1.1671 -1.0667  2.8167
  783MOL0     H 5684  10.058   1.885   8.426  2.8757  0.3452 -1.3317
  783MOL0     H 5685   9.923   1.761   8.548 -1.7206  4.8066 -2.4535
  783MOL0     H 5686   9.972   1.896   8.647  1.1576  0.2985 -0.2117
  783MOL0     H 5687  10.745   1.840   8.043 -1.2704 -3.0842  3.4295
  783MOL0     H 5688  10.895   1.822   7.831  1.6525  0.2292 -0.0882
  783MOL0     H 5689  11.030   1.684   7.470 -1.2648 -0.4425  0.6030
  783MOL0     H 5690  11.216   1.794   7.347  0.0658 -2.6507  1.2813
  783MOL0     H 5691  11.415   2.146   7.373  0.3194 -0.6542  1.2973
  783MOL0     H 5692  11.182   2.190   7.445 -0.4920  0.4580  2.6710
  783MOL0     H 5693  10.761   2.269   7.292  0.1277 -1.7650  2.0903
  783MOL0     H 5694  10.531   2.328   7.332 -0.5193  0.2967  1.1976
  783MOL0     H 5695  10.345   2.477   7.385  3.1483  0.4953  0.6471
  783MOL0     H 5696  10.365   2.312   7.436 -0.7556 -0.8692  1.5551
  783MOL0     H 5697  10.137   2.441   7.490  0.5826 -0.1398 -0.4750
  783MOL0     H 5698  10.228   2.511   7.615 -0.1262  2.6477 -4.6969
  783MOL0     H 5699  10.154   2.317   7.744  4.4731  3.4456  2.9355
  783MOL0     H 5700  10.311   2.268   7.676  0.1664  0.7684 -0.9011
  783MOL0     H 5701  10.123   2.090   7.647 -0.8557  0.6005  0.4170
  783MOL0     H 5702  10.210   2.151   7.499 -0.3724  0.4315  0.3531
  783MOL0     H 5703   9.782   2.215   7.470  0.8214 -1.4470 -0.6460
  783MOL0     H 5704  10.654   2.578   7.659  1.5515  0.6072  0.2031
  783MOL0     H 5705  10.888   2.557   7.588  1.2958 -0.8084 -1.6021
  784MOL0     O 5706   9.998   9.801   0.912 -0.0135 -0.8339 -1.0238
  784MOL0     C 5707   9.922   9.867   0.977  0.8599  0.0699 -1.2195
  784MOL0     O 5708   9.947   9.999   1.014 -0.4788  0.6235  0.0279
  784MOL0     C 5709  10.058  10.060   0.965 -0.3901  0.3431 -1.2358
  784MOL0     C 5710  10.055  10.153   0.857 -0.4497  0.5704 -0.7600
  784MOL0     C 5711  10.168  10.210   0.813  0.5858  0.4431  0.6600
  784MOL0     C 5712  10.291  10.183   0.889  0.8332  0.4193 -1.0010
  784MOL0     O 5713  10.416  10.239   0.848 -0.0757  0.0384  0.3423
  784MOL0     C 5714  10.418  10.379   0.805  0.1970  0.7374 -0.4003
  784MOL0     C 5715  10.346  10.475   0.908 -0.2776  0.1400  0.5607
  784MOL0     C 5716  10.276  10.600   0.853 -0.4101  0.9931 -1.1875
  784MOL0     C 5717  10.268  10.721   0.943  0.7560  0.1961 -0.3968
  784MOL0     C 5718  10.261  10.854   0.853 -0.5332 -0.0291 -0.2251
  784MOL0     C 5719  10.154  10.849   0.746 -0.0822  0.1280  0.7125
  784MOL0     C 5720  10.141  10.975   0.671 -0.4303  0.7124 -0.4974
  784MOL0     C 5721  10.015  11.004   0.585 -0.5488  0.3610  0.4190
  784MOL0     N 5722   9.945  11.122   0.630  0.0496  0.5484 -0.6964
  784MOL0     C 5723  10.001  11.241   0.605  0.1981  0.3174 -0.1816
  784MOL0     C 5724   9.901  11.326   0.663  0.3546 -0.3224  0.2949
  784MOL0     C 5725   9.911  11.481   0.685  0.3753 -0.3915  0.3007
  784MOL0     C 5726   9.835  11.532   0.801 -1.1322 -0.8146 -0.2710
  784MOL0     C 5727   9.688  11.540   0.760 -0.0257 -0.7439  0.7473
  784MOL0     C 5728   9.611  11.552   0.892 -0.0443 -0.9350  0.4224
  784MOL0     O 5729   9.467  11.571   0.896 -0.6025  0.1076 -0.3360
  784MOL0     C 5730   9.389  11.456   0.882  0.4433 -0.2216  1.1149
  784MOL0     C 5731   9.426  11.327   0.844 -0.1941 -0.1880 -0.5643
  784MOL0     C 5732   9.332  11.226   0.822  0.1057  0.7156 -0.7652
  784MOL0     C 5733   9.375  11.084   0.779  0.7353 -0.2994 -0.7392
  784MOL0     C 5734   9.191  11.255   0.841 -0.6852 -0.3513  0.4917
  784MOL0     C 5735   9.076  11.162   0.794 -0.4379 -0.0582  1.0137
  784MOL0     O 5736   8.945  11.213   0.816  0.1331  0.1714  0.2178
  784MOL0     C 5737   8.844  11.139   0.760 -0.3453 -0.1607 -0.1928
  784MOL0     C 5738   8.813  11.013   0.825  0.4615 -0.0245  0.4352
  784MOL0     C 5739   8.698  10.948   0.776  0.8396  0.0984 -1.3008
  784MOL0     C 5740   8.615  11.001   0.675  0.5285  0.4942 -0.4841
  784MOL0     O 5741   8.517  10.915   0.626 -0.3028  0.2759 -0.1095
  784MOL0     C 5742   8.454  10.948   0.505 -0.5389 -0.4296  0.1918
  784MOL0     C 5743   8.570  10.931   0.394  0.7973  0.1818  0.3150
  784MOL0     C 5744   8.535  10.927   0.244 -0.3598 -0.0555 -0.6870
  784MOL0     C 5745   8.468  10.798   0.204 -0.6568 -0.1027 -0.1238
  784MOL0     C 5746   8.455  10.778   0.053 -0.3548 -0.7866  0.1868
  784MOL0     C 5747   8.539  10.665   0.012  0.2702 -0.6354  0.5237
  784MOL0     C 5748   8.521  10.655  -0.143 -0.1195  0.0898  0.7040
  784MOL0     C 5749   8.615  10.561  -0.218  0.2612 -0.2353 -0.8152
  784MOL0    Cl 5750   8.758  10.643  -0.270  0.2103  0.1696  0.1474
  784MOL0     C 5751   8.639  11.127   0.629  0.0168 -0.3887  0.9499
  784MOL0     C 5752   8.755  11.195   0.671 -0.3272  0.3940  0.6335
  784MOL0     O 5753   9.101  11.063   0.726  0.0067 -0.1056  0.3985
  784MOL0     C 5754   9.155  11.382   0.871 -0.4251 -0.4299  0.2169
  784MOL0     C 5755   9.247  11.479   0.883  0.4089  0.2541  0.0794
  784MOL0     N 5756   9.779  11.254   0.681  0.7027 -0.2219 -0.8781
  784MOL0     N 5757   9.809  11.138   0.657 -0.0682  0.3606 -0.2907
  784MOL0     C 5758  10.300  10.095   0.994  0.9880 -0.4927 -0.9033
  784MOL0     C 5759  10.182  10.027   1.032 -0.3706  0.1895  0.3444
  784MOL0     C 5760   9.784   9.810   1.006  0.8913  0.2098  0.1157
  784MOL0     C 5761   9.744   9.679   0.967 -0.1640 -0.9807 -0.4348
  784MOL0     C 5762   9.633   9.616   1.014  0.0986 -0.4902 -0.7361
  784MOL0     C 5763   9.538   9.680   1.099  0.3763  0.6170  0.0873
  784MOL0     O 5764   9.408   9.626   1.125 -1.1068  0.1311 -0.0997
  784MOL0     C 5765   9.303   9.713   1.172 -0.1281 -0.0445  0.7826
  784MOL0     C 5766   9.168   9.637   1.197  1.2724  0.7389  0.1893
  784MOL0     C 5767   9.101   9.583   1.071  0.4651 -0.2950  0.6934
  784MOL0     C 5768   8.970   9.508   1.106 -0.2456 -1.2692 -0.0173
  784MOL0     C 5769   9.003   9.375   1.146  0.9794  0.9000  0.4557
  784MOL0     C 5770   9.025   9.261   1.182 -0.3233  0.2186  0.3133
  784MOL0     C 5771   9.581   9.809   1.142  0.9720 -0.8734  0.2877
  784MOL0     C 5772   9.702   9.863   1.096 -0.0697 -0.9579 -0.4727
  784MOL0     H 5773   9.964  10.191   0.814  0.3345  3.1172 -0.3322
  784MOL0     H 5774  10.182  10.272   0.725 -0.9844  1.2976  0.9839
  784MOL0     H 5775  10.526  10.392   0.797  0.3267 -0.1826 -0.2351
  784MOL0     H 5776  10.368  10.385   0.708 -2.1227 -1.1899  0.5660
  784MOL0     H 5777  10.266  10.420   0.960 -1.9384 -0.5094 -2.4464
  784MOL0     H 5778  10.416  10.507   0.986 -2.5305  3.4957  1.4297
  784MOL0     H 5779  10.336  10.633   0.768  0.3361 -0.0095 -1.0560
  784MOL0     H 5780  10.175  10.570   0.821 -0.1494 -0.0009 -1.0999
  784MOL0     H 5781  10.177  10.703   1.001 -0.0134 -0.4002 -1.7365
  784MOL0     H 5782  10.355  10.724   1.008  0.2859 -0.7072  0.2904
  784MOL0     H 5783  10.254  10.933   0.928  1.2474 -0.2793  0.2316
  784MOL0     H 5784  10.357  10.855   0.801  0.7438  1.7627  1.9808
  784MOL0     H 5785  10.179  10.767   0.678 -1.4715  0.2060  0.0607
  784MOL0     H 5786  10.056  10.819   0.785 -1.0575 -0.0068 -1.6698
  784MOL0     H 5787  10.167  11.052   0.743  0.4853  0.7992 -0.8950
  784MOL0     H 5788  10.229  10.981   0.606  2.3034  0.4178  2.8773
  784MOL0     H 5789   9.941  10.923   0.581 -2.3385  1.9335 -0.2228
  784MOL0     H 5790  10.042  11.021   0.481 -1.0621  2.4182  0.5688
  784MOL0     H 5791  10.106  11.267   0.592  0.6718 -2.2167 -2.3417
  784MOL0     H 5792  10.014  11.502   0.713 -0.3579  1.8098  1.6202
  784MOL0     H 5793   9.880  11.525   0.590 -0.7061 -3.0783 -0.6817
  784MOL0     H 5794   9.866  11.635   0.822 -0.5691 -1.4754  2.6788
  784MOL0     H 5795   9.854  11.476   0.893  2.8063  2.6220  1.3454
  784MOL0     H 5796   9.654  11.460   0.693  3.6779 -1.8179 -0.0688
  784MOL0     H 5797   9.674  11.628   0.696 -1.6072 -0.7140  1.1003
  784MOL0     H 5798   9.654  11.632   0.953  2.5870 -2.9096  1.3925
  784MOL0     H 5799   9.630  11.463   0.953  0.5114  0.1706  1.9508
  784MOL0     H 5800   9.530  11.299   0.832 -0.4015 -1.1832 -0.1337
  784MOL0     H 5801   9.340  11.085   0.675  1.3280 -0.5201 -0.9451
  784MOL0     H 5802   9.482  11.063   0.792  0.2813 -0.8041  4.0505
  784MOL0     H 5803   9.321  11.004   0.830  1.2928  0.6355  1.4385
  784MOL0     H 5804   8.879  10.991   0.907 -0.0653 -2.1050  0.3441
  784MOL0     H 5805   8.663  10.859   0.828  1.4574  1.0951  0.9353
  784MOL0     H 5806   8.374  10.875   0.486 -2.5641  1.0210  2.6336
  784MOL0     H 5807   8.423  11.053   0.499  3.4956  0.9053  0.1042
  784MOL0     H 5808   8.639  11.014   0.411  2.3949 -0.9023 -0.6663
  784MOL0     H 5809   8.629  10.841   0.413  0.1804 -0.5167 -0.9823
  784MOL0     H 5810   8.624  10.953   0.185  1.4431  0.5541  2.1311
  784MOL0     H 5811   8.463  11.009   0.235  2.7681  2.8863 -0.7666
  784MOL0     H 5812   8.512  10.713   0.257 -1.5929 -0.5035  0.0253
  784MOL0     H 5813   8.368  10.799   0.249 -1.3573 -2.1275 -1.4809
  784MOL0     H 5814   8.466  10.868  -0.008 -2.5458 -1.3483 -1.1727
  784MOL0     H 5815   8.349  10.751   0.045 -0.7163  0.2914  1.0427
  784MOL0     H 5816   8.636  10.710   0.035 -1.1062  2.5137  0.7361
  784MOL0     H 5817   8.512  10.574   0.066 -3.0572 -0.0528  0.0298
  784MOL0     H 5818   8.542  10.748  -0.197 -0.4822  0.4225  1.1306
  784MOL0     H 5819   8.417  10.626  -0.157 -0.3455  0.7736  0.9243
  784MOL0     H 5820   8.564  10.524  -0.307  0.5012  2.2002 -2.0531
  784MOL0     H 5821   8.636  10.475  -0.154 -1.0833  0.7572  1.0573
  784MOL0     H 5822   8.575  11.187   0.565 -0.5442 -1.1757  0.7592
  784MOL0     H 5823   8.798  11.281   0.620  1.6854 -0.0728  1.4243
  784MOL0     H 5824   9.052  11.415   0.879 -1.1926 -1.4961 -3.4500
  784MOL0     H 5825   9.223  11.581   0.910  1.0995  0.0542  1.5348
  784MOL0     H 5826  10.394  10.094   1.049  1.4003 -2.8879 -1.5064
  784MOL0     H 5827  10.186   9.947   1.105  0.1733 -4.0466 -3.7751
  784MOL0     H 5828   9.819   9.642   0.898  0.3693  0.8908 -0.9399
  784MOL0     H 5829   9.618   9.512   0.984 -0.1850 -0.7174  0.1409
  784MOL0     H 5830   9.342   9.750   1.267  3.5239 -1.1343 -0.1111
  784MOL0     H 5831   9.298   9.800   1.106  1.9673 -0.7643 -0.4307
  784MOL0     H 5832   9.096   9.706   1.241  1.2755 -0.8815  2.9833
  784MOL0     H 5833   9.196   9.564   1.274  3.9494 -1.4410 -2.5923
  784MOL0     H 5834   9.175   9.526   1.015 -0.2053  1.7215 -2.4647
  784MOL0     H 5835   9.076   9.666   1.004  1.5254 -1.1859 -0.8577
  784MOL0     H 5836   8.907   9.511   1.017  0.9446 -4.9193 -1.1318
  784MOL0     H 5837   8.908   9.566   1.175  1.0624 -0.8150  0.8141
  784MOL0     H 5838   9.048   9.166   1.225  1.8845 -0.8396 -2.8032
  784MOL0     H 5839   9.519   9.860   1.214  0.9107  0.2596 -0.5387
  784MOL0     H 5840   9.725   9.962   1.134  0.7995 -1.4997  0.4591
  785MOL0     O 5841   5.753   2.537  11.317  0.1695  0.5343  0.8825
  785MOL0     C 5842   5.704   2.509  11.425 -0.0317 -0.5153 -0.8001
  785MOL0     O 5843   5.777   2.501  11.541 -0.5849 -1.1079  0.3859
  785MOL0     C 5844   5.906   2.561  11.534  0.6164  0.0285  0.8637
  785MOL0     C 5845   5.942   2.666  11.468  0.7602 -0.4934  1.0180
  785MOL0     C 5846   6.072   2.722  11.473  0.2692 -0.2596 -0.1584
  785MOL0     C 5847   6.158   2.672  11.567 -0.6194 -0.1936  0.0687
  785MOL0     O 5848   6.274   2.741  11.586  1.1401 -1.1651 -0.3376
  785MOL0     C 5849   6.365   2.704  11.690 -0.4747  0.1448  0.6154
  785MOL0     C 5850   6.326   2.748  11.824 -0.5244 -0.0978 -0.4202
  785MOL0     C 5851   6.445   2.757  11.914  0.8457  0.1604 -0.4946
  785MOL0     C 5852   6.381   2.795  12.052  0.4279  1.0979 -0.4354
  785MOL0     C 5853   6.466   2.730  12.166 -0.7119 -0.3142 -0.1491
  785MOL0     C 5854   6.417   2.783  12.309  0.7738  0.8954  0.2700
  785MOL0     C 5855   6.474   2.917  12.336  0.7858 -0.2406 -0.6023
  785MOL0     C 5856   6.455   2.954  12.488  0.3668  0.1726  0.7620
  785MOL0     N 5857   6.311   2.964  12.518  0.2485  0.4660  0.4596
  785MOL0     C 5858   6.240   2.871  12.593  0.4098  0.7143  0.2209
  785MOL0     C 5859   6.114   2.920  12.615 -0.2854 -0.1863 -0.0766
  785MOL0     C 5860   6.013   2.842  12.695 -0.0566 -0.0100 -0.2124
  785MOL0     C 5861   5.964   2.716  12.623 -0.2441  1.1258 -0.5878
  785MOL0     C 5862   5.868   2.626  12.714  0.0049  0.2416  0.6014
  785MOL0     C 5863   5.906   2.589  12.848 -0.2706  0.3086  0.0995
  785MOL0     O 5864   6.040   2.541  12.865  0.1403  0.3217  0.1862
  785MOL0     C 5865   6.071   2.418  12.811  0.4686 -0.2798  0.6956
  785MOL0     C 5866   6.208   2.387  12.782  0.1094  1.1716 -0.0179
  785MOL0     C 5867   6.258   2.262  12.755 -0.6147 -0.7242 -0.0478
  785MOL0     C 5868   6.406   2.255  12.724 -0.0454  0.4831  0.0305
  785MOL0     C 5869   6.158   2.162  12.729  0.3290  0.3364 -0.0489
  785MOL0     C 5870   6.202   2.033  12.692  0.6429 -0.2351  0.7385
  785MOL0     O 5871   6.196   1.934  12.784  0.1410  0.4029 -0.1622
  785MOL0     C 5872   6.246   1.816  12.755 -0.8389 -0.5120  0.3696
  785MOL0     C 5873   6.335   1.759  12.839 -0.5678  0.1797 -0.5469
  785MOL0     C 5874   6.380   1.637  12.820  0.3117 -0.7403  0.5862
  785MOL0     C 5875   6.332   1.562  12.706 -0.3902  0.0700 -0.2015
  785MOL0     O 5876   6.382   1.438  12.689  1.2443  0.3987  0.7787
  785MOL0     C 5877   6.407   1.387  12.559  0.1641 -1.1721 -0.0385
  785MOL0     C 5878   6.404   1.245  12.568  0.1372  0.3899  1.0491
  785MOL0     C 5879   6.404   1.197  12.424  0.0535  0.4777 -0.4139
  785MOL0     C 5880   6.290   1.096  12.401  0.3122  0.1466 -0.0813
  785MOL0     C 5881   6.292   0.963  12.468 -0.6220 -0.3073 -1.0914
  785MOL0     C 5882   6.388   0.865  12.385 -0.4033 -0.1430 -0.1584
  785MOL0     C 5883   6.342   0.726  12.385 -0.4310  0.2106  0.3715
  785MOL0     C 5884   6.455   0.632  12.326  0.7303  0.1045 -0.1348
  785MOL0    Cl 5885   6.373   0.476  12.275  0.2732  0.0855  0.1246
  785MOL0     C 5886   6.244   1.626  12.608 -0.6770  0.1249  0.0181
  785MOL0     C 5887   6.205   1.763  12.631 -0.7413  0.1743  0.1986
  785MOL0     O 5888   6.260   2.028  12.581  0.4862 -0.2183  0.0769
  785MOL0     C 5889   6.020   2.180  12.747  0.7402 -0.1449 -0.7329
  785MOL0     C 5890   5.977   2.305  12.800 -0.1572 -1.0255  0.4093
  785MOL0     N 5891   6.114   3.037  12.548 -0.3073 -0.2939  0.7830
  785MOL0     N 5892   6.224   3.065  12.480 -0.3498  0.3412 -0.4395
  785MOL0     C 5893   6.118   2.566  11.650  0.3483 -0.2760  0.6352
  785MOL0     C 5894   5.994   2.510  11.628 -0.6080  0.2786 -0.3126
  785MOL0     C 5895   5.563   2.466  11.438 -0.1013 -0.3735 -0.6853
  785MOL0     C 5896   5.478   2.471  11.328  0.8601 -0.2882  0.1807
  785MOL0     C 5897   5.354   2.410  11.324  0.2849 -0.2536  0.3069
  785MOL0     C 5898   5.299   2.364  11.448  0.2823 -0.2530 -0.0317
  785MOL0     O 5899   5.165   2.323  11.442  0.3718 -0.1845  0.4500
  785MOL0     C 5900   5.093   2.308  11.565  0.1913  0.8871  0.1492
  785MOL0     C 5901   4.942   2.284  11.539  0.3438  0.3349  0.1991
  785MOL0     C 5902   4.849   2.276  11.664  0.7627  0.5608 -0.5051
  785MOL0     C 5903   4.705   2.249  11.648 -0.1001 -1.4333 -0.8780
  785MOL0     C 5904   4.641   2.267  11.785  0.7277  1.7259  0.9003
  785MOL0     C 5905   4.583   2.283  11.884 -0.5181 -0.6301  0.8733
  785MOL0     C 5906   5.381   2.371  11.568 -0.3132  0.6006 -0.3040
  785MOL0     C 5907   5.513   2.416  11.556  0.8002 -1.4056 -0.7342
  785MOL0     H 5908   5.866   2.721  11.415  1.8472 -0.5421 -0.6926
  785MOL0     H 5909   6.102   2.817  11.429 -1.2480 -0.1963 -1.1441
  785MOL0     H 5910   6.378   2.596  11.691 -1.7040 -0.0493  3.1754
  785MOL0     H 5911   6.460   2.754  11.671  0.1889 -0.2250  2.6750
  785MOL0     H 5912   6.278   2.845  11.804 -2.4810 -1.2280 -1.5855
  785MOL0     H 5913   6.256   2.678  11.871 -2.3828  1.6174 -0.4641
  785MOL0     H 5914   6.503   2.664  11.908  0.6967  0.1211 -1.4234
  785MOL0     H 5915   6.510   2.838  11.882  0.9232  0.5203  0.5411
  785MOL0     H 5916   6.385   2.904  12.055  0.4469  1.0857  0.0614
  785MOL0     H 5917   6.276   2.767  12.061  1.4573 -4.1486 -1.4352
  785MOL0     H 5918   6.452   2.623  12.149  0.6523 -0.6013  0.3886
  785MOL0     H 5919   6.572   2.751  12.146 -0.6120 -2.0845 -1.7672
  785MOL0     H 5920   6.307   2.783  12.310  0.6950  1.3217 -1.8632
  785MOL0     H 5921   6.455   2.718  12.388  0.4591  0.9092  0.4355
  785MOL0     H 5922   6.578   2.914  12.305  0.1582 -0.7632 -2.8400
  785MOL0     H 5923   6.436   3.002  12.279  2.6628  2.3571  1.7973
  785MOL0     H 5924   6.511   3.048  12.493  2.5181 -1.1098  2.8405
  785MOL0     H 5925   6.506   2.882  12.552 -0.6695 -3.3158 -1.9856
  785MOL0     H 5926   6.284   2.778  12.629  4.4576  1.4803 -2.0921
  785MOL0     H 5927   6.064   2.803  12.784 -4.5986 -2.4932  1.6664
  785MOL0     H 5928   5.917   2.886  12.721 -2.1691 -2.6635 -2.8218
  785MOL0     H 5929   6.049   2.655  12.592  2.4794  4.2058  0.2178
  785MOL0     H 5930   5.909   2.741  12.532  3.1358  1.6033 -2.6406
  785MOL0     H 5931   5.845   2.531  12.665 -1.3984  0.5620  0.5892
  785MOL0     H 5932   5.773   2.680  12.717 -1.2235 -1.8127  0.4969
  785MOL0     H 5933   5.836   2.513  12.885  1.1613 -1.0739  0.0649
  785MOL0     H 5934   5.891   2.673  12.916 -0.0135  0.2420  0.2388
  785MOL0     H 5935   6.275   2.470  12.804  0.2938  0.7558  1.0673
  785MOL0     H 5936   6.408   2.274  12.616 -0.1042 -0.0990 -0.0778
  785MOL0     H 5937   6.470   2.330  12.772  1.1357  0.5016 -1.5140
  785MOL0     H 5938   6.449   2.155  12.724  1.1115  0.9493 -1.1447
  785MOL0     H 5939   6.374   1.802  12.931  2.7222 -1.1236 -1.2098
  785MOL0     H 5940   6.444   1.580  12.887 -0.4073 -3.7888 -1.1293
  785MOL0     H 5941   6.327   1.416  12.490  2.4889 -1.3782 -3.0040
  785MOL0     H 5942   6.495   1.432  12.513  0.5338  0.0085  1.7082
  785MOL0     H 5943   6.488   1.207  12.626  0.4781  0.6216  0.7116
  785MOL0     H 5944   6.311   1.209  12.614  1.1981 -1.7669  1.6021
  785MOL0     H 5945   6.499   1.144  12.413 -1.7961 -2.7999 -1.8272
  785MOL0     H 5946   6.404   1.274  12.346  3.9199 -0.0196 -1.1106
  785MOL0     H 5947   6.205   1.140  12.454  0.0313 -0.0964 -0.3289
  785MOL0     H 5948   6.275   1.075  12.295  3.9608  0.2595 -0.7691
  785MOL0     H 5949   6.193   0.917  12.477  0.5923 -3.1250 -1.2823
  785MOL0     H 5950   6.313   0.964  12.575  1.2600 -3.8718 -1.2797
  785MOL0     H 5951   6.402   0.886  12.278  0.0231  1.5143  0.2032
  785MOL0     H 5952   6.488   0.874  12.429 -0.3900 -2.3465  0.3733
  785MOL0     H 5953   6.251   0.707  12.328 -2.0705 -0.8923  3.1739
  785MOL0     H 5954   6.315   0.688  12.484  0.3673 -0.2169  0.4308
  785MOL0     H 5955   6.526   0.623  12.409 -0.1827 -2.4643  0.4638
  785MOL0     H 5956   6.512   0.683  12.249 -1.1127  0.5742 -1.2603
  785MOL0     H 5957   6.214   1.575  12.517 -0.1137  1.7064 -1.1105
  785MOL0     H 5958   6.131   1.802  12.562  0.3535  1.1703 -0.4630
  785MOL0     H 5959   5.954   2.101  12.712  1.8224  0.5070 -4.8201
  785MOL0     H 5960   5.873   2.324  12.824 -0.0409 -0.3148  0.3750
  785MOL0     H 5961   6.182   2.534  11.732  2.0292 -1.0064 -0.9033
  785MOL0     H 5962   5.954   2.429  11.687 -2.2327 -1.0929 -3.1289
  785MOL0     H 5963   5.511   2.513  11.234 -4.2137 -0.8925 -2.2094
  785MOL0     H 5964   5.302   2.390  11.230 -1.6556 -0.4161  1.3710
  785MOL0     H 5965   5.130   2.226  11.628 -2.2217  0.9327  1.7464
  785MOL0     H 5966   5.117   2.392  11.631  0.5982  0.6645  0.2924
  785MOL0     H 5967   4.922   2.202  11.470 -1.0895 -1.6373  2.7799
  785MOL0     H 5968   4.902   2.368  11.480 -0.3698 -1.2798 -1.7342
  785MOL0     H 5969   4.869   2.364  11.725  0.6983  1.2426 -1.4502
  785MOL0     H 5970   4.885   2.201  11.736  0.5295 -0.3118 -1.2793
  785MOL0     H 5971   4.694   2.148  11.609 -1.9002 -1.8420  0.5222
  785MOL0     H 5972   4.666   2.319  11.574 -0.7059  0.9400  1.5148
  785MOL0     H 5973   4.523   2.315  11.967 -0.0267  2.2613  0.2123
  785MOL0     H 5974   5.348   2.334  11.665 -0.6453 -0.8289 -0.9349
  785MOL0     H 5975   5.566   2.421  11.650 -3.5575  0.3951  1.9488
  786MOL0     O 5976   4.579   5.259   0.346  0.0334 -0.7792 -0.4700
  786MOL0     C 5977   4.650   5.353   0.398 -0.3463 -0.0632  0.0982
  786MOL0     O 5978   4.717   5.350   0.513  0.0142 -0.4575 -0.6004
  786MOL0     C 5979   4.691   5.252   0.601  0.4337  0.4165 -0.3560
  786MOL0     C 5980   4.636   5.278   0.729  0.2764 -0.3544  0.2897
  786MOL0     C 5981   4.630   5.180   0.829  0.0635  0.6091  0.3365
  786MOL0     C 5982   4.675   5.049   0.804 -0.4171  1.4577  0.2306
  786MOL0     O 5983   4.671   4.971   0.910 -0.0553  0.2751 -0.2177
  786MOL0     C 5984   4.741   4.851   0.900  0.3025  0.9902 -0.9107
  786MOL0     C 5985   4.706   4.756   1.022 -0.2542  0.2937  0.0300
  786MOL0     C 5986   4.674   4.814   1.150  0.8266 -0.2153 -0.0575
  786MOL0     C 5987   4.799   4.879   1.206  0.0274  1.0092  0.6368
  786MOL0     C 5988   4.784   4.954   1.336  0.2406 -0.8473  0.1395
  786MOL0     C 5989   4.720   4.863   1.439  0.4983  0.6425  1.3263
  786MOL0     C 5990   4.733   4.911   1.582 -0.9581 -0.3869 -0.2957
  786MOL0     C 5991   4.673   5.054   1.612 -0.8405 -0.8787 -0.3607
  786MOL0     N 5992   4.538   5.050   1.582 -0.5470 -0.1700 -0.5312
  786MOL0     C 5993   4.477   5.118   1.478 -0.7596 -0.3444 -1.8529
  786MOL0     C 5994   4.340   5.105   1.497 -0.0600  0.0192  0.0797
  786MOL0     C 5995   4.222   5.129   1.406 -0.1615  0.5419 -0.3190
  786MOL0     C 5996   4.204   5.010   1.305  0.2973  0.1229 -0.3067
  786MOL0     C 5997   4.316   4.988   1.203  0.8007 -1.0046  0.5142
  786MOL0     C 5998   4.291   4.871   1.098 -0.8843 -0.4504  0.2144
  786MOL0     O 5999   4.164   4.871   1.039  1.1929 -0.2120  0.3040
  786MOL0     C 6000   4.151   4.936   0.921 -0.4063 -0.2844  0.4397
  786MOL0     C 6001   4.240   4.918   0.813  0.0992 -0.3714  0.9402
  786MOL0     C 6002   4.230   4.983   0.693  0.0212  0.4277  0.3481
  786MOL0     C 6003   4.337   4.948   0.592 -0.3241  0.3307 -0.1958
  786MOL0     C 6004   4.122   5.073   0.672 -0.6844  0.1999 -0.2072
  786MOL0     C 6005   4.107   5.163   0.554  0.2541 -0.5925  0.2271
  786MOL0     O 6006   4.169   5.131   0.441  0.3017  0.0185 -0.6718
  786MOL0     C 6007   4.176   5.228   0.344 -0.0927 -0.0416 -0.3143
  786MOL0     C 6008   4.157   5.187   0.211 -0.7320  0.0170  0.1760
  786MOL0     C 6009   4.168   5.273   0.107  0.6501 -0.2485  0.0335
  786MOL0     C 6010   4.200   5.407   0.128 -0.3719  0.5644 -0.5998
  786MOL0     O 6011   4.220   5.493   0.031 -1.2222  0.2704 -0.4100
  786MOL0     C 6012   4.110   5.554  -0.033 -1.2697 -0.2212 -0.3626
  786MOL0     C 6013   4.153   5.689  -0.093 -0.1669 -1.1063 -0.1261
  786MOL0     C 6014   4.226   5.780   0.013 -0.2475  0.4168  0.7996
  786MOL0     C 6015   4.369   5.801  -0.021  0.9666  0.3555  0.0684
  786MOL0     C 6016   4.424   5.928   0.051 -0.6938  0.2110 -0.3001
  786MOL0     C 6017   4.442   5.908   0.201 -0.3378  0.5695 -0.0093
  786MOL0     C 6018   4.530   6.016   0.272 -0.4537 -0.2027  0.3419
  786MOL0     C 6019   4.513   5.987   0.425 -1.1926 -0.2300 -0.4272
  786MOL0    Cl 6020   4.356   6.027   0.497  0.2324 -0.3312 -0.3283
  786MOL0     C 6021   4.234   5.441   0.263  0.1586 -0.4567  0.3190
  786MOL0     C 6022   4.209   5.364   0.371  0.1147  1.1092 -0.1939
  786MOL0     O 6023   4.043   5.268   0.578  0.1645 -0.6894 -1.0111
  786MOL0     C 6024   4.019   5.086   0.776 -0.8451 -0.3304  0.2851
  786MOL0     C 6025   4.029   5.019   0.902  0.8183  0.1029  0.3664
  786MOL0     N 6026   4.336   5.024   1.612  0.1150 -0.0072 -0.1248
  786MOL0     N 6027   4.449   4.994   1.663  0.0949  0.1676  0.0717
  786MOL0     C 6028   4.723   5.018   0.672 -0.0136  0.6816  0.1063
  786MOL0     C 6029   4.732   5.126   0.581 -0.3857  0.5607  0.5676
  786MOL0     C 6030   4.687   5.467   0.316 -0.9570 -0.5064  0.1360
  786MOL0     C 6031   4.768   5.574   0.371 -0.2866  0.9188 -0.9000
  786MOL0     C 6032   4.819   5.668   0.290 -0.0092  0.2931 -1.0032
  786MOL0     C 6033   4.791   5.673   0.155  1.3231 -1.4563  0.0736
  786MOL0     O 6034   4.833   5.787   0.090 -0.5588  0.2641 -0.4343
  786MOL0     C 6035   4.820   5.791  -0.053  0.9629  0.1296  0.3116
  786MOL0     C 6036   4.832   5.931  -0.099 -0.0615  0.0456  0.0659
  786MOL0     C 6037   4.972   5.998  -0.047  0.5815 -0.7522  0.5837
  786MOL0     C 6038   5.085   5.926  -0.112  0.8191  0.0174  0.3895
  786MOL0     C 6039   5.084   5.928  -0.256 -0.7377  0.5725 -0.7820
  786MOL0     C 6040   5.080   5.922  -0.377  0.8644 -0.5613  0.1520
  786MOL0     C 6041   4.704   5.572   0.101  0.3086 -0.5721 -0.2844
  786MOL0     C 6042   4.658   5.466   0.183 -0.4879  0.2059  0.1244
  786MOL0     H 6043   4.627   5.383   0.756 -0.6310 -0.2612 -0.3506
  786MOL0     H 6044   4.598   5.196   0.931 -1.3360  1.8735 -0.2737
  786MOL0     H 6045   4.696   4.792   0.819  0.3143 -0.2549 -0.0314
  786MOL0     H 6046   4.847   4.876   0.896  0.1062  2.4406  1.3066
  786MOL0     H 6047   4.617   4.702   0.988  1.3961 -1.4806 -1.7547
  786MOL0     H 6048   4.785   4.681   1.029  0.8828  1.2400 -1.9121
  786MOL0     H 6049   4.590   4.885   1.143 -2.2442 -3.7290 -3.1974
  786MOL0     H 6050   4.628   4.743   1.219 -3.4293  1.1146 -1.2013
  786MOL0     H 6051   4.875   4.802   1.221  1.0224  1.2410 -2.4447
  786MOL0     H 6052   4.837   4.948   1.130  0.9249  2.1220  2.0514
  786MOL0     H 6053   4.881   4.988   1.373  1.1790 -0.5488 -2.3980
  786MOL0     H 6054   4.723   5.043   1.319 -1.8036 -1.5594  3.0371
  786MOL0     H 6055   4.613   4.858   1.417  0.3856  2.0741  1.4410
  786MOL0     H 6056   4.759   4.764   1.412 -0.8601  0.9466 -2.3618
  786MOL0     H 6057   4.691   4.833   1.646  2.0818 -4.4336 -2.7104
  786MOL0     H 6058   4.838   4.904   1.613 -1.2070 -1.0025  0.4456
  786MOL0     H 6059   4.714   5.138   1.556 -0.1273  1.3313  3.1865
  786MOL0     H 6060   4.700   5.069   1.717 -2.8938 -1.1065  0.2449
  786MOL0     H 6061   4.536   5.167   1.401 -0.4580  2.0616 -0.2204
  786MOL0     H 6062   4.126   5.146   1.455  1.4776  0.2990  3.4140
  786MOL0     H 6063   4.238   5.225   1.357 -0.1640  0.2895 -0.8191
  786MOL0     H 6064   4.108   5.010   1.254  1.5125 -0.1777 -2.7571
  786MOL0     H 6065   4.195   4.921   1.369 -0.2976  1.0156  0.8952
  786MOL0     H 6066   4.407   4.961   1.258  2.0494 -1.7799 -1.7621
  786MOL0     H 6067   4.321   5.078   1.140  0.0318 -1.5371 -0.3342
  786MOL0     H 6068   4.312   4.778   1.151  1.0306  1.2091  2.5818
  786MOL0     H 6069   4.373   4.878   1.026 -1.0357  2.2065  0.2007
  786MOL0     H 6070   4.326   4.855   0.834 -0.0776 -0.1292  2.5700
  786MOL0     H 6071   4.284   4.899   0.510  1.5054 -4.8744  1.3576
  786MOL0     H 6072   4.410   5.028   0.578  2.3949 -1.1594  3.7709
  786MOL0     H 6073   4.402   4.870   0.632  1.4067  2.1911  0.8060
  786MOL0     H 6074   4.124   5.086   0.190  2.9276 -0.8249 -2.7123
  786MOL0     H 6075   4.152   5.242   0.004  1.2332 -0.2697 -0.0569
  786MOL0     H 6076   4.076   5.485  -0.111 -0.9820 -1.6697  0.7468
  786MOL0     H 6077   4.037   5.572   0.047 -3.1746  0.7990 -2.2210
  786MOL0     H 6078   4.218   5.671  -0.179  0.1122 -0.7825  0.0123
  786MOL0     H 6079   4.064   5.743  -0.125  0.1251 -0.0092  0.8070
  786MOL0     H 6080   4.225   5.727   0.108  1.5127  0.1318  0.6923
  786MOL0     H 6081   4.174   5.875   0.022 -0.1494  0.5775 -0.1756
  786MOL0     H 6082   4.430   5.713   0.001  0.8308 -0.3865 -2.2708
  786MOL0     H 6083   4.370   5.831  -0.126 -1.4395 -0.4779 -0.2538
  786MOL0     H 6084   4.360   6.014   0.036 -1.7329 -0.3470  0.7532
  786MOL0     H 6085   4.528   5.950   0.025 -0.8152  0.7312 -0.3395
  786MOL0     H 6086   4.343   5.902   0.248  0.5304  0.7121  1.8968
  786MOL0     H 6087   4.485   5.809   0.218 -1.1498  0.1203 -0.4699
  786MOL0     H 6088   4.510   6.117   0.237  3.0593 -0.4559 -3.0681
  786MOL0     H 6089   4.637   6.008   0.250 -0.2661 -0.3470  1.2651
  786MOL0     H 6090   4.582   6.053   0.479 -0.4027 -1.3312 -0.0421
  786MOL0     H 6091   4.543   5.883   0.440  0.5513 -0.0359 -2.1332
  786MOL0     H 6092   4.266   5.545   0.267 -0.3022 -0.2039 -1.3610
  786MOL0     H 6093   4.222   5.397   0.473 -1.8598 -0.4319  0.6318
  786MOL0     H 6094   3.933   5.150   0.761 -1.0290 -0.8333 -0.8471
  786MOL0     H 6095   3.954   5.017   0.981  0.6566 -0.9592  0.1998
  786MOL0     H 6096   4.766   4.920   0.653 -1.9869 -0.4817  1.3669
  786MOL0     H 6097   4.773   5.102   0.483 -1.3949  3.6530 -0.7522
  786MOL0     H 6098   4.787   5.578   0.478 -3.6270 -1.3796 -0.0620
  786MOL0     H 6099   4.872   5.751   0.336 -1.2591  0.5917 -0.0665
  786MOL0     H 6100   4.889   5.723  -0.103 -0.2611 -1.6662  0.9497
  786MOL0     H 6101   4.720   5.757  -0.084  0.0624  3.5573 -1.0914
  786MOL0     H 6102   4.743   5.980  -0.058  0.8683  4.1849 -2.2915
  786MOL0     H 6103   4.820   5.934  -0.208 -1.2145 -0.9211  0.1354
  786MOL0     H 6104   4.977   5.986   0.061 -1.6628 -0.7085  0.7370
  786MOL0     H 6105   4.967   6.104  -0.073  1.8525 -0.5542  1.0734
  786MOL0     H 6106   5.093   5.822  -0.080  1.8929  0.7133  2.6181
  786MOL0     H 6107   5.178   5.971  -0.075  0.6500 -0.2908  1.2042
  786MOL0     H 6108   5.095   5.912  -0.483 -0.4787  1.4839 -0.2944
  786MOL0     H 6109   4.662   5.575   0.001 -1.6901  0.3349  0.5289
  786MOL0     H 6110   4.596   5.389   0.139 -0.1883 -0.7007  1.2120
  787MOL0     O 6111   3.117   9.872   7.856  0.0824  0.8442  0.2258
  787MOL0     C 6112   2.998   9.866   7.829 -0.6688  0.1927 -0.2963
  787MOL0     O 6113   2.945   9.831   7.714 -0.3636 -0.0859  0.5681
  787MOL0     C 6114   3.026   9.784   7.611  1.5162 -0.2241 -0.5008
  787MOL0     C 6115   3.030   9.857   7.486  0.0330  0.7234 -0.0009
  787MOL0     C 6116   3.095   9.808   7.368 -0.1368  0.2612 -0.9034
  787MOL0     C 6117   3.143   9.679   7.379 -0.3052 -0.1642 -0.2180
  787MOL0     O 6118   3.221   9.612   7.288  0.8176  0.7594  0.5297
  787MOL0     C 6119   3.259   9.671   7.155  0.5930 -0.0801 -0.5577
  787MOL0     C 6120   3.386   9.610   7.110 -0.0819  0.8875  0.0119
  787MOL0     C 6121   3.458   9.671   6.989  1.0823  0.3610  0.5261
  787MOL0     C 6122   3.605   9.626   6.986  0.4203  0.2261 -0.7651
  787MOL0     C 6123   3.661   9.646   6.837  0.0590  0.6782 -0.4650
  787MOL0     C 6124   3.811   9.622   6.841  0.1840  0.0965 -0.0059
  787MOL0     C 6125   3.871   9.622   6.698  0.7039  0.5176 -0.2331
  787MOL0     C 6126   4.004   9.538   6.673  0.3892  0.0396  0.2375
  787MOL0     N 6127   4.092   9.573   6.548  1.2337  0.2496 -0.4134
  787MOL0     C 6128   4.188   9.671   6.543  0.9853  0.1722 -0.2842
  787MOL0     C 6129   4.237   9.655   6.416  0.8303 -0.1712 -0.3687
  787MOL0     C 6130   4.351   9.723   6.359 -0.4689 -0.6178 -0.4609
  787MOL0     C 6131   4.306   9.842   6.282 -0.5353  0.7953 -0.5089
  787MOL0     C 6132   4.429   9.925   6.224  0.7316  0.8000  1.3265
  787MOL0     C 6133   4.379  10.054   6.154  0.3822  0.2879 -0.6764
  787MOL0     O 6134   4.499  10.105   6.097 -0.6316 -0.9247 -0.2072
  787MOL0     C 6135   4.503  10.226   6.041 -0.3084  0.2684  0.6908
  787MOL0     C 6136   4.629  10.277   6.014 -1.0890 -0.1489 -0.1332
  787MOL0     C 6137   4.644  10.403   5.949  1.0479  0.1106  0.8315
  787MOL0     C 6138   4.781  10.449   5.908  0.5100  0.1332  0.1856
  787MOL0     C 6139   4.517  10.474   5.921 -0.5071 -0.1646  0.0573
  787MOL0     C 6140   4.537  10.599   5.850 -0.1056 -0.0406  0.0373
  787MOL0     O 6141   4.490  10.612   5.718 -0.2138 -0.5529 -0.3738
  787MOL0     C 6142   4.516  10.723   5.644  0.5224 -0.0094 -0.3338
  787MOL0     C 6143   4.641  10.746   5.586 -0.5499 -0.2611  0.2904
  787MOL0     C 6144   4.660  10.860   5.511  0.6007  0.3131  0.5582
  787MOL0     C 6145   4.559  10.949   5.484 -0.0751  0.3636  0.4881
  787MOL0     O 6146   4.600  11.054   5.405 -0.7305  0.1476  0.0090
  787MOL0     C 6147   4.490  11.149   5.367 -0.5502 -0.7534 -0.8156
  787MOL0     C 6148   4.558  11.263   5.314  0.1808  0.6907  0.2610
  787MOL0     C 6149   4.469  11.384   5.272 -0.0938 -0.1322 -0.2934
  787MOL0     C 6150   4.391  11.355   5.146 -0.0434  0.3103  0.6404
  787MOL0     C 6151   4.274  11.453   5.125 -0.2568 -1.6522 -0.2827
  787MOL0     C 6152   4.170  11.454   5.237 -0.4882  0.8006  0.2869
  787MOL0     C 6153   4.041  11.515   5.180  0.1706 -1.0699 -0.1516
  787MOL0     C 6154   3.942  11.506   5.293 -0.4460 -0.9285  0.0690
  787MOL0    Cl 6155   3.868  11.351   5.313  0.1200  0.1824  0.5902
  787MOL0     C 6156   4.432  10.936   5.544 -0.6262 -0.0353 -0.7621
  787MOL0     C 6157   4.410  10.813   5.622  0.5680 -0.1948 -0.3476
  787MOL0     O 6158   4.588  10.693   5.915  0.4028  0.4657 -0.3109
  787MOL0     C 6159   4.394  10.420   5.950  0.6464 -0.1633  0.6189
  787MOL0     C 6160   4.389  10.295   6.006 -0.8497  0.2536 -0.8048
  787MOL0     N 6161   4.184   9.543   6.358  0.5496 -0.4317 -0.1073
  787MOL0     N 6162   4.091   9.496   6.433 -0.1132 -0.6999 -0.2516
  787MOL0     C 6163   3.129   9.602   7.504 -0.4901 -0.3423  0.6660
  787MOL0     C 6164   3.081   9.658   7.622  0.0656  0.3796  0.4011
  787MOL0     C 6165   2.899   9.907   7.936 -0.0859  0.4156  0.6185
  787MOL0     C 6166   2.944   9.907   8.067  0.0631 -0.4426  0.7202
  787MOL0     C 6167   2.852   9.944   8.174 -0.8187  0.3754  0.0689
  787MOL0     C 6168   2.729   9.974   8.144  0.4897  0.5791 -0.8377
  787MOL0     O 6169   2.647  10.002   8.252  0.1338  0.0049 -0.3098
  787MOL0     C 6170   2.697  10.104   8.341  0.5505 -0.0382  0.9050
  787MOL0     C 6171   2.596  10.222   8.359 -0.7025 -0.2021  0.6434
  787MOL0     C 6172   2.647  10.330   8.460  0.8935 -0.0112  0.4445
  787MOL0     C 6173   2.770  10.416   8.422  1.0798 -0.2469 -0.3429
  787MOL0     C 6174   2.740  10.487   8.297  1.0706 -0.3944  0.3195
  787MOL0     C 6175   2.710  10.539   8.191  0.5148 -0.1345  0.3831
  787MOL0     C 6176   2.686   9.967   8.010  1.1618 -0.1406 -0.8400
  787MOL0     C 6177   2.769   9.923   7.911 -0.4028 -0.3541  0.0020
  787MOL0     H 6178   3.002   9.962   7.477 -1.2591  0.2431 -2.6424
  787MOL0     H 6179   3.130   9.858   7.278 -0.8695 -0.2252 -1.4749
  787MOL0     H 6180   3.182   9.643   7.082 -2.0572  0.6668  1.7818
  787MOL0     H 6181   3.263   9.780   7.161 -0.7467 -0.1075  2.2945
  787MOL0     H 6182   3.445   9.616   7.202 -1.6214 -0.7955  1.1765
  787MOL0     H 6183   3.360   9.507   7.087  1.6169 -0.1653  2.3996
  787MOL0     H 6184   3.403   9.629   6.904 -1.0667 -1.4275  2.6395
  787MOL0     H 6185   3.433   9.777   6.977  0.3955  0.1333 -0.1017
  787MOL0     H 6186   3.671   9.684   7.051  1.3522  0.7745 -2.1564
  787MOL0     H 6187   3.614   9.518   6.998  4.5350  0.6308  1.1233
  787MOL0     H 6188   3.629   9.558   6.781  0.9925 -1.1315  1.6878
  787MOL0     H 6189   3.646   9.748   6.800 -0.8128  0.6979 -0.0804
  787MOL0     H 6190   3.866   9.694   6.902 -3.1401  0.5286  2.8115
  787MOL0     H 6191   3.837   9.522   6.878  1.8374 -0.2785 -1.9789
  787MOL0     H 6192   3.799   9.587   6.623  1.0795 -5.3851  1.6360
  787MOL0     H 6193   3.904   9.725   6.680  0.6188  0.8619  1.4839
  787MOL0     H 6194   3.978   9.433   6.662 -0.3948  0.2471  0.0768
  787MOL0     H 6195   4.070   9.555   6.759 -1.7934  1.7792  1.7039
  787MOL0     H 6196   4.202   9.749   6.617  0.9404  1.6758 -1.8088
  787MOL0     H 6197   4.417   9.761   6.437 -0.0167  0.4890 -1.3583
  787MOL0     H 6198   4.406   9.649   6.300  1.7973  2.2816 -2.2710
  787MOL0     H 6199   4.243   9.895   6.355  0.5082  2.0611 -0.4842
  787MOL0     H 6200   4.231   9.809   6.209  0.2303 -0.7383 -0.6379
  787MOL0     H 6201   4.478   9.863   6.148 -1.6989 -1.0559  1.1347
  787MOL0     H 6202   4.501   9.944   6.304 -0.6876  0.6944  2.6810
  787MOL0     H 6203   4.327  10.123   6.221  1.9399 -2.3370  3.7267
  787MOL0     H 6204   4.320  10.016   6.070  3.2317  0.7823 -3.0636
  787MOL0     H 6205   4.714  10.217   6.044 -1.9361 -0.9256  0.7818
  787MOL0     H 6206   4.869  10.384   5.909  0.2821 -0.2273 -1.3016
  787MOL0     H 6207   4.772  10.497   5.810 -2.3806  2.3823  1.3969
  787MOL0     H 6208   4.810  10.532   5.972  1.3843  0.2224 -0.3143
  787MOL0     H 6209   4.724  10.677   5.591 -1.0895 -0.8293  1.7845
  787MOL0     H 6210   4.755  10.875   5.462 -0.5969 -0.9355 -2.4035
  787MOL0     H 6211   4.433  11.102   5.287 -0.7564  1.5700 -2.1357
  787MOL0     H 6212   4.438  11.190   5.454  2.3365  2.7241 -0.4478
  787MOL0     H 6213   4.608  11.297   5.405 -1.6285 -0.1028  1.6194
  787MOL0     H 6214   4.628  11.235   5.234 -0.1900  1.4515 -0.3415
  787MOL0     H 6215   4.532  11.471   5.249 -1.9601  1.4146  0.2482
  787MOL0     H 6216   4.411  11.419   5.358 -0.6221 -1.1659 -0.2139
  787MOL0     H 6217   4.469  11.351   5.069 -0.9849 -2.4654 -0.2961
  787MOL0     H 6218   4.356  11.251   5.151 -0.0866  0.3909  2.9706
  787MOL0     H 6219   4.231  11.426   5.028 -0.5558 -0.4954 -0.4934
  787MOL0     H 6220   4.307  11.555   5.103 -2.7015 -0.8221 -0.3057
  787MOL0     H 6221   4.158  11.352   5.275  1.9902 -0.2770 -1.5791
  787MOL0     H 6222   4.192  11.535   5.307  1.8409  3.4963 -3.1706
  787MOL0     H 6223   3.988  11.454   5.106 -1.1175 -2.2289  1.6275
  787MOL0     H 6224   4.060  11.618   5.151  0.2353 -0.2513  2.5350
  787MOL0     H 6225   3.858  11.569   5.261 -1.4279 -2.8453 -1.4038
  787MOL0     H 6226   3.971  11.544   5.391 -1.3619  1.0952 -0.3930
  787MOL0     H 6227   4.356  11.013   5.540  2.0106  2.7927 -0.4237
  787MOL0     H 6228   4.314  10.795   5.668  0.7152 -1.2575 -0.4189
  787MOL0     H 6229   4.299  10.457   5.914  0.3568 -0.6165  0.9047
  787MOL0     H 6230   4.293  10.247   6.019  0.5196 -3.0653 -1.7768
  787MOL0     H 6231   3.184   9.509   7.509  0.2258  0.1344  1.8556
  787MOL0     H 6232   3.109   9.612   7.716  0.2481  0.1767  0.2499
  787MOL0     H 6233   3.043   9.874   8.097  1.0648  0.6421 -1.2265
  787MOL0     H 6234   2.888   9.939   8.276 -0.7286  0.1128  0.0266
  787MOL0     H 6235   2.708  10.056   8.438  1.7989  1.5486  1.5906
  787MOL0     H 6236   2.793  10.142   8.307 -0.0535  1.0514  0.3382
  787MOL0     H 6237   2.499  10.182   8.390 -1.1431 -0.7199 -1.2427
  787MOL0     H 6238   2.595  10.268   8.259  1.2772  0.5882  0.9450
  787MOL0     H 6239   2.659  10.296   8.563 -3.9409 -0.9965  0.9158
  787MOL0     H 6240   2.565  10.399   8.484 -0.5505 -2.0108  1.5930
  787MOL0     H 6241   2.857  10.350   8.415  1.7413  0.5017  0.5413
  787MOL0     H 6242   2.793  10.481   8.506  0.9409  1.9794 -1.9252
  787MOL0     H 6243   2.679  10.568   8.092 -3.8990 -1.3138  1.2196
  787MOL0     H 6244   2.581   9.980   7.986  0.6719 -1.8667  0.2349
  787MOL0     H 6245   2.722   9.941   7.815 -0.8992  2.2402  0.6469
  788MOL0     O 6246   2.657  11.503   9.357  0.5734 -0.3747 -0.9236
  788MOL0     C 6247   2.633  11.510   9.484 -0.0089 -0.4641 -0.0438
  788MOL0     O 6248   2.532  11.577   9.547  0.0435 -0.5651 -0.8138
  788MOL0     C 6249   2.447  11.669   9.491  0.1810  0.5872  0.5257
  788MOL0     C 6250   2.336  11.616   9.427  0.1620  0.0629  0.7170
  788MOL0     C 6251   2.242  11.689   9.355  0.0886  0.7700 -1.2752
  788MOL0     C 6252   2.262  11.828   9.339 -0.2929 -0.1835 -0.1778
  788MOL0     O 6253   2.184  11.909   9.260 -0.3206 -0.0417  0.4013
  788MOL0     C 6254   2.039  11.905   9.291 -0.0160 -0.1530 -0.2673
  788MOL0     C 6255   1.971  12.008   9.192 -0.7333  0.1210 -0.2539
  788MOL0     C 6256   2.022  12.149   9.175  0.2862 -0.6419  0.1941
  788MOL0     C 6257   2.077  12.236   9.297 -0.2875  0.0578  0.2762
  788MOL0     C 6258   1.975  12.275   9.414 -0.2427  0.6798  0.4668
  788MOL0     C 6259   2.059  12.359   9.508 -0.9947  0.3687 -0.5213
  788MOL0     C 6260   2.179  12.283   9.589 -0.2014 -0.3094 -0.3934
  788MOL0     C 6261   2.112  12.186   9.685  0.1530 -0.2222 -0.0033
  788MOL0     N 6262   2.206  12.097   9.750  0.3900 -0.1896  0.5996
  788MOL0     C 6263   2.213  12.075   9.891 -0.1642 -0.9001 -0.1518
  788MOL0     C 6264   2.323  11.995   9.892 -0.2522 -0.6354 -0.1658
  788MOL0     C 6265   2.379  11.955  10.025 -0.3189  0.3287 -0.3471
  788MOL0     C 6266   2.347  11.801  10.064  0.3300 -0.8606 -0.3331
  788MOL0     C 6267   2.399  11.702   9.967  0.3137 -0.6086 -1.0348
  788MOL0     C 6268   2.539  11.713   9.919 -0.7374  0.4172 -0.2762
  788MOL0     O 6269   2.631  11.688  10.020  0.4271 -0.4485 -0.5186
  788MOL0     C 6270   2.759  11.656   9.982 -0.4767  0.7296  0.8543
  788MOL0     C 6271   2.813  11.686   9.858  0.7771 -0.0439  1.4560
  788MOL0     C 6272   2.944  11.654   9.818  0.5177  0.1281  0.5036
  788MOL0     C 6273   2.984  11.674   9.674 -0.3713  0.2003  0.6255
  788MOL0     C 6274   3.033  11.592   9.917  0.3634 -0.6638 -0.1288
  788MOL0     C 6275   3.178  11.557   9.903 -0.9015 -1.2571 -0.1969
  788MOL0     O 6276   3.235  11.471   9.997  0.4415 -0.1610 -0.0074
  788MOL0     C 6277   3.374  11.447   9.980 -0.3442  0.4148 -1.0545
  788MOL0     C 6278   3.456  11.532  10.054 -0.5440  0.3584 -0.1217
  788MOL0     C 6279   3.590  11.508  10.055 -0.2705  0.3379  0.2685
  788MOL0     C 6280   3.650  11.399   9.988  0.1261  0.0478  0.0074
  788MOL0     O 6281   3.784  11.382  10.008 -0.2171 -0.8514  0.7574
  788MOL0     C 6282   3.881  11.440   9.917  0.3467 -0.5952 -0.0718
  788MOL0     C 6283   3.980  11.346   9.872 -0.5048 -0.7993  0.4216
  788MOL0     C 6284   4.116  11.349   9.958  0.6588 -1.1872  0.9983
  788MOL0     C 6285   4.203  11.230   9.908 -0.1019 -0.6532  0.6059
  788MOL0     C 6286   4.347  11.254   9.870  1.1544 -0.5477 -0.2429
  788MOL0     C 6287   4.384  11.377   9.796  0.3526 -0.3424  0.2288
  788MOL0     C 6288   4.524  11.386   9.752 -0.2364 -0.0925  0.0955
  788MOL0     C 6289   4.566  11.521   9.689 -0.0317  1.0931 -0.3683
  788MOL0    Cl 6290   4.723  11.507   9.602  0.3304 -0.0546  0.3523
  788MOL0     C 6291   3.573  11.319   9.915  0.1586  0.6417  0.4141
  788MOL0     C 6292   3.431  11.339   9.911 -0.2451 -0.0136 -0.4516
  788MOL0     O 6293   3.236  11.622   9.819 -0.5653  0.3869 -1.0184
  788MOL0     C 6294   2.977  11.560  10.040  0.1004 -0.7749 -0.0965
  788MOL0     C 6295   2.840  11.593  10.075  1.4845 -0.5832  0.2640
  788MOL0     N 6296   2.359  11.957   9.765  0.3029 -1.1981 -0.7919
  788MOL0     N 6297   2.285  12.018   9.675  0.6442  1.4998  1.0869
  788MOL0     C 6298   2.381  11.884   9.389 -0.2565  0.2455 -0.4037
  788MOL0     C 6299   2.470  11.802   9.466  0.9012 -0.7288  0.0062
  788MOL0     C 6300   2.719  11.429   9.576 -0.6423  0.2256  0.1984
  788MOL0     C 6301   2.677  11.399   9.703  0.1335 -0.0882  0.0109
  788MOL0     C 6302   2.762  11.339   9.803  1.0286 -0.3001  0.1725
  788MOL0     C 6303   2.879  11.289   9.766 -1.1490 -0.8528  0.1604
  788MOL0     O 6304   2.966  11.236   9.856  0.9807 -0.4841 -0.3632
  788MOL0     C 6305   2.979  11.092   9.846  0.2995  0.7126 -0.2913
  788MOL0     C 6306   2.955  11.013   9.966 -0.6594 -1.3063  0.7390
  788MOL0     C 6307   2.808  11.024   9.999  0.3755  0.1048 -0.6044
  788MOL0     C 6308   2.768  10.899  10.091  0.0229 -0.4095 -0.4949
  788MOL0     C 6309   2.826  10.915  10.228  0.2252  0.4531 -0.3766
  788MOL0     C 6310   2.882  10.918  10.329 -0.1722 -0.1867  0.2092
  788MOL0     C 6311   2.923  11.311   9.633  0.4216  0.6235  0.3620
  788MOL0     C 6312   2.842  11.384   9.541 -0.4103 -0.2220 -0.0948
  788MOL0     H 6313   2.321  11.509   9.438  0.5928 -0.1572 -0.6018
  788MOL0     H 6314   2.159  11.632   9.314  1.0895 -0.0170 -2.2709
  788MOL0     H 6315   2.004  11.803   9.271 -0.9808 -0.0422  0.7737
  788MOL0     H 6316   2.013  11.932   9.393  0.2749  1.7577 -0.6624
  788MOL0     H 6317   1.977  11.954   9.097 -0.4294 -0.1124 -0.1013
  788MOL0     H 6318   1.867  12.008   9.224 -0.5416 -1.8938  0.5054
  788MOL0     H 6319   2.103  12.119   9.108 -1.8977 -3.0175 -1.6112
  788MOL0     H 6320   1.943  12.209   9.130  0.3376  0.3564  1.3809
  788MOL0     H 6321   2.169  12.182   9.319 -0.6892 -1.8683 -2.3719
  788MOL0     H 6322   2.113  12.327   9.248 -1.4002 -0.2612 -1.1851
  788MOL0     H 6323   1.907  12.340   9.359  2.1941 -0.2353 -4.1689
  788MOL0     H 6324   1.919  12.191   9.455  0.7707  0.5168  1.5858
  788MOL0     H 6325   2.113  12.434   9.450  0.2613 -0.8015 -0.9296
  788MOL0     H 6326   1.991  12.403   9.581  0.1880  1.0846  0.1833
  788MOL0     H 6327   2.251  12.222   9.534 -1.2348 -1.8406 -0.1300
  788MOL0     H 6328   2.236  12.354   9.648  0.5943 -0.8534 -0.4950
  788MOL0     H 6329   2.034  12.121   9.644  0.1018  0.1141 -0.4393
  788MOL0     H 6330   2.057  12.249   9.755  1.4233  3.9835 -2.4142
  788MOL0     H 6331   2.152  12.118   9.969  2.3730  0.3702  1.2751
  788MOL0     H 6332   2.484  11.971  10.001  1.1530 -1.4403  3.9578
  788MOL0     H 6333   2.353  12.021  10.108 -0.7503  0.6790 -0.7567
  788MOL0     H 6334   2.240  11.788  10.083  0.3255 -0.1245  0.1834
  788MOL0     H 6335   2.410  11.787  10.152  0.8137  0.4633 -0.4406
  788MOL0     H 6336   2.335  11.706   9.878 -0.7211  2.5300 -0.2864
  788MOL0     H 6337   2.375  11.604  10.009 -1.0858  1.1830  2.8181
  788MOL0     H 6338   2.559  11.803   9.860  1.6278 -0.4739 -0.9307
  788MOL0     H 6339   2.558  11.639   9.842 -1.1337  0.1197 -0.0909
  788MOL0     H 6340   2.764  11.758   9.793  1.3870 -1.8098 -1.0766
  788MOL0     H 6341   3.017  11.580   9.629  1.8351 -0.2599  3.0050
  788MOL0     H 6342   2.896  11.701   9.615 -0.0590  2.3500  1.0716
  788MOL0     H 6343   3.065  11.745   9.656 -0.5588 -0.4644 -4.0770
  788MOL0     H 6344   3.413  11.612  10.114  0.1894 -0.9653  2.3103
  788MOL0     H 6345   3.657  11.574  10.109  3.9929 -1.4305 -2.3536
  788MOL0     H 6346   3.839  11.507   9.841  0.7107  2.5590  2.2666
  788MOL0     H 6347   3.945  11.517   9.961 -1.9007  0.7745  1.0289
  788MOL0     H 6348   3.917  11.257   9.882 -3.0170  1.1114  3.7143
  788MOL0     H 6349   3.995  11.364   9.765  0.6101 -2.2912  0.2837
  788MOL0     H 6350   4.118  11.357  10.067  0.7156 -3.0965  1.1638
  788MOL0     H 6351   4.159  11.443   9.923 -0.3437 -0.4785  1.6273
  788MOL0     H 6352   4.184  11.152   9.982 -0.7157 -0.5151  0.5953
  788MOL0     H 6353   4.151  11.187   9.822  2.0397 -3.8801  0.7161
  788MOL0     H 6354   4.384  11.165   9.818 -0.7014 -2.2743  1.2294
  788MOL0     H 6355   4.406  11.256   9.962 -1.1668 -0.1578  1.3209
  788MOL0     H 6356   4.321  11.379   9.707  1.2873 -3.9291 -0.7000
  788MOL0     H 6357   4.361  11.467   9.854 -1.6895 -0.7712  0.1565
  788MOL0     H 6358   4.557  11.318   9.672  1.8016  2.1461 -1.0944
  788MOL0     H 6359   4.582  11.386   9.844 -1.8703 -1.3704  1.1739
  788MOL0     H 6360   4.578  11.597   9.767 -0.4973  1.5758 -0.7648
  788MOL0     H 6361   4.493  11.559   9.618  1.8234 -0.7562 -3.5143
  788MOL0     H 6362   3.631  11.244   9.862 -0.1329 -0.1498  1.1971
  788MOL0     H 6363   3.352  11.283   9.861 -1.6184  2.1787 -0.8745
  788MOL0     H 6364   3.051  11.521  10.110  1.5086  1.2390 -0.4055
  788MOL0     H 6365   2.791  11.567  10.168 -1.4410 -1.7052 -1.4682
  788MOL0     H 6366   2.400  11.990   9.393 -1.3102  0.4195  2.7432
  788MOL0     H 6367   2.564  11.834   9.508  0.5319 -2.2611  2.1721
  788MOL0     H 6368   2.574  11.423   9.727 -0.7670 -1.2694 -2.4401
  788MOL0     H 6369   2.732  11.315   9.904 -0.9165 -0.9701 -0.5199
  788MOL0     H 6370   2.918  11.047   9.767 -1.2430 -2.3063  2.3637
  788MOL0     H 6371   3.080  11.074   9.809  0.4235 -1.0102  0.7298
  788MOL0     H 6372   3.004  11.054  10.054 -1.3531  0.9228  0.1434
  788MOL0     H 6373   2.994  10.911   9.965 -1.3277 -1.6671 -2.9034
  788MOL0     H 6374   2.744  11.021   9.911  0.2754  1.2022 -0.5815
  788MOL0     H 6375   2.787  11.120  10.046  2.5952  1.5411 -2.3146
  788MOL0     H 6376   2.814  10.808  10.051  1.7458 -0.5131  1.5740
  788MOL0     H 6377   2.659  10.895  10.100 -0.0653  0.5292 -1.0009
  788MOL0     H 6378   2.936  10.906  10.420 -0.6990 -3.1003  0.2584
  788MOL0     H 6379   3.023  11.275   9.610 -0.1275 -3.3446  3.2324
  788MOL0     H 6380   2.871  11.399   9.437  0.1323  1.0961  0.2303
  789MOL0     O 6381  10.574   5.615   8.184 -0.3818 -0.0965  0.6056
  789MOL0     C 6382  10.490   5.648   8.264 -0.3144 -1.0208  0.0486
  789MOL0     O 6383  10.395   5.563   8.321 -0.4836  0.0366 -0.0353
  789MOL0     C 6384  10.381   5.431   8.284  0.6692  0.2853 -0.0020
  789MOL0     C 6385  10.493   5.345   8.260  0.3854 -0.1030 -0.5718
  789MOL0     C 6386  10.465   5.202   8.251 -0.6551 -0.4595 -0.8166
  789MOL0     C 6387  10.329   5.151   8.260  0.2978 -0.2431  0.3847
  789MOL0     O 6388  10.312   5.018   8.239  0.1839 -0.1978 -1.0622
  789MOL0     C 6389  10.190   4.967   8.195  0.8824  0.3866 -0.0511
  789MOL0     C 6390  10.222   4.820   8.157  0.1573 -0.3820  0.6878
  789MOL0     C 6391  10.333   4.810   8.051  0.6898  0.2006  0.4279
  789MOL0     C 6392  10.406   4.676   8.047  0.8070 -0.4142 -0.2388
  789MOL0     C 6393  10.484   4.667   8.165 -1.0387  0.2306 -0.4862
  789MOL0     C 6394  10.583   4.546   8.180  0.9285 -0.2390  0.6364
  789MOL0     C 6395  10.507   4.413   8.187  0.0356  0.1130 -0.0216
  789MOL0     C 6396  10.584   4.290   8.246 -0.2120 -1.1753  0.3046
  789MOL0     N 6397  10.702   4.254   8.167 -0.0465 -0.2184  0.0931
  789MOL0     C 6398  10.826   4.314   8.172 -0.7659 -0.1146  0.6299
  789MOL0     C 6399  10.885   4.272   8.061  1.3498 -0.3997  0.3737
  789MOL0     C 6400  11.013   4.322   8.002  0.3280  0.3280 -0.4157
  789MOL0     C 6401  11.127   4.295   8.113 -0.3627 -0.5369 -0.5574
  789MOL0     C 6402  11.254   4.365   8.066  0.4199 -0.5720 -0.0587
  789MOL0     C 6403  11.312   4.329   7.927 -0.6621 -0.0324 -0.5388
  789MOL0     O 6404  11.455   4.324   7.953  0.6371 -0.4498  1.3308
  789MOL0     C 6405  11.540   4.304   7.848  0.2569  0.1677 -0.8047
  789MOL0     C 6406  11.676   4.294   7.873 -0.0140 -0.5129  0.4130
  789MOL0     C 6407  11.770   4.274   7.762 -0.1201 -0.2166 -0.4135
  789MOL0     C 6408  11.919   4.286   7.801  0.1045 -0.2445 -0.2005
  789MOL0     C 6409  11.727   4.255   7.634 -0.9989 -0.4730 -0.2539
  789MOL0     C 6410  11.810   4.226   7.510 -1.0939 -0.3694 -0.5138
  789MOL0     O 6411  11.754   4.243   7.389  0.1661  0.1810  0.8370
  789MOL0     C 6412  11.826   4.204   7.282  0.2519 -0.2159 -0.2693
  789MOL0     C 6413  11.797   4.082   7.216  0.7327 -1.7621 -0.1338
  789MOL0     C 6414  11.856   4.051   7.095 -0.1970  0.3664  0.0549
  789MOL0     C 6415  11.948   4.134   7.032 -0.8466 -0.3550 -0.2412
  789MOL0     O 6416  11.999   4.102   6.911 -0.2192  0.9986 -0.1831
  789MOL0     C 6417  12.140   4.091   6.874 -0.2485  0.5488 -0.5241
  789MOL0     C 6418  12.210   3.957   6.918  0.8287 -0.5230  0.0376
  789MOL0     C 6419  12.211   3.934   7.070  0.0895  1.1965 -0.9377
  789MOL0     C 6420  12.285   4.044   7.144 -0.4359  0.1361  0.5692
  789MOL0     C 6421  12.264   4.033   7.301  0.5608 -0.0450 -0.2543
  789MOL0     C 6422  12.323   4.146   7.377 -0.4889 -0.1716  0.8860
  789MOL0     C 6423  12.328   4.115   7.519  0.1851  0.6652  0.8697
  789MOL0     C 6424  12.318   4.231   7.601 -0.0679 -0.3730 -0.0936
  789MOL0    Cl 6425  12.382   4.213   7.759 -0.0940 -0.7985 -0.2168
  789MOL0     C 6426  11.979   4.256   7.095 -0.6158 -0.7247 -0.1034
  789MOL0     C 6427  11.917   4.287   7.222 -0.7729  0.5441  0.4610
  789MOL0     O 6428  11.932   4.186   7.524  0.7031 -0.1859  0.4633
  789MOL0     C 6429  11.588   4.265   7.617 -0.6652 -0.2559 -0.2573
  789MOL0     C 6430  11.496   4.288   7.720  0.3577 -0.5904 -0.5964
  789MOL0     N 6431  10.804   4.176   8.000  0.5674 -0.6815 -0.4505
  789MOL0     N 6432  10.696   4.174   8.055  0.1644  0.5392 -1.0827
  789MOL0     C 6433  10.229   5.241   8.298 -1.1405  0.5386 -0.3318
  789MOL0     C 6434  10.254   5.373   8.315 -0.8367 -1.3789  0.4428
  789MOL0     C 6435  10.470   5.792   8.299 -0.7853  0.1607 -0.4876
  789MOL0     C 6436  10.387   5.830   8.407  0.2524 -0.4484  1.0857
  789MOL0     C 6437  10.363   5.969   8.439 -0.2313  0.8504 -0.1405
  789MOL0     C 6438  10.426   6.067   8.368  0.3738  0.8696 -0.1752
  789MOL0     O 6439  10.413   6.205   8.389  0.0098 -0.0786 -0.2066
  789MOL0     C 6440  10.394   6.263   8.522 -1.3096 -0.3439  0.9214
  789MOL0     C 6441  10.255   6.329   8.509 -0.3755  1.0423 -0.1285
  789MOL0     C 6442  10.248   6.463   8.592  0.5252  0.9989  0.0979
  789MOL0     C 6443  10.101   6.512   8.617  0.0670  0.3372 -0.9369
  789MOL0     C 6444  10.045   6.454   8.736  0.2781  1.5026  0.0013
  789MOL0     C 6445  10.010   6.435   8.852  0.3848 -0.8411  0.2951
  789MOL0     C 6446  10.510   6.036   8.256  0.9337  0.2757  0.6247
  789MOL0     C 6447  10.531   5.897   8.222 -0.4098  0.2839  0.3629
  789MOL0     H 6448  10.590   5.385   8.235  0.0485  0.4504 -1.0250
  789MOL0     H 6449  10.546   5.143   8.210  2.8650 -0.1867  4.6736
  789MOL0     H 6450  10.121   4.960   8.279 -2.8422 -2.2690 -2.9838
  789MOL0     H 6451  10.143   5.023   8.114  1.4243  2.5366  1.0653
  789MOL0     H 6452  10.251   4.763   8.246 -0.1915 -0.0614  1.0080
  789MOL0     H 6453  10.132   4.772   8.118  0.6957 -0.0867 -0.9822
  789MOL0     H 6454  10.269   4.820   7.963  0.6110 -0.4452  0.4017
  789MOL0     H 6455  10.407   4.889   8.036  1.1112 -0.7810 -4.2727
  789MOL0     H 6456  10.338   4.593   8.028  0.0768  0.3885 -1.2862
  789MOL0     H 6457  10.473   4.680   7.960 -2.0529  1.0720 -2.5530
  789MOL0     H 6458  10.544   4.758   8.171 -2.8720  1.4268  0.9093
  789MOL0     H 6459  10.421   4.685   8.252  0.1328  0.5535  0.3239
  789MOL0     H 6460  10.642   4.551   8.088  0.0990  2.5001  0.1634
  789MOL0     H 6461  10.643   4.564   8.269 -0.5285  0.1641  1.5776
  789MOL0     H 6462  10.422   4.426   8.255 -0.5631 -2.4946 -0.1826
  789MOL0     H 6463  10.471   4.395   8.085  0.3235 -0.5892 -0.0044
  789MOL0     H 6464  10.514   4.206   8.248  1.7805 -2.9058  1.7912
  789MOL0     H 6465  10.624   4.302   8.347 -0.5507  1.7430  0.1880
  789MOL0     H 6466  10.871   4.391   8.233  1.0356 -0.7770  0.1938
  789MOL0     H 6467  11.019   4.251   7.919  0.9025 -1.0586  0.7805
  789MOL0     H 6468  11.007   4.429   7.978 -1.0013  0.1164 -1.1146
  789MOL0     H 6469  11.119   4.189   8.136 -2.0551 -0.2268  0.4381
  789MOL0     H 6470  11.094   4.348   8.203  0.7680 -0.8528  0.0764
  789MOL0     H 6471  11.325   4.344   8.147  1.8282 -0.0757 -1.1236
  789MOL0     H 6472  11.241   4.474   8.073  0.5211 -0.4193 -1.8016
  789MOL0     H 6473  11.301   4.420   7.866  2.1408  0.5598 -0.3097
  789MOL0     H 6474  11.279   4.234   7.885 -0.3191 -0.1490 -0.5461
  789MOL0     H 6475  11.714   4.314   7.973 -1.1756  1.9606  0.4360
  789MOL0     H 6476  11.968   4.360   7.736 -0.3762  1.6464  1.5089
  789MOL0     H 6477  11.931   4.318   7.905 -1.9175 -1.3290  0.4107
  789MOL0     H 6478  11.977   4.195   7.784  1.3547  0.9604 -3.1497
  789MOL0     H 6479  11.715   4.019   7.252 -2.2481  0.3750 -2.6217
  789MOL0     H 6480  11.828   3.953   7.056 -1.9934  0.1586  1.7105
  789MOL0     H 6481  12.144   4.093   6.764 -0.9519  0.8089 -0.5469
  789MOL0     H 6482  12.205   4.177   6.894  0.4661  0.1706 -1.1477
  789MOL0     H 6483  12.152   3.870   6.884  1.2675 -0.7316 -0.1840
  789MOL0     H 6484  12.312   3.951   6.878  0.9485  1.6796 -0.1062
  789MOL0     H 6485  12.270   3.843   7.085 -0.6232  1.1291  1.9353
  789MOL0     H 6486  12.113   3.916   7.114 -0.2785 -0.6514 -2.3814
  789MOL0     H 6487  12.390   4.046   7.111 -0.7560 -0.8920 -0.5917
  789MOL0     H 6488  12.254   4.146   7.122  3.7677  1.7434  1.0559
  789MOL0     H 6489  12.295   3.933   7.332  0.7681 -0.4055 -1.5426
  789MOL0     H 6490  12.156   4.039   7.316  0.2327 -2.6091 -1.0498
  789MOL0     H 6491  12.423   4.169   7.340 -2.2653  3.3400 -2.4228
  789MOL0     H 6492  12.271   4.236   7.343 -1.7828 -1.6397 -1.3235
  789MOL0     H 6493  12.425   4.067   7.534  0.7338  0.8047 -1.7087
  789MOL0     H 6494  12.251   4.045   7.554  1.2480 -0.0497  1.8484
  789MOL0     H 6495  12.212   4.256   7.606 -0.4044 -1.6593 -0.3968
  789MOL0     H 6496  12.380   4.313   7.562  0.5362 -1.7838 -2.2529
  789MOL0     H 6497  12.037   4.332   7.044 -1.0013  1.0429  1.9707
  789MOL0     H 6498  11.936   4.388   7.256 -2.9535  1.2268 -0.1733
  789MOL0     H 6499  11.546   4.257   7.518  2.2654  1.1871 -1.7625
  789MOL0     H 6500  11.391   4.300   7.692 -0.7317 -0.4537  3.1186
  789MOL0     H 6501  10.134   5.193   8.320 -1.3561  1.1002 -0.0303
  789MOL0     H 6502  10.171   5.441   8.328 -0.3045 -1.1063  2.6952
  789MOL0     H 6503  10.348   5.744   8.460 -0.4508 -0.4874  0.5344
  789MOL0     H 6504  10.308   5.996   8.529  0.1318 -1.2833  0.7814
  789MOL0     H 6505  10.417   6.204   8.612  3.5445  0.8054  0.7105
  789MOL0     H 6506  10.479   6.332   8.522 -1.3318  0.1645 -4.7962
  789MOL0     H 6507  10.189   6.261   8.563  3.0401 -2.9273 -0.4770
  789MOL0     H 6508  10.223   6.343   8.406 -2.6744  0.0072  0.3822
  789MOL0     H 6509  10.297   6.543   8.535  0.7562  0.5004 -0.4087
  789MOL0     H 6510  10.315   6.460   8.678  0.9959  0.5542 -0.2845
  789MOL0     H 6511  10.042   6.484   8.529  0.9178  2.7671 -2.3665
  789MOL0     H 6512  10.095   6.620   8.629 -0.5724  0.4098 -1.8403
  789MOL0     H 6513   9.985   6.404   8.951  0.9005  1.9668  1.4215
  789MOL0     H 6514  10.550   6.115   8.194 -2.7170  0.5225 -1.7052
  789MOL0     H 6515  10.599   5.863   8.145 -0.0899  0.0063  0.7609
  790MOL0     O 6516   7.714   3.756   9.589  0.0299  0.1925 -0.4568
  790MOL0     C 6517   7.597   3.728   9.622 -0.3268 -0.1050  0.0167
  790MOL0     O 6518   7.522   3.628   9.573 -0.0316 -0.2814  0.5326
  790MOL0     C 6519   7.589   3.526   9.505 -0.0956  0.3222  1.1253
  790MOL0     C 6520   7.601   3.530   9.367  0.3285 -0.3330  0.1940
  790MOL0     C 6521   7.684   3.444   9.294 -0.3980 -0.3213 -0.4402
  790MOL0     C 6522   7.745   3.335   9.361  0.0069  0.2980  0.2851
  790MOL0     O 6523   7.819   3.243   9.286  0.5191 -0.5740  0.7118
  790MOL0     C 6524   7.946   3.217   9.346  0.5656 -0.1662  0.3831
  790MOL0     C 6525   8.081   3.258   9.263 -0.2875 -0.6519 -0.9211
  790MOL0     C 6526   8.124   3.408   9.295 -0.2773  0.4238 -1.1995
  790MOL0     C 6527   8.186   3.409   9.437 -0.6528  0.0260  0.1395
  790MOL0     C 6528   8.216   3.546   9.485 -0.1159 -0.6081 -0.5794
  790MOL0     C 6529   8.100   3.634   9.512 -0.6031  0.1968 -0.1747
  790MOL0     C 6530   8.151   3.777   9.525  0.9602 -0.1010 -0.5848
  790MOL0     C 6531   8.038   3.869   9.591  0.9798 -0.4867 -0.0986
  790MOL0     N 6532   8.007   3.851   9.744 -0.5319 -0.5258  0.1546
  790MOL0     C 6533   8.085   3.752   9.812  0.9760 -0.6126 -0.1170
  790MOL0     C 6534   8.045   3.761   9.945 -0.1786  0.3030 -1.2829
  790MOL0     C 6535   8.104   3.707  10.069 -0.8899  0.3971  1.0983
  790MOL0     C 6536   8.232   3.802  10.080  0.0362  0.3737 -0.7698
  790MOL0     C 6537   8.297   3.783  10.215  0.8519 -0.7654 -0.7164
  790MOL0     C 6538   8.226   3.847  10.331  0.2594  0.0015  0.5209
  790MOL0     O 6539   8.230   3.988  10.311  0.3628  0.3913 -0.2384
  790MOL0     C 6540   8.109   4.053  10.325 -1.0820 -0.2341 -0.1196
  790MOL0     C 6541   7.978   4.014  10.280 -0.5347  0.8260  0.2731
  790MOL0     C 6542   7.861   4.093  10.279  0.2902 -0.3564  0.3469
  790MOL0     C 6543   7.739   4.043  10.209 -0.4216  0.6028  0.1125
  790MOL0     C 6544   7.865   4.222  10.350  0.3121 -0.6335 -0.1199
  790MOL0     C 6545   7.757   4.330  10.356  0.3057  0.0002 -1.2265
  790MOL0     O 6546   7.794   4.449  10.422  0.2472  0.6237  0.3282
  790MOL0     C 6547   7.694   4.536  10.438 -0.7400 -0.1284 -0.7684
  790MOL0     C 6548   7.646   4.553  10.567  0.3666  0.9765  0.3663
  790MOL0     C 6549   7.544   4.654  10.589  0.7463  0.1068  0.6948
  790MOL0     C 6550   7.510   4.746  10.495  0.5032 -0.3671  0.0106
  790MOL0     O 6551   7.421   4.843  10.524 -0.3412 -0.6624  0.5670
  790MOL0     C 6552   7.281   4.794  10.539  0.0214 -0.4836 -0.8186
  790MOL0     C 6553   7.232   4.817  10.680  0.4909  0.1304 -0.4420
  790MOL0     C 6554   7.086   4.759  10.694 -0.6059 -0.8225 -0.2549
  790MOL0     C 6555   6.994   4.801  10.581 -0.4569  0.2201 -0.0458
  790MOL0     C 6556   6.849   4.762  10.617 -0.2761  0.1562  0.6465
  790MOL0     C 6557   6.739   4.813  10.519 -0.4777 -1.1270 -0.5125
  790MOL0     C 6558   6.603   4.755  10.536  1.0619  0.4850 -0.8475
  790MOL0     C 6559   6.604   4.631  10.446  0.3427 -0.5949 -0.7687
  790MOL0    Cl 6560   6.445   4.551  10.489 -0.1768  0.3686  0.0705
  790MOL0     C 6561   7.577   4.743  10.365  0.7543 -1.0759 -0.6822
  790MOL0     C 6562   7.660   4.635  10.342 -0.1450  0.2442  0.6290
  790MOL0     O 6563   7.640   4.305  10.314 -0.9306  0.0921 -0.8000
  790MOL0     C 6564   7.998   4.262  10.388  0.6891 -0.9054 -0.4312
  790MOL0     C 6565   8.105   4.179  10.376  0.2246  0.0853  0.5149
  790MOL0     N 6566   7.959   3.866   9.957  0.1118 -0.0881 -0.2210
  790MOL0     N 6567   7.932   3.907   9.841  0.6496 -1.3014 -0.5358
  790MOL0     C 6568   7.722   3.328   9.505  0.3117  0.3779 -0.1202
  790MOL0     C 6569   7.656   3.425   9.573 -0.1856  0.4636  1.0345
  790MOL0     C 6570   7.528   3.829   9.710  0.0880  0.6510  0.2501
  790MOL0     C 6571   7.584   3.963   9.733 -0.7878 -1.2546 -0.5282
  790MOL0     C 6572   7.515   4.050   9.817 -0.1742  0.7476  0.1979
  790MOL0     C 6573   7.382   4.023   9.866  0.0091  0.1828  0.4581
  790MOL0     O 6574   7.319   4.134   9.909  0.5053  0.9881 -0.2250
  790MOL0     C 6575   7.209   4.113  10.004 -0.4164 -0.3557 -0.1302
  790MOL0     C 6576   7.187   4.244  10.077  0.4588 -0.6054 -1.1986
  790MOL0     C 6577   7.310   4.288  10.164  1.0945 -0.9316 -0.4646
  790MOL0     C 6578   7.301   4.436  10.208  0.2494  0.7892 -0.7477
  790MOL0     C 6579   7.180   4.463  10.289  0.8998 -0.2246 -0.6351
  790MOL0     C 6580   7.078   4.483  10.355  0.0834 -0.3942  0.1937
  790MOL0     C 6581   7.329   3.891   9.842 -0.9774 -0.5514  0.5997
  790MOL0     C 6582   7.400   3.797   9.768 -0.0117  0.3494 -0.5052
  790MOL0     H 6583   7.556   3.621   9.327  1.7558 -0.8343 -2.8581
  790MOL0     H 6584   7.689   3.465   9.187 -0.8166  0.1137 -0.3823
  790MOL0     H 6585   7.943   3.255   9.449  2.7430  0.0597  0.4203
  790MOL0     H 6586   7.946   3.109   9.358 -0.5894 -0.3324 -0.9227
  790MOL0     H 6587   8.159   3.185   9.284  0.4472  0.1868 -0.6963
  790MOL0     H 6588   8.060   3.254   9.155  1.8134  1.1055 -1.4681
  790MOL0     H 6589   8.204   3.425   9.222 -0.8271 -2.5943 -2.6702
  790MOL0     H 6590   8.047   3.483   9.275 -0.4472  1.0980  1.5504
  790MOL0     H 6591   8.126   3.356   9.511  0.9457 -0.3288  1.2229
  790MOL0     H 6592   8.280   3.353   9.437  3.2512  5.6124  3.2889
  790MOL0     H 6593   8.273   3.537   9.578 -1.2261 -1.3303  0.0526
  790MOL0     H 6594   8.291   3.591   9.419 -0.8487  0.6543 -0.5795
  790MOL0     H 6595   8.021   3.621   9.438 -0.8612 -0.8782  0.2820
  790MOL0     H 6596   8.038   3.598   9.595  0.3079 -2.5088 -0.5736
  790MOL0     H 6597   8.244   3.775   9.583 -0.8623 -4.1815  2.7112
  790MOL0     H 6598   8.160   3.813   9.422 -1.1893  0.0537 -0.7533
  790MOL0     H 6599   7.947   3.856   9.532  1.1590 -2.8649  0.0558
  790MOL0     H 6600   8.056   3.975   9.570 -3.5856  0.4183 -0.3832
  790MOL0     H 6601   8.170   3.697   9.775  1.0277  0.5118 -1.7742
  790MOL0     H 6602   8.036   3.709  10.155 -3.3823 -0.5441 -0.7321
  790MOL0     H 6603   8.133   3.602  10.057 -2.5319 -0.2078  2.1126
  790MOL0     H 6604   8.212   3.908  10.061 -2.2365  0.1917  0.2585
  790MOL0     H 6605   8.303   3.760  10.008  0.2304  1.2514 -1.1064
  790MOL0     H 6606   8.388   3.842  10.207 -0.8339  2.0140 -0.7239
  790MOL0     H 6607   8.313   3.679  10.246  0.2854  0.0236  2.5540
  790MOL0     H 6608   8.265   3.796  10.420  2.0223 -1.7255 -1.1358
  790MOL0     H 6609   8.122   3.816  10.342  0.4514 -2.4190 -2.8082
  790MOL0     H 6610   7.946   3.915  10.250 -2.2127  2.1633 -2.8694
  790MOL0     H 6611   7.678   4.117  10.157 -2.3396 -3.1638 -3.6967
  790MOL0     H 6612   7.763   3.961  10.140 -2.0015  0.6170 -0.5049
  790MOL0     H 6613   7.667   4.012  10.285 -0.5986 -0.3176 -0.4062
  790MOL0     H 6614   7.678   4.489  10.649 -2.1620 -1.2011 -0.1927
  790MOL0     H 6615   7.493   4.664  10.684  0.6623  0.2688  0.6312
  790MOL0     H 6616   7.219   4.860  10.477  1.2670  2.6773  1.0335
  790MOL0     H 6617   7.256   4.698  10.493 -1.4350  0.0073 -1.1260
  790MOL0     H 6618   7.287   4.757  10.753 -0.4214  0.8335  0.8555
  790MOL0     H 6619   7.232   4.921  10.711  2.9833 -0.2757  1.2681
  790MOL0     H 6620   7.047   4.797  10.789  1.0562 -0.5868  0.3709
  790MOL0     H 6621   7.086   4.650  10.702  2.3944 -0.8747  0.0582
  790MOL0     H 6622   7.011   4.904  10.548 -0.1518  0.2834  0.3050
  790MOL0     H 6623   7.021   4.735  10.498  2.7633  1.3895 -0.0582
  790MOL0     H 6624   6.835   4.817  10.710 -2.6090  0.5854  0.1182
  790MOL0     H 6625   6.839   4.653  10.631  0.2665 -0.3078 -2.0227
  790MOL0     H 6626   6.733   4.922  10.509  0.8066 -0.9376  0.4499
  790MOL0     H 6627   6.783   4.777  10.425  0.0267 -0.0069 -0.7239
  790MOL0     H 6628   6.520   4.808  10.489 -0.5906 -1.6167 -0.4773
  790MOL0     H 6629   6.591   4.733  10.643 -3.7234  1.1338 -1.0427
  790MOL0     H 6630   6.695   4.581  10.480  0.0386  1.0273  2.8583
  790MOL0     H 6631   6.610   4.658  10.340 -0.1185  0.7104 -0.4823
  790MOL0     H 6632   7.562   4.817  10.286  0.0454 -2.2712 -1.7098
  790MOL0     H 6633   7.690   4.608  10.241 -0.6322 -4.1390  1.4329
  790MOL0     H 6634   8.015   4.360  10.432  1.6585 -0.2187 -2.2238
  790MOL0     H 6635   8.198   4.202  10.427 -0.4069  1.7194  0.9792
  790MOL0     H 6636   7.770   3.245   9.555  4.2811  0.5023 -3.1730
  790MOL0     H 6637   7.649   3.413   9.681 -0.3364  2.2978  1.2594
  790MOL0     H 6638   7.678   3.987   9.684  0.2055 -2.2777  0.7823
  790MOL0     H 6639   7.539   4.156   9.821  2.6529  0.2017 -0.1085
  790MOL0     H 6640   7.125   4.085   9.938  0.1570 -1.5987 -0.3633
  790MOL0     H 6641   7.241   4.034  10.072  0.6831 -0.6956 -1.0012
  790MOL0     H 6642   7.096   4.238  10.138  0.4323  1.7334 -0.9251
  790MOL0     H 6643   7.162   4.325  10.008 -2.3361 -0.9107 -0.6852
  790MOL0     H 6644   7.399   4.264  10.105  2.3735 -0.1682  1.0954
  790MOL0     H 6645   7.321   4.227  10.254  0.0545 -1.9170 -0.9878
  790MOL0     H 6646   7.304   4.511  10.129  0.2062  2.3607  0.6756
  790MOL0     H 6647   7.395   4.456  10.261  1.9825 -1.3937 -2.7527
  790MOL0     H 6648   6.987   4.521  10.396 -0.8491  0.7583 -2.6788
  790MOL0     H 6649   7.224   3.871   9.860 -0.6250 -1.2809  1.9273
  790MOL0     H 6650   7.353   3.701   9.747  0.2270  0.0948  0.1007
  791MOL0     O 6651  10.677   3.188   5.926  0.3760 -0.1500  0.0443
  791MOL0     C 6652  10.644   3.299   5.934  0.2503 -0.5130  0.9370
  791MOL0     O 6653  10.697   3.403   5.861 -0.0775 -0.2430  0.3867
  791MOL0     C 6654  10.792   3.370   5.762 -0.1829  0.1127 -0.6752
  791MOL0     C 6655  10.929   3.333   5.779  0.2021  0.0215 -0.1345
  791MOL0     C 6656  11.013   3.308   5.671 -0.0508  0.0900 -0.2283
  791MOL0     C 6657  10.960   3.314   5.543 -0.1775  0.3587 -0.3900
  791MOL0     O 6658  11.057   3.318   5.448 -0.1151  0.1400 -0.6362
  791MOL0     C 6659  11.033   3.359   5.306  0.1286 -0.2240 -0.6533
  791MOL0     C 6660  11.045   3.514   5.287  0.4511  1.2208  0.1097
  791MOL0     C 6661  11.193   3.560   5.314 -1.1611  0.0228 -0.2262
  791MOL0     C 6662  11.295   3.492   5.219 -0.0953  0.3340 -0.7720
  791MOL0     C 6663  11.418   3.460   5.306 -1.0712 -0.4914 -0.2509
  791MOL0     C 6664  11.532   3.433   5.209 -0.7591 -0.3137 -0.2999
  791MOL0     C 6665  11.652   3.398   5.291 -0.4382  0.6455  0.0086
  791MOL0     C 6666  11.778   3.417   5.204  0.0123 -0.0396 -0.8689
  791MOL0     N 6667  11.832   3.554   5.196 -0.3577  0.4899  0.1468
  791MOL0     C 6668  11.883   3.625   5.301 -0.2756 -0.0920  0.5336
  791MOL0     C 6669  11.929   3.742   5.239 -0.6566  0.6303 -0.5809
  791MOL0     C 6670  11.972   3.857   5.314 -0.4207 -0.1794 -0.8550
  791MOL0     C 6671  11.874   3.975   5.270 -0.2278 -0.2085  0.0290
  791MOL0     C 6672  11.895   4.090   5.372  0.0622 -0.7408  0.8250
  791MOL0     C 6673  12.033   4.160   5.365  0.1319 -0.7133  0.3155
  791MOL0     O 6674  12.041   4.272   5.457 -0.4224  0.2740  0.8381
  791MOL0     C 6675  11.987   4.390   5.430  0.8261  0.0382  1.0462
  791MOL0     C 6676  11.925   4.462   5.537 -0.7504 -0.1810  0.4753
  791MOL0     C 6677  11.861   4.587   5.527  0.3715 -1.5031 -0.7939
  791MOL0     C 6678  11.819   4.641   5.665  0.2233  0.2826  0.5318
  791MOL0     C 6679  11.860   4.647   5.408 -0.4057  0.3738  0.8707
  791MOL0     C 6680  11.800   4.787   5.390  0.1575  0.0996  0.1768
  791MOL0     O 6681  11.827   4.845   5.268 -0.2792 -1.3237 -0.1952
  791MOL0     C 6682  11.772   4.968   5.251 -0.6913 -0.4169 -0.1597
  791MOL0     C 6683  11.812   5.083   5.322  0.4401  0.4625 -1.1630
  791MOL0     C 6684  11.758   5.212   5.289 -0.9572  0.1642 -0.3858
  791MOL0     C 6685  11.665   5.229   5.185  0.9845  0.3760  0.6750
  791MOL0     O 6686  11.643   5.357   5.138 -0.4478 -0.2670  0.1920
  791MOL0     C 6687  11.577   5.387   5.016  0.2680  0.8146  0.2559
  791MOL0     C 6688  11.425   5.403   5.031 -0.6877  0.0043 -0.9229
  791MOL0     C 6689  11.347   5.408   4.893  0.1805  0.8201 -0.8588
  791MOL0     C 6690  11.340   5.266   4.822 -0.1308  0.4493 -0.6501
  791MOL0     C 6691  11.261   5.170   4.930 -0.1713  0.6114  1.2054
  791MOL0     C 6692  11.173   5.069   4.840 -0.9050 -0.8802  0.7321
  791MOL0     C 6693  11.131   4.947   4.915  0.5740  0.9664  0.3992
  791MOL0     C 6694  11.066   4.832   4.826  0.0198 -1.2228 -0.6740
  791MOL0    Cl 6695  10.898   4.843   4.784 -0.0193  0.0186 -0.1282
  791MOL0     C 6696  11.615   5.110   5.125 -0.3231  0.2301 -0.4023
  791MOL0     C 6697  11.668   4.983   5.157 -0.0439 -0.5141  0.6914
  791MOL0     O 6698  11.737   4.835   5.483  0.0777  0.0687 -0.3560
  791MOL0     C 6699  11.925   4.580   5.297  0.3508  0.3825 -0.5786
  791MOL0     C 6700  11.996   4.456   5.310 -0.1384 -0.2241 -0.3442
  791MOL0     N 6701  11.903   3.739   5.098  0.4125  0.6371  0.4282
  791MOL0     N 6702  11.851   3.621   5.079  0.1202 -0.3424 -0.7215
  791MOL0     C 6703  10.826   3.351   5.527  1.1292  1.2821  0.4081
  791MOL0     C 6704  10.742   3.370   5.629 -0.2095  0.0646  0.0747
  791MOL0     C 6705  10.520   3.322   6.014  0.8892 -0.2507 -0.6147
  791MOL0     C 6706  10.443   3.222   6.068 -0.1284 -0.7228 -0.2743
  791MOL0     C 6707  10.327   3.254   6.137  0.2027  0.2824  1.1412
  791MOL0     C 6708  10.274   3.386   6.132 -0.2528  0.1563 -0.0908
  791MOL0     O 6709  10.153   3.407   6.200  0.2671  0.0210  0.5723
  791MOL0     C 6710  10.070   3.495   6.128  0.2276  0.5254 -0.2689
  791MOL0     C 6711  10.049   3.632   6.185  1.1376 -0.4686 -0.1377
  791MOL0     C 6712   9.951   3.722   6.110  0.0588 -0.3224  0.0522
  791MOL0     C 6713  10.015   3.781   5.977 -0.3313 -0.9016  1.2344
  791MOL0     C 6714   9.978   3.707   5.858  1.0900 -0.2083  0.7656
  791MOL0     C 6715   9.941   3.661   5.755 -0.1065 -0.3323  1.0601
  791MOL0     C 6716  10.352   3.479   6.072  0.2810 -0.8168 -0.0779
  791MOL0     C 6717  10.475   3.452   6.015  0.2039  0.5924  0.4062
  791MOL0     H 6718  10.957   3.319   5.883 -2.5826  1.4423  0.9010
  791MOL0     H 6719  11.118   3.298   5.698 -0.4795 -1.9220  0.8528
  791MOL0     H 6720  11.102   3.306   5.240  0.9285  0.5231 -0.4399
  791MOL0     H 6721  10.933   3.334   5.268 -0.1712  0.7519 -0.5414
  791MOL0     H 6722  11.018   3.528   5.182  0.8033 -1.3175 -0.3806
  791MOL0     H 6723  10.972   3.564   5.351 -0.7370 -0.7045  0.3414
  791MOL0     H 6724  11.216   3.667   5.305  2.3663 -0.5017  1.0691
  791MOL0     H 6725  11.217   3.522   5.413 -1.5626 -0.5714 -0.3519
  791MOL0     H 6726  11.260   3.393   5.189 -0.6519 -0.3319  1.8546
  791MOL0     H 6727  11.309   3.549   5.127 -0.4145  1.3125 -0.2286
  791MOL0     H 6728  11.447   3.544   5.370  3.3872 -3.4414  2.1200
  791MOL0     H 6729  11.397   3.371   5.366  1.0234 -1.2463 -0.5646
  791MOL0     H 6730  11.518   3.360   5.128 -0.4062 -0.8746  0.1296
  791MOL0     H 6731  11.549   3.524   5.151 -0.9343  0.4741  0.8620
  791MOL0     H 6732  11.667   3.456   5.382 -1.6839  0.2726  0.4759
  791MOL0     H 6733  11.648   3.292   5.315  2.4930  0.5542  0.4534
  791MOL0     H 6734  11.757   3.380   5.104 -3.0243  0.5235 -0.5430
  791MOL0     H 6735  11.860   3.354   5.241 -0.0268  0.7838  0.7267
  791MOL0     H 6736  11.897   3.598   5.405  2.6396 -3.2082 -0.4946
  791MOL0     H 6737  11.961   3.840   5.422 -3.6008 -0.0796 -1.0779
  791MOL0     H 6738  12.079   3.878   5.304 -0.7475  2.2913  0.2765
  791MOL0     H 6739  11.769   3.943   5.269 -1.0459  2.1958 -1.0415
  791MOL0     H 6740  11.886   4.015   5.169 -0.0237  1.9075  0.8428
  791MOL0     H 6741  11.874   4.044   5.469 -1.5099 -1.3295  0.2392
  791MOL0     H 6742  11.815   4.160   5.347 -0.0629 -2.1621 -3.5287
  791MOL0     H 6743  12.051   4.197   5.264 -1.3473  0.2884  0.3873
  791MOL0     H 6744  12.106   4.086   5.398  1.3020 -1.0385 -2.7178
  791MOL0     H 6745  11.929   4.409   5.632  0.3600 -1.8040 -0.4202
  791MOL0     H 6746  11.715   4.671   5.655 -0.2801 -1.0743  1.4088
  791MOL0     H 6747  11.829   4.559   5.737  1.7769 -2.2650 -2.3808
  791MOL0     H 6748  11.873   4.731   5.699  2.9938 -1.4752  1.1591
  791MOL0     H 6749  11.886   5.075   5.401 -1.4510  1.7137  0.8761
  791MOL0     H 6750  11.810   5.295   5.335 -0.5400  0.7266 -1.8074
  791MOL0     H 6751  11.610   5.483   4.975  0.3734  0.9464  0.6477
  791MOL0     H 6752  11.602   5.318   4.935 -1.0140  0.9174 -0.2587
  791MOL0     H 6753  11.385   5.330   5.102  3.7551 -4.1578 -2.1961
  791MOL0     H 6754  11.413   5.497   5.087 -0.2649 -1.6255  2.1308
  791MOL0     H 6755  11.382   5.480   4.819 -1.6282 -0.2662 -2.9053
  791MOL0     H 6756  11.244   5.440   4.912  0.2939  2.2556 -2.4372
  791MOL0     H 6757  11.291   5.277   4.726  1.5324 -1.3647 -1.7866
  791MOL0     H 6758  11.444   5.237   4.806  0.0431 -0.8227  2.0358
  791MOL0     H 6759  11.196   5.225   4.998  0.6153 -1.7698  4.1272
  791MOL0     H 6760  11.331   5.106   4.985 -1.0391 -0.7953  0.7336
  791MOL0     H 6761  11.082   5.114   4.802  0.1111  0.3268 -0.3636
  791MOL0     H 6762  11.235   5.036   4.756 -0.3033  4.5971 -1.4035
  791MOL0     H 6763  11.064   4.964   4.999  2.5309  1.4517  1.9474
  791MOL0     H 6764  11.215   4.893   4.961 -0.5651 -0.9126  0.3834
  791MOL0     H 6765  11.067   4.738   4.880  0.1780 -2.5374 -2.8487
  791MOL0     H 6766  11.133   4.805   4.744  0.1291 -1.3638 -0.5398
  791MOL0     H 6767  11.541   5.123   5.047 -0.9618  4.4699  0.6854
  791MOL0     H 6768  11.651   4.892   5.100  1.7829 -1.4681  1.5895
  791MOL0     H 6769  11.938   4.643   5.210  5.1683  1.3422  0.5170
  791MOL0     H 6770  12.051   4.416   5.227  2.0636  0.4684  0.7052
  791MOL0     H 6771  10.795   3.349   5.423 -1.5804 -2.0020  1.0743
  791MOL0     H 6772  10.636   3.391   5.617 -0.6174 -2.0560 -0.4542
  791MOL0     H 6773  10.474   3.118   6.077 -1.8671 -1.1994  0.7085
  791MOL0     H 6774  10.270   3.186   6.199 -2.5348 -0.7774 -2.2458
  791MOL0     H 6775  10.092   3.508   6.022 -3.9030  1.6670 -1.1705
  791MOL0     H 6776   9.969   3.454   6.143 -0.0608  1.6466  0.9412
  791MOL0     H 6777  10.142   3.686   6.203  0.5823  0.6614 -0.5834
  791MOL0     H 6778  10.010   3.618   6.286  2.4210 -0.1715  0.4175
  791MOL0     H 6779   9.930   3.802   6.181 -0.8335  0.1272 -0.6946
  791MOL0     H 6780   9.859   3.666   6.092 -0.1538 -0.6520  1.9922
  791MOL0     H 6781  10.123   3.789   5.992  0.2593 -3.6076 -0.6736
  791MOL0     H 6782   9.970   3.878   5.957  0.2580 -0.8017  0.3077
  791MOL0     H 6783   9.914   3.622   5.658  0.6055 -0.7977  1.0433
  791MOL0     H 6784  10.294   3.567   6.045 -1.0841 -0.7910  2.5659
  791MOL0     H 6785  10.513   3.532   5.952 -3.3188  0.4757 -2.1118
  792MOL0     O 6786   5.231  10.094   6.550  0.1445 -0.4547 -0.5068
  792MOL0     C 6787   5.298  10.150   6.634 -0.1766 -0.4728  0.6438
  792MOL0     O 6788   5.266  10.180   6.756 -0.1935 -0.0146 -1.2062
  792MOL0     C 6789   5.137  10.142   6.794 -0.1647 -0.0149 -0.8329
  792MOL0     C 6790   5.088  10.014   6.797  0.3377 -0.0362  0.2017
  792MOL0     C 6791   4.960   9.984   6.850 -0.2981 -0.3807  0.4657
  792MOL0     C 6792   4.896  10.083   6.921 -0.3598 -0.1076 -0.2936
  792MOL0     O 6793   4.776  10.072   6.985  0.3865 -0.2019  0.2180
  792MOL0     C 6794   4.752  10.150   7.109  0.1839  0.4106  0.0898
  792MOL0     C 6795   4.598  10.176   7.113 -0.5433  0.1128 -0.7608
  792MOL0     C 6796   4.551  10.293   7.014  0.2472  0.8560  0.7522
  792MOL0     C 6797   4.406  10.335   7.051 -0.4275 -0.0346 -0.2770
  792MOL0     C 6798   4.384  10.469   7.109  0.4987 -0.5015 -0.1920
  792MOL0     C 6799   4.374  10.583   7.005  1.0545 -0.2928  0.2018
  792MOL0     C 6800   4.388  10.728   7.054 -0.6000 -0.2652 -0.0884
  792MOL0     C 6801   4.535  10.752   7.085  0.6367  0.5709 -0.0603
  792MOL0     N 6802   4.612  10.751   6.962 -0.2654 -1.0614  0.3281
  792MOL0     C 6803   4.665  10.863   6.895  0.7419  0.4210  0.0122
  792MOL0     C 6804   4.745  10.813   6.799 -0.6345 -0.0129 -0.2809
  792MOL0     C 6805   4.844  10.895   6.720  0.2173 -0.1659  0.2274
  792MOL0     C 6806   4.940  10.826   6.624 -0.6151 -1.2032 -0.2302
  792MOL0     C 6807   4.848  10.788   6.505 -0.7849  0.0189  0.3155
  792MOL0     C 6808   4.934  10.729   6.401 -0.8882 -0.4868 -0.6916
  792MOL0     O 6809   4.997  10.832   6.319 -0.4729  0.9041 -0.5499
  792MOL0     C 6810   5.070  10.793   6.212 -0.4451  0.3432  0.3199
  792MOL0     C 6811   5.207  10.816   6.185 -0.2605 -0.5726 -0.5827
  792MOL0     C 6812   5.269  10.802   6.053  0.9366  0.3745 -0.6373
  792MOL0     C 6813   5.407  10.832   6.038 -0.6013 -0.2735  0.1968
  792MOL0     C 6814   5.176  10.768   5.943 -1.2302 -0.3767  0.1358
  792MOL0     C 6815   5.227  10.756   5.794  0.9749 -0.7401 -0.6037
  792MOL0     O 6816   5.120  10.781   5.701  0.1164  0.5362 -0.2837
  792MOL0     C 6817   5.083  10.668   5.634  0.5938 -0.0877  0.7164
  792MOL0     C 6818   5.091  10.538   5.686  0.4558  0.7580 -0.6316
  792MOL0     C 6819   5.038  10.432   5.608  0.6240 -0.0586  0.7365
  792MOL0     C 6820   4.998  10.450   5.473 -0.5651  0.3078 -0.0099
  792MOL0     O 6821   4.942  10.345   5.404 -0.0874 -0.0062 -0.5153
  792MOL0     C 6822   4.852  10.260   5.475  0.9560 -0.4703  0.7417
  792MOL0     C 6823   4.744  10.346   5.536  0.4207 -0.5271  0.1921
  792MOL0     C 6824   4.610  10.281   5.567  0.3128 -0.6149  0.2848
  792MOL0     C 6825   4.604  10.167   5.668  0.0139 -0.6669 -0.0755
  792MOL0     C 6826   4.460  10.107   5.694 -0.5175  0.0907  0.0704
  792MOL0     C 6827   4.463   9.969   5.766  0.1848 -0.4252 -0.0425
  792MOL0     C 6828   4.328   9.908   5.794  0.1639 -0.8445  0.2145
  792MOL0     C 6829   4.239   9.886   5.670  0.5052 -0.2263  0.0991
  792MOL0    Cl 6830   4.329   9.800   5.541  0.5297  0.5540  0.0955
  792MOL0     C 6831   5.001  10.578   5.422  1.3243 -0.0140 -0.7811
  792MOL0     C 6832   5.043  10.689   5.502 -0.3200  0.8162  0.6375
  792MOL0     O 6833   5.342  10.733   5.761 -0.1755  0.5759 -0.6358
  792MOL0     C 6834   5.042  10.743   5.972 -0.2017 -0.0839  0.2758
  792MOL0     C 6835   4.993  10.755   6.102 -0.6102 -0.6337  0.3013
  792MOL0     N 6836   4.749  10.674   6.811  0.0876 -0.1760  0.7078
  792MOL0     N 6837   4.674  10.641   6.908 -0.0088  0.0675 -0.3311
  792MOL0     C 6838   4.927  10.215   6.891 -0.2593 -0.1531 -1.5064
  792MOL0     C 6839   5.054  10.243   6.836  0.7056  0.3942 -0.1562
  792MOL0     C 6840   5.406  10.232   6.582 -1.0363  0.0163  0.2065
  792MOL0     C 6841   5.445  10.240   6.445  0.3174  0.0743  0.2074
  792MOL0     C 6842   5.560  10.307   6.399 -0.5086 -0.8776  0.4470
  792MOL0     C 6843   5.639  10.371   6.486  0.2559 -0.5885 -0.0440
  792MOL0     O 6844   5.742  10.449   6.436  0.4523  0.3672 -0.3718
  792MOL0     C 6845   5.865  10.391   6.420  0.5781  0.0910 -1.0988
  792MOL0     C 6846   5.978  10.491   6.423 -0.5810 -0.0355  0.6340
  792MOL0     C 6847   5.977  10.597   6.532  0.0685  0.6693  0.2604
  792MOL0     C 6848   6.096  10.574   6.634  0.9422 -0.9279  1.0994
  792MOL0     C 6849   6.220  10.612   6.557 -0.7990  0.6112  0.1834
  792MOL0     C 6850   6.309  10.640   6.479 -0.1750 -0.0512  0.4223
  792MOL0     C 6851   5.604  10.371   6.622 -0.0575  0.4703  0.2470
  792MOL0     C 6852   5.491  10.297   6.670 -0.9564 -0.8304 -1.1255
  792MOL0     H 6853   5.145   9.932   6.755 -0.7200 -0.8479  0.3223
  792MOL0     H 6854   4.923   9.883   6.833  0.0624 -0.0563 -2.7822
  792MOL0     H 6855   4.791  10.094   7.195 -0.5860  0.0586  0.2231
  792MOL0     H 6856   4.803  10.246   7.114  0.2102  0.4141 -0.1975
  792MOL0     H 6857   4.555  10.078   7.090  0.6733 -1.3010  2.4560
  792MOL0     H 6858   4.578  10.195   7.219  4.2680 -0.0023  0.3663
  792MOL0     H 6859   4.621  10.372   7.043 -0.9072  0.8878  3.7830
  792MOL0     H 6860   4.565  10.259   6.910  4.0824  0.6496  1.1690
  792MOL0     H 6861   4.331  10.325   6.973 -0.6407 -2.2543  0.1531
  792MOL0     H 6862   4.389  10.256   7.125  0.9346  1.3670  1.6702
  792MOL0     H 6863   4.289  10.462   7.164 -0.6254 -0.3556 -2.0313
  792MOL0     H 6864   4.462  10.494   7.182 -0.3427  0.0240  0.5498
  792MOL0     H 6865   4.433  10.571   6.913 -1.2337 -0.4643 -1.3277
  792MOL0     H 6866   4.273  10.571   6.964 -0.3822  3.8870  1.9833
  792MOL0     H 6867   4.366  10.796   6.971  1.8356  1.6936  0.7384
  792MOL0     H 6868   4.315  10.757   7.130  0.5933  1.8445  0.3313
  792MOL0     H 6869   4.565  10.669   7.150 -1.0151 -0.7140 -0.8616
  792MOL0     H 6870   4.546  10.844   7.143 -0.4143  1.7675 -1.6962
  792MOL0     H 6871   4.648  10.970   6.905  0.7276  0.4263 -0.0710
  792MOL0     H 6872   4.796  10.981   6.673 -2.3986 -0.8593  1.4852
  792MOL0     H 6873   4.908  10.923   6.805 -1.7763 -1.5233  2.2984
  792MOL0     H 6874   4.977  10.736   6.675  3.8207  0.2548 -0.4791
  792MOL0     H 6875   5.020  10.896   6.601  1.9980 -3.8541  0.1223
  792MOL0     H 6876   4.790  10.871   6.463  0.1123 -0.8773 -3.0554
  792MOL0     H 6877   4.779  10.707   6.529 -1.0229 -0.2476 -1.1764
  792MOL0     H 6878   4.872  10.680   6.325 -2.3692 -0.6864  0.5934
  792MOL0     H 6879   5.011  10.658   6.435  0.3376 -0.4354 -3.1314
  792MOL0     H 6880   5.264  10.858   6.267 -0.0378 -0.6036 -0.7193
  792MOL0     H 6881   5.445  10.841   5.936  0.4561 -1.9527  0.4097
  792MOL0     H 6882   5.405  10.934   6.076 -0.0286  1.0454 -2.9420
  792MOL0     H 6883   5.467  10.764   6.099 -0.2191 -1.1666 -1.1273
  792MOL0     H 6884   5.115  10.516   5.790 -1.9929  4.9494  1.0859
  792MOL0     H 6885   5.038  10.336   5.658 -0.8792  0.3854  1.6216
  792MOL0     H 6886   4.809  10.191   5.402  0.0888 -0.1020  0.8911
  792MOL0     H 6887   4.902  10.198   5.550  1.0350  0.7500  1.7556
  792MOL0     H 6888   4.775  10.371   5.638  1.7354 -5.3329  1.1953
  792MOL0     H 6889   4.724  10.429   5.467 -1.8483 -2.4914 -1.6729
  792MOL0     H 6890   4.577  10.225   5.479 -0.4735 -2.4816  1.7113
  792MOL0     H 6891   4.540  10.362   5.590  2.6109  2.8191 -3.3097
  792MOL0     H 6892   4.666  10.084   5.634 -1.5827 -1.1114 -2.1298
  792MOL0     H 6893   4.642  10.213   5.760  0.6499 -0.1651 -0.5753
  792MOL0     H 6894   4.410  10.085   5.599  1.8567 -3.5201 -0.5788
  792MOL0     H 6895   4.385  10.174   5.736 -2.8758 -2.7989  0.8175
  792MOL0     H 6896   4.520   9.903   5.700 -1.1610  0.1528 -1.8438
  792MOL0     H 6897   4.517   9.980   5.861 -1.1352  0.7652  0.6044
  792MOL0     H 6898   4.266   9.970   5.860  1.5892 -0.3202  1.0982
  792MOL0     H 6899   4.343   9.808   5.837 -0.2497 -1.4761 -1.0749
  792MOL0     H 6900   4.190   9.977   5.635 -0.6818 -0.9155 -0.0826
  792MOL0     H 6901   4.158   9.818   5.695 -1.3803  1.7345 -0.3905
  792MOL0     H 6902   4.957  10.586   5.323 -3.3769 -0.0174  1.0691
  792MOL0     H 6903   5.041  10.791   5.465  2.1377  1.2965  1.6606
  792MOL0     H 6904   4.972  10.738   5.889 -1.0533 -2.1906  1.0437
  792MOL0     H 6905   4.886  10.745   6.116 -0.9425 -0.3362 -1.7314
  792MOL0     H 6906   4.878  10.306   6.925  0.6989 -0.1445 -0.0473
  792MOL0     H 6907   5.082  10.344   6.809  2.3474  0.0404  0.1058
  792MOL0     H 6908   5.384  10.197   6.365 -2.4232  0.5694  1.8894
  792MOL0     H 6909   5.585  10.315   6.294 -2.1069  0.8831  0.1479
  792MOL0     H 6910   5.891  10.314   6.493 -1.9062 -0.2853 -0.4875
  792MOL0     H 6911   5.872  10.332   6.329  0.2411 -1.3448 -0.2340
  792MOL0     H 6912   5.982  10.540   6.325 -2.7140  2.5267  1.7137
  792MOL0     H 6913   6.073  10.439   6.440  0.0546  0.7231 -0.4598
  792MOL0     H 6914   5.881  10.607   6.585  0.3384  1.6596  0.5893
  792MOL0     H 6915   5.998  10.696   6.492  1.0735 -0.0573 -1.0847
  792MOL0     H 6916   6.095  10.471   6.672 -1.3661 -0.3394  2.8255
  792MOL0     H 6917   6.091  10.641   6.720 -0.5943  1.6735 -0.8706
  792MOL0     H 6918   6.388  10.663   6.410 -0.0701 -0.9102  0.2372
  792MOL0     H 6919   5.658  10.435   6.691  1.2438  0.3788 -0.6513
  792MOL0     H 6920   5.481  10.307   6.777  3.0198 -0.3303 -0.6479
  793MOL0     O 6921   1.953   0.158   6.208  0.4275 -0.2312 -0.1225
  793MOL0     C 6922   1.932   0.037   6.200 -0.2897 -0.3569 -1.1535
  793MOL0     O 6923   1.854  -0.041   6.288 -0.4558 -0.3932 -0.1082
  793MOL0     C 6924   1.818   0.018   6.415  0.5129 -0.2008  0.2870
  793MOL0     C 6925   1.901   0.104   6.489  0.2036  0.1689  0.0272
  793MOL0     C 6926   1.857   0.140   6.618 -0.2963 -0.5824 -0.7855
  793MOL0     C 6927   1.738   0.111   6.670  0.2689 -0.6957 -0.3073
  793MOL0     O 6928   1.708   0.160   6.797  0.6134  0.6992 -0.5071
  793MOL0     C 6929   1.797   0.129   6.909  0.3176  0.6710 -0.1509
  793MOL0     C 6930   1.725   0.171   7.042 -1.2665  0.5900  0.0995
  793MOL0     C 6931   1.613   0.073   7.083  0.0137  0.9061 -0.4315
  793MOL0     C 6932   1.576   0.091   7.232 -0.2909 -0.3169  0.6323
  793MOL0     C 6933   1.655   0.033   7.344  0.4151  0.3930 -0.0630
  793MOL0     C 6934   1.702  -0.109   7.318  0.3299  0.9240  0.2630
  793MOL0     C 6935   1.582  -0.215   7.324  0.1124 -0.3135 -0.2142
  793MOL0     C 6936   1.615  -0.360   7.295  0.2474  0.9279 -0.2117
  793MOL0     N 6937   1.507  -0.461   7.309  0.0202  0.1607  1.0288
  793MOL0     C 6938   1.511  -0.588   7.287 -0.2190  0.2616 -0.1824
  793MOL0     C 6939   1.382  -0.631   7.315  0.6974 -0.0240  0.2925
  793MOL0     C 6940   1.315  -0.764   7.277 -0.9285 -0.3666 -0.0743
  793MOL0     C 6941   1.397  -0.887   7.333  0.3961  0.4826 -0.5708
  793MOL0     C 6942   1.381  -0.899   7.487 -1.0817 -1.3060  0.4326
  793MOL0     C 6943   1.239  -0.929   7.531 -0.0662 -0.2328 -0.2676
  793MOL0     O 6944   1.251  -0.919   7.671 -0.4387  0.1011 -0.2628
  793MOL0     C 6945   1.140  -0.899   7.745 -0.2323  0.3520  0.8440
  793MOL0     C 6946   1.015  -0.937   7.694  0.3829  0.2572  0.1803
  793MOL0     C 6947   0.895  -0.921   7.764  0.4514  0.8039  0.3310
  793MOL0     C 6948   0.766  -0.910   7.681 -1.0035  0.3668 -1.1982
  793MOL0     C 6949   0.903  -0.914   7.900 -0.4639 -0.5601 -0.5342
  793MOL0     C 6950   0.792  -0.912   7.992  0.2520 -0.3239 -0.1790
  793MOL0     O 6951   0.783  -0.815   8.080  0.2030 -0.3541  0.7623
  793MOL0     C 6952   0.674  -0.811   8.159  0.6408 -1.2432 -0.2473
  793MOL0     C 6953   0.558  -0.749   8.116  0.2979  0.9627 -0.1792
  793MOL0     C 6954   0.446  -0.755   8.201 -0.3387 -0.1093  0.0798
  793MOL0     C 6955   0.447  -0.819   8.326  0.6309  0.2260 -0.1059
  793MOL0     O 6956   0.329  -0.831   8.382  0.0019 -0.5978 -0.5066
  793MOL0     C 6957   0.327  -0.870   8.519  0.3095  0.2537  0.3822
  793MOL0     C 6958   0.196  -0.838   8.567  1.3973 -0.6258 -0.4354
  793MOL0     C 6959   0.174  -0.900   8.711  1.0584 -0.6084  0.3935
  793MOL0     C 6960   0.027  -0.904   8.737 -0.5477  0.3672  0.1204
  793MOL0     C 6961  -0.010  -0.940   8.881  0.1998  0.5168 -0.9080
  793MOL0     C 6962  -0.158  -0.979   8.889 -0.1162  0.4918  0.5989
  793MOL0     C 6963  -0.191  -0.990   9.039 -0.2640 -1.0370  1.1742
  793MOL0     C 6964  -0.192  -1.124   9.104  0.3339 -0.5410 -0.3370
  793MOL0    Cl 6965  -0.233  -1.131   9.269 -0.7077 -0.0338  0.0093
  793MOL0     C 6966   0.557  -0.886   8.363 -0.2784  0.5859 -0.2850
  793MOL0     C 6967   0.677  -0.882   8.284  0.1972 -1.1383 -0.3868
  793MOL0     O 6968   0.715  -1.008   7.989 -0.8107 -0.9708 -0.9321
  793MOL0     C 6969   1.027  -0.878   7.963 -0.0810  0.2608 -0.1561
  793MOL0     C 6970   1.143  -0.870   7.887 -0.1302  0.7512  1.3506
  793MOL0     N 6971   1.312  -0.527   7.370 -0.0407 -0.2601 -1.3744
  793MOL0     N 6972   1.385  -0.421   7.354  0.3204  0.3236  0.1946
  793MOL0     C 6973   1.664   0.021   6.594 -0.5548 -0.4847  0.3223
  793MOL0     C 6974   1.701  -0.029   6.478 -0.1910  0.3253  1.0762
  793MOL0     C 6975   2.021  -0.030   6.115  0.3599 -0.6339  0.1140
  793MOL0     C 6976   2.002  -0.167   6.097 -0.2444  0.1011 -0.1730
  793MOL0     C 6977   2.104  -0.243   6.031  0.3425 -0.7280  0.1547
  793MOL0     C 6978   2.204  -0.178   5.955  0.2053  0.3412  0.3106
  793MOL0     O 6979   2.272  -0.262   5.870 -0.0521  0.4693 -0.0197
  793MOL0     C 6980   2.336  -0.203   5.755  0.0090 -0.0175  0.4324
  793MOL0     C 6981   2.338  -0.295   5.645  0.9553  0.0584  0.9469
  793MOL0     C 6982   2.429  -0.252   5.524  0.1274 -0.9384  0.2991
  793MOL0     C 6983   2.413  -0.337   5.400 -0.2343 -0.3840  1.0149
  793MOL0     C 6984   2.514  -0.317   5.299  0.0585 -1.3824  0.5532
  793MOL0     C 6985   2.597  -0.325   5.214 -0.5861 -0.4621 -1.0037
  793MOL0     C 6986   2.217  -0.040   5.967  0.0041 -0.2186  0.7860
  793MOL0     C 6987   2.129   0.028   6.046 -0.2221  0.1101 -0.3809
  793MOL0     H 6988   1.995   0.150   6.459  1.0455  1.2043  3.7150
  793MOL0     H 6989   1.935   0.190   6.675 -0.4488 -1.9906  0.7548
  793MOL0     H 6990   1.810   0.021   6.923  0.4459  0.8675  1.4370
  793MOL0     H 6991   1.890   0.184   6.896  0.1452  0.4876 -2.8304
  793MOL0     H 6992   1.801   0.177   7.120 -1.4046  1.4485  0.1717
  793MOL0     H 6993   1.690   0.273   7.026  1.2838  1.4326 -0.5774
  793MOL0     H 6994   1.527   0.091   7.017  0.2185  1.8753 -0.4452
  793MOL0     H 6995   1.653  -0.028   7.070  2.1127  1.4193  1.4579
  793MOL0     H 6996   1.592   0.198   7.251 -0.1414 -0.6479  2.6148
  793MOL0     H 6997   1.469   0.081   7.252 -0.3932  0.7982  0.7133
  793MOL0     H 6998   1.742   0.094   7.367 -0.3005  1.0950  0.8974
  793MOL0     H 6999   1.589   0.027   7.432 -0.7625 -1.3474 -1.0034
  793MOL0     H 7000   1.756  -0.111   7.223  2.0356  1.5892  1.1753
  793MOL0     H 7001   1.771  -0.140   7.397 -1.8707  0.7098  2.2032
  793MOL0     H 7002   1.562  -0.211   7.432  2.0398  0.5145  0.1651
  793MOL0     H 7003   1.494  -0.177   7.273 -1.3008 -1.2427  1.4192
  793MOL0     H 7004   1.695  -0.391   7.364 -0.3737  0.8764  0.5021
  793MOL0     H 7005   1.652  -0.373   7.193 -0.1684 -3.0119 -0.0168
  793MOL0     H 7006   1.597  -0.626   7.234  1.4491  2.1784  1.0259
  793MOL0     H 7007   1.207  -0.770   7.292 -1.1759 -0.1885 -1.6536
  793MOL0     H 7008   1.322  -0.764   7.168  2.3518  2.1900 -0.0277
  793MOL0     H 7009   1.503  -0.866   7.318  0.5946 -1.0117 -1.4791
  793MOL0     H 7010   1.355  -0.973   7.281 -3.1859  1.1349  0.8903
  793MOL0     H 7011   1.416  -0.807   7.535  2.5747 -3.3646  2.1203
  793MOL0     H 7012   1.449  -0.975   7.526 -2.4673 -1.3088  3.0500
  793MOL0     H 7013   1.205  -1.027   7.497 -1.2550  0.4076 -0.9722
  793MOL0     H 7014   1.166  -0.857   7.494 -1.6133 -3.1660 -3.5709
  793MOL0     H 7015   1.000  -0.975   7.594 -0.7696  1.8021 -0.2606
  793MOL0     H 7016   0.719  -1.000   7.640 -0.3503  0.5630 -2.4312
  793MOL0     H 7017   0.692  -0.878   7.755  0.7585  0.1841  0.7633
  793MOL0     H 7018   0.790  -0.841   7.599 -1.2716  1.1918 -0.6015
  793MOL0     H 7019   0.570  -0.706   8.017  1.4052 -4.3703 -2.6969
  793MOL0     H 7020   0.348  -0.710   8.183 -0.6994 -0.5473  0.8714
  793MOL0     H 7021   0.344  -0.977   8.533 -0.7770  0.2920  2.3203
  793MOL0     H 7022   0.401  -0.815   8.578 -1.6384  1.3681  1.8888
  793MOL0     H 7023   0.167  -0.733   8.563 -2.6076 -1.6000 -1.0676
  793MOL0     H 7024   0.128  -0.881   8.493 -1.9302 -0.4053  2.2266
  793MOL0     H 7025   0.214  -0.836   8.790  1.0175 -0.7600  0.5382
  793MOL0     H 7026   0.208  -1.003   8.722 -1.4600 -1.5596 -0.0581
  793MOL0     H 7027  -0.012  -0.804   8.716 -0.5691  0.9432  2.5716
  793MOL0     H 7028  -0.024  -0.976   8.672 -0.1516  1.2482 -1.2077
  793MOL0     H 7029   0.017  -0.860   8.951 -1.6337 -0.8900  1.5410
  793MOL0     H 7030   0.047  -1.029   8.912  1.6531  1.8013  0.2795
  793MOL0     H 7031  -0.224  -0.900   8.850  1.2513  0.1918 -2.6221
  793MOL0     H 7032  -0.167  -1.072   8.833 -0.9818  0.7619  0.2705
  793MOL0     H 7033  -0.294  -0.954   9.048  0.6422  4.2982 -3.5882
  793MOL0     H 7034  -0.125  -0.921   9.092 -2.1040  1.4139  0.4617
  793MOL0     H 7035  -0.089  -1.161   9.110  0.0243 -1.1658  2.9226
  793MOL0     H 7036  -0.260  -1.189   9.049 -0.6950 -0.0216  0.2944
  793MOL0     H 7037   0.562  -0.948   8.452 -1.7480  1.3692  0.3898
  793MOL0     H 7038   0.768  -0.936   8.304 -0.4283 -1.7606  0.9311
  793MOL0     H 7039   1.035  -0.862   8.070 -1.7644  0.0463  0.0312
  793MOL0     H 7040   1.241  -0.841   7.923 -0.8678  4.8918  0.5837
  793MOL0     H 7041   1.568  -0.006   6.635 -0.5504 -1.4136 -0.2481
  793MOL0     H 7042   1.635  -0.097   6.424 -0.9320  0.3973  1.8755
  793MOL0     H 7043   1.919  -0.212   6.150  0.8583  0.0261  1.5662
  793MOL0     H 7044   2.090  -0.350   6.025 -1.1095 -0.7971  3.0212
  793MOL0     H 7045   2.279  -0.120   5.712  0.4433 -1.0283 -2.2879
  793MOL0     H 7046   2.434  -0.160   5.777 -0.1637  1.2438 -1.1023
  793MOL0     H 7047   2.239  -0.308   5.602  0.4826 -2.0238  2.4832
  793MOL0     H 7048   2.356  -0.397   5.681 -0.9413 -0.9530 -0.7873
  793MOL0     H 7049   2.533  -0.241   5.557  0.0842  0.8852 -0.0584
  793MOL0     H 7050   2.389  -0.154   5.495 -1.9062 -1.4641  1.1937
  793MOL0     H 7051   2.309  -0.340   5.366 -0.1386  3.4006 -0.0724
  793MOL0     H 7052   2.442  -0.438   5.430 -0.3946 -0.7505 -0.0322
  793MOL0     H 7053   2.666  -0.336   5.132  2.1687 -1.0941  1.2518
  793MOL0     H 7054   2.275   0.025   5.903 -0.0942  0.2333  1.1447
  793MOL0     H 7055   2.134   0.136   6.052 -1.8488  0.2043 -0.0158
  794MOL0     O 7056   7.117   3.718  11.383 -0.1397  0.4808 -0.0162
  794MOL0     C 7057   7.065   3.737  11.491  0.3573 -0.3342 -0.2023
  794MOL0     O 7058   7.039   3.859  11.549 -0.3329 -0.0478  0.6966
  794MOL0     C 7059   7.121   3.970  11.519 -1.0607 -0.0166  0.0826
  794MOL0     C 7060   7.073   4.086  11.571 -0.1582  0.6514  0.5381
  794MOL0     C 7061   7.135   4.210  11.553  0.2294  0.6792 -0.3986
  794MOL0     C 7062   7.258   4.211  11.477  0.4543  0.1319  0.1202
  794MOL0     O 7063   7.333   4.322  11.449 -0.6354 -0.4944  1.0079
  794MOL0     C 7064   7.282   4.451  11.503  1.0819  0.6405 -0.3731
  794MOL0     C 7065   7.402   4.541  11.465 -0.3063 -0.4053  0.6186
  794MOL0     C 7066   7.371   4.686  11.513 -0.1208 -0.4334 -1.1269
  794MOL0     C 7067   7.373   4.775  11.389  0.5644 -0.5173 -0.6901
  794MOL0     C 7068   7.392   4.926  11.432 -0.8861  0.5858 -0.6093
  794MOL0     C 7069   7.266   4.979  11.516 -0.6898  0.0208  0.1507
  794MOL0     C 7070   7.280   5.132  11.558  0.8089  0.8414 -0.1554
  794MOL0     C 7071   7.321   5.146  11.705  0.1614 -1.1689  0.7721
  794MOL0     N 7072   7.299   5.285  11.749 -0.8340 -0.3830 -0.4373
  794MOL0     C 7073   7.382   5.388  11.709 -0.5021 -0.6744  0.9303
  794MOL0     C 7074   7.343   5.498  11.778 -0.0155 -0.1589  0.3308
  794MOL0     C 7075   7.411   5.641  11.764 -0.1025  0.5650  0.1283
  794MOL0     C 7076   7.347   5.722  11.646  1.5138  0.0400  0.5517
  794MOL0     C 7077   7.379   5.875  11.667 -0.7307  0.0071 -1.2155
  794MOL0     C 7078   7.320   5.964  11.559 -0.1936  0.5568  0.3822
  794MOL0     O 7079   7.176   5.962  11.573 -0.6361 -0.4451 -0.1699
  794MOL0     C 7080   7.093   6.001  11.476  0.5834  0.4142  1.1148
  794MOL0     C 7081   6.957   5.971  11.478  0.1406  0.0514 -0.5609
  794MOL0     C 7082   6.868   5.987  11.374  0.0903  0.3014  0.5206
  794MOL0     C 7083   6.719   5.942  11.399  0.5304 -0.1866  0.3655
  794MOL0     C 7084   6.914   6.042  11.250 -0.3212  0.4977 -1.4663
  794MOL0     C 7085   6.826   6.075  11.136  0.2074 -0.0621 -0.3050
  794MOL0     O 7086   6.882   6.148  11.034  0.6273 -0.5069 -0.0684
  794MOL0     C 7087   6.805   6.199  10.932  0.4681 -0.2422 -0.1021
  794MOL0     C 7088   6.822   6.161  10.803 -0.1517 -1.2049 -0.2768
  794MOL0     C 7089   6.739   6.200  10.700  0.1376 -0.0805  0.2435
  794MOL0     C 7090   6.654   6.306  10.722  0.1954 -1.0094  0.2374
  794MOL0     O 7091   6.570   6.358  10.627 -0.8849 -0.1975 -0.7886
  794MOL0     C 7092   6.604   6.341  10.491 -0.5650  0.4839  0.0812
  794MOL0     C 7093   6.508   6.236  10.429 -1.0833  0.9576 -0.2106
  794MOL0     C 7094   6.585   6.106  10.395  0.5487 -0.2634 -0.2043
  794MOL0     C 7095   6.525   6.045  10.272  0.4994  0.9884 -0.1513
  794MOL0     C 7096   6.591   5.913  10.226  0.1586  0.0757 -0.5641
  794MOL0     C 7097   6.508   5.855  10.108  0.1730 -0.8202  1.0085
  794MOL0     C 7098   6.521   5.945   9.991  0.6104  0.0186 -0.4116
  794MOL0     C 7099   6.421   5.912   9.875  0.0845 -0.4345  0.4433
  794MOL0    Cl 7100   6.260   5.925   9.937 -0.0034 -0.6740 -0.2690
  794MOL0     C 7101   6.648   6.361  10.852 -0.7704 -0.0294  0.5009
  794MOL0     C 7102   6.719   6.302  10.962 -0.4294  0.3150 -0.3545
  794MOL0     O 7103   6.712   6.021  11.136 -1.0398 -0.2032  0.2195
  794MOL0     C 7104   7.054   6.082  11.246  0.6674  0.4650  0.0410
  794MOL0     C 7105   7.134   6.055  11.356  0.4730 -0.8946 -0.0494
  794MOL0     N 7106   7.242   5.462  11.862  0.0794 -1.2618  0.9766
  794MOL0     N 7107   7.208   5.337  11.834  0.0666  0.0063 -0.3916
  794MOL0     C 7108   7.313   4.088  11.430 -1.3166 -0.2737 -0.1364
  794MOL0     C 7109   7.247   3.970  11.453 -0.2541 -0.3633 -0.8784
  794MOL0     C 7110   6.999   3.627  11.560  0.1112 -0.1029 -0.5061
  794MOL0     C 7111   6.929   3.648  11.690  0.5213  1.4259  0.5820
  794MOL0     C 7112   6.859   3.538  11.752  0.4720 -0.1193  0.8318
  794MOL0     C 7113   6.849   3.414  11.685  0.3875 -0.3967 -0.0191
  794MOL0     O 7114   6.783   3.300  11.737 -0.4479  0.1352  0.2035
  794MOL0     C 7115   6.727   3.311  11.863  0.2597  0.0203 -0.6736
  794MOL0     C 7116   6.656   3.170  11.900 -1.6098  0.2480  0.4703
  794MOL0     C 7117   6.526   3.159  11.821 -0.3237 -0.8400 -0.6395
  794MOL0     C 7118   6.545   3.157  11.666  0.1169  0.3307 -0.1947
  794MOL0     C 7119   6.435   3.100  11.603  0.5689  0.0042  0.2729
  794MOL0     C 7120   6.345   3.055  11.533  0.2167  0.1882  0.7002
  794MOL0     C 7121   6.918   3.393  11.565  0.2728  0.9322 -0.0935
  794MOL0     C 7122   6.985   3.498  11.501 -0.3471 -0.4515  0.9121
  794MOL0     H 7123   6.973   4.090  11.613 -1.1494  1.2580 -1.7438
  794MOL0     H 7124   7.078   4.292  11.597 -0.8190 -0.4936  0.5276
  794MOL0     H 7125   7.185   4.481  11.461  1.2863  1.6855 -0.1067
  794MOL0     H 7126   7.280   4.448  11.612  1.4180 -0.5899 -0.3851
  794MOL0     H 7127   7.493   4.514  11.518 -2.1717  0.5301  4.6474
  794MOL0     H 7128   7.422   4.535  11.357  1.6608 -1.8416  1.0099
  794MOL0     H 7129   7.272   4.700  11.559 -0.1025  0.5112 -1.3461
  794MOL0     H 7130   7.444   4.723  11.586  2.0079 -4.4315 -0.9841
  794MOL0     H 7131   7.452   4.752  11.316 -1.0242 -0.9041 -2.3673
  794MOL0     H 7132   7.282   4.760  11.330  0.0013 -0.7852  0.2263
  794MOL0     H 7133   7.485   4.936  11.489  1.0340  5.5045 -3.8922
  794MOL0     H 7134   7.386   4.986  11.341 -3.6356 -1.4878 -1.9339
  794MOL0     H 7135   7.184   4.969  11.444  0.1365  0.5182 -0.8863
  794MOL0     H 7136   7.244   4.920  11.605  3.6724 -1.6010  0.3913
  794MOL0     H 7137   7.354   5.188  11.501 -0.6833  2.5518 -0.4890
  794MOL0     H 7138   7.180   5.174  11.549  1.5419  2.7835  0.1186
  794MOL0     H 7139   7.429   5.126  11.707  0.8741  2.1812  1.8325
  794MOL0     H 7140   7.265   5.076  11.767 -2.1636 -0.1304 -0.0596
  794MOL0     H 7141   7.459   5.379  11.632 -1.8877  0.7057 -0.6931
  794MOL0     H 7142   7.402   5.688  11.862  0.6135 -1.2125  1.1076
  794MOL0     H 7143   7.519   5.627  11.746 -0.5277 -1.8766 -1.0623
  794MOL0     H 7144   7.238   5.724  11.643  1.5447  0.8406 -1.3951
  794MOL0     H 7145   7.364   5.688  11.544 -0.0595  0.3820  0.1502
  794MOL0     H 7146   7.488   5.879  11.674 -0.6230 -3.4784  1.9870
  794MOL0     H 7147   7.343   5.895  11.768  0.6571 -1.5857 -0.3692
  794MOL0     H 7148   7.348   5.926  11.460  0.4271  1.2355  0.2830
  794MOL0     H 7149   7.362   6.064  11.549  0.8879 -0.0303 -1.6024
  794MOL0     H 7150   6.933   5.926  11.574  1.2193  0.0008 -0.3052
  794MOL0     H 7151   6.654   6.029  11.384 -1.0129 -1.5205 -1.0964
  794MOL0     H 7152   6.671   5.863  11.341  1.1077  0.2039 -0.6559
  794MOL0     H 7153   6.713   5.910  11.504  1.7007  3.0492  1.5585
  794MOL0     H 7154   6.905   6.094  10.781  2.1241  0.2939  2.8764
  794MOL0     H 7155   6.741   6.135  10.613  0.0882 -0.1972  0.3295
  794MOL0     H 7156   6.593   6.435  10.438 -1.7988  0.1878 -0.2149
  794MOL0     H 7157   6.708   6.305  10.488 -0.5411  0.5920 -0.5118
  794MOL0     H 7158   6.443   6.208  10.513  2.9027 -1.4751  2.4348
  794MOL0     H 7159   6.461   6.281  10.342  0.7598 -1.1043 -2.4254
  794MOL0     H 7160   6.577   6.043  10.483  3.1252 -0.9587 -0.3826
  794MOL0     H 7161   6.691   6.132  10.378  0.6617  0.0704  0.9594
  794MOL0     H 7162   6.421   6.018  10.294  0.3461 -0.4899 -2.3793
  794MOL0     H 7163   6.529   6.122  10.194  2.1122  0.7542 -0.3246
  794MOL0     H 7164   6.587   5.847  10.312 -0.4392  1.9469  0.9142
  794MOL0     H 7165   6.693   5.926  10.189  0.5124 -1.7378 -0.2943
  794MOL0     H 7166   6.556   5.763  10.074  3.4622  1.5306 -1.4321
  794MOL0     H 7167   6.405   5.848  10.145 -0.3819 -0.3435 -0.3589
  794MOL0     H 7168   6.621   5.940   9.948  0.5726  2.1651 -0.8434
  794MOL0     H 7169   6.519   6.052  10.014  0.0812  0.0244 -0.4580
  794MOL0     H 7170   6.441   5.808   9.848 -1.6339 -1.0587  1.4370
  794MOL0     H 7171   6.444   5.971   9.787  0.2401  1.6464  1.8149
  794MOL0     H 7172   6.591   6.452  10.869  0.5233  0.6931  1.1323
  794MOL0     H 7173   6.712   6.350  11.059  1.9543  0.6173 -0.2946
  794MOL0     H 7174   7.098   6.138  11.164  1.6944 -0.6977 -0.2283
  794MOL0     H 7175   7.232   6.102  11.350 -0.0802  0.6126  1.6152
  794MOL0     H 7176   7.406   4.094  11.374 -2.4613  0.2742 -2.0891
  794MOL0     H 7177   7.293   3.879  11.419 -0.2369 -0.0158 -1.7984
  794MOL0     H 7178   6.925   3.739  11.748 -0.3805  0.9004  1.3733
  794MOL0     H 7179   6.802   3.543  11.844 -0.3139 -2.3144  0.5153
  794MOL0     H 7180   6.808   3.335  11.932  0.3222  0.9915 -1.0698
  794MOL0     H 7181   6.641   3.380  11.865 -0.9877 -1.4841 -0.3357
  794MOL0     H 7182   6.644   3.163  12.008  3.4888  0.7014  1.3243
  794MOL0     H 7183   6.713   3.081  11.869  0.4687  0.4657  3.3004
  794MOL0     H 7184   6.467   3.249  11.841  0.5740  0.1171 -2.0938
  794MOL0     H 7185   6.471   3.075  11.865 -0.7219 -0.0183  0.4962
  794MOL0     H 7186   6.632   3.096  11.638  0.8850  1.2950  0.0216
  794MOL0     H 7187   6.561   3.253  11.617  2.2454 -0.4078 -1.0674
  794MOL0     H 7188   6.252   3.026  11.487 -0.0422  3.0098 -0.7630
  794MOL0     H 7189   6.921   3.289  11.534  3.7097  0.5152  1.2151
  794MOL0     H 7190   7.042   3.482  11.410  1.1347  0.7384  1.5917
  795MOL0     O 7191   8.797   4.674   9.678 -0.0010  0.6556 -0.4452
  795MOL0     C 7192   8.752   4.587   9.752  0.0909  0.3166  0.2183
  795MOL0     O 7193   8.626   4.545   9.751  0.3037 -0.4055  0.7976
  795MOL0     C 7194   8.527   4.589   9.666  0.4664 -0.2674  0.0300
  795MOL0     C 7195   8.399   4.554   9.700  0.5154  0.0944 -0.0495
  795MOL0     C 7196   8.288   4.556   9.613 -0.2279  0.9638  0.4383
  795MOL0     C 7197   8.308   4.613   9.486 -0.0947 -0.2235  0.9110
  795MOL0     O 7198   8.201   4.597   9.404 -0.0751  1.0127  0.1651
  795MOL0     C 7199   8.205   4.638   9.267 -0.8603  0.8896 -0.3887
  795MOL0     C 7200   8.076   4.585   9.196 -0.2042 -0.2572  0.0554
  795MOL0     C 7201   7.937   4.604   9.269 -0.6892  1.1892  0.2702
  795MOL0     C 7202   7.919   4.748   9.315  0.3759  0.9466 -0.9338
  795MOL0     C 7203   7.928   4.754   9.471  0.4391  1.0241  0.5803
  795MOL0     C 7204   7.915   4.901   9.523 -0.3955  0.5055  0.1012
  795MOL0     C 7205   7.778   4.966   9.488  0.6874  0.5974 -0.1857
  795MOL0     C 7206   7.730   5.074   9.595  0.6290  0.3247 -0.0419
  795MOL0     N 7207   7.822   5.189   9.599  0.7758 -0.0927 -0.2124
  795MOL0     C 7208   7.918   5.202   9.694 -0.2983 -0.1963  0.3233
  795MOL0     C 7209   7.981   5.318   9.675 -0.9749  0.5978 -0.4457
  795MOL0     C 7210   8.091   5.394   9.750  0.7040 -0.6809  0.9390
  795MOL0     C 7211   8.163   5.310   9.861  0.5509  0.4251 -0.2665
  795MOL0     C 7212   8.231   5.180   9.811 -0.4660 -0.3728  0.5188
  795MOL0     C 7213   8.333   5.185   9.693  0.1078 -0.3216 -1.1904
  795MOL0     O 7214   8.449   5.253   9.747 -0.1811 -0.0322  0.2542
  795MOL0     C 7215   8.552   5.267   9.652 -0.1487  0.8392  0.5251
  795MOL0     C 7216   8.576   5.171   9.547  0.4977 -0.4276 -0.1649
  795MOL0     C 7217   8.683   5.185   9.458  0.1271  0.3956 -0.5617
  795MOL0     C 7218   8.706   5.076   9.365 -0.2484  0.0683  1.1548
  795MOL0     C 7219   8.766   5.301   9.467 -0.4075 -0.1810 -0.2653
  795MOL0     C 7220   8.875   5.345   9.374 -0.1838 -0.2954 -0.1740
  795MOL0     O 7221   8.992   5.405   9.432 -0.0014 -0.5008 -0.5187
  795MOL0     C 7222   9.086   5.486   9.365 -0.1972 -0.0571  0.1886
  795MOL0     C 7223   9.164   5.561   9.440 -0.3328 -1.3533 -0.6693
  795MOL0     C 7224   9.257   5.651   9.380  0.1841  0.3585 -0.1020
  795MOL0     C 7225   9.271   5.653   9.242  0.3118 -0.6324  0.0166
  795MOL0     O 7226   9.351   5.737   9.170  0.0695 -0.3108 -0.2795
  795MOL0     C 7227   9.457   5.809   9.232 -0.3617 -0.1861 -0.3186
  795MOL0     C 7228   9.540   5.859   9.121 -0.6125 -0.1572 -1.3086
  795MOL0     C 7229   9.688   5.907   9.170 -0.0705  0.8580 -0.3705
  795MOL0     C 7230   9.772   5.909   9.055 -0.3328 -0.0558 -0.0063
  795MOL0     C 7231   9.757   6.037   8.979 -1.3790 -0.2109  0.4843
  795MOL0     C 7232   9.843   6.060   8.850  1.0139  0.3224 -0.3569
  795MOL0     C 7233   9.987   6.073   8.883  0.1973 -0.2094  1.3770
  795MOL0     C 7234  10.066   6.055   8.760 -0.9579  0.1107  0.1719
  795MOL0    Cl 7235  10.245   6.103   8.787  0.0016 -0.2579  0.2430
  795MOL0     C 7236   9.186   5.577   9.163  0.2173  0.1231  1.4139
  795MOL0     C 7237   9.106   5.491   9.221  0.8683  0.6228 -0.1041
  795MOL0     O 7238   8.854   5.312   9.255  0.0509  0.2588 -0.1050
  795MOL0     C 7239   8.748   5.392   9.575 -0.5417  0.3369  0.2480
  795MOL0     C 7240   8.642   5.378   9.662  0.8264  0.2465 -0.0702
  795MOL0     N 7241   7.910   5.384   9.569 -0.5415  0.6491  0.3868
  795MOL0     N 7242   7.821   5.299   9.515  0.4426 -0.3732 -0.3115
  795MOL0     C 7243   8.434   4.661   9.447 -2.0230  0.2649 -0.2608
  795MOL0     C 7244   8.543   4.647   9.539  0.1664  0.8005 -0.1375
  795MOL0     C 7245   8.834   4.517   9.849  0.1021  0.1249 -0.1199
  795MOL0     C 7246   8.971   4.536   9.876  0.6829  0.6111  0.0046
  795MOL0     C 7247   9.051   4.472   9.969  0.9732 -0.4866  0.0843
  795MOL0     C 7248   8.996   4.355  10.027 -0.2095 -0.6410  0.5221
  795MOL0     O 7249   9.078   4.276  10.107 -0.3088  0.4753  0.0142
  795MOL0     C 7250   9.021   4.189  10.200 -0.0226  0.7885  0.1779
  795MOL0     C 7251   9.122   4.126  10.295 -0.0475 -0.0794  0.3273
  795MOL0     C 7252   9.259   4.095  10.234 -0.6664  0.7288 -0.2513
  795MOL0     C 7253   9.358   4.040  10.335 -0.7871 -0.6627  0.0115
  795MOL0     C 7254   9.419   4.141  10.421  0.5790 -0.0312 -0.6941
  795MOL0     C 7255   9.472   4.228  10.491 -0.0035 -0.1172  0.6531
  795MOL0     C 7256   8.861   4.324  10.001 -0.4136 -0.3478 -0.4882
  795MOL0     C 7257   8.775   4.402   9.921 -0.1275  0.1397 -0.6117
  795MOL0     H 7258   8.368   4.499   9.789 -4.4535  2.1032 -0.2394
  795MOL0     H 7259   8.196   4.501   9.631 -0.5078  0.9730 -0.8693
  795MOL0     H 7260   8.220   4.746   9.258 -1.3438  1.2120  2.0338
  795MOL0     H 7261   8.297   4.594   9.228  0.2825  4.1448 -1.7320
  795MOL0     H 7262   8.076   4.627   9.095  2.7280  1.8886  0.8144
  795MOL0     H 7263   8.090   4.477   9.185 -0.6985 -0.1789 -1.7412
  795MOL0     H 7264   7.857   4.578   9.199  0.6175  0.8803 -1.1615
  795MOL0     H 7265   7.934   4.534   9.353 -2.0470  0.2139 -0.5545
  795MOL0     H 7266   7.996   4.812   9.269  0.1195  1.8784 -0.1032
  795MOL0     H 7267   7.824   4.782   9.274 -0.1147 -0.2021 -0.7775
  795MOL0     H 7268   7.847   4.686   9.499  1.5639 -1.6828 -2.1160
  795MOL0     H 7269   8.015   4.703   9.513 -1.5298 -3.4399 -0.1557
  795MOL0     H 7270   7.925   4.906   9.631  2.3307  2.3042 -0.1429
  795MOL0     H 7271   7.995   4.958   9.476 -1.3394  2.6860  0.9847
  795MOL0     H 7272   7.777   5.017   9.391  1.2146  0.3681 -0.3188
  795MOL0     H 7273   7.705   4.885   9.483 -2.0504  2.8362  0.7600
  795MOL0     H 7274   7.719   5.037   9.698 -2.7571  2.0349  0.3341
  795MOL0     H 7275   7.631   5.111   9.567 -0.1841  0.4958  2.7370
  795MOL0     H 7276   7.946   5.122   9.762  1.1541 -1.4845 -1.6929
  795MOL0     H 7277   8.171   5.414   9.678  0.0645 -1.6313 -0.0581
  795MOL0     H 7278   8.047   5.480   9.801  0.1575 -0.2522 -0.2322
  795MOL0     H 7279   8.090   5.274   9.934 -1.0199  0.7294 -1.6260
  795MOL0     H 7280   8.228   5.377   9.919  1.9331 -0.1348 -1.1302
  795MOL0     H 7281   8.153   5.109   9.783  1.1043 -1.5785 -0.9849
  795MOL0     H 7282   8.291   5.136   9.891  3.7897 -0.8438 -2.6154
  795MOL0     H 7283   8.291   5.240   9.608 -0.1856  2.5929  0.6634
  795MOL0     H 7284   8.356   5.081   9.671 -0.8684 -0.8155 -0.0460
  795MOL0     H 7285   8.511   5.085   9.548  0.6777 -0.6214 -1.8953
  795MOL0     H 7286   8.811   5.054   9.346 -0.5831  1.6941 -4.5003
  795MOL0     H 7287   8.648   4.986   9.386 -1.4956  0.9838  1.7813
  795MOL0     H 7288   8.666   5.108   9.268 -0.7791  1.1149  1.6978
  795MOL0     H 7289   9.150   5.581   9.545 -0.0729  0.3832 -0.9332
  795MOL0     H 7290   9.312   5.710   9.453 -0.4061 -2.2553  2.6463
  795MOL0     H 7291   9.425   5.902   9.280  1.8561 -0.8394  2.6919
  795MOL0     H 7292   9.505   5.756   9.314 -2.7885  1.4458  2.3276
  795MOL0     H 7293   9.539   5.770   9.058 -2.5582 -2.5558  1.8067
  795MOL0     H 7294   9.492   5.942   9.069  2.5240  1.8765 -1.2703
  795MOL0     H 7295   9.735   5.828   9.229  4.2866  1.5079 -2.5147
  795MOL0     H 7296   9.695   6.002   9.224  1.2386  1.3803 -1.3906
  795MOL0     H 7297   9.875   5.910   9.092 -0.2752 -0.6166 -0.1468
  795MOL0     H 7298   9.766   5.822   8.989 -1.4217 -0.3283  0.4367
  795MOL0     H 7299   9.774   6.126   9.041 -2.0097  1.7037 -1.9305
  795MOL0     H 7300   9.656   6.051   8.939 -0.6240  3.5664 -0.4720
  795MOL0     H 7301   9.821   5.982   8.776 -0.0663  0.8196 -0.5834
  795MOL0     H 7302   9.814   6.158   8.812  2.3808  0.3253 -1.4833
  795MOL0     H 7303  10.013   5.992   8.952  1.2980 -1.7511 -0.7283
  795MOL0     H 7304  10.030   6.166   8.921  5.7936 -1.5259 -0.6544
  795MOL0     H 7305  10.025   6.113   8.677  1.8043  0.3807 -1.1080
  795MOL0     H 7306  10.061   5.952   8.724 -0.4842  0.0085  0.3903
  795MOL0     H 7307   9.182   5.581   9.055 -1.0046  0.5744  1.4601
  795MOL0     H 7308   9.033   5.435   9.162 -0.9957 -1.1916  3.5690
  795MOL0     H 7309   8.811   5.479   9.591 -0.2150  0.1417  0.0309
  795MOL0     H 7310   8.628   5.441   9.749 -3.5787  1.5766 -1.5006
  795MOL0     H 7311   8.472   4.698   9.353  1.9182  0.6643  1.2824
  795MOL0     H 7312   8.648   4.666   9.520  0.7189 -1.0170  0.8995
  795MOL0     H 7313   9.021   4.623   9.835  0.9966  1.0885  1.3303
  795MOL0     H 7314   9.154   4.494   9.996  1.3616  0.0172 -1.6870
  795MOL0     H 7315   8.938   4.225  10.262  0.1458  0.8292  0.3831
  795MOL0     H 7316   8.971   4.110  10.143 -1.4723  1.0300  1.0757
  795MOL0     H 7317   9.078   4.032  10.330  2.9784 -1.9028 -0.3250
  795MOL0     H 7318   9.143   4.192  10.380 -1.4780  0.2378  0.4639
  795MOL0     H 7319   9.302   4.188  10.195  2.7052 -1.6837 -2.9363
  795MOL0     H 7320   9.246   4.029  10.147 -0.7880 -0.4621  0.6469
  795MOL0     H 7321   9.440   3.993  10.280  1.1002  1.5539  0.8232
  795MOL0     H 7322   9.306   3.967  10.398  1.1596 -1.6662  0.5152
  795MOL0     H 7323   9.527   4.290  10.558  1.1614 -0.0370 -0.3429
  795MOL0     H 7324   8.830   4.224  10.030 -0.1353  0.1128  1.5751
  795MOL0     H 7325   8.670   4.379   9.907 -0.6903  0.1426  2.7701
  796MOL0     O 7326   9.620   5.652   0.439  0.2969  0.0221  0.3687
  796MOL0     C 7327   9.578   5.537   0.416 -0.3469  0.5167  0.4785
  796MOL0     O 7328   9.576   5.471   0.289 -0.8609 -0.5187 -0.2816
  796MOL0     C 7329   9.639   5.552   0.196 -0.6528 -0.8680 -0.0532
  796MOL0     C 7330   9.567   5.640   0.122 -0.1954 -0.1319 -0.2197
  796MOL0     C 7331   9.629   5.714   0.017 -1.5641  0.1836 -0.0608
  796MOL0     C 7332   9.761   5.707  -0.023 -0.5255  0.5284 -0.3643
  796MOL0     O 7333   9.817   5.761  -0.134  0.0115  0.7926 -0.3477
  796MOL0     C 7334   9.738   5.764  -0.247 -0.3022  0.0328 -0.0561
  796MOL0     C 7335   9.814   5.777  -0.374 -0.5633  0.9345 -0.3572
  796MOL0     C 7336   9.718   5.771  -0.489 -1.1879  0.3157  0.6162
  796MOL0     C 7337   9.805   5.820  -0.611  0.9871  1.1968  0.6018
  796MOL0     C 7338   9.741   5.827  -0.748 -0.9484  0.2593  0.4880
  796MOL0     C 7339   9.813   5.748  -0.865 -1.0820 -0.9402  0.5766
  796MOL0     C 7340   9.961   5.799  -0.889  0.9192 -0.0256  0.0381
  796MOL0     C 7341   9.989   5.840  -1.038 -0.7571 -0.4786  0.3057
  796MOL0     N 7342   9.973   5.722  -1.126  0.4401 -0.2316  0.2702
  796MOL0     C 7343   9.868   5.704  -1.216 -0.4964 -0.6797 -0.1262
  796MOL0     C 7344   9.899   5.597  -1.279 -0.6568  0.7275  0.1207
  796MOL0     C 7345   9.809   5.529  -1.377 -0.9297  0.8571  0.5679
  796MOL0     C 7346   9.873   5.482  -1.508  0.0907  0.5500  0.7404
  796MOL0     C 7347  10.007   5.557  -1.542  1.6578  1.0373 -0.4464
  796MOL0     C 7348  10.063   5.535  -1.681  0.3262 -0.3197  1.2895
  796MOL0     O 7349   9.970   5.533  -1.786  0.5173  0.1498  0.2752
  796MOL0     C 7350   9.960   5.650  -1.851 -0.0591 -1.1107  1.4225
  796MOL0     C 7351   9.831   5.696  -1.881  0.8599  0.0139  0.9423
  796MOL0     C 7352   9.806   5.809  -1.956  0.0497 -0.6963 -0.4685
  796MOL0     C 7353   9.666   5.832  -2.011  0.1399 -0.1929 -0.6974
  796MOL0     C 7354   9.913   5.901  -1.991  0.7886 -0.4147  1.1892
  796MOL0     C 7355   9.892   6.042  -2.055  0.2883  0.2741 -0.3850
  796MOL0     O 7356  10.003   6.109  -2.081 -0.1447 -0.3801 -0.6784
  796MOL0     C 7357  10.007   6.220  -2.164 -0.8100 -1.1051 -0.0441
  796MOL0     C 7358  10.079   6.217  -2.288 -0.6478 -0.6014 -0.8094
  796MOL0     C 7359  10.096   6.332  -2.362  0.2095 -0.2487  0.2046
  796MOL0     C 7360  10.046   6.452  -2.304  0.7344  0.4626  1.1967
  796MOL0     O 7361  10.041   6.570  -2.379  0.1585 -0.2287  0.2505
  796MOL0     C 7362  10.144   6.666  -2.332  0.2047  0.0948 -0.3481
  796MOL0     C 7363  10.152   6.784  -2.430 -0.3733  0.3112 -0.1210
  796MOL0     C 7364  10.183   6.732  -2.571  0.6164  1.0405 -0.5523
  796MOL0     C 7365  10.270   6.827  -2.652  0.1714 -0.0456  0.2236
  796MOL0     C 7366  10.320   6.770  -2.786 -0.2256 -0.8572  0.4124
  796MOL0     C 7367  10.456   6.840  -2.817  0.0188 -0.2895 -0.0870
  796MOL0     C 7368  10.529   6.789  -2.944  0.9930  0.7610 -0.3495
  796MOL0     C 7369  10.657   6.865  -2.975  0.6623 -0.0514  1.3731
  796MOL0    Cl 7370  10.803   6.808  -2.897  0.3850 -0.1799  0.2697
  796MOL0     C 7371   9.973   6.449  -2.190 -0.1537  0.4813 -0.3532
  796MOL0     C 7372   9.955   6.332  -2.111 -0.1416  0.4032 -0.5810
  796MOL0     O 7373   9.780   6.090  -2.080  0.4138  0.2934  0.9819
  796MOL0     C 7374  10.039   5.853  -1.963 -0.2934 -1.4809  1.1222
  796MOL0     C 7375  10.061   5.730  -1.902  0.1903 -0.5168 -0.1820
  796MOL0     N 7376  10.010   5.541  -1.213 -0.3181  0.3138  0.5652
  796MOL0     N 7377  10.049   5.616  -1.127 -0.1414 -0.5913  0.3340
  796MOL0     C 7378   9.837   5.607   0.056 -0.0382 -0.1697 -0.5029
  796MOL0     C 7379   9.770   5.539   0.166 -0.8859  0.1922 -0.0123
  796MOL0     C 7380   9.544   5.461   0.533  0.6887  0.9793 -0.0016
  796MOL0     C 7381   9.585   5.491   0.667 -0.3704  0.4097  0.1898
  796MOL0     C 7382   9.545   5.416   0.771  0.3301  0.5107 -0.9353
  796MOL0     C 7383   9.445   5.320   0.755  0.4540 -0.6459  0.1308
  796MOL0     O 7384   9.394   5.240   0.859 -0.5241  0.6951 -1.0284
  796MOL0     C 7385   9.393   5.298   0.990  0.2973 -0.0046 -0.4218
  796MOL0     C 7386   9.505   5.244   1.072 -1.2445 -0.2477  0.2312
  796MOL0     C 7387   9.521   5.097   1.072 -0.3645 -0.8687 -0.1789
  796MOL0     C 7388   9.596   5.054   1.194 -0.1877  0.2334 -0.1406
  796MOL0     C 7389   9.607   4.909   1.189 -0.1549  0.0334 -0.5524
  796MOL0     C 7390   9.636   4.790   1.204  0.8721  0.6157  0.2261
  796MOL0     C 7391   9.401   5.281   0.628 -0.2268 -0.1068 -0.9646
  796MOL0     C 7392   9.461   5.345   0.520 -0.0178  0.1176  0.0557
  796MOL0     H 7393   9.463   5.626   0.149  0.0838 -1.5757  0.2046
  796MOL0     H 7394   9.571   5.781  -0.045  0.0891 -0.5950 -2.6301
  796MOL0     H 7395   9.688   5.666  -0.244  0.0251 -0.1874 -1.3277
  796MOL0     H 7396   9.666   5.844  -0.230 -1.1276 -0.9918  1.5846
  796MOL0     H 7397   9.870   5.871  -0.365 -2.1189  1.7262  1.7141
  796MOL0     H 7398   9.880   5.690  -0.384 -0.9961  0.5894 -0.2344
  796MOL0     H 7399   9.679   5.669  -0.500 -1.1054  0.5120 -2.1135
  796MOL0     H 7400   9.646   5.853  -0.482 -0.4777  1.0060  0.0761
  796MOL0     H 7401   9.837   5.920  -0.581 -1.2272  1.9187  0.7140
  796MOL0     H 7402   9.881   5.745  -0.637 -2.5058 -2.3872 -0.2996
  796MOL0     H 7403   9.642   5.782  -0.750 -0.9103  0.1616  0.7105
  796MOL0     H 7404   9.712   5.930  -0.770 -1.2766  0.7396  2.8631
  796MOL0     H 7405   9.816   5.640  -0.852 -0.5239 -1.0169 -0.0992
  796MOL0     H 7406   9.751   5.765  -0.954  1.1246  2.7077 -0.4992
  796MOL0     H 7407   9.982   5.893  -0.837 -3.8036  3.6934 -3.7815
  796MOL0     H 7408  10.030   5.724  -0.851 -2.1232 -2.8055  0.5048
  796MOL0     H 7409  10.091   5.881  -1.041 -0.9976  0.0904 -1.1099
  796MOL0     H 7410   9.921   5.916  -1.078 -0.2314  0.0830  0.4578
  796MOL0     H 7411   9.770   5.751  -1.225 -0.9225 -1.4189  0.5389
  796MOL0     H 7412   9.772   5.435  -1.335 -2.2980  0.8894 -0.4597
  796MOL0     H 7413   9.724   5.593  -1.403 -0.8887 -0.6652 -4.1821
  796MOL0     H 7414   9.793   5.513  -1.575 -2.1014 -2.5067  1.7141
  796MOL0     H 7415   9.872   5.373  -1.514 -0.8557  0.5972 -0.0641
  796MOL0     H 7416  10.079   5.548  -1.460 -0.3640  1.0833  1.4008
  796MOL0     H 7417   9.969   5.659  -1.549 -2.7490 -0.3302  0.7270
  796MOL0     H 7418  10.134   5.452  -1.685 -0.0249 -0.5875 -0.7689
  796MOL0     H 7419  10.139   5.611  -1.701  1.3887 -2.0785 -2.0772
  796MOL0     H 7420   9.749   5.631  -1.853 -1.9676  1.5104 -3.0122
  796MOL0     H 7421   9.680   5.861  -2.115 -1.2802  1.1778 -0.5463
  796MOL0     H 7422   9.603   5.743  -2.006 -1.0272  0.6125  3.6366
  796MOL0     H 7423   9.619   5.921  -1.968  3.4375  1.5744 -0.4037
  796MOL0     H 7424  10.139   6.130  -2.313  3.0541  1.4572  0.1261
  796MOL0     H 7425  10.156   6.315  -2.451  1.5366 -3.2633  1.5294
  796MOL0     H 7426  10.134   6.700  -2.229 -2.8049  1.2922 -0.9286
  796MOL0     H 7427  10.244   6.622  -2.328 -0.4516 -1.6598 -1.7631
  796MOL0     H 7428  10.057   6.838  -2.424 -0.6127  0.1057 -1.6280
  796MOL0     H 7429  10.229   6.848  -2.387 -1.7981  0.9660  1.5780
  796MOL0     H 7430  10.093   6.719  -2.632  1.1601  0.2113 -1.2196
  796MOL0     H 7431  10.225   6.631  -2.571  0.9866  1.1509 -2.3391
  796MOL0     H 7432  10.203   6.912  -2.668  1.3282  1.5355  3.0632
  796MOL0     H 7433  10.358   6.860  -2.596  0.6578  0.7991 -1.0026
  796MOL0     H 7434  10.250   6.792  -2.867 -0.1865  2.3314  1.0989
  796MOL0     H 7435  10.327   6.662  -2.773 -2.6589 -1.1504 -0.2347
  796MOL0     H 7436  10.429   6.944  -2.840 -0.9759 -0.3786  0.6277
  796MOL0     H 7437  10.528   6.857  -2.736  0.6591  1.6040 -0.9794
  796MOL0     H 7438  10.464   6.805  -3.031  2.1495 -1.6399 -1.7484
  796MOL0     H 7439  10.543   6.681  -2.941  0.3514  0.6072  3.7829
  796MOL0     H 7440  10.630   6.970  -2.959 -2.0269 -0.2543 -0.9559
  796MOL0     H 7441  10.670   6.851  -3.083 -4.1550  2.8562  0.0803
  796MOL0     H 7442   9.914   6.532  -2.153 -1.4373 -1.1795  1.5746
  796MOL0     H 7443   9.909   6.330  -2.012 -1.7965 -1.0445 -1.3159
  796MOL0     H 7444  10.124   5.900  -2.011 -0.2834 -0.5495  2.0340
  796MOL0     H 7445  10.165   5.716  -1.875  0.3179  2.5485  1.3128
  796MOL0     H 7446   9.943   5.589   0.041  0.7760  3.3322  0.0246
  796MOL0     H 7447   9.815   5.457   0.222 -3.3739 -0.1464  1.6712
  796MOL0     H 7448   9.656   5.572   0.685 -2.5685  2.8758 -1.5443
  796MOL0     H 7449   9.581   5.429   0.872 -2.0647  0.2397  0.0037
  796MOL0     H 7450   9.391   5.407   0.992 -0.5118  0.0034  2.0236
  796MOL0     H 7451   9.300   5.266   1.038  1.1658  0.0766  1.3962
  796MOL0     H 7452   9.490   5.275   1.176  0.3965  0.3155  0.3208
  796MOL0     H 7453   9.592   5.303   1.041 -0.0298 -0.8993  2.2332
  796MOL0     H 7454   9.575   5.063   0.983 -0.1171  0.5959 -0.6175
  796MOL0     H 7455   9.420   5.054   1.075 -1.3574  1.1005 -2.0519
  796MOL0     H 7456   9.549   5.090   1.286 -0.2431  3.0500 -1.1801
  796MOL0     H 7457   9.699   5.093   1.194 -0.6701  1.6284 -1.8183
  796MOL0     H 7458   9.645   4.687   1.233 -1.9929  0.1677 -0.2410
  796MOL0     H 7459   9.329   5.199   0.622  1.3888 -1.6153 -0.6349
  796MOL0     H 7460   9.427   5.312   0.423 -3.1262  4.2190 -0.5219
  797MOL0     O 7461  10.765   4.963   9.860 -0.0571  0.4044 -0.1035
  797MOL0     C 7462  10.741   5.053   9.778  0.1477 -0.3843  0.3385
  797MOL0     O 7463  10.624   5.120   9.769 -0.1065 -0.0469 -0.7398
  797MOL0     C 7464  10.525   5.091   9.855 -0.3599  0.1543 -1.1353
  797MOL0     C 7465  10.456   5.194   9.921 -0.8880  0.2673 -0.6630
  797MOL0     C 7466  10.336   5.169   9.984 -0.4338  0.3005  0.3905
  797MOL0     C 7467  10.286   5.039  10.008 -0.0329 -0.2068 -0.2469
  797MOL0     O 7468  10.163   5.019  10.069  0.0526  0.0350 -0.5888
  797MOL0     C 7469  10.064   5.122  10.050  0.5367 -0.0651 -0.1317
  797MOL0     C 7470   9.921   5.048  10.053 -0.6413  0.1886 -0.0582
  797MOL0     C 7471   9.889   5.021  10.195  1.0532  0.4282 -0.5979
  797MOL0     C 7472   9.763   4.931  10.193 -0.8932  0.0645  0.1171
  797MOL0     C 7473   9.745   4.845  10.319  0.3157 -0.5540 -0.2631
  797MOL0     C 7474   9.680   4.917  10.443 -0.0647 -0.7198  0.4932
  797MOL0     C 7475   9.704   4.859  10.592 -0.3061 -0.9861 -0.3737
  797MOL0     C 7476   9.652   4.720  10.626  0.7642  0.8075 -0.5825
  797MOL0     N 7477   9.736   4.629  10.537  0.1451 -0.4714  0.7385
  797MOL0     C 7478   9.875   4.598  10.550  0.0884  0.7089 -0.5366
  797MOL0     C 7479   9.882   4.484  10.470 -0.4412 -0.8935  0.4132
  797MOL0     C 7480  10.004   4.408  10.446  0.4091 -0.4133 -0.4550
  797MOL0     C 7481   9.986   4.268  10.503  0.6561  0.3675  0.4622
  797MOL0     C 7482  10.105   4.189  10.469 -0.2594  0.2996 -0.8399
  797MOL0     C 7483  10.097   4.040  10.521  0.0910  0.2743  0.2591
  797MOL0     O 7484  10.216   3.982  10.562  0.7567  0.6505 -0.3926
  797MOL0     C 7485  10.222   3.845  10.585 -0.3489  1.0933 -0.5002
  797MOL0     C 7486  10.102   3.760  10.604  0.3789  0.0997 -0.1649
  797MOL0     C 7487  10.118   3.622  10.620 -0.3691 -0.1182 -0.4896
  797MOL0     C 7488   9.986   3.539  10.608 -0.4579 -0.1681 -0.0024
  797MOL0     C 7489  10.249   3.568  10.625  0.0127 -0.8432  0.6689
  797MOL0     C 7490  10.268   3.428  10.645 -0.0983  0.2752 -0.8018
  797MOL0     O 7491  10.231   3.377  10.769  0.1422  0.1018  0.1978
  797MOL0     C 7492  10.259   3.253  10.801 -0.3134  0.6226 -0.8258
  797MOL0     C 7493  10.223   3.130  10.727  0.5261 -0.8663 -0.1433
  797MOL0     C 7494  10.272   3.006  10.779  0.0296  0.3551 -0.4322
  797MOL0     C 7495  10.342   2.992  10.895 -0.5672  0.0313  0.8472
  797MOL0     O 7496  10.395   2.876  10.951  0.5091  0.1755  0.0968
  797MOL0     C 7497  10.297   2.767  10.944 -0.6509  0.1135  0.3940
  797MOL0     C 7498  10.158   2.795  11.024 -0.1068 -0.1337 -0.2647
  797MOL0     C 7499  10.173   2.807  11.180 -0.4144  0.1448 -0.2913
  797MOL0     C 7500  10.189   2.952  11.224 -0.8054 -0.4224  0.0405
  797MOL0     C 7501  10.174   2.973  11.375 -0.0368 -1.2090  0.7319
  797MOL0     C 7502  10.299   3.003  11.455 -0.2577  0.6333  0.1464
  797MOL0     C 7503  10.406   2.886  11.462 -0.1631  0.3560  0.8582
  797MOL0     C 7504  10.546   2.938  11.500 -0.4262 -0.4960 -0.5183
  797MOL0    Cl 7505  10.659   2.796  11.483 -0.6180 -0.3641 -0.0154
  797MOL0     C 7506  10.372   3.111  10.959  0.1378  0.6151 -0.1465
  797MOL0     C 7507  10.337   3.237  10.917  0.0876 -0.3157  0.3610
  797MOL0     O 7508  10.323   3.364  10.553  0.0969 -0.0336 -0.6641
  797MOL0     C 7509  10.356   3.654  10.625  0.0231 -0.5456 -0.4835
  797MOL0     C 7510  10.351   3.789  10.604  0.1978 -0.3815 -0.6061
  797MOL0     N 7511   9.764   4.451  10.418  0.1810  0.2481  0.0844
  797MOL0     N 7512   9.669   4.534  10.463 -0.6549  0.1693  0.2221
  797MOL0     C 7513  10.355   4.937   9.958 -0.7873 -0.1765  0.3481
  797MOL0     C 7514  10.472   4.956   9.880  0.0378 -1.3938  0.5088
  797MOL0     C 7515  10.839   5.082   9.676 -0.1825 -0.4185  0.3807
  797MOL0     C 7516  10.812   5.173   9.569 -1.1764  0.3174 -0.7325
  797MOL0     C 7517  10.920   5.218   9.484 -0.2807 -1.1997  0.2001
  797MOL0     C 7518  11.055   5.173   9.502 -0.6124  0.3064  0.9935
  797MOL0     O 7519  11.157   5.234   9.432 -0.1394 -0.3748 -0.6296
  797MOL0     C 7520  11.143   5.367   9.370 -0.0127  0.4378  0.3931
  797MOL0     C 7521  11.155   5.474   9.474 -0.4986  0.9457  0.3066
  797MOL0     C 7522  11.020   5.538   9.507  1.0095 -0.4048  0.5086
  797MOL0     C 7523  11.035   5.666   9.603  0.6551 -0.3789 -1.0645
  797MOL0     C 7524  11.093   5.634   9.730  0.9443 -0.1239 -0.4211
  797MOL0     C 7525  11.129   5.615   9.845  1.4257  0.7830 -0.0837
  797MOL0     C 7526  11.079   5.084   9.612 -0.3126  1.3316  0.4063
  797MOL0     C 7527  10.967   5.033   9.685 -0.4369  0.0549 -1.2524
  797MOL0     H 7528  10.483   5.296   9.896  2.4335 -0.4098 -0.2153
  797MOL0     H 7529  10.284   5.253  10.029  0.9554  1.7958 -0.6715
  797MOL0     H 7530  10.063   5.207  10.119 -0.6060 -0.4337  0.3392
  797MOL0     H 7531  10.065   5.161   9.948 -1.0753  0.0683 -0.1239
  797MOL0     H 7532   9.855   5.123  10.009 -1.4559 -0.4934 -0.0244
  797MOL0     H 7533   9.911   4.957   9.992 -0.2731 -1.7411  2.5986
  797MOL0     H 7534   9.974   4.975  10.247  0.7354  1.3849  0.8242
  797MOL0     H 7535   9.864   5.118  10.239 -2.1080  0.1140 -1.4937
  797MOL0     H 7536   9.677   4.999  10.194 -1.5196 -0.6762  2.4951
  797MOL0     H 7537   9.753   4.865  10.106 -0.7684  0.0788  0.0921
  797MOL0     H 7538   9.681   4.765  10.280  1.8257 -1.7052 -0.4808
  797MOL0     H 7539   9.836   4.786  10.338  1.7576  0.5288 -3.1624
  797MOL0     H 7540   9.744   5.005  10.449  0.0616 -0.8720  4.1112
  797MOL0     H 7541   9.573   4.930  10.425 -0.0422  0.1088  0.9077
  797MOL0     H 7542   9.807   4.864  10.628 -1.5093  0.2624  3.3917
  797MOL0     H 7543   9.660   4.936  10.656 -0.2603  0.9078 -2.5139
  797MOL0     H 7544   9.545   4.710  10.610  0.5594 -0.0987  1.1154
  797MOL0     H 7545   9.681   4.684  10.725 -1.7641  0.2960  0.0451
  797MOL0     H 7546   9.957   4.655  10.593 -0.7619  0.4619  1.5559
  797MOL0     H 7547  10.018   4.405  10.337  4.5700 -0.4901 -0.0746
  797MOL0     H 7548  10.088   4.458  10.494 -2.1075  0.6602  3.2725
  797MOL0     H 7549   9.898   4.220  10.459  1.1252  0.9845 -1.2333
  797MOL0     H 7550   9.986   4.269  10.613  2.0682  0.8366  0.4829
  797MOL0     H 7551  10.195   4.234  10.512  1.4507 -2.0661 -1.7206
  797MOL0     H 7552  10.115   4.176  10.361 -1.5786  0.0451 -0.9451
  797MOL0     H 7553  10.037   3.979  10.453 -0.0233 -1.8589  2.1504
  797MOL0     H 7554  10.030   4.047  10.607  1.0117  4.4221  0.8562
  797MOL0     H 7555  10.007   3.809  10.588  0.9761  1.9426  1.5456
  797MOL0     H 7556   9.970   3.479  10.698 -0.4876 -2.2771 -1.3376
  797MOL0     H 7557   9.895   3.594  10.582 -1.8092 -2.2961 -0.0128
  797MOL0     H 7558   9.997   3.458  10.536  1.3487  0.3729 -0.3758
  797MOL0     H 7559  10.167   3.136  10.635  0.7350  2.5488 -0.2041
  797MOL0     H 7560  10.248   2.916  10.722  3.1912  0.6278 -2.4167
  797MOL0     H 7561  10.270   2.718  10.850  0.4572  0.6363 -0.2184
  797MOL0     H 7562  10.341   2.690  11.008 -2.0889  0.0018  1.2999
  797MOL0     H 7563  10.107   2.883  10.982  0.0920 -1.0085 -2.4502
  797MOL0     H 7564  10.095   2.707  11.010  1.4497 -1.5086  0.9812
  797MOL0     H 7565  10.253   2.738  11.207 -0.6209  0.3036  0.7376
  797MOL0     H 7566  10.082   2.779  11.233 -1.1427 -0.3606 -1.7333
  797MOL0     H 7567  10.278   3.002  11.187  0.2661  0.2406  3.2279
  797MOL0     H 7568  10.098   2.994  11.181 -0.0126  0.0788 -1.1826
  797MOL0     H 7569  10.123   2.881  11.406  0.4794 -1.5848  0.4776
  797MOL0     H 7570  10.105   3.055  11.397  0.3693 -1.2978  2.5350
  797MOL0     H 7571  10.351   3.094  11.425  0.1883  0.3683  0.0958
  797MOL0     H 7572  10.258   3.021  11.555  0.7067  3.7152  0.0822
  797MOL0     H 7573  10.411   2.852  11.358 -0.1949  3.7017 -0.3268
  797MOL0     H 7574  10.365   2.805  11.524 -1.4212  0.9355  0.8213
  797MOL0     H 7575  10.535   2.972  11.603  0.7819  3.8962 -1.6184
  797MOL0     H 7576  10.571   3.023  11.435  1.4590 -2.1920 -2.1235
  797MOL0     H 7577  10.422   3.103  11.055  2.6814 -0.8288 -1.5057
  797MOL0     H 7578  10.367   3.326  10.972 -0.0149  1.7211 -2.6413
  797MOL0     H 7579  10.454   3.608  10.612  1.3769  2.2590 -0.9569
  797MOL0     H 7580  10.441   3.849  10.607 -1.1269  1.8263 -1.9281
  797MOL0     H 7581  10.309   4.839   9.963 -2.4022  0.3394 -2.1854
  797MOL0     H 7582  10.535   4.881   9.833 -1.3026 -0.8436 -2.4123
  797MOL0     H 7583  10.715   5.218   9.552 -0.1495  2.0617 -2.4482
  797MOL0     H 7584  10.890   5.289   9.408  3.1307 -0.0198 -0.1862
  797MOL0     H 7585  11.241   5.385   9.326  1.4761 -1.3765  2.7031
  797MOL0     H 7586  11.050   5.382   9.314  1.0481  0.2245 -1.4872
  797MOL0     H 7587  11.228   5.544   9.433  0.6431 -0.6204 -0.4323
  797MOL0     H 7588  11.211   5.440   9.562 -0.5593  2.6942  1.0626
  797MOL0     H 7589  10.955   5.465   9.556 -1.5943  1.6806  0.3518
  797MOL0     H 7590  10.969   5.574   9.417 -0.8204  2.0595  2.3891
  797MOL0     H 7591  10.933   5.703   9.621  1.1521 -0.6918  3.7723
  797MOL0     H 7592  11.092   5.745   9.554  1.2393 -0.3339 -0.3271
  797MOL0     H 7593  11.154   5.610   9.949  0.5263  2.6658  0.2568
  797MOL0     H 7594  11.182   5.058   9.634 -0.2892  2.1221  1.3206
  797MOL0     H 7595  10.995   4.978   9.775  0.7589 -1.1668 -2.3299
  798MOL0     O 7596   9.673   7.034   1.221  0.4908 -0.0318 -1.2452
  798MOL0     C 7597   9.578   7.001   1.149 -0.1294 -0.7449 -0.9460
  798MOL0     O 7598   9.472   7.088   1.115 -0.3306  0.0906 -0.5362
  798MOL0     C 7599   9.470   7.216   1.164  0.5201  0.1195 -0.4891
  798MOL0     C 7600   9.569   7.306   1.132  0.6543  0.7424  0.0595
  798MOL0     C 7601   9.567   7.438   1.175 -0.3439  0.0951 -0.6162
  798MOL0     C 7602   9.457   7.495   1.243  0.6948  0.8963  0.0946
  798MOL0     O 7603   9.458   7.627   1.273 -0.1485 -0.9026 -0.3480
  798MOL0     C 7604   9.366   7.708   1.350  0.7013  0.5364  0.0745
  798MOL0     C 7605   9.393   7.852   1.335  0.5370 -0.8477  0.6487
  798MOL0     C 7606   9.518   7.897   1.411  0.5899  0.1162 -0.3369
  798MOL0     C 7607   9.512   8.049   1.406  0.4493 -0.1815 -0.1754
  798MOL0     C 7608   9.624   8.127   1.480 -0.1544 -0.3745 -0.0631
  798MOL0     C 7609   9.625   8.279   1.471 -0.7367 -0.3493  0.1657
  798MOL0     C 7610   9.745   8.343   1.555 -0.4221 -0.4084  0.4693
  798MOL0     C 7611   9.725   8.484   1.576  0.0663  0.2449 -0.1799
  798MOL0     N 7612   9.612   8.507   1.670 -1.3198  0.6775  0.3784
  798MOL0     C 7613   9.612   8.473   1.800 -0.4581  0.1180 -0.7886
  798MOL0     C 7614   9.505   8.526   1.854  0.9939 -1.5124 -0.4854
  798MOL0     C 7615   9.483   8.528   2.000  0.5300 -0.1023  0.3217
  798MOL0     C 7616   9.332   8.560   2.034 -0.2725 -0.4101  0.4320
  798MOL0     C 7617   9.317   8.584   2.187  0.0875  0.1529  0.0067
  798MOL0     C 7618   9.177   8.570   2.233  0.4840  0.8629 -0.9332
  798MOL0     O 7619   9.149   8.635   2.358 -0.3877  0.4306 -0.5784
  798MOL0     C 7620   9.031   8.620   2.421 -0.1329 -0.0290  0.3356
  798MOL0     C 7621   9.022   8.629   2.559  0.0498  0.5899 -0.6584
  798MOL0     C 7622   8.895   8.625   2.621  0.4176  1.2563 -0.1534
  798MOL0     C 7623   8.908   8.630   2.776  1.4385 -0.5252 -0.3212
  798MOL0     C 7624   8.776   8.610   2.546  0.4886 -0.5068 -0.2658
  798MOL0     C 7625   8.639   8.616   2.618  1.3541 -0.3408 -0.6513
  798MOL0     O 7626   8.532   8.588   2.525  0.3211  0.4230 -0.3253
  798MOL0     C 7627   8.404   8.611   2.560  0.8876 -0.0522 -0.4518
  798MOL0     C 7628   8.350   8.647   2.690 -0.0683 -0.4491 -0.1567
  798MOL0     C 7629   8.214   8.661   2.710 -0.4459  0.8278 -1.1370
  798MOL0     C 7630   8.116   8.651   2.616 -0.1070 -0.3756  0.0463
  798MOL0     O 7631   7.987   8.662   2.667  0.7688 -0.6682  0.0999
  798MOL0     C 7632   7.880   8.625   2.578 -0.8921  1.1692 -0.1303
  798MOL0     C 7633   7.751   8.594   2.656 -0.2768 -0.0197 -0.6632
  798MOL0     C 7634   7.770   8.468   2.750 -0.4345  0.3461  0.8184
  798MOL0     C 7635   7.641   8.398   2.771 -0.4008 -0.5241 -1.0641
  798MOL0     C 7636   7.667   8.263   2.845 -0.4094 -0.1301  0.9356
  798MOL0     C 7637   7.549   8.170   2.882 -0.1333 -0.0884  0.3970
  798MOL0     C 7638   7.595   8.032   2.923 -0.9570 -0.6373  0.1823
  798MOL0     C 7639   7.486   7.969   3.010  0.5434  0.0066  0.2329
  798MOL0    Cl 7640   7.490   7.995   3.189 -0.0409 -0.4532 -0.0579
  798MOL0     C 7641   8.157   8.623   2.486 -0.9790 -0.0559 -1.0465
  798MOL0     C 7642   8.298   8.597   2.462 -0.8047  0.1648  0.5172
  798MOL0     O 7643   8.635   8.632   2.735  0.3846  0.3836 -0.6085
  798MOL0     C 7644   8.787   8.591   2.409 -1.3919 -0.3132  0.8409
  798MOL0     C 7645   8.920   8.585   2.342  0.5289 -0.8869  0.0310
  798MOL0     N 7646   9.424   8.571   1.751  0.1538  0.4436  0.6607
  798MOL0     N 7647   9.484   8.547   1.640  0.0542  0.0777 -0.2961
  798MOL0     C 7648   9.346   7.410   1.275 -0.1419  0.5869 -0.7428
  798MOL0     C 7649   9.358   7.271   1.239  0.8074 -0.4797  0.3855
  798MOL0     C 7650   9.574   6.861   1.103 -0.3836  0.8849  0.4917
  798MOL0     C 7651   9.451   6.820   1.042 -0.0036 -0.1325  0.3475
  798MOL0     C 7652   9.443   6.699   0.985 -1.5810  0.4547 -0.0703
  798MOL0     C 7653   9.553   6.609   0.982  0.6906  0.2913  0.8062
  798MOL0     O 7654   9.543   6.479   0.932  0.3565 -0.4262 -0.0044
  798MOL0     C 7655   9.662   6.394   0.911 -0.7716  0.0361  0.5796
  798MOL0     C 7656   9.755   6.429   0.792 -0.1165  0.7560  0.2266
  798MOL0     C 7657   9.668   6.439   0.666 -0.5960 -0.7842  0.3114
  798MOL0     C 7658   9.754   6.475   0.544 -0.9027 -0.6898 -0.5438
  798MOL0     C 7659   9.669   6.422   0.437  0.2434  0.4027  0.4687
  798MOL0     C 7660   9.581   6.391   0.358 -0.4140 -0.0566 -0.0410
  798MOL0     C 7661   9.671   6.665   1.033 -0.3203 -0.0284 -0.2344
  798MOL0     C 7662   9.683   6.787   1.097 -0.1803 -0.0733  0.6814
  798MOL0     H 7663   9.647   7.254   1.078  0.5103 -1.6024  1.9705
  798MOL0     H 7664   9.657   7.492   1.146 -0.8627  0.6070 -1.3250
  798MOL0     H 7665   9.263   7.701   1.315  0.8040  1.2613 -0.4042
  798MOL0     H 7666   9.378   7.664   1.449  1.3503  0.1383 -0.1761
  798MOL0     H 7667   9.394   7.878   1.229 -0.4896 -0.9066  0.6201
  798MOL0     H 7668   9.303   7.902   1.373  0.9981 -1.4375  2.6270
  798MOL0     H 7669   9.530   7.849   1.509 -1.9277 -1.3584 -0.6568
  798MOL0     H 7670   9.610   7.877   1.354 -0.0835  0.7482 -1.6916
  798MOL0     H 7671   9.508   8.081   1.302 -0.3603 -0.6756 -0.3037
  798MOL0     H 7672   9.420   8.073   1.462 -0.0233 -2.3092  0.0146
  798MOL0     H 7673   9.630   8.100   1.586 -0.0462 -2.4733 -0.5634
  798MOL0     H 7674   9.718   8.087   1.441 -0.2003 -0.1227 -0.4350
  798MOL0     H 7675   9.624   8.307   1.365 -2.7180  0.3985  0.3409
  798MOL0     H 7676   9.524   8.312   1.497  0.4181  3.1100  0.6747
  798MOL0     H 7677   9.761   8.295   1.652 -2.2575  2.5409  2.3911
  798MOL0     H 7678   9.839   8.336   1.499 -0.4521 -0.4637  0.4254
  798MOL0     H 7679   9.695   8.532   1.482 -1.3119 -0.5138 -0.1449
  798MOL0     H 7680   9.819   8.520   1.619  0.3033 -0.8703  0.2719
  798MOL0     H 7681   9.687   8.417   1.855 -2.6904 -1.5026  0.7599
  798MOL0     H 7682   9.514   8.434   2.046  3.5921 -1.0834 -3.1963
  798MOL0     H 7683   9.553   8.606   2.031  1.3068  0.3798 -2.3613
  798MOL0     H 7684   9.281   8.469   2.002 -0.1203  0.4711 -2.6295
  798MOL0     H 7685   9.280   8.643   1.984  3.1918  0.8058 -1.5304
  798MOL0     H 7686   9.337   8.688   2.215  0.5026 -0.6105  2.8047
  798MOL0     H 7687   9.390   8.519   2.237 -1.3768  0.8302  3.2899
  798MOL0     H 7688   9.155   8.462   2.234 -1.6244  1.2185  1.1430
  798MOL0     H 7689   9.114   8.614   2.156  1.5339  0.0308 -2.3227
  798MOL0     H 7690   9.117   8.643   2.610  0.7324 -0.3683 -1.6358
  798MOL0     H 7691   8.873   8.540   2.829 -0.9798  0.6952  0.3254
  798MOL0     H 7692   9.014   8.647   2.799  1.5097  1.4139 -1.8644
  798MOL0     H 7693   8.854   8.720   2.807  2.2212 -0.1243 -0.0979
  798MOL0     H 7694   8.422   8.652   2.771 -0.3314  1.7349  0.0034
  798MOL0     H 7695   8.183   8.701   2.806  0.7466 -0.0506 -0.3657
  798MOL0     H 7696   7.866   8.705   2.505  0.3172 -0.6442 -2.4820
  798MOL0     H 7697   7.912   8.532   2.529  1.7128  0.8912  1.8338
  798MOL0     H 7698   7.737   8.685   2.715 -0.0675 -0.3384 -0.1168
  798MOL0     H 7699   7.667   8.567   2.590  0.4760 -1.5100 -1.0533
  798MOL0     H 7700   7.809   8.494   2.849 -0.6951 -1.7119  1.5122
  798MOL0     H 7701   7.835   8.394   2.702 -1.8209 -0.8984  0.7924
  798MOL0     H 7702   7.579   8.464   2.831  1.2489 -1.8845  2.3708
  798MOL0     H 7703   7.590   8.371   2.677  0.4422 -1.5756 -1.2382
  798MOL0     H 7704   7.714   8.281   2.942  0.8606 -0.2591  0.3686
  798MOL0     H 7705   7.742   8.200   2.796 -3.5898 -3.5162  0.0365
  798MOL0     H 7706   7.501   8.220   2.967  1.0378 -1.1719  1.7376
  798MOL0     H 7707   7.471   8.160   2.805 -0.0930  2.3286 -0.0529
  798MOL0     H 7708   7.682   8.037   2.989 -2.7088  1.2520  2.5373
  798MOL0     H 7709   7.610   7.983   2.826 -2.0959  0.4162 -0.5467
  798MOL0     H 7710   7.482   7.860   2.997  0.8414 -0.2083  1.7481
  798MOL0     H 7711   7.391   8.006   2.970  2.5371  3.1030 -2.0853
  798MOL0     H 7712   8.079   8.621   2.410 -3.2933 -1.6760  1.2233
  798MOL0     H 7713   8.322   8.575   2.358 -1.5788  0.3374  0.2988
  798MOL0     H 7714   8.707   8.574   2.338  1.6367 -3.1543 -2.2282
  798MOL0     H 7715   8.931   8.564   2.236 -1.7906  2.4051 -1.0349
  798MOL0     H 7716   9.256   7.435   1.331  1.5113  3.4411  0.8559
  798MOL0     H 7717   9.288   7.192   1.264  0.7601 -0.0355  1.7272
  798MOL0     H 7718   9.362   6.880   1.030 -0.9909 -1.6429 -0.1086
  798MOL0     H 7719   9.345   6.667   0.950 -1.7718 -0.4389  1.2196
  798MOL0     H 7720   9.717   6.404   1.006 -2.9820  3.6945  1.6798
  798MOL0     H 7721   9.634   6.289   0.900  0.3985 -0.0486 -2.6865
  798MOL0     H 7722   9.827   6.347   0.781 -1.3420 -0.4715  1.0688
  798MOL0     H 7723   9.813   6.521   0.802 -0.2709  0.7198  1.6196
  798MOL0     H 7724   9.592   6.518   0.674 -1.3511 -1.6296  2.0718
  798MOL0     H 7725   9.620   6.340   0.660 -0.8136 -0.8183  2.0776
  798MOL0     H 7726   9.851   6.426   0.553 -0.2818  0.6835  0.5662
  798MOL0     H 7727   9.763   6.584   0.542  0.9952 -0.8076 -0.1632
  798MOL0     H 7728   9.510   6.374   0.280  0.4995  0.4485 -0.9941
  798MOL0     H 7729   9.767   6.619   1.011 -0.0784 -0.1940  1.1047
  798MOL0     H 7730   9.782   6.814   1.131  0.4959  1.8825 -2.4354
  799MOL0     O 7731   4.236  11.474   0.322  0.3525  0.1378  0.4757
  799MOL0     C 7732   4.328  11.554   0.320  1.2052 -0.1947  0.6027
  799MOL0     O 7733   4.360  11.648   0.414  0.7724  0.7284 -0.0366
  799MOL0     C 7734   4.260  11.700   0.496 -0.7366 -0.2969  0.0386
  799MOL0     C 7735   4.194  11.627   0.595 -0.6040 -0.5549  0.5534
  799MOL0     C 7736   4.094  11.686   0.676 -1.0643  0.1963  0.3310
  799MOL0     C 7737   4.066  11.821   0.661 -0.8769 -0.0970 -0.7037
  799MOL0     O 7738   3.967  11.877   0.735 -0.3689  0.7640  0.5183
  799MOL0     C 7739   3.909  12.008   0.701  0.1144 -0.3424  0.8901
  799MOL0     C 7740   3.779  12.032   0.787 -1.1762  1.0691  0.1464
  799MOL0     C 7741   3.804  12.005   0.934  0.2209  0.3173  0.2052
  799MOL0     C 7742   3.751  11.863   0.993 -0.6579 -0.1521  0.0494
  799MOL0     C 7743   3.611  11.824   0.943 -0.1056 -0.0870  1.2288
  799MOL0     C 7744   3.534  11.723   1.025 -0.0313 -0.8340  0.5421
  799MOL0     C 7745   3.587  11.578   1.017 -0.0604 -0.1622 -0.4407
  799MOL0     C 7746   3.548  11.495   0.878 -1.2385  0.7412 -0.0033
  799MOL0     N 7747   3.403  11.487   0.878 -0.7702 -0.1075 -0.3085
  799MOL0     C 7748   3.334  11.374   0.908 -0.1824 -0.2848 -0.0143
  799MOL0     C 7749   3.208  11.395   0.867 -0.0071 -0.4599  0.9577
  799MOL0     C 7750   3.104  11.296   0.893  0.6924 -0.2798 -0.3383
  799MOL0     C 7751   3.066  11.299   1.040 -0.6024 -0.5923 -0.6366
  799MOL0     C 7752   2.997  11.434   1.083  0.3041  0.5938 -0.0989
  799MOL0     C 7753   2.944  11.411   1.230 -0.0477  0.0970  0.3379
  799MOL0     O 7754   2.857  11.526   1.273 -1.5549  0.6882  0.1619
  799MOL0     C 7755   2.745  11.488   1.348 -0.4095 -0.0284 -0.6313
  799MOL0     C 7756   2.647  11.416   1.286  0.3917 -0.2538  0.2469
  799MOL0     C 7757   2.517  11.390   1.338  0.1131 -0.2489  0.6386
  799MOL0     C 7758   2.417  11.333   1.242 -0.2722 -0.2636 -0.4778
  799MOL0     C 7759   2.490  11.424   1.476 -0.9675  0.5156 -0.6686
  799MOL0     C 7760   2.373  11.413   1.556 -0.2984 -0.0398 -0.4966
  799MOL0     O 7761   2.405  11.384   1.691  0.1788 -0.6879  0.0551
  799MOL0     C 7762   2.303  11.415   1.783 -0.0142  0.0436 -0.1946
  799MOL0     C 7763   2.195  11.333   1.803  0.6478 -0.4112  0.0871
  799MOL0     C 7764   2.093  11.360   1.900 -0.3199 -0.1594  0.1555
  799MOL0     C 7765   2.117  11.460   1.996  1.0005  0.7025  0.5835
  799MOL0     O 7766   2.036  11.502   2.104 -0.4171 -0.2423 -0.3472
  799MOL0     C 7767   1.902  11.460   2.128 -0.0613  0.0092  0.5642
  799MOL0     C 7768   1.841  11.534   2.246  0.6908 -1.1052  0.1973
  799MOL0     C 7769   1.850  11.690   2.253  0.0706 -0.1557  0.1123
  799MOL0     C 7770   1.777  11.749   2.365 -1.4726  0.6346 -0.0081
  799MOL0     C 7771   1.740  11.891   2.348  0.7436  0.2947  0.6803
  799MOL0     C 7772   1.671  11.958   2.465 -0.5116 -0.8303  0.5197
  799MOL0     C 7773   1.652  12.105   2.436  0.0248 -0.6710  0.2371
  799MOL0     C 7774   1.528  12.167   2.503 -0.0823 -0.2608  0.1204
  799MOL0    Cl 7775   1.538  12.346   2.484 -0.2331 -0.2479 -0.1067
  799MOL0     C 7776   2.238  11.530   1.986 -0.1257  0.0768 -0.4422
  799MOL0     C 7777   2.328  11.502   1.884 -0.9522 -0.6967 -0.5063
  799MOL0     O 7778   2.260  11.421   1.511  0.0182 -0.3175  0.2246
  799MOL0     C 7779   2.591  11.505   1.538  0.5545 -0.1251 -0.1244
  799MOL0     C 7780   2.717  11.534   1.480  0.3573 -0.7756 -0.1274
  799MOL0     N 7781   3.198  11.522   0.798 -0.7197 -0.3375 -0.1242
  799MOL0     N 7782   3.322  11.569   0.800  0.6666 -0.5192 -0.0798
  799MOL0     C 7783   4.146  11.900   0.576 -0.0911 -0.0212 -0.2969
  799MOL0     C 7784   4.236  11.838   0.487  0.0391  0.3324 -0.7401
  799MOL0     C 7785   4.416  11.551   0.204  0.2856  0.0497  0.0385
  799MOL0     C 7786   4.551  11.600   0.217  0.2421  0.1291  0.7528
  799MOL0     C 7787   4.637  11.578   0.104  0.0847  0.4232 -0.0653
  799MOL0     C 7788   4.593  11.511  -0.015 -0.5768 -0.5556  0.8438
  799MOL0     O 7789   4.685  11.486  -0.115  0.2471 -0.2834 -0.2109
  799MOL0     C 7790   4.822  11.453  -0.077 -0.4896 -0.0876 -0.6112
  799MOL0     C 7791   4.879  11.365  -0.180 -0.4327 -0.4135 -0.3067
  799MOL0     C 7792   4.889  11.442  -0.312 -0.3305 -0.3531  0.1397
  799MOL0     C 7793   4.940  11.362  -0.437 -0.5159 -0.5417  0.9959
  799MOL0     C 7794   5.065  11.297  -0.408 -0.6757  1.1846  0.1136
  799MOL0     C 7795   5.164  11.229  -0.376 -0.9108 -0.0358  0.4015
  799MOL0     C 7796   4.460  11.460  -0.024  0.5980 -0.6794 -0.2930
  799MOL0     C 7797   4.374  11.479   0.089  0.2660 -0.5025 -0.5647
  799MOL0     H 7798   4.206  11.519   0.596  1.8394 -0.3613  2.9940
  799MOL0     H 7799   4.054  11.613   0.746  3.3979 -3.1991 -0.1603
  799MOL0     H 7800   3.987  12.079   0.732  0.7259  0.2466 -1.7877
  799MOL0     H 7801   3.904  12.016   0.592 -3.1283  1.4252  1.0533
  799MOL0     H 7802   3.752  12.137   0.779 -2.5213  0.7866  0.6978
  799MOL0     H 7803   3.699  11.968   0.748 -1.9802  1.5049  1.0664
  799MOL0     H 7804   3.910  12.015   0.959  0.8571 -3.0192 -0.7051
  799MOL0     H 7805   3.753  12.073   1.004  0.4763  0.2843  0.4242
  799MOL0     H 7806   3.826  11.795   0.952  0.4030  2.3207 -2.4413
  799MOL0     H 7807   3.752  11.857   1.102  1.4553  1.6417  0.1886
  799MOL0     H 7808   3.547  11.912   0.933  0.1816 -0.0624 -0.8469
  799MOL0     H 7809   3.622  11.795   0.838  1.0884  4.2798 -0.0490
  799MOL0     H 7810   3.540  11.738   1.133  3.1432 -0.4613  0.4042
  799MOL0     H 7811   3.429  11.725   0.993 -0.9580  0.3695  3.3597
  799MOL0     H 7812   3.695  11.576   1.032 -0.3920  1.9824  4.3358
  799MOL0     H 7813   3.547  11.520   1.101 -2.6996 -0.8496 -2.0395
  799MOL0     H 7814   3.591  11.395   0.869 -1.7951  0.5191 -0.2229
  799MOL0     H 7815   3.595  11.552   0.798  2.3188 -0.6596  0.8917
  799MOL0     H 7816   3.369  11.283   0.956 -2.9725 -0.9648  0.9214
  799MOL0     H 7817   3.024  11.315   0.821  1.6827  3.1836 -0.6959
  799MOL0     H 7818   3.147  11.199   0.866 -0.9010 -0.5823 -2.0551
  799MOL0     H 7819   3.158  11.280   1.096  1.0835  1.3685 -2.5637
  799MOL0     H 7820   2.988  11.230   1.072 -1.0913  0.9382  1.6627
  799MOL0     H 7821   2.916  11.454   1.012  1.7667  0.6927 -1.8144
  799MOL0     H 7822   3.063  11.518   1.063  1.9995 -0.6743 -0.0807
  799MOL0     H 7823   3.025  11.405   1.303 -0.6433  1.1727  1.1128
  799MOL0     H 7824   2.885  11.318   1.235 -2.6324  1.6652  1.3474
  799MOL0     H 7825   2.663  11.380   1.185 -4.1615  0.9784 -1.1660
  799MOL0     H 7826   2.435  11.233   1.201  0.0168 -0.5566  0.3257
  799MOL0     H 7827   2.320  11.328   1.293 -0.4066  0.5371 -0.6369
  799MOL0     H 7828   2.404  11.408   1.164 -0.6714 -1.6958 -1.8335
  799MOL0     H 7829   2.177  11.248   1.738 -0.1485 -1.1170  1.2004
  799MOL0     H 7830   2.007  11.293   1.903 -2.5634  2.4922 -1.3176
  799MOL0     H 7831   1.839  11.495   2.045 -1.2088 -0.9063  1.0164
  799MOL0     H 7832   1.901  11.352   2.147 -3.6976  0.4136  3.9736
  799MOL0     H 7833   1.733  11.516   2.244  0.3841  0.4433 -2.5032
  799MOL0     H 7834   1.892  11.496   2.334 -1.6017 -0.2036  2.0101
  799MOL0     H 7835   1.816  11.744   2.163  1.3610  0.9182  0.2340
  799MOL0     H 7836   1.955  11.715   2.268 -0.3790  0.5233  2.4039
  799MOL0     H 7837   1.692  11.684   2.391 -0.0003 -1.9520 -1.2376
  799MOL0     H 7838   1.845  11.748   2.451 -0.7300 -0.7781 -0.5762
  799MOL0     H 7839   1.663  11.889   2.271 -1.4438 -0.6970  2.7367
  799MOL0     H 7840   1.823  11.946   2.303 -0.7057  1.2260 -0.9736
  799MOL0     H 7841   1.576  11.905   2.479 -2.7637  2.4549 -1.0904
  799MOL0     H 7842   1.741  11.952   2.548 -0.9988 -2.7302  0.8588
  799MOL0     H 7843   1.630  12.115   2.329 -0.5693  1.7308  0.5233
  799MOL0     H 7844   1.746  12.159   2.453  1.4229 -2.2551 -1.9426
  799MOL0     H 7845   1.521  12.147   2.611  1.9178 -0.3859  0.2685
  799MOL0     H 7846   1.443  12.126   2.450 -1.1764 -0.0563  1.6527
  799MOL0     H 7847   2.275  11.591   2.068  0.3069  0.7355 -1.1192
  799MOL0     H 7848   2.423  11.555   1.889 -1.0279 -0.6299  0.3805
  799MOL0     H 7849   2.573  11.554   1.633 -0.3004 -0.7796  0.0534
  799MOL0     H 7850   2.793  11.595   1.526 -1.1029 -0.4323  1.9569
  799MOL0     H 7851   4.126  12.005   0.558 -1.2645 -0.5517 -2.6142
  799MOL0     H 7852   4.290  11.905   0.421  2.4222  0.1725  0.8913
  799MOL0     H 7853   4.588  11.645   0.308 -2.1408 -1.3067  2.5513
  799MOL0     H 7854   4.738  11.615   0.122 -0.8998  1.6654  4.1259
  799MOL0     H 7855   4.884  11.544  -0.073  0.3502 -0.5239 -2.4903
  799MOL0     H 7856   4.835  11.408   0.022  2.5564  1.5392 -0.1270
  799MOL0     H 7857   4.809  11.284  -0.205  2.1607 -2.1101 -2.6400
  799MOL0     H 7858   4.973  11.317  -0.152  1.2786  2.5867 -0.5244
  799MOL0     H 7859   4.943  11.533  -0.287  0.2237 -1.2015  2.2472
  799MOL0     H 7860   4.785  11.471  -0.333 -0.8375 -1.9525  0.2895
  799MOL0     H 7861   4.943  11.430  -0.522  0.1058  2.5443  3.2883
  799MOL0     H 7862   4.866  11.284  -0.458 -1.7583 -0.2770  3.8472
  799MOL0     H 7863   5.251  11.174  -0.349  0.9678  2.1621 -0.7916
  799MOL0     H 7864   4.442  11.412  -0.119  1.0467  1.5586 -1.5660
  799MOL0     H 7865   4.274  11.438   0.082  0.0155 -0.3142  1.5337
  800MOL0     O 7866  10.023   1.965   7.227 -0.5455  0.5757  0.5892
  800MOL0     C 7867  10.015   1.851   7.172  0.3014  0.7198 -0.5760
  800MOL0     O 7868   9.910   1.774   7.185  0.3655 -0.2360 -0.2906
  800MOL0     C 7869   9.784   1.804   7.243 -0.8060 -0.2079  0.2871
  800MOL0     C 7870   9.709   1.696   7.280  0.2080 -0.1262 -0.0727
  800MOL0     C 7871   9.572   1.712   7.332 -0.2102  0.4814 -0.0918
  800MOL0     C 7872   9.508   1.830   7.331  0.7774 -0.9046 -1.1820
  800MOL0     O 7873   9.391   1.837   7.398 -0.2401  0.1160 -0.7199
  800MOL0     C 7874   9.340   1.965   7.444  0.6781  0.2181  0.2153
  800MOL0     C 7875   9.248   1.932   7.562  0.5136 -0.6608 -0.2741
  800MOL0     C 7876   9.130   1.855   7.504  0.5174 -0.5432  0.5163
  800MOL0     C 7877   9.056   1.767   7.603  1.2261  0.2289 -0.7726
  800MOL0     C 7878   8.925   1.831   7.683 -0.2546  0.1656 -0.7017
  800MOL0     C 7879   8.850   1.721   7.760 -0.0258  0.9796 -0.1260
  800MOL0     C 7880   8.724   1.779   7.833 -0.5730 -0.5256 -0.0594
  800MOL0     C 7881   8.692   1.676   7.950 -1.1063 -0.2169  1.0935
  800MOL0     N 7882   8.555   1.685   7.975  0.1021  0.5689  0.2208
  800MOL0     C 7883   8.486   1.576   8.022 -0.5172  0.0565 -0.6079
  800MOL0     C 7884   8.362   1.615   8.067  0.5219 -0.1335  0.6941
  800MOL0     C 7885   8.257   1.535   8.140 -0.1307  0.4905  0.0638
  800MOL0     C 7886   8.294   1.516   8.286 -0.1439 -0.2551 -1.2792
  800MOL0     C 7887   8.185   1.427   8.368 -0.0208  1.0452  0.5768
  800MOL0     C 7888   8.222   1.381   8.508 -0.5263 -0.2239 -0.4203
  800MOL0     O 7889   8.096   1.377   8.564 -0.3881  0.2990 -0.4348
  800MOL0     C 7890   8.085   1.364   8.700 -0.5440  0.4600  0.3280
  800MOL0     C 7891   7.976   1.292   8.753  0.4374 -0.0509  0.7618
  800MOL0     C 7892   7.959   1.268   8.895 -0.1130  0.2162 -0.2060
  800MOL0     C 7893   7.835   1.191   8.938 -0.1826 -1.1148  0.0869
  800MOL0     C 7894   8.057   1.328   8.991 -0.0751 -0.8593 -0.8591
  800MOL0     C 7895   8.057   1.326   9.143  0.3154  0.1916  0.2916
  800MOL0     O 7896   8.175   1.371   9.212 -0.3859 -0.6756  0.0403
  800MOL0     C 7897   8.173   1.407   9.345  1.0094 -0.6656 -0.2749
  800MOL0     C 7898   8.081   1.501   9.390  0.1843  0.0176 -1.0574
  800MOL0     C 7899   8.081   1.542   9.519 -1.0174 -0.0088 -0.4577
  800MOL0     C 7900   8.171   1.490   9.615 -0.8146 -0.4816  0.2895
  800MOL0     O 7901   8.174   1.532   9.746 -0.7196 -0.2355 -0.3483
  800MOL0     C 7902   8.218   1.441   9.854 -0.1343 -0.1861 -0.3963
  800MOL0     C 7903   8.319   1.504   9.948 -0.7266 -0.5080 -0.1703
  800MOL0     C 7904   8.458   1.484   9.905  0.6162 -0.1604  0.4113
  800MOL0     C 7905   8.553   1.529  10.018 -0.5297 -0.3292 -0.6783
  800MOL0     C 7906   8.576   1.674  10.033 -0.5576 -1.0166 -0.1450
  800MOL0     C 7907   8.727   1.710  10.031 -0.8236  0.4883  0.6166
  800MOL0     C 7908   8.749   1.842  10.102  0.1328 -0.2524  0.1893
  800MOL0     C 7909   8.899   1.906  10.101 -0.1028  0.2816  0.1668
  800MOL0    Cl 7910   8.967   1.870   9.950 -0.2270 -0.3454  0.1207
  800MOL0     C 7911   8.266   1.399   9.565  0.4265  0.4869 -0.2455
  800MOL0     C 7912   8.274   1.359   9.432  0.8437 -0.4731  0.9448
  800MOL0     O 7913   7.951   1.300   9.197 -0.5127 -0.2826 -0.2541
  800MOL0     C 7914   8.168   1.402   8.933  0.6416 -0.7898 -0.3301
  800MOL0     C 7915   8.175   1.417   8.797  1.5856  0.9513  1.0709
  800MOL0     N 7916   8.350   1.739   8.017 -0.4442 -0.0718 -0.1361
  800MOL0     N 7917   8.462   1.783   7.965  0.2576 -0.1174 -0.1139
  800MOL0     C 7918   9.581   1.942   7.277  0.5709  0.3746  0.3332
  800MOL0     C 7919   9.712   1.927   7.237  0.5557 -0.2489 -0.2500
  800MOL0     C 7920  10.127   1.788   7.103 -1.1425 -1.2113 -1.1073
  800MOL0     C 7921  10.120   1.648   7.085 -0.2725  0.3671 -0.5131
  800MOL0     C 7922  10.229   1.583   7.021  1.0356 -0.8735  0.4105
  800MOL0     C 7923  10.335   1.653   6.979 -0.5456  0.2134 -0.3566
  800MOL0     O 7924  10.442   1.592   6.909  0.9616 -0.3764 -0.1607
  800MOL0     C 7925  10.499   1.467   6.960 -0.0051 -0.4842  0.1684
  800MOL0     C 7926  10.590   1.509   7.075  0.6986  0.7325 -0.1283
  800MOL0     C 7927  10.630   1.387   7.163  0.3651  0.3407  0.4067
  800MOL0     C 7928  10.682   1.433   7.298  0.3575 -0.0386  0.5892
  800MOL0     C 7929  10.726   1.318   7.372 -0.1456 -0.2357  0.2868
  800MOL0     C 7930  10.762   1.245   7.459 -0.0739  0.2413 -0.7322
  800MOL0     C 7931  10.350   1.790   7.014  1.4465 -0.0476  0.3011
  800MOL0     C 7932  10.253   1.856   7.083  1.1879 -0.4238  0.3192
  800MOL0     H 7933   9.750   1.596   7.277 -2.8440 -1.4694 -1.6439
  800MOL0     H 7934   9.530   1.615   7.358  0.6393 -0.8374 -3.2297
  800MOL0     H 7935   9.412   2.035   7.488 -2.0647  2.9415  0.7444
  800MOL0     H 7936   9.288   2.028   7.371  1.6107  0.4438 -0.2825
  800MOL0     H 7937   9.298   1.878   7.644 -0.7280 -0.1220  0.8805
  800MOL0     H 7938   9.197   2.019   7.605  2.0633 -0.7473  1.9295
  800MOL0     H 7939   9.068   1.928   7.453  0.7174 -0.8348 -0.1546
  800MOL0     H 7940   9.162   1.788   7.424 -0.7003  0.1585 -0.6011
  800MOL0     H 7941   9.012   1.679   7.556  0.1566 -0.6043  1.6303
  800MOL0     H 7942   9.124   1.732   7.681 -0.9928 -0.6409  0.8712
  800MOL0     H 7943   8.953   1.906   7.758 -0.5056 -1.8261  1.5010
  800MOL0     H 7944   8.865   1.886   7.610  0.9039  1.4378 -0.7521
  800MOL0     H 7945   8.820   1.645   7.688  2.3894  1.3429 -1.6399
  800MOL0     H 7946   8.902   1.669   7.840 -1.6082 -0.9179 -0.2616
  800MOL0     H 7947   8.736   1.881   7.872 -3.7653 -0.4681  1.0376
  800MOL0     H 7948   8.642   1.788   7.761 -1.2995 -3.5105  0.2967
  800MOL0     H 7949   8.741   1.708   8.042  2.3507 -1.1857 -0.2438
  800MOL0     H 7950   8.728   1.577   7.918 -0.9859 -0.2247  1.2507
  800MOL0     H 7951   8.529   1.478   8.036 -0.8431 -0.0209 -0.0975
  800MOL0     H 7952   8.162   1.587   8.131 -0.3295  0.1231  0.0258
  800MOL0     H 7953   8.249   1.437   8.092  0.8326 -0.5830  1.9586
  800MOL0     H 7954   8.315   1.612   8.334  2.6282 -1.0123 -0.7795
  800MOL0     H 7955   8.385   1.454   8.286  2.2677  2.9014  1.4791
  800MOL0     H 7956   8.163   1.338   8.308 -1.8731  0.3798  2.1336
  800MOL0     H 7957   8.095   1.488   8.369 -0.4796  0.5782 -2.7902
  800MOL0     H 7958   8.290   1.456   8.549 -1.1481  1.6046 -2.5181
  800MOL0     H 7959   8.274   1.285   8.507  0.4293  0.2377  0.9576
  800MOL0     H 7960   7.899   1.252   8.689  1.7030 -1.6167  0.1554
  800MOL0     H 7961   7.777   1.236   9.019 -0.0810 -4.1839  2.0454
  800MOL0     H 7962   7.770   1.198   8.851  2.1006 -1.4415 -1.7630
  800MOL0     H 7963   7.873   1.090   8.960  1.7925 -0.2445  0.9050
  800MOL0     H 7964   8.022   1.559   9.319 -0.1836  2.4668  1.0898
  800MOL0     H 7965   8.001   1.597   9.569  0.4176  0.4106  1.4922
  800MOL0     H 7966   8.138   1.402   9.917  0.6954  0.4132  1.0798
  800MOL0     H 7967   8.253   1.345   9.817  1.4249 -0.5647  1.9299
  800MOL0     H 7968   8.288   1.609   9.960  1.1560  0.5556 -3.2762
  800MOL0     H 7969   8.313   1.449  10.042  3.0450  0.3163  0.7178
  800MOL0     H 7970   8.481   1.519   9.804 -2.0722 -1.1169 -0.6401
  800MOL0     H 7971   8.476   1.377   9.892 -3.0009 -1.0034  1.2267
  800MOL0     H 7972   8.532   1.487  10.117  0.5147  0.1952 -0.2153
  800MOL0     H 7973   8.648   1.478  10.004  0.3975  0.0586  2.9837
  800MOL0     H 7974   8.527   1.716  10.122  0.5503  0.0268 -0.0006
  800MOL0     H 7975   8.536   1.740   9.956  1.6908  1.2070  0.4652
  800MOL0     H 7976   8.787   1.629  10.074  0.8922  1.2097 -0.3447
  800MOL0     H 7977   8.761   1.722   9.928  1.5297 -0.5215  1.2044
  800MOL0     H 7978   8.723   1.835  10.208  1.6515  5.2126  1.2576
  800MOL0     H 7979   8.675   1.909  10.056 -0.2818 -0.3260  0.7404
  800MOL0     H 7980   8.965   1.862  10.176  1.9207 -0.4930 -1.9459
  800MOL0     H 7981   8.899   2.014  10.119  3.3184  0.5115 -0.4547
  800MOL0     H 7982   8.340   1.355   9.631 -0.1325 -0.5755 -0.2932
  800MOL0     H 7983   8.349   1.294   9.389 -0.1331 -1.8927  1.3211
  800MOL0     H 7984   8.249   1.431   8.999  1.4712 -5.2782  0.9525
  800MOL0     H 7985   8.246   1.472   8.736 -1.1706 -1.8646 -5.6476
  800MOL0     H 7986   9.529   2.038   7.268 -0.9940 -0.6288 -2.8488
  800MOL0     H 7987   9.774   2.006   7.198  2.4756 -1.1366  0.8455
  800MOL0     H 7988  10.039   1.590   7.129 -0.9989  0.8522 -1.1743
  800MOL0     H 7989  10.212   1.478   7.002 -4.3162  0.1111 -2.0489
  800MOL0     H 7990  10.413   1.406   6.989 -0.4189  0.3569  0.7691
  800MOL0     H 7991  10.557   1.426   6.878  1.9905 -0.1391  1.3499
  800MOL0     H 7992  10.542   1.586   7.135  1.5927  2.3475 -1.3974
  800MOL0     H 7993  10.673   1.559   7.024 -0.8026  1.9859 -1.4361
  800MOL0     H 7994  10.688   1.310   7.111 -2.1516 -3.0378  2.2009
  800MOL0     H 7995  10.543   1.328   7.193  0.4147 -0.2570 -0.5901
  800MOL0     H 7996  10.601   1.480   7.354 -1.1868 -1.2222 -0.5928
  800MOL0     H 7997  10.770   1.499   7.288  0.8172 -0.7426 -0.1219
  800MOL0     H 7998  10.804   1.181   7.534 -2.3230 -0.0902  0.3166
  800MOL0     H 7999  10.436   1.845   6.979 -0.3864  2.4674 -0.4950
  800MOL0     H 8000  10.265   1.960   7.111  0.9617 -0.4822  0.6384
  801MOL0     O 8001   5.776   6.520   9.634  0.3880  0.4390 -0.0361
  801MOL0     C 8002   5.694   6.476   9.554  0.2642 -0.1262 -0.6544
  801MOL0     O 8003   5.579   6.407   9.588 -1.0342 -0.3610  0.0204
  801MOL0     C 8004   5.552   6.373   9.717  0.1317 -0.5014 -0.3062
  801MOL0     C 8005   5.577   6.470   9.819  0.0361 -0.3462 -0.1436
  801MOL0     C 8006   5.564   6.437   9.957 -0.2995  0.4700  0.5490
  801MOL0     C 8007   5.543   6.306   9.996 -0.5235 -0.1332  0.3507
  801MOL0     O 8008   5.570   6.267  10.119 -0.2197 -0.0760 -0.0270
  801MOL0     C 8009   5.471   6.170  10.169 -1.0132 -0.3097 -0.2872
  801MOL0     C 8010   5.515   6.148  10.314  0.2339 -0.8104  0.4816
  801MOL0     C 8011   5.652   6.084  10.321 -0.4593 -0.0113  0.9345
  801MOL0     C 8012   5.681   5.996  10.442  0.7727  0.8181  0.7425
  801MOL0     C 8013   5.828   5.990  10.469  0.6162  1.1369  0.6457
  801MOL0     C 8014   5.878   6.116  10.534 -0.2115 -0.0082 -0.3151
  801MOL0     C 8015   6.019   6.098  10.565  0.2937 -0.8816  0.4885
  801MOL0     C 8016   6.094   6.207  10.666  0.4165  0.7155 -0.2701
  801MOL0     N 8017   6.024   6.218  10.798 -0.3439  0.3569  0.2988
  801MOL0     C 8018   6.022   6.120  10.892 -0.2939  0.5388 -0.0659
  801MOL0     C 8019   5.923   6.146  10.979 -1.0200 -0.3462 -0.0671
  801MOL0     C 8020   5.876   6.053  11.087  0.6370  0.5335 -0.3179
  801MOL0     C 8021   5.828   6.144  11.203  0.5483  0.1233  0.1984
  801MOL0     C 8022   5.797   6.056  11.320 -0.2940  0.8830 -0.4688
  801MOL0     C 8023   5.754   6.137  11.445  0.9974 -0.4294 -0.6780
  801MOL0     O 8024   5.618   6.178  11.429 -0.1327 -0.9338  0.5373
  801MOL0     C 8025   5.534   6.215  11.531  1.4003 -1.4516 -0.1266
  801MOL0     C 8026   5.571   6.247  11.666 -0.6493  0.2752  0.1277
  801MOL0     C 8027   5.481   6.297  11.759 -0.0336  0.1752  0.3568
  801MOL0     C 8028   5.538   6.310  11.906  0.0073 -0.1821  0.0872
  801MOL0     C 8029   5.342   6.321  11.724  0.0279  0.5028 -0.6218
  801MOL0     C 8030   5.227   6.350  11.817  0.2119 -0.1948  0.5447
  801MOL0     O 8031   5.100   6.349  11.760 -0.8511 -0.5956  0.0449
  801MOL0     C 8032   4.989   6.374  11.841 -1.4047  0.6625  0.5904
  801MOL0     C 8033   4.917   6.473  11.789  0.0605  0.1745  0.1965
  801MOL0     C 8034   4.803   6.518  11.849 -0.1433  0.0567  1.2194
  801MOL0     C 8035   4.752   6.453  11.964  0.2704  0.5969  0.2731
  801MOL0     O 8036   4.634   6.494  12.030  0.2399 -0.2408  0.5662
  801MOL0     C 8037   4.548   6.393  12.088  0.0082  0.2437  0.4188
  801MOL0     C 8038   4.494   6.425  12.232 -0.0476 -0.5466  0.4320
  801MOL0     C 8039   4.434   6.563  12.256  0.6237  0.1971  0.4639
  801MOL0     C 8040   4.326   6.539  12.358 -1.1880  0.1480 -0.0201
  801MOL0     C 8041   4.269   6.665  12.424 -0.2292 -0.0963  0.3010
  801MOL0     C 8042   4.148   6.635  12.514 -0.0013 -0.5066 -0.4966
  801MOL0     C 8043   4.081   6.771  12.554 -0.2459  0.3793 -0.0909
  801MOL0     C 8044   3.983   6.757  12.681 -0.0211  0.1481  0.3386
  801MOL0    Cl 8045   3.908   6.918  12.720  0.2287 -0.6191  0.3570
  801MOL0     C 8046   4.834   6.341  12.015  0.3164 -0.2663 -0.6029
  801MOL0     C 8047   4.951   6.308  11.953  0.2827 -0.8314 -0.1148
  801MOL0     O 8048   5.250   6.376  11.935 -0.2180 -0.0701  0.4254
  801MOL0     C 8049   5.304   6.300  11.589 -1.4584  0.2442  0.2803
  801MOL0     C 8050   5.399   6.244  11.499 -0.1322  0.8938 -1.2606
  801MOL0     N 8051   5.880   6.278  10.940 -0.1458 -0.3020 -0.2499
  801MOL0     N 8052   5.934   6.320  10.828  0.3661  0.1226  0.6279
  801MOL0     C 8053   5.512   6.213   9.890  0.0683 -1.0130 -0.1848
  801MOL0     C 8054   5.510   6.244   9.752 -0.4800 -0.4759  0.1304
  801MOL0     C 8055   5.727   6.520   9.417  0.3762  0.7058 -0.3091
  801MOL0     C 8056   5.850   6.595   9.393 -0.4040  0.2829  0.2775
  801MOL0     C 8057   5.899   6.628   9.268  0.7835 -0.7144 -0.4711
  801MOL0     C 8058   5.820   6.600   9.160  0.9439  0.4055 -0.1827
  801MOL0     O 8059   5.830   6.639   9.030  0.2781  0.5502 -0.7502
  801MOL0     C 8060   5.965   6.666   8.985  0.3256  0.4085 -0.2411
  801MOL0     C 8061   5.954   6.690   8.832 -0.1088 -0.5273  0.2470
  801MOL0     C 8062   5.875   6.814   8.785  0.0407  0.2618  0.7911
  801MOL0     C 8063   5.748   6.773   8.707 -0.1307  0.1829  1.0838
  801MOL0     C 8064   5.721   6.869   8.607  0.3579 -0.5383  0.5663
  801MOL0     C 8065   5.677   6.955   8.525  0.1405  0.1154 -0.7112
  801MOL0     C 8066   5.699   6.529   9.185  0.5289  0.5358 -0.0238
  801MOL0     C 8067   5.654   6.480   9.304 -0.9068  0.4079 -0.9997
  801MOL0     H 8068   5.609   6.571   9.793 -0.3040 -0.5903 -1.6299
  801MOL0     H 8069   5.597   6.510  10.030  0.4979  0.1009  0.5658
  801MOL0     H 8070   5.374   6.220  10.178  1.1443  4.6480 -1.0238
  801MOL0     H 8071   5.463   6.080  10.107 -0.6777  0.1813 -1.0565
  801MOL0     H 8072   5.528   6.246  10.362 -0.9609 -0.7300  0.6706
  801MOL0     H 8073   5.432   6.105  10.371 -0.8563  0.3870 -0.1643
  801MOL0     H 8074   5.671   6.020  10.234  0.0067  1.6655 -0.2346
  801MOL0     H 8075   5.731   6.159  10.309 -1.1190  0.3999 -1.4160
  801MOL0     H 8076   5.626   6.044  10.524 -1.6309 -0.3263 -0.0879
  801MOL0     H 8077   5.636   5.897  10.428 -0.1651  1.5943 -2.6247
  801MOL0     H 8078   5.857   5.896  10.518 -0.2582  0.6717  0.2910
  801MOL0     H 8079   5.883   5.978  10.376  2.5830  1.0124  1.7679
  801MOL0     H 8080   5.869   6.195  10.459  1.8087  0.0747 -0.5411
  801MOL0     H 8081   5.824   6.132  10.627  2.4732  3.8365  0.8097
  801MOL0     H 8082   6.027   5.999  10.609 -3.6143 -1.4033  0.3867
  801MOL0     H 8083   6.085   6.097  10.477  0.1600  0.6329  0.3383
  801MOL0     H 8084   6.093   6.307  10.621 -0.8193 -0.0967 -2.2065
  801MOL0     H 8085   6.198   6.177  10.681  0.7276  0.5702 -2.3845
  801MOL0     H 8086   6.084   6.031  10.894 -3.1131 -1.7034 -2.2364
  801MOL0     H 8087   5.809   5.974  11.055  0.3745  0.6896 -0.1589
  801MOL0     H 8088   5.963   6.003  11.131  1.4347 -1.8605 -4.2326
  801MOL0     H 8089   5.737   6.200  11.183  1.3243  1.8682  1.2818
  801MOL0     H 8090   5.900   6.225  11.218 -1.4876  2.8655 -3.2615
  801MOL0     H 8091   5.894   6.015  11.347 -0.9114  0.8318  1.8663
  801MOL0     H 8092   5.728   5.974  11.300  0.1454 -0.5253  3.0374
  801MOL0     H 8093   5.821   6.219  11.469  2.3107 -1.5621 -0.3556
  801MOL0     H 8094   5.762   6.061  11.524 -0.1296  0.4232  0.2836
  801MOL0     H 8095   5.675   6.230  11.695 -0.7963 -0.5045  0.2242
  801MOL0     H 8096   5.495   6.228  11.965 -4.2788 -2.4313 -5.2726
  801MOL0     H 8097   5.646   6.313  11.894  0.0312  1.2218  0.4183
  801MOL0     H 8098   5.517   6.409  11.949  3.1178  0.8843 -0.6361
  801MOL0     H 8099   4.947   6.521  11.696  1.0416  4.9114  2.6261
  801MOL0     H 8100   4.750   6.609  11.822 -1.2247 -0.2694  2.1650
  801MOL0     H 8101   4.462   6.375  12.023  0.8759  3.3770 -1.8159
  801MOL0     H 8102   4.591   6.292  12.091  2.7480  1.3219  0.9279
  801MOL0     H 8103   4.427   6.346  12.267 -2.3418 -0.1389 -2.5630
  801MOL0     H 8104   4.574   6.429  12.306 -1.4128  2.5943  1.9128
  801MOL0     H 8105   4.387   6.588  12.161  2.3381  1.9124  0.0028
  801MOL0     H 8106   4.503   6.642  12.289 -2.5419  2.2413  2.9350
  801MOL0     H 8107   4.247   6.478  12.312 -0.8436 -1.2193  1.1411
  801MOL0     H 8108   4.366   6.471  12.434  0.2409  0.9342 -0.0388
  801MOL0     H 8109   4.233   6.728  12.342 -0.1039  0.5505  0.7366
  801MOL0     H 8110   4.348   6.714  12.480  1.6599 -4.1703  1.5550
  801MOL0     H 8111   4.073   6.582  12.455  2.6401 -2.6968 -2.1454
  801MOL0     H 8112   4.170   6.583  12.608 -1.8687 -0.7326 -0.1457
  801MOL0     H 8113   4.032   6.809  12.463 -0.0089 -0.8633 -0.7589
  801MOL0     H 8114   4.165   6.837  12.575  0.0483  0.9689 -2.7259
  801MOL0     H 8115   4.040   6.723  12.768 -0.6127 -3.3811 -0.4785
  801MOL0     H 8116   3.910   6.677  12.662  2.5513 -2.5029  0.7861
  801MOL0     H 8117   4.809   6.294  12.109  2.9115  2.4524  1.6431
  801MOL0     H 8118   5.016   6.235  12.000  1.6943 -0.6172 -1.6439
  801MOL0     H 8119   5.209   6.337  11.552 -2.1639  0.5750  2.3038
  801MOL0     H 8120   5.383   6.233  11.392 -1.9899 -0.9448 -0.8642
  801MOL0     H 8121   5.504   6.109   9.918  3.5466 -1.7161 -1.2618
  801MOL0     H 8122   5.499   6.158   9.687 -2.4699 -3.1193  3.5877
  801MOL0     H 8123   5.933   6.607   9.462  0.6372 -1.2409 -0.6428
  801MOL0     H 8124   5.992   6.681   9.251  1.1534  0.1110  3.2734
  801MOL0     H 8125   6.011   6.747   9.042 -0.6552  0.0923  1.0401
  801MOL0     H 8126   6.035   6.582   8.998  0.9249  0.9852  0.3546
  801MOL0     H 8127   5.905   6.604   8.786 -0.8771 -0.3767  0.7522
  801MOL0     H 8128   6.054   6.697   8.789 -0.7224 -2.8746 -1.7807
  801MOL0     H 8129   5.934   6.892   8.737 -1.3631 -0.0902 -1.6464
  801MOL0     H 8130   5.838   6.871   8.871 -0.8273  2.3112 -0.8519
  801MOL0     H 8131   5.659   6.765   8.771  0.5036  0.0668  1.9713
  801MOL0     H 8132   5.761   6.677   8.657 -0.4990  1.2088 -1.1054
  801MOL0     H 8133   5.650   7.036   8.460 -3.2970 -1.4750 -1.4435
  801MOL0     H 8134   5.629   6.525   9.102  2.8789  1.0232 -2.1451
  801MOL0     H 8135   5.563   6.422   9.312 -0.2075 -0.7606 -1.3830
  802MOL0     O 8136   4.970   8.072  10.975 -0.3582  0.9409  0.2575
  802MOL0     C 8137   4.859   8.078  11.001  0.1322 -0.1364  0.1136
  802MOL0     O 8138   4.772   7.975  11.007 -0.3536 -0.0752  0.1331
  802MOL0     C 8139   4.797   7.853  10.942 -0.1312  0.4444 -0.6074
  802MOL0     C 8140   4.884   7.846  10.828 -0.0665  0.7927 -0.1780
  802MOL0     C 8141   4.910   7.732  10.766 -0.5098  0.1755  0.3641
  802MOL0     C 8142   4.858   7.609  10.811  0.3777  0.5581 -0.1933
  802MOL0     O 8143   4.916   7.502  10.753  0.0879 -0.3335 -0.3071
  802MOL0     C 8144   4.895   7.370  10.819 -0.1913  0.1455  0.4105
  802MOL0     C 8145   4.792   7.290  10.724 -0.4950 -0.7659  0.1345
  802MOL0     C 8146   4.856   7.217  10.617 -0.0502 -0.7735 -0.1141
  802MOL0     C 8147   4.867   7.297  10.482  1.0781 -0.1800 -0.2802
  802MOL0     C 8148   4.993   7.249  10.406  0.0638  0.3395 -0.0656
  802MOL0     C 8149   5.014   7.350  10.293  0.5425  0.6040 -0.7137
  802MOL0     C 8150   5.131   7.301  10.197 -0.2125  0.0127  0.0277
  802MOL0     C 8151   5.152   7.393  10.081  0.0092  0.2283 -0.9205
  802MOL0     N 8152   5.271   7.369   9.999 -0.6369  0.4676 -0.3532
  802MOL0     C 8153   5.372   7.275  10.014  0.2038  0.2178  0.6660
  802MOL0     C 8154   5.465   7.299   9.921 -0.7684  0.3558  0.2401
  802MOL0     C 8155   5.586   7.219   9.911  0.4105  0.3119  0.0249
  802MOL0     C 8156   5.554   7.091   9.836  0.7146  0.6713 -0.5270
  802MOL0     C 8157   5.687   7.016   9.816 -0.2110  0.1166 -0.3599
  802MOL0     C 8158   5.660   6.881   9.757  0.2631 -0.1555 -0.4010
  802MOL0     O 8159   5.617   6.893   9.624 -0.6600  0.6599  0.5139
  802MOL0     C 8160   5.707   6.911   9.517  0.2917  0.2429 -0.2624
  802MOL0     C 8161   5.848   6.932   9.524 -0.0689 -0.7409 -0.6880
  802MOL0     C 8162   5.928   6.970   9.413  0.4610 -0.7185 -0.5651
  802MOL0     C 8163   6.073   7.003   9.451 -0.2307  0.0240 -0.3691
  802MOL0     C 8164   5.866   6.986   9.290  0.5987 -0.9261 -0.0723
  802MOL0     C 8165   5.940   7.044   9.174  0.0777  0.3199  0.5232
  802MOL0     O 8166   6.044   7.111   9.206 -0.4680 -0.9306 -0.4881
  802MOL0     C 8167   6.079   7.224   9.130 -0.5325  0.8713 -0.2041
  802MOL0     C 8168   6.011   7.343   9.127 -0.0852 -0.6939  0.0903
  802MOL0     C 8169   6.052   7.442   9.037 -0.8034 -0.7414  0.1088
  802MOL0     C 8170   6.165   7.411   8.958 -1.7413  0.3955  0.1116
  802MOL0     O 8171   6.198   7.516   8.865 -0.1389 -0.1695  0.5364
  802MOL0     C 8172   6.301   7.503   8.767 -0.4233 -1.0328  0.2426
  802MOL0     C 8173   6.288   7.625   8.690 -0.2411  0.0867 -0.0761
  802MOL0     C 8174   6.387   7.618   8.575 -0.4450 -0.6885 -0.4235
  802MOL0     C 8175   6.362   7.738   8.474  0.1653 -0.7210  0.2415
  802MOL0     C 8176   6.481   7.805   8.407 -0.3750  0.6294  0.6404
  802MOL0     C 8177   6.544   7.700   8.326  0.4467 -0.9770 -0.2534
  802MOL0     C 8178   6.478   7.697   8.185  0.6470  0.2554  0.2554
  802MOL0     C 8179   6.555   7.772   8.076 -0.1420  0.3903 -0.5223
  802MOL0    Cl 8180   6.718   7.713   8.038 -0.4601 -0.7106 -0.2604
  802MOL0     C 8181   6.227   7.287   8.957  0.0866  0.5821 -0.1633
  802MOL0     C 8182   6.184   7.191   9.051 -0.4051  0.4449  0.0334
  802MOL0     O 8183   5.895   7.044   9.057 -0.4670  0.6173  0.4268
  802MOL0     C 8184   5.736   6.935   9.275 -0.0669  0.8648 -0.3696
  802MOL0     C 8185   5.655   6.903   9.392  1.2152  0.1370  0.9175
  802MOL0     N 8186   5.427   7.418   9.857  0.2737  0.8322  0.1738
  802MOL0     N 8187   5.312   7.448   9.899 -0.7935  0.1608  0.5896
  802MOL0     C 8188   4.761   7.612  10.914  0.6675 -0.4726  0.0777
  802MOL0     C 8189   4.737   7.733  10.978  0.0671  0.1977 -0.7178
  802MOL0     C 8190   4.810   8.210  11.039 -1.0126 -0.0524  0.6454
  802MOL0     C 8191   4.677   8.217  11.086 -0.4502  0.0644  0.2269
  802MOL0     C 8192   4.630   8.346  11.144 -0.7969  0.4364 -0.1127
  802MOL0     C 8193   4.725   8.454  11.150 -0.2871 -0.0192  0.8661
  802MOL0     O 8194   4.720   8.559  11.241  0.0230  0.5013 -0.5022
  802MOL0     C 8195   4.594   8.640  11.232 -0.3789 -0.4105  0.3550
  802MOL0     C 8196   4.486   8.594  11.335 -0.2645 -0.2355 -0.9120
  802MOL0     C 8197   4.535   8.594  11.486 -0.4391  0.2399  0.5010
  802MOL0     C 8198   4.419   8.550  11.578 -0.9890 -0.6725  0.1329
  802MOL0     C 8199   4.436   8.409  11.613 -0.3425  0.5377 -0.2851
  802MOL0     C 8200   4.452   8.299  11.657 -0.2513 -0.4226 -0.0530
  802MOL0     C 8201   4.855   8.446  11.084  0.9765  0.5871 -0.1293
  802MOL0     C 8202   4.885   8.326  11.027 -0.8835  0.8047 -0.5014
  802MOL0     H 8203   4.924   7.935  10.781 -0.2859  0.9022 -0.1584
  802MOL0     H 8204   4.963   7.728  10.672 -0.9954  0.7043  0.0620
  802MOL0     H 8205   4.987   7.312  10.832 -1.4488 -1.5407  2.4494
  802MOL0     H 8206   4.850   7.368  10.918 -1.2233 -1.1298 -0.0698
  802MOL0     H 8207   4.765   7.203  10.785  0.8218 -0.2372  1.5185
  802MOL0     H 8208   4.703   7.348  10.698 -0.9140 -1.5523 -0.2076
  802MOL0     H 8209   4.951   7.181  10.658 -0.9857 -1.1604  1.7944
  802MOL0     H 8210   4.798   7.127  10.596  1.2710 -1.5447 -0.6221
  802MOL0     H 8211   4.775   7.291  10.424  0.9575  0.0809 -0.1173
  802MOL0     H 8212   4.890   7.401  10.505 -0.0270  0.2925 -1.2111
  802MOL0     H 8213   5.073   7.231  10.478  1.2463  1.1409 -1.1215
  802MOL0     H 8214   4.969   7.152  10.361 -1.9335  1.0699 -0.7121
  802MOL0     H 8215   4.922   7.364  10.236 -1.6392 -2.3405  1.7459
  802MOL0     H 8216   5.043   7.449  10.328  4.5124  0.0281 -1.7982
  802MOL0     H 8217   5.225   7.297  10.252 -0.9951 -0.6842  1.3925
  802MOL0     H 8218   5.104   7.205  10.151 -3.5320  0.2220  1.2075
  802MOL0     H 8219   5.165   7.491  10.128 -0.5696 -0.9542  1.9289
  802MOL0     H 8220   5.068   7.373  10.014  0.4797 -0.0780 -1.4300
  802MOL0     H 8221   5.356   7.191  10.080  1.0705  0.8790  1.7463
  802MOL0     H 8222   5.670   7.278   9.874  1.1509  0.6917  2.1573
  802MOL0     H 8223   5.626   7.190  10.009 -1.0445 -2.6583 -0.1544
  802MOL0     H 8224   5.513   7.124   9.740  0.7224  1.5415 -0.2398
  802MOL0     H 8225   5.485   7.033   9.898  0.2523 -2.0024 -3.2913
  802MOL0     H 8226   5.735   7.000   9.913  2.2773 -1.0646 -1.6991
  802MOL0     H 8227   5.762   7.068   9.755  0.7667 -2.6309 -1.6654
  802MOL0     H 8228   5.575   6.836   9.809  1.4245  1.6305  3.3723
  802MOL0     H 8229   5.742   6.809   9.760 -0.5487 -1.0779  1.3217
  802MOL0     H 8230   5.894   6.930   9.622 -3.5270  2.2979  1.2499
  802MOL0     H 8231   6.145   7.014   9.370 -1.2353  1.1779 -1.1221
  802MOL0     H 8232   6.078   7.097   9.506 -2.6181 -0.2403  0.4120
  802MOL0     H 8233   6.109   6.920   9.514  0.5713  0.0803 -0.7374
  802MOL0     H 8234   5.919   7.348   9.185 -0.0876  1.3561 -0.0274
  802MOL0     H 8235   6.002   7.537   9.020 -0.5106 -0.5803  0.1398
  802MOL0     H 8236   6.401   7.506   8.810  0.1476  1.5118 -1.0952
  802MOL0     H 8237   6.281   7.419   8.699 -3.7333  1.4871 -2.2444
  802MOL0     H 8238   6.187   7.640   8.650 -1.4282 -1.1311  2.3063
  802MOL0     H 8239   6.309   7.713   8.751 -2.4054 -0.2580  1.2551
  802MOL0     H 8240   6.394   7.530   8.510  1.3343  1.1765 -2.9955
  802MOL0     H 8241   6.482   7.634   8.628 -1.6338  0.7947  1.3845
  802MOL0     H 8242   6.285   7.716   8.399 -0.5745 -3.3881  1.6659
  802MOL0     H 8243   6.319   7.822   8.528  1.4115  0.4833 -0.5457
  802MOL0     H 8244   6.556   7.848   8.473 -0.2190  2.8973 -0.9242
  802MOL0     H 8245   6.440   7.885   8.345  1.9411  1.1794 -0.2842
  802MOL0     H 8246   6.648   7.725   8.301 -0.0312  0.4870 -0.9187
  802MOL0     H 8247   6.556   7.598   8.365  0.8492 -1.4075 -1.4591
  802MOL0     H 8248   6.375   7.733   8.184  0.6303  0.3666 -2.2258
  802MOL0     H 8249   6.476   7.593   8.152 -0.4455  0.7374 -1.3564
  802MOL0     H 8250   6.562   7.875   8.111  1.9349  0.2035 -0.2612
  802MOL0     H 8251   6.495   7.767   7.985 -1.3941  1.5299  0.2213
  802MOL0     H 8252   6.301   7.256   8.884  1.3230  1.0969  0.8448
  802MOL0     H 8253   6.234   7.095   9.051  0.0546  0.6712 -0.8718
  802MOL0     H 8254   5.715   6.928   9.168  0.9354  4.7754 -0.9961
  802MOL0     H 8255   5.550   6.879   9.387  0.7701  1.4822  2.6880
  802MOL0     H 8256   4.719   7.519  10.951 -1.8627 -0.1287 -1.6891
  802MOL0     H 8257   4.674   7.730  11.066  0.8224 -2.1993 -0.2121
  802MOL0     H 8258   4.616   8.132  11.117  0.5303 -1.4596 -1.7986
  802MOL0     H 8259   4.533   8.358  11.191 -0.8512  2.7213 -0.6920
  802MOL0     H 8260   4.627   8.738  11.268  2.6242 -0.7662 -1.1194
  802MOL0     H 8261   4.547   8.635  11.133  0.0051 -2.2537  0.2288
  802MOL0     H 8262   4.458   8.492  11.306  0.6659 -0.8630  0.3313
  802MOL0     H 8263   4.409   8.668  11.311 -0.4841 -1.3217 -4.0855
  802MOL0     H 8264   4.566   8.697  11.507  1.1359 -0.0602 -0.1991
  802MOL0     H 8265   4.619   8.525  11.493 -0.5513 -0.2933 -2.3309
  802MOL0     H 8266   4.324   8.576  11.532  0.4034 -0.8830 -3.0797
  802MOL0     H 8267   4.424   8.610  11.670 -1.8567 -2.0459  1.1248
  802MOL0     H 8268   4.459   8.204  11.707  3.2257  0.4808  1.5546
  802MOL0     H 8269   4.928   8.527  11.085  1.7175 -0.0487  1.3607
  802MOL0     H 8270   4.981   8.307  10.980 -1.8051 -0.7254 -1.8770
  803MOL0     O 8271   4.259   3.853   6.390 -0.2177 -1.1007 -0.0741
  803MOL0     C 8272   4.250   3.761   6.305 -0.6701  0.8879 -0.1357
  803MOL0     O 8273   4.353   3.685   6.253 -0.0086 -0.2770 -0.2225
  803MOL0     C 8274   4.482   3.727   6.277 -0.1940 -1.1799  0.1443
  803MOL0     C 8275   4.520   3.866   6.270  1.2616 -0.4410  0.2937
  803MOL0     C 8276   4.647   3.900   6.298 -0.1861  0.0040 -0.9240
  803MOL0     C 8277   4.741   3.802   6.337  0.0363  0.3510  0.0885
  803MOL0     O 8278   4.861   3.852   6.386  0.7490 -0.2091  0.6016
  803MOL0     C 8279   4.916   3.804   6.514 -0.0660 -0.0269  0.0136
  803MOL0     C 8280   5.060   3.848   6.535  0.3280 -0.1562  0.0116
  803MOL0     C 8281   5.156   3.835   6.417 -0.5959  1.2293 -0.6298
  803MOL0     C 8282   5.138   3.698   6.343  0.6125  0.8578 -0.7310
  803MOL0     C 8283   5.263   3.649   6.270  0.1729  0.3510  0.5088
  803MOL0     C 8284   5.271   3.527   6.172 -0.0513 -0.4226 -1.0762
  803MOL0     C 8285   5.181   3.517   6.045 -0.1540 -0.3035 -0.4657
  803MOL0     C 8286   5.204   3.638   5.963  0.9644 -0.4260  0.4415
  803MOL0     N 8287   5.345   3.661   5.914  0.1949 -0.2417  0.5058
  803MOL0     C 8288   5.415   3.768   5.958  0.4513  0.4021 -0.2484
  803MOL0     C 8289   5.546   3.748   5.920  0.8494  0.7116 -0.2018
  803MOL0     C 8290   5.663   3.833   5.930  0.2889  0.1000 -1.0736
  803MOL0     C 8291   5.697   3.930   5.817 -0.9601 -0.0124 -0.8684
  803MOL0     C 8292   5.713   3.866   5.676  0.4261  1.2777  0.5156
  803MOL0     C 8293   5.726   3.977   5.572  0.6459  0.2426  0.3329
  803MOL0     O 8294   5.707   3.927   5.436  0.8721 -0.1619  0.1052
  803MOL0     C 8295   5.810   3.855   5.377 -1.1670 -0.2096  0.5035
  803MOL0     C 8296   5.774   3.775   5.261 -0.4209 -0.1971 -0.6045
  803MOL0     C 8297   5.872   3.711   5.186  0.3478  0.2272  0.2075
  803MOL0     C 8298   5.828   3.642   5.055 -0.6696  0.0190  0.6289
  803MOL0     C 8299   6.008   3.726   5.224  0.3571 -0.1744  0.8517
  803MOL0     C 8300   6.109   3.629   5.162 -0.1825 -0.0170  0.5411
  803MOL0     O 8301   6.166   3.543   5.250  0.1028 -0.0724 -0.4282
  803MOL0     C 8302   6.262   3.454   5.207 -0.4988 -1.4390 -0.0618
  803MOL0     C 8303   6.396   3.449   5.267  1.2200 -0.1516 -0.2111
  803MOL0     C 8304   6.489   3.367   5.222 -1.0403  0.4649  1.1005
  803MOL0     C 8305   6.462   3.264   5.126  0.5804  0.4881  0.2857
  803MOL0     O 8306   6.565   3.182   5.092 -0.0198  0.0684  0.5216
  803MOL0     C 8307   6.571   3.053   5.136  0.2987 -0.1135 -0.5211
  803MOL0     C 8308   6.652   3.062   5.266 -0.3637  0.3011 -0.6847
  803MOL0     C 8309   6.658   2.920   5.330 -0.0121 -0.5733 -0.6566
  803MOL0     C 8310   6.676   2.922   5.481 -0.0189 -0.4921 -1.1512
  803MOL0     C 8311   6.672   2.771   5.530  0.1583  0.5347 -0.9027
  803MOL0     C 8312   6.766   2.722   5.654  0.3411  0.2775 -0.3387
  803MOL0     C 8313   6.736   2.575   5.694 -0.0435  0.2831 -0.7083
  803MOL0     C 8314   6.843   2.522   5.789  0.4444  0.8475  0.4344
  803MOL0    Cl 8315   6.839   2.611   5.949 -0.0578  0.8001 -0.0915
  803MOL0     C 8316   6.333   3.260   5.075  0.3540  0.0130 -0.4314
  803MOL0     C 8317   6.231   3.350   5.114  0.1065  0.3509 -0.4773
  803MOL0     O 8318   6.124   3.629   5.039 -0.6346 -0.4257  0.0144
  803MOL0     C 8319   6.045   3.798   5.340 -0.4886 -0.1415  0.6249
  803MOL0     C 8320   5.948   3.861   5.415  0.1811 -0.6282 -0.5082
  803MOL0     N 8321   5.543   3.626   5.853  0.1137 -0.5883  0.3569
  803MOL0     N 8322   5.428   3.566   5.866 -0.8851 -0.3372  0.6168
  803MOL0     C 8323   4.712   3.667   6.325  0.1657 -0.2010  0.0169
  803MOL0     C 8324   4.585   3.631   6.294  0.5191  0.2739 -1.0356
  803MOL0     C 8325   4.116   3.714   6.257 -0.3427  0.1068 -0.3291
  803MOL0     C 8326   4.002   3.775   6.315 -0.3691 -0.2608  0.2923
  803MOL0     C 8327   3.870   3.734   6.295  0.2519  0.3802 -0.4461
  803MOL0     C 8328   3.861   3.619   6.211  0.5839 -0.2607  0.5928
  803MOL0     O 8329   3.739   3.570   6.166  0.2542 -1.0567 -1.1398
  803MOL0     C 8330   3.616   3.635   6.184  0.1934  0.0426 -0.7672
  803MOL0     C 8331   3.550   3.603   6.323 -0.1074  0.1314  0.2744
  803MOL0     C 8332   3.419   3.677   6.323  0.2711  0.2481  0.1990
  803MOL0     C 8333   3.374   3.698   6.473 -0.9413 -0.9838  0.0152
  803MOL0     C 8334   3.350   3.566   6.533 -0.2365 -0.6356  0.6583
  803MOL0     C 8335   3.339   3.450   6.567  0.1284 -0.4073  0.0814
  803MOL0     C 8336   3.968   3.550   6.169 -0.1827 -0.4244  0.8271
  803MOL0     C 8337   4.095   3.594   6.181 -0.1854  0.2178 -0.8419
  803MOL0     H 8338   4.448   3.946   6.254 -0.1538 -1.6515  0.4409
  803MOL0     H 8339   4.690   3.999   6.302  1.8924 -0.8169 -1.8887
  803MOL0     H 8340   4.854   3.860   6.584  1.7667  1.2589  0.6887
  803MOL0     H 8341   4.922   3.695   6.513 -0.1798 -0.0471  1.0528
  803MOL0     H 8342   5.059   3.956   6.556 -0.3864  0.2045 -1.7186
  803MOL0     H 8343   5.094   3.801   6.628 -1.1461  0.8989  1.1444
  803MOL0     H 8344   5.144   3.925   6.356 -0.2880  1.7661  0.0741
  803MOL0     H 8345   5.254   3.834   6.467 -0.4602  0.4849 -0.9055
  803MOL0     H 8346   5.107   3.627   6.421  2.2474  0.0462 -0.7809
  803MOL0     H 8347   5.053   3.687   6.274 -0.2056  0.1880  0.3506
  803MOL0     H 8348   5.305   3.734   6.214  4.2671 -1.5391  0.3711
  803MOL0     H 8349   5.341   3.626   6.343  1.8772  0.4837 -1.2021
  803MOL0     H 8350   5.375   3.526   6.141  1.5266 -1.5646  3.4707
  803MOL0     H 8351   5.255   3.431   6.223 -3.0041 -0.7976 -2.4479
  803MOL0     H 8352   5.204   3.427   5.988 -0.5266  0.2436 -1.5138
  803MOL0     H 8353   5.080   3.507   6.086 -0.0356  0.1569 -0.0468
  803MOL0     H 8354   5.161   3.715   6.028  1.2739  2.2488 -2.2768
  803MOL0     H 8355   5.149   3.636   5.868  3.1247 -0.7653 -0.8703
  803MOL0     H 8356   5.371   3.847   6.018 -1.2319  0.5040 -1.5345
  803MOL0     H 8357   5.672   3.871   6.032  0.1161  0.0702 -1.0462
  803MOL0     H 8358   5.738   3.755   5.917  0.4055  0.5288 -3.5510
  803MOL0     H 8359   5.789   3.982   5.846 -1.9285  0.1233  2.4023
  803MOL0     H 8360   5.613   4.000   5.811  1.3454  2.9804 -0.4701
  803MOL0     H 8361   5.625   3.805   5.654  2.3838 -1.6770  0.1017
  803MOL0     H 8362   5.797   3.795   5.678  0.9545  1.7782 -1.3666
  803MOL0     H 8363   5.822   4.028   5.581 -0.0830  2.0573 -1.2488
  803MOL0     H 8364   5.643   4.049   5.582 -1.6842 -1.7425 -2.7173
  803MOL0     H 8365   5.672   3.758   5.227  0.1167 -2.9312 -1.1288
  803MOL0     H 8366   5.854   3.712   4.976 -2.8263  2.3442  1.8359
  803MOL0     H 8367   5.893   3.561   5.019 -2.2199 -1.3382  0.7854
  803MOL0     H 8368   5.721   3.623   5.054 -0.6002 -0.3880  0.7183
  803MOL0     H 8369   6.407   3.521   5.347 -1.3021 -0.3274  0.3733
  803MOL0     H 8370   6.589   3.366   5.264 -0.5625 -2.8671  0.2188
  803MOL0     H 8371   6.471   3.013   5.154  0.9604 -1.0095  1.4388
  803MOL0     H 8372   6.622   2.981   5.072 -1.2158 -0.5122 -1.3360
  803MOL0     H 8373   6.752   3.104   5.249 -1.0756  2.5169  0.2034
  803MOL0     H 8374   6.596   3.123   5.337 -3.2073 -2.7181 -0.1020
  803MOL0     H 8375   6.745   2.869   5.288  0.8191  1.5975 -1.7606
  803MOL0     H 8376   6.562   2.871   5.315  0.6387 -2.6819  1.3261
  803MOL0     H 8377   6.773   2.963   5.512 -0.9982  1.1083 -0.0751
  803MOL0     H 8378   6.587   2.963   5.530 -0.7439 -3.5108  0.3290
  803MOL0     H 8379   6.692   2.702   5.447 -2.5119  1.4934 -2.4589
  803MOL0     H 8380   6.571   2.741   5.560 -0.7333  0.1823 -3.9065
  803MOL0     H 8381   6.871   2.735   5.628  0.0958 -1.6156 -2.6480
  803MOL0     H 8382   6.748   2.789   5.739 -3.6294 -1.1584  0.1716
  803MOL0     H 8383   6.738   2.508   5.608 -2.6929 -0.6052 -0.1786
  803MOL0     H 8384   6.637   2.578   5.740  0.2422  1.7027 -0.1093
  803MOL0     H 8385   6.941   2.552   5.750  0.7470  0.6107  1.0006
  803MOL0     H 8386   6.834   2.413   5.796  1.0768  0.6852 -1.0335
  803MOL0     H 8387   6.316   3.173   5.013  0.5817 -1.9086  2.0517
  803MOL0     H 8388   6.131   3.367   5.076 -0.9784 -1.0401  1.5600
  803MOL0     H 8389   6.151   3.788   5.358 -0.5757  0.9177  1.8843
  803MOL0     H 8390   5.972   3.916   5.505 -3.2541 -0.0414  0.1745
  803MOL0     H 8391   4.787   3.592   6.347 -1.2334 -2.1554 -1.5721
  803MOL0     H 8392   4.554   3.528   6.279 -0.4528  0.4808 -0.5165
  803MOL0     H 8393   4.014   3.861   6.380  0.9872  2.3160 -3.0512
  803MOL0     H 8394   3.783   3.781   6.340 -0.3757  0.3437 -1.5776
  803MOL0     H 8395   3.635   3.743   6.191  2.2422 -0.3653  3.3822
  803MOL0     H 8396   3.548   3.595   6.109  2.8669 -2.8945 -1.8397
  803MOL0     H 8397   3.621   3.649   6.393  0.8026  2.2538 -1.8879
  803MOL0     H 8398   3.543   3.495   6.333 -0.6541  0.0919 -0.4671
  803MOL0     H 8399   3.340   3.625   6.267 -1.1401  2.2142  0.2547
  803MOL0     H 8400   3.420   3.768   6.262 -1.7266 -1.5761 -2.8385
  803MOL0     H 8401   3.275   3.743   6.469 -0.6683 -0.4500 -2.0216
  803MOL0     H 8402   3.440   3.769   6.524 -0.5321 -1.1907 -0.2144
  803MOL0     H 8403   3.309   3.354   6.605 -0.9112 -1.0766 -2.2276
  803MOL0     H 8404   3.940   3.459   6.117  0.4685  0.0297 -0.3474
  803MOL0     H 8405   4.165   3.528   6.131  1.3628  1.1414  0.0405
  804MOL0     O 8406   6.805   4.173   0.285 -0.0348  0.0067 -0.0524
  804MOL0     C 8407   6.799   4.163   0.404  0.7188 -0.3515 -0.5955
  804MOL0     O 8408   6.881   4.234   0.495 -0.4320  0.0365  0.9958
  804MOL0     C 8409   6.982   4.308   0.458 -0.8489 -0.3612  0.1406
  804MOL0     C 8410   7.082   4.253   0.373  0.3583  0.6111 -0.0017
  804MOL0     C 8411   7.191   4.330   0.325 -0.5369  0.1197  0.4301
  804MOL0     C 8412   7.203   4.460   0.367  0.2384 -1.1069  0.3553
  804MOL0     O 8413   7.308   4.527   0.314  0.7146  0.9029  0.9427
  804MOL0     C 8414   7.359   4.645   0.401  0.0931  0.8634 -0.8094
  804MOL0     C 8415   7.490   4.706   0.357 -0.5291 -0.0184  0.1969
  804MOL0     C 8416   7.608   4.607   0.369  0.6004 -0.4256 -0.5148
  804MOL0     C 8417   7.666   4.588   0.503 -0.0019  0.1687 -1.0235
  804MOL0     C 8418   7.779   4.482   0.517  0.8784 -1.1733  0.1084
  804MOL0     C 8419   7.856   4.505   0.647  0.1792 -0.3556 -0.2105
  804MOL0     C 8420   7.958   4.402   0.660 -0.9621  0.0704  0.1407
  804MOL0     C 8421   8.067   4.365   0.545 -0.0899  0.6124  0.3393
  804MOL0     N 8422   8.134   4.490   0.510 -0.4521 -0.1971 -0.5591
  804MOL0     C 8423   8.254   4.526   0.574 -0.4025  0.3989 -0.4706
  804MOL0     C 8424   8.321   4.599   0.479  0.3413 -0.9598  0.0645
  804MOL0     C 8425   8.452   4.675   0.491  0.8420 -0.1978 -0.7996
  804MOL0     C 8426   8.548   4.576   0.427 -0.2678  0.9326  0.6956
  804MOL0     C 8427   8.689   4.622   0.412 -0.3368  0.6736 -0.9913
  804MOL0     C 8428   8.717   4.728   0.312  0.0956  0.6898  0.0027
  804MOL0     O 8429   8.708   4.660   0.187  0.7247  0.5110  0.0891
  804MOL0     C 8430   8.685   4.744   0.078 -0.4017  0.4035 -0.0254
  804MOL0     C 8431   8.663   4.673  -0.033  0.0317 -0.0452 -0.3317
  804MOL0     C 8432   8.658   4.728  -0.163  0.7887  0.2406 -0.3356
  804MOL0     C 8433   8.629   4.647  -0.283  0.6659 -0.5058 -0.6619
  804MOL0     C 8434   8.674   4.872  -0.175  0.4190  0.3142  0.0646
  804MOL0     C 8435   8.650   4.944  -0.300  0.2899 -0.2683 -0.6777
  804MOL0     O 8436   8.586   4.900  -0.407  0.6804  0.3530 -0.4617
  804MOL0     C 8437   8.563   4.989  -0.507 -0.6600  0.0012 -0.1214
  804MOL0     C 8438   8.433   5.032  -0.527  0.0412  0.8917 -0.6835
  804MOL0     C 8439   8.409   5.131  -0.619 -0.5694  0.0646  0.2893
  804MOL0     C 8440   8.512   5.190  -0.696 -0.3929 -0.7562  0.4098
  804MOL0     O 8441   8.465   5.282  -0.789  0.1705  0.0473  0.6272
  804MOL0     C 8442   8.547   5.325  -0.897 -0.0959  0.0599  0.1901
  804MOL0     C 8443   8.568   5.479  -0.893  0.1126 -0.2115  0.5585
  804MOL0     C 8444   8.443   5.564  -0.899  0.3315 -0.5456 -0.6182
  804MOL0     C 8445   8.461   5.707  -0.968 -0.5766  1.1045  0.4849
  804MOL0     C 8446   8.351   5.801  -0.948  0.7277 -0.1823  0.3827
  804MOL0     C 8447   8.371   5.904  -0.833 -0.7417  0.5458 -0.0354
  804MOL0     C 8448   8.239   5.986  -0.819 -0.0981 -0.8463  0.0312
  804MOL0     C 8449   8.253   6.099  -0.720 -0.9507 -0.6358  0.4482
  804MOL0    Cl 8450   8.119   6.203  -0.737  0.5363  0.1810 -0.2534
  804MOL0     C 8451   8.648   5.148  -0.679 -0.1508  0.1883  0.5417
  804MOL0     C 8452   8.677   5.042  -0.588  0.1192 -0.1235 -0.1269
  804MOL0     O 8453   8.713   5.051  -0.297  0.3764 -0.3329 -0.7441
  804MOL0     C 8454   8.686   4.945  -0.049 -0.1382 -0.3015 -0.3675
  804MOL0     C 8455   8.708   4.874   0.067 -0.2900 -0.9365 -0.3389
  804MOL0     N 8456   8.234   4.602   0.372 -0.1158 -0.2326  0.5649
  804MOL0     N 8457   8.127   4.539   0.383  0.6105  0.5572  0.4125
  804MOL0     C 8458   7.095   4.518   0.440  0.0664 -1.2163  0.7047
  804MOL0     C 8459   6.995   4.441   0.491 -0.4344 -0.2585  0.7064
  804MOL0     C 8460   6.718   4.042   0.464  0.1466 -0.4704 -0.7028
  804MOL0     C 8461   6.738   4.020   0.603 -0.2735  0.9514  0.0976
  804MOL0     C 8462   6.686   3.903   0.654 -0.8309 -0.1916 -0.9012
  804MOL0     C 8463   6.601   3.820   0.586  0.2672  0.2485 -0.1620
  804MOL0     O 8464   6.548   3.704   0.626  0.3082 -0.6442  0.0795
  804MOL0     C 8465   6.635   3.597   0.661  0.0922 -0.0327 -0.0057
  804MOL0     C 8466   6.557   3.467   0.654  0.6748 -0.2725 -0.5824
  804MOL0     C 8467   6.480   3.436   0.786 -0.5771 -0.9335 -0.4715
  804MOL0     C 8468   6.386   3.322   0.773 -0.1396  0.9041  0.5746
  804MOL0     C 8469   6.261   3.350   0.701  0.9219  0.2363 -0.5888
  804MOL0     C 8470   6.155   3.386   0.647  0.0475 -0.1206  0.0867
  804MOL0     C 8471   6.577   3.849   0.453  0.2822  0.6251 -0.2925
  804MOL0     C 8472   6.643   3.949   0.378  0.7837  0.8846 -0.4824
  804MOL0     H 8473   7.072   4.148   0.347 -0.1992  0.6787 -0.0656
  804MOL0     H 8474   7.274   4.284   0.271 -0.0136 -2.0975  2.8790
  804MOL0     H 8475   7.279   4.719   0.411 -1.7348 -1.1570  0.5395
  804MOL0     H 8476   7.368   4.602   0.501 -0.2954 -1.2288 -1.6125
  804MOL0     H 8477   7.470   4.740   0.255  0.0942  2.7853  0.9414
  804MOL0     H 8478   7.508   4.792   0.421  0.6310  1.6832 -2.2820
  804MOL0     H 8479   7.574   4.517   0.316  2.8462 -0.9153 -1.2419
  804MOL0     H 8480   7.683   4.650   0.301 -2.5790  3.8083 -1.7297
  804MOL0     H 8481   7.703   4.687   0.529 -1.8355  0.6257  0.0420
  804MOL0     H 8482   7.588   4.552   0.571  0.5053 -1.5930 -1.3234
  804MOL0     H 8483   7.743   4.379   0.531  0.7176 -1.3274 -1.2749
  804MOL0     H 8484   7.843   4.490   0.429  0.7478 -2.2021 -0.1004
  804MOL0     H 8485   7.908   4.602   0.645 -1.7341  0.8006  1.9571
  804MOL0     H 8486   7.793   4.512   0.736  1.6732 -1.1881  0.9686
  804MOL0     H 8487   8.023   4.422   0.745  1.9246 -6.7815  0.1797
  804MOL0     H 8488   7.902   4.310   0.677  0.5514 -1.6849 -3.4509
  804MOL0     H 8489   8.018   4.327   0.455  2.1686 -4.0131  0.7437
  804MOL0     H 8490   8.141   4.291   0.577 -0.5301 -1.9012 -3.6730
  804MOL0     H 8491   8.274   4.500   0.678 -3.2981  0.6100  0.2183
  804MOL0     H 8492   8.438   4.764   0.428 -0.5328 -1.2915 -2.1081
  804MOL0     H 8493   8.475   4.700   0.595  0.1994 -0.2231 -0.6474
  804MOL0     H 8494   8.498   4.538   0.337 -0.4278  0.0584  1.1459
  804MOL0     H 8495   8.559   4.485   0.486  2.3529  0.8646  0.2153
  804MOL0     H 8496   8.743   4.535   0.374 -2.5143  0.1994 -3.2761
  804MOL0     H 8497   8.728   4.648   0.510  3.0024  0.8367 -2.2516
  804MOL0     H 8498   8.815   4.774   0.327  0.2092  0.5366 -0.2524
  804MOL0     H 8499   8.641   4.806   0.322  0.8023  1.1798  1.8273
  804MOL0     H 8500   8.641   4.567  -0.036  0.9429 -0.3182  1.2399
  804MOL0     H 8501   8.666   4.546  -0.266  2.4029  0.0967 -0.7149
  804MOL0     H 8502   8.523   4.644  -0.309  0.4814 -0.3217  0.0522
  804MOL0     H 8503   8.675   4.677  -0.378  1.8493  0.2288  0.1199
  804MOL0     H 8504   8.361   4.975  -0.469 -0.7164 -0.3079 -2.6971
  804MOL0     H 8505   8.304   5.153  -0.637  0.0660  0.6193 -3.3973
  804MOL0     H 8506   8.646   5.277  -0.901  0.3415  0.7699  1.8514
  804MOL0     H 8507   8.502   5.301  -0.994  0.9028 -0.8811 -0.0646
  804MOL0     H 8508   8.632   5.513  -0.811  0.7698  0.0438 -0.0459
  804MOL0     H 8509   8.630   5.490  -0.982  0.8021  1.8884  1.2325
  804MOL0     H 8510   8.415   5.590  -0.797  0.2721  2.7913 -1.3441
  804MOL0     H 8511   8.369   5.516  -0.963  2.0258  1.1506 -4.1502
  804MOL0     H 8512   8.555   5.750  -0.931  0.4601  1.8625 -2.7003
  804MOL0     H 8513   8.481   5.687  -1.074  2.0990  2.3228  0.6763
  804MOL0     H 8514   8.259   5.742  -0.944  0.7935 -0.2694  0.6186
  804MOL0     H 8515   8.344   5.861  -1.039  2.9394 -2.6194 -1.5410
  804MOL0     H 8516   8.398   5.847  -0.743  1.4023  0.9623 -0.3676
  804MOL0     H 8517   8.453   5.971  -0.859 -1.4125  0.1108 -3.7718
  804MOL0     H 8518   8.155   5.920  -0.793 -0.5628 -1.3516 -2.4911
  804MOL0     H 8519   8.215   6.035  -0.914  0.2138 -0.3746  0.1951
  804MOL0     H 8520   8.337   6.161  -0.753  0.1079 -2.6575 -0.8581
  804MOL0     H 8521   8.275   6.063  -0.619  2.7763  1.6481  0.6020
  804MOL0     H 8522   8.729   5.199  -0.730 -1.5895 -1.4051 -3.8102
  804MOL0     H 8523   8.776   4.998  -0.584 -1.3880 -3.9528 -0.5814
  804MOL0     H 8524   8.679   5.053  -0.040 -0.9321 -0.3750 -0.0588
  804MOL0     H 8525   8.740   4.932   0.153  2.2991  1.6723 -2.8141
  804MOL0     H 8526   7.095   4.626   0.445  1.6298 -0.9026 -3.1673
  804MOL0     H 8527   6.927   4.508   0.542 -3.7118 -2.1561 -0.8620
  804MOL0     H 8528   6.796   4.081   0.671  2.1474  3.5365 -3.8862
  804MOL0     H 8529   6.718   3.883   0.755  0.6225  1.7226 -0.9359
  804MOL0     H 8530   6.712   3.596   0.583 -0.0480 -1.9056 -0.1632
  804MOL0     H 8531   6.686   3.605   0.758  1.0240 -1.1680 -0.3716
  804MOL0     H 8532   6.613   3.375   0.635 -1.5401 -1.7977 -0.0821
  804MOL0     H 8533   6.481   3.470   0.575 -1.7854 -0.2956  1.6312
  804MOL0     H 8534   6.411   3.517   0.813 -1.2497  0.1895 -4.8271
  804MOL0     H 8535   6.561   3.409   0.855  0.8843 -0.8104 -2.0807
  804MOL0     H 8536   6.367   3.295   0.877  0.0871 -1.0706  0.1360
  804MOL0     H 8537   6.432   3.237   0.722 -2.5250 -0.6852  0.9231
  804MOL0     H 8538   6.075   3.430   0.591 -0.4414  2.4821  2.6092
  804MOL0     H 8539   6.504   3.786   0.404 -0.3139  0.6730  0.5039
  804MOL0     H 8540   6.628   3.971   0.273  2.4354 -1.2676 -1.2277
  805MOL0     O 8541   6.453   6.009   1.594  0.2735 -0.0672  0.6002
  805MOL0     C 8542   6.501   6.095   1.676  0.1526  0.1515  0.9993
  805MOL0     O 8543   6.486   6.232   1.672  0.0081  0.1888 -0.0675
  805MOL0     C 8544   6.407   6.296   1.584 -0.0606  0.5627  0.5646
  805MOL0     C 8545   6.405   6.263   1.452 -1.1495  0.1809  0.6124
  805MOL0     C 8546   6.323   6.336   1.369 -1.0463 -1.6651 -0.4146
  805MOL0     C 8547   6.253   6.449   1.412  1.3535 -1.0583  0.1219
  805MOL0     O 8548   6.164   6.512   1.321  0.0546 -0.0905 -0.2310
  805MOL0     C 8549   6.132   6.648   1.347  0.4216 -0.4311 -0.6778
  805MOL0     C 8550   6.057   6.705   1.229 -0.8956  0.0389 -1.2147
  805MOL0     C 8551   5.990   6.835   1.280  0.1031  0.2447 -0.2883
  805MOL0     C 8552   6.083   6.955   1.306 -0.7149 -0.3435 -0.6372
  805MOL0     C 8553   6.001   7.088   1.320  0.0003 -0.5724  0.2409
  805MOL0     C 8554   5.952   7.151   1.194  0.9492 -1.3667  0.8379
  805MOL0     C 8555   6.068   7.198   1.114  0.2621  0.1000  0.8490
  805MOL0     C 8556   6.032   7.315   1.020  0.2363  0.5681 -0.0050
  805MOL0     N 8557   5.985   7.436   1.087  0.3748 -0.3003  1.1149
  805MOL0     C 8558   6.063   7.528   1.159 -0.8694  0.0941 -0.4807
  805MOL0     C 8559   5.980   7.622   1.206 -0.8591 -0.3600  0.0921
  805MOL0     C 8560   6.017   7.732   1.298  0.1742 -0.2849 -0.4037
  805MOL0     C 8561   6.114   7.673   1.416 -0.6051  0.1705 -0.4058
  805MOL0     C 8562   6.064   7.685   1.557  0.3806  0.4092 -0.0179
  805MOL0     C 8563   5.971   7.571   1.619  0.7119  0.0288 -0.8053
  805MOL0     O 8564   6.053   7.449   1.635  0.6536  0.9891  0.1457
  805MOL0     C 8565   5.984   7.334   1.683  0.2557 -0.3602 -0.5554
  805MOL0     C 8566   5.860   7.332   1.748  0.9103 -0.6933 -0.3095
  805MOL0     C 8567   5.801   7.210   1.787  0.3978  0.4299  0.4715
  805MOL0     C 8568   5.673   7.213   1.853 -0.9472 -0.8497 -0.7599
  805MOL0     C 8569   5.880   7.090   1.769  0.2666  0.5779  0.5776
  805MOL0     C 8570   5.841   6.958   1.817  0.6368  0.3507  1.2107
  805MOL0     O 8571   5.874   6.858   1.736 -0.3806 -0.3326  0.6235
  805MOL0     C 8572   5.894   6.731   1.785 -0.1068 -0.1878 -1.0762
  805MOL0     C 8573   5.920   6.690   1.921  0.8116  0.9235 -0.0589
  805MOL0     C 8574   5.940   6.556   1.955 -0.1472 -0.8204  0.1678
  805MOL0     C 8575   5.948   6.465   1.853 -0.1484 -0.1539 -0.3174
  805MOL0     O 8576   5.963   6.332   1.862 -0.1351 -0.7363  0.1132
  805MOL0     C 8577   6.034   6.284   1.977  0.4576 -0.2906  0.3480
  805MOL0     C 8578   6.182   6.325   1.975  0.6228 -0.2125  0.4796
  805MOL0     C 8579   6.262   6.270   2.095  0.2357  0.9217 -1.1730
  805MOL0     C 8580   6.235   6.115   2.108 -0.2327 -0.4816  0.7804
  805MOL0     C 8581   6.361   6.051   2.174  0.1360 -0.4211 -0.1549
  805MOL0     C 8582   6.393   6.128   2.315 -0.1966  1.0200  0.7822
  805MOL0     C 8583   6.487   6.047   2.405 -0.5165  0.4782 -0.0095
  805MOL0     C 8584   6.461   6.085   2.550  1.0705 -0.2083  1.2350
  805MOL0    Cl 8585   6.458   6.268   2.560 -0.3088  0.0366 -0.5605
  805MOL0     C 8586   5.946   6.504   1.725 -0.1104 -0.9400  0.0639
  805MOL0     C 8587   5.908   6.634   1.688 -0.3924  0.2302  0.6303
  805MOL0     O 8588   5.782   6.944   1.924 -0.2098 -0.2136 -0.1232
  805MOL0     C 8589   5.996   7.107   1.686  0.0461 -0.5132  0.1247
  805MOL0     C 8590   6.056   7.227   1.650  0.1566  1.0749  0.3156
  805MOL0     N 8591   5.861   7.593   1.154  0.2928  0.6582 -0.6960
  805MOL0     N 8592   5.859   7.479   1.083 -0.7502 -0.7540  0.4104
  805MOL0     C 8593   6.259   6.485   1.552 -0.1666  0.1748 -0.0743
  805MOL0     C 8594   6.327   6.403   1.643 -0.8059  0.0137  0.7475
  805MOL0     C 8595   6.565   6.030   1.797  0.9567 -0.1139  0.4220
  805MOL0     C 8596   6.647   6.117   1.874  0.1419 -0.3759 -0.6137
  805MOL0     C 8597   6.715   6.064   1.997 -0.2837  0.5295 -0.0447
  805MOL0     C 8598   6.684   5.935   2.040  0.5580  0.4507  0.0276
  805MOL0     O 8599   6.748   5.904   2.156 -0.4982 -0.0530 -1.0048
  805MOL0     C 8600   6.765   5.775   2.189 -0.5367  0.1128  1.2145
  805MOL0     C 8601   6.839   5.762   2.324  0.1741  0.1021 -0.1509
  805MOL0     C 8602   6.958   5.671   2.307  0.1029  0.1260  0.1509
  805MOL0     C 8603   7.030   5.644   2.438  0.7362  0.3085  0.5311
  805MOL0     C 8604   7.165   5.706   2.450 -0.2707  1.1801 -0.5043
  805MOL0     C 8605   7.279   5.748   2.464 -0.2447 -0.3716  0.8204
  805MOL0     C 8606   6.584   5.861   1.975 -0.1872  0.1571 -0.6877
  805MOL0     C 8607   6.537   5.901   1.846  0.7313 -0.4328  0.8518
  805MOL0     H 8608   6.475   6.196   1.405 -1.7434  0.5104 -0.7792
  805MOL0     H 8609   6.322   6.312   1.263  3.4221  1.9613 -1.5782
  805MOL0     H 8610   6.065   6.647   1.434  0.6161 -2.3878 -0.5172
  805MOL0     H 8611   6.227   6.701   1.358 -1.5246  3.7858 -1.9908
  805MOL0     H 8612   6.123   6.703   1.142 -0.0428 -1.5448 -0.5621
  805MOL0     H 8613   5.972   6.641   1.204 -0.7628 -0.3325 -0.7269
  805MOL0     H 8614   5.917   6.867   1.206  0.1697  2.8282  0.6455
  805MOL0     H 8615   5.929   6.823   1.370  2.1355 -1.1524  1.0176
  805MOL0     H 8616   6.140   6.929   1.396  0.7161 -0.1073 -1.4431
  805MOL0     H 8617   6.161   6.964   1.230 -0.2905  1.7096 -0.0155
  805MOL0     H 8618   5.916   7.066   1.386  1.2603 -0.7582  1.8710
  805MOL0     H 8619   6.061   7.170   1.361  2.0415  0.7026 -4.6387
  805MOL0     H 8620   5.890   7.085   1.133  1.9174  1.3973 -3.5632
  805MOL0     H 8621   5.885   7.234   1.221  5.4051  2.6160  0.8840
  805MOL0     H 8622   6.143   7.242   1.180 -1.8571 -1.4773  4.6027
  805MOL0     H 8623   6.106   7.106   1.070 -0.7990 -1.8098  3.7044
  805MOL0     H 8624   5.947   7.291   0.955  0.9701  1.6851 -1.4407
  805MOL0     H 8625   6.112   7.335   0.947 -0.3491 -1.2208 -1.1808
  805MOL0     H 8626   6.170   7.511   1.172 -1.1201  0.6168  3.1673
  805MOL0     H 8627   6.059   7.821   1.250 -1.4957 -0.1001 -1.6125
  805MOL0     H 8628   5.925   7.765   1.346  0.0578 -1.3593  0.1544
  805MOL0     H 8629   6.202   7.738   1.413 -1.4350  2.0030  4.6312
  805MOL0     H 8630   6.138   7.568   1.401 -3.7669 -0.5749 -0.9751
  805MOL0     H 8631   6.023   7.786   1.568 -1.7307 -0.4921  0.9391
  805MOL0     H 8632   6.161   7.673   1.607  0.0561 -1.6671  0.2048
  805MOL0     H 8633   5.898   7.531   1.548  1.9649 -1.7696 -1.1485
  805MOL0     H 8634   5.926   7.607   1.712 -2.4154  0.6409 -2.4059
  805MOL0     H 8635   5.792   7.415   1.761 -1.1930 -2.1412 -1.4616
  805MOL0     H 8636   5.621   7.297   1.805 -1.7266  1.1064  3.0577
  805MOL0     H 8637   5.612   7.125   1.831  0.2774 -2.2808  1.2692
  805MOL0     H 8638   5.677   7.219   1.962 -1.5200 -1.5311 -0.6947
  805MOL0     H 8639   5.935   6.763   2.000  2.0211 -0.9120  1.5150
  805MOL0     H 8640   5.956   6.525   2.058 -0.4851  0.4904  0.6282
  805MOL0     H 8641   5.989   6.311   2.073  0.2366 -0.5626  0.3208
  805MOL0     H 8642   6.019   6.176   1.976 -1.3047 -0.0776 -0.1508
  805MOL0     H 8643   6.213   6.292   1.875  1.5013  3.6227 -0.7195
  805MOL0     H 8644   6.188   6.434   1.962  2.1265 -0.6106 -3.9654
  805MOL0     H 8645   6.237   6.311   2.193 -0.3194 -1.9357  0.0018
  805MOL0     H 8646   6.365   6.290   2.067  0.8618  0.0773  0.3759
  805MOL0     H 8647   6.154   6.089   2.177  0.5508 -1.7456  1.2605
  805MOL0     H 8648   6.220   6.083   2.004 -0.0221  3.5510 -0.6939
  805MOL0     H 8649   6.439   6.074   2.101 -0.4426 -1.3134 -1.0667
  805MOL0     H 8650   6.344   5.946   2.196 -2.8610  0.1298  0.6138
  805MOL0     H 8651   6.440   6.223   2.286  2.4339 -0.4372  0.0542
  805MOL0     H 8652   6.297   6.144   2.366 -0.0925 -0.2406  1.3914
  805MOL0     H 8653   6.591   6.051   2.373  0.3714 -2.1225  2.2208
  805MOL0     H 8654   6.460   5.943   2.388  1.9445 -0.0578 -0.9963
  805MOL0     H 8655   6.541   6.038   2.609  2.2181  0.7534  0.5129
  805MOL0     H 8656   6.367   6.048   2.592 -0.9505  0.4957 -2.2953
  805MOL0     H 8657   5.954   6.433   1.643 -0.3955 -0.7676 -0.1187
  805MOL0     H 8658   5.909   6.663   1.583  1.2051  0.5180  0.7038
  805MOL0     H 8659   6.042   7.023   1.635 -1.3577  0.0555 -2.2443
  805MOL0     H 8660   6.150   7.233   1.597  0.7609 -0.7410  1.1246
  805MOL0     H 8661   6.210   6.573   1.592 -2.2380 -1.0411  0.2133
  805MOL0     H 8662   6.332   6.412   1.751  0.7778 -0.3834  0.7188
  805MOL0     H 8663   6.678   6.216   1.841  3.9156 -0.8303  1.1139
  805MOL0     H 8664   6.788   6.115   2.058  0.5341 -1.9847  1.2517
  805MOL0     H 8665   6.674   5.716   2.204  1.7071 -3.2849  2.7399
  805MOL0     H 8666   6.819   5.734   2.103  1.2412  1.4903  1.6408
  805MOL0     H 8667   6.772   5.730   2.405  1.1426  2.5804  1.7563
  805MOL0     H 8668   6.867   5.866   2.343  0.5233 -0.0081 -0.0696
  805MOL0     H 8669   7.018   5.731   2.238 -2.8745 -1.0576 -3.9249
  805MOL0     H 8670   6.924   5.583   2.251  1.0258 -1.5003  2.0530
  805MOL0     H 8671   7.032   5.536   2.452 -1.9916 -0.4419 -3.4411
  805MOL0     H 8672   6.975   5.674   2.528  1.9967 -1.4100  1.9622
  805MOL0     H 8673   7.375   5.788   2.489 -1.0100  0.5783  2.3812
  805MOL0     H 8674   6.539   5.784   2.037 -0.7274  3.1282  3.0238
  805MOL0     H 8675   6.465   5.835   1.798  0.5452 -1.3910  2.3680
  806MOL0     O 8676  11.300   5.666   6.093 -0.3343 -1.1184  0.0187
  806MOL0     C 8677  11.246   5.572   6.039  0.2305 -0.5569 -0.4510
  806MOL0     O 8678  11.277   5.441   6.061 -0.0682 -0.0871 -0.1249
  806MOL0     C 8679  11.370   5.408   6.153  1.0737  0.5080 -0.1969
  806MOL0     C 8680  11.365   5.449   6.287 -0.0072  0.1228 -0.7151
  806MOL0     C 8681  11.458   5.402   6.383 -1.1507  0.7325 -0.3746
  806MOL0     C 8682  11.544   5.296   6.350 -1.3909  0.3457 -0.1668
  806MOL0     O 8683  11.636   5.241   6.430 -0.1078  0.3059 -0.5185
  806MOL0     C 8684  11.678   5.316   6.559  0.3361 -0.3689 -1.0617
  806MOL0     C 8685  11.615   5.255   6.695 -0.2467 -0.3707  0.0830
  806MOL0     C 8686  11.464   5.227   6.675  0.3349  0.5516  0.5158
  806MOL0     C 8687  11.392   5.189   6.808  0.0829  0.3289  0.1217
  806MOL0     C 8688  11.240   5.209   6.790 -0.4843  0.5347 -0.5246
  806MOL0     C 8689  11.166   5.126   6.890 -0.6664 -0.8219  0.4577
  806MOL0     C 8690  11.012   5.150   6.871 -0.0084  0.3261 -0.1163
  806MOL0     C 8691  10.933   5.129   7.007 -0.7411  0.5279  0.2408
  806MOL0     N 8692  10.981   5.238   7.103 -0.6389 -0.3531  0.1015
  806MOL0     C 8693  11.065   5.213   7.210 -0.0730 -0.1006 -0.4604
  806MOL0     C 8694  11.083   5.333   7.263  0.0284  0.5454 -0.9860
  806MOL0     C 8695  11.168   5.351   7.389  0.4186 -0.0672  0.2361
  806MOL0     C 8696  11.097   5.294   7.518 -0.2225  0.0915  0.5063
  806MOL0     C 8697  10.997   5.400   7.585 -0.5724 -0.2414 -0.7225
  806MOL0     C 8698  11.083   5.504   7.662 -0.6537 -0.0790 -0.0036
  806MOL0     O 8699  11.000   5.619   7.676  0.0235 -0.6803  0.5231
  806MOL0     C 8700  11.019   5.713   7.779 -0.9653  0.2959  0.6579
  806MOL0     C 8701  10.930   5.814   7.779  0.4588 -1.4467 -0.1568
  806MOL0     C 8702  10.949   5.930   7.860  1.4217  0.5491  0.5778
  806MOL0     C 8703  10.850   6.046   7.825  0.0748 -0.0575  0.5299
  806MOL0     C 8704  11.048   5.925   7.954 -0.9457 -1.1027 -0.5627
  806MOL0     C 8705  11.059   6.033   8.059  0.6758 -0.1402 -0.6583
  806MOL0     O 8706  11.172   6.052   8.132 -1.3293 -0.4219 -0.4785
  806MOL0     C 8707  11.151   6.129   8.246 -0.2436  0.9988 -0.0865
  806MOL0     C 8708  11.139   6.064   8.377 -0.2323 -0.3161  1.0392
  806MOL0     C 8709  11.140   6.148   8.490  0.2524  0.3785  0.1000
  806MOL0     C 8710  11.130   6.288   8.480  0.8034  0.6330 -0.6995
  806MOL0     O 8711  11.120   6.363   8.591 -0.6631 -0.0836 -0.8917
  806MOL0     C 8712  11.104   6.508   8.576 -0.0212  0.4537  0.3953
  806MOL0     C 8713  11.087   6.588   8.706 -0.1137 -0.4583 -0.2101
  806MOL0     C 8714  11.218   6.624   8.770 -0.6225 -1.0614  1.3325
  806MOL0     C 8715  11.217   6.700   8.900  0.2344  0.2528 -0.4558
  806MOL0     C 8716  11.347   6.769   8.942  1.0510  0.6404 -0.1050
  806MOL0     C 8717  11.445   6.659   8.983  0.0208 -1.0055  0.4312
  806MOL0     C 8718  11.568   6.686   8.895  0.4334 -0.3060  0.2074
  806MOL0     C 8719  11.671   6.590   8.947  0.1517  0.2467  0.4023
  806MOL0    Cl 8720  11.737   6.623   9.109 -0.1285 -0.0785  0.4110
  806MOL0     C 8721  11.138   6.340   8.353 -0.1739 -0.2774  0.3191
  806MOL0     C 8722  11.137   6.266   8.236 -0.3054 -0.1155  1.2507
  806MOL0     O 8723  10.947   6.071   8.094 -0.6887 -0.1835 -0.6236
  806MOL0     C 8724  11.141   5.817   7.945  0.0860 -0.7703 -0.0565
  806MOL0     C 8725  11.126   5.713   7.867 -0.8499 -0.6619  1.1451
  806MOL0     N 8726  11.016   5.427   7.203 -0.2549 -1.0648  0.4554
  806MOL0     N 8727  10.960   5.372   7.092  0.5836 -0.0386  0.1567
  806MOL0     C 8728  11.542   5.239   6.223  0.6462 -0.3713 -0.0404
  806MOL0     C 8729  11.458   5.301   6.128 -0.0725 -0.5105 -0.2708
  806MOL0     C 8730  11.122   5.599   5.960  0.3119  0.3879 -0.6331
  806MOL0     C 8731  11.074   5.511   5.863 -0.3382 -0.1799  0.0743
  806MOL0     C 8732  10.963   5.532   5.788 -0.1444 -0.2401 -0.9690
  806MOL0     C 8733  10.895   5.648   5.792 -0.0427 -0.7752  0.7210
  806MOL0     O 8734  10.792   5.683   5.700 -0.3274 -0.1805  0.0112
  806MOL0     C 8735  10.656   5.707   5.759  0.6805  0.0919  0.2072
  806MOL0     C 8736  10.568   5.578   5.764 -0.1473 -0.5002  0.1684
  806MOL0     C 8737  10.419   5.601   5.763 -0.6367  0.1149  0.1947
  806MOL0     C 8738  10.338   5.471   5.765 -0.6433  0.0496 -0.0121
  806MOL0     C 8739  10.196   5.496   5.734 -0.7261 -0.4664  0.7328
  806MOL0     C 8740  10.093   5.506   5.679  0.2785  0.1014  0.1567
  806MOL0     C 8741  10.946   5.746   5.875  0.1256 -0.4740  0.4330
  806MOL0     C 8742  11.058   5.726   5.952  0.7484 -0.5109 -1.2890
  806MOL0     H 8743  11.298   5.527   6.323  0.4156 -0.0816  0.5500
  806MOL0     H 8744  11.465   5.442   6.484  0.2967 -2.0035  0.6999
  806MOL0     H 8745  11.786   5.295   6.565  0.7258  1.2836 -1.7738
  806MOL0     H 8746  11.656   5.423   6.553  0.5317 -0.3146 -0.8335
  806MOL0     H 8747  11.670   5.165   6.725 -3.1544 -2.4150 -0.2864
  806MOL0     H 8748  11.627   5.326   6.778 -0.1049 -2.3911  1.8794
  806MOL0     H 8749  11.402   5.311   6.643  0.4666  0.2229 -0.6320
  806MOL0     H 8750  11.441   5.156   6.596  2.4766  0.7363 -0.3323
  806MOL0     H 8751  11.422   5.085   6.828  4.2384  1.8125  2.9730
  806MOL0     H 8752  11.425   5.253   6.891  1.6450  0.0904 -0.2703
  806MOL0     H 8753  11.219   5.315   6.805  1.2597  0.8389  0.0871
  806MOL0     H 8754  11.215   5.165   6.693  1.0538 -2.2113  0.2151
  806MOL0     H 8755  11.197   5.023   6.870  1.9101  0.4498 -3.1258
  806MOL0     H 8756  11.201   5.163   6.987 -1.9014  2.5755 -0.2514
  806MOL0     H 8757  10.988   5.251   6.838  0.8386  1.0899  1.4866
  806MOL0     H 8758  10.968   5.090   6.791 -1.0176  1.9946 -0.8735
  806MOL0     H 8759  10.959   5.033   7.054  0.2463 -0.4515 -2.1448
  806MOL0     H 8760  10.825   5.128   6.998 -0.8144 -1.9669  0.5563
  806MOL0     H 8761  11.110   5.121   7.244 -1.7057 -0.5350  0.6535
  806MOL0     H 8762  11.266   5.313   7.358 -0.1179 -1.0628 -0.2881
  806MOL0     H 8763  11.190   5.455   7.413  1.3289 -0.8257  3.2223
  806MOL0     H 8764  11.177   5.258   7.583  3.3247  2.7073 -2.0562
  806MOL0     H 8765  11.047   5.205   7.479  2.0085 -1.5020  1.0769
  806MOL0     H 8766  10.923   5.350   7.648  0.2830 -1.3097 -0.5311
  806MOL0     H 8767  10.937   5.443   7.504  1.3898 -0.1934 -2.2244
  806MOL0     H 8768  11.180   5.524   7.615  0.2506  2.5138  2.6198
  806MOL0     H 8769  11.112   5.466   7.761  1.0311  0.0165 -0.4253
  806MOL0     H 8770  10.851   5.812   7.704 -0.8348  1.3566  1.0043
  806MOL0     H 8771  10.894   6.145   7.842 -2.4171  0.7143  3.5183
  806MOL0     H 8772  10.824   6.046   7.719 -2.5846 -0.1957  1.1031
  806MOL0     H 8773  10.760   6.045   7.888 -1.3525  1.3314 -1.3958
  806MOL0     H 8774  11.152   5.957   8.394  2.6464 -0.4643 -1.2310
  806MOL0     H 8775  11.146   6.107   8.590  0.1641 -0.2514 -0.1524
  806MOL0     H 8776  11.196   6.544   8.528 -0.0199  2.4065  1.7817
  806MOL0     H 8777  11.019   6.531   8.511  1.1544  0.0125 -1.3899
  806MOL0     H 8778  11.034   6.679   8.677  1.5179  0.7120  0.2794
  806MOL0     H 8779  11.024   6.542   8.782 -1.7584  1.0085 -0.6260
  806MOL0     H 8780  11.277   6.685   8.701  1.3793 -1.8111  2.3090
  806MOL0     H 8781  11.277   6.532   8.778  2.1858  0.6112  1.1277
  806MOL0     H 8782  11.134   6.769   8.886  1.3849  1.8042  0.1518
  806MOL0     H 8783  11.198   6.630   8.982  3.1674 -0.0381  0.1031
  806MOL0     H 8784  11.335   6.841   9.023 -0.1228 -1.4067  1.6529
  806MOL0     H 8785  11.383   6.833   8.861 -1.0973  1.1671 -0.7212
  806MOL0     H 8786  11.464   6.663   9.091  0.6306 -1.9869  0.3833
  806MOL0     H 8787  11.400   6.565   8.950  2.8386 -1.8354 -1.4879
  806MOL0     H 8788  11.598   6.791   8.895 -2.9678  0.7787  0.3570
  806MOL0     H 8789  11.548   6.667   8.789 -0.6410  1.5667  0.0240
  806MOL0     H 8790  11.758   6.579   8.880 -0.7438 -0.0493 -0.7451
  806MOL0     H 8791  11.632   6.488   8.944 -0.5029  0.4573  1.3747
  806MOL0     H 8792  11.135   6.447   8.332  0.4216 -0.5810 -1.4701
  806MOL0     H 8793  11.131   6.306   8.135  0.1831  1.2061  1.7320
  806MOL0     H 8794  11.223   5.835   8.013  1.1775  0.4708 -1.6258
  806MOL0     H 8795  11.205   5.639   7.862 -1.4238 -1.6546  4.3380
  806MOL0     H 8796  11.632   5.182   6.201  0.6528  0.2296 -1.7434
  806MOL0     H 8797  11.472   5.276   6.023  0.0451 -2.5638  0.1837
  806MOL0     H 8798  11.116   5.412   5.842 -1.3187 -0.6383  0.2209
  806MOL0     H 8799  10.916   5.457   5.725 -1.3266  1.5806 -2.3302
  806MOL0     H 8800  10.657   5.758   5.856  1.6294 -0.1037  0.3084
  806MOL0     H 8801  10.593   5.772   5.698 -4.3060 -1.1337  3.4572
  806MOL0     H 8802  10.608   5.510   5.840  0.0395  2.4758  2.9217
  806MOL0     H 8803  10.585   5.511   5.679  3.3937 -1.9445  1.8171
  806MOL0     H 8804  10.394   5.660   5.674  0.3497  3.6527  2.0494
  806MOL0     H 8805  10.391   5.662   5.850 -0.2843 -2.1765  2.0185
  806MOL0     H 8806  10.342   5.412   5.857  0.8085  3.2750  2.1562
  806MOL0     H 8807  10.365   5.398   5.688 -4.0257  1.4477 -2.8080
  806MOL0     H 8808   9.996   5.521   5.636 -0.5921 -3.5023  0.5897
  806MOL0     H 8809  10.891   5.839   5.866  1.3955  0.3087  0.5129
  806MOL0     H 8810  11.075   5.814   6.014 -1.0500  0.3201 -1.8987
  807MOL0     O 8811   2.749   6.108   2.226 -0.0910  0.2020 -0.0644
  807MOL0     C 8812   2.683   6.058   2.314  0.6037 -0.2105  0.6737
  807MOL0     O 8813   2.714   6.047   2.450 -0.2805  0.6130  0.1792
  807MOL0     C 8814   2.813   6.128   2.505  1.0443  0.2757  0.6528
  807MOL0     C 8815   2.782   6.216   2.608 -0.9195  0.5286 -0.4380
  807MOL0     C 8816   2.871   6.305   2.664  0.2846  0.5857 -0.4816
  807MOL0     C 8817   2.998   6.309   2.615  1.2133  0.7181  0.0553
  807MOL0     O 8818   3.090   6.396   2.658 -0.9119 -0.4302 -0.0320
  807MOL0     C 8819   3.056   6.530   2.710  0.0474  0.2939  0.1949
  807MOL0     C 8820   3.082   6.525   2.856 -0.2744 -1.1088 -0.4428
  807MOL0     C 8821   3.220   6.571   2.896 -0.4483 -0.5102 -0.3930
  807MOL0     C 8822   3.230   6.730   2.881  0.6748  0.3724  0.8785
  807MOL0     C 8823   3.342   6.765   2.974  0.0742  0.1021  0.8839
  807MOL0     C 8824   3.380   6.906   2.934 -0.2795  0.0784 -0.3616
  807MOL0     C 8825   3.502   6.955   3.007 -0.7527  0.2736 -0.4699
  807MOL0     C 8826   3.557   7.093   2.972 -0.9731  1.3692 -0.7321
  807MOL0     N 8827   3.469   7.208   2.997  0.2491 -0.1204 -0.0210
  807MOL0     C 8828   3.360   7.256   2.934  0.0205  0.0030  0.3372
  807MOL0     C 8829   3.335   7.382   2.986  0.2949  0.1711  0.0848
  807MOL0     C 8830   3.224   7.482   2.956 -0.5031 -0.3065  0.5845
  807MOL0     C 8831   3.174   7.549   3.078 -0.3654 -0.3206 -0.6158
  807MOL0     C 8832   3.079   7.666   3.044 -0.4516  0.3902 -0.5470
  807MOL0     C 8833   2.943   7.625   2.997  1.4467  1.2353 -0.0306
  807MOL0     O 8834   2.890   7.518   3.072  0.3885  1.0192 -0.1429
  807MOL0     C 8835   2.853   7.400   3.015  0.0457 -0.0003  1.2959
  807MOL0     C 8836   2.916   7.278   3.046 -0.3919 -1.6412 -0.3317
  807MOL0     C 8837   2.879   7.159   2.984 -0.0214 -0.8673  0.2237
  807MOL0     C 8838   2.937   7.022   3.032 -0.2697 -0.6674 -0.0072
  807MOL0     C 8839   2.770   7.160   2.890  0.2704  0.1990 -0.8862
  807MOL0     C 8840   2.713   7.036   2.827  0.2299 -0.2764 -0.1663
  807MOL0     O 8841   2.791   6.930   2.811 -0.7623  0.4544  0.7951
  807MOL0     C 8842   2.727   6.821   2.754 -0.4128  0.9362  0.4648
  807MOL0     C 8843   2.663   6.722   2.838 -0.5046  0.5308 -0.7893
  807MOL0     C 8844   2.599   6.618   2.769 -0.3985  0.1525  0.1655
  807MOL0     C 8845   2.593   6.606   2.628  0.1714 -0.3399 -0.2386
  807MOL0     O 8846   2.521   6.491   2.587 -1.2809 -0.5043  1.5587
  807MOL0     C 8847   2.510   6.466   2.438 -0.4869 -0.1256  0.2851
  807MOL0     C 8848   2.373   6.433   2.379 -0.9668 -0.3376  0.0946
  807MOL0     C 8849   2.272   6.545   2.393 -0.1913 -0.2490  1.1573
  807MOL0     C 8850   2.152   6.510   2.303  0.0590  0.0030  0.5150
  807MOL0     C 8851   2.060   6.633   2.280  0.3941 -0.4930 -0.2779
  807MOL0     C 8852   2.046   6.652   2.124  0.4305 -0.4580 -0.8378
  807MOL0     C 8853   1.958   6.765   2.080 -0.6081  0.2021  0.8208
  807MOL0     C 8854   1.819   6.707   2.031  0.0210  0.3931  0.1025
  807MOL0    Cl 8855   1.688   6.836   2.022  0.7522  0.0552  0.4164
  807MOL0     C 8856   2.659   6.707   2.551  0.6800 -0.1747 -0.8928
  807MOL0     C 8857   2.717   6.818   2.615  0.5170 -0.4258  0.4332
  807MOL0     O 8858   2.599   7.038   2.804  0.1837  0.3349 -0.4901
  807MOL0     C 8859   2.703   7.285   2.864  0.5386  1.0720  0.1245
  807MOL0     C 8860   2.756   7.396   2.917  0.2231 -0.7593  0.3173
  807MOL0     N 8861   3.442   7.406   3.074 -0.1775 -0.2796 -0.0311
  807MOL0     N 8862   3.516   7.305   3.083  0.4224  0.5153 -0.7179
  807MOL0     C 8863   3.032   6.217   2.510 -0.2661 -0.9110 -0.3934
  807MOL0     C 8864   2.938   6.137   2.445 -0.4266 -0.4122 -0.3214
  807MOL0     C 8865   2.555   5.990   2.272 -0.0566 -0.2754  0.8383
  807MOL0     C 8866   2.471   5.922   2.365 -0.0089 -0.1634  0.1542
  807MOL0     C 8867   2.373   5.839   2.321  0.6662 -0.1570 -1.2942
  807MOL0     C 8868   2.353   5.818   2.179 -0.0301 -1.1683  0.0306
  807MOL0     O 8869   2.273   5.722   2.135 -0.1156  0.5841  1.1171
  807MOL0     C 8870   2.169   5.675   2.214 -0.2689  0.5866  1.2142
  807MOL0     C 8871   2.085   5.612   2.103  0.1208  0.1510  0.2749
  807MOL0     C 8872   2.039   5.709   1.994  0.1401  0.4955 -0.1820
  807MOL0     C 8873   1.970   5.626   1.880  0.3621 -0.1779  0.3793
  807MOL0     C 8874   2.076   5.592   1.784  0.0359 -0.2522  0.4182
  807MOL0     C 8875   2.163   5.561   1.708  0.1397  0.2172  0.3735
  807MOL0     C 8876   2.427   5.895   2.090  0.4299  0.1297  0.2507
  807MOL0     C 8877   2.521   5.988   2.132  0.5301 -0.3103 -0.1205
  807MOL0     H 8878   2.678   6.222   2.638 -1.4579 -2.9433 -1.1327
  807MOL0     H 8879   2.843   6.377   2.740 -0.0638 -1.0763  1.0251
  807MOL0     H 8880   3.101   6.617   2.662 -0.8773  1.3186  1.1177
  807MOL0     H 8881   2.948   6.548   2.701  0.1093  0.9143  0.6285
  807MOL0     H 8882   3.009   6.580   2.915  1.5410 -1.9476  2.8691
  807MOL0     H 8883   3.083   6.419   2.882  2.0197 -1.5845 -2.0826
  807MOL0     H 8884   3.238   6.530   2.996 -0.1719 -1.7857 -0.9513
  807MOL0     H 8885   3.298   6.520   2.840 -1.2942  0.6690 -2.8261
  807MOL0     H 8886   3.252   6.750   2.775 -1.9655 -1.6095 -0.1492
  807MOL0     H 8887   3.134   6.776   2.907  0.2099  0.1263 -0.3256
  807MOL0     H 8888   3.319   6.748   3.080 -0.8433 -1.3362  0.4902
  807MOL0     H 8889   3.429   6.699   2.959 -1.5483 -2.0324  0.2909
  807MOL0     H 8890   3.409   6.904   2.828  1.5280  1.8890  0.0337
  807MOL0     H 8891   3.295   6.970   2.958  0.2598 -0.4838  3.7761
  807MOL0     H 8892   3.478   6.951   3.114 -2.0317 -0.3646 -0.7571
  807MOL0     H 8893   3.587   6.885   3.008 -0.1405  0.7702  4.0448
  807MOL0     H 8894   3.574   7.097   2.864  0.6645 -1.9407 -0.7040
  807MOL0     H 8895   3.651   7.119   3.021 -1.2738  1.7393 -0.3336
  807MOL0     H 8896   3.309   7.203   2.854 -2.8638  0.3688  1.8378
  807MOL0     H 8897   3.264   7.553   2.883 -2.9859  1.3321  0.7324
  807MOL0     H 8898   3.146   7.430   2.900 -0.0413  0.0947 -0.4627
  807MOL0     H 8899   3.256   7.598   3.132 -0.8759  0.1986 -0.3048
  807MOL0     H 8900   3.130   7.477   3.148  2.7757  0.7766  2.8081
  807MOL0     H 8901   3.122   7.740   2.976 -0.5147  1.6445  0.7309
  807MOL0     H 8902   3.061   7.711   3.142  1.8557  0.0359  0.0818
  807MOL0     H 8903   2.954   7.606   2.890  2.8333  1.7452  0.0085
  807MOL0     H 8904   2.871   7.706   3.006  2.2767  1.8147  2.1675
  807MOL0     H 8905   2.992   7.271   3.122  2.2582  4.9208 -1.7243
  807MOL0     H 8906   3.029   7.039   3.088 -0.9990  1.2661  0.6754
  807MOL0     H 8907   2.868   6.966   3.096 -0.7713 -0.6227 -0.5037
  807MOL0     H 8908   2.965   6.963   2.945 -0.2035 -2.9702  1.4850
  807MOL0     H 8909   2.660   6.725   2.946 -5.9422 -1.2917 -0.5813
  807MOL0     H 8910   2.538   6.541   2.816 -1.4420  0.4020 -0.7189
  807MOL0     H 8911   2.559   6.536   2.370 -1.0677  0.8789  0.8727
  807MOL0     H 8912   2.578   6.381   2.431 -0.0183  0.1961  0.7639
  807MOL0     H 8913   2.387   6.395   2.277  0.0107 -0.6755  0.3408
  807MOL0     H 8914   2.342   6.338   2.423 -0.2624 -0.3305  0.6298
  807MOL0     H 8915   2.312   6.642   2.362  0.2989 -0.4852  1.0417
  807MOL0     H 8916   2.239   6.558   2.496 -2.9768 -2.3614  0.6560
  807MOL0     H 8917   2.177   6.474   2.203  2.6718 -1.3255  1.5247
  807MOL0     H 8918   2.088   6.444   2.362  2.5563 -0.9227  2.4195
  807MOL0     H 8919   2.092   6.724   2.332 -1.4001  1.2347 -2.0204
  807MOL0     H 8920   1.958   6.617   2.316  0.8728 -2.6961  0.2370
  807MOL0     H 8921   2.145   6.671   2.082 -0.0879  0.5108 -1.6720
  807MOL0     H 8922   2.009   6.557   2.085 -0.1999 -1.4217  1.8987
  807MOL0     H 8923   2.004   6.826   2.003 -0.8292 -1.1602 -0.4265
  807MOL0     H 8924   1.946   6.838   2.161  1.7675  1.8619 -0.2243
  807MOL0     H 8925   1.794   6.646   2.118  1.2130 -0.0723  0.1388
  807MOL0     H 8926   1.819   6.658   1.934  2.0445 -0.9350  0.7088
  807MOL0     H 8927   2.650   6.721   2.444  0.2167  1.4102 -0.6691
  807MOL0     H 8928   2.759   6.903   2.563 -3.4062  1.8760  0.6708
  807MOL0     H 8929   2.617   7.288   2.797  1.2951 -0.1492 -0.9280
  807MOL0     H 8930   2.708   7.491   2.900 -1.4753 -1.8136 -1.1587
  807MOL0     H 8931   3.136   6.218   2.482 -0.3453 -0.7727 -0.6851
  807MOL0     H 8932   2.966   6.075   2.361 -2.6147  0.6092 -1.9122
  807MOL0     H 8933   2.482   5.937   2.472 -3.4989 -0.3472  0.6626
  807MOL0     H 8934   2.312   5.802   2.403  2.2374 -0.0691 -0.0437
  807MOL0     H 8935   2.194   5.601   2.291 -0.5442 -2.8540 -1.7198
  807MOL0     H 8936   2.112   5.759   2.255  1.7808  2.0848  1.1371
  807MOL0     H 8937   1.996   5.559   2.136  1.0399 -0.3332  2.0641
  807MOL0     H 8938   2.155   5.541   2.058  1.6005  2.0559 -0.6028
  807MOL0     H 8939   2.114   5.777   1.951  0.9166 -1.1639 -1.5999
  807MOL0     H 8940   1.966   5.772   2.045  0.5354 -0.4647  1.6494
  807MOL0     H 8941   1.890   5.675   1.825  1.2824 -0.5861 -1.4016
  807MOL0     H 8942   1.936   5.532   1.925  0.0367  1.4955  4.0224
  807MOL0     H 8943   2.222   5.511   1.635  0.9684 -1.8664  2.3528
  807MOL0     H 8944   2.394   5.885   1.987  0.0612  1.5951  0.2136
  807MOL0     H 8945   2.577   6.052   2.064  1.9421 -1.9310 -0.5625
  808MOL0     O 8946   6.093   7.500  10.501  0.1841  0.7673  0.2359
  808MOL0     C 8947   6.021   7.482  10.597  0.1947 -0.2661 -0.0016
  808MOL0     O 8948   5.889   7.518  10.605 -0.5406 -0.0159 -0.3886
  808MOL0     C 8949   5.860   7.642  10.549  0.2388 -0.1814 -0.3778
  808MOL0     C 8950   5.944   7.749  10.546  0.7196 -0.2548 -0.1441
  808MOL0     C 8951   5.891   7.870  10.489 -0.0758 -0.1859 -0.8818
  808MOL0     C 8952   5.754   7.893  10.460  0.6581  0.1851  0.2581
  808MOL0     O 8953   5.697   8.005  10.402 -0.1993  0.6576 -0.2988
  808MOL0     C 8954   5.781   8.068  10.308 -0.3795 -1.1494 -1.1376
  808MOL0     C 8955   5.700   8.112  10.195  0.7924 -0.8124 -0.5367
  808MOL0     C 8956   5.786   8.200  10.092 -0.0464 -0.4984  1.1918
  808MOL0     C 8957   5.706   8.277   9.993  0.5672  0.3233 -0.4272
  808MOL0     C 8958   5.790   8.408   9.938  0.5126  1.1018 -0.5770
  808MOL0     C 8959   5.694   8.504   9.866  0.3278  0.5680  0.0652
  808MOL0     C 8960   5.762   8.618   9.799  0.0756 -0.4841  0.3459
  808MOL0     C 8961   5.676   8.693   9.694 -0.9401  1.0931  0.2754
  808MOL0     N 8962   5.728   8.831   9.669 -0.2200 -0.3740 -0.0564
  808MOL0     C 8963   5.845   8.862   9.596 -1.0911  0.3545  0.0227
  808MOL0     C 8964   5.836   8.992   9.585  0.0538 -0.5615  0.5081
  808MOL0     C 8965   5.932   9.066   9.506  0.2547 -0.1053  0.7266
  808MOL0     C 8966   5.913   9.222   9.490  1.6063 -0.4011 -0.6289
  808MOL0     C 8967   5.941   9.292   9.629  0.1028  0.8887 -0.2196
  808MOL0     C 8968   5.916   9.445   9.629 -0.5739  0.7036  0.3527
  808MOL0     O 8969   5.941   9.485   9.487  0.5804 -0.1272  0.0004
  808MOL0     C 8970   5.915   9.606   9.433 -1.0801  0.4875 -0.0942
  808MOL0     C 8971   5.894   9.609   9.296 -0.1729  0.4574 -0.8095
  808MOL0     C 8972   5.856   9.706   9.215 -0.4206 -0.4922 -0.0953
  808MOL0     C 8973   5.870   9.669   9.071 -1.7404 -0.4137  0.4714
  808MOL0     C 8974   5.825   9.828   9.288  0.2604  0.2495 -0.2846
  808MOL0     C 8975   5.799   9.955   9.217  0.1671 -0.2449 -0.0514
  808MOL0     O 8976   5.801   9.947   9.085 -0.4070 -0.7959 -0.0021
  808MOL0     C 8977   5.802  10.058   9.011 -0.3197  0.8836 -0.1801
  808MOL0     C 8978   5.716  10.173   9.022 -0.1743 -0.5348  0.3734
  808MOL0     C 8979   5.723  10.276   8.924 -0.3723 -0.8431  0.4019
  808MOL0     C 8980   5.807  10.262   8.811 -0.0097  0.2152 -0.5425
  808MOL0     O 8981   5.829  10.368   8.728 -0.3048  0.3763 -0.4396
  808MOL0     C 8982   5.780  10.332   8.595  0.1175  0.5787  0.0839
  808MOL0     C 8983   5.865  10.404   8.490  0.1418  0.7344 -0.2203
  808MOL0     C 8984   5.848  10.325   8.352  0.0495  0.5985 -0.2523
  808MOL0     C 8985   5.911  10.404   8.237  0.0175 -0.3403 -0.8098
  808MOL0     C 8986   6.063  10.377   8.236  0.0139 -0.2934  0.0331
  808MOL0     C 8987   6.141  10.503   8.236 -0.3190  0.0619 -1.0169
  808MOL0     C 8988   6.291  10.482   8.248  0.0483 -0.1473 -0.6991
  808MOL0     C 8989   6.357  10.615   8.271 -0.4289  0.1009  0.4851
  808MOL0    Cl 8990   6.499  10.612   8.391  0.2380  0.1794 -0.1016
  808MOL0     C 8991   5.875  10.151   8.793 -0.9658  0.0652  0.1649
  808MOL0     C 8992   5.874  10.048   8.890 -0.8894  0.2489 -0.1250
  808MOL0     O 8993   5.784  10.053   9.284  0.1750  0.1581 -0.1193
  808MOL0     C 8994   5.850   9.831   9.427  0.1253  0.1494  0.1084
  808MOL0     C 8995   5.881   9.720   9.497  0.7766  1.0200  0.2648
  808MOL0     N 8996   5.716   9.042   9.635  0.9247 -0.1127  0.1796
  808MOL0     N 8997   5.654   8.945   9.699  0.6763  0.1153  0.3175
  808MOL0     C 8998   5.672   7.787  10.481 -0.6289 -0.1376 -0.9010
  808MOL0     C 8999   5.726   7.663  10.520 -0.7420 -0.5048  0.4724
  808MOL0     C 9000   6.075   7.393  10.701 -0.1623 -0.2354  0.2417
  808MOL0     C 9001   6.221   7.366  10.693  1.2582  0.7469 -1.1452
  808MOL0     C 9002   6.281   7.295  10.788 -0.2619  0.1253 -0.3265
  808MOL0     C 9003   6.208   7.249  10.898  0.4731 -0.8602  0.2411
  808MOL0     O 9004   6.273   7.179  10.989 -0.5394 -0.0474 -0.7181
  808MOL0     C 9005   6.213   7.130  11.104  0.4196 -0.2063 -0.8784
  808MOL0     C 9006   6.332   7.068  11.177  0.8099 -0.9790  0.3373
  808MOL0     C 9007   6.382   6.938  11.116  0.2990 -0.0091 -0.4947
  808MOL0     C 9008   6.297   6.818  11.151 -1.0058  0.5693 -0.2649
  808MOL0     C 9009   6.304   6.785  11.294  0.2507 -0.3687 -0.3349
  808MOL0     C 9010   6.307   6.733  11.401 -0.1430 -0.1377 -0.1584
  808MOL0     C 9011   6.074   7.272  10.899  0.3045  0.7439  0.1011
  808MOL0     C 9012   6.005   7.341  10.800 -0.1572 -0.0604  0.2130
  808MOL0     H 9013   6.051   7.751  10.567  0.4887  1.1528  1.0215
  808MOL0     H 9014   5.961   7.953  10.494  0.3553 -0.5994  0.1724
  808MOL0     H 9015   5.816   8.155  10.365  1.0304 -2.4434  0.0481
  808MOL0     H 9016   5.863   8.006  10.273  0.3986  0.6846 -2.7868
  808MOL0     H 9017   5.651   8.026  10.148  0.5611 -0.8858 -0.1640
  808MOL0     H 9018   5.625   8.177  10.241  2.1501 -0.4026  1.1906
  808MOL0     H 9019   5.844   8.279  10.140  0.8010 -1.3883  1.6496
  808MOL0     H 9020   5.858   8.135  10.042  0.4048  2.1395 -1.8864
  808MOL0     H 9021   5.673   8.224   9.903 -1.5822 -0.1367  0.5708
  808MOL0     H 9022   5.613   8.309  10.041 -0.8005 -0.1677 -2.6236
  808MOL0     H 9023   5.844   8.467  10.013 -2.3085  1.3676  1.4009
  808MOL0     H 9024   5.861   8.377   9.860 -0.0613  1.2669 -1.1671
  808MOL0     H 9025   5.642   8.436   9.798 -0.4722  0.1731  1.0576
  808MOL0     H 9026   5.622   8.539   9.940  1.2616  0.3998  1.0822
  808MOL0     H 9027   5.795   8.681   9.882 -0.2875 -0.3215  0.3722
  808MOL0     H 9028   5.849   8.583   9.744  0.9709  2.0898  0.0095
  808MOL0     H 9029   5.571   8.699   9.724 -0.6492 -0.9083  1.9731
  808MOL0     H 9030   5.698   8.631   9.607  0.2910  1.4242  0.3289
  808MOL0     H 9031   5.920   8.792   9.561  0.1557  2.2445 -1.2069
  808MOL0     H 9032   6.031   9.055   9.550  0.3569  0.1571  0.5652
  808MOL0     H 9033   5.931   9.020   9.406 -3.7256  0.5380  0.2813
  808MOL0     H 9034   5.809   9.240   9.463  1.0376  0.4112  1.8707
  808MOL0     H 9035   5.984   9.248   9.411  2.6987 -3.5467 -0.7987
  808MOL0     H 9036   6.041   9.283   9.672 -0.5702  1.3806  1.5395
  808MOL0     H 9037   5.866   9.247   9.694  0.5694  0.1622 -0.1724
  808MOL0     H 9038   5.995   9.494   9.686 -0.9515  1.0085  0.6188
  808MOL0     H 9039   5.813   9.466   9.662 -0.8938  1.9464 -1.3048
  808MOL0     H 9040   5.914   9.515   9.245  1.7391  0.0067  0.6489
  808MOL0     H 9041   5.783   9.704   9.016 -0.1027  2.9026 -0.2724
  808MOL0     H 9042   5.945   9.730   9.020 -2.6911  0.4853  0.1032
  808MOL0     H 9043   5.892   9.564   9.050 -0.6674 -0.0009 -0.5736
  808MOL0     H 9044   5.654  10.190   9.110 -1.9393 -2.8730 -0.3231
  808MOL0     H 9045   5.656  10.362   8.926  0.5388 -0.1160  0.3293
  808MOL0     H 9046   5.785  10.225   8.576  1.7983  0.6753 -0.1848
  808MOL0     H 9047   5.677  10.360   8.574  0.4092  0.5379 -1.5472
  808MOL0     H 9048   5.827  10.507   8.480 -1.4509  0.2942  0.8687
  808MOL0     H 9049   5.970  10.404   8.522  0.4192 -0.4960 -1.0807
  808MOL0     H 9050   5.744  10.299   8.334 -0.1787 -0.1542  1.8974
  808MOL0     H 9051   5.897  10.227   8.342 -1.1922 -0.0129 -0.5106
  808MOL0     H 9052   5.860  10.386   8.142  0.2083 -4.0118 -0.3689
  808MOL0     H 9053   5.905  10.511   8.262  1.2272 -0.7271  1.3852
  808MOL0     H 9054   6.085  10.320   8.145  1.8439 -1.1086  0.9245
  808MOL0     H 9055   6.088  10.319   8.325 -1.4031 -0.0293  0.6229
  808MOL0     H 9056   6.127  10.540   8.133 -1.7022 -1.6712 -1.5112
  808MOL0     H 9057   6.107  10.574   8.311  1.5785  0.4748 -0.4961
  808MOL0     H 9058   6.325  10.430   8.157  0.4380 -2.9889  0.9597
  808MOL0     H 9059   6.305  10.410   8.329 -0.7695 -3.3674 -3.1745
  808MOL0     H 9060   6.284  10.685   8.312  1.2615  0.3866  3.3440
  808MOL0     H 9061   6.384  10.649   8.171 -1.3711  1.9575  0.8158
  808MOL0     H 9062   5.930  10.130   8.702  0.4851 -2.8141  1.5879
  808MOL0     H 9063   5.929   9.956   8.870 -0.7742  0.5151 -1.0852
  808MOL0     H 9064   5.826   9.922   9.480  0.1223  1.3659 -1.8812
  808MOL0     H 9065   5.889   9.719   9.605  0.8692 -1.0423  0.2890
  808MOL0     H 9066   5.564   7.794  10.472 -0.4370  1.0962 -2.8610
  808MOL0     H 9067   5.653   7.583  10.511 -5.5216  3.5999 -4.1092
  808MOL0     H 9068   6.279   7.409  10.612 -1.6131  2.5931 -2.3663
  808MOL0     H 9069   6.387   7.282  10.768 -0.6857 -1.0736 -2.0674
  808MOL0     H 9070   6.171   7.209  11.167  0.6086 -0.8886  0.1326
  808MOL0     H 9071   6.138   7.051  11.091 -1.2502  1.1528  0.0471
  808MOL0     H 9072   6.314   7.063  11.284  4.1311 -3.9655  0.9542
  808MOL0     H 9073   6.417   7.137  11.168  0.5069 -0.5118  1.0291
  808MOL0     H 9074   6.477   6.921  11.168 -0.9480 -1.6054  1.4287
  808MOL0     H 9075   6.398   6.938  11.008 -1.1306  1.8233 -0.7491
  808MOL0     H 9076   6.325   6.736  11.085  0.5831 -1.1156  2.3331
  808MOL0     H 9077   6.191   6.836  11.130 -1.7907 -1.0896  1.8385
  808MOL0     H 9078   6.301   6.704  11.504 -1.6005  0.3139 -0.0905
  808MOL0     H 9079   6.005   7.232  10.974 -1.6733  3.1870 -0.2669
  808MOL0     H 9080   5.897   7.352  10.797 -0.3316 -1.6146 -0.0657
  809MOL0     O 9081   1.726  10.006   3.170 -0.1286 -0.0898  0.4705
  809MOL0     C 9082   1.793   9.962   3.260 -0.0125  0.2421  1.0612
  809MOL0     O 9083   1.920  10.004   3.282 -0.1065 -0.0767 -0.4328
  809MOL0     C 9084   1.977  10.097   3.207 -0.0997 -0.0992 -0.3244
  809MOL0     C 9085   2.005  10.227   3.269  0.6378  0.6664  0.7852
  809MOL0     C 9086   2.081  10.316   3.196 -0.3120  0.0916  0.3666
  809MOL0     C 9087   2.124  10.288   3.062  0.1181  0.2791  0.2836
  809MOL0     O 9088   2.185  10.373   2.984 -0.2516  0.3072 -0.0523
  809MOL0     C 9089   2.209  10.510   3.023  0.3055 -0.1799  1.0913
  809MOL0     C 9090   2.225  10.590   2.901 -0.2550  0.0895  0.5860
  809MOL0     C 9091   2.112  10.595   2.810  0.1362  1.1901  0.3994
  809MOL0     C 9092   2.138  10.693   2.705 -0.7798  0.0909  0.2383
  809MOL0     C 9093   2.068  10.821   2.743 -0.1156  0.7536  0.7960
  809MOL0     C 9094   2.071  10.925   2.631 -0.2772 -0.3774 -0.2437
  809MOL0     C 9095   1.963  11.028   2.672 -0.0586  0.3433 -0.1700
  809MOL0     C 9096   1.944  11.145   2.580 -1.2684 -0.7567 -0.5715
  809MOL0     N 9097   1.894  11.106   2.450  0.7830  0.5622 -0.3550
  809MOL0     C 9098   1.763  11.072   2.414 -0.3138  0.5988  0.0279
  809MOL0     C 9099   1.759  11.076   2.285 -0.0038  0.0192  0.2680
  809MOL0     C 9100   1.646  11.033   2.191  0.3890 -0.3810 -0.0531
  809MOL0     C 9101   1.614  11.126   2.067 -0.4553 -0.0113 -0.4881
  809MOL0     C 9102   1.726  11.144   1.964 -0.2310  0.3732  0.2740
  809MOL0     C 9103   1.688  11.235   1.848  0.1103 -0.5090  0.9344
  809MOL0     O 9104   1.570  11.185   1.783 -0.0639  0.6073  0.1846
  809MOL0     C 9105   1.509  11.251   1.678 -0.0226  0.6506  0.0589
  809MOL0     C 9106   1.403  11.193   1.592 -0.4536 -0.5956  0.5589
  809MOL0     C 9107   1.341  11.264   1.491  0.0969 -0.3905  0.8200
  809MOL0     C 9108   1.236  11.192   1.405  0.5205 -0.2218 -0.2369
  809MOL0     C 9109   1.375  11.403   1.475 -0.7408 -0.2673 -0.5647
  809MOL0     C 9110   1.306  11.502   1.391  0.9652  0.0974 -0.2852
  809MOL0     O 9111   1.366  11.629   1.396 -0.7506  0.1093  0.0910
  809MOL0     C 9112   1.312  11.737   1.337 -0.4150 -0.0389  0.4010
  809MOL0     C 9113   1.178  11.777   1.365 -0.0901 -0.3124  0.3869
  809MOL0     C 9114   1.124  11.893   1.307  0.6826 -0.4637 -1.0926
  809MOL0     C 9115   1.204  11.964   1.222 -0.0607 -0.3350  0.5480
  809MOL0     O 9116   1.158  12.079   1.160  0.6263 -0.0066 -0.1113
  809MOL0     C 9117   1.084  12.170   1.245  0.7390 -1.1509 -0.0443
  809MOL0     C 9118   1.050  12.297   1.158  0.4634 -0.1663 -0.5102
  809MOL0     C 9119   1.017  12.415   1.251  0.6780  0.3021 -0.0013
  809MOL0     C 9120   0.996  12.534   1.164 -0.0882  0.9883 -0.5417
  809MOL0     C 9121   0.921  12.640   1.233  0.9147 -1.8054 -0.5098
  809MOL0     C 9122   0.774  12.642   1.196  1.0425  0.3160 -0.4203
  809MOL0     C 9123   0.688  12.736   1.275  0.6341  0.4998  1.0749
  809MOL0     C 9124   0.550  12.732   1.230 -0.0729 -0.2764  0.4123
  809MOL0    Cl 9125   0.541  12.804   1.069  0.2058 -0.6628 -0.5836
  809MOL0     C 9126   1.327  11.920   1.176 -0.0063  0.9333  0.1864
  809MOL0     C 9127   1.393  11.808   1.241 -0.3294  0.0847  0.4287
  809MOL0     O 9128   1.202  11.474   1.329  0.1234 -0.8071 -0.0706
  809MOL0     C 9129   1.493  11.454   1.548 -0.3036 -0.2059 -0.4375
  809MOL0     C 9130   1.553  11.377   1.639 -0.4838  0.8520 -0.1024
  809MOL0     N 9131   1.894  11.093   2.238  0.0430  0.5710 -0.2843
  809MOL0     N 9132   1.973  11.097   2.345 -0.5165 -0.5363 -0.2056
  809MOL0     C 9133   2.081  10.163   3.005  0.8337  0.6512  0.8045
  809MOL0     C 9134   2.018  10.066   3.078 -0.3364  0.3112  0.1832
  809MOL0     C 9135   1.728   9.868   3.356 -0.0958  0.7733  0.2588
  809MOL0     C 9136   1.794   9.843   3.476  0.5791 -1.2482 -0.1492
  809MOL0     C 9137   1.723   9.761   3.566 -0.4134 -0.2686  0.4298
  809MOL0     C 9138   1.597   9.717   3.540  0.8846  0.0723 -0.3269
  809MOL0     O 9139   1.536   9.641   3.639 -0.3545  0.8928  0.2283
  809MOL0     C 9140   1.419   9.563   3.606 -0.4383  0.8564  0.0480
  809MOL0     C 9141   1.435   9.461   3.485  0.4954 -0.1371 -0.4794
  809MOL0     C 9142   1.556   9.382   3.498 -0.1241  0.1269  0.9635
  809MOL0     C 9143   1.594   9.294   3.384 -0.6977 -0.9240 -0.3836
  809MOL0     C 9144   1.720   9.219   3.416 -0.2084  0.2534 -0.5621
  809MOL0     C 9145   1.829   9.178   3.451 -0.6006 -0.2010 -0.6195
  809MOL0     C 9146   1.534   9.744   3.428  0.3122 -0.3208  0.8391
  809MOL0     C 9147   1.595   9.827   3.332  0.1107  0.4798 -0.2397
  809MOL0     H 9148   1.962  10.247   3.367  0.4845 -0.0587  0.8747
  809MOL0     H 9149   2.098  10.409   3.249  1.2783  0.4770 -0.7489
  809MOL0     H 9150   2.113  10.547   3.061 -0.3136 -1.9545  1.3669
  809MOL0     H 9151   2.295  10.540   3.084 -1.0353  1.5523  2.2188
  809MOL0     H 9152   2.247  10.693   2.930 -2.1617  1.0343 -1.1033
  809MOL0     H 9153   2.321  10.564   2.854  0.9977  1.4425  2.2573
  809MOL0     H 9154   2.096  10.492   2.774 -1.0695  2.1257 -2.0127
  809MOL0     H 9155   2.022  10.629   2.862  2.3205  5.2252  1.9187
  809MOL0     H 9156   2.247  10.698   2.695 -0.9232  0.9398 -1.3338
  809MOL0     H 9157   2.101  10.655   2.609 -0.6913 -1.8388  0.9343
  809MOL0     H 9158   1.961  10.807   2.757 -0.2084  2.5621  2.3247
  809MOL0     H 9159   2.117  10.859   2.833  2.5309 -1.4684  0.4422
  809MOL0     H 9160   2.170  10.971   2.617 -0.8308 -0.2446 -5.1520
  809MOL0     H 9161   2.053  10.880   2.534 -2.9732 -0.5925  0.2818
  809MOL0     H 9162   1.867  10.981   2.697  0.0030  1.7183  3.2072
  809MOL0     H 9163   1.992  11.061   2.772 -0.7890 -2.7335  1.1856
  809MOL0     H 9164   2.037  11.201   2.582 -0.5075 -1.8254 -2.6542
  809MOL0     H 9165   1.864  11.201   2.629  1.5836 -1.6636  6.1962
  809MOL0     H 9166   1.685  11.054   2.487  0.7598  1.3802  1.4105
  809MOL0     H 9167   1.685  10.939   2.151  5.3341  2.8162 -4.0908
  809MOL0     H 9168   1.558  11.022   2.255 -0.0779  3.4796  0.2470
  809MOL0     H 9169   1.601  11.226   2.110  1.7306  0.0793  0.1036
  809MOL0     H 9170   1.523  11.086   2.021  0.3687 -5.6253  2.0444
  809MOL0     H 9171   1.745  11.053   1.907 -0.3194  1.4760 -1.5990
  809MOL0     H 9172   1.820  11.177   2.009  1.3587 -2.4107 -0.7743
  809MOL0     H 9173   1.770  11.250   1.777 -2.9129 -2.7204 -3.4060
  809MOL0     H 9174   1.663  11.335   1.885  0.2804 -0.6379  1.4099
  809MOL0     H 9175   1.368  11.091   1.603  0.1235 -0.7747  0.8214
  809MOL0     H 9176   1.253  11.225   1.302  4.5805 -1.3772 -0.1127
  809MOL0     H 9177   1.255  11.084   1.402  2.7952  0.0816  1.0580
  809MOL0     H 9178   1.139  11.225   1.445  1.1996 -0.4011  1.6735
  809MOL0     H 9179   1.117  11.717   1.432 -0.0975  0.8822  1.4992
  809MOL0     H 9180   1.025  11.916   1.346  2.9039 -1.2734  6.9399
  809MOL0     H 9181   0.998  12.123   1.292  1.4072 -1.9893  0.3609
  809MOL0     H 9182   1.162  12.197   1.318  1.9803 -2.9784 -0.6307
  809MOL0     H 9183   1.134  12.332   1.097  2.3156  2.0334  2.9364
  809MOL0     H 9184   0.963  12.281   1.094 -1.6595 -1.6348  2.5127
  809MOL0     H 9185   1.086  12.452   1.327 -0.6865 -1.1878  2.0775
  809MOL0     H 9186   0.924  12.393   1.305  0.2132  0.2550 -0.8131
  809MOL0     H 9187   1.091  12.583   1.139 -0.5500  1.3975 -1.5328
  809MOL0     H 9188   0.944  12.504   1.073  1.2613 -0.1306 -0.9687
  809MOL0     H 9189   0.954  12.740   1.204 -0.8761 -0.4096  1.8520
  809MOL0     H 9190   0.940  12.625   1.340  1.6800  2.9393  0.2779
  809MOL0     H 9191   0.769  12.673   1.091  3.8117  0.8527 -0.4890
  809MOL0     H 9192   0.728  12.544   1.200 -1.1969  1.3376  0.5633
  809MOL0     H 9193   0.708  12.843   1.275 -2.5779  1.2601 -0.9719
  809MOL0     H 9194   0.698  12.709   1.381  3.3788 -0.4613  0.6456
  809MOL0     H 9195   0.487  12.771   1.311  0.3481 -1.7044  1.4724
  809MOL0     H 9196   0.517  12.628   1.221  0.2735 -0.3203 -0.4175
  809MOL0     H 9197   1.364  11.982   1.095 -0.5352 -0.2071 -0.9521
  809MOL0     H 9198   1.485  11.758   1.211 -0.0535 -0.3693  1.9236
  809MOL0     H 9199   1.532  11.555   1.539  0.2426 -0.4272 -0.5368
  809MOL0     H 9200   1.633  11.434   1.685 -1.8907  4.0464 -1.2946
  809MOL0     H 9201   2.103  10.149   2.899 -0.8803  2.5539  0.1203
  809MOL0     H 9202   1.988   9.971   3.035  5.2722 -1.4295 -0.7366
  809MOL0     H 9203   1.893   9.884   3.495  0.5878 -0.6963 -1.2620
  809MOL0     H 9204   1.760   9.732   3.664 -1.0475 -2.9233 -0.0384
  809MOL0     H 9205   1.392   9.512   3.699  2.0378 -0.5507  0.1021
  809MOL0     H 9206   1.334   9.631   3.597 -0.7857  0.4181  0.0009
  809MOL0     H 9207   1.439   9.511   3.388 -2.0399  2.1153  0.4383
  809MOL0     H 9208   1.342   9.404   3.491  1.3427 -1.4236  0.9077
  809MOL0     H 9209   1.531   9.324   3.588 -1.8122 -1.4952 -0.4788
  809MOL0     H 9210   1.635   9.455   3.517 -1.4118  1.5980  0.8971
  809MOL0     H 9211   1.634   9.352   3.301 -1.3101 -0.5219 -0.3973
  809MOL0     H 9212   1.508   9.233   3.355 -2.0970 -1.1351  3.6266
  809MOL0     H 9213   1.921   9.163   3.505  1.2114  3.8781 -2.1628
  809MOL0     H 9214   1.430   9.719   3.410  1.2163 -2.5677 -1.9424
  809MOL0     H 9215   1.543   9.856   3.241  0.6233 -0.0107 -0.6964
  810MOL0     O 9216   9.892   0.844   9.179  0.0945 -0.1855  0.2956
  810MOL0     C 9217   9.917   0.735   9.133  0.0788  0.8861 -0.4223
  810MOL0     O 9218   9.911   0.609   9.210 -0.2954 -0.6138  0.0094
  810MOL0     C 9219   9.857   0.596   9.334 -0.6019 -0.1318 -0.2987
  810MOL0     C 9220   9.891   0.480   9.399 -0.2184  0.0677  1.2234
  810MOL0     C 9221   9.837   0.448   9.513  0.4990 -0.2089 -0.0008
  810MOL0     C 9222   9.738   0.536   9.572  0.6807 -0.5760 -0.1955
  810MOL0     O 9223   9.683   0.501   9.692 -1.0051  0.7761 -0.0086
  810MOL0     C 9224   9.542   0.485   9.686 -0.0242 -0.8671 -0.7425
  810MOL0     C 9225   9.522   0.344   9.733 -0.0489 -0.5189  0.4861
  810MOL0     C 9226   9.603   0.244   9.643 -0.1734  0.3394 -0.2004
  810MOL0     C 9227   9.552   0.100   9.660 -0.0125  0.4325  0.7378
  810MOL0     C 9228   9.648   0.001   9.590 -0.5825 -0.1736  0.2139
  810MOL0     C 9229   9.575  -0.142   9.571 -0.3254  0.1327 -0.5007
  810MOL0     C 9230   9.577  -0.227   9.696  0.0212  0.9715  0.9048
  810MOL0     C 9231   9.538  -0.373   9.672 -0.3808  0.1163  0.1371
  810MOL0     N 9232   9.500  -0.462   9.789  0.2113 -0.0686  0.6374
  810MOL0     C 9233   9.422  -0.434   9.899  0.0186 -0.6716  0.7059
  810MOL0     C 9234   9.415  -0.537   9.972  0.6877  1.3183  0.6674
  810MOL0     C 9235   9.339  -0.540  10.104 -0.2017  0.4081  0.1880
  810MOL0     C 9236   9.351  -0.669  10.176  0.1619  1.2602 -0.8494
  810MOL0     C 9237   9.298  -0.659  10.318  0.5170 -0.0128 -0.7217
  810MOL0     C 9238   9.281  -0.789  10.392 -0.3156 -0.4559 -1.3454
  810MOL0     O 9239   9.312  -0.774  10.528 -1.0611  0.3809  0.0980
  810MOL0     C 9240   9.248  -0.854  10.617 -0.3033 -0.4781  0.4574
  810MOL0     C 9241   9.260  -0.802  10.748  0.2859  0.0793 -0.2058
  810MOL0     C 9242   9.206  -0.866  10.858 -1.1036 -0.1733 -0.2241
  810MOL0     C 9243   9.224  -0.789  10.989  0.4325  0.5279 -0.3612
  810MOL0     C 9244   9.141  -0.992  10.841 -1.4501 -0.0580  0.4971
  810MOL0     C 9245   9.091  -1.071  10.955  0.5282  0.9518  0.7205
  810MOL0     O 9246   9.022  -1.183  10.916 -0.2485  0.1071  1.1962
  810MOL0     C 9247   8.974  -1.267  11.009  0.1208 -0.3425  1.0068
  810MOL0     C 9248   9.058  -1.370  11.046  0.5577 -0.5442 -1.0658
  810MOL0     C 9249   9.012  -1.439  11.158  0.0689 -0.0980  0.3959
  810MOL0     C 9250   8.901  -1.421  11.236  0.6340  0.1950  0.1863
  810MOL0     O 9251   8.891  -1.504  11.346 -0.7353 -0.2392  0.2826
  810MOL0     C 9252   8.795  -1.462  11.452 -0.0782 -0.0702  0.6168
  810MOL0     C 9253   8.791  -1.577  11.560 -0.1810  0.3429  0.4375
  810MOL0     C 9254   8.879  -1.557  11.685  0.0230  0.4620 -0.0431
  810MOL0     C 9255   9.030  -1.566  11.667  1.0596  0.6716  1.3145
  810MOL0     C 9256   9.097  -1.569  11.798 -0.7167 -0.3731 -0.6295
  810MOL0     C 9257   9.240  -1.614  11.785 -0.3170  0.1820  0.0662
  810MOL0     C 9258   9.350  -1.524  11.702  0.2442  0.7369 -0.3455
  810MOL0     C 9259   9.375  -1.386  11.758  0.3649 -0.1226 -0.1993
  810MOL0    Cl 9260   9.477  -1.402  11.904 -0.3044  0.2349 -0.1067
  810MOL0     C 9261   8.816  -1.314  11.193 -0.1213  1.0236  0.5721
  810MOL0     C 9262   8.856  -1.240  11.079  0.1920 -0.4447 -0.2965
  810MOL0     O 9263   9.087  -1.035  11.069 -0.0289  0.0170  0.4239
  810MOL0     C 9264   9.126  -1.045  10.710 -0.6183 -0.5667  1.0703
  810MOL0     C 9265   9.170  -0.973  10.595 -0.9606 -0.8798  0.3010
  810MOL0     N 9266   9.464  -0.644   9.900 -0.8843  0.2228 -1.2089
  810MOL0     N 9267   9.527  -0.594   9.794  0.8335  1.1481 -0.2207
  810MOL0     C 9268   9.698   0.651   9.507  0.0335 -0.4710 -0.2611
  810MOL0     C 9269   9.764   0.683   9.389  0.7799  0.0356  0.6190
  810MOL0     C 9270   9.981   0.718   8.997  0.5767  0.5619 -0.7581
  810MOL0     C 9271  10.029   0.832   8.932  0.9550 -0.0330 -0.5609
  810MOL0     C 9272  10.076   0.816   8.802  0.4234 -0.5765 -0.2715
  810MOL0     C 9273  10.076   0.696   8.731 -0.4175 -1.1431  0.1988
  810MOL0     O 9274  10.108   0.674   8.597 -0.2320 -0.5560 -0.4442
  810MOL0     C 9275  10.181   0.765   8.517  0.2808  0.3245 -0.0220
  810MOL0     C 9276  10.092   0.877   8.465  0.0574  0.1194 -0.2476
  810MOL0     C 9277   9.976   0.832   8.374 -0.4865 -0.3127  0.6706
  810MOL0     C 9278  10.007   0.809   8.222  0.2003 -0.6766  0.8415
  810MOL0     C 9279  10.023   0.928   8.138  0.1085 -1.0971  0.4294
  810MOL0     C 9280  10.042   1.019   8.051  0.6192  0.3362  0.0288
  810MOL0     C 9281  10.025   0.579   8.795 -0.6346 -0.9636  0.4238
  810MOL0     C 9282   9.982   0.597   8.929 -1.5107  0.8581  0.4728
  810MOL0     H 9283   9.959   0.407   9.357 -0.2998  0.0323  1.1526
  810MOL0     H 9284   9.887   0.362   9.556  1.8749 -0.5266 -2.0665
  810MOL0     H 9285   9.487   0.561   9.743 -0.4777 -2.1387  0.5844
  810MOL0     H 9286   9.514   0.486   9.581  1.0935 -5.5229 -1.2767
  810MOL0     H 9287   9.553   0.350   9.838 -0.4480 -0.7698  0.6217
  810MOL0     H 9288   9.415   0.326   9.718  0.2581 -1.4293 -0.7412
  810MOL0     H 9289   9.608   0.264   9.535 -0.8605 -3.2552 -1.0380
  810MOL0     H 9290   9.707   0.238   9.674  0.0841 -2.3893 -1.3132
  810MOL0     H 9291   9.537   0.065   9.763  3.7140  1.9312  1.9653
  810MOL0     H 9292   9.458   0.109   9.604 -0.2394 -0.0646  1.0313
  810MOL0     H 9293   9.666   0.048   9.493 -1.7778  0.4200  0.2558
  810MOL0     H 9294   9.740  -0.006   9.649  0.1354  2.9275 -0.4095
  810MOL0     H 9295   9.472  -0.109   9.555 -0.0990  1.4094  0.5453
  810MOL0     H 9296   9.619  -0.187   9.481  1.0883  1.4514 -0.5210
  810MOL0     H 9297   9.678  -0.226   9.739  0.7720 -0.4358 -0.7464
  810MOL0     H 9298   9.520  -0.175   9.775  1.0546 -0.2864  2.5415
  810MOL0     H 9299   9.622  -0.416   9.617 -1.1715 -1.3840  0.0484
  810MOL0     H 9300   9.456  -0.382   9.599 -0.4105 -1.7213  0.3375
  810MOL0     H 9301   9.381  -0.338   9.931  3.3902  1.9117 -1.8860
  810MOL0     H 9302   9.377  -0.453  10.157  1.0234 -0.7987  1.3770
  810MOL0     H 9303   9.233  -0.519  10.084 -0.1185 -0.8481 -1.8541
  810MOL0     H 9304   9.452  -0.711  10.186 -1.5297 -2.6498  4.7630
  810MOL0     H 9305   9.300  -0.749  10.122 -1.3910  0.9911  0.9149
  810MOL0     H 9306   9.211  -0.595  10.328  1.2200  0.7108  1.2146
  810MOL0     H 9307   9.380  -0.607  10.367  2.5606 -1.7583 -2.0860
  810MOL0     H 9308   9.328  -0.872  10.340  3.3422  1.1915 -1.0154
  810MOL0     H 9309   9.176  -0.817  10.381 -0.8617  1.0970 -0.5319
  810MOL0     H 9310   9.302  -0.703  10.762 -2.3299  1.1466  0.6227
  810MOL0     H 9311   9.242  -0.866  11.065 -3.2136 -0.8477 -0.6936
  810MOL0     H 9312   9.301  -0.712  10.977  1.1254  0.0828  1.0324
  810MOL0     H 9313   9.129  -0.737  11.009  0.7860  1.0261  0.0564
  810MOL0     H 9314   9.145  -1.378  10.982  0.3787  2.2318 -1.8183
  810MOL0     H 9315   9.062  -1.526  11.197  1.6066  0.7726  0.4361
  810MOL0     H 9316   8.827  -1.363  11.488  0.4690  0.8439 -2.1441
  810MOL0     H 9317   8.705  -1.435  11.396  1.5913  3.2632 -0.7721
  810MOL0     H 9318   8.689  -1.589  11.599 -0.0569 -1.4504  0.2995
  810MOL0     H 9319   8.820  -1.672  11.514 -2.2457 -0.0732 -0.1065
  810MOL0     H 9320   8.837  -1.619  11.764  1.2017  3.3785  3.1269
  810MOL0     H 9321   8.850  -1.459  11.723 -1.8301  0.1010 -0.4089
  810MOL0     H 9322   9.070  -1.664  11.636  2.2882  1.1702  1.2535
  810MOL0     H 9323   9.069  -1.488  11.602  1.8791 -3.1220 -3.3447
  810MOL0     H 9324   9.048  -1.633  11.872  2.8205 -1.2863  1.1488
  810MOL0     H 9325   9.093  -1.466  11.836 -1.4039 -0.8279  0.5929
  810MOL0     H 9326   9.278  -1.633  11.886 -3.7922  0.2478  1.5016
  810MOL0     H 9327   9.235  -1.710  11.733 -1.2698 -0.2139  0.8666
  810MOL0     H 9328   9.302  -1.512  11.605  2.1036  0.8674 -1.2791
  810MOL0     H 9329   9.444  -1.580  11.700 -0.4092 -0.4904 -4.3588
  810MOL0     H 9330   9.282  -1.330  11.776 -0.4143 -1.5474  0.4195
  810MOL0     H 9331   9.431  -1.336  11.679 -0.1270  0.7996  0.0168
  810MOL0     H 9332   8.725  -1.283  11.245 -0.5243 -1.6155  1.5852
  810MOL0     H 9333   8.800  -1.152  11.048  0.7905 -0.3860 -1.2191
  810MOL0     H 9334   9.077  -1.141  10.699 -4.4419  1.3061 -0.0704
  810MOL0     H 9335   9.161  -1.016  10.496 -2.3974 -0.7081  0.3369
  810MOL0     H 9336   9.638   0.727   9.556  1.8100 -1.7089  4.3280
  810MOL0     H 9337   9.749   0.782   9.348  0.1007 -0.6150 -0.7634
  810MOL0     H 9338   9.997   0.928   8.971 -0.0416 -0.2383 -0.8389
  810MOL0     H 9339  10.099   0.914   8.761 -1.0153 -0.3331 -0.5295
  810MOL0     H 9340  10.269   0.803   8.569 -1.8394  3.3883  1.5939
  810MOL0     H 9341  10.197   0.718   8.419 -3.9919  0.3475 -0.9233
  810MOL0     H 9342  10.144   0.947   8.400 -0.6377  0.0329 -0.9103
  810MOL0     H 9343  10.059   0.940   8.549  0.8880  3.7095 -2.4079
  810MOL0     H 9344   9.901   0.910   8.383 -0.3674  0.1224 -1.6406
  810MOL0     H 9345   9.937   0.739   8.417  1.1668 -1.0338  0.7105
  810MOL0     H 9346   9.924   0.751   8.182  0.8338 -1.8714  1.2263
  810MOL0     H 9347  10.101   0.754   8.210  0.9520  0.5598  0.8873
  810MOL0     H 9348  10.066   1.086   7.971  1.3356  1.3636  1.0834
  810MOL0     H 9349  10.032   0.481   8.749  0.9118 -1.7798  2.3066
  810MOL0     H 9350   9.947   0.520   8.998 -1.4246  2.2572  2.1556
  811MOL0     O 9351   5.345   3.600   1.730 -0.5015 -0.2480 -0.1334
  811MOL0     C 9352   5.387   3.707   1.760 -0.4980 -0.3611 -0.2134
  811MOL0     O 9353   5.503   3.717   1.839  0.7513  0.4828  0.0060
  811MOL0     C 9354   5.588   3.605   1.868 -0.9350  0.4073 -0.7597
  811MOL0     C 9355   5.732   3.614   1.877  1.3909  0.0872  0.0835
  811MOL0     C 9356   5.820   3.508   1.904  0.3552 -0.0869  0.6455
  811MOL0     C 9357   5.769   3.383   1.929 -0.2433  0.3024 -0.4130
  811MOL0     O 9358   5.861   3.288   1.971  0.6471  0.1134  0.4505
  811MOL0     C 9359   5.826   3.199   2.077 -0.3532 -1.4203  0.1142
  811MOL0     C 9360   5.882   3.058   2.058  0.0528 -0.4675 -0.9098
  811MOL0     C 9361   6.028   3.066   2.065 -0.3483  0.2432 -0.2630
  811MOL0     C 9362   6.098   2.938   2.092  0.1200 -1.0227  0.1561
  811MOL0     C 9363   6.252   2.942   2.071  0.0273  0.3074  0.1348
  811MOL0     C 9364   6.353   3.015   2.159  0.0496 -0.1039 -0.4908
  811MOL0     C 9365   6.297   3.036   2.305  0.3497 -0.6174  0.7974
  811MOL0     C 9366   6.418   3.060   2.389  0.0362 -0.4673 -1.3628
  811MOL0     N 9367   6.367   3.121   2.522  0.5441 -0.0222  1.0483
  811MOL0     C 9368   6.301   3.238   2.523 -0.4695 -0.3069 -0.9346
  811MOL0     C 9369   6.261   3.259   2.647  0.1911  0.5285  0.0025
  811MOL0     C 9370   6.213   3.395   2.698  0.4314 -0.2280 -0.5634
  811MOL0     C 9371   6.098   3.404   2.797  0.4160 -0.3166 -0.1821
  811MOL0     C 9372   5.974   3.350   2.734  0.1803  0.2688 -0.3190
  811MOL0     C 9373   5.846   3.334   2.828 -0.1285  0.2593 -0.9499
  811MOL0     O 9374   5.816   3.449   2.912  0.1839  0.9080  0.0443
  811MOL0     C 9375   5.884   3.477   3.032  0.8814 -0.1392  0.6454
  811MOL0     C 9376   5.868   3.594   3.096  0.4988 -0.4558  0.2439
  811MOL0     C 9377   5.942   3.641   3.207 -0.9157  0.0033  1.0875
  811MOL0     C 9378   5.915   3.781   3.254 -0.2693 -0.8447  0.1738
  811MOL0     C 9379   6.039   3.551   3.260 -0.6235  0.1798  0.8041
  811MOL0     C 9380   6.128   3.572   3.380  0.1862  1.0119  0.2252
  811MOL0     O 9381   6.172   3.453   3.437 -0.1960 -0.0395  0.1962
  811MOL0     C 9382   6.272   3.451   3.527 -0.4845 -0.4325  0.0443
  811MOL0     C 9383   6.325   3.326   3.553  0.6999 -0.0219 -0.4879
  811MOL0     C 9384   6.433   3.305   3.645 -0.3024  0.1672 -0.1879
  811MOL0     C 9385   6.501   3.417   3.700 -0.1737  0.5559  0.0728
  811MOL0     O 9386   6.619   3.419   3.764  0.4926  0.9563 -0.8704
  811MOL0     C 9387   6.615   3.358   3.893 -2.0256 -0.6004 -1.2847
  811MOL0     C 9388   6.753   3.378   3.959 -1.1091  0.2265  0.3068
  811MOL0     C 9389   6.845   3.261   3.974  0.6384 -0.2380  0.2717
  811MOL0     C 9390   6.797   3.180   4.102 -0.3227 -0.1974  0.6151
  811MOL0     C 9391   6.874   3.058   4.122  0.2849 -0.0047 -0.6035
  811MOL0     C 9392   6.991   3.090   4.220  0.1411 -0.2311  0.8020
  811MOL0     C 9393   7.081   2.981   4.252  0.7486  0.2834 -0.3453
  811MOL0     C 9394   7.025   2.877   4.331 -0.2355  0.2989  0.2553
  811MOL0    Cl 9395   7.127   2.728   4.331 -0.1543 -0.2442 -0.1313
  811MOL0     C 9396   6.425   3.529   3.703  0.4198  0.3093  0.9615
  811MOL0     C 9397   6.321   3.550   3.609  0.1990  0.3544  0.0939
  811MOL0     O 9398   6.158   3.683   3.414 -0.8072 -0.1669 -0.9926
  811MOL0     C 9399   6.051   3.432   3.191  0.0055  0.0496 -0.3902
  811MOL0     C 9400   5.972   3.388   3.085  0.0420 -0.3891  1.6428
  811MOL0     N 9401   6.295   3.141   2.713  0.2207  1.5539  0.0798
  811MOL0     N 9402   6.364   3.065   2.642  0.0920 -0.8893 -0.2863
  811MOL0     C 9403   5.632   3.362   1.919  0.8865 -0.5157 -0.0677
  811MOL0     C 9404   5.543   3.466   1.877 -0.5607  0.0575 -0.2143
  811MOL0     C 9405   5.340   3.831   1.694  0.4911  0.1447  0.7962
  811MOL0     C 9406   5.379   3.961   1.739 -0.1153 -0.0797 -0.0277
  811MOL0     C 9407   5.323   4.074   1.681  0.7736 -0.4611 -0.3609
  811MOL0     C 9408   5.244   4.068   1.564  0.2326  0.1746  0.9127
  811MOL0     O 9409   5.190   4.183   1.511 -0.1777  0.1602 -0.2072
  811MOL0     C 9410   5.094   4.177   1.409  0.3892  0.1198 -0.1242
  811MOL0     C 9411   5.068   4.325   1.374 -0.9414 -0.3850  0.2114
  811MOL0     C 9412   4.961   4.361   1.272  1.1314 -0.2094  0.5480
  811MOL0     C 9413   4.823   4.325   1.322  0.3433  0.3595  0.5349
  811MOL0     C 9414   4.744   4.299   1.194  0.2231 -0.3959 -0.5243
  811MOL0     C 9415   4.669   4.265   1.107  0.1417  0.6994 -0.7110
  811MOL0     C 9416   5.205   3.939   1.516 -0.6860 -1.0976  0.1685
  811MOL0     C 9417   5.264   3.827   1.581  0.3475 -0.6070  0.3386
  811MOL0     H 9418   5.765   3.716   1.855  2.3681 -0.9252 -4.0360
  811MOL0     H 9419   5.927   3.526   1.909  0.1945  0.5344  2.6257
  811MOL0     H 9420   5.862   3.247   2.168  0.0763 -1.5535  0.0172
  811MOL0     H 9421   5.716   3.200   2.080 -0.4004 -2.1692 -0.8727
  811MOL0     H 9422   5.854   3.002   2.148 -2.3674  0.9221 -0.7197
  811MOL0     H 9423   5.852   3.018   1.961  0.1628 -1.3278 -0.6003
  811MOL0     H 9424   6.054   3.110   1.968 -4.2067  3.2420 -0.1748
  811MOL0     H 9425   6.063   3.134   2.142  1.6591  0.6388 -1.4358
  811MOL0     H 9426   6.054   2.909   2.188  0.1960 -1.0698  0.1768
  811MOL0     H 9427   6.060   2.868   2.017  0.8802 -0.0560 -1.1713
  811MOL0     H 9428   6.282   2.837   2.079 -2.5033 -0.7973 -3.0306
  811MOL0     H 9429   6.270   2.960   1.965  0.3281 -0.1555  0.1065
  811MOL0     H 9430   6.434   2.944   2.174 -0.7905 -1.1462 -0.7800
  811MOL0     H 9431   6.380   3.109   2.110 -3.9407 -0.6586 -4.4606
  811MOL0     H 9432   6.227   3.120   2.306  2.6053  1.3738  0.8546
  811MOL0     H 9433   6.258   2.940   2.341  1.8900 -1.0360  1.4638
  811MOL0     H 9434   6.489   3.131   2.346  0.1857  1.0527  1.1705
  811MOL0     H 9435   6.452   2.962   2.423  1.1316  0.9602  2.1892
  811MOL0     H 9436   6.293   3.320   2.453 -0.2708 -0.5124 -1.1956
  811MOL0     H 9437   6.299   3.445   2.745 -2.6040  1.8972  3.3688
  811MOL0     H 9438   6.190   3.441   2.601  1.9125 -0.2475 -0.9506
  811MOL0     H 9439   6.078   3.502   2.842  3.8843 -0.3091  1.7514
  811MOL0     H 9440   6.106   3.334   2.880  0.5291  0.4476  0.4678
  811MOL0     H 9441   5.997   3.254   2.687 -0.1680 -0.4146  0.8889
  811MOL0     H 9442   5.944   3.426   2.661 -0.0929 -0.0420 -0.5358
  811MOL0     H 9443   5.834   3.249   2.896  0.3635  2.2724  1.8443
  811MOL0     H 9444   5.764   3.307   2.761  2.1059 -1.5587 -3.1156
  811MOL0     H 9445   5.801   3.664   3.048 -1.1502 -2.5658 -0.6954
  811MOL0     H 9446   5.852   3.777   3.342  0.5893 -1.2420  0.7858
  811MOL0     H 9447   6.009   3.833   3.277 -0.0212 -1.2751  0.1448
  811MOL0     H 9448   5.850   3.843   3.191  1.4146  0.8344 -0.0008
  811MOL0     H 9449   6.309   3.234   3.497  1.2611 -0.1487 -0.4504
  811MOL0     H 9450   6.474   3.206   3.662 -1.1780 -0.6399 -2.4077
  811MOL0     H 9451   6.535   3.405   3.951 -0.1258 -0.0084  1.0050
  811MOL0     H 9452   6.609   3.249   3.884 -0.7769 -0.6982 -1.1204
  811MOL0     H 9453   6.804   3.453   3.898 -1.9163  1.5652  1.1998
  811MOL0     H 9454   6.753   3.427   4.057 -0.9166 -0.1709  0.5079
  811MOL0     H 9455   6.950   3.284   3.997  0.5291 -0.5213  1.0626
  811MOL0     H 9456   6.833   3.195   3.887 -0.6703  1.0077 -0.5386
  811MOL0     H 9457   6.806   3.252   4.184 -0.7394  2.4380 -1.5016
  811MOL0     H 9458   6.691   3.158   4.089 -0.2005 -0.7352  0.5090
  811MOL0     H 9459   6.912   3.022   4.026  2.5618  4.1304 -1.4684
  811MOL0     H 9460   6.818   2.981   4.176 -0.3254 -0.2900 -1.6078
  811MOL0     H 9461   7.054   3.169   4.179  1.0454 -2.6136 -2.8430
  811MOL0     H 9462   6.942   3.125   4.312  1.0481 -1.7366  1.8987
  811MOL0     H 9463   7.163   3.029   4.307 -0.2399  0.7109  0.8075
  811MOL0     H 9464   7.114   2.954   4.151  0.2191 -0.7880 -0.2497
  811MOL0     H 9465   6.920   2.860   4.305  0.2557  0.1618 -1.7631
  811MOL0     H 9466   7.027   2.905   4.437  4.6096 -0.9656  0.7618
  811MOL0     H 9467   6.443   3.602   3.781 -0.1887 -0.0263  1.4275
  811MOL0     H 9468   6.297   3.655   3.600  1.9034  0.6661 -1.6136
  811MOL0     H 9469   6.118   3.358   3.234 -2.4151 -1.8507  0.3258
  811MOL0     H 9470   5.985   3.285   3.055  0.7340  0.5018 -1.3815
  811MOL0     H 9471   5.598   3.259   1.921 -0.3086 -0.1570 -0.4207
  811MOL0     H 9472   5.441   3.430   1.863  0.6294 -3.2662 -1.1742
  811MOL0     H 9473   5.436   3.977   1.830 -0.3780  2.9750 -0.3071
  811MOL0     H 9474   5.345   4.174   1.717  0.8745 -1.1416  1.5536
  811MOL0     H 9475   5.144   4.134   1.321  1.3564 -0.2674  0.5940
  811MOL0     H 9476   4.998   4.140   1.446 -1.2735  4.2274  0.1778
  811MOL0     H 9477   5.157   4.362   1.322 -1.3023  4.2832  2.3515
  811MOL0     H 9478   5.058   4.383   1.466  0.6076 -1.6901  1.2499
  811MOL0     H 9479   4.987   4.298   1.187 -0.5268  0.4716 -0.5010
  811MOL0     H 9480   4.965   4.464   1.237  2.3598 -1.4447 -3.4647
  811MOL0     H 9481   4.784   4.412   1.374 -1.0673 -1.0009  1.8678
  811MOL0     H 9482   4.824   4.234   1.384  1.6265 -0.5261 -0.7177
  811MOL0     H 9483   4.616   4.240   1.017 -0.6319  1.8402 -0.5883
  811MOL0     H 9484   5.137   3.922   1.434 -2.1475 -0.3639  1.1802
  811MOL0     H 9485   5.240   3.731   1.536 -2.1682 -2.0743  4.3676
  812MOL0     O 9486   9.566   9.214   6.393 -0.7335 -0.5221 -0.5782
  812MOL0     C 9487   9.539   9.230   6.277  0.2596 -1.4119  0.1335
  812MOL0     O 9488   9.501   9.343   6.221 -0.4357  0.2110 -0.5090
  812MOL0     C 9489   9.492   9.462   6.294 -1.3137  0.3648 -0.1269
  812MOL0     C 9490   9.415   9.469   6.403  0.5628 -0.4045 -0.2766
  812MOL0     C 9491   9.395   9.592   6.471 -0.2754  0.4350 -0.7146
  812MOL0     C 9492   9.463   9.704   6.423  0.0692 -1.4708  0.2022
  812MOL0     O 9493   9.421   9.830   6.473 -0.6623  0.4461  0.7765
  812MOL0     C 9494   9.529   9.934   6.484  0.0337  0.2951  0.3013
  812MOL0     C 9495   9.483  10.021   6.598 -0.2746  0.8497 -0.0522
  812MOL0     C 9496   9.379  10.129   6.568 -1.1497  0.2254  0.2082
  812MOL0     C 9497   9.240  10.067   6.562  0.1202  0.0371  0.1243
  812MOL0     C 9498   9.142  10.155   6.496 -0.0263 -0.0693  0.1228
  812MOL0     C 9499   9.128  10.298   6.567  0.7479  0.0450  0.0327
  812MOL0     C 9500   9.151  10.424   6.475 -0.4559  0.3162  0.0184
  812MOL0     C 9501   9.086  10.557   6.531 -0.5242  0.5675  0.5160
  812MOL0     N 9502   9.199  10.613   6.610 -0.4286  0.0672  0.0729
  812MOL0     C 9503   9.221  10.591   6.737  0.2333  0.3429  0.2060
  812MOL0     C 9504   9.335  10.662   6.769 -0.5008 -0.3525  1.1218
  812MOL0     C 9505   9.412  10.644   6.897  0.2035 -0.0040 -0.7521
  812MOL0     C 9506   9.452  10.494   6.926 -0.5208  0.0919  0.2726
  812MOL0     C 9507   9.496  10.416   6.807  0.6249 -0.3897  1.0475
  812MOL0     C 9508   9.650  10.437   6.775 -0.0139 -0.5280  0.3516
  812MOL0     O 9509   9.715  10.367   6.892  0.5278 -0.9030 -0.0136
  812MOL0     C 9510   9.850  10.369   6.906 -0.0746 -0.2980  0.6263
  812MOL0     C 9511   9.908  10.496   6.926  0.3734  0.1415 -0.1733
  812MOL0     C 9512  10.049  10.523   6.932 -0.1763  0.4358 -0.1741
  812MOL0     C 9513  10.086  10.665   6.964 -0.7140  0.1450 -0.5042
  812MOL0     C 9514  10.135  10.418   6.925 -0.0479 -0.2461 -0.3916
  812MOL0     C 9515  10.277  10.442   6.947 -0.2590  1.0794 -0.8994
  812MOL0     O 9516  10.320  10.500   7.059  0.8521  0.1345  0.8279
  812MOL0     C 9517  10.455  10.505   7.071  0.3545  0.0472  0.0045
  812MOL0     C 9518  10.515  10.631   7.080  0.3620  0.7634  0.1757
  812MOL0     C 9519  10.656  10.649   7.114  0.6793 -0.2262  0.6912
  812MOL0     C 9520  10.730  10.534   7.147  0.0065 -0.2187  0.1345
  812MOL0     O 9521  10.856  10.548   7.197  0.4038 -0.6192  0.4406
  812MOL0     C 9522  10.961  10.565   7.099 -0.3503  0.3998 -0.4629
  812MOL0     C 9523  11.104  10.537   7.152  0.1980  0.0064 -1.3264
  812MOL0     C 9524  11.214  10.643   7.124 -0.9139 -0.3168  0.0519
  812MOL0     C 9525  11.244  10.683   6.974  0.2287  0.3159 -1.4798
  812MOL0     C 9526  11.390  10.692   6.947 -0.0525  0.0142 -0.1587
  812MOL0     C 9527  11.466  10.783   7.038 -0.2355 -0.2350  0.1229
  812MOL0     C 9528  11.604  10.813   6.986  0.2202 -1.1980 -0.0620
  812MOL0     C 9529  11.681  10.913   7.076  0.3390  0.2421 -0.4250
  812MOL0    Cl 9530  11.573  10.998   7.195 -0.1871 -0.0147 -0.0249
  812MOL0     C 9531  10.664  10.411   7.158  0.0077  0.5699 -0.3266
  812MOL0     C 9532  10.523  10.396   7.125  0.1520 -0.1639 -0.6694
  812MOL0     O 9533  10.344  10.390   6.860 -0.4388  0.2340 -0.3143
  812MOL0     C 9534  10.078  10.290   6.905 -0.4808  0.1784 -0.3569
  812MOL0     C 9535   9.944  10.265   6.896  0.6583 -0.4183  0.3253
  812MOL0     N 9536   9.382  10.718   6.648  0.3761 -0.1437 -0.2731
  812MOL0     N 9537   9.293  10.692   6.563 -0.8176  0.0159  0.4543
  812MOL0     C 9538   9.539   9.698   6.310  0.1952  0.3488 -0.1227
  812MOL0     C 9539   9.563   9.575   6.254 -0.1421 -0.6990 -0.0538
  812MOL0     C 9540   9.545   9.104   6.202  0.6046 -0.3930  0.4995
  812MOL0     C 9541   9.575   8.983   6.266  0.0547  0.4369  0.6691
  812MOL0     C 9542   9.587   8.878   6.177 -0.1230  0.1668 -0.2733
  812MOL0     C 9543   9.570   8.876   6.036 -0.6500 -1.0030  0.2452
  812MOL0     O 9544   9.580   8.757   5.959 -0.2064 -0.4520 -0.4149
  812MOL0     C 9545   9.456   8.677   5.963 -0.8239  0.1200 -0.7361
  812MOL0     C 9546   9.436   8.592   6.088  0.3210 -0.9174 -0.1561
  812MOL0     C 9547   9.523   8.464   6.102 -1.5355  0.1242 -0.1655
  812MOL0     C 9548   9.658   8.483   6.169 -0.3186  0.0629 -0.8662
  812MOL0     C 9549   9.652   8.517   6.316 -0.1434 -0.5699 -0.0795
  812MOL0     C 9550   9.654   8.580   6.418 -0.9665 -1.4654 -0.1578
  812MOL0     C 9551   9.521   8.996   5.981 -1.1510  0.4163  0.4878
  812MOL0     C 9552   9.520   9.110   6.062 -0.6272 -0.5809  0.4061
  812MOL0     H 9553   9.346   9.390   6.428  2.0715 -1.7689 -0.2799
  812MOL0     H 9554   9.327   9.595   6.555 -0.5296  3.2267 -0.9280
  812MOL0     H 9555   9.624   9.888   6.515 -0.8626 -0.8649  1.4299
  812MOL0     H 9556   9.544   9.987   6.390 -2.4892 -1.4486 -1.1921
  812MOL0     H 9557   9.460   9.961   6.686 -2.7344  0.4726 -0.8746
  812MOL0     H 9558   9.573  10.081   6.615  0.7561 -0.5717 -0.3332
  812MOL0     H 9559   9.392  10.211   6.640  1.2376 -0.6202  0.8027
  812MOL0     H 9560   9.400  10.158   6.464 -2.2049 -2.1910 -0.7555
  812MOL0     H 9561   9.241   9.975   6.503  1.9373  0.9306 -1.3633
  812MOL0     H 9562   9.206  10.045   6.664  0.0699 -0.5390 -0.0130
  812MOL0     H 9563   9.167  10.165   6.390 -0.1768  0.2364  0.1141
  812MOL0     H 9564   9.052  10.094   6.495 -0.0559 -0.1019  1.8123
  812MOL0     H 9565   9.020  10.303   6.580  0.3359 -2.9312 -1.4132
  812MOL0     H 9566   9.175  10.293   6.666 -1.8016 -1.7544  1.2528
  812MOL0     H 9567   9.259  10.433   6.460 -0.3453  0.3657  0.8361
  812MOL0     H 9568   9.107  10.400   6.378 -2.6875  0.6129  0.8993
  812MOL0     H 9569   9.010  10.539   6.607  1.3256 -1.3063  2.0621
  812MOL0     H 9570   9.073  10.633   6.454  3.7235  0.5167 -0.5066
  812MOL0     H 9571   9.146  10.546   6.801 -3.2686  3.2749 -1.4839
  812MOL0     H 9572   9.499  10.711   6.895  1.1655 -1.2111 -0.6498
  812MOL0     H 9573   9.353  10.678   6.982  1.9092 -1.0160  0.9121
  812MOL0     H 9574   9.361  10.444   6.962 -0.7767 -0.3755 -0.9900
  812MOL0     H 9575   9.532  10.490   7.001 -0.7014 -0.7748  0.4316
  812MOL0     H 9576   9.438  10.428   6.716  1.4537 -3.5010  0.0021
  812MOL0     H 9577   9.476  10.312   6.832 -2.6369  0.1595  1.0961
  812MOL0     H 9578   9.673  10.544   6.777 -2.0373 -0.0386  0.2967
  812MOL0     H 9579   9.677  10.396   6.677  0.2758 -0.6379  0.4784
  812MOL0     H 9580   9.836  10.578   6.931  0.5908  0.3633 -0.5536
  812MOL0     H 9581  10.003  10.736   6.967  0.4650  1.5208  0.7676
  812MOL0     H 9582  10.121  10.661   7.068 -1.8770  0.4632 -0.0868
  812MOL0     H 9583  10.171  10.707   6.909  2.7481  0.7584  4.6078
  812MOL0     H 9584  10.445  10.712   7.065 -2.6040 -1.6825 -0.1615
  812MOL0     H 9585  10.697  10.749   7.119 -0.2862  0.1115  4.0546
  812MOL0     H 9586  10.954  10.517   7.001  2.6123  3.0934 -2.1921
  812MOL0     H 9587  10.970  10.672   7.078  2.9495 -0.1024 -2.3435
  812MOL0     H 9588  11.099  10.520   7.260  0.8368 -1.8320 -1.5560
  812MOL0     H 9589  11.130  10.442   7.105  3.7552  0.5055 -0.6520
  812MOL0     H 9590  11.302  10.594   7.165  0.8678  1.2334 -1.7281
  812MOL0     H 9591  11.182  10.735   7.175  0.3323  0.9983 -1.4416
  812MOL0     H 9592  11.202  10.608   6.907  1.8979 -0.6042 -1.5474
  812MOL0     H 9593  11.202  10.784   6.965  2.2361  1.9150  3.4207
  812MOL0     H 9594  11.418  10.715   6.844 -0.5854 -2.9721 -1.0878
  812MOL0     H 9595  11.437  10.598   6.978 -3.7947 -1.7689  0.6641
  812MOL0     H 9596  11.423  10.884   7.037 -0.6413 -0.3834  1.1008
  812MOL0     H 9597  11.448  10.754   7.142 -2.2161 -3.9244 -1.0550
  812MOL0     H 9598  11.600  10.855   6.885  1.1511  1.1150  0.7738
  812MOL0     H 9599  11.667  10.724   6.984 -0.1605 -1.4976 -2.8187
  812MOL0     H 9600  11.737  10.975   7.006 -1.4266  1.0212 -1.2156
  812MOL0     H 9601  11.751  10.851   7.134 -1.3183  1.3689  3.0528
  812MOL0     H 9602  10.717  10.317   7.171 -3.9835 -2.0069 -0.7868
  812MOL0     H 9603  10.483  10.296   7.133  1.6515 -0.9041 -1.9173
  812MOL0     H 9604  10.146  10.207   6.888 -2.4556 -0.9442 -3.6493
  812MOL0     H 9605   9.908  10.162   6.892  0.5154 -0.4147  1.2369
  812MOL0     H 9606   9.572   9.785   6.255  0.2736 -2.0226 -4.1842
  812MOL0     H 9607   9.609   9.573   6.156 -1.4452 -1.7948 -0.6666
  812MOL0     H 9608   9.577   8.984   6.375 -0.7957  1.9800  0.7077
  812MOL0     H 9609   9.614   8.786   6.229 -0.5623  0.4103  0.3985
  812MOL0     H 9610   9.369   8.743   5.962  0.0798  1.4753  1.5272
  812MOL0     H 9611   9.461   8.613   5.875  1.3004 -2.0279  0.8279
  812MOL0     H 9612   9.332   8.558   6.083 -0.1611  0.6122 -4.2236
  812MOL0     H 9613   9.424   8.664   6.169 -1.9361  2.4771 -3.1924
  812MOL0     H 9614   9.554   8.421   6.006 -0.2332  1.9834 -0.6454
  812MOL0     H 9615   9.462   8.385   6.145  2.9352 -1.9929  3.1161
  812MOL0     H 9616   9.727   8.550   6.117  1.1094 -0.7628 -0.0788
  812MOL0     H 9617   9.710   8.387   6.163 -1.9607 -1.3826  3.9023
  812MOL0     H 9618   9.653   8.628   6.514 -0.7935 -2.5769  0.4108
  812MOL0     H 9619   9.482   9.000   5.880 -2.8370 -1.4629  0.9949
  812MOL0     H 9620   9.507   9.207   6.015  0.1703 -1.5037 -1.8473
  813MOL0     O 9621   9.138   5.343   6.408 -0.3978 -0.1900 -0.4136
  813MOL0     C 9622   9.133   5.400   6.521 -0.5697  0.2757 -1.1090
  813MOL0     O 9623   9.033   5.396   6.614  0.7164  0.1151  0.0613
  813MOL0     C 9624   8.920   5.315   6.593  0.4754 -1.0647  0.6253
  813MOL0     C 9625   8.796   5.361   6.645 -0.2339 -0.4475  1.2450
  813MOL0     C 9626   8.680   5.290   6.621  0.6203  0.3067  0.2326
  813MOL0     C 9627   8.685   5.172   6.546 -0.2241 -0.5683  0.2277
  813MOL0     O 9628   8.574   5.113   6.517  0.2585 -0.3718 -0.4922
  813MOL0     C 9629   8.493   5.083   6.626  0.2280  1.2904  0.1865
  813MOL0     C 9630   8.353   5.053   6.579 -0.4266  0.9082  1.0958
  813MOL0     C 9631   8.326   4.926   6.496  1.2019  0.3015  0.3079
  813MOL0     C 9632   8.310   4.806   6.588  0.5985 -0.3751 -0.3659
  813MOL0     C 9633   8.311   4.671   6.519  0.1331 -0.6601  0.5341
  813MOL0     C 9634   8.438   4.634   6.456 -1.1979 -0.3740  0.2015
  813MOL0     C 9635   8.463   4.484   6.407  0.6785 -0.4182 -0.3176
  813MOL0     C 9636   8.344   4.419   6.335  0.3466 -0.5363 -1.2116
  813MOL0     N 9637   8.240   4.381   6.443 -0.0848 -0.3070  1.0853
  813MOL0     C 9638   8.105   4.418   6.424  0.3882 -0.0758 -0.6156
  813MOL0     C 9639   8.036   4.353   6.521 -0.0029  0.3330  0.2651
  813MOL0     C 9640   7.889   4.358   6.555 -0.1470  0.1279  0.2602
  813MOL0     C 9641   7.853   4.473   6.639  0.3999 -0.0430 -0.8841
  813MOL0     C 9642   7.772   4.428   6.769  0.0211  0.1548 -0.0622
  813MOL0     C 9643   7.748   4.541   6.865 -0.3861 -0.6562  0.0366
  813MOL0     O 9644   7.705   4.656   6.793 -0.2783  0.0767  0.2009
  813MOL0     C 9645   7.663   4.762   6.878 -0.7889  0.9833 -0.0113
  813MOL0     C 9646   7.568   4.839   6.816 -0.1362  0.3908  0.7004
  813MOL0     C 9647   7.531   4.959   6.878  0.4505  0.5590  0.5128
  813MOL0     C 9648   7.467   5.049   6.775  0.9354  0.3837 -0.4786
  813MOL0     C 9649   7.569   4.993   7.008  0.9965 -0.1285  0.8054
  813MOL0     C 9650   7.515   5.114   7.078 -0.5110 -0.0397 -0.6851
  813MOL0     O 9651   7.548   5.132   7.211  0.4304  0.5202  0.1292
  813MOL0     C 9652   7.516   5.248   7.284  0.0933 -0.4359  0.4435
  813MOL0     C 9653   7.380   5.270   7.304 -0.1267  0.5102 -0.2603
  813MOL0     C 9654   7.338   5.386   7.358 -0.6235  1.1324  0.9339
  813MOL0     C 9655   7.429   5.491   7.383  0.7339 -0.3260 -0.4503
  813MOL0     O 9656   7.379   5.608   7.446 -1.1686 -0.1935 -0.2474
  813MOL0     C 9657   7.462   5.680   7.540 -0.1368  0.2538  0.4589
  813MOL0     C 9658   7.524   5.599   7.656 -1.5970  1.1446 -0.4167
  813MOL0     C 9659   7.422   5.536   7.757  0.1936 -1.3564  0.9735
  813MOL0     C 9660   7.511   5.445   7.857 -0.1409 -0.2711 -0.5974
  813MOL0     C 9661   7.406   5.366   7.952 -0.7407 -0.0655  0.3699
  813MOL0     C 9662   7.475   5.261   8.044 -0.8273 -0.7137 -1.0196
  813MOL0     C 9663   7.376   5.189   8.140 -0.2420 -0.4847  0.2201
  813MOL0     C 9664   7.431   5.167   8.281 -0.4074  0.3080  0.3572
  813MOL0    Cl 9665   7.283   5.097   8.367 -0.3424 -0.9413 -0.2086
  813MOL0     C 9666   7.562   5.476   7.357 -1.1442 -0.1412  0.6101
  813MOL0     C 9667   7.612   5.353   7.301  0.3217 -1.1571 -0.3672
  813MOL0     O 9668   7.434   5.181   7.016  0.1576 -0.3878 -0.4364
  813MOL0     C 9669   7.653   4.906   7.077 -0.1927  0.0567 -0.0360
  813MOL0     C 9670   7.704   4.793   7.007  0.7876  1.1209  1.1257
  813MOL0     N 9671   8.127   4.267   6.587  0.6448 -0.0035 -0.4354
  813MOL0     N 9672   8.246   4.284   6.535 -0.6984 -0.0462 -0.4498
  813MOL0     C 9673   8.802   5.125   6.512 -0.1728  0.0314 -0.0751
  813MOL0     C 9674   8.924   5.193   6.532 -0.4275  0.4951  0.0716
  813MOL0     C 9675   9.251   5.473   6.569 -0.3454 -0.0651  0.3681
  813MOL0     C 9676   9.343   5.527   6.473 -0.1505  0.5501 -0.7895
  813MOL0     C 9677   9.464   5.575   6.514 -0.0068  0.0181  0.9793
  813MOL0     C 9678   9.499   5.600   6.645 -0.5327 -0.4324 -0.9341
  813MOL0     O 9679   9.614   5.672   6.672  0.0545  0.1774  0.2108
  813MOL0     C 9680   9.660   5.687   6.802  1.2765 -0.1620 -0.3841
  813MOL0     C 9681   9.807   5.710   6.799  0.4035  0.1185 -0.5180
  813MOL0     C 9682   9.878   5.594   6.738 -0.0309  0.5719  0.2106
  813MOL0     C 9683  10.006   5.552   6.823 -0.6737 -0.7263  0.0221
  813MOL0     C 9684  10.101   5.664   6.809 -0.4942 -0.4423  0.3181
  813MOL0     C 9685  10.171   5.764   6.804 -0.0367  0.7152  0.5646
  813MOL0     C 9686   9.413   5.559   6.738  1.0022  0.3266  0.5653
  813MOL0     C 9687   9.292   5.485   6.705  0.5112 -0.4660 -0.0299
  813MOL0     H 9688   8.778   5.454   6.699 -2.3690 -1.2192  1.9704
  813MOL0     H 9689   8.589   5.331   6.664 -1.8644 -3.8456 -0.4894
  813MOL0     H 9690   8.541   4.990   6.657 -0.4328  0.0689 -2.2267
  813MOL0     H 9691   8.492   5.151   6.712 -0.4727 -0.1461  1.3644
  813MOL0     H 9692   8.283   5.075   6.660 -3.7214  4.2070 -2.1871
  813MOL0     H 9693   8.334   5.135   6.509  1.5006  0.4726 -0.0072
  813MOL0     H 9694   8.246   4.941   6.422  0.8564  2.7923  1.0886
  813MOL0     H 9695   8.415   4.911   6.434  1.2808 -1.0917  0.7310
  813MOL0     H 9696   8.376   4.808   6.675  0.0966 -0.6273  0.0244
  813MOL0     H 9697   8.212   4.819   6.634  0.1537  2.3441 -1.8471
  813MOL0     H 9698   8.298   4.596   6.597  1.8160 -0.3160  1.1888
  813MOL0     H 9699   8.231   4.669   6.445  0.5067  1.9139 -0.0194
  813MOL0     H 9700   8.462   4.696   6.369  4.5582 -1.4268  0.6207
  813MOL0     H 9701   8.525   4.662   6.516 -2.2303 -1.6166  2.4055
  813MOL0     H 9702   8.554   4.467   6.348  2.7436 -3.0002  3.2258
  813MOL0     H 9703   8.485   4.432   6.500  2.1847  0.7502  0.0124
  813MOL0     H 9704   8.365   4.325   6.282  0.2492 -0.1147 -2.0045
  813MOL0     H 9705   8.301   4.486   6.261  0.2263  0.1192 -0.5622
  813MOL0     H 9706   8.070   4.496   6.356 -2.2014 -0.8715 -0.3344
  813MOL0     H 9707   7.835   4.345   6.461 -0.0419 -0.6462  0.3036
  813MOL0     H 9708   7.871   4.266   6.610  1.7686 -2.6511 -3.3520
  813MOL0     H 9709   7.803   4.548   6.578 -2.2607 -0.9184  0.0811
  813MOL0     H 9710   7.946   4.521   6.673  0.5927 -0.9306 -0.1073
  813MOL0     H 9711   7.824   4.347   6.821  2.7741  2.0838  0.4427
  813MOL0     H 9712   7.670   4.399   6.743 -0.3433  1.6587 -0.4017
  813MOL0     H 9713   7.839   4.565   6.922 -0.8485 -2.5017  1.6683
  813MOL0     H 9714   7.670   4.504   6.931 -0.2168  1.1349  1.3049
  813MOL0     H 9715   7.515   4.811   6.726 -1.5862 -0.4989  1.7728
  813MOL0     H 9716   7.491   5.154   6.791  0.7398  0.3719 -0.0900
  813MOL0     H 9717   7.506   5.027   6.676  2.8777 -0.7849  0.4813
  813MOL0     H 9718   7.364   5.013   6.769  1.1197  0.1222 -2.6200
  813MOL0     H 9719   7.310   5.191   7.279  1.9353 -1.0483 -1.3846
  813MOL0     H 9720   7.235   5.406   7.388 -1.1387 -2.0584  1.6828
  813MOL0     H 9721   7.536   5.729   7.475 -2.7312 -0.8486 -3.6974
  813MOL0     H 9722   7.397   5.762   7.571 -2.6777 -0.9934 -1.2351
  813MOL0     H 9723   7.595   5.525   7.618  1.2291  2.3832  2.0739
  813MOL0     H 9724   7.592   5.662   7.713 -2.2672  2.9992 -1.5917
  813MOL0     H 9725   7.348   5.483   7.697  1.4422 -1.4113 -0.6072
  813MOL0     H 9726   7.383   5.623   7.811  0.9279  0.6843 -1.5731
  813MOL0     H 9727   7.563   5.364   7.805  4.0388 -1.6809  4.8277
  813MOL0     H 9728   7.584   5.505   7.912  2.0445 -0.2384 -3.3414
  813MOL0     H 9729   7.345   5.308   7.882  1.7663  2.4501 -4.4074
  813MOL0     H 9730   7.360   5.435   8.023  0.1964  1.4315 -0.4109
  813MOL0     H 9731   7.532   5.189   7.985 -0.4105 -0.0762 -1.4159
  813MOL0     H 9732   7.555   5.298   8.109 -0.4928 -3.7685  0.4560
  813MOL0     H 9733   7.342   5.095   8.095 -2.3424  0.7497 -0.9651
  813MOL0     H 9734   7.281   5.238   8.165 -0.0550 -0.8658  1.8269
  813MOL0     H 9735   7.463   5.262   8.325  2.5112 -0.9426  1.1597
  813MOL0     H 9736   7.516   5.099   8.276 -0.9457 -0.5039  1.7380
  813MOL0     H 9737   7.633   5.556   7.376 -0.4331 -1.0907  2.2104
  813MOL0     H 9738   7.718   5.347   7.278  0.1825 -5.1591 -0.5714
  813MOL0     H 9739   7.686   4.913   7.180  0.8805 -0.8111 -0.3119
  813MOL0     H 9740   7.759   4.708   7.045 -4.2450 -2.2513  1.8544
  813MOL0     H 9741   8.802   5.028   6.463 -1.0588 -0.8356  1.5515
  813MOL0     H 9742   9.022   5.149   6.517 -0.4134  1.1611 -2.1709
  813MOL0     H 9743   9.322   5.515   6.367 -1.2851 -0.1438 -0.5019
  813MOL0     H 9744   9.528   5.609   6.434 -0.2183 -0.6990  0.4960
  813MOL0     H 9745   9.613   5.771   6.854  1.5469 -0.5305  0.4658
  813MOL0     H 9746   9.633   5.594   6.854 -0.6893  0.3230 -0.4538
  813MOL0     H 9747   9.846   5.723   6.900 -0.9028 -1.6550  0.2526
  813MOL0     H 9748   9.829   5.799   6.739 -0.3365  0.1593 -0.7398
  813MOL0     H 9749   9.910   5.617   6.636  1.8610  0.7561  0.7967
  813MOL0     H 9750   9.813   5.506   6.742 -0.5961  1.0216  1.4644
  813MOL0     H 9751  10.049   5.468   6.767 -0.9168 -1.1356  0.4467
  813MOL0     H 9752   9.984   5.523   6.926  0.5901  2.5615  1.3357
  813MOL0     H 9753  10.242   5.843   6.787 -0.4633  0.5047 -2.7754
  813MOL0     H 9754   9.435   5.582   6.842  2.3290 -0.5692  0.5200
  813MOL0     H 9755   9.241   5.444   6.792  2.3105  0.0247  1.3219
  814MOL0     O 9756   6.712   8.165   6.210 -0.0489 -0.5321 -0.3581
  814MOL0     C 9757   6.596   8.202   6.215 -0.1182  0.2868  0.2033
  814MOL0     O 9758   6.544   8.313   6.154  0.6378  0.3196 -0.3177
  814MOL0     C 9759   6.620   8.380   6.063  0.0756 -0.1000  0.2113
  814MOL0     C 9760   6.672   8.318   5.945 -0.2431  0.4043  0.7934
  814MOL0     C 9761   6.720   8.409   5.839  0.2823  0.0106 -0.0192
  814MOL0     C 9762   6.740   8.543   5.863 -0.2630 -0.4586 -0.4169
  814MOL0     O 9763   6.809   8.627   5.784  0.0614 -0.2521 -0.1291
  814MOL0     C 9764   6.759   8.764   5.756 -0.0585 -0.3415 -0.7454
  814MOL0     C 9765   6.789   8.806   5.618  0.1893  0.6210  0.5201
  814MOL0     C 9766   6.937   8.826   5.593  0.2904 -0.1614 -1.5377
  814MOL0     C 9767   6.996   8.955   5.654 -0.9646  0.2741 -0.2873
  814MOL0     C 9768   7.105   9.014   5.569 -0.1507  0.5634 -0.6472
  814MOL0     C 9769   7.201   9.110   5.639  1.0332  0.0276 -1.0335
  814MOL0     C 9770   7.307   9.175   5.554 -0.2656 -0.6039 -0.5132
  814MOL0     C 9771   7.258   9.256   5.438 -0.8761  0.0587  0.6297
  814MOL0     N 9772   7.376   9.320   5.369  0.1956  0.2280  0.0698
  814MOL0     C 9773   7.429   9.436   5.408 -0.2970  0.0787 -0.0253
  814MOL0     C 9774   7.540   9.447   5.332  0.6624 -0.7129 -1.1282
  814MOL0     C 9775   7.633   9.562   5.343 -0.4079 -0.7215  0.3499
  814MOL0     C 9776   7.776   9.520   5.392  1.2427 -0.5032 -0.1219
  814MOL0     C 9777   7.789   9.513   5.546  0.4046 -0.7900 -0.8078
  814MOL0     C 9778   7.756   9.370   5.596 -0.2969 -0.5275 -0.2793
  814MOL0     O 9779   7.709   9.371   5.730  0.2207 -0.4041 -0.2777
  814MOL0     C 9780   7.790   9.343   5.840  0.8082  1.5677  0.4514
  814MOL0     C 9781   7.720   9.326   5.957  0.4264  0.1519  0.1584
  814MOL0     C 9782   7.794   9.309   6.079  0.0412 -0.0949  0.9405
  814MOL0     C 9783   7.712   9.259   6.196  0.1886  0.3320  0.3016
  814MOL0     C 9784   7.940   9.306   6.085 -0.0609  0.0519  1.4511
  814MOL0     C 9785   8.024   9.290   6.200 -0.8178 -0.5926  0.8325
  814MOL0     O 9786   8.151   9.264   6.178 -0.3909  0.7960 -0.6852
  814MOL0     C 9787   8.238   9.230   6.276 -0.5512  0.0874 -0.4701
  814MOL0     C 9788   8.366   9.264   6.257 -0.5820 -0.1412 -0.7904
  814MOL0     C 9789   8.464   9.230   6.348  0.5844 -0.5498 -0.5249
  814MOL0     C 9790   8.448   9.145   6.461  0.4639  0.5528 -0.2526
  814MOL0     O 9791   8.547   9.094   6.539  0.0661 -0.6802  0.3029
  814MOL0     C 9792   8.630   9.192   6.607  0.3978 -0.6778 -0.5252
  814MOL0     C 9793   8.592   9.195   6.758 -0.6435 -1.0193 -0.0370
  814MOL0     C 9794   8.628   9.062   6.849 -0.4880 -0.6484  0.2985
  814MOL0     C 9795   8.536   8.941   6.832  0.1933  0.2978 -0.1357
  814MOL0     C 9796   8.575   8.820   6.921  0.5751  0.3071  1.4312
  814MOL0     C 9797   8.510   8.829   7.060 -0.3865  0.5154 -0.2473
  814MOL0     C 9798   8.524   8.697   7.141 -0.0269  0.4895  0.6088
  814MOL0     C 9799   8.660   8.635   7.154  0.5807 -0.4037  0.1674
  814MOL0    Cl 9800   8.762   8.709   7.281 -0.1385  0.3669 -0.5419
  814MOL0     C 9801   8.318   9.095   6.478 -0.1728 -0.4526  0.0187
  814MOL0     C 9802   8.214   9.143   6.383  0.1256  0.6551 -0.5664
  814MOL0     O 9803   7.979   9.323   6.311 -0.7643  0.0936  0.2433
  814MOL0     C 9804   8.002   9.323   5.953  0.7331  0.3957 -0.1131
  814MOL0     C 9805   7.926   9.332   5.834 -0.5841  0.8700  0.1851
  814MOL0     N 9806   7.549   9.340   5.251 -0.1699  0.6600 -0.7547
  814MOL0     N 9807   7.447   9.264   5.267 -0.2415 -0.6931 -0.5453
  814MOL0     C 9808   6.688   8.591   5.984  0.3449 -1.1429 -0.1648
  814MOL0     C 9809   6.632   8.515   6.077  0.3789  0.2657 -0.5120
  814MOL0     C 9810   6.491   8.117   6.281 -0.2253  0.0670  0.3297
  814MOL0     C 9811   6.527   7.995   6.332 -0.2935  0.1510  0.5190
  814MOL0     C 9812   6.437   7.917   6.393 -0.0121 -1.3405  1.1952
  814MOL0     C 9813   6.308   7.957   6.403  0.2883  0.3260  0.6360
  814MOL0     O 9814   6.240   7.888   6.496  0.6646  0.2054 -0.3177
  814MOL0     C 9815   6.117   7.943   6.537 -0.4645  0.5818  0.2430
  814MOL0     C 9816   6.132   8.064   6.635 -0.6235  0.5253 -0.3090
  814MOL0     C 9817   6.182   8.019   6.773  0.1559  0.1042 -1.1204
  814MOL0     C 9818   6.203   8.132   6.869  0.8639 -0.7594 -0.4171
  814MOL0     C 9819   6.225   8.087   7.004 -0.6271  1.4259 -0.1427
  814MOL0     C 9820   6.231   8.044   7.118  0.2387  0.2021 -0.0185
  814MOL0     C 9821   6.257   8.066   6.324 -0.3572 -0.1943  0.4351
  814MOL0     C 9822   6.358   8.151   6.275  0.3710  0.0988  0.4267
  814MOL0     H 9823   6.660   8.212   5.922  1.2162  0.7563 -1.9295
  814MOL0     H 9824   6.737   8.360   5.743 -1.2895 -3.6987  1.3979
  814MOL0     H 9825   6.650   8.769   5.758 -0.1061  1.4679 -3.4020
  814MOL0     H 9826   6.809   8.825   5.832 -1.7023 -1.1369  1.0535
  814MOL0     H 9827   6.759   8.722   5.555  1.2735  0.0596  0.7195
  814MOL0     H 9828   6.731   8.895   5.590  0.3728  1.9272  3.8052
  814MOL0     H 9829   6.988   8.734   5.625 -1.4644 -0.1427  1.9021
  814MOL0     H 9830   6.941   8.842   5.485 -1.4920 -0.3007 -1.6694
  814MOL0     H 9831   6.926   9.034   5.680 -0.3798  1.7900 -2.9203
  814MOL0     H 9832   7.048   8.922   5.744  4.1142  0.6654 -2.7250
  814MOL0     H 9833   7.167   8.928   5.542 -1.1223 -0.7212  1.0260
  814MOL0     H 9834   7.060   9.050   5.475  1.2593  2.8450 -0.5375
  814MOL0     H 9835   7.138   9.189   5.681  1.4762 -0.6375  1.0024
  814MOL0     H 9836   7.247   9.049   5.718  2.5402 -2.6814 -3.7974
  814MOL0     H 9837   7.366   9.236   5.623 -1.1653 -0.4022  0.1000
  814MOL0     H 9838   7.379   9.099   5.524  0.8638 -0.0379  0.6605
  814MOL0     H 9839   7.180   9.327   5.467 -3.6502 -2.5604  0.0285
  814MOL0     H 9840   7.212   9.182   5.372  2.2758 -0.9072 -0.6642
  814MOL0     H 9841   7.383   9.505   5.479  0.8399  0.8143  0.0098
  814MOL0     H 9842   7.648   9.601   5.242 -3.2606 -3.0716 -1.1015
  814MOL0     H 9843   7.596   9.649   5.398 -1.9149 -0.4356 -1.0427
  814MOL0     H 9844   7.831   9.606   5.351 -2.1168  2.2866  0.7285
  814MOL0     H 9845   7.824   9.436   5.342  1.4986 -0.9062  0.7728
  814MOL0     H 9846   7.721   9.585   5.593 -0.3201 -2.1864  0.3597
  814MOL0     H 9847   7.895   9.529   5.564  1.1492 -0.9965 -4.2608
  814MOL0     H 9848   7.847   9.312   5.578  1.0254  1.1341  0.7821
  814MOL0     H 9849   7.674   9.336   5.532 -1.8330  1.5155  0.4907
  814MOL0     H 9850   7.613   9.323   5.939  0.2617  2.0500  0.5966
  814MOL0     H 9851   7.721   9.335   6.274  3.2052 -1.0487  1.4748
  814MOL0     H 9852   7.605   9.260   6.171 -0.5809 -1.6495  3.0308
  814MOL0     H 9853   7.736   9.161   6.239  2.7305  0.7828  0.0563
  814MOL0     H 9854   8.383   9.313   6.161 -1.6389  0.3640 -0.7417
  814MOL0     H 9855   8.561   9.226   6.298  0.7581 -3.2627 -0.1349
  814MOL0     H 9856   8.734   9.158   6.609  1.3115  1.9507  0.2560
  814MOL0     H 9857   8.621   9.291   6.563 -1.2427 -0.7636 -0.4412
  814MOL0     H 9858   8.631   9.292   6.789 -2.9754  0.8128 -2.4129
  814MOL0     H 9859   8.484   9.213   6.761 -0.2797  1.4576  0.5598
  814MOL0     H 9860   8.623   9.095   6.953 -2.1208  2.4251 -0.6623
  814MOL0     H 9861   8.733   9.032   6.835  0.4886  1.9745  1.3270
  814MOL0     H 9862   8.435   8.973   6.860  0.4014  0.9380 -0.0860
  814MOL0     H 9863   8.537   8.915   6.726  0.5680 -0.8867  0.1515
  814MOL0     H 9864   8.684   8.816   6.918  0.5546  0.3401  0.4956
  814MOL0     H 9865   8.525   8.729   6.886  0.8697 -1.3075  4.8314
  814MOL0     H 9866   8.545   8.911   7.122 -3.7701  2.3464 -0.5021
  814MOL0     H 9867   8.403   8.836   7.037 -0.6314 -0.1807  0.6135
  814MOL0     H 9868   8.458   8.627   7.088  1.2929 -0.9823  0.8219
  814MOL0     H 9869   8.481   8.708   7.241 -0.7182 -1.1740  0.5310
  814MOL0     H 9870   8.710   8.620   7.059  1.2483  2.0619  0.0611
  814MOL0     H 9871   8.644   8.536   7.196 -0.3213  0.8473  3.0470
  814MOL0     H 9872   8.280   9.036   6.560 -0.8280  0.3473  0.3076
  814MOL0     H 9873   8.116   9.099   6.396  0.4874 -0.2688 -0.9068
  814MOL0     H 9874   8.109   9.335   5.954  0.9381 -0.9118  3.1450
  814MOL0     H 9875   7.974   9.364   5.743 -1.4133 -1.4605 -1.1404
  814MOL0     H 9876   6.695   8.695   6.013  0.2716 -1.7503  2.2448
  814MOL0     H 9877   6.602   8.568   6.167 -3.3816  4.4666 -3.7751
  814MOL0     H 9878   6.627   7.953   6.321  0.8666  3.0034 -0.8807
  814MOL0     H 9879   6.473   7.828   6.445 -0.8102 -2.3539  0.0776
  814MOL0     H 9880   6.041   7.957   6.459 -0.0849 -0.8868 -0.4178
  814MOL0     H 9881   6.067   7.862   6.591  0.7203  1.0299  2.1005
  814MOL0     H 9882   6.039   8.119   6.650  0.4829  2.6154 -0.6622
  814MOL0     H 9883   6.202   8.140   6.598 -0.9290 -0.0078 -2.0594
  814MOL0     H 9884   6.267   7.951   6.761  0.1711 -0.3581  1.2038
  814MOL0     H 9885   6.106   7.961   6.827  0.2021  2.0917  1.2602
  814MOL0     H 9886   6.116   8.196   6.883  2.1680  0.3616  3.8818
  814MOL0     H 9887   6.279   8.206   6.842 -0.1395  1.2019  1.8293
  814MOL0     H 9888   6.233   8.022   7.222  2.2842 -1.5749 -0.3573
  814MOL0     H 9889   6.154   8.100   6.323 -0.3105 -0.0032  1.5479
  814MOL0     H 9890   6.332   8.245   6.227  0.3535  0.1013  0.4405
  815MOL0     O 9891   6.744   6.340   2.761 -0.2528 -0.4983  0.8165
  815MOL0     C 9892   6.815   6.260   2.695 -0.5780 -1.1675  0.1330
  815MOL0     O 9893   6.817   6.250   2.556 -0.1777 -0.4740 -0.8100
  815MOL0     C 9894   6.784   6.355   2.475  1.3157 -0.3589  0.0080
  815MOL0     C 9895   6.760   6.322   2.333 -0.3622 -0.6102 -1.2508
  815MOL0     C 9896   6.731   6.414   2.234  0.7514  0.5238 -1.1280
  815MOL0     C 9897   6.745   6.550   2.266  0.2970 -0.0641 -0.0908
  815MOL0     O 9898   6.743   6.645   2.164 -0.8317  0.0470 -0.0974
  815MOL0     C 9899   6.826   6.768   2.178  0.5152 -0.4729  0.7069
  815MOL0     C 9900   6.718   6.877   2.217 -0.1110 -0.2109  0.2977
  815MOL0     C 9901   6.739   7.013   2.130  0.3552  0.1700 -0.3303
  815MOL0     C 9902   6.612   7.057   2.061 -0.3988  0.1020  1.3542
  815MOL0     C 9903   6.487   7.068   2.150  0.0648 -0.3903  0.8095
  815MOL0     C 9904   6.366   7.107   2.061  1.1040 -0.5771 -0.1730
  815MOL0     C 9905   6.245   7.128   2.158 -0.9567  0.3378  0.4871
  815MOL0     C 9906   6.160   7.240   2.094 -0.5914  0.4312  0.1333
  815MOL0     N 9907   6.045   7.287   2.171 -0.1262  0.5256  0.1860
  815MOL0     C 9908   5.922   7.229   2.192  0.1498 -0.0382  0.1066
  815MOL0     C 9909   5.850   7.324   2.257  0.5183  0.1696  0.9836
  815MOL0     C 9910   5.700   7.331   2.272 -0.3692 -0.1584  0.3191
  815MOL0     C 9911   5.660   7.450   2.179  0.8006 -0.3944  0.0828
  815MOL0     C 9912   5.504   7.465   2.176 -0.2419 -0.7896  0.3854
  815MOL0     C 9913   5.453   7.571   2.067  0.1028 -0.2233  0.5058
  815MOL0     O 9914   5.521   7.705   2.065  0.9380 -0.0396 -0.1280
  815MOL0     C 9915   5.521   7.782   2.173  1.0486 -1.2106  0.5202
  815MOL0     C 9916   5.395   7.812   2.227 -0.4926 -0.5368  0.0669
  815MOL0     C 9917   5.389   7.901   2.344  0.1503  0.0321  0.1004
  815MOL0     C 9918   5.252   7.935   2.394  0.2565 -0.2584 -0.8642
  815MOL0     C 9919   5.512   7.946   2.396  1.4177  0.1246 -0.0301
  815MOL0     C 9920   5.520   8.043   2.513  0.2838  0.9245  0.5393
  815MOL0     O 9921   5.638   8.032   2.592  0.2086  0.1301  0.2283
  815MOL0     C 9922   5.658   8.105   2.707  0.9244 -0.0119  0.1047
  815MOL0     C 9923   5.566   8.124   2.802  0.8699  0.0385 -0.3609
  815MOL0     C 9924   5.597   8.174   2.926 -0.6306 -0.7637  0.2840
  815MOL0     C 9925   5.728   8.227   2.945 -0.0156  0.0482  0.8280
  815MOL0     O 9926   5.750   8.293   3.067 -0.2335 -0.3015 -0.8924
  815MOL0     C 9927   5.695   8.245   3.191  0.2593 -0.2972 -0.1475
  815MOL0     C 9928   5.817   8.253   3.286 -0.7593 -0.1738  0.1610
  815MOL0     C 9929   5.819   8.375   3.386  0.4732 -0.2479  0.7356
  815MOL0     C 9930   5.817   8.516   3.325 -0.3536  0.2464 -0.4834
  815MOL0     C 9931   5.962   8.565   3.266 -0.1256  0.1308 -0.5207
  815MOL0     C 9932   5.965   8.716   3.240  0.5808 -0.2117  0.8016
  815MOL0     C 9933   5.955   8.800   3.365  0.6763 -0.1577  0.3068
  815MOL0     C 9934   6.032   8.747   3.483 -0.4847 -0.1327  0.0399
  815MOL0    Cl 9935   6.021   8.846   3.623  0.0746 -0.1130  0.0319
  815MOL0     C 9936   5.826   8.216   2.849 -0.7494 -0.4214  0.1923
  815MOL0     C 9937   5.791   8.144   2.732  0.6291  0.1226 -0.3186
  815MOL0     O 9938   5.426   8.122   2.525  0.7669  0.0964 -0.4643
  815MOL0     C 9939   5.626   7.908   2.336 -0.2873 -0.2608 -0.4846
  815MOL0     C 9940   5.640   7.834   2.223  0.4686  0.0989 -0.3369
  815MOL0     N 9941   5.941   7.422   2.283 -0.4426 -0.0948 -0.3294
  815MOL0     N 9942   6.053   7.402   2.231 -0.1819 -1.0687  0.6345
  815MOL0     C 9943   6.759   6.585   2.398 -0.4923 -0.0376  0.1108
  815MOL0     C 9944   6.778   6.493   2.503 -0.4556 -0.2996  0.2427
  815MOL0     C 9945   6.897   6.154   2.760 -0.6464  0.4883 -0.6090
  815MOL0     C 9946   6.937   6.035   2.690 -0.1427  0.1669 -0.8623
  815MOL0     C 9947   7.013   5.930   2.737 -0.8142 -0.7553  0.1040
  815MOL0     C 9948   7.046   5.923   2.873  0.1209  0.4068  0.0670
  815MOL0     O 9949   7.132   5.831   2.931  0.6917  0.0367  0.0375
  815MOL0     C 9950   7.153   5.696   2.885  0.3360 -0.0523  0.6389
  815MOL0     C 9951   7.020   5.620   2.872 -1.2598 -0.1414  0.4396
  815MOL0     C 9952   7.040   5.498   2.789  0.5458  0.2654 -0.3476
  815MOL0     C 9953   6.907   5.431   2.738  1.0752  0.8590  0.0260
  815MOL0     C 9954   6.941   5.303   2.684  0.1489  0.1815  0.3041
  815MOL0     C 9955   6.975   5.196   2.640 -1.0335  0.3526 -0.6971
  815MOL0     C 9956   6.991   6.032   2.950 -0.6724  0.3007 -0.3157
  815MOL0     C 9957   6.925   6.149   2.901 -0.2879 -0.1134  0.2002
  815MOL0     H 9958   6.759   6.215   2.312 -1.5111 -0.8636 -0.0117
  815MOL0     H 9959   6.729   6.391   2.128  2.4847  2.7212 -1.7237
  815MOL0     H 9960   6.905   6.751   2.252 -0.0554 -2.5401  0.9254
  815MOL0     H 9961   6.879   6.776   2.082 -0.5669 -0.0226  0.1292
  815MOL0     H 9962   6.621   6.830   2.195  1.3695 -3.4734  0.1231
  815MOL0     H 9963   6.726   6.911   2.321  1.2010  1.8901 -0.4340
  815MOL0     H 9964   6.790   7.083   2.196  0.2544 -0.3959  0.3653
  815MOL0     H 9965   6.806   6.980   2.050  1.4617  0.6973  0.3687
  815MOL0     H 9966   6.636   7.155   2.018 -2.5452  0.5940  1.1875
  815MOL0     H 9967   6.588   6.991   1.977  1.2680  0.2201  0.7317
  815MOL0     H 9968   6.460   6.973   2.197 -0.4770  0.7168  2.8659
  815MOL0     H 9969   6.511   7.134   2.234 -1.7697 -0.0732  1.1310
  815MOL0     H 9970   6.387   7.195   1.998 -1.1038 -0.4532 -0.8224
  815MOL0     H 9971   6.341   7.033   1.984 -1.2233  1.6926 -1.7761
  815MOL0     H 9972   6.203   7.027   2.159  4.8178 -2.4917  1.5096
  815MOL0     H 9973   6.279   7.154   2.258 -1.2165 -1.5909  1.1112
  815MOL0     H 9974   6.121   7.209   1.996  0.5250  3.3800 -1.3886
  815MOL0     H 9975   6.223   7.327   2.071  2.0542 -1.5685 -0.7359
  815MOL0     H 9976   5.890   7.140   2.138  4.5021 -0.8324 -1.6010
  815MOL0     H 9977   5.645   7.243   2.235 -1.3821  0.5427  0.1161
  815MOL0     H 9978   5.676   7.358   2.375  2.2863  1.1053  0.6670
  815MOL0     H 9979   5.709   7.442   2.082  0.7229  0.1636 -0.0023
  815MOL0     H 9980   5.715   7.538   2.214  1.0914  0.4110 -2.2633
  815MOL0     H 9981   5.470   7.487   2.277 -0.1081 -2.1429  0.7421
  815MOL0     H 9982   5.457   7.371   2.146 -0.1851 -1.2048  1.5518
  815MOL0     H 9983   5.348   7.582   2.094  0.3207 -0.7972  1.6619
  815MOL0     H 9984   5.449   7.521   1.970 -1.8711 -0.4786  0.6793
  815MOL0     H 9985   5.302   7.793   2.175 -3.3670  3.1003  3.3087
  815MOL0     H 9986   5.249   7.947   2.502  1.5247  1.0707 -0.9448
  815MOL0     H 9987   5.221   8.028   2.346 -2.4031 -0.4484  0.3425
  815MOL0     H 9988   5.175   7.863   2.364  0.7930 -0.0653 -2.8895
  815MOL0     H 9989   5.470   8.076   2.794  0.9074 -0.6572  2.4285
  815MOL0     H 9990   5.521   8.177   3.003 -1.4805  0.8287 -0.5524
  815MOL0     H 9991   5.611   8.309   3.221  1.6111  0.0709  3.2978
  815MOL0     H 9992   5.653   8.145   3.180  0.9014 -0.4522 -1.3569
  815MOL0     H 9993   5.808   8.174   3.361  2.7296  1.0647  2.1163
  815MOL0     H 9994   5.911   8.250   3.230 -0.2711  0.7614  0.9083
  815MOL0     H 9995   5.900   8.362   3.458  1.5071 -0.4887 -0.4511
  815MOL0     H 9996   5.724   8.362   3.440  0.3038 -3.0427 -0.1165
  815MOL0     H 9997   5.741   8.518   3.247 -0.6767 -0.7908 -0.2072
  815MOL0     H 9998   5.772   8.587   3.396 -0.8383 -0.4695 -0.0611
  815MOL0     H 9999   5.979   8.501   3.179  2.5642 -0.9252  0.6518
  815MOL0     H10000   6.039   8.533   3.337  0.5492 -2.5744 -2.2936
  815MOL0     H10001   6.058   8.747   3.192  0.3770 -0.6403  0.1202
  815MOL0     H10002   5.884   8.747   3.173 -0.1655 -2.2538  0.6931
  815MOL0     H10003   5.849   8.804   3.395  0.9496 -0.4641  1.3755
  815MOL0     H10004   5.989   8.903   3.350  0.7865  0.4690  3.8971
  815MOL0     H10005   6.136   8.730   3.455 -1.3236 -2.3052 -2.0779
  815MOL0     H10006   6.006   8.643   3.506 -2.9287 -0.0662 -1.9404
  815MOL0     H10007   5.928   8.253   2.860 -0.0105 -1.7433 -1.6829
  815MOL0     H10008   5.859   8.136   2.647  1.0240 -0.7582  0.0730
  815MOL0     H10009   5.718   7.943   2.381 -1.4847  0.7294  1.3088
  815MOL0     H10010   5.736   7.805   2.182  0.4127  3.0638 -2.8884
  815MOL0     H10011   6.761   6.688   2.432 -1.2184 -0.5440  1.8026
  815MOL0     H10012   6.781   6.523   2.607 -1.4111 -1.1671  0.5256
  815MOL0     H10013   6.920   6.049   2.584 -0.7762  2.1353 -0.5522
  815MOL0     H10014   7.032   5.854   2.662  1.9225  0.7022 -0.8225
  815MOL0     H10015   7.194   5.702   2.784  0.7908 -0.4898  0.7916
  815MOL0     H10016   7.227   5.640   2.943  1.3782 -0.9632 -1.4814
  815MOL0     H10017   6.946   5.678   2.817  1.6191 -0.1614 -3.9580
  815MOL0     H10018   6.989   5.596   2.974  1.5381 -0.5096  1.3016
  815MOL0     H10019   7.105   5.429   2.843  2.5324  1.7891 -0.6434
  815MOL0     H10020   7.098   5.515   2.697  1.2036 -2.3890 -0.5114
  815MOL0     H10021   6.845   5.488   2.669  2.2902  0.1849 -1.7073
  815MOL0     H10022   6.854   5.410   2.832 -1.2556 -0.1802 -1.4323
  815MOL0     H10023   6.999   5.102   2.595  3.2521  1.7625 -1.8166
  815MOL0     H10024   7.005   6.036   3.058 -1.1676  1.3670 -0.2764
  815MOL0     H10025   6.883   6.227   2.963 -1.0844 -0.3595 -0.0135
  816MOL0     O10026   0.968   5.060   0.436  0.7623 -0.5671  0.9946
  816MOL0     C10027   1.081   5.094   0.389  0.1522  0.7551  0.4451
  816MOL0     O10028   1.140   5.222   0.396 -0.0919 -0.2568 -0.1449
  816MOL0     C10029   1.055   5.334   0.405  0.9209  0.1630  0.7001
  816MOL0     C10030   1.079   5.437   0.493 -0.4926  0.2298  0.2824
  816MOL0     C10031   1.015   5.557   0.503  0.5839  0.2483  1.0178
  816MOL0     C10032   0.903   5.582   0.416  0.6195  0.2570  0.5312
  816MOL0     O10033   0.849   5.711   0.421  0.1762 -0.4268  0.4697
  816MOL0     C10034   0.717   5.747   0.371  0.2126  0.4407 -0.7319
  816MOL0     C10035   0.621   5.721   0.492 -0.3429  0.2974 -0.4205
  816MOL0     C10036   0.616   5.825   0.597  0.0931  0.3480 -0.4175
  816MOL0     C10037   0.575   5.778   0.739  0.2430  0.2933 -1.3452
  816MOL0     C10038   0.588   5.893   0.845  1.0736  0.9047 -0.9877
  816MOL0     C10039   0.522   6.022   0.797 -0.2469 -0.6741 -0.2208
  816MOL0     C10040   0.537   6.145   0.891 -0.5987  0.9048  0.0596
  816MOL0     C10041   0.457   6.265   0.822  0.5568 -0.0215 -0.1767
  816MOL0     N10042   0.428   6.393   0.894 -0.6147 -0.0662  0.3610
  816MOL0     C10043   0.346   6.400   1.004  0.7575 -0.2794  0.0410
  816MOL0     C10044   0.347   6.533   1.033 -0.6423  0.0307 -0.0050
  816MOL0     C10045   0.276   6.604   1.138  0.0695 -0.3822  0.0700
  816MOL0     C10046   0.357   6.708   1.200 -0.3088 -0.2298  1.0488
  816MOL0     C10047   0.284   6.770   1.320  0.7710  0.1255  0.2459
  816MOL0     C10048   0.255   6.675   1.437 -0.2979 -0.6798  0.0050
  816MOL0     O10049   0.194   6.764   1.534  0.8386  0.5355 -0.1780
  816MOL0     C10050   0.194   6.729   1.668  0.2993  0.8503  1.1373
  816MOL0     C10051   0.195   6.588   1.698 -0.0098 -0.0379 -0.2167
  816MOL0     C10052   0.185   6.547   1.831  0.2012  0.2132  0.5099
  816MOL0     C10053   0.205   6.402   1.852 -0.0526  0.5226  0.3122
  816MOL0     C10054   0.157   6.643   1.937 -0.5043  0.3120 -0.3126
  816MOL0     C10055   0.133   6.610   2.078  0.4012  0.0105  0.6283
  816MOL0     O10056   0.154   6.712   2.159  0.4130 -0.8732 -0.3617
  816MOL0     C10057   0.115   6.691   2.296  0.4163 -0.6872  0.6267
  816MOL0     C10058  -0.016   6.704   2.331  0.5122 -0.1280  0.0487
  816MOL0     C10059  -0.059   6.688   2.460  0.1536 -0.1675 -1.1219
  816MOL0     C10060   0.027   6.668   2.563  0.3270 -0.9577 -0.0709
  816MOL0     O10061  -0.019   6.648   2.689  0.3848  0.7894 -0.9620
  816MOL0     C10062   0.072   6.649   2.799 -0.4232  0.2543 -0.8301
  816MOL0     C10063  -0.012   6.656   2.926  0.5913 -0.2326  0.7970
  816MOL0     C10064   0.078   6.701   3.046  0.0052 -0.5346  0.5406
  816MOL0     C10065   0.133   6.847   3.031  0.4614 -0.5649 -0.0215
  816MOL0     C10066   0.188   6.886   3.170 -0.6534 -0.3654 -0.1303
  816MOL0     C10067   0.239   7.038   3.159 -0.1584 -1.2205  0.0870
  816MOL0     C10068   0.241   7.104   3.301 -0.3450 -0.8343  1.1029
  816MOL0     C10069   0.311   7.243   3.305 -0.8255  0.2008 -0.2350
  816MOL0    Cl10070   0.312   7.312   3.472  0.1422  0.3041 -0.2550
  816MOL0     C10071   0.157   6.644   2.531  0.0752  0.5720 -0.5007
  816MOL0     C10072   0.201   6.659   2.399 -0.2964 -0.0910 -0.0295
  816MOL0     O10073   0.088   6.498   2.101  0.1380 -0.1091  0.3554
  816MOL0     C10074   0.152   6.776   1.903  0.1143  1.0030  0.6847
  816MOL0     C10075   0.161   6.813   1.773 -0.1695 -0.0183  0.0056
  816MOL0     N10076   0.435   6.601   0.947 -0.8815  0.4891 -0.5317
  816MOL0     N10077   0.498   6.506   0.872  0.4921 -0.1084 -0.0669
  816MOL0     C10078   0.867   5.483   0.322  0.3729  0.7030  0.2988
  816MOL0     C10079   0.944   5.357   0.318 -0.6495 -0.3937  0.2183
  816MOL0     C10080   1.172   4.987   0.352 -0.3484  0.0532 -0.7209
  816MOL0     C10081   1.116   4.870   0.304  0.0929  0.2737 -0.5184
  816MOL0     C10082   1.201   4.758   0.277  0.5358 -1.0426  0.2141
  816MOL0     C10083   1.336   4.769   0.296 -0.1078  0.2494  0.0474
  816MOL0     O10084   1.434   4.672   0.283  0.3151 -0.5155  0.9803
  816MOL0     C10085   1.388   4.541   0.240 -0.6011 -0.2603  0.0127
  816MOL0     C10086   1.491   4.428   0.271 -0.7058 -0.2927 -0.3869
  816MOL0     C10087   1.600   4.432   0.171  0.7660 -0.1735 -0.6059
  816MOL0     C10088   1.703   4.327   0.185 -0.6706  0.4669  0.0824
  816MOL0     C10089   1.750   4.315   0.326  0.0664  0.5806  0.2565
  816MOL0     C10090   1.766   4.312   0.447  0.8187  0.3632 -0.0475
  816MOL0     C10091   1.390   4.893   0.340  0.3994  0.2713  0.7545
  816MOL0     C10092   1.311   5.002   0.372 -0.3778  0.6789 -0.8497
  816MOL0     H10093   1.172   5.423   0.548 -0.1162 -2.1425 -0.8614
  816MOL0     H10094   1.062   5.633   0.565 -0.6749  1.0449  1.0268
  816MOL0     H10095   0.710   5.853   0.345 -0.4816  1.2326  2.2691
  816MOL0     H10096   0.685   5.690   0.283  1.9331 -1.7963  0.0136
  816MOL0     H10097   0.530   5.726   0.432 -1.1535  1.2232  0.8262
  816MOL0     H10098   0.632   5.622   0.539  2.9506  1.5641  1.9129
  816MOL0     H10099   0.711   5.879   0.605 -0.4024  0.9842  5.0136
  816MOL0     H10100   0.534   5.888   0.562  0.4849  0.4909 -1.0886
  816MOL0     H10101   0.470   5.749   0.727 -1.6139  5.6092 -0.4565
  816MOL0     H10102   0.624   5.687   0.775 -3.0612  0.0039  3.1366
  816MOL0     H10103   0.538   5.854   0.934 -0.5598  1.4954 -1.6019
  816MOL0     H10104   0.692   5.910   0.873  1.1352  1.1403 -1.3511
  816MOL0     H10105   0.574   6.044   0.703  0.4208  1.1015  0.5081
  816MOL0     H10106   0.419   5.999   0.769  0.1234 -3.5498  0.5002
  816MOL0     H10107   0.500   6.130   0.993  2.1855  0.6814  1.1416
  816MOL0     H10108   0.642   6.176   0.894 -0.6657  1.1407 -0.0095
  816MOL0     H10109   0.362   6.227   0.784  0.3508  1.4674 -1.2240
  816MOL0     H10110   0.505   6.297   0.729  1.4963 -0.1985  0.2374
  816MOL0     H10111   0.298   6.319   1.059  0.4761 -0.8170 -0.9807
  816MOL0     H10112   0.195   6.671   1.109 -1.0037 -0.0598  3.4123
  816MOL0     H10113   0.225   6.526   1.196  1.2446 -2.9895 -2.1562
  816MOL0     H10114   0.382   6.788   1.130  1.8447 -1.8544 -0.1796
  816MOL0     H10115   0.451   6.667   1.237 -0.2275  1.9207  3.5315
  816MOL0     H10116   0.188   6.800   1.276  0.6788 -2.0018 -1.1660
  816MOL0     H10117   0.349   6.848   1.361 -0.2203 -0.5664  3.3843
  816MOL0     H10118   0.342   6.621   1.475  1.0983  1.4434 -0.0080
  816MOL0     H10119   0.189   6.593   1.408  1.0637 -1.2803 -1.5026
  816MOL0     H10120   0.205   6.506   1.628 -1.0341  0.1173 -0.5638
  816MOL0     H10121   0.112   6.349   1.873  0.6297 -1.9114 -2.3232
  816MOL0     H10122   0.261   6.347   1.776 -0.2384 -1.3171  1.4545
  816MOL0     H10123   0.261   6.386   1.944 -3.2294 -0.4608  2.2295
  816MOL0     H10124  -0.085   6.735   2.253 -0.3472 -2.2239 -0.0883
  816MOL0     H10125  -0.159   6.706   2.498  0.5640 -1.5431  0.7823
  816MOL0     H10126   0.126   6.554   2.802 -1.9016 -0.5919  1.3738
  816MOL0     H10127   0.150   6.725   2.807  0.2576 -0.4568 -0.5875
  816MOL0     H10128  -0.086   6.736   2.917  1.1019  1.1132  5.5973
  816MOL0     H10129  -0.048   6.557   2.956 -0.4009  0.2879  1.3882
  816MOL0     H10130   0.154   6.624   3.063 -1.8189 -3.1399 -2.1197
  816MOL0     H10131   0.029   6.701   3.144  2.3218 -0.6423  1.7610
  816MOL0     H10132   0.215   6.853   2.959  0.9230 -1.5731  0.4008
  816MOL0     H10133   0.056   6.918   2.998  0.0975 -1.5505 -1.3365
  816MOL0     H10134   0.266   6.812   3.186 -0.2493 -0.9581 -3.9422
  816MOL0     H10135   0.114   6.861   3.248  0.6272 -4.3521  0.0332
  816MOL0     H10136   0.339   7.040   3.116  0.8975  3.0870  2.2097
  816MOL0     H10137   0.183   7.100   3.089  1.5049  1.9061  1.3666
  816MOL0     H10138   0.288   7.045   3.380  0.4176 -1.7777 -0.0304
  816MOL0     H10139   0.137   7.118   3.334 -1.3398 -3.3694 -0.6603
  816MOL0     H10140   0.268   7.312   3.231  2.7603  1.4263 -1.3961
  816MOL0     H10141   0.417   7.226   3.286 -0.9305 -0.5376 -0.1592
  816MOL0     H10142   0.234   6.631   2.607 -1.0471  3.1683  1.2220
  816MOL0     H10143   0.302   6.646   2.362 -0.8915  2.2335 -2.8705
  816MOL0     H10144   0.135   6.861   1.968 -2.1476  0.9016  0.2825
  816MOL0     H10145   0.140   6.917   1.749  3.1698  0.7577 -0.0446
  816MOL0     H10146   0.777   5.477   0.261 -0.2146 -0.4827  1.2415
  816MOL0     H10147   0.919   5.278   0.248  2.2046 -1.9577  0.8038
  816MOL0     H10148   1.008   4.869   0.302  0.0544  1.9539 -0.9257
  816MOL0     H10149   1.159   4.660   0.257  1.6223 -0.8892 -3.6183
  816MOL0     H10150   1.293   4.511   0.285 -0.1428 -2.7512 -0.5206
  816MOL0     H10151   1.371   4.551   0.133  0.6945 -1.5425 -0.3377
  816MOL0     H10152   1.438   4.333   0.268  0.4031 -0.9869  0.8150
  816MOL0     H10153   1.526   4.442   0.374 -0.4140 -0.6347 -0.4362
  816MOL0     H10154   1.651   4.529   0.173 -0.3035  0.4112 -0.9067
  816MOL0     H10155   1.550   4.412   0.076 -3.5250 -0.0338  1.3721
  816MOL0     H10156   1.793   4.347   0.126 -1.3930  1.9090 -0.5924
  816MOL0     H10157   1.658   4.236   0.144 -1.0861  1.5327 -1.9802
  816MOL0     H10158   1.769   4.293   0.552 -1.5231 -1.0464 -0.1609
  816MOL0     H10159   1.497   4.908   0.335 -0.1343  5.9471 -0.4116
  816MOL0     H10160   1.361   5.082   0.427 -0.4167  0.0971  0.0634
  817MOL0     O10161   5.188   3.093  11.518  0.3510 -0.3010  0.5890
  817MOL0     C10162   5.103   3.169  11.566  0.8974 -0.4655  0.5842
  817MOL0     O10163   5.027   3.271  11.500 -0.0049 -0.0682  0.4285
  817MOL0     C10164   5.061   3.299  11.372  0.6851 -0.7776  0.7812
  817MOL0     C10165   5.052   3.191  11.276  0.9619 -0.8735  0.1476
  817MOL0     C10166   5.096   3.216  11.139  0.6718 -0.5719 -0.5105
  817MOL0     C10167   5.144   3.340  11.101  0.0280  1.0726 -0.0056
  817MOL0     O10168   5.198   3.366  10.973  0.5325  0.0129 -0.0132
  817MOL0     C10169   5.190   3.272  10.864 -0.8250 -0.2278  0.1240
  817MOL0     C10170   5.333   3.202  10.858  0.1408 -0.7660 -0.1074
  817MOL0     C10171   5.436   3.300  10.784  0.9058  0.2161 -0.0212
  817MOL0     C10172   5.561   3.226  10.740 -0.1573  0.2803  0.4468
  817MOL0     C10173   5.686   3.318  10.701  0.2057 -0.2825  0.9721
  817MOL0     C10174   5.642   3.450  10.637 -0.3675 -0.6810  0.0500
  817MOL0     C10175   5.755   3.538  10.611 -0.1127  0.3597  0.1259
  817MOL0     C10176   5.715   3.663  10.532  0.3106 -0.0342  0.1281
  817MOL0     N10177   5.840   3.735  10.520 -1.2298  0.6983  0.3519
  817MOL0     C10178   5.911   3.765  10.403  1.6934  1.0375 -0.3607
  817MOL0     C10179   5.996   3.858  10.434 -0.9548  0.3837 -0.1449
  817MOL0     C10180   6.075   3.936  10.335 -0.1673  0.5264  0.5877
  817MOL0     C10181   6.106   4.078  10.396  0.7785  0.7242  0.4142
  817MOL0     C10182   6.176   4.177  10.298 -0.0649 -0.2120 -0.2097
  817MOL0     C10183   6.271   4.265  10.383 -0.4134 -0.5623 -0.1496
  817MOL0     O10184   6.384   4.196  10.441  0.3631  0.4967 -0.1288
  817MOL0     C10185   6.483   4.151  10.352 -0.1719  0.4131  0.2633
  817MOL0     C10186   6.585   4.238  10.317  0.9284  0.1290 -1.1885
  817MOL0     C10187   6.681   4.195  10.229  0.2639  0.4209  0.0009
  817MOL0     C10188   6.781   4.292  10.175 -0.5529 -0.5737  0.1720
  817MOL0     C10189   6.670   4.062  10.174 -0.0917 -0.4298 -1.0041
  817MOL0     C10190   6.764   3.993  10.084  0.1513  1.5175  0.4824
  817MOL0     O10191   6.715   3.947   9.968  0.2536 -0.2139 -0.0806
  817MOL0     C10192   6.800   3.880   9.885 -0.3224  0.1453  0.3041
  817MOL0     C10193   6.868   3.952   9.792 -1.3541  0.0475  0.0747
  817MOL0     C10194   6.958   3.873   9.728 -0.9683 -0.4886  0.2817
  817MOL0     C10195   6.986   3.739   9.746  0.2727  0.2224  0.3759
  817MOL0     O10196   7.080   3.674   9.680 -1.1286 -0.0013 -0.0753
  817MOL0     C10197   7.056   3.641   9.542  0.2709  1.2654 -0.2955
  817MOL0     C10198   7.165   3.544   9.499 -1.2004 -0.2816  0.4259
  817MOL0     C10199   7.144   3.410   9.568  0.4468  0.5654  0.7020
  817MOL0     C10200   7.246   3.289   9.555  1.2993  0.2392 -0.2944
  817MOL0     C10201   7.246   3.245   9.414 -0.2498 -0.6634  0.2551
  817MOL0     C10202   7.321   3.113   9.373 -0.3977  0.3332 -0.3897
  817MOL0     C10203   7.473   3.112   9.392 -0.3890  0.1265 -0.4206
  817MOL0     C10204   7.531   2.982   9.331  0.8582  0.0763  0.1650
  817MOL0    Cl10205   7.509   2.839   9.433  0.1427 -0.0429 -0.0109
  817MOL0     C10206   6.914   3.672   9.843  0.1898  0.5861 -0.1903
  817MOL0     C10207   6.817   3.748   9.917  0.6936  0.1217  0.2815
  817MOL0     O10208   6.880   3.984  10.118 -0.6628 -0.1395  1.4960
  817MOL0     C10209   6.574   3.974  10.231 -1.2541 -0.2185 -0.7293
  817MOL0     C10210   6.465   4.031  10.294 -0.0159 -0.4029 -0.0431
  817MOL0     N10211   5.995   3.880  10.572  0.3109 -0.8629 -0.1250
  817MOL0     N10212   5.895   3.806  10.622 -0.1431 -0.4662 -0.1421
  817MOL0     C10213   5.152   3.436  11.199 -1.3585 -0.1617 -0.2033
  817MOL0     C10214   5.113   3.427  11.337 -0.4441  0.0430  0.4156
  817MOL0     C10215   5.086   3.156  11.721 -0.0479 -0.2688  0.4305
  817MOL0     C10216   4.986   3.223  11.793  0.0210 -0.3915 -0.3012
  817MOL0     C10217   4.981   3.221  11.936 -0.0847  0.0596  0.3515
  817MOL0     C10218   5.079   3.149  12.008 -0.4819 -0.9540 -0.5492
  817MOL0     O10219   5.062   3.158  12.142  0.2973 -0.3705  0.8366
  817MOL0     C10220   5.170   3.118  12.217  0.8744 -0.3605 -0.8615
  817MOL0     C10221   5.143   3.142  12.359  0.6271 -0.4646  0.4903
  817MOL0     C10222   5.276   3.165  12.426 -0.1929  0.6023 -0.2699
  817MOL0     C10223   5.258   3.191  12.577  0.0683 -0.2909  0.0399
  817MOL0     C10224   5.390   3.171  12.635  0.2787 -0.7857  0.2653
  817MOL0     C10225   5.500   3.151  12.681 -0.3254  0.2733  0.3998
  817MOL0     C10226   5.185   3.094  11.932 -0.7559  0.8264  0.4228
  817MOL0     C10227   5.189   3.097  11.794 -0.9033  0.3623  0.3303
  817MOL0     H10228   5.003   3.103  11.316 -4.6007  0.7498 -2.1272
  817MOL0     H10229   5.076   3.133  11.072  0.4695 -3.9085  3.3304
  817MOL0     H10230   5.114   3.196  10.885  0.3869 -2.3405 -2.5108
  817MOL0     H10231   5.160   3.318  10.769 -1.1105  0.5594  0.5818
  817MOL0     H10232   5.362   3.202  10.964  0.4351  2.9983 -0.0467
  817MOL0     H10233   5.321   3.099  10.824 -1.2943 -1.3812  2.0226
  817MOL0     H10234   5.401   3.359  10.699  2.0889  1.9984  0.6691
  817MOL0     H10235   5.457   3.375  10.860  2.3512 -2.8708  2.9114
  817MOL0     H10236   5.596   3.166  10.824  1.4650  0.2278 -0.2259
  817MOL0     H10237   5.538   3.161  10.655  0.5612  0.3029  0.2281
  817MOL0     H10238   5.735   3.345  10.795 -1.4377  0.4271  1.6707
  817MOL0     H10239   5.761   3.267  10.640 -0.0174  2.1132 -1.4915
  817MOL0     H10240   5.592   3.427  10.543  1.8041 -0.4154 -1.2401
  817MOL0     H10241   5.570   3.507  10.697  0.1001 -0.4483  0.4011
  817MOL0     H10242   5.799   3.567  10.707  3.4346  1.1804 -1.5869
  817MOL0     H10243   5.824   3.478  10.551 -1.2809 -0.6157 -0.2933
  817MOL0     H10244   5.649   3.723  10.596 -0.2806 -0.9614  0.4018
  817MOL0     H10245   5.660   3.640  10.440  0.1123 -1.4252  0.5711
  817MOL0     H10246   5.888   3.724  10.305  3.5980  0.4281 -0.5864
  817MOL0     H10247   6.170   3.893  10.302  0.9807  1.8910  1.9280
  817MOL0     H10248   6.015   3.943  10.245 -0.4536  1.7288  0.8517
  817MOL0     H10249   6.143   4.069  10.499  0.7459 -0.0929  0.3599
  817MOL0     H10250   6.005   4.120  10.401 -0.7156 -2.4692 -0.0389
  817MOL0     H10251   6.098   4.246  10.263 -0.2497 -0.3510 -0.0712
  817MOL0     H10252   6.224   4.137  10.210 -0.4043  1.6277 -1.2966
  817MOL0     H10253   6.212   4.317  10.459 -3.6029 -1.2295 -1.9810
  817MOL0     H10254   6.304   4.346  10.317 -1.3986 -1.5278 -1.8915
  817MOL0     H10255   6.587   4.333  10.370 -2.4387 -0.7740  0.9279
  817MOL0     H10256   6.847   4.324  10.256  0.4455  0.8419 -1.1333
  817MOL0     H10257   6.849   4.251  10.100  1.7987  3.0391  0.0584
  817MOL0     H10258   6.731   4.383  10.141  2.4113  1.1260  0.0262
  817MOL0     H10259   6.866   4.054   9.753  1.4384 -0.3738 -1.3975
  817MOL0     H10260   7.017   3.943   9.670 -1.4868  1.6173  2.1447
  817MOL0     H10261   6.962   3.587   9.531 -0.4646  1.4902  3.4892
  817MOL0     H10262   7.059   3.720   9.467  2.4211  0.6846 -0.8996
  817MOL0     H10263   7.149   3.529   9.391 -3.0178 -1.0064  0.7472
  817MOL0     H10264   7.259   3.592   9.528 -1.1326  0.4026 -0.8262
  817MOL0     H10265   7.045   3.369   9.547  1.0197 -0.4301 -0.2282
  817MOL0     H10266   7.150   3.437   9.674 -1.6491  0.4570  0.8872
  817MOL0     H10267   7.348   3.321   9.581  1.8658 -1.4793 -0.2728
  817MOL0     H10268   7.218   3.207   9.621  1.9684  0.9474  0.9077
  817MOL0     H10269   7.287   3.329   9.359  3.0244  0.8914  4.4874
  817MOL0     H10270   7.141   3.228   9.390 -0.0079 -0.8996 -0.6728
  817MOL0     H10271   7.268   3.028   9.418 -2.3232  2.5784  1.8665
  817MOL0     H10272   7.300   3.114   9.266  0.8639  1.4574 -0.6475
  817MOL0     H10273   7.497   3.124   9.498 -1.2709 -0.2816 -0.1606
  817MOL0     H10274   7.518   3.193   9.335 -1.2554 -0.0370 -1.3511
  817MOL0     H10275   7.639   2.996   9.324  1.1610 -2.2354 -0.8652
  817MOL0     H10276   7.503   2.973   9.226  4.4653  1.6295 -1.0961
  817MOL0     H10277   6.931   3.570   9.876  1.3596  0.8820  0.1627
  817MOL0     H10278   6.756   3.698   9.992  1.6298 -1.0154  0.3160
  817MOL0     H10279   6.573   3.867  10.210 -1.7173  0.1594 -2.8682
  817MOL0     H10280   6.382   3.975  10.336 -0.4658  0.0763 -0.2888
  817MOL0     H10281   5.185   3.526  11.147 -2.4741 -0.4177 -1.4147
  817MOL0     H10282   5.134   3.506  11.409 -1.4710 -1.8383  2.9070
  817MOL0     H10283   4.916   3.287  11.739  1.5139  1.3976 -0.2208
  817MOL0     H10284   4.890   3.264  11.977 -0.2384  0.8511 -0.7742
  817MOL0     H10285   5.191   3.014  12.193 -0.9756 -0.5913 -1.6239
  817MOL0     H10286   5.264   3.168  12.192  1.0063  1.1101  2.0845
  817MOL0     H10287   5.091   3.054  12.398 -0.3608  0.5970  1.6723
  817MOL0     H10288   5.069   3.222  12.354  1.5935  0.3809 -1.1102
  817MOL0     H10289   5.342   3.239  12.382  1.0683 -1.9241 -2.9341
  817MOL0     H10290   5.324   3.069  12.406 -4.0442 -0.8740 -3.9856
  817MOL0     H10291   5.192   3.119  12.626 -0.9029  0.2890 -0.3949
  817MOL0     H10292   5.228   3.292  12.606 -1.0425 -1.1291  1.9846
  817MOL0     H10293   5.592   3.115  12.722 -0.7382 -0.8246  0.3797
  817MOL0     H10294   5.264   3.040  11.984 -0.7503  2.1100  1.7877
  817MOL0     H10295   5.273   3.064  11.733 -2.9945 -2.5189 -1.3051
  818MOL0     O10296   8.005   2.121   6.794  0.5931  0.3081 -0.2877
  818MOL0     C10297   7.933   2.170   6.704  0.1214 -0.0428  0.3315
  818MOL0     O10298   7.797   2.154   6.690  0.6934  0.4989  1.1866
  818MOL0     C10299   7.747   2.096   6.802  0.6227  0.3239  0.1955
  818MOL0     C10300   7.683   1.970   6.799 -0.7596  0.1187  0.1766
  818MOL0     C10301   7.634   1.901   6.910  0.3768 -0.8698  0.8867
  818MOL0     C10302   7.620   1.965   7.030  0.1009  0.4393  0.0642
  818MOL0     O10303   7.590   1.883   7.136 -0.1086 -0.3402 -0.1731
  818MOL0     C10304   7.630   1.923   7.269  0.2584 -0.5254 -0.0372
  818MOL0     C10305   7.614   1.805   7.363  0.2843  0.2613  0.9110
  818MOL0     C10306   7.632   1.857   7.510 -0.6532  0.2388 -0.0196
  818MOL0     C10307   7.592   1.743   7.608 -0.5374 -0.3357  0.5702
  818MOL0     C10308   7.611   1.797   7.755  0.7578  0.6452  0.6255
  818MOL0     C10309   7.624   1.662   7.847 -0.4208 -0.1322 -0.3397
  818MOL0     C10310   7.619   1.702   7.993  0.1828 -0.4886  0.5604
  818MOL0     C10311   7.756   1.729   8.057 -0.4691 -0.3239  0.0217
  818MOL0     N10312   7.736   1.776   8.190  0.4213  0.4966 -0.6845
  818MOL0     C10313   7.702   1.704   8.306  0.2133 -0.3583 -0.5952
  818MOL0     C10314   7.683   1.801   8.400  0.6843  0.0554  0.2946
  818MOL0     C10315   7.673   1.779   8.551 -0.2834  0.2060 -0.5799
  818MOL0     C10316   7.770   1.674   8.607  0.3433  0.5591  0.3591
  818MOL0     C10317   7.766   1.697   8.761 -0.3261 -0.5573  1.0434
  818MOL0     C10318   7.858   1.603   8.839  0.0736  0.0456 -0.4943
  818MOL0     O10319   7.844   1.651   8.978 -0.1807  0.0228 -0.1934
  818MOL0     C10320   7.948   1.710   9.051  0.0513 -0.4742  0.1320
  818MOL0     C10321   7.922   1.771   9.173 -0.3372  0.6712 -0.1236
  818MOL0     C10322   8.010   1.820   9.263  0.2073  0.2642 -0.4390
  818MOL0     C10323   7.961   1.895   9.388 -0.3126 -0.5749 -0.4300
  818MOL0     C10324   8.146   1.795   9.249 -0.2460  0.4086  0.5146
  818MOL0     C10325   8.243   1.837   9.340 -0.5636  0.7169 -0.9400
  818MOL0     O10326   8.364   1.771   9.320 -0.2320 -0.1495 -0.2477
  818MOL0     C10327   8.465   1.840   9.386  0.4756 -0.1976 -0.5401
  818MOL0     C10328   8.539   1.929   9.318 -0.4384 -0.2204 -0.3062
  818MOL0     C10329   8.655   1.976   9.382  1.2486 -1.0894  0.4822
  818MOL0     C10330   8.683   1.961   9.517  0.2799  1.0280 -0.4118
  818MOL0     O10331   8.794   2.015   9.579 -0.3405 -0.1422 -0.1255
  818MOL0     C10332   8.860   2.119   9.518 -0.3939  0.4188 -0.0053
  818MOL0     C10333   8.968   2.172   9.617  0.2512  0.6232  0.3447
  818MOL0     C10334   9.075   2.074   9.650 -0.4535  0.0663 -0.0760
  818MOL0     C10335   9.178   2.143   9.735 -0.4682  0.8591 -1.4374
  818MOL0     C10336   9.309   2.058   9.738 -0.5887 -0.7322  0.4243
  818MOL0     C10337   9.390   2.094   9.862  0.2185  0.1310 -0.0867
  818MOL0     C10338   9.474   2.238   9.848 -0.0902 -0.5539 -0.3403
  818MOL0     C10339   9.552   2.292   9.969 -0.3186 -1.0918  0.0159
  818MOL0    Cl10340   9.450   2.339  10.105  0.1140 -0.6313 -0.4020
  818MOL0     C10341   8.607   1.868   9.583  0.6570  0.3701  0.9661
  818MOL0     C10342   8.503   1.796   9.516 -0.1113 -0.3910  0.4552
  818MOL0     O10343   8.218   1.906   9.436 -0.1370 -0.5140  0.3020
  818MOL0     C10344   8.186   1.729   9.131 -0.0624 -0.6351  1.3746
  818MOL0     C10345   8.083   1.687   9.034 -0.2364  0.0373  0.4160
  818MOL0     N10346   7.686   1.930   8.341 -0.6846  0.3575  0.7280
  818MOL0     N10347   7.718   1.910   8.212 -0.7137 -0.1689  0.2042
  818MOL0     C10348   7.672   2.100   7.038  0.8149  0.2340  0.2357
  818MOL0     C10349   7.726   2.161   6.929  0.0335 -0.3735  0.4095
  818MOL0     C10350   8.000   2.284   6.634 -0.6733 -0.6618 -0.0184
  818MOL0     C10351   7.928   2.390   6.574 -0.2129 -0.1651 -0.1607
  818MOL0     C10352   7.992   2.506   6.526  0.6950  0.4743 -0.0438
  818MOL0     C10353   8.127   2.535   6.545 -1.1209  1.3562  0.4913
  818MOL0     O10354   8.171   2.666   6.518  0.0332  0.1535  0.2265
  818MOL0     C10355   8.275   2.697   6.425  0.2927  1.5877  0.3406
  818MOL0     C10356   8.298   2.847   6.416  0.2882 -0.3114  0.4507
  818MOL0     C10357   8.442   2.885   6.355 -0.0132  0.5990  0.6061
  818MOL0     C10358   8.468   3.034   6.343 -0.3172  0.2439 -0.0405
  818MOL0     C10359   8.480   3.098   6.478 -0.5094  0.0294  0.7088
  818MOL0     C10360   8.501   3.122   6.600  0.1752  0.2545 -0.1654
  818MOL0     C10361   8.207   2.420   6.595 -0.2299 -0.4755 -0.2277
  818MOL0     C10362   8.145   2.302   6.637  0.5445  0.4182 -0.3384
  818MOL0     H10363   7.695   1.916   6.705  3.9994 -1.0537  1.1702
  818MOL0     H10364   7.608   1.797   6.893 -2.8461 -0.0592  0.3267
  818MOL0     H10365   7.736   1.951   7.279  0.0664  0.3922 -0.4557
  818MOL0     H10366   7.558   2.002   7.294  1.0183  1.0248 -2.4215
  818MOL0     H10367   7.519   1.752   7.368  1.2448 -1.4673  4.2843
  818MOL0     H10368   7.700   1.737   7.353 -0.5583 -1.5831  4.2834
  818MOL0     H10369   7.732   1.899   7.521 -1.3972  2.8129 -2.1103
  818MOL0     H10370   7.565   1.943   7.523 -1.8873 -0.7984  0.7731
  818MOL0     H10371   7.489   1.717   7.583  0.2086  0.9799 -5.4451
  818MOL0     H10372   7.666   1.662   7.600 -0.3802 -0.1933  0.5900
  818MOL0     H10373   7.709   1.842   7.737  2.3662 -3.4062 -2.5963
  818MOL0     H10374   7.526   1.864   7.774  1.0253  1.0792  0.3004
  818MOL0     H10375   7.548   1.585   7.833  1.6240 -2.2251 -0.4652
  818MOL0     H10376   7.720   1.614   7.828  0.4896  0.5444  2.1903
  818MOL0     H10377   7.561   1.792   8.017  2.2644  1.4101 -1.1782
  818MOL0     H10378   7.569   1.619   8.043  1.9106 -1.6198  0.4777
  818MOL0     H10379   7.817   1.793   7.991  2.8032 -3.4072 -0.2626
  818MOL0     H10380   7.807   1.632   8.064 -0.6854 -0.3672  1.1096
  818MOL0     H10381   7.714   1.597   8.317  0.4040 -0.3431 -0.6570
  818MOL0     H10382   7.698   1.874   8.601 -0.7828 -0.7053  1.5284
  818MOL0     H10383   7.567   1.759   8.569 -0.6594  2.4068 -0.0547
  818MOL0     H10384   7.872   1.681   8.568 -0.0410  1.6549 -0.4888
  818MOL0     H10385   7.742   1.571   8.584 -0.6323  0.0166  3.5010
  818MOL0     H10386   7.661   1.679   8.786 -0.8013  1.3426  0.6168
  818MOL0     H10387   7.786   1.803   8.780  0.6552 -1.2833  4.8862
  818MOL0     H10388   7.962   1.617   8.808  0.0396  1.3906 -0.0705
  818MOL0     H10389   7.813   1.504   8.840  0.4485 -0.1311  0.2743
  818MOL0     H10390   7.817   1.785   9.194 -0.3103  0.6365  0.0433
  818MOL0     H10391   7.852   1.905   9.390 -0.3131 -0.6439 -0.1238
  818MOL0     H10392   7.968   1.832   9.477  2.5052  1.3868  0.9076
  818MOL0     H10393   8.006   1.994   9.399  3.5649 -1.5871 -4.1114
  818MOL0     H10394   8.515   1.949   9.214 -1.3068 -1.4782 -0.3693
  818MOL0     H10395   8.708   2.051   9.325 -1.8915 -0.4998 -1.9523
  818MOL0     H10396   8.913   2.078   9.432  0.9005  3.5539 -0.8614
  818MOL0     H10397   8.797   2.203   9.485 -1.0565  0.0278  0.2452
  818MOL0     H10398   9.017   2.258   9.571  0.8137  1.1481  1.8512
  818MOL0     H10399   8.912   2.205   9.706 -1.6632 -1.1175 -0.1304
  818MOL0     H10400   9.133   2.035   9.567  0.6633 -0.2616  0.8284
  818MOL0     H10401   9.020   1.993   9.699  0.5982 -0.5550  0.0971
  818MOL0     H10402   9.197   2.243   9.695  0.9553  0.8298 -0.8731
  818MOL0     H10403   9.138   2.145   9.838  0.4053 -2.3065 -0.9330
  818MOL0     H10404   9.357   2.050   9.640 -1.6617 -2.9067  0.0216
  818MOL0     H10405   9.274   1.956   9.754  1.4429 -1.7093 -1.0146
  818MOL0     H10406   9.327   2.108   9.950 -1.7001  1.7033 -1.6207
  818MOL0     H10407   9.456   2.008   9.873 -2.4454 -2.0048  0.0357
  818MOL0     H10408   9.399   2.311   9.817 -0.6703 -1.5415 -1.3270
  818MOL0     H10409   9.537   2.228   9.760 -0.6236 -1.4288 -0.6415
  818MOL0     H10410   9.608   2.383   9.945  2.2615 -2.1197  1.6724
  818MOL0     H10411   9.636   2.229   9.998 -0.4000 -0.8235  0.8559
  818MOL0     H10412   8.630   1.836   9.684 -2.5704 -0.4765  1.5232
  818MOL0     H10413   8.460   1.713   9.570  0.5009 -1.5961 -0.8631
  818MOL0     H10414   8.288   1.721   9.095 -0.0607  2.7332  0.2382
  818MOL0     H10415   8.128   1.656   8.940 -1.4358  0.2942 -0.2544
  818MOL0     H10416   7.666   2.154   7.132  0.4018  0.9783 -0.2059
  818MOL0     H10417   7.757   2.264   6.936  0.4169 -0.4963  0.5597
  818MOL0     H10418   7.820   2.379   6.572 -0.4528  0.1421  3.4810
  818MOL0     H10419   7.932   2.592   6.499 -2.3249 -1.0593  1.2753
  818MOL0     H10420   8.361   2.639   6.458 -1.6896 -1.0730  1.1047
  818MOL0     H10421   8.245   2.656   6.328  0.4708  0.8847  0.5767
  818MOL0     H10422   8.298   2.870   6.523  0.7942  2.9142 -0.1268
  818MOL0     H10423   8.214   2.892   6.362 -0.1767 -1.8267 -0.1439
  818MOL0     H10424   8.458   2.844   6.255  1.8108  5.2374 -1.2978
  818MOL0     H10425   8.525   2.847   6.415  0.1259 -0.4493 -0.2220
  818MOL0     H10426   8.399   3.088   6.277  0.3059  0.6139 -0.4039
  818MOL0     H10427   8.560   3.044   6.285 -1.0576 -0.2281 -1.3511
  818MOL0     H10428   8.514   3.128   6.706  0.0690  0.4903 -0.1657
  818MOL0     H10429   8.315   2.428   6.604 -0.5312  2.7251  2.8328
  818MOL0     H10430   8.198   2.217   6.678 -2.3826 -2.1672 -1.5830
  819MOL0     O10431   6.142   6.896   4.208  0.6346  0.0228  0.7122
  819MOL0     C10432   6.105   6.858   4.319 -0.8852 -0.0433  0.8249
  819MOL0     O10433   6.182   6.809   4.426  0.6760  0.3127 -0.2489
  819MOL0     C10434   6.314   6.799   4.428 -0.2826 -0.5468  0.1551
  819MOL0     C10435   6.357   6.754   4.555 -0.9342 -0.4909  0.2126
  819MOL0     C10436   6.494   6.732   4.571  0.1157 -0.7688  0.8503
  819MOL0     C10437   6.596   6.760   4.471  0.5356  0.8577  0.0862
  819MOL0     O10438   6.731   6.724   4.479 -0.5872 -0.3056  0.6228
  819MOL0     C10439   6.842   6.815   4.455  0.2617  0.0085 -1.0545
  819MOL0     C10440   6.877   6.822   4.311 -0.1710 -0.2714 -1.1397
  819MOL0     C10441   6.926   6.695   4.248  0.3052 -0.4817  0.7546
  819MOL0     C10442   6.834   6.614   4.169  1.1963 -0.7941  0.7752
  819MOL0     C10443   6.880   6.472   4.130 -0.3487 -1.0831 -0.4929
  819MOL0     C10444   7.008   6.473   4.045  0.2830 -0.8400  0.6054
  819MOL0     C10445   7.044   6.335   3.978  0.4806 -0.8893 -0.3251
  819MOL0     C10446   7.103   6.244   4.078  0.1928 -0.2570  0.9605
  819MOL0     N10447   7.212   6.307   4.161 -0.2581  0.1327 -0.2551
  819MOL0     C10448   7.177   6.347   4.289  0.6522 -0.6753  0.8661
  819MOL0     C10449   7.287   6.425   4.321  0.8523  0.8070  0.1710
  819MOL0     C10450   7.338   6.495   4.444 -0.3760  0.3312 -0.6278
  819MOL0     C10451   7.257   6.622   4.456 -0.2105 -0.2299 -0.8526
  819MOL0     C10452   7.312   6.712   4.564  0.4180  0.6363  0.0738
  819MOL0     C10453   7.342   6.648   4.700 -0.5843 -0.3974 -1.7798
  819MOL0     O10454   7.352   6.745   4.810 -0.1365 -0.2371 -0.4250
  819MOL0     C10455   7.365   6.704   4.945  0.8615  0.2794  0.7888
  819MOL0     C10456   7.406   6.576   4.976  0.4500  0.4749  0.0437
  819MOL0     C10457   7.412   6.533   5.104 -0.0274 -0.9244 -0.5865
  819MOL0     C10458   7.417   6.383   5.129  0.8227  0.3008  0.7356
  819MOL0     C10459   7.412   6.633   5.207 -0.2077  0.9995  0.0383
  819MOL0     C10460   7.418   6.603   5.359  0.1063 -0.2625 -0.0279
  819MOL0     O10461   7.482   6.696   5.425  0.2516 -0.6322  0.0399
  819MOL0     C10462   7.518   6.686   5.559 -0.0777 -0.4866 -0.7784
  819MOL0     C10463   7.517   6.805   5.641  1.3151 -1.0959 -0.1726
  819MOL0     C10464   7.553   6.803   5.778 -0.2478  0.0650  0.9600
  819MOL0     C10465   7.621   6.688   5.825  0.5630 -0.8572  0.0572
  819MOL0     O10466   7.666   6.710   5.949  1.1741 -0.2386 -0.5214
  819MOL0     C10467   7.717   6.603   6.020 -0.0827 -0.4775  1.1722
  819MOL0     C10468   7.869   6.596   6.000 -0.7820 -0.3177  0.5572
  819MOL0     C10469   7.942   6.561   6.130 -0.1681 -0.7088  0.6394
  819MOL0     C10470   7.957   6.407   6.148 -1.0405  0.6341  1.4789
  819MOL0     C10471   8.012   6.370   6.294  0.1246  0.0250  0.2251
  819MOL0     C10472   8.141   6.458   6.322 -0.1688 -0.2063 -0.1890
  819MOL0     C10473   8.182   6.450   6.469 -0.6107 -0.0413  0.8254
  819MOL0     C10474   8.228   6.311   6.505  0.7421  0.3605 -0.0828
  819MOL0    Cl10475   8.370   6.254   6.419  0.4416 -0.4284 -0.0334
  819MOL0     C10476   7.646   6.582   5.737 -0.2247  0.2182  0.0140
  819MOL0     C10477   7.588   6.575   5.615  0.2670  0.2006 -0.4834
  819MOL0     O10478   7.384   6.493   5.410  1.2178  0.5943  0.2911
  819MOL0     C10479   7.376   6.769   5.174 -0.0553 -0.5031  0.5031
  819MOL0     C10480   7.352   6.808   5.047  0.1299  0.7184  0.0462
  819MOL0     N10481   7.377   6.427   4.207  0.7440  0.5359  0.2338
  819MOL0     N10482   7.332   6.356   4.119  0.4839  0.5276 -0.6250
  819MOL0     C10483   6.535   6.787   4.339 -0.4774 -0.2910 -0.3280
  819MOL0     C10484   6.401   6.826   4.320  0.4156  0.3700 -0.3450
  819MOL0     C10485   5.955   6.859   4.338  1.6786  0.5029  1.4030
  819MOL0     C10486   5.869   6.832   4.229  0.1603 -0.7000 -0.0741
  819MOL0     C10487   5.727   6.840   4.239 -0.2386 -0.3162  0.3151
  819MOL0     C10488   5.668   6.881   4.360  0.0983 -0.1016 -0.8458
  819MOL0     O10489   5.535   6.888   4.360  0.6537  0.2506 -0.6155
  819MOL0     C10490   5.465   6.951   4.475  0.5764  0.2423  0.6726
  819MOL0     C10491   5.481   7.108   4.482  0.8062 -0.5678 -0.5080
  819MOL0     C10492   5.465   7.181   4.350  0.2455 -0.4475  0.0566
  819MOL0     C10493   5.495   7.335   4.373 -1.1885  0.0381 -0.3602
  819MOL0     C10494   5.613   7.359   4.451 -0.5450 -0.4643  0.3521
  819MOL0     C10495   5.717   7.379   4.516  0.1349 -0.9997 -0.3248
  819MOL0     C10496   5.755   6.913   4.465  0.3698 -0.2302 -0.1384
  819MOL0     C10497   5.894   6.914   4.450 -0.1267  0.1986 -0.3686
  819MOL0     H10498   6.304   6.751   4.650 -0.3554 -3.0449  0.5257
  819MOL0     H10499   6.541   6.704   4.665  1.9205  0.8850  0.5120
  819MOL0     H10500   6.815   6.915   4.492 -2.1235 -0.7054 -0.7217
  819MOL0     H10501   6.917   6.761   4.513 -1.6694  0.9227  2.6104
  819MOL0     H10502   6.806   6.884   4.255 -0.1129 -0.9903 -2.0242
  819MOL0     H10503   6.964   6.889   4.304  1.3088 -1.3931  3.2341
  819MOL0     H10504   7.011   6.723   4.185 -1.1894  0.5976 -0.8936
  819MOL0     H10505   6.962   6.629   4.327 -0.2853 -1.6968  0.0452
  819MOL0     H10506   6.751   6.616   4.240 -0.2284  5.1276 -0.4603
  819MOL0     H10507   6.802   6.669   4.080 -1.7584 -0.3014  2.0455
  819MOL0     H10508   6.910   6.412   4.217  1.1569 -0.7077 -0.7278
  819MOL0     H10509   6.800   6.425   4.072 -0.4741 -0.2634 -1.0012
  819MOL0     H10510   6.986   6.544   3.964 -1.1765 -1.5435  0.3618
  819MOL0     H10511   7.095   6.520   4.092  1.0189  1.2381 -2.4521
  819MOL0     H10512   6.946   6.310   3.936  0.6477  0.2489 -1.4415
  819MOL0     H10513   7.115   6.350   3.896  1.2456 -1.3212  0.2448
  819MOL0     H10514   7.140   6.165   4.012 -0.3300  1.6666 -1.8006
  819MOL0     H10515   7.024   6.201   4.139 -1.6005 -0.0683 -1.1176
  819MOL0     H10516   7.097   6.322   4.358  1.1506 -0.9846  1.3398
  819MOL0     H10517   7.324   6.436   4.535  2.1478 -0.1555 -0.4847
  819MOL0     H10518   7.441   6.529   4.434  0.0703 -0.9476 -0.5914
  819MOL0     H10519   7.153   6.597   4.479 -0.5343  1.7403  0.0319
  819MOL0     H10520   7.248   6.668   4.357 -0.5528 -2.4747 -1.9283
  819MOL0     H10521   7.244   6.798   4.561 -2.3635 -1.3956  1.0362
  819MOL0     H10522   7.414   6.741   4.537  0.1177  0.0576 -1.8002
  819MOL0     H10523   7.431   6.585   4.704  1.1289  1.9610  0.9916
  819MOL0     H10524   7.261   6.575   4.712 -1.2683  0.6528  0.4576
  819MOL0     H10525   7.415   6.510   4.890 -0.6169 -1.2765  1.2197
  819MOL0     H10526   7.455   6.326   5.043  1.6613  1.6436  0.1838
  819MOL0     H10527   7.475   6.349   5.216 -1.7921 -1.6916  1.8266
  819MOL0     H10528   7.316   6.341   5.135 -0.9924  3.5567 -2.8770
  819MOL0     H10529   7.461   6.883   5.590 -2.5573 -1.9327  2.3768
  819MOL0     H10530   7.551   6.897   5.831 -0.2088  0.5546  0.1020
  819MOL0     H10531   7.696   6.628   6.124  0.5705 -1.3082  1.5272
  819MOL0     H10532   7.676   6.502   6.007 -1.4275  0.0434  1.2015
  819MOL0     H10533   7.903   6.535   5.916 -0.4338  0.2034  0.3144
  819MOL0     H10534   7.902   6.697   5.975  0.5014 -0.7127  0.5798
  819MOL0     H10535   7.886   6.612   6.209  0.5910  0.6420  0.3330
  819MOL0     H10536   8.039   6.608   6.113 -0.2197 -1.1793 -1.1381
  819MOL0     H10537   7.862   6.356   6.133 -1.2427  1.8591 -2.4396
  819MOL0     H10538   8.024   6.369   6.071 -3.0555  0.3533 -0.2185
  819MOL0     H10539   8.032   6.263   6.302 -0.1054 -0.1667 -1.4617
  819MOL0     H10540   7.932   6.396   6.365  1.0342  1.7276  0.6906
  819MOL0     H10541   8.223   6.426   6.257  2.1943 -2.8094  3.6276
  819MOL0     H10542   8.134   6.565   6.299  1.0566 -0.2085 -0.6355
  819MOL0     H10543   8.090   6.475   6.523 -1.7510 -0.9072 -0.6511
  819MOL0     H10544   8.262   6.522   6.495  0.9880 -1.2894 -0.4345
  819MOL0     H10545   8.148   6.238   6.494 -0.1335  1.1532  0.8252
  819MOL0     H10546   8.266   6.315   6.608  2.8221  0.5982 -0.8075
  819MOL0     H10547   7.703   6.496   5.772  0.8525  1.6256  1.9336
  819MOL0     H10548   7.608   6.476   5.575 -1.1247 -1.4457  2.5102
  819MOL0     H10549   7.376   6.853   5.243  2.5576 -0.8359  0.9976
  819MOL0     H10550   7.317   6.904   5.010  2.7395  1.7910  0.1229
  819MOL0     H10551   6.600   6.778   4.252 -1.2344 -0.3741 -0.8949
  819MOL0     H10552   6.376   6.869   4.224 -3.1140  1.0155  0.7093
  819MOL0     H10553   5.910   6.779   4.143  1.3361 -3.3371  1.9379
  819MOL0     H10554   5.661   6.793   4.167  2.0200 -1.7199 -0.9646
  819MOL0     H10555   5.359   6.928   4.461  1.3910 -2.9688 -1.2511
  819MOL0     H10556   5.497   6.904   4.568 -1.0817 -2.5519 -0.0487
  819MOL0     H10557   5.572   7.134   4.536 -1.5046  3.1009  2.1210
  819MOL0     H10558   5.400   7.156   4.539  0.1584  1.5579 -2.9951
  819MOL0     H10559   5.367   7.167   4.303 -0.6198 -2.6366  2.2906
  819MOL0     H10560   5.534   7.139   4.277  0.1785 -0.1164 -0.1971
  819MOL0     H10561   5.414   7.401   4.407  1.0976  1.7651  2.0905
  819MOL0     H10562   5.532   7.373   4.277  1.9378 -0.2602  0.6219
  819MOL0     H10563   5.798   7.385   4.586  2.0817 -3.4867 -2.1755
  819MOL0     H10564   5.705   6.952   4.553  1.5885 -0.4454  0.6777
  819MOL0     H10565   5.968   6.931   4.527 -3.0444  2.1621  2.2204
  820MOL0     O10566   0.187   1.774  10.492 -0.2843  0.3945 -0.0677
  820MOL0     C10567   0.155   1.868  10.563 -0.2371 -0.2981  0.2959
  820MOL0     O10568   0.034   1.910  10.597  0.8235 -0.0633 -0.1548
  820MOL0     C10569  -0.075   1.839  10.558 -0.4230 -0.1384 -1.4705
  820MOL0     C10570  -0.159   1.875  10.454  0.9790 -0.0790 -0.7294
  820MOL0     C10571  -0.285   1.820  10.441  0.9992  0.2272  0.4896
  820MOL0     C10572  -0.330   1.715  10.523  0.7820  0.2806 -0.2390
  820MOL0     O10573  -0.452   1.653  10.499 -0.2378 -0.2576  0.6355
  820MOL0     C10574  -0.556   1.741  10.560  0.6687 -0.2046 -0.4669
  820MOL0     C10575  -0.659   1.670  10.651 -0.6654  0.8447 -1.0551
  820MOL0     C10576  -0.784   1.626  10.572  0.6873  1.3412  0.1079
  820MOL0     C10577  -0.759   1.532  10.454  0.5116  0.1836 -0.9541
  820MOL0     C10578  -0.727   1.394  10.501  0.9421 -0.2652 -1.1594
  820MOL0     C10579  -0.706   1.296  10.371 -0.2901 -0.7837 -1.1682
  820MOL0     C10580  -0.715   1.148  10.395 -0.7457 -0.1166 -0.0820
  820MOL0     C10581  -0.857   1.101  10.433 -0.3782  0.6421  0.5143
  820MOL0     N10582  -0.966   1.163  10.350 -0.6387 -0.5616 -1.2920
  820MOL0     C10583  -1.007   1.137  10.227 -0.3158 -0.5627  0.0296
  820MOL0     C10584  -1.098   1.226  10.195  0.9244 -0.0134  0.4131
  820MOL0     C10585  -1.176   1.246  10.065  0.3205  0.1890 -0.2599
  820MOL0     C10586  -1.094   1.313   9.945  0.3589  0.2256 -0.3876
  820MOL0     C10587  -0.970   1.236   9.917  1.9355 -0.0573 -0.5587
  820MOL0     C10588  -1.007   1.096   9.851 -0.3351  0.7788  0.7770
  820MOL0     O10589  -0.904   1.067   9.756  0.0476  0.0790  0.2086
  820MOL0     C10590  -0.920   0.955   9.678  0.6352 -0.6461 -0.9318
  820MOL0     C10591  -0.997   0.844   9.704  0.6340  0.7253  1.2418
  820MOL0     C10592  -1.028   0.748   9.601  0.1965 -0.3049  0.6050
  820MOL0     C10593  -1.110   0.619   9.630  0.0598 -0.0351  0.0219
  820MOL0     C10594  -0.966   0.768   9.477 -0.5685  0.0497  1.0706
  820MOL0     C10595  -0.973   0.669   9.364  0.1019 -0.1388 -0.5369
  820MOL0     O10596  -0.931   0.727   9.240 -0.4049  0.2560 -1.2350
  820MOL0     C10597  -0.963   0.652   9.131  0.6285  0.3169  0.8777
  820MOL0     C10598  -1.051   0.706   9.036  0.3873  0.4706  0.6685
  820MOL0     C10599  -1.085   0.631   8.920 -0.1845 -0.0181 -0.1862
  820MOL0     C10600  -1.023   0.510   8.891 -1.3389  0.6696  0.7988
  820MOL0     O10601  -1.055   0.423   8.792 -0.2547  0.3239 -0.3530
  820MOL0     C10602  -1.191   0.407   8.756  0.6846 -0.3452 -1.0077
  820MOL0     C10603  -1.215   0.305   8.646 -1.1725  0.0074  0.6825
  820MOL0     C10604  -1.333   0.313   8.552  0.5923 -0.0811 -0.1586
  820MOL0     C10605  -1.308   0.219   8.429 -0.3263 -0.9043  0.3805
  820MOL0     C10606  -1.432   0.198   8.351  0.6989  0.4716  0.4705
  820MOL0     C10607  -1.406   0.141   8.210  0.9160 -0.3949 -0.3012
  820MOL0     C10608  -1.395   0.253   8.095  0.4026  0.2903  0.1413
  820MOL0     C10609  -1.399   0.178   7.965  0.7726  0.4707 -0.0227
  820MOL0    Cl10610  -1.323   0.285   7.842  0.2201 -0.3857  0.5757
  820MOL0     C10611  -0.930   0.455   8.984  0.3398 -0.4683  0.1594
  820MOL0     C10612  -0.910   0.531   9.104 -0.4578  0.0594 -0.7249
  820MOL0     O10613  -0.995   0.552   9.380  0.1030 -0.2895  0.5276
  820MOL0     C10614  -0.888   0.892   9.460  0.9798  0.5205  1.2557
  820MOL0     C10615  -0.868   0.978   9.558 -0.9365  0.6410 -0.6447
  820MOL0     N10616  -1.125   1.300  10.308 -0.0376  0.6726 -0.5607
  820MOL0     N10617  -1.034   1.274  10.397  0.5170 -0.4189 -0.3458
  820MOL0     C10618  -0.246   1.669  10.617  0.2897 -0.5716  0.0139
  820MOL0     C10619  -0.119   1.734  10.641  0.1173  0.7100  0.1586
  820MOL0     C10620   0.274   1.954  10.602  0.2413  0.2214 -0.3824
  820MOL0     C10621   0.271   2.055  10.696  0.1113  0.3185 -0.0050
  820MOL0     C10622   0.382   2.139  10.705 -0.5509  0.8567  0.0929
  820MOL0     C10623   0.494   2.123  10.626 -0.8020 -1.1517 -0.1342
  820MOL0     O10624   0.615   2.205  10.619 -0.6311  0.5665 -0.3001
  820MOL0     C10625   0.625   2.306  10.718 -0.0476 -0.6829 -0.6512
  820MOL0     C10626   0.566   2.438  10.659 -0.8085 -0.7390  0.2033
  820MOL0     C10627   0.613   2.542  10.756 -0.5550 -0.3880  0.6606
  820MOL0     C10628   0.572   2.679  10.703  0.5886  0.0421  0.1086
  820MOL0     C10629   0.600   2.783  10.795 -0.8955  0.2209 -0.8257
  820MOL0     C10630   0.592   2.884  10.875 -0.9538  0.0914 -0.3281
  820MOL0     C10631   0.498   2.029  10.527  0.1855  0.5479 -0.7924
  820MOL0     C10632   0.390   1.938  10.523  0.0278 -0.4171  0.1145
  820MOL0     H10633  -0.113   1.952  10.393  3.0104 -0.3963  0.3273
  820MOL0     H10634  -0.343   1.852  10.355  3.0121 -1.2682 -1.5305
  820MOL0     H10635  -0.513   1.811  10.633 -0.9099 -2.3806  2.8051
  820MOL0     H10636  -0.614   1.778  10.476 -0.9394 -0.1922  0.6152
  820MOL0     H10637  -0.618   1.581  10.699 -0.6803  1.8165  0.8540
  820MOL0     H10638  -0.680   1.741  10.732  3.7641  2.4967 -1.0622
  820MOL0     H10639  -0.854   1.580  10.642  1.3732  0.9479  0.5506
  820MOL0     H10640  -0.839   1.715  10.541 -2.1677  0.5330  2.3981
  820MOL0     H10641  -0.854   1.526  10.400  1.8131 -2.4472 -3.2009
  820MOL0     H10642  -0.696   1.578  10.378 -1.4693  3.4350 -0.8357
  820MOL0     H10643  -0.640   1.383  10.566 -0.4339  0.1577  0.8223
  820MOL0     H10644  -0.807   1.355  10.564  3.4339 -0.4466  2.1338
  820MOL0     H10645  -0.781   1.318  10.296 -2.2684 -1.9933  0.3678
  820MOL0     H10646  -0.604   1.315  10.334  0.1152 -2.0887 -0.7663
  820MOL0     H10647  -0.688   1.085  10.310  0.7026 -0.2676  0.4680
  820MOL0     H10648  -0.656   1.114  10.481 -4.1438 -0.3401  2.3706
  820MOL0     H10649  -0.884   1.117  10.537 -3.0917 -1.4837  0.2348
  820MOL0     H10650  -0.874   0.993  10.423 -3.2081  0.7102  3.0938
  820MOL0     H10651  -0.953   1.063  10.169 -0.4248 -1.1271  0.6410
  820MOL0     H10652  -1.218   1.157  10.017  0.1344 -0.3694  0.8968
  820MOL0     H10653  -1.263   1.309  10.090 -0.1933  0.6359 -2.9076
  820MOL0     H10654  -1.058   1.412   9.975  3.6537 -1.2525  1.0658
  820MOL0     H10655  -1.165   1.307   9.862 -0.5596 -0.7239  0.4337
  820MOL0     H10656  -0.905   1.220  10.004  0.9032 -0.3737  0.1782
  820MOL0     H10657  -0.910   1.303   9.853 -0.1216  1.8198 -0.6485
  820MOL0     H10658  -1.098   1.090   9.791  1.3076 -2.7977 -1.6988
  820MOL0     H10659  -1.011   1.016   9.925  0.8502 -2.2988 -2.2361
  820MOL0     H10660  -1.046   0.836   9.800 -0.1021 -1.0490  0.7618
  820MOL0     H10661  -1.163   0.595   9.537  3.2189  0.5405 -2.0907
  820MOL0     H10662  -1.043   0.541   9.667 -1.3523 -1.0356  0.5677
  820MOL0     H10663  -1.174   0.651   9.713  0.5069  1.7754 -0.2745
  820MOL0     H10664  -1.096   0.803   9.052 -0.1806  0.0693  1.5837
  820MOL0     H10665  -1.158   0.674   8.853  1.9286  2.8371 -0.8316
  820MOL0     H10666  -1.258   0.366   8.833 -0.3671  1.8023 -0.6949
  820MOL0     H10667  -1.226   0.503   8.717  0.5260 -1.6482 -4.4435
  820MOL0     H10668  -1.119   0.302   8.594  0.7334 -1.0987  4.0085
  820MOL0     H10669  -1.218   0.212   8.703  0.4983  0.6569  1.8884
  820MOL0     H10670  -1.356   0.414   8.514 -0.0492 -0.7749 -1.7199
  820MOL0     H10671  -1.422   0.282   8.607  0.9076 -0.0061  0.4030
  820MOL0     H10672  -1.221   0.258   8.375  2.1404 -3.4460  2.2050
  820MOL0     H10673  -1.268   0.129   8.476  1.0770 -0.5988 -0.1704
  820MOL0     H10674  -1.479   0.297   8.340 -0.3822 -0.1930 -1.2772
  820MOL0     H10675  -1.484   0.128   8.415  1.8774  2.0732  3.3716
  820MOL0     H10676  -1.317   0.078   8.218  0.3273 -0.9894  2.2510
  820MOL0     H10677  -1.483   0.066   8.187  1.5768 -1.2192  0.1226
  820MOL0     H10678  -1.306   0.316   8.107  2.3240 -2.5304  1.7976
  820MOL0     H10679  -1.475   0.327   8.085  2.7187  3.1486  1.4081
  820MOL0     H10680  -1.498   0.141   7.937  0.4843  1.1590  0.0806
  820MOL0     H10681  -1.335   0.089   7.974  1.2373  0.3185 -3.2673
  820MOL0     H10682  -0.866   0.369   8.968  1.6818  0.9202 -2.5761
  820MOL0     H10683  -0.837   0.482   9.168  1.8032  1.0218 -2.4274
  820MOL0     H10684  -0.848   0.918   9.362  2.0817 -1.4205  1.1297
  820MOL0     H10685  -0.809   1.068   9.544 -1.5016  2.1879  4.5589
  820MOL0     H10686  -0.279   1.594  10.688 -0.8623  0.7323  0.9189
  820MOL0     H10687  -0.056   1.699  10.723 -0.7571 -0.0723  0.5202
  820MOL0     H10688   0.182   2.071  10.757 -0.4237 -0.1197 -0.6573
  820MOL0     H10689   0.385   2.202  10.793  0.7750  0.0833  0.6403
  820MOL0     H10690   0.584   2.271  10.813 -2.3545 -2.2911 -2.1358
  820MOL0     H10691   0.731   2.317  10.745 -1.4598  1.1860  6.1048
  820MOL0     H10692   0.456   2.437  10.662 -0.8810 -1.8488 -1.5473
  820MOL0     H10693   0.599   2.466  10.559  2.0364  2.3556  1.8178
  820MOL0     H10694   0.722   2.556  10.750 -0.6690 -0.0912 -1.2927
  820MOL0     H10695   0.564   2.536  10.854 -1.1090  0.5277  0.4530
  820MOL0     H10696   0.465   2.679  10.681  0.4019  1.2547  0.8740
  820MOL0     H10697   0.614   2.709  10.607 -0.1288 -4.6574 -1.9394
  820MOL0     H10698   0.578   2.960  10.949  0.8024 -1.8484  2.1640
  820MOL0     H10699   0.594   2.017  10.479  0.7967 -0.1523  0.5417
  820MOL0     H10700   0.400   1.859  10.449 -1.4259 -1.2084  0.7255
  821MOL0     O10701   1.202  11.331   2.863 -0.3009 -0.0387  0.1786
  821MOL0     C10702   1.125  11.238   2.844 -0.2135 -0.6230 -0.8723
  821MOL0     O10703   1.064  11.154   2.945 -0.1137 -0.3133 -0.1567
  821MOL0     C10704   1.129  11.135   3.066 -0.0809  0.5740  0.0903
  821MOL0     C10705   1.250  11.056   3.054  0.2491  0.2980 -0.9349
  821MOL0     C10706   1.320  11.034   3.177  0.7492 -0.5596  0.2398
  821MOL0     C10707   1.265  11.071   3.294 -0.4305  0.1077 -0.7957
  821MOL0     O10708   1.342  11.023   3.399  0.8486 -0.1703 -0.2121
  821MOL0     C10709   1.349  11.108   3.518  0.8824  0.4264  0.4063
  821MOL0     C10710   1.294  11.041   3.641 -0.0026  0.1446  0.5426
  821MOL0     C10711   1.150  11.074   3.687 -0.0022 -0.1841 -0.2582
  821MOL0     C10712   1.141  11.188   3.783 -0.8418 -0.2485  0.0966
  821MOL0     C10713   1.004  11.209   3.837 -0.5161  0.7168 -0.3720
  821MOL0     C10714   1.018  11.321   3.941  0.7363  0.6891 -1.3943
  821MOL0     C10715   0.886  11.320   4.032 -0.6272 -0.5422  0.3185
  821MOL0     C10716   0.876  11.443   4.129  1.1057 -0.5642  0.5041
  821MOL0     N10717   0.755  11.454   4.217 -0.4100 -0.2493 -0.8937
  821MOL0     C10718   0.680  11.357   4.280  0.7770 -0.0130 -1.0102
  821MOL0     C10719   0.574  11.425   4.328 -0.5295 -0.2461 -0.4174
  821MOL0     C10720   0.450  11.377   4.388  0.8205 -0.0171  0.3957
  821MOL0     C10721   0.334  11.469   4.350 -0.3243 -0.3603  0.0674
  821MOL0     C10722   0.202  11.398   4.350  0.0884  0.1119  0.4719
  821MOL0     C10723   0.154  11.357   4.497  0.3678 -0.4148 -0.5411
  821MOL0     O10724   0.239  11.274   4.580 -0.6272 -0.0783  0.1361
  821MOL0     C10725   0.181  11.223   4.689  0.7902  0.7478 -0.1100
  821MOL0     C10726   0.240  11.107   4.737  0.2832  0.0553 -1.3344
  821MOL0     C10727   0.201  11.042   4.860  0.3336 -0.0446  0.0745
  821MOL0     C10728   0.295  10.941   4.905  0.4141  0.3635 -0.4753
  821MOL0     C10729   0.079  11.074   4.920  0.5589 -0.2333 -0.5267
  821MOL0     C10730   0.018  11.003   5.047 -0.6047 -0.3749  0.2883
  821MOL0     O10731  -0.056  11.074   5.139 -0.1212  0.8587  0.3607
  821MOL0     C10732  -0.154  11.003   5.201  0.1159 -0.1033  0.4153
  821MOL0     C10733  -0.289  11.050   5.180 -0.8612  0.1798  0.5088
  821MOL0     C10734  -0.395  10.974   5.230  0.2004  0.4259 -0.7512
  821MOL0     C10735  -0.373  10.866   5.321 -0.7785  0.8800 -1.4815
  821MOL0     O10736  -0.478  10.802   5.374  0.4455 -1.2107 -0.4080
  821MOL0     C10737  -0.496  10.666   5.326  0.3989 -0.1425  0.1338
  821MOL0     C10738  -0.637  10.608   5.343  0.5947 -0.5366  0.0967
  821MOL0     C10739  -0.665  10.612   5.496  0.0095  0.2724 -1.4120
  821MOL0     C10740  -0.738  10.481   5.555  0.5691  0.0895  1.2641
  821MOL0     C10741  -0.771  10.505   5.700  0.2642  0.3207 -0.5138
  821MOL0     C10742  -0.832  10.365   5.740 -0.3515 -0.7797  0.2582
  821MOL0     C10743  -0.891  10.368   5.876 -0.1766 -0.9829  0.1065
  821MOL0     C10744  -1.024  10.286   5.888 -0.3526  0.5855 -0.0946
  821MOL0    Cl10745  -1.075  10.307   6.064  0.0900  0.0446  0.2549
  821MOL0     C10746  -0.238  10.823   5.342 -1.0400  1.1893  1.6745
  821MOL0     C10747  -0.127  10.903   5.296  0.3269  0.3114  0.4853
  821MOL0     O10748   0.043  10.888   5.061 -0.2140 -0.5094  0.1207
  821MOL0     C10749   0.027  11.199   4.879  0.7864 -0.4482 -0.6637
  821MOL0     C10750   0.082  11.279   4.771  0.6542  0.0235 -1.0990
  821MOL0     N10751   0.590  11.556   4.294 -0.5520  0.2779  0.0013
  821MOL0     N10752   0.701  11.585   4.236 -0.3139  1.3549 -0.4136
  821MOL0     C10753   1.139  11.141   3.300 -1.1288 -0.6970 -0.5495
  821MOL0     C10754   1.079  11.179   3.184 -0.2524  0.1373 -0.7547
  821MOL0     C10755   1.055  11.236   2.717  0.2169  0.7258  0.3883
  821MOL0     C10756   1.130  11.276   2.601  1.0657  0.9105 -0.5416
  821MOL0     C10757   1.067  11.259   2.471 -0.3988  0.2245  0.6779
  821MOL0     C10758   0.929  11.223   2.457 -0.5657  0.5699  0.7292
  821MOL0     O10759   0.888  11.223   2.322 -0.1774 -0.1513  0.5468
  821MOL0     C10760   0.749  11.221   2.303 -0.2544 -1.2559 -0.1943
  821MOL0     C10761   0.730  11.226   2.153 -0.9787  0.2635  0.1908
  821MOL0     C10762   0.582  11.238   2.120  0.6116  0.1023 -0.2334
  821MOL0     C10763   0.552  11.198   1.978  0.0568  0.1568  1.2583
  821MOL0     C10764   0.575  11.056   1.944  0.4677 -1.4460  0.7368
  821MOL0     C10765   0.578  10.939   1.914 -0.0462  0.3515  0.4744
  821MOL0     C10766   0.849  11.201   2.578 -0.5667  0.5254  0.4744
  821MOL0     C10767   0.922  11.197   2.702 -0.2384  0.4659  0.3099
  821MOL0     H10768   1.281  11.005   2.964  2.6548 -2.6889  1.3791
  821MOL0     H10769   1.412  10.976   3.184  0.6233 -0.6010  2.1447
  821MOL0     H10770   1.456  11.121   3.538  1.0007  0.8594 -0.4540
  821MOL0     H10771   1.310  11.208   3.499 -2.1924 -1.0284 -2.0472
  821MOL0     H10772   1.303  10.933   3.623 -3.1471 -0.0700 -0.2511
  821MOL0     H10773   1.361  11.065   3.725 -1.0676  0.3544  1.3562
  821MOL0     H10774   1.089  11.095   3.599 -0.4686 -2.4995 -0.5480
  821MOL0     H10775   1.116  10.978   3.727  0.1904 -0.8557 -1.6543
  821MOL0     H10776   1.213  11.166   3.863 -1.2182 -1.0404  0.2217
  821MOL0     H10777   1.179  11.283   3.743 -0.2885 -0.9959 -1.2112
  821MOL0     H10778   0.936  11.240   3.757  0.1631  1.2843 -0.7381
  821MOL0     H10779   0.958  11.126   3.892  0.3270  1.0100  0.7979
  821MOL0     H10780   1.105  11.310   4.005  0.6934  0.2980 -1.3974
  821MOL0     H10781   1.028  11.417   3.891  1.8020  0.9902 -0.6308
  821MOL0     H10782   0.797  11.316   3.970  0.7260  1.5801 -1.9563
  821MOL0     H10783   0.886  11.237   4.103  0.1476  1.1472  2.4125
  821MOL0     H10784   0.888  11.538   4.076 -1.0079 -0.0677  0.8024
  821MOL0     H10785   0.964  11.428   4.192  1.7515 -2.0179 -0.6909
  821MOL0     H10786   0.693  11.251   4.300 -0.0387 -0.1407 -1.1327
  821MOL0     H10787   0.443  11.276   4.348 -0.3573  0.1038  0.2868
  821MOL0     H10788   0.452  11.379   4.497 -3.3668  1.4948  0.5979
  821MOL0     H10789   0.354  11.511   4.251 -1.4826 -3.8728 -1.8285
  821MOL0     H10790   0.334  11.559   4.413 -0.0728  0.8621 -1.6148
  821MOL0     H10791   0.209  11.308   4.288 -0.1218 -0.5290  1.3663
  821MOL0     H10792   0.131  11.465   4.301  2.3990  1.2504 -1.5933
  821MOL0     H10793   0.066  11.293   4.485 -2.2935  2.6868  0.7866
  821MOL0     H10794   0.119  11.453   4.538 -1.7154 -0.4640 -2.0116
  821MOL0     H10795   0.321  11.064   4.678 -0.3889 -0.2164 -2.0727
  821MOL0     H10796   0.392  10.939   4.855 -0.0186  0.4072 -1.3277
  821MOL0     H10797   0.305  10.943   5.014  2.6149  2.3161 -0.6395
  821MOL0     H10798   0.257  10.842   4.876 -1.6715  0.8205  0.5018
  821MOL0     H10799  -0.316  11.124   5.105 -1.5370 -1.6270 -1.1243
  821MOL0     H10800  -0.495  11.005   5.200 -1.4392 -2.1527  1.5718
  821MOL0     H10801  -0.477  10.672   5.218  0.4105  1.9064  0.1986
  821MOL0     H10802  -0.423  10.605   5.380  0.3678  0.5716  1.0078
  821MOL0     H10803  -0.708  10.662   5.280  2.2895 -1.1788 -2.5559
  821MOL0     H10804  -0.635  10.506   5.303  0.3987 -0.7398  0.6061
  821MOL0     H10805  -0.738  10.693   5.499  1.1730  1.3116  0.2121
  821MOL0     H10806  -0.579  10.644   5.555 -0.1048 -1.1540 -0.4242
  821MOL0     H10807  -0.831  10.466   5.499 -1.3221 -1.6654  4.5550
  821MOL0     H10808  -0.659  10.407   5.539  1.0758  0.7466  0.6187
  821MOL0     H10809  -0.841  10.588   5.708  1.1682  0.9797  1.0829
  821MOL0     H10810  -0.688  10.525   5.769 -0.2542  1.9595 -0.3160
  821MOL0     H10811  -0.912  10.347   5.668  0.8945 -0.4189 -1.2843
  821MOL0     H10812  -0.757  10.285   5.735 -2.1957 -2.5038 -2.7610
  821MOL0     H10813  -0.904  10.470   5.912  3.9054 -0.1605 -0.2256
  821MOL0     H10814  -0.812  10.330   5.940  0.9473 -0.2185 -0.7782
  821MOL0     H10815  -1.015  10.185   5.846 -2.1148  1.4451 -2.8254
  821MOL0     H10816  -1.105  10.327   5.826 -1.3853 -1.1124  0.0603
  821MOL0     H10817  -0.225  10.735   5.404  0.6526 -0.0569 -0.3561
  821MOL0     H10818  -0.024  10.875   5.312  0.4902 -1.0401 -2.2851
  821MOL0     H10819  -0.053  11.246   4.934  0.4473 -1.2740 -0.4413
  821MOL0     H10820   0.042  11.377   4.748  1.1448  0.0660 -1.8141
  821MOL0     H10821   1.077  11.157   3.388 -0.9398 -1.6204 -0.2376
  821MOL0     H10822   0.991  11.243   3.188 -1.4242 -1.3478 -1.6112
  821MOL0     H10823   1.231  11.314   2.610  1.4284 -0.2038  0.4113
  821MOL0     H10824   1.112  11.299   2.381  2.3080  0.6885  2.1445
  821MOL0     H10825   0.701  11.132   2.345  1.0168 -2.1584 -0.6024
  821MOL0     H10826   0.703  11.311   2.346  4.1186  0.6940  1.0606
  821MOL0     H10827   0.788  11.140   2.117 -0.9118  1.4267 -2.7669
  821MOL0     H10828   0.778  11.311   2.103 -1.9278 -0.5258 -2.2239
  821MOL0     H10829   0.536  11.337   2.130 -0.5325 -0.2373 -1.7470
  821MOL0     H10830   0.524  11.174   2.188  0.8911 -0.5535 -0.5974
  821MOL0     H10831   0.616  11.253   1.909  1.0308 -0.7166  1.4389
  821MOL0     H10832   0.451  11.229   1.951  1.0534  2.7117  0.1708
  821MOL0     H10833   0.575  10.832   1.901 -1.4455  0.5886 -1.6316
  821MOL0     H10834   0.744  11.174   2.581 -1.1764  2.6272 -0.0972
  821MOL0     H10835   0.859  11.165   2.785 -0.2386  2.1367  1.0036
  822MOL0     O10836   2.982   3.037   0.828  1.2038 -0.0950  0.6469
  822MOL0     C10837   2.965   2.915   0.836  0.5237 -0.5455  0.8200
  822MOL0     O10838   2.982   2.832   0.726 -0.5067 -0.2640 -0.0011
  822MOL0     C10839   3.107   2.790   0.680  0.2253  0.3873 -0.3968
  822MOL0     C10840   3.232   2.833   0.740  0.1271  0.1675  1.5740
  822MOL0     C10841   3.353   2.767   0.706 -0.5445 -0.1572  0.4696
  822MOL0     C10842   3.344   2.645   0.635 -0.1107 -0.2569  0.7385
  822MOL0     O10843   3.452   2.565   0.603 -0.1816  0.2829  0.2355
  822MOL0     C10844   3.585   2.620   0.613 -0.2028 -0.8304 -0.6197
  822MOL0     C10845   3.675   2.533   0.523  0.0842 -0.5111  0.2086
  822MOL0     C10846   3.631   2.535   0.380  0.8662 -0.4275 -0.1644
  822MOL0     C10847   3.724   2.453   0.292  0.2681 -0.3467  0.6658
  822MOL0     C10848   3.680   2.474   0.148 -0.4260  0.0112  0.0216
  822MOL0     C10849   3.722   2.610   0.089 -0.1584  0.3316  0.5017
  822MOL0     C10850   3.866   2.651   0.100 -0.3228  0.7661  0.5913
  822MOL0     C10851   3.963   2.550   0.036 -0.2763  0.1255 -0.6277
  822MOL0     N10852   4.101   2.601   0.001  0.7696  0.6989  0.2184
  822MOL0     C10853   4.200   2.634   0.096  0.4827  0.2253  1.5170
  822MOL0     C10854   4.299   2.658   0.009  0.0761  0.6168  0.0363
  822MOL0     C10855   4.435   2.715   0.038 -0.1098  0.7737  0.9899
  822MOL0     C10856   4.546   2.605   0.055  1.2182  0.2695 -0.7261
  822MOL0     C10857   4.694   2.664   0.032 -0.4490  0.5839 -0.0754
  822MOL0     C10858   4.744   2.689   0.168 -0.3581  0.3604 -0.8432
  822MOL0     O10859   4.666   2.773   0.248  0.0351  0.3642  0.3969
  822MOL0     C10860   4.665   2.754   0.386  0.5714 -0.1902 -0.0860
  822MOL0     C10861   4.572   2.675   0.447 -0.2027  0.5228 -0.7425
  822MOL0     C10862   4.559   2.686   0.586  0.7187  0.2377  0.5867
  822MOL0     C10863   4.439   2.603   0.642  0.1362 -0.3109 -0.1373
  822MOL0     C10864   4.634   2.765   0.663  0.0561  0.0054  0.4364
  822MOL0     C10865   4.614   2.794   0.811  0.2006  0.5601 -0.7974
  822MOL0     O10866   4.701   2.886   0.868 -1.2390 -0.3233  0.1266
  822MOL0     C10867   4.694   2.952   0.984  0.9620 -0.0946 -1.0449
  822MOL0     C10868   4.749   3.079   0.982 -0.0826 -0.2167 -0.3704
  822MOL0     C10869   4.733   3.159   1.101  0.6078  0.3145  0.1937
  822MOL0     C10870   4.674   3.120   1.216 -0.3556  0.9924  0.0009
  822MOL0     O10871   4.685   3.200   1.326 -0.1692  0.4508 -0.2743
  822MOL0     C10872   4.697   3.123   1.448  0.5107 -0.2237  0.1909
  822MOL0     C10873   4.732   3.225   1.555  0.2483 -0.0412  0.2671
  822MOL0     C10874   4.782   3.157   1.676  0.3172 -0.6112  0.8057
  822MOL0     C10875   4.934   3.171   1.695  0.3016 -0.3100 -0.6468
  822MOL0     C10876   4.968   3.076   1.812  0.1697 -0.3343  0.0837
  822MOL0     C10877   4.952   3.141   1.950  0.2065 -0.2987  0.6663
  822MOL0     C10878   4.989   3.045   2.066  0.1821 -0.7330 -0.1761
  822MOL0     C10879   4.993   3.128   2.190  0.5208  0.3693 -0.1310
  822MOL0    Cl10880   5.068   3.042   2.324  0.4084 -0.2951 -0.2549
  822MOL0     C10881   4.634   2.990   1.216  0.3995  0.2192 -0.3354
  822MOL0     C10882   4.637   2.904   1.107  0.5253  0.0878 -1.5705
  822MOL0     O10883   4.516   2.755   0.865 -0.4681 -0.2770 -0.3275
  822MOL0     C10884   4.735   2.841   0.598  0.1372 -0.4992 -0.0160
  822MOL0     C10885   4.749   2.834   0.462 -0.7979  0.6422 -0.2677
  822MOL0     N10886   4.265   2.646  -0.121  0.6695  0.5882 -0.1704
  822MOL0     N10887   4.146   2.590  -0.126 -0.1895  0.0574 -0.6162
  822MOL0     C10888   3.222   2.607   0.575 -0.3353  0.2107  0.4123
  822MOL0     C10889   3.107   2.684   0.595  0.3845 -0.0205  0.6493
  822MOL0     C10890   2.921   2.855   0.963 -0.0470 -0.3048 -0.1435
  822MOL0     C10891   2.890   2.934   1.080  0.0564 -0.3382  1.7306
  822MOL0     C10892   2.865   2.883   1.205 -0.3240 -0.2777 -0.0732
  822MOL0     C10893   2.858   2.740   1.219  0.8695 -0.3854  0.2662
  822MOL0     O10894   2.850   2.669   1.337 -0.8993 -0.4287  0.3594
  822MOL0     C10895   2.769   2.720   1.439 -0.1463 -1.1137  0.1303
  822MOL0     C10896   2.685   2.611   1.512 -0.6045  0.1961  0.0172
  822MOL0     C10897   2.766   2.513   1.598 -0.2442  0.9317 -0.1651
  822MOL0     C10898   2.692   2.384   1.615  0.1039  0.1644 -0.3318
  822MOL0     C10899   2.558   2.397   1.679 -0.1001  0.2974 -0.4929
  822MOL0     C10900   2.455   2.417   1.733 -0.9355 -0.1384 -0.5012
  822MOL0     C10901   2.874   2.660   1.105 -0.2616  0.4506 -0.8696
  822MOL0     C10902   2.902   2.721   0.982  0.5952  0.4682  0.0462
  822MOL0     H10903   3.233   2.922   0.803  1.1553  1.6052 -0.3781
  822MOL0     H10904   3.451   2.798   0.742  0.6453 -1.0735 -1.7676
  822MOL0     H10905   3.588   2.728   0.593  3.0665 -0.3796  1.4965
  822MOL0     H10906   3.620   2.620   0.716  1.3006  2.4105 -0.9905
  822MOL0     H10907   3.772   2.576   0.546  0.5068 -2.3845  2.2465
  822MOL0     H10908   3.688   2.429   0.553  1.3807 -0.6155 -0.6864
  822MOL0     H10909   3.530   2.494   0.380  1.2541 -1.4230 -1.0123
  822MOL0     H10910   3.636   2.640   0.352  2.5118  0.2478  2.3250
  822MOL0     H10911   3.830   2.476   0.303  0.3595 -0.7964  0.7383
  822MOL0     H10912   3.703   2.349   0.319 -1.5875 -0.2473 -0.2127
  822MOL0     H10913   3.727   2.394   0.091  2.9120  0.9085  1.2764
  822MOL0     H10914   3.572   2.469   0.134 -0.5021 -0.8343  0.8647
  822MOL0     H10915   3.687   2.616  -0.014  2.2053  0.5844 -0.3274
  822MOL0     H10916   3.677   2.692   0.146  1.7356  2.0076 -0.3111
  822MOL0     H10917   3.873   2.745   0.045 -1.7852 -0.7639 -2.5239
  822MOL0     H10918   3.907   2.665   0.200  3.6573 -0.8244 -0.6004
  822MOL0     H10919   3.918   2.511  -0.055  1.4364 -0.9079 -1.0785
  822MOL0     H10920   3.979   2.461   0.097 -0.6829 -1.1644 -2.3322
  822MOL0     H10921   4.197   2.643   0.204  1.1151  5.1951  1.3503
  822MOL0     H10922   4.452   2.776  -0.051 -0.2364 -2.1836 -1.2281
  822MOL0     H10923   4.430   2.784   0.123  3.2438  0.4935  1.5209
  822MOL0     H10924   4.521   2.524  -0.014 -0.8338 -1.2839  1.6823
  822MOL0     H10925   4.535   2.550   0.149  0.6185 -1.1254 -1.5785
  822MOL0     H10926   4.695   2.746  -0.040  4.2963  2.0804  1.3075
  822MOL0     H10927   4.761   2.584  -0.001 -0.8784 -0.1401  0.7481
  822MOL0     H10928   4.848   2.723   0.165  0.7635 -2.4959  1.5818
  822MOL0     H10929   4.772   2.592   0.209  1.5922  0.3680 -2.0220
  822MOL0     H10930   4.507   2.610   0.389  0.3269 -2.0747  1.3575
  822MOL0     H10931   4.371   2.559   0.568 -0.4342 -0.5428  0.5132
  822MOL0     H10932   4.460   2.523   0.714  1.2865  2.9754  3.5047
  822MOL0     H10933   4.368   2.670   0.691 -0.1389 -2.5507  2.7865
  822MOL0     H10934   4.791   3.117   0.890  0.1695  0.0530 -0.1456
  822MOL0     H10935   4.770   3.261   1.107 -0.4037  0.6489  1.2513
  822MOL0     H10936   4.605   3.081   1.490 -0.2255 -1.1813 -2.2291
  822MOL0     H10937   4.772   3.046   1.428  0.1771 -0.0334 -2.0126
  822MOL0     H10938   4.801   3.299   1.512  1.2783 -0.7967  0.5793
  822MOL0     H10939   4.649   3.291   1.582  1.9261  4.1765 -3.5656
  822MOL0     H10940   4.758   3.050   1.673 -0.6820 -0.3632 -0.5580
  822MOL0     H10941   4.725   3.182   1.766 -2.5488 -2.0610 -0.4928
  822MOL0     H10942   4.986   3.141   1.603 -1.2871 -0.1700 -1.6334
  822MOL0     H10943   4.972   3.272   1.712  3.7997 -1.6481  0.4719
  822MOL0     H10944   5.074   3.054   1.799  0.0125 -2.1167  1.4763
  822MOL0     H10945   4.901   2.989   1.812 -1.4359  0.8512  0.2022
  822MOL0     H10946   5.029   3.218   1.943  1.3229 -1.5048 -4.5171
  822MOL0     H10947   4.852   3.184   1.961 -0.1426 -0.6701 -0.7839
  822MOL0     H10948   5.089   3.003   2.053  2.4546  3.2568  2.0907
  822MOL0     H10949   4.922   2.959   2.075  2.2017 -2.1864  2.0233
  822MOL0     H10950   4.890   3.143   2.225  2.0822  1.5822  4.6246
  822MOL0     H10951   5.047   3.221   2.170  0.6506  0.6907  1.5854
  822MOL0     H10952   4.575   2.958   1.301  0.0751 -0.4291 -0.8006
  822MOL0     H10953   4.592   2.807   1.122  0.0661  0.4957 -0.1609
  822MOL0     H10954   4.811   2.890   0.658 -0.6105 -0.7586  1.1817
  822MOL0     H10955   4.836   2.888   0.426  0.6982 -1.4553  0.0428
  822MOL0     H10956   3.219   2.511   0.524  2.7503  1.0825 -1.6709
  822MOL0     H10957   3.011   2.642   0.565  0.6771  0.2637 -0.7484
  822MOL0     H10958   2.924   3.037   1.072  2.7441 -1.1806  1.4950
  822MOL0     H10959   2.867   2.953   1.287 -2.5161  0.3510 -0.4744
  822MOL0     H10960   2.838   2.761   1.514 -1.5320  2.1945 -0.2532
  822MOL0     H10961   2.712   2.806   1.406 -0.1297 -0.8688  0.7194
  822MOL0     H10962   2.647   2.548   1.431  3.0056 -0.1892 -1.6033
  822MOL0     H10963   2.617   2.656   1.585 -1.7081 -1.9346  0.3751
  822MOL0     H10964   2.789   2.557   1.695  0.7591  0.6336 -0.2597
  822MOL0     H10965   2.849   2.483   1.533 -1.8378  1.9473 -2.8410
  822MOL0     H10966   2.749   2.308   1.669 -0.0266  0.6488  0.5108
  822MOL0     H10967   2.667   2.344   1.516  0.1496  1.8740 -1.0830
  822MOL0     H10968   2.372   2.436   1.798 -0.9639  1.3265 -0.9307
  822MOL0     H10969   2.879   2.554   1.130  1.9723  1.5794  5.0840
  822MOL0     H10970   2.921   2.647   0.906 -1.0976 -1.2378  1.1760
  823MOL0     O10971   3.080  10.934   0.422 -0.7792  0.3168 -0.2633
  823MOL0     C10972   3.026  11.048   0.437 -0.0726  0.1849  0.7518
  823MOL0     O10973   3.076  11.162   0.506 -0.2801 -0.0688 -0.0958
  823MOL0     C10974   3.214  11.160   0.539  0.2985 -0.7402  0.6850
  823MOL0     C10975   3.297  11.264   0.481 -0.7088  0.1942  0.8086
  823MOL0     C10976   3.436  11.289   0.506  0.0958  0.0571 -0.7468
  823MOL0     C10977   3.500  11.210   0.607  0.7127 -0.6006  0.4881
  823MOL0     O10978   3.620  11.238   0.665 -0.1060 -0.0114  0.1693
  823MOL0     C10979   3.706  11.334   0.597 -0.6665 -0.1399  0.3001
  823MOL0     C10980   3.830  11.373   0.666 -0.2245 -0.1337  0.3587
  823MOL0     C10981   3.928  11.256   0.667 -1.4294  0.1729 -0.7548
  823MOL0     C10982   4.006  11.256   0.538 -0.2362 -0.1710  0.1700
  823MOL0     C10983   4.101  11.142   0.552 -0.3337  0.1272  0.4805
  823MOL0     C10984   4.175  11.109   0.423  0.8392 -0.3897  0.3564
  823MOL0     C10985   4.259  10.977   0.427  0.2935  0.1403 -0.6282
  823MOL0     C10986   4.341  10.964   0.297 -0.6655 -0.0898  0.0079
  823MOL0     N10987   4.252  10.948   0.184 -0.0704  0.4180 -0.3141
  823MOL0     C10988   4.224  11.038   0.081  1.3016 -0.0944 -0.1389
  823MOL0     C10989   4.126  10.980   0.001 -0.0997 -0.2320  1.3103
  823MOL0     C10990   4.048  11.030  -0.118 -0.3874  0.1326 -0.4341
  823MOL0     C10991   3.941  11.133  -0.081 -0.9202 -0.6182  0.3279
  823MOL0     C10992   3.991  11.251   0.000  0.9123  0.4947 -0.2237
  823MOL0     C10993   3.868  11.347   0.031  0.3065  0.7526  0.0481
  823MOL0     O10994   3.912  11.413   0.146 -0.0222  0.4236 -0.0118
  823MOL0     C10995   3.836  11.507   0.205  0.7288  0.1343  0.1221
  823MOL0     C10996   3.696  11.521   0.184 -0.5425 -0.1744 -0.0405
  823MOL0     C10997   3.608  11.610   0.265  0.2594  0.2876  0.0228
  823MOL0     C10998   3.453  11.600   0.231  0.8122  0.0079 -0.5222
  823MOL0     C10999   3.671  11.680   0.373 -1.1526  0.0116 -0.5955
  823MOL0     C11000   3.601  11.762   0.469 -0.0522  0.1939 -0.5096
  823MOL0     O11001   3.499  11.848   0.427 -0.0772 -0.4466  0.8701
  823MOL0     C11002   3.447  11.943   0.513  0.4550  0.8857  1.5372
  823MOL0     C11003   3.452  12.081   0.480 -0.1522  1.5036  0.2502
  823MOL0     C11004   3.421  12.177   0.571  0.0521  0.0268 -0.2143
  823MOL0     C11005   3.371  12.144   0.697  1.2203 -0.1364  0.1857
  823MOL0     O11006   3.331  12.249   0.776 -0.1663 -0.2518  0.1587
  823MOL0     C11007   3.215  12.235   0.858  0.2461  0.6180 -0.6760
  823MOL0     C11008   3.151  12.362   0.899  0.6444 -0.1734  0.4069
  823MOL0     C11009   3.267  12.459   0.935 -0.1108 -0.7005 -0.5446
  823MOL0     C11010   3.229  12.575   1.029 -0.3577  0.1179 -0.8693
  823MOL0     C11011   3.326  12.641   1.133  0.0753  0.8595 -0.0064
  823MOL0     C11012   3.349  12.545   1.253 -0.3190  0.6259 -0.2706
  823MOL0     C11013   3.437  12.617   1.357  0.4447  1.4052 -0.5067
  823MOL0     C11014   3.496  12.524   1.455 -0.3396  0.0601 -0.1954
  823MOL0    Cl11015   3.594  12.615   1.568 -0.6817 -0.1022  0.0283
  823MOL0     C11016   3.351  12.011   0.734  0.4969  0.0642 -0.2006
  823MOL0     C11017   3.391  11.911   0.640  0.4011  0.4403 -0.3593
  823MOL0     O11018   3.631  11.750   0.587 -0.3732  0.3508 -0.2500
  823MOL0     C11019   3.815  11.665   0.384 -0.1949  0.8707 -1.4672
  823MOL0     C11020   3.897  11.587   0.302 -0.6706  0.5158 -0.5061
  823MOL0     N11021   4.096  10.851   0.058  0.2291 -0.8304  0.5522
  823MOL0     N11022   4.167  10.846   0.165 -0.2910  0.8329  1.0559
  823MOL0     C11023   3.412  11.116   0.671  0.7164 -0.1550  0.1134
  823MOL0     C11024   3.278  11.086   0.640 -0.0899  0.0960  0.0563
  823MOL0     C11025   2.894  11.062   0.392 -0.0388  0.1007  0.6656
  823MOL0     C11026   2.823  10.939   0.359  0.0757 -0.7837 -0.3824
  823MOL0     C11027   2.688  10.953   0.321  0.1609  0.8512 -0.0527
  823MOL0     C11028   2.625  11.074   0.296  0.3332 -0.5874 -0.1884
  823MOL0     O11029   2.495  11.054   0.273 -0.4719 -0.2013 -0.3033
  823MOL0     C11030   2.404  11.157   0.284 -0.1006 -0.1401 -0.0646
  823MOL0     C11031   2.383  11.244   0.161  0.5668 -0.3344 -0.9361
  823MOL0     C11032   2.260  11.329   0.175  0.7005 -0.3657 -0.3951
  823MOL0     C11033   2.230  11.408   0.302  0.1075 -0.8364  0.0660
  823MOL0     C11034   2.132  11.512   0.267  0.5024  0.1531 -0.2615
  823MOL0     C11035   2.067  11.604   0.211  0.8933  0.2684  0.3571
  823MOL0     C11036   2.697  11.193   0.324 -1.0173 -0.2693 -0.3067
  823MOL0     C11037   2.829  11.191   0.377  0.4273  0.8867 -1.1848
  823MOL0     H11038   3.237  11.326   0.415  0.8260 -1.5564 -2.4596
  823MOL0     H11039   3.480  11.380   0.466 -1.7776  1.4930  0.2661
  823MOL0     H11040   3.732  11.293   0.499 -2.8498 -1.4792  0.2124
  823MOL0     H11041   3.654  11.430   0.586 -0.9103 -0.2777  0.2579
  823MOL0     H11042   3.877  11.462   0.623  5.3166 -3.0269 -0.4448
  823MOL0     H11043   3.797  11.388   0.770 -2.0501  0.5664 -0.2738
  823MOL0     H11044   3.995  11.250   0.753 -1.3115 -1.9498 -0.9284
  823MOL0     H11045   3.872  11.161   0.663 -1.3538  0.0031  1.3566
  823MOL0     H11046   3.955  11.243   0.443  1.1563  0.3243 -0.6841
  823MOL0     H11047   4.053  11.355   0.532  0.5089 -0.5508 -0.3537
  823MOL0     H11048   4.166  11.148   0.640 -1.2336 -0.9650  1.2444
  823MOL0     H11049   4.050  11.049   0.579  2.6150 -1.3908  1.2155
  823MOL0     H11050   4.110  11.091   0.337  3.0982 -0.4245 -1.4734
  823MOL0     H11051   4.247  11.190   0.410  1.0315 -0.9614 -3.2295
  823MOL0     H11052   4.326  10.987   0.513 -0.2809  2.1278 -0.3620
  823MOL0     H11053   4.189  10.898   0.455 -0.5859  0.6343 -1.3622
  823MOL0     H11054   4.404  10.876   0.309 -0.9203 -0.5034 -1.5461
  823MOL0     H11055   4.414  11.043   0.275 -0.7442 -0.0750 -0.2035
  823MOL0     H11056   4.277  11.132   0.070 -0.7933  1.1737  0.0638
  823MOL0     H11057   4.128  11.073  -0.179  1.4682 -0.5672  1.3913
  823MOL0     H11058   4.005  10.940  -0.163  0.1345 -0.9219  1.0858
  823MOL0     H11059   3.862  11.089  -0.019 -0.4452 -1.0862  0.6087
  823MOL0     H11060   3.900  11.177  -0.172 -2.8183  0.5259  1.6759
  823MOL0     H11061   4.080  11.300  -0.041  0.0301  0.6454 -2.0607
  823MOL0     H11062   4.028  11.223   0.099  0.6019  2.9420  0.6733
  823MOL0     H11063   3.783  11.279   0.046  2.2008 -1.7548  0.1338
  823MOL0     H11064   3.845  11.414  -0.052 -3.0581  0.7708  0.8397
  823MOL0     H11065   3.655  11.467   0.099 -1.8071  2.0125 -0.9143
  823MOL0     H11066   3.424  11.694   0.184 -0.0146  1.2558  2.2907
  823MOL0     H11067   3.435  11.511   0.171  1.7054  0.7482 -1.9528
  823MOL0     H11068   3.396  11.601   0.323 -1.2572  1.4545 -1.7398
  823MOL0     H11069   3.501  12.103   0.386  3.6846  2.1027  2.2084
  823MOL0     H11070   3.443  12.280   0.546  2.1267 -0.0877  0.8434
  823MOL0     H11071   3.140  12.182   0.799  1.5664  1.4283 -3.1911
  823MOL0     H11072   3.232  12.177   0.950  2.9560  2.3861  0.0608
  823MOL0     H11073   3.083  12.400   0.823 -2.8591 -0.9402  2.9107
  823MOL0     H11074   3.076  12.351   0.978  0.0646  0.4418 -0.0423
  823MOL0     H11075   3.308  12.507   0.845 -1.5806  0.2713 -0.7401
  823MOL0     H11076   3.341  12.407   0.996  0.5002 -2.5379 -2.7057
  823MOL0     H11077   3.173  12.640   0.962  3.5761  1.7331 -2.9175
  823MOL0     H11078   3.151  12.528   1.089  2.0038 -1.8539  0.8861
  823MOL0     H11079   3.286  12.734   1.175  0.0795 -0.2591  2.6442
  823MOL0     H11080   3.423  12.662   1.086  1.1235 -1.5945  0.9036
  823MOL0     H11081   3.252  12.523   1.297 -1.4389  5.3250  0.1853
  823MOL0     H11082   3.402  12.453   1.227  0.6267  0.1895  2.8026
  823MOL0     H11083   3.374  12.694   1.403  1.4692 -0.0653  3.8002
  823MOL0     H11084   3.515  12.680   1.314  1.4512  3.2851  3.5838
  823MOL0     H11085   3.563  12.460   1.397  1.1240  0.1436  1.3316
  823MOL0     H11086   3.419  12.465   1.505  2.3994 -2.4384  1.4426
  823MOL0     H11087   3.325  11.993   0.838  1.1616  0.1545 -0.0120
  823MOL0     H11088   3.383  11.817   0.694  1.2419 -0.2773 -1.4590
  823MOL0     H11089   3.856  11.719   0.469  0.1956  2.4101 -2.5979
  823MOL0     H11090   4.002  11.594   0.328 -1.4129  1.4216  2.6507
  823MOL0     H11091   3.449  11.070   0.762 -1.2075  1.0903  1.5956
  823MOL0     H11092   3.209  11.027   0.700 -1.0506 -1.4841 -2.4304
  823MOL0     H11093   2.879  10.847   0.372 -0.4692 -0.8311  2.4093
  823MOL0     H11094   2.630  10.863   0.301  1.4127 -0.6978  2.7014
  823MOL0     H11095   2.314  11.102   0.312 -0.2863  0.0536 -0.2880
  823MOL0     H11096   2.427  11.212   0.376  3.2445  0.0512 -0.8624
  823MOL0     H11097   2.357  11.183   0.075 -3.3219  0.0303 -0.1720
  823MOL0     H11098   2.476  11.298   0.141  1.0794 -1.1638 -0.8264
  823MOL0     H11099   2.168  11.271   0.157  0.6385 -0.4176  0.0730
  823MOL0     H11100   2.261  11.400   0.092 -0.7886  0.4149  0.2150
  823MOL0     H11101   2.317  11.469   0.327 -0.2257 -0.4962  0.4192
  823MOL0     H11102   2.206  11.340   0.385  0.0261 -2.9753 -1.6064
  823MOL0     H11103   2.026  11.688   0.157 -0.4488 -0.5284  0.1136
  823MOL0     H11104   2.641  11.285   0.312  0.3337  0.9611  1.9585
  823MOL0     H11105   2.874  11.286   0.402  3.6927 -0.1974 -2.4528
  824MOL0     O11106   0.656   7.549   8.041  0.8281  0.5084  0.1478
  824MOL0     C11107   0.741   7.477   8.092 -0.2073 -0.4186 -1.0381
  824MOL0     O11108   0.791   7.477   8.221  0.2717 -0.8090 -0.4339
  824MOL0     C11109   0.755   7.581   8.299  0.5517 -0.3816  0.6082
  824MOL0     C11110   0.751   7.721   8.264  0.0093  0.6057 -0.2901
  824MOL0     C11111   0.708   7.823   8.355 -0.3291  0.3113  0.7587
  824MOL0     C11112   0.665   7.790   8.480  0.0061 -1.3222  0.0161
  824MOL0     O11113   0.616   7.893   8.560 -0.4551  0.6057  1.1523
  824MOL0     C11114   0.555   7.864   8.688  0.0510  0.0457  0.4059
  824MOL0     C11115   0.423   7.784   8.669  0.2941 -0.7991 -0.0153
  824MOL0     C11116   0.303   7.863   8.615  0.5909  0.1208 -0.2570
  824MOL0     C11117   0.171   7.790   8.623  0.3515 -0.6328 -0.3159
  824MOL0     C11118   0.168   7.682   8.514 -1.4103  0.2889 -0.7201
  824MOL0     C11119   0.024   7.635   8.482  0.5741  0.2992 -0.4891
  824MOL0     C11120  -0.042   7.542   8.581 -0.4412  0.3508  0.0302
  824MOL0     C11121  -0.156   7.464   8.521 -0.0874  0.3536  0.2162
  824MOL0     N11122  -0.132   7.357   8.420  1.2769  1.2491  0.8870
  824MOL0     C11123  -0.128   7.383   8.287  0.1957 -0.1632 -1.2475
  824MOL0     C11124  -0.095   7.262   8.240  0.2886  0.7626  0.2227
  824MOL0     C11125  -0.056   7.226   8.104  0.2523 -0.0043  0.1516
  824MOL0     C11126  -0.182   7.213   8.019  0.7572  0.1103  0.1248
  824MOL0     C11127  -0.129   7.136   7.899  0.3236  0.3768 -0.0792
  824MOL0     C11128  -0.232   7.111   7.794 -0.3479 -0.1995  0.6332
  824MOL0     O11129  -0.364   7.073   7.841 -0.9175 -0.6442  0.3418
  824MOL0     C11130  -0.445   7.035   7.741 -0.4151  0.1953 -0.5667
  824MOL0     C11131  -0.435   7.070   7.611  0.0390  0.9584  0.1009
  824MOL0     C11132  -0.531   7.022   7.512  0.0845 -0.8036  0.5106
  824MOL0     C11133  -0.512   7.067   7.367 -0.4944  0.1993  0.8075
  824MOL0     C11134  -0.635   6.929   7.558 -0.5226  0.4974 -1.4387
  824MOL0     C11135  -0.740   6.868   7.471  1.2805 -0.1703  0.0605
  824MOL0     O11136  -0.726   6.884   7.338 -0.1258 -0.6788  0.7995
  824MOL0     C11137  -0.810   6.805   7.253  0.3221 -1.0263  0.0428
  824MOL0     C11138  -0.877   6.880   7.154 -0.8420 -1.3551 -0.2860
  824MOL0     C11139  -0.967   6.825   7.056  0.1457 -0.0035  0.2324
  824MOL0     C11140  -1.010   6.695   7.079 -0.5733 -0.2273  0.1661
  824MOL0     O11141  -1.109   6.631   7.012 -0.1444  0.6700 -0.1158
  824MOL0     C11142  -1.245   6.674   7.025  0.7058  0.0019 -0.5874
  824MOL0     C11143  -1.305   6.742   6.901  0.5808 -0.7786 -0.5788
  824MOL0     C11144  -1.451   6.777   6.928  0.4223  0.1476 -0.2586
  824MOL0     C11145  -1.509   6.893   6.847 -0.7039  0.4346 -0.9065
  824MOL0     C11146  -1.635   6.958   6.896  0.1167  0.3591 -0.2490
  824MOL0     C11147  -1.758   6.889   6.823  0.1854 -0.2346 -0.8177
  824MOL0     C11148  -1.885   6.937   6.874 -0.2178 -0.5980 -0.7218
  824MOL0     C11149  -1.991   6.945   6.759  0.0119 -0.0909 -0.3237
  824MOL0    Cl11150  -2.160   6.927   6.806  0.3068 -0.1304 -0.5948
  824MOL0     C11151  -0.935   6.617   7.172  0.0077  0.6915  0.0668
  824MOL0     C11152  -0.833   6.667   7.251  0.8593  0.5139 -0.3877
  824MOL0     O11153  -0.831   6.802   7.529 -0.8569  0.0780  0.0525
  824MOL0     C11154  -0.640   6.894   7.700  0.1657 -0.2890  0.3039
  824MOL0     C11155  -0.546   6.957   7.782 -0.4664 -0.1827  0.7248
  824MOL0     N11156  -0.075   7.171   8.343  0.6806  0.6341  0.1278
  824MOL0     N11157  -0.093   7.227   8.447 -0.3002  0.2690  0.1961
  824MOL0     C11158   0.678   7.654   8.518  0.2696 -0.3105  0.1761
  824MOL0     C11159   0.715   7.551   8.431  0.4847 -0.6103  0.1663
  824MOL0     C11160   0.767   7.362   8.005 -0.3708 -1.0653 -0.3288
  824MOL0     C11161   0.825   7.245   8.050  0.4658 -0.4415 -0.9442
  824MOL0     C11162   0.843   7.128   7.970  0.1243 -0.2853 -0.2700
  824MOL0     C11163   0.790   7.131   7.837  0.0015  0.7368 -1.4548
  824MOL0     O11164   0.817   7.028   7.755  0.8304  0.9364 -1.0514
  824MOL0     C11165   0.805   7.045   7.611 -0.3855 -1.2280 -1.0258
  824MOL0     C11166   0.884   6.935   7.539 -0.2867  0.5231  0.3211
  824MOL0     C11167   0.822   6.900   7.403 -0.1762 -0.7766  0.4006
  824MOL0     C11168   0.894   6.971   7.287  0.7234 -0.1118  0.2854
  824MOL0     C11169   0.885   7.116   7.274  0.5783  0.1751 -1.7080
  824MOL0     C11170   0.869   7.229   7.284 -0.9599 -0.6250 -0.1314
  824MOL0     C11171   0.741   7.254   7.787 -0.5501  0.2760 -0.1739
  824MOL0     C11172   0.734   7.366   7.867 -0.1450 -0.1337 -0.0871
  824MOL0     H11173   0.783   7.748   8.164  0.2343  0.6539 -0.2066
  824MOL0     H11174   0.722   7.925   8.320 -2.4065  0.2509 -0.4103
  824MOL0     H11175   0.627   7.802   8.743  2.6391  1.6035 -1.0287
  824MOL0     H11176   0.541   7.952   8.751  1.2707 -0.6926  1.7751
  824MOL0     H11177   0.448   7.691   8.618  1.6585 -0.6522  0.3620
  824MOL0     H11178   0.388   7.766   8.771  1.0889  3.1048  1.1227
  824MOL0     H11179   0.284   7.955   8.670 -3.4788 -1.5134  1.5403
  824MOL0     H11180   0.311   7.891   8.509 -1.9263 -0.4149 -0.6699
  824MOL0     H11181   0.165   7.744   8.721 -2.7304 -1.3672 -0.7650
  824MOL0     H11182   0.085   7.854   8.603  1.4995 -0.0078 -4.1059
  824MOL0     H11183   0.222   7.723   8.427  2.9360 -2.1384  0.5091
  824MOL0     H11184   0.217   7.591   8.550 -0.6381  1.1624  0.5413
  824MOL0     H11185  -0.044   7.717   8.458 -3.0165 -3.1495 -3.4133
  824MOL0     H11186   0.032   7.588   8.384 -0.5000 -1.0471  0.0385
  824MOL0     H11187   0.036   7.473   8.614  0.0576  2.4225  3.7385
  824MOL0     H11188  -0.065   7.597   8.673  0.7958  0.3733  0.3501
  824MOL0     H11189  -0.223   7.535   8.471  0.3704  1.4359  1.0959
  824MOL0     H11190  -0.206   7.409   8.601 -1.1405  0.8412 -0.0877
  824MOL0     H11191  -0.144   7.480   8.241  1.4458  0.6401 -0.0857
  824MOL0     H11192   0.012   7.298   8.058 -0.2910  0.0065 -0.6380
  824MOL0     H11193   0.007   7.137   8.115  0.3252 -0.5067 -3.3818
  824MOL0     H11194  -0.214   7.310   7.980  0.9672 -0.0809 -0.5444
  824MOL0     H11195  -0.258   7.153   8.071 -0.5261  0.9654 -0.7089
  824MOL0     H11196  -0.096   7.039   7.936 -1.7492 -0.5595 -0.5013
  824MOL0     H11197  -0.039   7.176   7.852  0.6013 -1.0537 -0.8094
  824MOL0     H11198  -0.196   7.045   7.715 -2.9323  0.2520 -1.0235
  824MOL0     H11199  -0.248   7.207   7.745 -1.0010 -0.5383  0.1678
  824MOL0     H11200  -0.356   7.134   7.572  0.2286 -1.0696 -3.3456
  824MOL0     H11201  -0.457   6.985   7.319 -2.5276  0.6316 -2.6132
  824MOL0     H11202  -0.606   7.085   7.313 -0.2759 -1.0113 -0.0210
  824MOL0     H11203  -0.459   7.162   7.359 -0.8241  0.6547  3.3498
  824MOL0     H11204  -0.851   6.984   7.142  0.6641 -1.4943  1.2632
  824MOL0     H11205  -1.019   6.890   6.986  0.9770  0.3743 -0.0453
  824MOL0     H11206  -1.305   6.586   7.052 -0.3134  1.1648  1.2047
  824MOL0     H11207  -1.263   6.745   7.106 -0.3049 -1.0700  0.1609
  824MOL0     H11208  -1.249   6.834   6.880 -0.1584  0.5576  2.7648
  824MOL0     H11209  -1.292   6.671   6.819 -2.3234 -2.8222  0.5425
  824MOL0     H11210  -1.471   6.792   7.034 -1.6213 -3.1721 -0.0231
  824MOL0     H11211  -1.520   6.696   6.900 -0.4912  0.8195 -0.0188
  824MOL0     H11212  -1.434   6.972   6.858  1.9934 -1.9735 -0.8841
  824MOL0     H11213  -1.522   6.864   6.742  0.6038 -0.7132 -0.7769
  824MOL0     H11214  -1.636   7.062   6.864  0.2415 -0.1227 -1.9480
  824MOL0     H11215  -1.647   6.945   7.004 -1.1300 -3.6983 -0.6814
  824MOL0     H11216  -1.761   6.924   6.719 -1.5361 -0.8209 -0.9966
  824MOL0     H11217  -1.748   6.781   6.812  2.6939 -0.0591 -0.9482
  824MOL0     H11218  -1.880   7.040   6.909 -1.0963 -1.3207  1.7721
  824MOL0     H11219  -1.917   6.872   6.956 -1.6962 -1.1319 -1.6927
  824MOL0     H11220  -1.974   6.867   6.685 -1.4486  0.7390 -1.6075
  824MOL0     H11221  -1.985   7.034   6.695  1.0421 -1.0083 -1.5503
  824MOL0     H11222  -0.986   6.522   7.188 -0.0804  0.4665 -1.3988
  824MOL0     H11223  -0.782   6.608   7.325  0.5024 -1.0977 -1.3761
  824MOL0     H11224  -0.712   6.826   7.744 -0.7440 -1.6404 -2.9688
  824MOL0     H11225  -0.551   6.932   7.888  0.7176  1.2767  1.1606
  824MOL0     H11226   0.654   7.637   8.623 -1.0114  5.5798  1.1925
  824MOL0     H11227   0.685   7.453   8.466 -0.8927 -0.7415 -1.2860
  824MOL0     H11228   0.873   7.245   8.148  1.9416 -1.3753 -1.6202
  824MOL0     H11229   0.888   7.036   8.008  0.9593 -2.1536 -4.9597
  824MOL0     H11230   0.698   7.032   7.595 -0.8142 -0.0037  0.6083
  824MOL0     H11231   0.826   7.144   7.570 -2.5353 -0.2259  0.1125
  824MOL0     H11232   0.885   6.841   7.595  1.4552 -1.1629 -2.3115
  824MOL0     H11233   0.985   6.970   7.517  0.5983 -0.2044  2.8339
  824MOL0     H11234   0.717   6.926   7.391 -0.2636 -1.2428  0.1243
  824MOL0     H11235   0.834   6.792   7.387  1.3383 -0.4817 -0.6487
  824MOL0     H11236   0.836   6.928   7.204  1.3239  2.8893 -1.8285
  824MOL0     H11237   0.997   6.935   7.281  1.0751  1.1084 -2.3048
  824MOL0     H11238   0.861   7.335   7.302 -2.7740 -0.5362 -1.1948
  824MOL0     H11239   0.696   7.262   7.689 -4.6580 -0.5576  1.4170
  824MOL0     H11240   0.696   7.460   7.828 -0.8774 -0.6121 -0.5543
  825MOL0     O11241   4.013   4.312   9.209 -0.9615  0.0802 -0.3606
  825MOL0     C11242   4.055   4.422   9.206 -0.1528 -1.1465  0.2641
  825MOL0     O11243   4.155   4.470   9.274 -0.1996 -0.5935 -0.9679
  825MOL0     C11244   4.219   4.397   9.373 -0.0332  0.0496 -0.1616
  825MOL0     C11245   4.347   4.344   9.341  0.6518  0.1555 -0.4223
  825MOL0     C11246   4.402   4.264   9.433 -0.1726 -0.2378 -0.2686
  825MOL0     C11247   4.343   4.233   9.558 -0.6980  0.3091  0.1985
  825MOL0     O11248   4.414   4.146   9.646  1.0750 -0.2631  0.6085
  825MOL0     C11249   4.386   4.150   9.781  1.0891  0.0643 -0.7256
  825MOL0     C11250   4.482   4.044   9.837  0.1477 -0.7507 -0.3622
  825MOL0     C11251   4.602   4.113   9.889 -0.4735 -0.3507 -0.1367
  825MOL0     C11252   4.679   4.195   9.786  0.5150  0.1951  0.1089
  825MOL0     C11253   4.825   4.206   9.814  0.0025  0.5267  0.3543
  825MOL0     C11254   4.895   4.319   9.738  0.1923 -0.4245 -0.0447
  825MOL0     C11255   5.036   4.341   9.787  0.2711 -0.6104  0.2515
  825MOL0     C11256   5.120   4.222   9.753 -0.1274  0.7507  0.4802
  825MOL0     N11257   5.261   4.252   9.785 -0.6650  0.9727 -0.8607
  825MOL0     C11258   5.326   4.374   9.748  0.2618  0.1688  0.2675
  825MOL0     C11259   5.436   4.382   9.824 -0.3411  0.7578 -0.3897
  825MOL0     C11260   5.543   4.489   9.836  0.2812  0.3147 -0.3105
  825MOL0     C11261   5.489   4.582   9.937 -0.1544 -0.4839 -0.2262
  825MOL0     C11262   5.571   4.705   9.944 -0.5211 -0.3462  0.0419
  825MOL0     C11263   5.529   4.796  10.055 -0.2216  0.1687  0.2357
  825MOL0     O11264   5.618   4.907  10.041  0.2118 -0.4228  0.3007
  825MOL0     C11265   5.720   4.949  10.123  0.2055 -0.1468 -0.8355
  825MOL0     C11266   5.790   5.057  10.079  0.2915 -0.2486  0.0210
  825MOL0     C11267   5.877   5.118  10.172  0.7338 -0.8606 -0.2287
  825MOL0     C11268   5.961   5.244  10.125 -0.4278 -0.2551  0.3447
  825MOL0     C11269   5.878   5.064  10.307 -0.6638 -0.0197  0.7361
  825MOL0     C11270   5.970   5.128  10.403  0.3726 -0.7871 -0.4786
  825MOL0     O11271   6.054   5.036  10.474  0.6213 -0.8424  0.4494
  825MOL0     C11272   6.176   5.067  10.519 -0.5308  0.2790  0.4163
  825MOL0     C11273   6.237   4.986  10.620  0.1117  0.3504 -0.1567
  825MOL0     C11274   6.354   5.029  10.685 -0.1305 -0.2468  0.3368
  825MOL0     C11275   6.425   5.138  10.645  0.4284  0.8130  0.0876
  825MOL0     O11276   6.551   5.166  10.702  0.0157 -0.5355 -0.1011
  825MOL0     C11277   6.606   5.083  10.807  0.5315 -0.7990  0.3316
  825MOL0     C11278   6.750   5.128  10.844 -0.2300  0.4989  0.8338
  825MOL0     C11279   6.827   5.031  10.928  0.4414  0.6536  0.4361
  825MOL0     C11280   6.983   5.053  10.913 -0.2425 -0.3139 -0.1283
  825MOL0     C11281   7.023   5.204  10.937  0.3380 -0.1646 -0.8043
  825MOL0     C11282   7.019   5.217  11.088 -0.0758  0.9277 -0.1177
  825MOL0     C11283   7.090   5.331  11.136  0.3769  0.2223  0.6640
  825MOL0     C11284   7.085   5.333  11.287  0.0305 -0.0688  0.1305
  825MOL0    Cl11285   7.176   5.478  11.328  0.1903  0.4254 -0.0087
  825MOL0     C11286   6.378   5.203  10.529 -0.0462 -0.2555  0.3552
  825MOL0     C11287   6.253   5.172  10.470 -0.2554  0.3069  0.0713
  825MOL0     O11288   5.959   5.244  10.421  0.8150  0.1602 -0.3473
  825MOL0     C11289   5.833   4.942  10.336  0.0676  0.4298 -0.4054
  825MOL0     C11290   5.746   4.882  10.246  1.0017 -0.3998  0.2056
  825MOL0     N11291   5.449   4.249   9.878  0.0369 -0.7375  0.7175
  825MOL0     N11292   5.341   4.184   9.879 -0.4795 -0.5700  0.7010
  825MOL0     C11293   4.217   4.285   9.587 -0.7146  0.9285  1.2910
  825MOL0     C11294   4.162   4.375   9.501  0.6779 -0.0679  0.2084
  825MOL0     C11295   3.979   4.513   9.112 -0.8701  0.0664  0.4572
  825MOL0     C11296   3.906   4.461   9.009 -0.0589  0.4041 -0.3016
  825MOL0     C11297   3.838   4.538   8.913 -0.8223  0.7125  0.4225
  825MOL0     C11298   3.860   4.673   8.909 -0.6487 -0.0328 -0.3574
  825MOL0     O11299   3.773   4.737   8.823 -0.2521  0.1502 -0.7038
  825MOL0     C11300   3.806   4.867   8.755  0.0589  1.3764  1.2134
  825MOL0     C11301   3.698   4.965   8.803  0.2768 -1.0340 -0.6873
  825MOL0     C11302   3.706   5.094   8.721  0.1795  0.0930  0.0132
  825MOL0     C11303   3.624   5.102   8.594 -1.1212 -0.2660 -0.0994
  825MOL0     C11304   3.598   5.249   8.559  0.5675 -0.3568 -0.7086
  825MOL0     C11305   3.581   5.370   8.554 -0.5049 -0.3897  0.4674
  825MOL0     C11306   3.946   4.735   8.998  0.3737  1.0447  0.7011
  825MOL0     C11307   4.001   4.652   9.098 -0.6716  0.0666 -0.3931
  825MOL0     H11308   4.394   4.367   9.246 -2.6173  3.0153 -1.5892
  825MOL0     H11309   4.506   4.234   9.425 -0.1788 -0.9240  1.6958
  825MOL0     H11310   4.414   4.246   9.825  1.0420  0.5396 -1.7082
  825MOL0     H11311   4.285   4.111   9.796  2.3667 -4.0869 -1.4854
  825MOL0     H11312   4.432   3.996   9.921 -1.1916 -0.0348 -0.7227
  825MOL0     H11313   4.506   3.968   9.763 -0.8426  1.6878 -3.4056
  825MOL0     H11314   4.584   4.184   9.970 -0.5541 -1.1445  0.5592
  825MOL0     H11315   4.673   4.046   9.938 -1.2784 -0.6885  0.5977
  825MOL0     H11316   4.675   4.143   9.690  0.1196 -1.0395  0.7594
  825MOL0     H11317   4.635   4.295   9.784  1.3701  0.5673 -1.0695
  825MOL0     H11318   4.843   4.206   9.922 -2.0589 -1.6013  0.7869
  825MOL0     H11319   4.860   4.106   9.786 -1.1057  0.2961 -0.2645
  825MOL0     H11320   4.891   4.311   9.629 -0.1598  3.5397 -0.4750
  825MOL0     H11321   4.843   4.413   9.758  0.5435 -0.0806 -0.6953
  825MOL0     H11322   5.082   4.429   9.740 -3.1190  0.0709 -2.1782
  825MOL0     H11323   5.028   4.358   9.895  1.7532 -1.3288  0.4897
  825MOL0     H11324   5.108   4.198   9.647  0.9120 -1.0437  0.7284
  825MOL0     H11325   5.075   4.144   9.814 -2.5351  3.0303  1.8060
  825MOL0     H11326   5.289   4.438   9.669 -1.3678  1.5031  2.0268
  825MOL0     H11327   5.641   4.453   9.867  0.4088  1.5197  0.7616
  825MOL0     H11328   5.562   4.531   9.736  1.9151 -3.2945 -1.6916
  825MOL0     H11329   5.497   4.540  10.038 -2.3396 -0.8974 -0.1747
  825MOL0     H11330   5.388   4.612   9.908  1.2107 -0.0749 -5.6280
  825MOL0     H11331   5.547   4.750   9.847  0.8604  1.8777  0.6911
  825MOL0     H11332   5.677   4.683   9.959  0.1283  2.2497 -0.2693
  825MOL0     H11333   5.538   4.735  10.145 -0.8435 -1.0868 -0.5347
  825MOL0     H11334   5.432   4.845  10.047  0.7886  2.4458  1.1238
  825MOL0     H11335   5.779   5.086   9.975 -1.5548  1.6204  0.6632
  825MOL0     H11336   5.942   5.267  10.019  1.0387 -0.6223 -0.0235
  825MOL0     H11337   5.932   5.338  10.173  1.6170  1.5873 -1.8035
  825MOL0     H11338   6.070   5.235  10.132  0.1070  3.2441 -1.4136
  825MOL0     H11339   6.191   4.892  10.647 -0.4121 -0.1385 -2.5455
  825MOL0     H11340   6.390   4.958  10.760 -0.8469  0.2875  1.2032
  825MOL0     H11341   6.546   5.105  10.897 -0.5634  0.1149 -0.5861
  825MOL0     H11342   6.604   4.979  10.774 -0.4897 -0.3489 -1.1422
  825MOL0     H11343   6.814   5.138  10.756 -1.7693  0.0529 -0.3704
  825MOL0     H11344   6.734   5.223  10.895 -0.8727  2.5922 -2.9379
  825MOL0     H11345   6.806   4.925  10.909  3.5689 -0.1880  0.9498
  825MOL0     H11346   6.811   5.059  11.032 -0.3436 -0.6057  0.6695
  825MOL0     H11347   7.047   4.988  10.973  2.2609  1.0831 -1.1442
  825MOL0     H11348   7.011   5.039  10.808 -0.9450  0.1604 -0.3849
  825MOL0     H11349   6.959   5.277  10.886 -0.3239  0.8570  1.3928
  825MOL0     H11350   7.129   5.219  10.915  1.0454 -0.6930  1.8808
  825MOL0     H11351   6.912   5.220  11.108 -0.2897 -0.2667 -0.9288
  825MOL0     H11352   7.068   5.125  11.122 -3.4003 -1.4658 -1.3066
  825MOL0     H11353   7.058   5.428  11.095 -3.6257 -1.7206 -1.4356
  825MOL0     H11354   7.194   5.327  11.105  0.1201  0.2628 -0.2354
  825MOL0     H11355   7.129   5.247  11.337 -2.9335 -1.2194  0.9575
  825MOL0     H11356   6.980   5.334  11.315 -0.0678 -1.4071 -0.1356
  825MOL0     H11357   6.422   5.299  10.503 -1.7040  0.3080 -0.4834
  825MOL0     H11358   6.220   5.243  10.395 -2.2155  1.3099  1.7757
  825MOL0     H11359   5.868   4.879  10.417 -1.4820  0.7971  0.5999
  825MOL0     H11360   5.701   4.788  10.275  1.1915 -0.4667  0.2856
  825MOL0     H11361   4.176   4.275   9.687 -1.0975  2.0819  1.2542
  825MOL0     H11362   4.069   4.424   9.525 -0.1053 -1.0156 -0.7775
  825MOL0     H11363   3.897   4.354   8.998 -0.7060  0.4286 -0.0494
  825MOL0     H11364   3.768   4.489   8.846  1.0447 -0.3868 -0.8153
  825MOL0     H11365   3.909   4.894   8.780  0.6136  0.6645 -0.2123
  825MOL0     H11366   3.808   4.853   8.647  2.1419 -4.2240  1.6283
  825MOL0     H11367   3.718   4.982   8.909  2.6594 -1.4791 -1.0006
  825MOL0     H11368   3.599   4.920   8.794  0.8048 -2.2888 -0.4471
  825MOL0     H11369   3.805   5.112   8.677 -0.2213 -0.9389 -1.3924
  825MOL0     H11370   3.692   5.181   8.786 -0.3264  1.2876 -1.6381
  825MOL0     H11371   3.540   5.032   8.602  1.3458 -3.5312 -0.6432
  825MOL0     H11372   3.680   5.067   8.507 -2.3037 -1.9589 -0.2412
  825MOL0     H11373   3.580   5.476   8.569 -0.9366 -0.3753  0.3532
  825MOL0     H11374   3.973   4.840   8.990  0.0235  1.0625 -0.6163
  825MOL0     H11375   4.075   4.696   9.164 -2.2504  0.7002  1.0187
  826MOL0     O11376   5.466   3.905   7.812  0.7391 -0.2412 -1.4713
  826MOL0     C11377   5.550   3.914   7.900 -0.5634  0.3468  1.1098
  826MOL0     O11378   5.562   4.011   7.987 -0.3045  0.2380  0.7764
  826MOL0     C11379   5.479   4.118   7.997  0.9753  0.0365 -0.0456
  826MOL0     C11380   5.407   4.189   7.894 -0.5115 -0.1411 -0.5658
  826MOL0     C11381   5.331   4.303   7.924 -1.5767  0.6368  0.3792
  826MOL0     C11382   5.335   4.349   8.053 -0.0428 -0.3174  0.1727
  826MOL0     O11383   5.272   4.467   8.100  0.3317  1.2405  0.5218
  826MOL0     C11384   5.249   4.571   7.997 -0.3443 -1.2576  0.3175
  826MOL0     C11385   5.109   4.563   7.933  0.7833  0.4247  0.2563
  826MOL0     C11386   5.007   4.623   8.023  0.1931 -0.3463 -0.3292
  826MOL0     C11387   4.862   4.615   7.961 -0.4585 -0.2481 -0.2287
  826MOL0     C11388   4.768   4.660   8.072  0.0677  0.0366  0.4566
  826MOL0     C11389   4.627   4.652   8.020  0.6132 -0.5356 -1.4827
  826MOL0     C11390   4.590   4.754   7.918 -0.3808 -0.2826  0.2280
  826MOL0     C11391   4.449   4.753   7.857  1.2464  0.1897 -0.5877
  826MOL0     N11392   4.453   4.855   7.747  0.2519  0.9812 -0.2046
  826MOL0     C11393   4.421   4.993   7.763  0.3852  0.3736  0.4005
  826MOL0     C11394   4.376   5.031   7.645  0.3818 -0.4185  0.0739
  826MOL0     C11395   4.344   5.182   7.614 -0.4931  0.5347 -0.0362
  826MOL0     C11396   4.204   5.178   7.535 -1.0116  0.1095 -0.0342
  826MOL0     C11397   4.173   5.303   7.461 -0.0895 -1.1886  0.2218
  826MOL0     C11398   4.038   5.294   7.400 -0.2856 -0.0031  0.5845
  826MOL0     O11399   3.930   5.324   7.487  0.4933  0.7475 -0.1457
  826MOL0     C11400   3.804   5.279   7.447  0.1810 -0.2735 -0.0676
  826MOL0     C11401   3.776   5.144   7.418 -0.7102 -0.6740 -0.1528
  826MOL0     C11402   3.651   5.114   7.362 -1.6908 -0.1569  0.3016
  826MOL0     C11403   3.641   4.969   7.309  0.8437  0.7696 -0.7733
  826MOL0     C11404   3.549   5.205   7.360  0.2487  0.6513  0.0859
  826MOL0     C11405   3.422   5.173   7.291  0.8361 -0.1526  0.9207
  826MOL0     O11406   3.302   5.229   7.330  0.0879  0.4134 -0.3423
  826MOL0     C11407   3.182   5.211   7.262  0.3555 -0.3090  0.0066
  826MOL0     C11408   3.068   5.176   7.338 -0.0669  0.3154  0.3796
  826MOL0     C11409   2.948   5.145   7.275  0.4819 -0.1502 -0.1480
  826MOL0     C11410   2.928   5.167   7.135  0.2950  0.0902  0.2920
  826MOL0     O11411   2.811   5.157   7.072 -0.5499  0.0042 -0.2631
  826MOL0     C11412   2.740   5.041   7.114 -0.3383  0.3395  1.7183
  826MOL0     C11413   2.642   5.005   7.006  0.7000 -0.0376  0.1886
  826MOL0     C11414   2.538   4.897   7.057 -0.4619  0.1302  0.0360
  826MOL0     C11415   2.441   4.845   6.941 -0.7812 -0.1106  0.0979
  826MOL0     C11416   2.337   4.766   7.016  0.3526  0.1372  0.3026
  826MOL0     C11417   2.222   4.840   7.081 -0.3080 -0.4688  0.2289
  826MOL0     C11418   2.096   4.847   6.985 -0.8848  0.4231  0.0704
  826MOL0     C11419   1.993   4.936   7.060 -0.9261 -0.7001  0.1482
  826MOL0    Cl11420   1.839   4.930   6.964 -0.1629 -0.2000 -0.4172
  826MOL0     C11421   3.036   5.215   7.061 -1.0511 -0.1887  0.4583
  826MOL0     C11422   3.165   5.229   7.125 -0.2907 -0.8244  0.1727
  826MOL0     O11423   3.436   5.098   7.193 -0.7727  0.2578  0.9818
  826MOL0     C11424   3.573   5.342   7.395  0.1690  0.6009 -0.3346
  826MOL0     C11425   3.701   5.380   7.440 -1.4460  0.0463  0.2558
  826MOL0     N11426   4.384   4.932   7.551 -0.3246 -0.1043  0.0743
  826MOL0     N11427   4.426   4.826   7.610 -0.1948 -0.9467  0.3180
  826MOL0     C11428   5.403   4.286   8.157 -0.2832  0.3389 -0.5307
  826MOL0     C11429   5.473   4.172   8.127 -0.5466 -0.9649 -0.0044
  826MOL0     C11430   5.647   3.809   7.906  0.1610 -0.0508  0.4084
  826MOL0     C11431   5.625   3.686   7.837  0.2201 -0.1606  0.4642
  826MOL0     C11432   5.707   3.582   7.844 -0.0464 -0.7231  0.5185
  826MOL0     C11433   5.833   3.591   7.909  1.1503  0.1186 -0.2257
  826MOL0     O11434   5.924   3.491   7.901 -0.4472  0.0058 -0.4033
  826MOL0     C11435   5.874   3.356   7.876 -0.0046  0.1596  0.9315
  826MOL0     C11436   5.995   3.261   7.876  0.0463 -0.2752  0.9698
  826MOL0     C11437   5.927   3.112   7.854  0.3250  0.4147 -0.8717
  826MOL0     C11438   6.039   3.008   7.850 -0.3350 -0.3677  1.3921
  826MOL0     C11439   6.135   3.020   7.740 -0.9318 -0.0501  0.5522
  826MOL0     C11440   6.197   3.012   7.633  0.3803  0.5978 -0.7466
  826MOL0     C11441   5.862   3.713   7.968 -0.4127  0.7742 -0.0294
  826MOL0     C11442   5.764   3.819   7.978  0.9450  0.0840 -0.0609
  826MOL0     H11443   5.387   4.148   7.795 -4.1561 -0.4157  0.1558
  826MOL0     H11444   5.296   4.362   7.840 -1.7141  0.6009  0.4107
  826MOL0     H11445   5.246   4.669   8.046  2.2246 -1.9398  1.9905
  826MOL0     H11446   5.329   4.583   7.924 -2.8778  0.4402 -2.4557
  826MOL0     H11447   5.097   4.602   7.831 -4.1384 -1.4285 -0.1525
  826MOL0     H11448   5.079   4.458   7.932  1.5371  0.1501  2.4558
  826MOL0     H11449   5.003   4.554   8.108 -1.3205 -2.0351 -1.6899
  826MOL0     H11450   5.023   4.725   8.059 -0.5496 -0.7425  1.2326
  826MOL0     H11451   4.857   4.681   7.874 -0.2878  1.9349  1.3389
  826MOL0     H11452   4.843   4.510   7.938  0.6959 -2.0771  5.5515
  826MOL0     H11453   4.792   4.589   8.152  0.1808 -0.4588 -0.0092
  826MOL0     H11454   4.787   4.760   8.112 -3.5551  0.6689  0.9720
  826MOL0     H11455   4.618   4.552   7.978  2.1449  0.2682 -3.9585
  826MOL0     H11456   4.562   4.665   8.107  0.8183 -0.4797 -1.3360
  826MOL0     H11457   4.608   4.848   7.970 -0.3164 -0.0672 -0.1808
  826MOL0     H11458   4.661   4.753   7.834 -0.8132 -0.2640 -0.1422
  826MOL0     H11459   4.384   4.797   7.933 -1.4387  0.6105 -2.9610
  826MOL0     H11460   4.411   4.654   7.830 -0.7633  0.6502  0.3999
  826MOL0     H11461   4.441   5.049   7.854  1.9676 -0.6091  0.6948
  826MOL0     H11462   4.338   5.233   7.710 -1.4488 -1.4008  0.9886
  826MOL0     H11463   4.425   5.227   7.555 -0.7007  0.4012 -0.4328
  826MOL0     H11464   4.123   5.153   7.604  0.7593 -1.9289  1.4405
  826MOL0     H11465   4.223   5.105   7.456 -1.8785 -0.1734  0.0017
  826MOL0     H11466   4.241   5.308   7.375 -1.1086  0.2088 -0.5349
  826MOL0     H11467   4.182   5.401   7.509  0.2801 -0.9286 -0.3617
  826MOL0     H11468   4.026   5.199   7.347 -1.6301 -0.0119  0.8556
  826MOL0     H11469   4.035   5.364   7.316  0.9280 -1.2293 -0.5280
  826MOL0     H11470   3.855   5.073   7.443  0.3750 -0.8244 -3.5757
  826MOL0     H11471   3.677   4.957   7.206  0.2597 -1.2848 -0.7727
  826MOL0     H11472   3.707   4.906   7.369  0.2753 -0.6099 -1.5489
  826MOL0     H11473   3.540   4.932   7.331  1.0900  0.7755  0.4277
  826MOL0     H11474   3.078   5.176   7.446 -0.5172 -1.1501  0.4457
  826MOL0     H11475   2.875   5.094   7.337  2.5409 -1.6242  1.2092
  826MOL0     H11476   2.804   4.955   7.131  0.5545  0.4039 -0.8402
  826MOL0     H11477   2.688   5.075   7.204 -1.1097 -1.0749  1.8335
  826MOL0     H11478   2.593   5.091   6.959 -0.9213  0.0734  1.9608
  826MOL0     H11479   2.698   4.945   6.934  0.6785 -1.9480  1.6549
  826MOL0     H11480   2.477   4.955   7.126 -3.3671 -0.9821 -1.4475
  826MOL0     H11481   2.598   4.819   7.104 -1.2726 -1.2440 -1.1279
  826MOL0     H11482   2.403   4.930   6.885  0.5861  0.6055  0.1984
  826MOL0     H11483   2.498   4.782   6.872 -3.0575 -2.7102  0.4178
  826MOL0     H11484   2.394   4.714   7.093  2.1697 -1.8851 -2.2321
  826MOL0     H11485   2.292   4.690   6.952  1.0447 -2.6688  2.8905
  826MOL0     H11486   2.187   4.789   7.172 -0.9008  0.5771  0.5974
  826MOL0     H11487   2.258   4.940   7.103  1.3721 -0.5090 -1.9608
  826MOL0     H11488   2.051   4.756   6.945 -1.8021  1.7353 -2.0645
  826MOL0     H11489   2.123   4.888   6.888  1.2707 -0.2983  0.3024
  826MOL0     H11490   2.030   5.039   7.061  2.9718 -1.9078 -0.2644
  826MOL0     H11491   1.992   4.916   7.167 -2.1517  1.6295  0.6236
  826MOL0     H11492   3.038   5.233   6.954 -0.3649 -0.8828  0.3417
  826MOL0     H11493   3.256   5.249   7.070 -0.9036  0.6861 -0.3519
  826MOL0     H11494   3.495   5.417   7.382 -0.3487  0.0173 -0.6651
  826MOL0     H11495   3.742   5.476   7.469  3.8827 -2.3905  2.1919
  826MOL0     H11496   5.401   4.330   8.257  1.0705  0.0870 -0.3772
  826MOL0     H11497   5.524   4.101   8.193  1.1339 -1.1262 -1.4214
  826MOL0     H11498   5.525   3.672   7.796 -0.1165 -1.4855  1.6209
  826MOL0     H11499   5.673   3.504   7.776  0.5796 -0.3249 -0.2625
  826MOL0     H11500   5.786   3.320   7.929 -0.8881 -0.3070 -0.7663
  826MOL0     H11501   5.825   3.342   7.779 -0.6020 -0.5062  1.3236
  826MOL0     H11502   6.036   3.270   7.977 -1.6835  0.2907  1.6564
  826MOL0     H11503   6.059   3.285   7.791 -2.7260  0.0622 -1.1368
  826MOL0     H11504   5.862   3.107   7.766  1.3414  2.6635 -1.8161
  826MOL0     H11505   5.860   3.092   7.939  1.1151  0.2186 -0.2829
  826MOL0     H11506   5.995   2.908   7.854  0.9710 -0.9765  1.1306
  826MOL0     H11507   6.099   3.010   7.941 -1.5169  3.0372  2.2481
  826MOL0     H11508   6.247   3.002   7.539 -0.3089  0.5861 -1.1223
  826MOL0     H11509   5.958   3.704   8.016 -0.5901 -2.4802 -0.0834
  826MOL0     H11510   5.784   3.907   8.037 -0.6288  1.7602 -1.8946
  827MOL0     O11511   9.381   2.905   8.535 -0.6570 -1.0939  0.1516
  827MOL0     C11512   9.490   2.851   8.493  0.3218  0.5392  0.1113
  827MOL0     O11513   9.612   2.918   8.474 -0.2601 -0.2232 -0.4414
  827MOL0     C11514   9.635   3.051   8.480 -0.2082  0.2974 -0.0005
  827MOL0     C11515   9.773   3.086   8.491  0.7064  0.2832  0.1402
  827MOL0     C11516   9.817   3.221   8.494 -0.2731  1.3323  0.3358
  827MOL0     C11517   9.718   3.330   8.490 -0.6904 -0.1047 -0.5660
  827MOL0     O11518   9.747   3.462   8.522  0.5782  0.3706  0.8793
  827MOL0     C11519   9.887   3.507   8.506 -0.2836  0.1752 -0.4978
  827MOL0     C11520   9.869   3.650   8.544  0.2384 -0.1575  0.4763
  827MOL0     C11521  10.003   3.714   8.509  0.1563 -0.1006  0.8789
  827MOL0     C11522  10.004   3.859   8.560 -1.3137 -0.6679  1.3546
  827MOL0     C11523  10.145   3.932   8.530 -0.3823  0.4817  0.0072
  827MOL0     C11524  10.154   4.073   8.588 -0.8789  0.0869 -0.2391
  827MOL0     C11525  10.037   4.161   8.537 -0.2825 -0.1341 -0.0095
  827MOL0     C11526  10.036   4.282   8.635  0.4484  0.2727  0.5314
  827MOL0     N11527  10.118   4.396   8.594  0.2968 -0.1222  0.2700
  827MOL0     C11528  10.183   4.492   8.676 -0.4652 -0.4493 -0.2565
  827MOL0     C11529  10.219   4.595   8.595  0.8254  0.5797 -0.9241
  827MOL0     C11530  10.308   4.710   8.615 -0.2740 -0.1814  0.5547
  827MOL0     C11531  10.432   4.687   8.708 -0.5854 -0.0218  0.2725
  827MOL0     C11532  10.503   4.811   8.755  0.4912  0.4217  1.3399
  827MOL0     C11533  10.428   4.908   8.850 -0.2440  0.5191 -0.5502
  827MOL0     O11534  10.409   4.838   8.980 -0.0449  0.9241  0.9500
  827MOL0     C11535  10.287   4.788   9.020 -0.3804  0.0994  0.3004
  827MOL0     C11536  10.275   4.759   9.150 -0.6874  0.0504  0.2042
  827MOL0     C11537  10.163   4.732   9.217  0.3775  0.0360  0.1861
  827MOL0     C11538  10.170   4.720   9.360 -0.8182  0.6368 -0.9456
  827MOL0     C11539  10.038   4.725   9.138 -0.2437 -0.0335  0.2535
  827MOL0     C11540   9.915   4.662   9.187 -0.0978 -1.1258 -0.4700
  827MOL0     O11541   9.797   4.711   9.130  0.1541 -0.3513  0.1095
  827MOL0     C11542   9.665   4.672   9.169  0.2043 -0.3221  0.6895
  827MOL0     C11543   9.615   4.629   9.289  0.6624 -0.0228 -0.1318
  827MOL0     C11544   9.479   4.602   9.318 -0.2559  0.6245  0.5790
  827MOL0     C11545   9.386   4.605   9.209  0.8837  0.3101 -0.3547
  827MOL0     O11546   9.250   4.578   9.201 -0.1478 -0.3747 -0.0407
  827MOL0     C11547   9.175   4.555   9.324 -0.6127 -0.7897 -0.7409
  827MOL0     C11548   9.035   4.514   9.289  0.0299  0.1169 -0.5078
  827MOL0     C11549   8.985   4.402   9.370  0.8316  0.1016 -0.1395
  827MOL0     C11550   8.822   4.397   9.379 -0.6100  0.3518  0.3542
  827MOL0     C11551   8.766   4.270   9.442  0.1781  0.7336  0.3695
  827MOL0     C11552   8.612   4.272   9.460  0.6193 -0.8860 -0.0415
  827MOL0     C11553   8.544   4.241   9.331 -0.2843  1.4118  0.0806
  827MOL0     C11554   8.387   4.240   9.331  0.2777  0.4314 -0.4589
  827MOL0    Cl11555   8.308   4.081   9.363  0.0808  0.1875 -0.2088
  827MOL0     C11556   9.445   4.640   9.084  0.8739 -0.2167  0.1265
  827MOL0     C11557   9.575   4.681   9.064  0.8467  0.6417  0.8623
  827MOL0     O11558   9.931   4.561   9.256 -0.9627 -1.4623  0.1689
  827MOL0     C11559  10.040   4.749   9.003 -1.2514  0.9474 -0.1605
  827MOL0     C11560  10.167   4.778   8.948 -0.5712  0.6240  0.2011
  827MOL0     N11561  10.193   4.560   8.461  0.1496  0.9118 -0.4924
  827MOL0     N11562  10.131   4.449   8.464  0.1174 -0.3552 -0.0825
  827MOL0     C11563   9.586   3.290   8.469  0.3919 -0.0168  0.1587
  827MOL0     C11564   9.541   3.152   8.462 -0.0149 -0.3942  0.3819
  827MOL0     C11565   9.480   2.701   8.454 -0.6098  0.9846 -0.2704
  827MOL0     C11566   9.589   2.617   8.418  0.9475  0.0226 -0.1467
  827MOL0     C11567   9.562   2.491   8.364 -0.7671  0.3193  0.0629
  827MOL0     C11568   9.434   2.436   8.369 -0.0074  0.8237 -0.3904
  827MOL0     O11569   9.386   2.316   8.324  0.1488 -0.2249  0.1437
  827MOL0     C11570   9.482   2.234   8.247  0.5294 -0.2962  0.6289
  827MOL0     C11571   9.487   2.262   8.098  0.5863  0.0031  0.4494
  827MOL0     C11572   9.366   2.190   8.021 -0.0560 -0.1445 -0.2876
  827MOL0     C11573   9.380   2.030   8.034  0.5848 -0.5149 -0.1894
  827MOL0     C11574   9.273   1.951   7.994  0.9689  0.0033 -1.0701
  827MOL0     C11575   9.178   1.875   7.993  0.4837 -0.4952 -0.1081
  827MOL0     C11576   9.328   2.509   8.423 -0.2130 -1.0059 -0.3004
  827MOL0     C11577   9.351   2.645   8.470  0.2213  0.6654 -0.3372
  827MOL0     H11578   9.847   3.007   8.498 -1.3369 -1.6815  0.9355
  827MOL0     H11579   9.925   3.227   8.498 -0.1898 -0.1842  0.5855
  827MOL0     H11580   9.961   3.463   8.573  0.0284  1.4431  0.0116
  827MOL0     H11581   9.920   3.499   8.402  0.9158  0.3553 -0.1475
  827MOL0     H11582   9.791   3.704   8.490  4.2013  4.2169 -1.6561
  827MOL0     H11583   9.858   3.668   8.651  0.9502  3.6951  0.0405
  827MOL0     H11584  10.091   3.667   8.553  1.7726  3.5571  1.9303
  827MOL0     H11585  10.012   3.715   8.400 -0.8417  0.1469  0.7881
  827MOL0     H11586   9.924   3.913   8.507  1.2389  2.3531  0.2292
  827MOL0     H11587   9.990   3.857   8.669  1.0777 -0.2473  1.7240
  827MOL0     H11588  10.228   3.873   8.570  1.5156  2.6048 -0.5426
  827MOL0     H11589  10.152   3.925   8.421 -1.8258  1.5946 -0.1890
  827MOL0     H11590  10.141   4.072   8.696 -1.6980 -1.3970 -0.3235
  827MOL0     H11591  10.256   4.112   8.575 -0.2927 -0.2131  2.8559
  827MOL0     H11592  10.043   4.182   8.430 -0.3397  0.1239  0.0364
  827MOL0     H11593   9.936   4.119   8.541 -1.0785  1.4465 -1.7527
  827MOL0     H11594  10.072   4.255   8.735 -0.0770  1.6319  1.1183
  827MOL0     H11595   9.934   4.318   8.647  1.0848  1.3833  3.4292
  827MOL0     H11596  10.208   4.477   8.781  1.6791 -3.0931 -1.0386
  827MOL0     H11597  10.348   4.729   8.515 -2.9892  0.5886 -0.4621
  827MOL0     H11598  10.261   4.803   8.648  0.8160  0.3077  0.7727
  827MOL0     H11599  10.507   4.626   8.657  1.0149  1.3077  0.9339
  827MOL0     H11600  10.404   4.639   8.802 -0.7966  0.8101  0.6503
  827MOL0     H11601  10.535   4.863   8.664 -0.0560  0.4011  1.1310
  827MOL0     H11602  10.587   4.784   8.819  0.3755  1.4886  1.9808
  827MOL0     H11603  10.339   4.951   8.803 -1.0897 -2.5605 -2.0387
  827MOL0     H11604  10.501   4.985   8.876  1.1835 -1.3602  1.3340
  827MOL0     H11605  10.361   4.768   9.216 -0.8028  1.0114  0.2317
  827MOL0     H11606  10.241   4.800   9.386 -0.3182  0.8035 -2.6982
  827MOL0     H11607  10.083   4.745   9.422  0.6509 -0.2997  1.6783
  827MOL0     H11608  10.217   4.627   9.390 -1.7671  1.5205  4.3327
  827MOL0     H11609   9.681   4.615   9.374 -1.2759  0.3165  1.5105
  827MOL0     H11610   9.446   4.567   9.415  0.0452 -1.5884 -0.0641
  827MOL0     H11611   9.229   4.488   9.391 -0.7860  2.2529  2.7657
  827MOL0     H11612   9.175   4.651   9.376  1.0217 -0.1282 -1.8717
  827MOL0     H11613   8.971   4.603   9.289  0.4890  0.4741  1.1953
  827MOL0     H11614   9.041   4.474   9.187 -2.2713 -1.7324  0.0074
  827MOL0     H11615   9.011   4.413   9.475 -1.0004 -1.8154  0.5962
  827MOL0     H11616   9.028   4.306   9.339 -0.3996 -0.8045  0.8090
  827MOL0     H11617   8.806   4.475   9.455  0.6783  0.0574  0.9634
  827MOL0     H11618   8.786   4.408   9.277  2.2909  3.3812 -0.5580
  827MOL0     H11619   8.812   4.254   9.540  3.7806 -0.7607 -1.3771
  827MOL0     H11620   8.799   4.181   9.387 -1.0438 -0.0724  0.9037
  827MOL0     H11621   8.593   4.192   9.532 -1.2574  0.2588  0.8177
  827MOL0     H11622   8.588   4.367   9.508 -0.7717 -0.9832 -0.4830
  827MOL0     H11623   8.575   4.137   9.317 -3.5893  0.4127 -0.5935
  827MOL0     H11624   8.575   4.307   9.249  1.5371 -1.0502 -1.3502
  827MOL0     H11625   8.347   4.273   9.235  1.1713 -3.1146 -2.2165
  827MOL0     H11626   8.350   4.311   9.406  0.3749 -1.7695  1.8150
  827MOL0     H11627   9.370   4.657   9.008  2.1160 -0.9364 -1.3292
  827MOL0     H11628   9.605   4.721   8.968  1.7141  0.1534  0.9236
  827MOL0     H11629   9.947   4.739   8.947 -1.2856  4.5452 -1.0406
  827MOL0     H11630  10.163   4.784   8.840 -0.0163 -1.0792  0.0541
  827MOL0     H11631   9.513   3.368   8.449 -1.4552 -1.1020  2.1997
  827MOL0     H11632   9.435   3.128   8.459 -0.2006  0.3848  0.2561
  827MOL0     H11633   9.688   2.660   8.418  1.2364 -0.6154 -0.9435
  827MOL0     H11634   9.636   2.439   8.304 -0.8711  0.0444  0.1745
  827MOL0     H11635   9.584   2.240   8.286  1.0220  3.9544 -0.8386
  827MOL0     H11636   9.456   2.130   8.269  2.6676 -0.8180  0.8782
  827MOL0     H11637   9.580   2.229   8.050  1.5916  0.1793  2.1808
  827MOL0     H11638   9.472   2.370   8.096 -2.3620 -0.3061  1.5236
  827MOL0     H11639   9.372   2.218   7.916 -1.6864  0.1376 -0.3320
  827MOL0     H11640   9.269   2.223   8.060  0.4174 -1.7767  2.5831
  827MOL0     H11641   9.403   1.998   8.136 -1.4395  1.1022  0.8383
  827MOL0     H11642   9.469   2.004   7.977  2.6926 -2.2034  3.4783
  827MOL0     H11643   9.087   1.818   7.997 -1.4112  2.0970 -2.5310
  827MOL0     H11644   9.230   2.465   8.430  0.1900 -1.7262  1.2996
  827MOL0     H11645   9.265   2.696   8.512 -0.0773 -0.8764  1.0860
  828MOL0     O11646   5.151  11.335   7.685 -0.2916  0.3549 -0.0190
  828MOL0     C11647   5.182  11.232   7.621 -1.2421  0.2105  0.1049
  828MOL0     O11648   5.141  11.179   7.508  0.5378 -0.4278  0.3049
  828MOL0     C11649   5.073  11.274   7.433 -0.4562  0.6280 -0.2221
  828MOL0     C11650   4.956  11.320   7.477 -0.5012  0.3640 -1.4291
  828MOL0     C11651   4.884  11.412   7.404 -0.1031  0.2771 -0.0985
  828MOL0     C11652   4.936  11.471   7.290 -0.1275  0.7655  0.1737
  828MOL0     O11653   4.870  11.562   7.213 -0.7663  0.6744 -0.1743
  828MOL0     C11654   4.765  11.642   7.264 -0.2776  0.5267  1.1331
  828MOL0     C11655   4.739  11.757   7.164  0.0299  0.3534 -0.3812
  828MOL0     C11656   4.737  11.708   7.025  0.1389 -0.1600  0.7350
  828MOL0     C11657   4.675  11.822   6.931  0.1795 -0.4752  0.3191
  828MOL0     C11658   4.662  11.776   6.793 -0.4855 -0.4986 -0.3990
  828MOL0     C11659   4.796  11.756   6.719  0.0168 -0.3669  0.1625
  828MOL0     C11660   4.788  11.713   6.575 -0.8302  0.0505  0.0418
  828MOL0     C11661   4.681  11.610   6.538 -0.2459 -0.3948 -0.7808
  828MOL0     N11662   4.718  11.466   6.542 -1.4069  0.4929  0.0284
  828MOL0     C11663   4.838  11.410   6.493  0.4073  0.0446 -0.2770
  828MOL0     C11664   4.841  11.284   6.524 -0.0859  0.5439 -0.1906
  828MOL0     C11665   4.965  11.189   6.504  0.4093 -0.1175  0.0854
  828MOL0     C11666   5.067  11.198   6.623  0.8163  0.2934 -0.2147
  828MOL0     C11667   5.207  11.137   6.595 -0.5663 -0.1713 -0.2985
  828MOL0     C11668   5.314  11.226   6.652 -0.7149 -0.0014 -0.4256
  828MOL0     O11669   5.310  11.268   6.792  0.6845 -0.3135 -0.2458
  828MOL0     C11670   5.385  11.192   6.883 -0.0834  0.6650  0.6701
  828MOL0     C11671   5.431  11.267   6.987 -0.3594  0.3253 -0.2632
  828MOL0     C11672   5.517  11.215   7.085  0.3314  0.2263  0.1964
  828MOL0     C11673   5.572  11.304   7.187 -0.2793  0.2455 -0.3325
  828MOL0     C11674   5.545  11.079   7.087  0.1368 -0.2918  0.2033
  828MOL0     C11675   5.607  11.012   7.208 -1.1459  0.4707 -1.5954
  828MOL0     O11676   5.658  10.886   7.181 -0.7085  0.2375  0.5044
  828MOL0     C11677   5.728  10.813   7.268  0.2750 -0.9020 -0.8534
  828MOL0     C11678   5.674  10.699   7.330 -0.4698 -0.9614 -0.6432
  828MOL0     C11679   5.748  10.603   7.399  0.5244 -0.8135 -0.0322
  828MOL0     C11680   5.883  10.616   7.417 -0.3102 -0.5046  0.1543
  828MOL0     O11681   5.952  10.536   7.504  0.5332  0.3530 -0.6364
  828MOL0     C11682   6.081  10.582   7.559  0.0707 -0.0609 -0.6418
  828MOL0     C11683   6.141  10.495   7.675  0.1111  0.5750  0.6955
  828MOL0     C11684   6.300  10.501   7.692  0.5176 -0.5684 -0.1800
  828MOL0     C11685   6.358  10.446   7.828 -0.9433 -0.7047 -0.0413
  828MOL0     C11686   6.309  10.313   7.871  0.7235 -0.0789 -0.3924
  828MOL0     C11687   6.363  10.199   7.792 -0.9704  0.1009  1.0641
  828MOL0     C11688   6.278  10.070   7.805  0.6536  0.0583  0.2477
  828MOL0     C11689   6.312   9.954   7.712 -0.7911 -0.0219 -1.0331
  828MOL0    Cl11690   6.312   9.998   7.536 -0.4488 -0.2198 -0.2730
  828MOL0     C11691   5.943  10.733   7.351 -0.7115  0.1180 -0.0198
  828MOL0     C11692   5.870  10.831   7.275 -0.5768  0.1321  0.5234
  828MOL0     O11693   5.623  11.061   7.321  0.3949 -0.3146 -0.0349
  828MOL0     C11694   5.511  11.002   6.978 -1.1421  0.2607 -0.3272
  828MOL0     C11695   5.437  11.059   6.868  1.4382 -0.8998  0.6718
  828MOL0     N11696   4.727  11.251   6.594 -1.0742 -1.1469 -0.4299
  828MOL0     N11697   4.652  11.359   6.595 -0.1050 -0.2801  0.1215
  828MOL0     C11698   5.061  11.434   7.238  0.4612  0.7564 -0.4597
  828MOL0     C11699   5.137  11.336   7.321  0.2786  1.3788  0.7444
  828MOL0     C11700   5.294  11.139   7.674  0.1976 -0.8010  0.4121
  828MOL0     C11701   5.370  11.055   7.584  0.3369  0.8321 -0.6674
  828MOL0     C11702   5.465  10.969   7.631  0.0923 -0.5083 -0.2787
  828MOL0     C11703   5.498  10.978   7.773 -0.9680  0.3993 -0.0058
  828MOL0     O11704   5.583  10.884   7.831 -0.5408  0.3181  0.2301
  828MOL0     C11705   5.675  10.811   7.753 -0.0726  1.1087  0.5458
  828MOL0     C11706   5.747  10.699   7.833  1.0896 -0.9591  0.9105
  828MOL0     C11707   5.862  10.753   7.914 -0.0065  0.6867  0.3950
  828MOL0     C11708   5.822  10.783   8.058  0.7107  0.6637 -1.0815
  828MOL0     C11709   5.901  10.898   8.107  0.1782 -0.2748 -1.1692
  828MOL0     C11710   5.950  11.002   8.144 -0.1602  0.8855  0.2032
  828MOL0     C11711   5.427  11.063   7.850 -0.5303  0.1736  0.4939
  828MOL0     C11712   5.319  11.141   7.810  0.5755 -0.3544  0.3070
  828MOL0     H11713   4.906  11.276   7.563 -1.4064  4.7065  0.5468
  828MOL0     H11714   4.794  11.447   7.454 -0.0345 -1.9485  1.7181
  828MOL0     H11715   4.672  11.585   7.276 -0.0135 -0.0793  0.3492
  828MOL0     H11716   4.778  11.685   7.364  0.9402 -1.4227  1.8520
  828MOL0     H11717   4.635  11.776   7.192  0.4101 -0.2321  1.6037
  828MOL0     H11718   4.803  11.846   7.171 -1.1073  1.1877 -0.2129
  828MOL0     H11719   4.834  11.676   6.985 -0.0381 -0.9368  0.8992
  828MOL0     H11720   4.668  11.624   7.010 -0.1207 -0.0187  1.1345
  828MOL0     H11721   4.580  11.862   6.967 -0.6361 -0.3369 -1.8491
  828MOL0     H11722   4.740  11.910   6.933 -0.9884  0.6021 -2.7819
  828MOL0     H11723   4.610  11.680   6.801  0.8789 -1.1655  0.9347
  828MOL0     H11724   4.599  11.856   6.752 -0.3940 -0.4187 -0.3862
  828MOL0     H11725   4.860  11.844   6.712 -1.0450  0.3189 -1.6427
  828MOL0     H11726   4.844  11.677   6.777  0.2814  1.5481  2.7412
  828MOL0     H11727   4.794  11.800   6.509 -0.1682  0.0835  0.1377
  828MOL0     H11728   4.877  11.657   6.544 -1.3133 -0.7836  0.1541
  828MOL0     H11729   4.660  11.630   6.433 -1.5123  0.4266 -0.3944
  828MOL0     H11730   4.594  11.612   6.603 -0.7163 -2.1359 -1.3122
  828MOL0     H11731   4.922  11.463   6.450 -2.2716  3.3060 -1.9993
  828MOL0     H11732   4.928  11.086   6.495  2.3275 -0.9402  1.0493
  828MOL0     H11733   5.020  11.215   6.414 -2.1937  2.1790 -0.9806
  828MOL0     H11734   5.024  11.165   6.718  0.1463  2.0056  0.1044
  828MOL0     H11735   5.088  11.304   6.639  0.2827  1.6374 -6.0734
  828MOL0     H11736   5.231  11.105   6.493  1.8571  0.4373  0.0125
  828MOL0     H11737   5.209  11.047   6.657  2.5800  0.6930  1.0707
  828MOL0     H11738   5.317  11.328   6.611 -0.6077  0.2534  0.2102
  828MOL0     H11739   5.414  11.186   6.631 -0.5776  0.7891 -1.3598
  828MOL0     H11740   5.391  11.368   6.984 -1.3751 -0.0878 -1.2264
  828MOL0     H11741   5.679  11.315   7.165 -0.2437 -0.8289 -0.7536
  828MOL0     H11742   5.512  11.395   7.184 -2.0877 -0.8903 -0.1933
  828MOL0     H11743   5.556  11.281   7.293  1.6346  1.4734  0.2704
  828MOL0     H11744   5.568  10.679   7.328 -0.4061 -1.2743 -1.8570
  828MOL0     H11745   5.718  10.509   7.444 -3.5565  0.2228 -0.1558
  828MOL0     H11746   6.165  10.583   7.489 -1.4024  1.7999 -2.5242
  828MOL0     H11747   6.072  10.687   7.588 -0.0871  0.0995 -1.2545
  828MOL0     H11748   6.102  10.515   7.776  1.8535 -1.7905  1.9399
  828MOL0     H11749   6.131  10.387   7.660 -0.6040  0.3403  2.5472
  828MOL0     H11750   6.331  10.604   7.673  3.1550 -1.4785 -1.3719
  828MOL0     H11751   6.352  10.442   7.616  0.9616 -0.4818  0.0516
  828MOL0     H11752   6.467  10.451   7.826 -0.8797 -1.3283 -3.1067
  828MOL0     H11753   6.338  10.512   7.913  0.8144 -0.2677  0.0578
  828MOL0     H11754   6.199  10.311   7.870  0.6977  0.2456 -2.4185
  828MOL0     H11755   6.338  10.294   7.974 -1.1974  0.0652  0.2200
  828MOL0     H11756   6.360  10.235   7.689 -0.4382  1.6675  1.5662
  828MOL0     H11757   6.468  10.183   7.821  0.3327  0.1124 -2.9897
  828MOL0     H11758   6.173  10.100   7.797  0.8463  0.6623 -0.1155
  828MOL0     H11759   6.297  10.034   7.906  1.3014 -1.3881 -0.3581
  828MOL0     H11760   6.246   9.867   7.718 -1.8524  0.8439  0.2090
  828MOL0     H11761   6.414   9.915   7.721 -0.0813  1.8303 -0.6675
  828MOL0     H11762   6.048  10.753   7.370 -0.9581  0.9680  0.5075
  828MOL0     H11763   5.921  10.922   7.245  1.1183 -0.7896  0.4950
  828MOL0     H11764   5.547  10.900   6.969 -0.6060  0.4040  0.0855
  828MOL0     H11765   5.416  10.995   6.784  1.7885  0.6557 -0.6470
  828MOL0     H11766   5.108  11.467   7.146  0.3628 -0.7477 -1.0902
  828MOL0     H11767   5.233  11.301   7.286 -1.2756 -2.1155 -0.4999
  828MOL0     H11768   5.343  11.037   7.481 -1.6831 -6.3608  0.5917
  828MOL0     H11769   5.504  10.894   7.562  0.0933 -0.1041 -0.7169
  828MOL0     H11770   5.616  10.759   7.676  2.5000 -2.4304  0.7314
  828MOL0     H11771   5.757  10.868   7.710  1.4947 -1.0436  0.4948
  828MOL0     H11772   5.782  10.626   7.759 -1.0401 -0.8325 -0.3047
  828MOL0     H11773   5.670  10.649   7.892  1.8284  0.6408  3.3671
  828MOL0     H11774   5.897  10.847   7.869 -2.5870  2.4149  1.7605
  828MOL0     H11775   5.944  10.681   7.917 -1.0515 -0.7039 -2.0252
  828MOL0     H11776   5.841  10.689   8.112 -0.2614  0.4706 -1.0595
  828MOL0     H11777   5.721  10.818   8.080  1.5723  1.5417  2.1028
  828MOL0     H11778   6.014  11.082   8.176 -1.5171  2.6832 -1.3343
  828MOL0     H11779   5.459  11.068   7.954 -0.8228  2.1916  0.5343
  828MOL0     H11780   5.270  11.204   7.884  2.2667 -0.7186  1.8080
  829MOL0     O11781   7.906  10.839   8.669  0.3603 -0.0333  0.4124
  829MOL0     C11782   7.862  10.943   8.633 -0.7603  0.1877 -0.1940
  829MOL0     O11783   7.840  11.050   8.715 -0.5842 -0.1888  0.0968
  829MOL0     C11784   7.844  11.040   8.850 -0.2173 -0.6101 -0.4557
  829MOL0     C11785   7.770  10.946   8.921 -0.2526 -0.6931  0.6202
  829MOL0     C11786   7.782  10.945   9.058  0.7772  0.0899 -0.3149
  829MOL0     C11787   7.864  11.038   9.128  0.5735 -0.3034 -0.1789
  829MOL0     O11788   7.861  11.039   9.266 -0.2103 -0.6020 -0.0455
  829MOL0     C11789   7.829  10.925   9.336  0.6601  0.0249  0.6964
  829MOL0     C11790   7.878  10.947   9.476  1.2798  0.1874 -0.2909
  829MOL0     C11791   7.785  11.019   9.567  0.4776  0.2985 -0.3235
  829MOL0     C11792   7.841  11.072   9.704  0.8414  0.1528 -0.1154
  829MOL0     C11793   7.742  11.062   9.819 -1.4627 -0.8603 -0.3445
  829MOL0     C11794   7.803  11.119   9.956  0.2343  0.7704  0.7135
  829MOL0     C11795   7.680  11.118  10.046  0.3427  0.3268 -0.0234
  829MOL0     C11796   7.718  11.178  10.178  0.8428 -0.3913 -0.4870
  829MOL0     N11797   7.601  11.219  10.270 -0.2650 -0.0733 -0.9811
  829MOL0     C11798   7.485  11.153  10.299  0.9092 -0.8421  0.3872
  829MOL0     C11799   7.404  11.246  10.356  0.3525  0.0624 -0.6300
  829MOL0     C11800   7.259  11.227  10.373 -0.5698  0.1474 -0.2910
  829MOL0     C11801   7.212  11.290  10.508  0.3903  0.4643  0.3547
  829MOL0     C11802   7.269  11.225  10.640  0.7088 -0.2363  0.3820
  829MOL0     C11803   7.258  11.318  10.759 -0.1514 -0.1476 -0.0588
  829MOL0     O11804   7.124  11.350  10.800 -0.4151  0.0784  0.7015
  829MOL0     C11805   7.109  11.409  10.922 -0.5172 -0.0984  0.0801
  829MOL0     C11806   7.195  11.503  10.965 -0.6051  0.9190 -0.1438
  829MOL0     C11807   7.168  11.585  11.061 -0.6941  0.7416  0.7482
  829MOL0     C11808   7.270  11.684  11.113 -0.6476 -0.6305  0.1398
  829MOL0     C11809   7.044  11.578  11.124  1.5210 -0.1084 -0.4875
  829MOL0     C11810   6.977  11.671  11.219 -0.6480 -0.8898 -0.2903
  829MOL0     O11811   6.884  11.619  11.305  1.0020 -0.9097 -0.0797
  829MOL0     C11812   6.828  11.687  11.410  0.3773 -0.2706  1.0669
  829MOL0     C11813   6.716  11.640  11.471  0.0558  0.8744 -0.0802
  829MOL0     C11814   6.653  11.710  11.576  0.4939 -0.1708 -0.0927
  829MOL0     C11815   6.703  11.833  11.614 -0.9658  1.3717  0.5049
  829MOL0     O11816   6.638  11.888  11.715 -0.2774  0.3421  0.6405
  829MOL0     C11817   6.607  12.025  11.692 -0.0504 -0.2021 -0.5062
  829MOL0     C11818   6.499  12.081  11.783  0.1430  0.1729 -0.1489
  829MOL0     C11819   6.478  12.235  11.767  0.2934 -0.0188 -0.1344
  829MOL0     C11820   6.353  12.273  11.857  0.4434  0.2202  0.5238
  829MOL0     C11821   6.311  12.422  11.866  0.0575 -0.2613 -0.2359
  829MOL0     C11822   6.176  12.427  11.925  0.2431 -0.2655 -0.0450
  829MOL0     C11823   6.134  12.572  11.932  0.3533  0.7661 -0.9740
  829MOL0     C11824   5.995  12.609  12.002 -0.6433  0.5191 -1.0097
  829MOL0    Cl11825   5.962  12.524  12.161 -0.4560  0.5601  0.0850
  829MOL0     C11826   6.827  11.875  11.565 -0.4573  0.5169 -0.6564
  829MOL0     C11827   6.889  11.798  11.468  0.1947  0.1871 -0.6170
  829MOL0     O11828   6.997  11.795  11.206  0.7337 -0.0826 -0.4215
  829MOL0     C11829   6.954  11.478  11.083 -0.5710 -0.6905 -0.3194
  829MOL0     C11830   6.982  11.402  10.978  0.2662  0.6665 -0.2187
  829MOL0     N11831   7.471  11.365  10.385 -0.3213 -0.6814  0.3950
  829MOL0     N11832   7.585  11.343  10.334 -0.6308  0.6312  0.1683
  829MOL0     C11833   7.926  11.133   9.063  0.0143  1.0132 -0.1038
  829MOL0     C11834   7.918  11.132   8.917  0.3348 -0.3740 -0.8818
  829MOL0     C11835   7.839  10.947   8.491  0.5374 -0.1907 -0.7528
  829MOL0     C11836   7.771  11.050   8.437  1.0383  0.6466  0.4871
  829MOL0     C11837   7.742  11.056   8.299 -0.1825  0.1501  0.8601
  829MOL0     C11838   7.774  10.945   8.213  0.6941 -0.7393  0.0735
  829MOL0     O11839   7.743  10.944   8.078  0.6041  0.8657 -0.8628
  829MOL0     C11840   7.717  11.072   8.011  0.4405  0.3290 -0.4350
  829MOL0     C11841   7.693  11.048   7.861 -0.0516 -0.1171  0.4110
  829MOL0     C11842   7.716  11.163   7.771 -0.8435 -0.8531 -0.4831
  829MOL0     C11843   7.632  11.286   7.813  0.7045 -0.3679 -0.1110
  829MOL0     C11844   7.714  11.381   7.890  0.2489 -0.6127  0.8757
  829MOL0     C11845   7.775  11.450   7.971 -0.4029 -0.3021  0.2309
  829MOL0     C11846   7.846  10.837   8.268 -0.8724  0.8749 -0.1893
  829MOL0     C11847   7.882  10.843   8.406 -1.0357  0.3708 -0.8229
  829MOL0     H11848   7.698  10.884   8.868  1.3038 -1.2203 -0.9582
  829MOL0     H11849   7.715  10.879   9.112 -0.6394  3.7919  2.9351
  829MOL0     H11850   7.724  10.894   9.330  0.2549  1.0585  1.8304
  829MOL0     H11851   7.896  10.847   9.301  1.3029  0.6428  0.5182
  829MOL0     H11852   7.872  10.844   9.513 -2.6795  0.6554  0.7738
  829MOL0     H11853   7.983  10.975   9.487  0.8787  1.9924 -0.7762
  829MOL0     H11854   7.762  11.105   9.504  0.6404  2.2166  2.1019
  829MOL0     H11855   7.700  10.957   9.599  0.1470  1.9240  2.2586
  829MOL0     H11856   7.926  11.011   9.737 -0.2915 -0.7354  1.2938
  829MOL0     H11857   7.871  11.177   9.693  0.2506  0.2194 -1.2532
  829MOL0     H11858   7.652  11.115   9.789 -0.9413  2.3810  3.1865
  829MOL0     H11859   7.718  10.959   9.850  2.3139 -2.1929 -1.2789
  829MOL0     H11860   7.885  11.055   9.989 -0.7263 -0.8567  0.0645
  829MOL0     H11861   7.838  11.222   9.945  1.6067  0.2589  0.1981
  829MOL0     H11862   7.591  11.162   9.999  1.8103 -0.3475 -3.8528
  829MOL0     H11863   7.649  11.014  10.056 -1.1947  0.8752  1.2280
  829MOL0     H11864   7.764  11.271  10.143 -0.0027  0.3801  0.3984
  829MOL0     H11865   7.783  11.115  10.240  1.3446  1.4525  0.9458
  829MOL0     H11866   7.440  11.062  10.262 -1.2490 -0.3254  1.5634
  829MOL0     H11867   7.214  11.285  10.293 -0.5050 -2.2331 -2.1646
  829MOL0     H11868   7.232  11.122  10.357  1.2406 -0.4056  0.0009
  829MOL0     H11869   7.103  11.293  10.521  0.2227 -0.0597 -0.7786
  829MOL0     H11870   7.243  11.394  10.501 -2.8517  1.4516 -1.5099
  829MOL0     H11871   7.376  11.216  10.614  0.3269  1.9652 -2.4837
  829MOL0     H11872   7.231  11.131  10.679  2.8170  0.1029  3.6232
  829MOL0     H11873   7.327  11.401  10.741  2.5785 -2.0315  0.9915
  829MOL0     H11874   7.294  11.272  10.851 -0.9248 -3.2334 -1.1547
  829MOL0     H11875   7.294  11.514  10.923 -0.1442 -1.7420  0.0856
  829MOL0     H11876   7.299  11.748  11.029 -0.0973  1.1562  1.6063
  829MOL0     H11877   7.233  11.747  11.195  0.5265 -1.5304  1.4063
  829MOL0     H11878   7.357  11.626  11.143  2.0111  1.6256 -2.6371
  829MOL0     H11879   6.673  11.545  11.442  2.6159  0.0237 -1.4807
  829MOL0     H11880   6.562  11.677  11.624  0.6129 -2.7024 -1.4297
  829MOL0     H11881   6.691  12.088  11.721 -0.4038  1.8448 -3.3648
  829MOL0     H11882   6.586  12.035  11.585  0.3175 -3.5105 -0.9890
  829MOL0     H11883   6.407  12.023  11.770  1.5017 -1.7376 -1.7810
  829MOL0     H11884   6.532  12.071  11.887 -1.1984  3.2482  0.6997
  829MOL0     H11885   6.459  12.257  11.662  2.5982  2.2520 -0.1816
  829MOL0     H11886   6.555  12.310  11.791  0.0268  0.3652 -0.4579
  829MOL0     H11887   6.267  12.219  11.817  1.0130 -0.9800  0.8834
  829MOL0     H11888   6.375  12.236  11.957  0.5896 -0.8025  0.1241
  829MOL0     H11889   6.313  12.475  11.770  4.7993 -0.5377 -0.4968
  829MOL0     H11890   6.388  12.487  11.908 -2.2286  1.1725  2.0138
  829MOL0     H11891   6.097  12.374  11.871  0.2598  2.1252 -2.6712
  829MOL0     H11892   6.182  12.396  12.029  0.8687 -1.7241 -0.4947
  829MOL0     H11893   6.118  12.590  11.825 -1.3343 -0.9447 -1.0547
  829MOL0     H11894   6.220  12.628  11.970  1.9056 -1.6317 -0.7783
  829MOL0     H11895   5.909  12.580  11.941 -3.1828 -0.3745  2.6325
  829MOL0     H11896   5.976  12.712  12.033 -3.3915 -0.2803  0.2786
  829MOL0     H11897   6.880  11.966  11.594 -3.3307  2.0535  0.2121
  829MOL0     H11898   6.989  11.834  11.445  0.6245  0.1426  1.0652
  829MOL0     H11899   6.856  11.483  11.130 -2.6268 -3.9395 -3.7839
  829MOL0     H11900   6.907  11.332  10.941 -1.4291  1.7611  1.0312
  829MOL0     H11901   7.981  11.209   9.117 -2.2604  0.8003  2.7450
  829MOL0     H11902   7.966  11.208   8.855  1.6891 -2.7533 -2.9365
  829MOL0     H11903   7.737  11.133   8.499  0.8341  0.8499  0.1093
  829MOL0     H11904   7.694  11.144   8.258  1.5207 -0.3274 -2.4586
  829MOL0     H11905   7.638  11.131   8.059 -1.8108 -2.5528 -0.3174
  829MOL0     H11906   7.822  11.102   8.022  2.3280 -3.9296 -3.6212
  829MOL0     H11907   7.589  11.028   7.834 -0.2892  1.2631  0.2293
  829MOL0     H11908   7.747  10.961   7.822 -2.9052 -1.4504 -0.8891
  829MOL0     H11909   7.672  11.142   7.673 -1.4904  3.0009 -1.1719
  829MOL0     H11910   7.820  11.173   7.736 -2.0003  1.4913 -3.7771
  829MOL0     H11911   7.553  11.254   7.882  0.5180 -2.6800 -1.3084
  829MOL0     H11912   7.592  11.342   7.728  0.1146 -0.6126  0.0029
  829MOL0     H11913   7.833  11.489   8.053 -1.9431 -3.2400  2.9684
  829MOL0     H11914   7.855  10.753   8.199 -3.0481 -0.5645  1.1374
  829MOL0     H11915   7.941  10.762   8.447  0.1770  1.3072 -0.6609
  830MOL0     O11916   0.736   4.939   8.165 -0.1017  0.2152  0.0907
  830MOL0     C11917   0.743   5.062   8.188  0.0005  1.1836 -0.1395
  830MOL0     O11918   0.851   5.147   8.179  0.2461 -0.2225  0.1783
  830MOL0     C11919   0.969   5.095   8.150 -0.2684 -0.6811  0.3216
  830MOL0     C11920   1.055   5.070   8.249  0.7196 -0.1157 -0.3846
  830MOL0     C11921   1.185   5.020   8.226 -1.1027 -0.2717 -0.3361
  830MOL0     C11922   1.229   5.018   8.097 -0.7444 -0.2496  0.2323
  830MOL0     O11923   1.366   4.982   8.082  0.4371 -0.2027  0.5669
  830MOL0     C11924   1.450   5.015   7.971 -0.0968  1.0931 -0.3257
  830MOL0     C11925   1.448   4.898   7.871  0.0101 -0.4856  0.4842
  830MOL0     C11926   1.515   4.778   7.922 -2.2921  0.2823  0.7649
  830MOL0     C11927   1.446   4.680   8.024  0.3480 -0.3819 -0.5589
  830MOL0     C11928   1.527   4.544   8.025 -0.2958 -0.4796  0.0451
  830MOL0     C11929   1.495   4.474   8.155 -0.0630 -0.0168 -0.7444
  830MOL0     C11930   1.595   4.374   8.202 -0.5616  1.2516  0.6684
  830MOL0     C11931   1.592   4.239   8.118 -0.9572 -0.1144 -0.3474
  830MOL0     N11932   1.703   4.151   8.151  0.1692 -0.2642  0.0872
  830MOL0     C11933   1.811   4.136   8.071  0.2399 -0.0150 -0.4621
  830MOL0     C11934   1.856   4.014   8.090 -0.5893 -0.2391  0.1815
  830MOL0     C11935   1.961   3.941   8.016 -0.2021 -0.4405  0.0865
  830MOL0     C11936   2.074   4.030   7.958 -0.5898  0.5626 -0.3925
  830MOL0     C11937   2.144   3.952   7.841 -0.2248 -0.2503  0.3603
  830MOL0     C11938   2.157   3.806   7.888 -0.2638  0.8242  0.8442
  830MOL0     O11939   2.227   3.742   7.785  1.0607  0.0469  0.7043
  830MOL0     C11940   2.234   3.606   7.796 -0.4688 -0.8176  0.7973
  830MOL0     C11941   2.213   3.534   7.919 -0.3653  0.0377 -0.6293
  830MOL0     C11942   2.226   3.395   7.926  0.9506  1.4912 -0.0270
  830MOL0     C11943   2.203   3.314   8.056  0.5384 -0.0489  0.3058
  830MOL0     C11944   2.261   3.324   7.812 -0.3703  0.8233  0.1582
  830MOL0     C11945   2.262   3.177   7.793  0.6835 -0.3883  0.3871
  830MOL0     O11946   2.323   3.131   7.683  0.7825 -0.6609  0.1919
  830MOL0     C11947   2.336   2.992   7.662 -0.0638 -0.6994 -0.0390
  830MOL0     C11948   2.238   2.930   7.582 -0.3651 -0.4163  0.7531
  830MOL0     C11949   2.254   2.793   7.556 -0.4282 -0.1777  0.2376
  830MOL0     C11950   2.360   2.722   7.600 -0.5968  0.2268  0.6812
  830MOL0     O11951   2.359   2.582   7.579  0.2549 -0.7743 -0.0463
  830MOL0     C11952   2.456   2.505   7.640  0.1045  0.8732  0.3036
  830MOL0     C11953   2.425   2.363   7.598  0.3253 -0.8876 -0.0007
  830MOL0     C11954   2.423   2.331   7.445  0.1518 -0.2796  0.2473
  830MOL0     C11955   2.568   2.290   7.390  0.4575  0.2425 -0.6805
  830MOL0     C11956   2.587   2.305   7.239 -1.0680  0.2252  0.2783
  830MOL0     C11957   2.723   2.221   7.193  1.2009 -0.9119 -0.8637
  830MOL0     C11958   2.748   2.229   7.048  0.1895 -0.1676  0.5586
  830MOL0     C11959   2.698   2.120   6.956  0.5138  0.1521  0.3129
  830MOL0    Cl11960   2.741   2.184   6.798  0.0896  0.2198  0.3311
  830MOL0     C11961   2.459   2.788   7.672  0.2748  0.2983  0.3610
  830MOL0     C11962   2.441   2.922   7.713 -0.4572  0.8263 -0.0544
  830MOL0     O11963   2.190   3.101   7.868  0.1485 -0.6480  0.1501
  830MOL0     C11964   2.275   3.392   7.694 -0.3443  0.4363  0.6104
  830MOL0     C11965   2.254   3.529   7.681 -0.0728 -0.8154 -0.2241
  830MOL0     N11966   1.790   3.957   8.193 -0.7066 -0.8717 -0.8276
  830MOL0     N11967   1.699   4.044   8.231 -0.9826  1.0862 -0.4288
  830MOL0     C11968   1.146   5.054   7.992  0.1386  0.2971 -0.6441
  830MOL0     C11969   1.015   5.092   8.016  0.8467 -0.3662  0.0237
  830MOL0     C11970   0.615   5.118   8.228 -0.0332 -0.5075  0.4477
  830MOL0     C11971   0.496   5.051   8.199  0.0585  0.3233 -0.4988
  830MOL0     C11972   0.373   5.110   8.232  0.5391 -0.7604 -0.4786
  830MOL0     C11973   0.366   5.244   8.283 -0.0595 -0.1081 -0.7075
  830MOL0     O11974   0.234   5.299   8.300 -0.2670  0.0798 -0.0917
  830MOL0     C11975   0.199   5.435   8.334 -0.5486  0.1541  0.1555
  830MOL0     C11976   0.239   5.542   8.218 -1.2162 -0.4023 -0.2483
  830MOL0     C11977   0.162   5.675   8.229 -0.8037 -0.3943  0.5269
  830MOL0     C11978   0.172   5.761   8.096  0.8671  0.1595 -0.0403
  830MOL0     C11979   0.079   5.871   8.109 -0.9123  0.5114  0.0353
  830MOL0     C11980   0.003   5.958   8.155 -0.2081 -0.8551 -0.7281
  830MOL0     C11981   0.483   5.316   8.305 -0.6110  0.3557  0.6648
  830MOL0     C11982   0.599   5.251   8.283  0.6314  0.2119 -0.6319
  830MOL0     H11983   0.997   5.079   8.341 -2.2380 -1.6018 -1.9515
  830MOL0     H11984   1.251   5.003   8.311 -1.9022  1.1476  0.6031
  830MOL0     H11985   1.431   5.119   7.941 -2.9069  1.2843  1.7581
  830MOL0     H11986   1.555   5.016   8.001  0.3570 -2.4729 -1.4004
  830MOL0     H11987   1.343   4.877   7.849  0.5269 -2.3353 -0.4070
  830MOL0     H11988   1.490   4.928   7.774 -0.0800 -2.3184 -0.1725
  830MOL0     H11989   1.556   4.715   7.843 -1.9628  0.1516  1.0361
  830MOL0     H11990   1.607   4.802   7.976  0.8732 -1.6550 -3.2873
  830MOL0     H11991   1.446   4.722   8.125  1.1031  0.0463 -0.7273
  830MOL0     H11992   1.340   4.665   8.000 -0.3284 -0.7964  2.3291
  830MOL0     H11993   1.505   4.479   7.940  2.4870 -0.5713 -0.7012
  830MOL0     H11994   1.635   4.562   8.035 -0.3687 -0.8748  2.0912
  830MOL0     H11995   1.502   4.554   8.229  0.5322 -0.5453 -0.2017
  830MOL0     H11996   1.392   4.438   8.158 -1.2482  2.2038 -5.6069
  830MOL0     H11997   1.697   4.410   8.219 -0.5121  1.7801 -0.6424
  830MOL0     H11998   1.561   4.351   8.304 -1.2376 -0.6791  0.0551
  830MOL0     H11999   1.608   4.285   8.020  2.4985  2.4207  1.2109
  830MOL0     H12000   1.493   4.191   8.124 -0.8331 -0.2711  0.7496
  830MOL0     H12001   1.841   4.208   7.995 -3.0972  1.8353 -0.2167
  830MOL0     H12002   1.983   3.861   8.088 -2.5349 -0.3134  1.0379
  830MOL0     H12003   1.906   3.913   7.926  1.5178 -3.5834 -0.1489
  830MOL0     H12004   2.144   4.062   8.036 -0.4347 -0.9887  0.1390
  830MOL0     H12005   2.032   4.118   7.908  0.8529  1.9586  0.7348
  830MOL0     H12006   2.244   3.990   7.818  0.6254 -3.0511 -1.0070
  830MOL0     H12007   2.083   3.960   7.750  1.2308 -0.7437 -0.7009
  830MOL0     H12008   2.064   3.749   7.901  0.8602 -1.9719 -2.1810
  830MOL0     H12009   2.218   3.796   7.979  3.8292  1.2586 -1.6184
  830MOL0     H12010   2.186   3.580   8.013  4.2121  0.0372  0.9209
  830MOL0     H12011   2.125   3.238   8.057  1.9160 -1.6074  3.3915
  830MOL0     H12012   2.288   3.256   8.093 -0.4714 -2.1517 -0.5347
  830MOL0     H12013   2.162   3.378   8.135 -2.9119 -0.4399 -1.0116
  830MOL0     H12014   2.156   2.983   7.534 -0.5586 -2.5410 -1.4177
  830MOL0     H12015   2.176   2.748   7.495 -2.3277  0.9338  1.7195
  830MOL0     H12016   2.550   2.544   7.600  0.0078 -0.0164 -0.8380
  830MOL0     H12017   2.471   2.508   7.748  1.2563  0.7861  0.1580
  830MOL0     H12018   2.500   2.291   7.634  2.5603  0.4749 -1.6635
  830MOL0     H12019   2.326   2.340   7.639  0.9808 -2.6155  0.7207
  830MOL0     H12020   2.396   2.425   7.394  1.7242 -0.4233 -0.9405
  830MOL0     H12021   2.341   2.261   7.428 -0.7489  0.8774 -0.4055
  830MOL0     H12022   2.646   2.352   7.436  0.3568  0.6715 -1.0838
  830MOL0     H12023   2.576   2.189   7.433 -0.7560  0.5861  0.4015
  830MOL0     H12024   2.609   2.402   7.194  1.0320  0.1152  0.9682
  830MOL0     H12025   2.498   2.263   7.191  0.5860 -1.8523 -1.1827
  830MOL0     H12026   2.808   2.270   7.241 -1.3866  1.1591  1.9926
  830MOL0     H12027   2.712   2.116   7.223  0.7995 -1.5993 -3.1915
  830MOL0     H12028   2.857   2.242   7.038 -0.3264  3.3014 -2.6793
  830MOL0     H12029   2.707   2.321   7.007 -1.1251 -1.7700 -1.9202
  830MOL0     H12030   2.591   2.096   6.954  0.4870 -0.2914 -4.5026
  830MOL0     H12031   2.764   2.036   6.979  2.1870  1.3832  0.2160
  830MOL0     H12032   2.547   2.733   7.706 -2.0265 -1.3338  4.4013
  830MOL0     H12033   2.520   2.971   7.769  1.8376 -0.4786 -1.9477
  830MOL0     H12034   2.291   3.344   7.598 -1.0665 -1.6426  1.4872
  830MOL0     H12035   2.258   3.576   7.583 -3.4230  0.1935  0.0114
  830MOL0     H12036   1.182   5.067   7.890 -0.5388  3.0942 -0.6094
  830MOL0     H12037   0.948   5.134   7.941 -0.5540  1.1597  2.0075
  830MOL0     H12038   0.487   4.952   8.156 -0.2683 -0.1197  0.5572
  830MOL0     H12039   0.277   5.061   8.218 -1.7084  3.0507  0.1937
  830MOL0     H12040   0.091   5.442   8.350 -0.6682 -2.4552  0.8621
  830MOL0     H12041   0.219   5.460   8.439 -3.0829 -1.2811  1.0677
  830MOL0     H12042   0.216   5.497   8.120 -0.2290  2.8999 -2.1457
  830MOL0     H12043   0.347   5.559   8.215 -0.2746 -4.8847  0.7776
  830MOL0     H12044   0.175   5.724   8.326 -0.7654 -2.1829  1.4707
  830MOL0     H12045   0.062   5.630   8.226 -0.0906 -2.1164  1.3908
  830MOL0     H12046   0.140   5.707   8.006 -0.4061  2.8741 -1.3300
  830MOL0     H12047   0.276   5.793   8.094  1.5975 -1.4725  3.7631
  830MOL0     H12048  -0.069   6.028   8.194  0.1778 -1.8582  2.0144
  830MOL0     H12049   0.487   5.415   8.348  0.2126  0.9514 -0.7005
  830MOL0     H12050   0.684   5.310   8.313 -1.4394  0.6951  5.6029
  831MOL0     O12051   0.420   1.660   3.049  0.5507 -1.0721  1.0785
  831MOL0     C12052   0.361   1.701   2.948  0.4785 -0.1482  0.1298
  831MOL0     O12053   0.222   1.698   2.931 -0.3446  0.4375  0.0535
  831MOL0     C12054   0.145   1.636   3.035 -0.7768 -0.0895  0.4278
  831MOL0     C12055   0.173   1.511   3.072 -0.0002  0.6134  1.1732
  831MOL0     C12056   0.106   1.451   3.167  0.5531  0.3024  0.1413
  831MOL0     C12057  -0.015   1.513   3.218  0.3707  1.5614 -0.3410
  831MOL0     O12058  -0.065   1.430   3.319  0.1137  0.0007 -0.1266
  831MOL0     C12059  -0.030   1.458   3.455  1.2682 -0.5943 -0.3137
  831MOL0     C12060  -0.030   1.330   3.523  0.4302  0.7024 -0.4493
  831MOL0     C12061  -0.176   1.288   3.533  0.7403 -0.3914 -0.0634
  831MOL0     C12062  -0.185   1.150   3.603  0.4868 -0.5247  0.6366
  831MOL0     C12063  -0.124   1.031   3.526  0.6208  0.0568  0.1681
  831MOL0     C12064  -0.153   0.908   3.609  0.1325  1.9021 -0.5452
  831MOL0     C12065  -0.071   0.786   3.554  0.1500  0.0846 -0.6759
  831MOL0     C12066  -0.112   0.654   3.605  0.4421 -0.8123  0.5738
  831MOL0     N12067  -0.114   0.633   3.750 -0.1944 -0.3244  0.2168
  831MOL0     C12068   0.007   0.616   3.811  0.3096  0.4676 -0.9742
  831MOL0     C12069  -0.026   0.571   3.940  0.0115  0.9873  0.4356
  831MOL0     C12070   0.063   0.538   4.059  0.3403  0.3212  0.3240
  831MOL0     C12071  -0.009   0.431   4.144 -0.2268  0.0743 -0.4044
  831MOL0     C12072   0.051   0.421   4.281 -0.3220 -0.3434 -0.1038
  831MOL0     C12073  -0.019   0.341   4.382 -1.0170  0.0739 -0.8917
  831MOL0     O12074  -0.008   0.202   4.351  0.5095  0.3992 -0.3011
  831MOL0     C12075  -0.074   0.113   4.438 -0.2102  0.7401  0.2846
  831MOL0     C12076  -0.169   0.028   4.384 -0.1244  0.5258 -0.2186
  831MOL0     C12077  -0.224  -0.070   4.458  0.0451  0.2281  0.5670
  831MOL0     C12078  -0.310  -0.165   4.393 -0.1397  1.1698 -0.2043
  831MOL0     C12079  -0.202  -0.077   4.596  0.7346 -0.2482  0.7006
  831MOL0     C12080  -0.285  -0.158   4.691  0.6382  0.9973  0.0498
  831MOL0     O12081  -0.414  -0.188   4.662 -0.5711 -0.9313  0.3058
  831MOL0     C12082  -0.494  -0.260   4.741  0.7231  0.7327  0.5131
  831MOL0     C12083  -0.568  -0.371   4.674  0.0419  0.3023 -0.6443
  831MOL0     C12084  -0.629  -0.475   4.753  0.5112 -0.0685  0.6365
  831MOL0     C12085  -0.631  -0.460   4.890  0.0802  0.5207  0.1720
  831MOL0     O12086  -0.676  -0.575   4.956 -0.2015  0.7261  0.1506
  831MOL0     C12087  -0.586  -0.694   4.942 -0.1204  0.5130  0.1132
  831MOL0     C12088  -0.649  -0.825   4.971  0.1760  0.0352 -0.2624
  831MOL0     C12089  -0.771  -0.865   4.900  1.0636 -0.6615 -0.5265
  831MOL0     C12090  -0.833  -0.976   4.987 -0.0723 -0.5439  0.2348
  831MOL0     C12091  -0.896  -1.086   4.904  0.5584 -0.3485  0.0406
  831MOL0     C12092  -0.812  -1.147   4.789  1.0298 -0.0392 -0.9968
  831MOL0     C12093  -0.679  -1.204   4.850 -0.0157  0.7460  0.3097
  831MOL0     C12094  -0.628  -1.328   4.780 -0.1161 -0.9241  0.9882
  831MOL0    Cl12095  -0.662  -1.461   4.892 -0.2200 -0.6101  0.2578
  831MOL0     C12096  -0.571  -0.357   4.958  0.9522 -0.4090 -0.4074
  831MOL0     C12097  -0.499  -0.258   4.883 -0.4772 -0.3622  0.3831
  831MOL0     O12098  -0.229  -0.187   4.793 -0.4136  0.0085 -1.0705
  831MOL0     C12099  -0.115   0.015   4.650 -0.6182  1.1376 -1.1742
  831MOL0     C12100  -0.051   0.107   4.575  0.1303 -0.5344  0.0427
  831MOL0     N12101  -0.162   0.557   3.939  0.7081  0.5261 -0.5011
  831MOL0     N12102  -0.215   0.607   3.841 -1.0052 -0.3491  0.2920
  831MOL0     C12103  -0.047   1.637   3.187  1.5292  0.0031 -0.7180
  831MOL0     C12104   0.028   1.693   3.091  0.7473  0.0510  0.2853
  831MOL0     C12105   0.432   1.768   2.837  0.8627 -0.5622  0.4531
  831MOL0     C12106   0.567   1.806   2.849 -0.2989  0.1978  0.4083
  831MOL0     C12107   0.627   1.878   2.744  0.0418  0.2287  0.1906
  831MOL0     C12108   0.560   1.909   2.628 -0.1901  0.0389  0.8183
  831MOL0     O12109   0.618   1.949   2.504  0.3165 -0.1174 -0.5232
  831MOL0     C12110   0.752   1.994   2.502  0.8495 -0.1548  0.2038
  831MOL0     C12111   0.819   1.897   2.416 -0.4241  0.2551  0.1685
  831MOL0     C12112   0.970   1.910   2.434  0.2998  0.2953 -0.3722
  831MOL0     C12113   1.049   1.880   2.308 -0.1818 -0.0975 -0.5084
  831MOL0     C12114   1.042   1.739   2.275 -0.2294  0.4584  0.0687
  831MOL0     C12115   1.030   1.622   2.258  0.3068 -0.2595  0.6509
  831MOL0     C12116   0.424   1.882   2.617  0.0240  0.1082 -0.4251
  831MOL0     C12117   0.361   1.810   2.720 -0.0493  0.2718  0.1495
  831MOL0     H12118   0.269   1.476   3.035  0.6623  0.7664  2.6862
  831MOL0     H12119   0.123   1.346   3.187  0.9484  0.0633 -1.3234
  831MOL0     H12120   0.058   1.521   3.473 -0.8440  2.1773  1.3087
  831MOL0     H12121  -0.111   1.523   3.491 -0.8238 -2.7323 -0.9339
  831MOL0     H12122   0.020   1.261   3.455  1.6175  2.5643 -1.5768
  831MOL0     H12123   0.025   1.349   3.616  2.8071  3.9858 -2.2943
  831MOL0     H12124  -0.229   1.357   3.598  0.6929 -1.2730  0.8575
  831MOL0     H12125  -0.224   1.283   3.434 -0.6278  0.0132  0.5553
  831MOL0     H12126  -0.129   1.150   3.696  1.4559 -2.3169  0.0948
  831MOL0     H12127  -0.290   1.125   3.622  0.9520 -1.4559  2.1908
  831MOL0     H12128  -0.163   1.033   3.424  2.2231  0.5408 -0.4790
  831MOL0     H12129  -0.015   1.038   3.517  0.6934  1.4987  1.6653
  831MOL0     H12130  -0.127   0.923   3.714 -0.3195 -3.4984  0.6289
  831MOL0     H12131  -0.257   0.875   3.614  0.9760 -1.1220 -1.2833
  831MOL0     H12132  -0.086   0.801   3.446 -0.7187  1.0645 -0.4379
  831MOL0     H12133   0.035   0.805   3.571  1.0678 -2.2595 -3.1083
  831MOL0     H12134  -0.053   0.577   3.554 -1.1843 -3.0925  1.9092
  831MOL0     H12135  -0.216   0.627   3.585 -0.0205 -0.9195  2.8230
  831MOL0     H12136   0.107   0.636   3.773  0.9399 -0.7946 -0.0457
  831MOL0     H12137   0.162   0.496   4.037  0.5424  0.2332  1.3689
  831MOL0     H12138   0.079   0.637   4.103 -1.8328  1.6263 -1.5661
  831MOL0     H12139  -0.002   0.338   4.087  0.3964 -0.7430  0.9478
  831MOL0     H12140  -0.114   0.459   4.156  0.0053  0.9075 -0.2360
  831MOL0     H12141   0.046   0.524   4.316 -0.2456 -0.9139  1.6548
  831MOL0     H12142   0.154   0.384   4.270 -0.1825 -0.1879  0.6429
  831MOL0     H12143  -0.121   0.372   4.407 -0.3689  2.3808 -0.9128
  831MOL0     H12144   0.047   0.345   4.469 -0.1266 -1.3632 -1.4581
  831MOL0     H12145  -0.189   0.030   4.278 -3.4155  1.1716  0.3086
  831MOL0     H12146  -0.271  -0.264   4.419  0.5268  1.8517  1.5836
  831MOL0     H12147  -0.415  -0.156   4.421  0.5728 -1.4262  4.1838
  831MOL0     H12148  -0.288  -0.157   4.286  1.1262 -0.3154 -0.0908
  831MOL0     H12149  -0.557  -0.379   4.567 -2.9044  1.2161 -1.1273
  831MOL0     H12150  -0.673  -0.556   4.696  1.6364 -1.1053  1.1862
  831MOL0     H12151  -0.535  -0.708   4.846  1.3344  1.5444  0.6951
  831MOL0     H12152  -0.511  -0.682   5.021 -0.7762 -3.7409  1.6260
  831MOL0     H12153  -0.578  -0.901   4.939  0.5013  1.0298 -2.0662
  831MOL0     H12154  -0.673  -0.811   5.077 -0.6311  1.1240 -0.5654
  831MOL0     H12155  -0.756  -0.899   4.797 -0.2438 -6.4284  0.7907
  831MOL0     H12156  -0.844  -0.784   4.906  2.8980  1.1979 -2.0838
  831MOL0     H12157  -0.763  -1.032   5.050 -0.5968 -1.2489  0.2011
  831MOL0     H12158  -0.911  -0.934   5.051 -2.1627 -0.3300 -2.2889
  831MOL0     H12159  -0.975  -1.027   4.856  1.5741  0.6625 -0.4415
  831MOL0     H12160  -0.934  -1.172   4.961  0.5017 -1.3972 -1.5090
  831MOL0     H12161  -0.875  -1.221   4.739  0.3751  1.1059 -1.9395
  831MOL0     H12162  -0.778  -1.081   4.708  1.7450 -3.4944 -3.7659
  831MOL0     H12163  -0.687  -1.223   4.957 -0.5462  0.6353  0.2520
  831MOL0     H12164  -0.609  -1.121   4.833 -2.8921  3.0654 -1.2385
  831MOL0     H12165  -0.519  -1.332   4.779 -0.1232 -3.1291  2.4724
  831MOL0     H12166  -0.660  -1.350   4.678 -1.0048  0.5267  0.9283
  831MOL0     H12167  -0.590  -0.357   5.065  0.3909  3.6188 -0.3388
  831MOL0     H12168  -0.450  -0.171   4.926  2.1365 -1.6623  0.2408
  831MOL0     H12169  -0.089   0.009   4.755  3.1417  0.3680 -1.9874
  831MOL0     H12170   0.023   0.174   4.617 -2.3487  3.0298 -0.8792
  831MOL0     H12171  -0.139   1.682   3.223  0.7130 -1.0611 -1.4162
  831MOL0     H12172  -0.006   1.794   3.069 -3.6289 -1.1847  0.5019
  831MOL0     H12173   0.624   1.791   2.940 -0.6584  2.4059  1.0685
  831MOL0     H12174   0.733   1.902   2.754  1.0848 -3.8633  1.0712
  831MOL0     H12175   0.750   2.092   2.454 -3.2032 -0.1631 -0.0270
  831MOL0     H12176   0.793   1.993   2.603 -0.7370 -0.9431  0.8850
  831MOL0     H12177   0.800   1.910   2.309  2.2707 -0.1781 -0.4284
  831MOL0     H12178   0.789   1.796   2.446 -2.7506  0.9066  0.1819
  831MOL0     H12179   1.012   1.839   2.505  0.8588  0.1553 -0.8322
  831MOL0     H12180   1.008   2.008   2.465 -1.7949  1.6616 -1.8422
  831MOL0     H12181   1.151   1.918   2.325 -0.6080  0.9211 -0.0996
  831MOL0     H12182   1.007   1.937   2.225  0.4790  2.3293  0.7175
  831MOL0     H12183   0.997   1.522   2.240  1.2067 -0.9345  2.4762
  831MOL0     H12184   0.379   1.893   2.519 -0.7396 -0.6007 -0.1651
  831MOL0     H12185   0.259   1.776   2.706  0.9023 -1.7184 -2.8738
  832MOL0     O12186   8.448   7.825   5.424  0.3811  0.0665 -0.1967
  832MOL0     C12187   8.503   7.935   5.403 -1.1635  0.5315 -0.1712
  832MOL0     O12188   8.454   8.053   5.440 -0.3981  0.3882  0.2814
  832MOL0     C12189   8.322   8.060   5.493  0.0617 -0.6798  1.1185
  832MOL0     C12190   8.221   8.139   5.430  0.1379 -0.2928 -0.5280
  832MOL0     C12191   8.093   8.166   5.481 -0.2152 -0.6775 -1.1051
  832MOL0     C12192   8.071   8.112   5.610 -0.5619 -0.1222 -0.2950
  832MOL0     O12193   7.962   8.137   5.685  0.2575  0.2909 -0.4192
  832MOL0     C12194   7.835   8.147   5.629 -0.3996  0.3330 -1.0999
  832MOL0     C12195   7.720   8.165   5.725 -0.0211 -0.1718 -0.5023
  832MOL0     C12196   7.676   8.028   5.771 -1.8727  0.2791  0.0538
  832MOL0     C12197   7.579   8.045   5.888 -0.8286  0.3349  0.1579
  832MOL0     C12198   7.486   7.936   5.902 -0.9771 -0.0185 -0.7165
  832MOL0     C12199   7.393   7.960   6.026  1.1113  0.6486 -0.2364
  832MOL0     C12200   7.262   7.884   6.009  0.2798  0.0497 -0.7059
  832MOL0     C12201   7.179   7.902   6.132  0.1399 -0.3262 -0.3784
  832MOL0     N12202   7.046   7.841   6.110  0.2645 -0.0173  1.0870
  832MOL0     C12203   6.923   7.900   6.101  0.4702 -0.0805 -0.8532
  832MOL0     C12204   6.829   7.803   6.113 -0.4120  0.0970  0.6034
  832MOL0     C12205   6.683   7.806   6.110  0.1801  0.5005 -0.2275
  832MOL0     C12206   6.606   7.748   5.993  0.5863  0.4043 -1.0999
  832MOL0     C12207   6.470   7.801   6.001  0.4973 -0.0577 -0.5508
  832MOL0     C12208   6.441   7.920   5.915 -0.8387  0.4320 -0.7709
  832MOL0     O12209   6.323   7.984   5.945  0.2803 -0.7828  0.0447
  832MOL0     C12210   6.301   8.116   5.914 -0.6276 -0.6890 -1.3304
  832MOL0     C12211   6.203   8.183   5.988  0.2685  1.0320  0.2542
  832MOL0     C12212   6.179   8.319   5.973 -0.0954 -0.4496 -0.3732
  832MOL0     C12213   6.079   8.387   6.061 -0.5767 -0.6956 -0.1162
  832MOL0     C12214   6.267   8.389   5.876  0.4886 -0.1999 -0.0994
  832MOL0     C12215   6.261   8.540   5.846 -0.4733  1.2476 -0.5114
  832MOL0     O12216   6.336   8.585   5.740  0.6519 -0.0930 -0.1036
  832MOL0     C12217   6.342   8.717   5.709 -0.0300 -0.5321 -0.2856
  832MOL0     C12218   6.371   8.735   5.577 -0.4689 -0.7078 -0.5425
  832MOL0     C12219   6.384   8.871   5.529 -0.8687  0.1725  0.2137
  832MOL0     C12220   6.367   8.983   5.618  0.1394  0.4216 -0.1641
  832MOL0     O12221   6.382   9.105   5.562 -0.3108  0.7028  0.0708
  832MOL0     C12222   6.463   9.210   5.621  0.1323 -0.0405 -0.0765
  832MOL0     C12223   6.469   9.329   5.528 -0.5408  0.0983  0.0323
  832MOL0     C12224   6.524   9.284   5.384  0.0173 -0.5150 -0.3484
  832MOL0     C12225   6.535   9.414   5.307  0.0096 -0.3198 -0.4837
  832MOL0     C12226   6.598   9.413   5.167 -0.1096 -2.1832  0.7961
  832MOL0     C12227   6.727   9.326   5.135  0.3524 -0.1200 -0.6890
  832MOL0     C12228   6.842   9.383   5.219 -0.4231  0.9413 -0.5227
  832MOL0     C12229   6.984   9.335   5.169 -0.0718  1.0760  1.0594
  832MOL0    Cl12230   7.005   9.165   5.221 -0.0704  0.2325 -0.0647
  832MOL0     C12231   6.327   8.961   5.745 -0.6353 -0.7226  0.4063
  832MOL0     C12232   6.305   8.829   5.791 -0.0064  0.0540 -0.9952
  832MOL0     O12233   6.154   8.592   5.881 -0.4358  0.0873  0.8808
  832MOL0     C12234   6.358   8.321   5.796  0.0471 -0.1243 -0.3140
  832MOL0     C12235   6.380   8.185   5.816  0.8581 -0.3671  0.4088
  832MOL0     N12236   6.903   7.685   6.122  0.1322 -0.1446  0.2515
  832MOL0     N12237   7.025   7.711   6.132 -0.3651  0.5533  0.9485
  832MOL0     C12238   8.165   8.027   5.664  0.5802  0.4781 -0.2033
  832MOL0     C12239   8.291   7.998   5.611  0.4801  0.1516 -1.1231
  832MOL0     C12240   8.637   7.927   5.344 -0.0835  1.0338 -0.3862
  832MOL0     C12241   8.703   7.802   5.304 -0.7528  0.3413  0.3018
  832MOL0     C12242   8.816   7.794   5.232  0.5277 -0.5969  0.5715
  832MOL0     C12243   8.868   7.911   5.183 -0.0480 -0.0556 -1.0022
  832MOL0     O12244   8.982   7.901   5.110  0.1239  0.3017 -0.3619
  832MOL0     C12245   9.064   8.018   5.076 -0.0887 -0.6356  0.0399
  832MOL0     C12246   9.190   7.981   5.002  0.1103 -0.1094 -0.8422
  832MOL0     C12247   9.228   7.824   5.028 -0.7476 -0.0726  0.3565
  832MOL0     C12248   9.329   7.801   5.147  1.0251 -0.6964  0.2131
  832MOL0     C12249   9.281   7.843   5.278  1.4762 -0.6180 -0.2183
  832MOL0     C12250   9.220   7.865   5.378 -0.2280  0.3236 -0.2879
  832MOL0     C12251   8.819   8.034   5.228  0.3361  0.8969  0.0853
  832MOL0     C12252   8.703   8.035   5.302  0.3745  0.2466  0.8420
  832MOL0     H12253   8.239   8.174   5.329 -2.2831  0.0581 -0.8848
  832MOL0     H12254   8.019   8.223   5.427  0.1775 -0.0634 -1.0103
  832MOL0     H12255   7.838   8.241   5.572 -0.8293  0.2314 -1.2944
  832MOL0     H12256   7.819   8.052   5.577 -0.7986 -1.9454  2.8144
  832MOL0     H12257   7.746   8.234   5.805 -4.1664 -1.0623  1.9405
  832MOL0     H12258   7.640   8.223   5.678 -0.2863  0.0894  0.2604
  832MOL0     H12259   7.639   7.967   5.688 -1.4830 -0.6320  0.5363
  832MOL0     H12260   7.765   7.975   5.805 -3.6653 -1.8187  1.8718
  832MOL0     H12261   7.621   8.067   5.987 -1.8643  2.4375  0.1840
  832MOL0     H12262   7.521   8.136   5.869 -1.0733  0.0828 -0.3137
  832MOL0     H12263   7.428   7.923   5.810  2.5201 -0.1026 -3.1228
  832MOL0     H12264   7.544   7.845   5.921 -2.3856 -0.7393  0.3549
  832MOL0     H12265   7.444   7.930   6.118  1.2006 -0.8147 -0.7300
  832MOL0     H12266   7.359   8.064   6.019 -1.3044  0.2803  3.1749
  832MOL0     H12267   7.205   7.932   5.929  0.3613  2.1950  0.4260
  832MOL0     H12268   7.286   7.778   5.996 -2.4416 -1.2968  3.3117
  832MOL0     H12269   7.172   8.005   6.169 -1.1567  0.3680 -2.3796
  832MOL0     H12270   7.225   7.855   6.219 -0.6366  1.2822  0.9609
  832MOL0     H12271   6.895   8.005   6.099  0.1747  0.1965  4.6930
  832MOL0     H12272   6.638   7.753   6.194  4.2077  2.3336  3.4179
  832MOL0     H12273   6.653   7.911   6.112  0.3708  0.6927 -2.9427
  832MOL0     H12274   6.600   7.639   5.991 -2.5184  0.4528 -4.3893
  832MOL0     H12275   6.648   7.783   5.899 -1.4157 -0.0922 -2.2305
  832MOL0     H12276   6.442   7.825   6.104 -0.1137  1.4081 -1.0399
  832MOL0     H12277   6.406   7.717   5.971  1.2709 -1.6119  1.8501
  832MOL0     H12278   6.442   7.885   5.811 -4.1152 -0.2573 -0.6939
  832MOL0     H12279   6.519   7.996   5.924 -0.3120 -0.2419  0.6378
  832MOL0     H12280   6.160   8.116   6.062 -0.5810  0.7530 -0.4768
  832MOL0     H12281   5.992   8.416   6.000 -1.6488 -1.4062  1.0179
  832MOL0     H12282   6.034   8.321   6.136 -1.5074 -0.3544 -0.3502
  832MOL0     H12283   6.121   8.479   6.101  1.4132 -0.2201 -3.0049
  832MOL0     H12284   6.373   8.655   5.503 -1.4669 -0.3372 -0.9891
  832MOL0     H12285   6.405   8.891   5.425 -3.5876  0.5037 -0.3630
  832MOL0     H12286   6.425   9.238   5.720  1.3887  4.0618 -0.5680
  832MOL0     H12287   6.564   9.176   5.646 -0.7051 -1.3354  1.7576
  832MOL0     H12288   6.371   9.376   5.536 -0.0241  1.0227  1.1683
  832MOL0     H12289   6.537   9.403   5.570  3.1295 -2.0976 -1.5922
  832MOL0     H12290   6.447   9.224   5.334 -0.1232 -3.3448  2.8923
  832MOL0     H12291   6.622   9.235   5.396  0.2417  0.6176  3.4104
  832MOL0     H12292   6.434   9.455   5.305 -0.6234 -1.8062 -0.8719
  832MOL0     H12293   6.593   9.480   5.371 -1.0053 -1.0455  1.2711
  832MOL0     H12294   6.608   9.517   5.134  1.5054 -2.3359  0.7051
  832MOL0     H12295   6.520   9.361   5.111  0.6811 -2.5366 -0.0008
  832MOL0     H12296   6.712   9.219   5.151  1.8368 -0.7635 -3.0762
  832MOL0     H12297   6.757   9.352   5.033 -1.9333 -1.2860 -1.7263
  832MOL0     H12298   6.832   9.358   5.325  0.0674 -1.8204 -1.0509
  832MOL0     H12299   6.839   9.492   5.215 -2.6832  0.9891  0.9445
  832MOL0     H12300   7.070   9.393   5.203  0.2491  2.8381 -2.3151
  832MOL0     H12301   6.982   9.329   5.060  1.0660 -1.3713  1.1045
  832MOL0     H12302   6.300   9.051   5.798 -2.9842 -1.5510  0.7466
  832MOL0     H12303   6.272   8.802   5.891  0.7686  0.8653 -0.5068
  832MOL0     H12304   6.432   8.369   5.733  1.1509 -0.8599  0.3763
  832MOL0     H12305   6.452   8.137   5.751  0.1118 -0.5783 -0.2788
  832MOL0     H12306   8.153   7.980   5.761  1.6221 -2.6898 -1.4970
  832MOL0     H12307   8.363   7.946   5.673  1.1352  0.9364 -1.2087
  832MOL0     H12308   8.663   7.708   5.341 -1.7248 -1.0898 -3.8328
  832MOL0     H12309   8.866   7.698   5.217  2.4005  0.4269 -0.0737
  832MOL0     H12310   9.009   8.098   5.025  1.8791 -0.7984 -2.5144
  832MOL0     H12311   9.093   8.068   5.169 -1.5935 -0.6199  0.5271
  832MOL0     H12312   9.270   8.050   5.030 -0.5912  0.2953  0.2119
  832MOL0     H12313   9.174   7.996   4.894 -0.8424  1.2707 -0.5365
  832MOL0     H12314   9.287   7.782   4.946  1.8657  2.0277  0.9891
  832MOL0     H12315   9.146   7.756   5.049 -1.6998  0.6238 -0.9519
  832MOL0     H12316   9.422   7.854   5.126  0.1500 -0.0277 -2.3640
  832MOL0     H12317   9.331   7.692   5.157 -1.6898 -0.8211  0.1794
  832MOL0     H12318   9.156   7.874   5.464  1.1300 -2.1928  1.1057
  832MOL0     H12319   8.866   8.107   5.164  0.3140 -1.3335 -2.6805
  832MOL0     H12320   8.668   8.137   5.321 -2.1387 -0.5537  0.8738
  833MOL0     O12321   6.817   5.991   6.358 -0.0229  0.4459 -0.0952
  833MOL0     C12322   6.702   5.991   6.322  0.2097  1.1827  0.4297
  833MOL0     O12323   6.589   5.973   6.399 -0.4340  0.3932 -1.0426
  833MOL0     C12324   6.595   5.954   6.540  0.2133 -0.5979  0.1931
  833MOL0     C12325   6.528   5.846   6.596 -1.3041  0.8929  0.5237
  833MOL0     C12326   6.541   5.824   6.734  0.0380  0.5588  1.0207
  833MOL0     C12327   6.617   5.912   6.814 -0.1082  0.6016  0.3537
  833MOL0     O12328   6.639   5.886   6.947  0.2735  0.0823 -0.2494
  833MOL0     C12329   6.753   5.793   6.970 -0.0555 -0.4558 -0.0352
  833MOL0     C12330   6.880   5.880   6.992 -0.6770 -0.3618  1.3087
  833MOL0     C12331   6.965   5.857   7.117 -1.2734 -1.0723 -0.1012
  833MOL0     C12332   7.097   5.940   7.107  0.2939 -0.0384  0.8478
  833MOL0     C12333   7.205   5.903   7.210 -0.0248 -0.1732  0.2667
  833MOL0     C12334   7.352   5.961   7.159  0.0907  0.9546 -0.3647
  833MOL0     C12335   7.459   5.925   7.250  0.0109  0.2036 -0.3997
  833MOL0     C12336   7.595   5.946   7.195 -0.5167  1.1198 -0.6073
  833MOL0     N12337   7.706   5.918   7.291  0.7753  0.4435  0.5191
  833MOL0     C12338   7.759   6.013   7.377  0.1525  1.1370  0.0280
  833MOL0     C12339   7.848   5.941   7.454 -0.9637 -0.5205 -0.1747
  833MOL0     C12340   7.920   5.993   7.569 -0.7784  0.6666  0.1730
  833MOL0     C12341   8.003   6.131   7.538 -1.0874 -0.1579  0.1207
  833MOL0     C12342   8.119   6.138   7.633 -0.1782  0.2322  0.7532
  833MOL0     C12343   8.091   6.205   7.771 -0.0473  0.0196 -0.5583
  833MOL0     O12344   7.998   6.129   7.842  1.1076  0.1659  0.1147
  833MOL0     C12345   8.023   6.010   7.904  0.9907  0.5271 -0.6155
  833MOL0     C12346   7.919   5.955   7.987 -0.0194  0.0199 -0.3578
  833MOL0     C12347   7.927   5.841   8.060  0.4073  0.2621 -0.0708
  833MOL0     C12348   7.796   5.811   8.138 -0.1655  0.7040  0.0574
  833MOL0     C12349   8.046   5.764   8.056 -0.0520 -0.2962 -0.2138
  833MOL0     C12350   8.065   5.635   8.133 -1.0515 -0.6126  0.1951
  833MOL0     O12351   8.198   5.601   8.165 -0.5050  0.7468 -0.2036
  833MOL0     C12352   8.237   5.477   8.203 -0.3835  0.1445  0.1450
  833MOL0     C12353   8.297   5.439   8.326  0.4511  0.1280  0.0640
  833MOL0     C12354   8.340   5.300   8.358  0.2421 -0.2251  0.6825
  833MOL0     C12355   8.305   5.202   8.267 -0.7389  0.4591  0.8927
  833MOL0     O12356   8.319   5.065   8.296  0.4968  0.1991 -0.5174
  833MOL0     C12357   8.249   4.974   8.207  0.0130  0.5654  0.2544
  833MOL0     C12358   8.236   4.826   8.264  0.1239  1.2210 -0.0500
  833MOL0     C12359   8.363   4.740   8.286  0.2882 -0.3422  0.1177
  833MOL0     C12360   8.489   4.767   8.199  1.0219 -0.1546 -0.2937
  833MOL0     C12361   8.605   4.694   8.259  0.4188 -0.6467 -0.1227
  833MOL0     C12362   8.737   4.741   8.193 -0.2353  0.0565 -0.3098
  833MOL0     C12363   8.848   4.702   8.284 -0.7049 -0.3105  0.4155
  833MOL0     C12364   8.982   4.760   8.236 -0.0433  1.7899 -0.1619
  833MOL0    Cl12365   9.005   4.749   8.050 -0.4303  0.2217  0.1315
  833MOL0     C12366   8.255   5.246   8.140  0.4182  0.1463 -0.7682
  833MOL0     C12367   8.227   5.377   8.112  0.1339 -0.9701  1.1055
  833MOL0     O12368   7.969   5.570   8.173 -0.7937  0.4343  0.7920
  833MOL0     C12369   8.159   5.816   7.967  0.0286  1.0528 -0.2998
  833MOL0     C12370   8.133   5.929   7.889 -0.5464 -0.8275  0.3377
  833MOL0     N12371   7.839   5.812   7.407 -0.9461  1.0708 -0.4320
  833MOL0     N12372   7.754   5.798   7.310  0.2677  0.8695 -0.1158
  833MOL0     C12373   6.679   6.027   6.761  0.2990 -0.2896 -0.0970
  833MOL0     C12374   6.666   6.045   6.620  0.0468 -0.4645 -1.1911
  833MOL0     C12375   6.677   5.994   6.182 -0.3629 -0.0553 -0.0597
  833MOL0     C12376   6.611   6.104   6.131  0.3695 -0.5354  0.4286
  833MOL0     C12377   6.586   6.120   5.994 -0.6563 -0.2542  0.2802
  833MOL0     C12378   6.622   6.022   5.903  0.7087 -0.9604  0.0318
  833MOL0     O12379   6.602   6.038   5.772  0.5783  0.0488 -0.5793
  833MOL0     C12380   6.672   6.145   5.705 -0.3391  0.6921  0.3967
  833MOL0     C12381   6.606   6.282   5.714  0.1053  0.1548 -0.5491
  833MOL0     C12382   6.456   6.283   5.710  0.1467  0.0138 -0.5307
  833MOL0     C12383   6.411   6.407   5.639  0.0316  0.3425  0.7175
  833MOL0     C12384   6.448   6.541   5.688  0.3328  0.3187  0.4385
  833MOL0     C12385   6.461   6.655   5.721 -0.3964  0.0555 -0.8227
  833MOL0     C12386   6.687   5.914   5.943  0.0627  0.4764  0.0011
  833MOL0     C12387   6.720   5.900   6.084  0.1950  0.3313 -0.0467
  833MOL0     H12388   6.480   5.782   6.523  1.3869 -0.5298 -0.1436
  833MOL0     H12389   6.489   5.744   6.784  2.2612 -0.6815  1.4877
  833MOL0     H12390   6.736   5.730   7.058 -0.3699  0.1247  0.3242
  833MOL0     H12391   6.763   5.724   6.885 -0.5295  0.3234 -0.7391
  833MOL0     H12392   6.943   5.885   6.903 -1.0647  2.5584  1.0976
  833MOL0     H12393   6.841   5.982   7.001 -4.3809 -1.0240 -3.4094
  833MOL0     H12394   6.909   5.877   7.208  0.9434  1.6731  0.8014
  833MOL0     H12395   6.993   5.751   7.126  1.0255 -0.5901 -0.8307
  833MOL0     H12396   7.144   5.904   7.015  0.4917 -0.0403  0.9494
  833MOL0     H12397   7.075   6.047   7.101 -1.7313 -0.4918 -1.7815
  833MOL0     H12398   7.169   5.948   7.303  3.4345 -1.3804  2.3947
  833MOL0     H12399   7.197   5.795   7.227 -0.8164 -0.0165  0.9222
  833MOL0     H12400   7.381   5.929   7.059  1.4545 -1.8884  0.8345
  833MOL0     H12401   7.345   6.070   7.154  2.4916  1.1108 -1.5779
  833MOL0     H12402   7.456   5.995   7.334 -5.2786  0.3918 -0.3782
  833MOL0     H12403   7.439   5.829   7.297 -1.5660  1.2606  1.2252
  833MOL0     H12404   7.619   6.047   7.161 -1.8828  3.1874  3.7678
  833MOL0     H12405   7.614   5.881   7.109 -1.1888  2.0056 -1.4462
  833MOL0     H12406   7.722   6.115   7.375 -1.4693  0.6121  1.1575
  833MOL0     H12407   7.848   6.022   7.647  0.6853 -0.8085  2.1677
  833MOL0     H12408   7.980   5.913   7.613 -3.3055 -1.3400  0.2007
  833MOL0     H12409   7.936   6.217   7.551 -0.4240  0.3541  0.2274
  833MOL0     H12410   8.051   6.135   7.439  2.3728  0.6208  1.6924
  833MOL0     H12411   8.190   6.199   7.576 -1.4052  2.9200  1.9013
  833MOL0     H12412   8.171   6.042   7.640  1.4757  0.8418 -1.6916
  833MOL0     H12413   8.053   6.308   7.762 -1.9834 -0.2698  2.5526
  833MOL0     H12414   8.181   6.205   7.834 -0.6910  0.1494  0.3788
  833MOL0     H12415   7.829   6.014   8.002  0.6241  0.1611  4.5135
  833MOL0     H12416   7.809   5.767   8.237  0.9056  0.3273 -0.2383
  833MOL0     H12417   7.756   5.911   8.159 -1.7691  0.0132  0.4145
  833MOL0     H12418   7.723   5.744   8.092  0.5216  0.4082 -0.6251
  833MOL0     H12419   8.318   5.513   8.403 -0.9233 -0.0105  0.5961
  833MOL0     H12420   8.368   5.265   8.457 -2.1544  1.1975  1.9529
  833MOL0     H12421   8.144   4.993   8.180 -0.2556 -0.1955  0.7322
  833MOL0     H12422   8.306   4.961   8.115  0.0871  0.2228  0.3489
  833MOL0     H12423   8.180   4.835   8.357  1.8926 -2.0516  1.5225
  833MOL0     H12424   8.183   4.759   8.195  3.8412 -2.6270  0.4179
  833MOL0     H12425   8.334   4.635   8.297  0.6753 -0.3131  1.6390
  833MOL0     H12426   8.395   4.766   8.387 -3.0028 -1.7875  1.6609
  833MOL0     H12427   8.462   4.728   8.101 -1.3757 -0.1704  0.2969
  833MOL0     H12428   8.504   4.875   8.183  0.7478  0.0012  0.4427
  833MOL0     H12429   8.594   4.586   8.244 -2.4518 -0.6165  0.9983
  833MOL0     H12430   8.608   4.731   8.362  0.6714 -0.0775 -0.3306
  833MOL0     H12431   8.745   4.687   8.098 -1.7620  1.7363 -1.4553
  833MOL0     H12432   8.727   4.848   8.174 -0.4267 -0.4242 -3.3321
  833MOL0     H12433   8.845   4.594   8.270  2.0641 -0.3385 -0.6977
  833MOL0     H12434   8.841   4.729   8.390  1.0215  0.0413  0.4657
  833MOL0     H12435   9.061   4.703   8.287 -0.7318  0.5244 -0.4571
  833MOL0     H12436   8.993   4.858   8.283 -3.6679  0.7124  3.5049
  833MOL0     H12437   8.227   5.176   8.062  0.4399  2.1147 -2.6284
  833MOL0     H12438   8.175   5.387   8.017  1.9107 -2.3354 -0.0826
  833MOL0     H12439   8.250   5.759   7.958 -1.2511 -1.1016 -0.3983
  833MOL0     H12440   8.218   5.969   7.836 -1.3007 -1.4414 -1.4241
  833MOL0     H12441   6.745   6.089   6.821 -0.1253  2.4690 -2.3272
  833MOL0     H12442   6.723   6.122   6.567 -2.6185  1.6242 -1.2384
  833MOL0     H12443   6.592   6.185   6.201 -0.6713 -1.2617  1.0068
  833MOL0     H12444   6.538   6.207   5.951 -0.2670 -0.6168 -0.9392
  833MOL0     H12445   6.774   6.145   5.745 -0.3081 -2.7909  0.6082
  833MOL0     H12446   6.682   6.115   5.601 -1.6611  1.4959  0.0064
  833MOL0     H12447   6.648   6.352   5.641 -1.8906  1.7699 -0.2359
  833MOL0     H12448   6.639   6.326   5.809  0.1551 -0.9641 -0.0346
  833MOL0     H12449   6.415   6.271   5.810  5.2965 -2.8294  1.6715
  833MOL0     H12450   6.429   6.190   5.658  0.1267 -0.3447  0.1190
  833MOL0     H12451   6.302   6.396   5.637  0.0032  0.3785 -2.0360
  833MOL0     H12452   6.450   6.403   5.537 -0.9147  1.2208  0.3107
  833MOL0     H12453   6.459   6.754   5.763  0.3473 -0.9287  1.7216
  833MOL0     H12454   6.707   5.846   5.860 -1.6256 -1.1444  0.8391
  833MOL0     H12455   6.791   5.822   6.109  0.2514  0.5928  0.6515
  834MOL0     O12456   8.745   6.397   8.746 -0.4566 -0.1432 -0.5588
  834MOL0     C12457   8.677   6.500   8.757 -0.1306  0.0262  0.6896
  834MOL0     O12458   8.728   6.617   8.805 -0.7121 -0.1114 -0.4391
  834MOL0     C12459   8.848   6.606   8.875  0.5557  0.4877  1.1267
  834MOL0     C12460   8.969   6.636   8.805  0.3803  0.5368 -0.4240
  834MOL0     C12461   9.097   6.640   8.876 -0.6202 -0.9580 -0.5902
  834MOL0     C12462   9.093   6.600   9.007 -0.5471 -0.1273 -0.4184
  834MOL0     O12463   9.206   6.596   9.079  0.0584  0.0236 -0.2992
  834MOL0     C12464   9.229   6.717   9.141 -0.0052 -0.5953 -0.9965
  834MOL0     C12465   9.161   6.750   9.271  0.9949  0.4461 -0.4826
  834MOL0     C12466   9.182   6.635   9.378 -0.3411 -0.1749 -0.7417
  834MOL0     C12467   9.132   6.681   9.512  0.1076  0.5115  0.0754
  834MOL0     C12468   9.175   6.574   9.624  0.7194 -0.2787 -0.1392
  834MOL0     C12469   9.116   6.633   9.759  0.4188 -0.9972  0.5768
  834MOL0     C12470   9.122   6.539   9.880 -0.1317 -0.5995 -1.0010
  834MOL0     C12471   9.061   6.608  10.002  0.0461  0.0791 -0.1319
  834MOL0     N12472   9.078   6.524  10.115  0.2099 -0.5328 -0.4857
  834MOL0     C12473   9.192   6.516  10.202 -0.3291 -0.8120  0.6304
  834MOL0     C12474   9.169   6.413  10.291  0.3256 -0.2049  0.4340
  834MOL0     C12475   9.252   6.354  10.400 -0.5367  0.7121  0.3979
  834MOL0     C12476   9.204   6.220  10.471 -0.1784 -0.3412  0.6308
  834MOL0     C12477   9.206   6.110  10.351  0.0347  0.7032 -0.0591
  834MOL0     C12478   9.120   5.983  10.394 -0.9824  0.2872  0.5046
  834MOL0     O12479   9.179   5.904  10.498  0.4186 -0.1036  0.1575
  834MOL0     C12480   9.132   5.783  10.532  0.2782  0.0667 -0.9624
  834MOL0     C12481   9.039   5.712  10.463  0.0111  0.2843  0.1488
  834MOL0     C12482   9.007   5.581  10.499 -0.0787  0.2581 -0.7624
  834MOL0     C12483   8.922   5.496  10.413  0.3742 -0.5748 -0.0410
  834MOL0     C12484   9.060   5.528  10.624  0.4380  0.0639 -0.1694
  834MOL0     C12485   9.058   5.392  10.677  1.0387  0.1851 -0.1170
  834MOL0     O12486   9.146   5.357  10.772 -0.3430 -0.2222  0.4630
  834MOL0     C12487   9.131   5.232  10.835 -0.1497 -0.4079 -0.5467
  834MOL0     C12488   9.195   5.117  10.795 -0.2890  0.1617  0.3526
  834MOL0     C12489   9.184   4.999  10.864  0.3322 -0.5468  0.9619
  834MOL0     C12490   9.105   4.979  10.976  0.0286 -0.4665  0.2745
  834MOL0     O12491   9.105   4.852  11.039 -0.4602  0.4946  0.0293
  834MOL0     C12492   8.989   4.822  11.119 -0.2939  0.4993  0.1869
  834MOL0     C12493   8.979   4.673  11.140 -0.5390 -0.9365  0.3685
  834MOL0     C12494   9.093   4.611  11.213  0.3155  0.5693  0.0340
  834MOL0     C12495   9.060   4.461  11.250 -0.1124 -0.6035  0.3866
  834MOL0     C12496   9.108   4.364  11.139 -0.0323 -0.0075  0.2074
  834MOL0     C12497   9.261   4.333  11.146  0.0303 -0.0207 -0.1436
  834MOL0     C12498   9.322   4.279  11.022  0.0662  0.4353  0.1797
  834MOL0     C12499   9.433   4.382  10.977 -0.0644 -1.0710  0.4889
  834MOL0    Cl12500   9.522   4.311  10.847  0.3438 -0.1507  0.0810
  834MOL0     C12501   9.036   5.095  11.017 -0.0501  0.7473 -0.0244
  834MOL0     C12502   9.047   5.219  10.950  0.7084  0.5963 -0.3149
  834MOL0     O12503   8.959   5.318  10.645 -0.8994  0.5241  0.2944
  834MOL0     C12504   9.137   5.612  10.699 -0.7796 -0.4461  0.4462
  834MOL0     C12505   9.165   5.736  10.654  0.0265 -0.4859 -0.3335
  834MOL0     N12506   9.034   6.368  10.261 -0.1894  0.1535 -0.0905
  834MOL0     N12507   8.982   6.440  10.163 -1.7457 -0.4343  0.0221
  834MOL0     C12508   8.970   6.570   9.074  0.4505 -0.0149  0.4122
  834MOL0     C12509   8.847   6.573   9.003 -0.0037  0.5966 -0.4811
  834MOL0     C12510   8.533   6.490   8.707  0.1890  0.3347 -0.4738
  834MOL0     C12511   8.454   6.609   8.722  0.5257  0.5829 -0.4161
  834MOL0     C12512   8.328   6.606   8.670  1.2023 -0.4557  0.8870
  834MOL0     C12513   8.273   6.492   8.598 -0.1973 -0.5309 -0.6946
  834MOL0     O12514   8.149   6.484   8.545 -0.6899  0.6111  0.0069
  834MOL0     C12515   8.052   6.589   8.569 -0.4775  0.0529  0.9440
  834MOL0     C12516   7.929   6.568   8.470 -0.8061 -0.3635 -0.3691
  834MOL0     C12517   7.814   6.663   8.503  0.0986  0.7537 -0.6659
  834MOL0     C12518   7.709   6.654   8.399  0.6396  0.3706 -0.1197
  834MOL0     C12519   7.602   6.747   8.436  1.1340 -0.5107  0.3558
  834MOL0     C12520   7.496   6.811   8.452  0.0604 -0.5234 -0.0756
  834MOL0     C12521   8.362   6.381   8.586  0.1016  0.0355 -0.4006
  834MOL0     C12522   8.487   6.384   8.632 -1.0281  0.2080  0.1721
  834MOL0     H12523   8.949   6.665   8.702  0.2699 -0.0582 -0.5721
  834MOL0     H12524   9.191   6.676   8.835 -0.4560  0.0009  0.5751
  834MOL0     H12525   9.336   6.716   9.163 -0.6363 -1.3186  2.5868
  834MOL0     H12526   9.217   6.804   9.076 -1.0810 -1.7489 -2.4140
  834MOL0     H12527   9.190   6.850   9.307 -0.0638 -0.1512  2.2582
  834MOL0     H12528   9.059   6.755   9.232  1.0675 -1.5206 -1.0185
  834MOL0     H12529   9.156   6.533   9.348  2.6460 -1.9945  2.1401
  834MOL0     H12530   9.289   6.626   9.397 -0.6795 -0.3523  1.2995
  834MOL0     H12531   9.157   6.783   9.543  0.8196  0.5179 -0.5105
  834MOL0     H12532   9.022   6.683   9.506 -0.0468  0.5012  2.1672
  834MOL0     H12533   9.139   6.475   9.596 -0.2114 -0.2217  0.7940
  834MOL0     H12534   9.284   6.583   9.629  0.5751  2.6899 -0.5769
  834MOL0     H12535   9.162   6.730   9.781  0.3452 -0.4346 -1.5693
  834MOL0     H12536   9.009   6.649   9.743  0.1528 -0.1076  2.8053
  834MOL0     H12537   9.063   6.451   9.853 -4.5064  1.4005  1.0462
  834MOL0     H12538   9.228   6.514   9.890  0.4523  2.0342  0.2158
  834MOL0     H12539   8.953   6.621   9.985 -0.0215 -2.2427 -1.9670
  834MOL0     H12540   9.103   6.706  10.026  0.7610 -1.1222  4.3708
  834MOL0     H12541   9.285   6.571  10.196  0.2627 -1.8740 -0.2885
  834MOL0     H12542   9.348   6.331  10.353 -1.1362  1.0007 -0.9929
  834MOL0     H12543   9.274   6.422  10.483  0.1119 -1.4059  2.0687
  834MOL0     H12544   9.109   6.246  10.518  0.7182 -0.4179  2.5567
  834MOL0     H12545   9.270   6.206  10.557  2.5916  1.2642 -1.0921
  834MOL0     H12546   9.308   6.085  10.319  0.1455  3.1635 -2.0114
  834MOL0     H12547   9.177   6.158  10.257  1.0789  0.6468 -0.4324
  834MOL0     H12548   9.106   5.926  10.302  2.1825 -2.8005  1.7145
  834MOL0     H12549   9.027   6.013  10.444 -0.7751 -1.3800  1.9747
  834MOL0     H12550   9.000   5.749  10.369  1.5803  2.5168  0.2923
  834MOL0     H12551   8.840   5.448  10.468  2.0151  0.5424  3.6496
  834MOL0     H12552   8.880   5.561  10.336 -3.1917 -0.3727  1.8257
  834MOL0     H12553   8.984   5.415  10.372 -0.0502 -0.4946 -0.8739
  834MOL0     H12554   9.267   5.115  10.713 -0.2419  1.5817  0.3350
  834MOL0     H12555   9.245   4.917  10.828 -1.3445 -2.1530  1.6416
  834MOL0     H12556   8.994   4.867  11.219 -0.7793 -3.5475  2.2188
  834MOL0     H12557   8.899   4.861  11.071 -2.8289 -2.6847  1.9626
  834MOL0     H12558   8.888   4.669  11.200 -0.3543  1.2019  0.8839
  834MOL0     H12559   8.959   4.631  11.041  1.5503  0.6768 -0.8298
  834MOL0     H12560   9.103   4.654  11.313 -3.2647 -0.9955  1.2372
  834MOL0     H12561   9.189   4.633  11.165  0.2984  3.0161  0.9677
  834MOL0     H12562   9.117   4.437  11.340 -0.6051 -2.5591  0.2179
  834MOL0     H12563   8.950   4.458  11.248 -0.2899  2.5733 -0.9173
  834MOL0     H12564   9.077   4.408  11.044 -0.5082  2.9637  1.6225
  834MOL0     H12565   9.048   4.274  11.153 -2.8341  0.9047 -4.0562
  834MOL0     H12566   9.307   4.426  11.180  0.3253 -1.3332  3.4687
  834MOL0     H12567   9.283   4.273  11.236 -0.1095 -2.0951 -1.4212
  834MOL0     H12568   9.244   4.281  10.945  1.4293  0.7721 -1.2551
  834MOL0     H12569   9.370   4.181  11.034  1.7280  1.3385  1.3440
  834MOL0     H12570   9.493   4.432  11.054 -1.0901  0.5465  0.2897
  834MOL0     H12571   9.382   4.471  10.938 -0.2863  0.4579  3.8936
  834MOL0     H12572   8.960   5.092  11.095  0.7288  1.3315  0.7644
  834MOL0     H12573   9.003   5.301  11.006  1.6575  1.5356 -0.9126
  834MOL0     H12574   9.177   5.582  10.796  3.8274  1.3131 -0.6397
  834MOL0     H12575   9.244   5.787  10.708 -3.3158  3.0115  1.8172
  834MOL0     H12576   8.970   6.551   9.181 -0.2859  0.6850  0.5532
  834MOL0     H12577   8.755   6.550   9.057  0.3907  1.1722  0.4647
  834MOL0     H12578   8.488   6.693   8.782 -2.0802  1.4308  0.0016
  834MOL0     H12579   8.263   6.690   8.690 -1.5066 -2.1753 -0.1641
  834MOL0     H12580   8.018   6.585   8.673  4.2261  1.4880  2.7925
  834MOL0     H12581   8.080   6.693   8.552 -1.1896  0.3942  1.7487
  834MOL0     H12582   7.896   6.465   8.489  1.3886 -0.9114  0.6913
  834MOL0     H12583   7.961   6.581   8.366  0.6467 -0.0919  0.0971
  834MOL0     H12584   7.842   6.769   8.503  0.2181  0.7316  0.2408
  834MOL0     H12585   7.771   6.640   8.601  0.1195 -0.4895 -0.9364
  834MOL0     H12586   7.677   6.550   8.409 -1.0844  0.7428 -1.4771
  834MOL0     H12587   7.753   6.672   8.301 -3.7071 -1.6896 -2.7021
  834MOL0     H12588   7.403   6.859   8.475 -0.8614 -2.7556  1.1310
  834MOL0     H12589   8.329   6.287   8.542  2.9696 -0.8925 -0.7715
  834MOL0     H12590   8.549   6.296   8.622 -1.0531 -0.1439  2.5047
  835MOL0     O12591   6.242   5.378   6.374 -0.6370  0.0643 -0.5807
  835MOL0     C12592   6.291   5.386   6.260 -0.1430  0.4902 -0.6151
  835MOL0     O12593   6.405   5.447   6.228 -0.4357 -0.3965 -0.4646
  835MOL0     C12594   6.499   5.488   6.318 -1.1329  0.3172 -0.9559
  835MOL0     C12595   6.526   5.406   6.428 -0.0752 -0.1781 -0.0035
  835MOL0     C12596   6.623   5.439   6.516 -0.5371 -0.1398  0.0118
  835MOL0     C12597   6.707   5.555   6.497  0.0581 -0.1418 -0.2373
  835MOL0     O12598   6.804   5.572   6.591  0.4876 -0.3610 -0.1642
  835MOL0     C12599   6.867   5.704   6.603 -0.7415 -0.0177 -0.3553
  835MOL0     C12600   7.001   5.699   6.681  0.4337  0.1184 -0.0383
  835MOL0     C12601   7.116   5.625   6.618 -0.6674  0.0447 -0.3361
  835MOL0     C12602   7.239   5.668   6.697 -0.2198 -1.3325  0.3286
  835MOL0     C12603   7.352   5.578   6.675  0.5695 -0.3258 -1.0611
  835MOL0     C12604   7.475   5.604   6.753 -0.7614 -0.0843  0.3406
  835MOL0     C12605   7.463   5.627   6.909  0.6576 -0.4093  0.3147
  835MOL0     C12606   7.530   5.531   6.998 -0.4550 -0.0542 -0.0090
  835MOL0     N12607   7.667   5.483   6.971 -0.0366  0.9248  0.3012
  835MOL0     C12608   7.786   5.517   7.024  0.8018 -1.0261 -0.0488
  835MOL0     C12609   7.873   5.442   6.951 -0.6483 -0.7417 -0.5020
  835MOL0     C12610   8.025   5.469   6.952  0.0342 -0.2010  0.3740
  835MOL0     C12611   8.086   5.487   7.097  0.0746  0.1026 -0.2866
  835MOL0     C12612   8.075   5.362   7.188  0.4120 -0.0987 -0.9613
  835MOL0     C12613   8.192   5.292   7.247  0.3170  0.7627 -0.7612
  835MOL0     O12614   8.129   5.190   7.341 -0.2024 -0.3579  0.5374
  835MOL0     C12615   8.212   5.160   7.449  0.9935 -0.4157 -1.1884
  835MOL0     C12616   8.156   5.112   7.567  0.0879  0.2557  0.1402
  835MOL0     C12617   8.235   5.089   7.679  0.2281 -0.4345 -0.3893
  835MOL0     C12618   8.160   5.031   7.800 -0.3332 -0.2943 -0.2622
  835MOL0     C12619   8.376   5.110   7.676  0.8131  0.3175  0.4919
  835MOL0     C12620   8.481   5.090   7.789 -0.1070  0.2476  0.0857
  835MOL0     O12621   8.603   5.149   7.780 -0.2267 -0.2389  0.4678
  835MOL0     C12622   8.712   5.069   7.735 -0.2867 -0.6956 -0.2202
  835MOL0     C12623   8.723   4.932   7.759  1.1879 -0.4178 -1.1558
  835MOL0     C12624   8.842   4.869   7.704 -0.1811  0.7530 -0.6045
  835MOL0     C12625   8.940   4.926   7.634  0.0406  0.2897 -0.2978
  835MOL0     O12626   9.048   4.852   7.601  0.2975  0.4134 -0.2777
  835MOL0     C12627   9.134   4.896   7.495 -0.3412 -0.2974 -0.4615
  835MOL0     C12628   9.250   4.799   7.461 -0.0166 -0.6331 -0.1720
  835MOL0     C12629   9.290   4.791   7.314  0.1210 -0.5736 -0.2229
  835MOL0     C12630   9.338   4.927   7.262  0.8181  0.1392 -1.0335
  835MOL0     C12631   9.373   4.925   7.125  0.2332  0.6582  0.2304
  835MOL0     C12632   9.471   4.811   7.088  0.1201  0.1980  0.7623
  835MOL0     C12633   9.564   4.857   6.970 -0.8620  0.7088  0.0766
  835MOL0     C12634   9.683   4.773   6.946 -0.6744 -0.2775 -0.8878
  835MOL0    Cl12635   9.652   4.618   6.874 -0.1948 -0.0173  0.1244
  835MOL0     C12636   8.943   5.063   7.629  0.5225  0.8244  0.2492
  835MOL0     C12637   8.825   5.136   7.678 -0.2023 -0.1410  0.4643
  835MOL0     O12638   8.431   5.040   7.893  0.0638 -0.0287 -1.1132
  835MOL0     C12639   8.430   5.138   7.550 -0.5069 -0.2936  0.0131
  835MOL0     C12640   8.351   5.168   7.441 -0.5392 -0.6186 -1.0873
  835MOL0     N12641   7.809   5.347   6.879 -0.5593 -0.2630 -0.3891
  835MOL0     N12642   7.682   5.366   6.895  0.2147 -0.3927 -0.6986
  835MOL0     C12643   6.678   5.649   6.388  1.0628  0.2306 -0.2920
  835MOL0     C12644   6.580   5.609   6.296 -0.5386 -0.4756 -0.1805
  835MOL0     C12645   6.231   5.302   6.153  0.9721  0.1746 -0.2064
  835MOL0     C12646   6.160   5.176   6.173  0.4173 -0.3536  0.8395
  835MOL0     C12647   6.103   5.114   6.058  0.7209 -0.5533  0.5383
  835MOL0     C12648   6.124   5.161   5.929 -1.2027 -0.5863  0.2060
  835MOL0     O12649   6.057   5.091   5.832  0.5697  0.1389 -0.3926
  835MOL0     C12650   6.081   5.131   5.695 -0.7436 -0.2505  0.1935
  835MOL0     C12651   5.996   5.043   5.610  0.8284  0.7672  0.6426
  835MOL0     C12652   6.063   4.903   5.586 -0.4426  0.4239 -0.1040
  835MOL0     C12653   6.040   4.841   5.450  1.0345 -1.1409  0.0205
  835MOL0     C12654   6.151   4.764   5.405 -0.3091  0.2829  0.6435
  835MOL0     C12655   6.245   4.689   5.357  0.6059  0.0332  0.3029
  835MOL0     C12656   6.196   5.286   5.914  0.3527 -0.4275  0.9530
  835MOL0     C12657   6.241   5.351   6.023 -0.1112 -0.1423 -0.3332
  835MOL0     H12658   6.478   5.310   6.441  1.3326 -0.8590  0.4217
  835MOL0     H12659   6.655   5.372   6.596  1.9874  1.4770  0.4970
  835MOL0     H12660   6.900   5.747   6.508  4.7865 -0.0651  1.1532
  835MOL0     H12661   6.803   5.781   6.647 -1.1708 -1.9431  2.7049
  835MOL0     H12662   7.039   5.801   6.684  0.6310  0.0940 -1.2541
  835MOL0     H12663   6.975   5.658   6.779 -1.8327  0.8572 -0.2771
  835MOL0     H12664   7.115   5.517   6.631 -1.8094  0.1431  0.5085
  835MOL0     H12665   7.132   5.652   6.513  0.9144  2.9987  0.5297
  835MOL0     H12666   7.263   5.770   6.667 -1.2113 -0.7976  1.2564
  835MOL0     H12667   7.206   5.678   6.801 -1.7273  1.7328 -0.3173
  835MOL0     H12668   7.325   5.476   6.702  0.6222  0.1009  0.7991
  835MOL0     H12669   7.365   5.581   6.567 -0.2481  0.6885 -1.1588
  835MOL0     H12670   7.548   5.522   6.749 -0.5589 -0.0224  2.1269
  835MOL0     H12671   7.526   5.682   6.696 -0.4992 -0.7693 -0.3861
  835MOL0     H12672   7.514   5.721   6.929 -1.8265  0.6861  1.9356
  835MOL0     H12673   7.367   5.642   6.959  1.2845  4.3181  0.5410
  835MOL0     H12674   7.468   5.441   6.997 -2.6729  1.3900  0.3667
  835MOL0     H12675   7.531   5.558   7.104  1.1426 -0.3266  0.0823
  835MOL0     H12676   7.797   5.599   7.095 -3.6481 -1.1258  1.0809
  835MOL0     H12677   8.077   5.392   6.894 -1.1768 -2.3430  1.9859
  835MOL0     H12678   8.060   5.555   6.893  0.5698 -2.6667 -3.1762
  835MOL0     H12679   8.046   5.562   7.165  0.5812 -1.0507  1.3528
  835MOL0     H12680   8.193   5.508   7.087  0.2931 -0.3925  0.8566
  835MOL0     H12681   8.019   5.295   7.122 -3.2843  1.1270  0.6899
  835MOL0     H12682   8.011   5.393   7.271  0.1595  1.8232 -1.8322
  835MOL0     H12683   8.256   5.363   7.301 -0.2941 -0.0777  1.1497
  835MOL0     H12684   8.251   5.250   7.164 -1.6387  1.4855 -2.6207
  835MOL0     H12685   8.048   5.104   7.565 -0.1027  2.3079 -0.2702
  835MOL0     H12686   8.204   5.062   7.895  0.5487 -0.3086 -0.6481
  835MOL0     H12687   8.053   5.050   7.799 -0.5599 -1.3279  1.5343
  835MOL0     H12688   8.170   4.922   7.795 -1.9738 -0.4094 -2.3832
  835MOL0     H12689   8.660   4.864   7.816  2.9016 -1.7042 -0.7214
  835MOL0     H12690   8.843   4.761   7.695  0.5527  0.8380 -1.8276
  835MOL0     H12691   9.078   4.915   7.403  0.2058 -1.0374 -0.9522
  835MOL0     H12692   9.182   4.990   7.523 -2.2290  0.9025 -1.0040
  835MOL0     H12693   9.340   4.831   7.515  0.2773 -2.8851  0.7607
  835MOL0     H12694   9.216   4.699   7.489 -1.2390 -0.7059 -1.7216
  835MOL0     H12695   9.211   4.763   7.243  1.2327 -1.5751 -1.1013
  835MOL0     H12696   9.363   4.710   7.303 -2.1367 -2.5698 -1.6179
  835MOL0     H12697   9.260   5.003   7.272  0.2041 -0.7000  1.1385
  835MOL0     H12698   9.423   4.948   7.328 -0.4696  0.2287  0.6693
  835MOL0     H12699   9.411   5.024   7.098  1.7437 -0.5082 -2.2821
  835MOL0     H12700   9.283   4.913   7.063 -0.7805  2.1161  1.3578
  835MOL0     H12701   9.544   4.797   7.169  1.2214 -0.2795 -0.2774
  835MOL0     H12702   9.416   4.722   7.058 -1.4983  1.6407 -0.8447
  835MOL0     H12703   9.595   4.959   6.994  0.7549  1.0073 -2.7851
  835MOL0     H12704   9.498   4.867   6.883  0.2703  1.0861 -0.7608
  835MOL0     H12705   9.750   4.764   7.032 -3.2054  2.6730  1.6682
  835MOL0     H12706   9.737   4.825   6.866  1.1359 -1.3751 -0.4184
  835MOL0     H12707   9.023   5.121   7.584 -0.3218  1.8497  0.0092
  835MOL0     H12708   8.826   5.242   7.658 -0.8433  0.0553  1.4268
  835MOL0     H12709   8.536   5.145   7.531 -0.5792  1.0675  0.0229
  835MOL0     H12710   8.407   5.213   7.359 -0.8118 -1.0363 -1.5119
  835MOL0     H12711   6.708   5.752   6.374 -3.6676  1.6118 -2.1366
  835MOL0     H12712   6.564   5.667   6.206 -0.0410  2.2056  1.3586
  835MOL0     H12713   6.145   5.123   6.267  4.2292 -2.3341  0.5360
  835MOL0     H12714   6.050   5.023   6.082  2.4065 -1.3771  1.3242
  835MOL0     H12715   6.066   5.239   5.683 -1.0340 -0.3783 -0.6884
  835MOL0     H12716   6.182   5.103   5.663 -2.2845 -3.7565 -2.1885
  835MOL0     H12717   5.956   5.091   5.520  2.4536 -0.4545 -0.7904
  835MOL0     H12718   5.904   5.026   5.667  1.4255  0.4579  1.5371
  835MOL0     H12719   6.012   4.845   5.663 -3.4321 -0.5777 -2.6617
  835MOL0     H12720   6.169   4.902   5.614 -0.3570 -0.0209 -0.4497
  835MOL0     H12721   6.036   4.918   5.373  2.2944 -1.0768 -0.0026
  835MOL0     H12722   5.950   4.779   5.460  1.0679 -1.0581  0.8554
  835MOL0     H12723   6.327   4.626   5.328  0.1528  0.4043 -1.9411
  835MOL0     H12724   6.224   5.329   5.819 -2.3238 -3.5403 -1.4953
  835MOL0     H12725   6.309   5.429   5.990  2.0922 -3.2186 -3.9711
  836MOL0     O12726   9.986   9.221   8.593  0.1097  1.0723 -0.0142
  836MOL0     C12727  10.003   9.108   8.643 -0.6372 -1.1081 -0.2306
  836MOL0     O12728  10.027   8.992   8.572 -0.1358  0.4259 -0.5282
  836MOL0     C12729  10.016   9.005   8.434 -0.4542  0.6730 -0.7176
  836MOL0     C12730   9.905   9.057   8.369  0.0142 -0.0068 -0.2728
  836MOL0     C12731   9.891   9.063   8.225  0.5864 -1.1802 -0.3519
  836MOL0     C12732  10.005   9.034   8.148  1.1724  0.6438 -0.0633
  836MOL0     O12733  10.005   9.061   8.012  0.4856  0.4307 -0.1655
  836MOL0     C12734   9.880   9.095   7.945  0.3484  0.4218 -0.7789
  836MOL0     C12735   9.888   9.031   7.804  0.2783  0.8896 -0.2086
  836MOL0     C12736  10.001   9.083   7.718 -0.4606 -0.0360 -0.0796
  836MOL0     C12737  10.023   9.235   7.730 -0.1522 -0.6807 -0.7257
  836MOL0     C12738  10.149   9.261   7.646  0.9646  0.4360  0.3070
  836MOL0     C12739  10.114   9.280   7.492  0.9411  0.7721  0.4803
  836MOL0     C12740  10.188   9.397   7.427 -0.1420 -0.2821 -0.2089
  836MOL0     C12741  10.346   9.376   7.423  0.0847  0.1069  0.4135
  836MOL0     N12742  10.414   9.489   7.345  0.7268  0.2522 -0.7360
  836MOL0     C12743  10.538   9.529   7.357 -0.4558  0.7822 -0.1741
  836MOL0     C12744  10.571   9.609   7.257  0.6227  0.4120 -0.4375
  836MOL0     C12745  10.696   9.694   7.249  0.1596  0.9315  0.0050
  836MOL0     C12746  10.800   9.657   7.140  1.1306 -0.2913  0.0373
  836MOL0     C12747  10.796   9.751   7.014  0.3306  0.4631  0.5252
  836MOL0     C12748  10.662   9.735   6.946 -0.6742  0.7319 -0.0006
  836MOL0     O12749  10.679   9.787   6.813 -0.8716  0.1713  0.3338
  836MOL0     C12750  10.585   9.767   6.716  0.1725 -0.6199 -0.5211
  836MOL0     C12751  10.469   9.689   6.735 -0.1117 -0.5320 -0.4912
  836MOL0     C12752  10.381   9.660   6.624 -0.1148  0.5000 -1.4017
  836MOL0     C12753  10.264   9.570   6.659  0.3535 -0.0418  0.0361
  836MOL0     C12754  10.390   9.729   6.499  0.6095  0.3976 -0.6336
  836MOL0     C12755  10.287   9.709   6.395  1.3555  0.5125  0.1173
  836MOL0     O12756  10.159   9.724   6.425 -0.0416 -0.0490  0.5321
  836MOL0     C12757  10.061   9.738   6.332 -0.9367 -0.5179 -0.7059
  836MOL0     C12758   9.968   9.845   6.354  0.3319  0.6032 -0.3612
  836MOL0     C12759   9.869   9.874   6.262 -0.0083 -0.7158 -1.2158
  836MOL0     C12760   9.855   9.796   6.149 -1.1400  0.7442  1.1756
  836MOL0     O12761   9.747   9.815   6.064  0.7049  0.4688  0.0455
  836MOL0     C12762   9.774   9.834   5.920  0.1214 -0.0030  0.2918
  836MOL0     C12763   9.695   9.737   5.835 -0.2472 -0.0371  0.0886
  836MOL0     C12764   9.708   9.755   5.683 -0.3257  0.5500 -0.7806
  836MOL0     C12765   9.592   9.662   5.617 -0.3863  0.5021 -0.8468
  836MOL0     C12766   9.606   9.656   5.460 -0.0081 -0.4936  0.9327
  836MOL0     C12767   9.491   9.574   5.406 -0.0685  0.2104 -0.5414
  836MOL0     C12768   9.482   9.576   5.256 -0.3137  0.1367  0.4223
  836MOL0     C12769   9.553   9.453   5.194 -0.0651  0.2001  0.5311
  836MOL0    Cl12770   9.497   9.469   5.020 -0.3780 -0.1105  0.5335
  836MOL0     C12771   9.956   9.694   6.125  0.4735 -0.1451  0.6450
  836MOL0     C12772  10.060   9.664   6.217 -0.2129  0.5064 -0.1706
  836MOL0     O12773  10.329   9.697   6.283 -0.6867  0.1600  0.4188
  836MOL0     C12774  10.526   9.782   6.485  0.9471  0.4902 -0.6256
  836MOL0     C12775  10.618   9.799   6.585 -0.4172 -0.3808 -0.0037
  836MOL0     N12776  10.476   9.596   7.159 -0.2006  0.4757  0.2976
  836MOL0     N12777  10.380   9.524   7.218  0.0377 -0.6905 -0.2169
  836MOL0     C12778  10.119   8.980   8.214 -0.3218 -0.7198 -0.3516
  836MOL0     C12779  10.114   8.964   8.354 -0.9098 -0.1820  1.0218
  836MOL0     C12780  10.018   9.099   8.789  0.6916  0.7251  0.5634
  836MOL0     C12781  10.101   9.000   8.841 -0.0400  0.1978  0.9758
  836MOL0     C12782  10.133   8.995   8.979 -0.5774 -0.7273  0.1548
  836MOL0     C12783  10.078   9.084   9.069  0.8270  0.3572  0.4879
  836MOL0     O12784  10.119   9.081   9.199  0.2419 -0.1843  0.1281
  836MOL0     C12785  10.070   9.187   9.283 -0.5148 -0.3582 -0.1465
  836MOL0     C12786  10.118   9.163   9.429 -0.7960  0.4165  0.3137
  836MOL0     C12787  10.272   9.152   9.448 -0.6950  0.3789  0.3224
  836MOL0     C12788  10.329   9.183   9.578  0.0232 -0.2247  0.6552
  836MOL0     C12789  10.260   9.107   9.690 -0.0448  0.6113  1.1093
  836MOL0     C12790  10.209   9.054   9.785 -0.0834  0.0043 -0.2327
  836MOL0     C12791   9.972   9.161   9.021 -0.6007 -1.0980 -0.8488
  836MOL0     C12792   9.944   9.175   8.886  1.1639 -0.4558 -0.5453
  836MOL0     H12793   9.823   9.090   8.432  1.3425 -3.4602  3.7398
  836MOL0     H12794   9.796   9.104   8.194 -0.5881 -3.5181 -0.0669
  836MOL0     H12795   9.789   9.052   7.988 -1.6924  1.9846 -3.2157
  836MOL0     H12796   9.880   9.204   7.940  2.2288  0.5588  0.9897
  836MOL0     H12797   9.871   8.924   7.814 -1.6678  0.8377 -3.0646
  836MOL0     H12798   9.798   9.061   7.749 -1.1802  1.3029  2.2420
  836MOL0     H12799  10.091   9.028   7.745 -0.7000 -0.0391  0.7222
  836MOL0     H12800   9.979   9.067   7.612  2.8426  0.6460 -0.9820
  836MOL0     H12801   9.938   9.294   7.696 -0.4652  0.0776  1.2080
  836MOL0     H12802  10.031   9.276   7.831  1.3974  2.8349 -2.1082
  836MOL0     H12803  10.194   9.348   7.697  2.0234  0.0142  0.1247
  836MOL0     H12804  10.219   9.178   7.654 -1.0662 -1.4549 -0.5722
  836MOL0     H12805  10.138   9.189   7.437  2.3734  0.2292  1.9111
  836MOL0     H12806  10.006   9.295   7.492  0.5679 -1.1530  3.1711
  836MOL0     H12807  10.137   9.411   7.331 -2.5357 -0.1666  0.9962
  836MOL0     H12808  10.182   9.496   7.473  1.9553  1.1579 -2.7479
  836MOL0     H12809  10.367   9.283   7.370 -3.8923 -0.5110 -0.3883
  836MOL0     H12810  10.393   9.370   7.522  2.3072  1.1934 -0.5225
  836MOL0     H12811  10.604   9.507   7.441 -0.2538  0.1707 -0.4877
  836MOL0     H12812  10.664   9.799   7.243  1.3707  1.2815 -0.7009
  836MOL0     H12813  10.750   9.696   7.344  1.0299  2.6885 -0.4759
  836MOL0     H12814  10.786   9.552   7.115  1.6540 -0.4793  0.5157
  836MOL0     H12815  10.891   9.677   7.196  0.7788  1.6399  0.0048
  836MOL0     H12816  10.881   9.739   6.946 -1.4471 -0.3198 -1.6775
  836MOL0     H12817  10.795   9.857   7.040  0.5805  1.7595 -3.8788
  836MOL0     H12818  10.597   9.799   7.005  0.1678 -0.0498  1.8546
  836MOL0     H12819  10.641   9.627   6.948  3.1584 -0.2871 -2.7990
  836MOL0     H12820  10.453   9.642   6.831 -3.4452 -2.2145 -1.6992
  836MOL0     H12821  10.234   9.518   6.567 -5.1562  5.8335 -2.1986
  836MOL0     H12822  10.293   9.491   6.728  2.2600 -0.1351 -0.7904
  836MOL0     H12823  10.184   9.634   6.696 -0.5875 -0.8467 -0.5550
  836MOL0     H12824   9.985   9.884   6.454  1.3301  1.8970 -1.0177
  836MOL0     H12825   9.801   9.958   6.274  1.2019  0.0585  0.8258
  836MOL0     H12826   9.747   9.938   5.899 -0.4714 -0.2813 -0.3856
  836MOL0     H12827   9.880   9.816   5.901  0.3617  0.5519  1.0810
  836MOL0     H12828   9.733   9.636   5.856  1.0095 -0.0473 -2.0102
  836MOL0     H12829   9.588   9.753   5.852  0.1459  2.0214  0.8366
  836MOL0     H12830   9.813   9.735   5.660 -0.0559  1.8783 -0.8073
  836MOL0     H12831   9.696   9.860   5.657  2.1398  0.7362 -1.3333
  836MOL0     H12832   9.614   9.559   5.647  0.6925  1.6396  2.6379
  836MOL0     H12833   9.491   9.686   5.653 -0.1271 -1.1931  1.2350
  836MOL0     H12834   9.704   9.619   5.430  0.3061  0.1084  1.2089
  836MOL0     H12835   9.595   9.759   5.424 -0.3266 -1.0337 -0.5938
  836MOL0     H12836   9.515   9.473   5.441 -0.2633 -0.0844 -1.2336
  836MOL0     H12837   9.397   9.610   5.449 -0.7443 -1.9462 -0.0588
  836MOL0     H12838   9.514   9.668   5.205  1.1182 -2.1597 -3.2324
  836MOL0     H12839   9.377   9.570   5.224  0.2097  1.1537 -1.6724
  836MOL0     H12840   9.521   9.354   5.227 -1.4384 -0.2668 -1.9338
  836MOL0     H12841   9.660   9.430   5.203 -0.4877 -2.0386  0.4451
  836MOL0     H12842   9.954   9.629   6.038  0.2194  1.4570 -0.6038
  836MOL0     H12843  10.129   9.581   6.204  2.3196  2.5177 -0.1085
  836MOL0     H12844  10.564   9.796   6.384  3.8911  3.4882  0.7068
  836MOL0     H12845  10.714   9.837   6.551 -1.0100  2.1416  0.9360
  836MOL0     H12846  10.195   8.939   8.148 -1.5886 -0.1506 -2.2543
  836MOL0     H12847  10.196   8.930   8.415 -0.9291  2.7314  2.8963
  836MOL0     H12848  10.151   8.932   8.773  0.2873  0.7677  0.6366
  836MOL0     H12849  10.204   8.920   9.011  2.1646  1.5179 -0.1868
  836MOL0     H12850  10.103   9.284   9.245 -2.8218 -0.0259 -1.5290
  836MOL0     H12851   9.961   9.176   9.286 -0.4158 -1.5139  0.0122
  836MOL0     H12852  10.085   9.063   9.461  1.8996 -0.2869  1.1367
  836MOL0     H12853  10.083   9.240   9.497  2.0557  0.6882  1.6242
  836MOL0     H12854  10.317   9.222   9.377  3.3674  0.3867  2.5833
  836MOL0     H12855  10.294   9.050   9.413 -2.4437  0.4484 -1.1481
  836MOL0     H12856  10.312   9.291   9.586 -1.4130 -0.1647 -2.1914
  836MOL0     H12857  10.431   9.148   9.560 -0.1083  0.8423 -2.9150
  836MOL0     H12858  10.166   9.002   9.869 -0.5860 -1.0019 -1.0833
  836MOL0     H12859   9.915   9.216   9.095  1.0406  0.3031 -0.5635
  836MOL0     H12860   9.869   9.244   8.846  2.1949  0.8276 -0.3386
  837MOL0     O12861   4.019   1.833   4.533 -0.6335 -0.4215 -0.0573
  837MOL0     C12862   4.108   1.890   4.467 -0.0832  0.0219 -0.3850
  837MOL0     O12863   4.118   1.893   4.325 -0.4419  0.2482 -0.4663
  837MOL0     C12864   4.062   1.784   4.251  0.3832 -0.1973  0.9296
  837MOL0     C12865   4.126   1.657   4.253 -0.1951  0.3260  0.4775
  837MOL0     C12866   4.074   1.551   4.178  0.9283  0.8125  0.7963
  837MOL0     C12867   3.970   1.569   4.082  0.2736  0.0817  0.6157
  837MOL0     O12868   3.939   1.484   3.984  0.9279  0.0066  0.1919
  837MOL0     C12869   4.040   1.384   3.960 -0.0106  0.3919  0.2580
  837MOL0     C12870   3.975   1.287   3.855 -0.5581  0.7966  0.1594
  837MOL0     C12871   4.056   1.167   3.839  0.2241 -0.3526  0.0927
  837MOL0     C12872   3.978   1.064   3.759  0.7712 -1.1119  0.1585
  837MOL0     C12873   4.044   0.920   3.763 -0.3686 -0.8365  0.5488
  837MOL0     C12874   3.959   0.804   3.703  0.0591 -0.4880  0.1355
  837MOL0     C12875   4.023   0.667   3.724 -1.1938 -0.8145  0.0545
  837MOL0     C12876   3.901   0.568   3.707 -0.7616 -0.0828 -1.2591
  837MOL0     N12877   3.814   0.593   3.583 -0.5878  0.0472 -0.3217
  837MOL0     C12878   3.872   0.576   3.461  0.1735 -0.1789 -0.2862
  837MOL0     C12879   3.770   0.604   3.377  0.6104 -0.7383  0.1029
  837MOL0     C12880   3.787   0.601   3.230 -1.0991 -0.3328  0.8595
  837MOL0     C12881   3.742   0.466   3.179 -0.4895  0.1660  1.1023
  837MOL0     C12882   3.788   0.438   3.037 -0.3090  0.9209  0.8947
  837MOL0     C12883   3.761   0.540   2.939  0.4757  0.4525  0.3273
  837MOL0     O12884   3.628   0.529   2.887  0.0269 -0.0282 -0.1614
  837MOL0     C12885   3.600   0.461   2.771 -0.2763  0.2330 -0.5179
  837MOL0     C12886   3.471   0.475   2.733 -0.3560  0.4476  0.7192
  837MOL0     C12887   3.420   0.397   2.625 -0.7137 -0.1907 -0.4998
  837MOL0     C12888   3.281   0.412   2.581  0.4267 -0.1816 -0.3801
  837MOL0     C12889   3.512   0.320   2.545 -0.9022 -0.1467  0.4665
  837MOL0     C12890   3.478   0.218   2.432  0.3827  0.9170  0.0290
  837MOL0     O12891   3.575   0.177   2.350  0.3580  0.4527 -0.0362
  837MOL0     C12892   3.542   0.126   2.229 -0.9287  0.3042  1.5143
  837MOL0     C12893   3.625   0.028   2.175  0.2161 -0.0167 -0.0610
  837MOL0     C12894   3.603  -0.035   2.051  0.9440  0.3806 -1.0344
  837MOL0     C12895   3.498   0.009   1.970 -0.9925  0.2636  0.0400
  837MOL0     O12896   3.487  -0.027   1.834  0.1411  0.4111  0.4972
  837MOL0     C12897   3.431  -0.155   1.805  0.0084  0.0914  0.0370
  837MOL0     C12898   3.285  -0.146   1.792 -0.0236 -0.3717 -0.9182
  837MOL0     C12899   3.246  -0.074   1.662  0.2855  0.1385  0.4574
  837MOL0     C12900   3.267  -0.174   1.545 -0.4507 -0.4185  0.5453
  837MOL0     C12901   3.387  -0.139   1.458  0.0117  0.9639  0.1843
  837MOL0     C12902   3.377  -0.213   1.320  0.4377 -0.8147  1.4126
  837MOL0     C12903   3.361  -0.360   1.317  0.0123 -0.0790 -0.0822
  837MOL0     C12904   3.484  -0.433   1.381  0.1283  0.5796 -0.3321
  837MOL0    Cl12905   3.483  -0.607   1.346 -0.2254  0.0829 -0.3663
  837MOL0     C12906   3.410   0.105   2.024 -0.3495 -0.2511  0.2972
  837MOL0     C12907   3.433   0.164   2.154  0.2296 -0.2889  1.1782
  837MOL0     O12908   3.358   0.195   2.423 -0.0120  0.1646 -0.3127
  837MOL0     C12909   3.648   0.325   2.584  0.4970  0.0893  0.7191
  837MOL0     C12910   3.691   0.390   2.701  0.4150  0.7644 -0.5451
  837MOL0     N12911   3.652   0.621   3.451  0.7890  0.0619  0.5224
  837MOL0     N12912   3.679   0.611   3.576 -0.6192  0.1345 -0.8892
  837MOL0     C12913   3.913   1.695   4.080 -0.4831  0.6549  0.1200
  837MOL0     C12914   3.959   1.794   4.165 -0.0324  0.8397  0.4942
  837MOL0     C12915   4.217   1.946   4.544  1.0123 -0.5198  0.2682
  837MOL0     C12916   4.287   2.056   4.490  0.3383  1.5496  0.3223
  837MOL0     C12917   4.391   2.122   4.561  0.4286 -1.1823  0.3726
  837MOL0     C12918   4.422   2.085   4.691 -0.1645 -0.2676  0.0062
  837MOL0     O12919   4.519   2.145   4.779 -0.8549 -0.2983  0.5643
  837MOL0     C12920   4.622   2.234   4.720  0.1117  0.2151 -1.1698
  837MOL0     C12921   4.755   2.197   4.790 -0.6705  0.6712 -0.7893
  837MOL0     C12922   4.747   2.195   4.945 -0.4823 -0.0374 -1.0161
  837MOL0     C12923   4.842   2.103   5.012  1.0110 -0.0386 -0.5325
  837MOL0     C12924   4.812   1.974   4.960 -1.2886  0.2684  0.9362
  837MOL0     C12925   4.789   1.863   4.909  0.2101 -0.6353 -0.8466
  837MOL0     C12926   4.346   1.986   4.743  0.6320  0.0306  0.7108
  837MOL0     C12927   4.252   1.911   4.674 -0.4201 -0.2481 -0.4688
  837MOL0     H12928   4.213   1.639   4.315  0.1246  1.6962  0.4755
  837MOL0     H12929   4.137   1.463   4.175  1.0342  0.9101 -0.3160
  837MOL0     H12930   4.130   1.438   3.928 -0.6352  2.0319  1.1164
  837MOL0     H12931   4.074   1.324   4.044  1.0174  0.7633  0.1234
  837MOL0     H12932   3.881   1.251   3.897  1.4936 -3.9215  1.3450
  837MOL0     H12933   3.961   1.343   3.763  0.3878  1.1685  0.2315
  837MOL0     H12934   4.144   1.197   3.781 -0.5950 -1.2339 -1.7025
  837MOL0     H12935   4.077   1.134   3.941 -1.2599  0.4668  0.6864
  837MOL0     H12936   3.878   1.043   3.799  1.7627 -1.0411  2.8353
  837MOL0     H12937   3.959   1.094   3.655  1.5124  1.1247  0.6139
  837MOL0     H12938   4.130   0.931   3.696 -0.7080  2.2148  0.4821
  837MOL0     H12939   4.084   0.887   3.859 -0.2473 -2.6178 -0.0719
  837MOL0     H12940   3.866   0.814   3.759 -0.4097  0.7395 -0.8108
  837MOL0     H12941   3.941   0.831   3.598 -1.8906 -1.4549  0.1700
  837MOL0     H12942   4.093   0.649   3.642  2.4644  3.1375  1.8884
  837MOL0     H12943   4.087   0.667   3.813 -1.9793 -2.8500  0.6688
  837MOL0     H12944   3.839   0.583   3.796  1.9975  3.4168  0.2814
  837MOL0     H12945   3.931   0.463   3.711  1.3112  0.5088  1.6243
  837MOL0     H12946   3.979   0.562   3.450  0.8810  0.8375  3.5884
  837MOL0     H12947   3.736   0.682   3.177  2.3745  1.5981  0.1511
  837MOL0     H12948   3.894   0.615   3.212 -0.8506  0.4360  2.6588
  837MOL0     H12949   3.632   0.465   3.185 -0.5924 -0.6894 -0.4649
  837MOL0     H12950   3.789   0.391   3.242  0.4068 -1.7479 -1.6372
  837MOL0     H12951   3.742   0.344   3.004 -0.1059  0.7854  0.9952
  837MOL0     H12952   3.895   0.415   3.042 -0.9757 -2.6922  2.0028
  837MOL0     H12953   3.839   0.539   2.862  1.7690  0.6543  1.5705
  837MOL0     H12954   3.774   0.636   2.991  2.6640 -1.0277  2.7382
  837MOL0     H12955   3.413   0.550   2.785  1.1018  2.8489 -0.9397
  837MOL0     H12956   3.232   0.469   2.661  1.1202 -0.1905  0.0588
  837MOL0     H12957   3.272   0.456   2.481 -0.6399  1.7106  0.4971
  837MOL0     H12958   3.232   0.315   2.581 -1.4711  0.7366 -0.3412
  837MOL0     H12959   3.718   0.010   2.230  0.5380  0.8742 -0.2958
  837MOL0     H12960   3.669  -0.118   2.026  2.0593  1.2448 -1.0659
  837MOL0     H12961   3.469  -0.202   1.714 -2.4692 -0.4080 -0.7998
  837MOL0     H12962   3.454  -0.237   1.873  2.4129  0.1150 -0.6237
  837MOL0     H12963   3.243  -0.247   1.797 -3.2379  0.9366  2.4720
  837MOL0     H12964   3.243  -0.106   1.884  0.6956 -0.3595 -0.5872
  837MOL0     H12965   3.303   0.016   1.638  2.5256 -1.5719 -1.0452
  837MOL0     H12966   3.141  -0.046   1.676  0.1282  0.1654 -0.6850
  837MOL0     H12967   3.278  -0.273   1.589 -2.2394 -0.9279 -0.0713
  837MOL0     H12968   3.186  -0.166   1.472  1.0596  1.8244 -1.0257
  837MOL0     H12969   3.482  -0.161   1.507 -1.3856 -1.9303  1.8844
  837MOL0     H12970   3.390  -0.030   1.448  1.6522  0.8823 -0.5061
  837MOL0     H12971   3.289  -0.172   1.271 -0.6864  0.0313  3.9475
  837MOL0     H12972   3.464  -0.187   1.258  0.1325 -0.3759  1.1622
  837MOL0     H12973   3.357  -0.401   1.216  2.7890 -0.3595 -0.1488
  837MOL0     H12974   3.277  -0.389   1.381  0.5202  0.8429  1.0385
  837MOL0     H12975   3.492  -0.400   1.484  1.8156  4.0266 -1.4342
  837MOL0     H12976   3.568  -0.389   1.328 -0.1642  1.6471  0.0770
  837MOL0     H12977   3.321   0.142   1.974  0.9057 -0.8131 -2.5325
  837MOL0     H12978   3.367   0.246   2.181  1.6882  1.4810 -0.4217
  837MOL0     H12979   3.717   0.265   2.526  0.6352 -0.0652  1.0410
  837MOL0     H12980   3.798   0.395   2.719  0.5023 -0.8579 -0.5526
  837MOL0     H12981   3.834   1.725   4.012  1.7854  2.4092 -1.9218
  837MOL0     H12982   3.912   1.891   4.154  3.7515  3.0608  1.9339
  837MOL0     H12983   4.250   2.085   4.392 -2.9764 -0.5813  0.7813
  837MOL0     H12984   4.443   2.212   4.529 -1.1611  0.2139  1.5083
  837MOL0     H12985   4.628   2.231   4.611  1.0783  3.4692 -1.3109
  837MOL0     H12986   4.603   2.340   4.743  0.3542  0.5554 -2.4388
  837MOL0     H12987   4.831   2.270   4.761 -0.2320 -0.0637 -1.5223
  837MOL0     H12988   4.792   2.100   4.758 -2.1439  0.2434 -1.3192
  837MOL0     H12989   4.646   2.166   4.972 -1.2654  1.3572 -2.2905
  837MOL0     H12990   4.765   2.296   4.985  1.4358 -1.6564  2.6791
  837MOL0     H12991   4.822   2.115   5.118 -2.5941  1.3810 -1.2250
  837MOL0     H12992   4.947   2.130   4.993  1.4047 -1.0148  0.1776
  837MOL0     H12993   4.766   1.763   4.877  1.5557 -1.3258  0.2421
  837MOL0     H12994   4.362   1.962   4.847 -1.7404 -0.2990  1.0526
  837MOL0     H12995   4.201   1.826   4.718  1.5155 -0.7591  0.9681
  838MOL0     O12996   1.707   2.897   6.660 -0.8667 -0.3135 -0.3713
  838MOL0     C12997   1.743   2.837   6.559  0.5342  0.4414 -0.2248
  838MOL0     O12998   1.677   2.833   6.445 -0.0067 -0.1590  0.1258
  838MOL0     C12999   1.540   2.843   6.440  0.7429 -1.1594  0.4360
  838MOL0     C13000   1.491   2.930   6.340 -0.0127  0.7583 -0.0468
  838MOL0     C13001   1.354   2.933   6.316 -0.1761 -0.4671  0.3763
  838MOL0     C13002   1.255   2.862   6.384 -0.1877  0.0213 -0.0413
  838MOL0     O13003   1.125   2.846   6.378  0.1885  0.3677  0.3375
  838MOL0     C13004   1.052   2.919   6.284 -0.1887  0.0660  0.7979
  838MOL0     C13005   0.906   2.865   6.291  0.1148 -0.1902  0.5258
  838MOL0     C13006   0.841   2.887   6.418  0.3361  0.3527 -0.4342
  838MOL0     C13007   0.723   2.801   6.437  1.2659  0.1569  0.0807
  838MOL0     C13008   0.613   2.802   6.321 -1.5209  0.6694  0.4263
  838MOL0     C13009   0.474   2.851   6.374 -0.9822 -0.3738 -0.2523
  838MOL0     C13010   0.359   2.865   6.264  0.1450  0.6303  0.3138
  838MOL0     C13011   0.384   2.977   6.162  0.8593 -0.2917 -0.2850
  838MOL0     N13012   0.363   3.113   6.211  0.1336  0.2701 -0.4458
  838MOL0     C13013   0.253   3.198   6.177 -0.5567  0.8618 -0.9654
  838MOL0     C13014   0.290   3.317   6.223  0.1465 -0.0189  0.3680
  838MOL0     C13015   0.195   3.438   6.209 -0.6393  0.0339 -0.8226
  838MOL0     C13016   0.253   3.565   6.286  1.4788 -0.5405  0.4724
  838MOL0     C13017   0.166   3.694   6.279 -0.2138 -0.4768 -0.3393
  838MOL0     C13018   0.165   3.750   6.133  1.0384  0.2234 -0.1947
  838MOL0     O13019   0.064   3.847   6.101  0.4573  0.0588 -0.8942
  838MOL0     C13020  -0.071   3.807   6.097  0.2346  0.1175  0.5096
  838MOL0     C13021  -0.113   3.682   6.091  1.0831  0.8427  0.8295
  838MOL0     C13022  -0.237   3.638   6.046  0.5815  0.6517  0.5761
  838MOL0     C13023  -0.252   3.480   6.026  0.3640  0.2740  0.2629
  838MOL0     C13024  -0.342   3.736   6.030  0.0633  0.2599  1.2018
  838MOL0     C13025  -0.487   3.706   6.000 -0.7583  0.1992  0.4741
  838MOL0     O13026  -0.565   3.822   5.990 -0.8607  0.0799  0.5480
  838MOL0     C13027  -0.700   3.795   5.952 -0.2760 -0.1279 -1.0057
  838MOL0     C13028  -0.798   3.874   6.023 -0.1403  0.0691 -0.3386
  838MOL0     C13029  -0.933   3.869   5.985 -0.1946  0.3465  0.0491
  838MOL0     C13030  -0.979   3.791   5.885  0.0237 -1.0105  0.2099
  838MOL0     O13031  -1.109   3.792   5.844 -0.4286  0.0056 -0.1710
  838MOL0     C13032  -1.180   3.915   5.814  0.6178  0.6821 -0.9001
  838MOL0     C13033  -1.135   3.974   5.679 -0.5750 -0.2220 -1.2852
  838MOL0     C13034  -1.016   4.067   5.697 -0.1235  0.0362  0.6615
  838MOL0     C13035  -0.979   4.135   5.561 -0.7799  0.8277 -0.4816
  838MOL0     C13036  -0.871   4.250   5.587 -0.0585 -0.4455  0.7501
  838MOL0     C13037  -0.843   4.337   5.464  0.7426  0.8165 -0.3929
  838MOL0     C13038  -0.820   4.249   5.345 -0.7083  0.2449  0.7710
  838MOL0     C13039  -0.779   4.319   5.211 -0.0055 -0.2497 -0.7700
  838MOL0    Cl13040  -0.615   4.391   5.254  0.2798 -0.2481  0.4314
  838MOL0     C13041  -0.892   3.732   5.802 -0.3792 -0.6790  0.3574
  838MOL0     C13042  -0.745   3.731   5.834  0.7104 -0.1163  0.3422
  838MOL0     O13043  -0.536   3.594   6.004  0.0423 -0.2241  0.7907
  838MOL0     C13044  -0.304   3.875   6.053 -0.8483  0.4272  0.2166
  838MOL0     C13045  -0.167   3.910   6.073 -0.2369  0.3457  0.5405
  838MOL0     N13046   0.404   3.307   6.292 -0.2185  0.6348 -0.0935
  838MOL0     N13047   0.451   3.185   6.290 -0.0379  0.6364 -0.2467
  838MOL0     C13048   1.314   2.784   6.488  0.7117  0.4511  1.1377
  838MOL0     C13049   1.446   2.775   6.519  0.1458  0.0048 -0.2741
  838MOL0     C13050   1.868   2.766   6.568 -0.1881 -0.4160 -0.0897
  838MOL0     C13051   1.981   2.826   6.640 -0.1149 -0.0128  0.1315
  838MOL0     C13052   2.110   2.762   6.632  0.5888  0.1129 -0.4104
  838MOL0     C13053   2.120   2.651   6.553  0.5262 -0.8200 -0.1504
  838MOL0     O13054   2.253   2.608   6.544  0.1526  0.6967  0.0386
  838MOL0     C13055   2.298   2.503   6.458  0.4613 -0.4023 -0.1582
  838MOL0     C13056   2.387   2.574   6.347  0.7434  0.2763 -0.7583
  838MOL0     C13057   2.312   2.600   6.211  0.8987 -0.2110  0.6422
  838MOL0     C13058   2.408   2.638   6.098  0.5718 -0.2260 -0.0250
  838MOL0     C13059   2.482   2.520   6.038 -0.9752 -1.3849  0.2523
  838MOL0     C13060   2.551   2.432   5.997  0.0862  0.6289  0.1124
  838MOL0     C13061   2.008   2.593   6.485 -1.0948  0.6041  0.1072
  838MOL0     C13062   1.883   2.646   6.497 -0.7553 -0.1169  0.2266
  838MOL0     H13063   1.559   2.990   6.280 -0.8879  1.6356 -0.1816
  838MOL0     H13064   1.328   3.004   6.239  1.8216 -1.0083 -0.8743
  838MOL0     H13065   1.048   3.027   6.297  3.0537  0.3580  0.2225
  838MOL0     H13066   1.106   2.899   6.191 -0.5399  0.1776  0.5706
  838MOL0     H13067   0.853   2.899   6.202  1.4342  4.5088  1.2702
  838MOL0     H13068   0.919   2.757   6.274 -0.8989  0.1658 -3.2323
  838MOL0     H13069   0.913   2.869   6.498  2.1680  1.3272 -1.7733
  838MOL0     H13070   0.816   2.993   6.415  3.6428  1.2513 -0.3346
  838MOL0     H13071   0.748   2.701   6.475  4.3881  1.5249  1.9789
  838MOL0     H13072   0.679   2.849   6.524  1.7023  1.0756 -0.2008
  838MOL0     H13073   0.644   2.865   6.238 -1.5956 -0.8148 -0.7691
  838MOL0     H13074   0.588   2.701   6.287 -1.8703  0.6476  0.7451
  838MOL0     H13075   0.443   2.786   6.457  0.8352  2.7989  3.2235
  838MOL0     H13076   0.479   2.948   6.424 -1.4204 -0.4607 -0.0383
  838MOL0     H13077   0.356   2.767   6.216 -2.4820 -0.5618  2.6040
  838MOL0     H13078   0.258   2.875   6.305  0.1902 -0.9860  0.9153
  838MOL0     H13079   0.317   2.971   6.075 -1.9309  2.7137  1.4720
  838MOL0     H13080   0.489   2.965   6.132  1.4979  2.2250  0.7314
  838MOL0     H13081   0.157   3.173   6.132 -0.4462  1.0185 -1.2919
  838MOL0     H13082   0.199   3.461   6.102 -0.6457 -2.0928 -1.3189
  838MOL0     H13083   0.097   3.413   6.248  0.1318 -2.0592 -0.1199
  838MOL0     H13084   0.355   3.589   6.253  1.0456  1.1268  0.2459
  838MOL0     H13085   0.261   3.545   6.393 -0.3445  2.6783  1.3414
  838MOL0     H13086   0.213   3.774   6.337 -0.2984 -0.9952  0.4622
  838MOL0     H13087   0.061   3.679   6.305 -1.2585  2.7903 -2.2349
  838MOL0     H13088   0.155   3.664   6.066 -1.5808  0.6411 -0.4415
  838MOL0     H13089   0.267   3.790   6.131  1.4370 -0.5904  1.4151
  838MOL0     H13090  -0.043   3.601   6.109 -1.5507 -1.8257 -0.0429
  838MOL0     H13091  -0.327   3.439   6.095  2.6114 -0.9138  2.1294
  838MOL0     H13092  -0.288   3.458   5.925  2.1794  2.3374 -0.9360
  838MOL0     H13093  -0.159   3.428   6.049 -0.7261 -0.4628  3.4735
  838MOL0     H13094  -0.761   3.943   6.098  0.6626 -1.9098  1.1712
  838MOL0     H13095  -1.010   3.929   6.033  1.0845  1.1876  1.1606
  838MOL0     H13096  -1.286   3.889   5.804 -0.6777  3.7485  2.5609
  838MOL0     H13097  -1.174   3.996   5.887  1.1369  0.3938 -0.6126
  838MOL0     H13098  -1.116   3.896   5.605 -0.8590 -1.6869  0.1330
  838MOL0     H13099  -1.220   4.028   5.636 -0.6001  0.2935 -0.5965
  838MOL0     H13100  -0.924   4.009   5.710 -0.8081 -0.6970  2.6050
  838MOL0     H13101  -1.032   4.137   5.779  0.4028  2.5954 -1.3070
  838MOL0     H13102  -0.942   4.058   5.493 -2.4604  1.1290 -1.7914
  838MOL0     H13103  -1.064   4.180   5.510 -0.1275  2.0615 -0.5250
  838MOL0     H13104  -0.777   4.201   5.612  0.4902 -0.1752 -0.6660
  838MOL0     H13105  -0.897   4.302   5.680  0.6573  2.2880 -0.4689
  838MOL0     H13106  -0.935   4.395   5.451 -1.2583 -0.6198  4.6325
  838MOL0     H13107  -0.752   4.393   5.488  1.0118 -0.6691  2.5537
  838MOL0     H13108  -0.905   4.186   5.317 -0.5439  0.3471  0.0330
  838MOL0     H13109  -0.750   4.172   5.378 -5.3053 -3.8735  2.0791
  838MOL0     H13110  -0.844   4.403   5.183  2.0714  1.6670 -0.1223
  838MOL0     H13111  -0.781   4.253   5.124 -1.6932 -4.4936  2.1741
  838MOL0     H13112  -0.936   3.680   5.718 -1.2514  2.3981 -1.2493
  838MOL0     H13113  -0.689   3.666   5.767 -0.6332  0.9183 -1.8963
  838MOL0     H13114  -0.379   3.952   6.043  0.1024  1.4719  0.9155
  838MOL0     H13115  -0.143   4.016   6.080 -1.8880  0.6387  3.7568
  838MOL0     H13116   1.238   2.721   6.534  0.0608  0.0751 -0.3949
  838MOL0     H13117   1.481   2.698   6.587 -4.2391 -1.2470  0.8875
  838MOL0     H13118   1.977   2.919   6.695 -1.0554 -0.5102  0.9297
  838MOL0     H13119   2.194   2.792   6.694 -1.4024  0.4538  2.2891
  838MOL0     H13120   2.360   2.426   6.504  0.6792 -0.7096 -0.9476
  838MOL0     H13121   2.217   2.443   6.414 -1.3725  0.4558  1.8866
  838MOL0     H13122   2.477   2.514   6.336 -0.9179 -2.5570 -0.0548
  838MOL0     H13123   2.404   2.677   6.378  1.1347 -0.1437  0.4734
  838MOL0     H13124   2.240   2.679   6.231 -0.1601 -1.4930  2.0478
  838MOL0     H13125   2.256   2.510   6.183 -1.3411  1.0143  1.0000
  838MOL0     H13126   2.482   2.707   6.140  1.4827 -2.1724  1.7971
  838MOL0     H13127   2.352   2.692   6.022 -4.0788 -0.1847  3.0386
  838MOL0     H13128   2.604   2.347   5.959 -2.1862 -0.9654  0.3420
  838MOL0     H13129   2.011   2.504   6.422 -1.7533 -0.1922  1.1643
  838MOL0     H13130   1.804   2.605   6.436 -0.3318 -2.3188  1.0633
  839MOL0     O13131   7.309   8.968   6.790  0.2579  0.1866 -1.1496
  839MOL0     C13132   7.381   8.867   6.806 -0.7241 -1.0839  0.3108
  839MOL0     O13133   7.396   8.770   6.716  0.8191 -0.5279 -1.0665
  839MOL0     C13134   7.345   8.778   6.585  0.7962 -0.4353 -0.7068
  839MOL0     C13135   7.422   8.718   6.497 -0.0513 -0.2487 -0.9935
  839MOL0     C13136   7.403   8.731   6.356 -0.0653  1.6455 -0.4138
  839MOL0     C13137   7.299   8.816   6.310 -0.3854  0.6536 -0.6752
  839MOL0     O13138   7.289   8.876   6.192 -0.7047  0.2732  0.1940
  839MOL0     C13139   7.314   8.802   6.068 -0.4720 -0.1005 -0.1492
  839MOL0     C13140   7.334   8.887   5.934  0.3657  1.2922 -1.7311
  839MOL0     C13141   7.460   8.974   5.936 -0.9637 -0.9839  0.4488
  839MOL0     C13142   7.580   8.898   5.883 -0.2990 -0.8582 -0.4190
  839MOL0     C13143   7.711   8.976   5.914  0.1903 -1.6717 -0.3335
  839MOL0     C13144   7.833   8.934   5.828 -0.4463  0.1785  0.7653
  839MOL0     C13145   7.848   9.012   5.696 -0.0869  0.5920  0.7283
  839MOL0     C13146   7.904   8.929   5.582 -0.1988 -0.6213  0.6931
  839MOL0     N13147   7.929   8.999   5.455  0.0032  0.0045 -0.0999
  839MOL0     C13148   7.830   9.053   5.369 -0.5906 -0.3567  0.3111
  839MOL0     C13149   7.895   9.135   5.285 -0.4592  0.8091 -1.4117
  839MOL0     C13150   7.830   9.196   5.157  0.1698 -0.3321  0.5226
  839MOL0     C13151   7.918   9.290   5.073 -0.1225  0.3658 -0.7264
  839MOL0     C13152   7.839   9.364   4.963  0.1090  0.3059 -0.5438
  839MOL0     C13153   7.703   9.422   4.986 -0.0843  0.5960 -0.2462
  839MOL0     O13154   7.662   9.498   4.877  0.3692 -0.5677  0.0322
  839MOL0     C13155   7.532   9.551   4.873 -0.3133 -0.1464 -0.6494
  839MOL0     C13156   7.503   9.647   4.778  0.1314 -0.3285 -0.1048
  839MOL0     C13157   7.373   9.699   4.756 -0.2131 -0.0410 -0.5529
  839MOL0     C13158   7.358   9.779   4.624  0.7040  0.4996  0.1813
  839MOL0     C13159   7.273   9.660   4.850 -0.8327  1.3158  0.8612
  839MOL0     C13160   7.130   9.702   4.851  0.0742 -0.7291 -0.0893
  839MOL0     O13161   7.043   9.627   4.905 -0.1968 -1.0544  0.1909
  839MOL0     C13162   6.912   9.656   4.884  0.4410  0.3012 -0.0030
  839MOL0     C13163   6.817   9.559   4.830  0.3429  0.0042  0.6491
  839MOL0     C13164   6.685   9.586   4.813  0.5210 -0.3315  0.8773
  839MOL0     C13165   6.635   9.707   4.854  0.1001  0.0278 -0.1107
  839MOL0     O13166   6.495   9.721   4.855  0.5117  0.6408  1.1729
  839MOL0     C13167   6.425   9.635   4.944 -0.2502 -0.0543  0.0796
  839MOL0     C13168   6.281   9.576   4.891 -0.5214 -0.0438 -0.3070
  839MOL0     C13169   6.241   9.434   4.919 -0.4324 -0.4611  0.5004
  839MOL0     C13170   6.122   9.406   4.829 -0.7158 -0.5926 -0.2162
  839MOL0     C13171   6.091   9.256   4.821 -0.2951  0.1575 -0.1345
  839MOL0     C13172   5.981   9.227   4.718 -0.0294  0.2061 -0.4462
  839MOL0     C13173   5.838   9.288   4.746  0.0285  0.9048 -0.2797
  839MOL0     C13174   5.743   9.266   4.631 -0.2020  0.9262 -0.3950
  839MOL0    Cl13175   5.622   9.404   4.612 -0.7186  0.0350  0.1693
  839MOL0     C13176   6.722   9.806   4.910  0.3727  0.8104  0.3102
  839MOL0     C13177   6.860   9.777   4.920  0.4682 -0.9759 -0.5724
  839MOL0     O13178   7.105   9.804   4.785 -0.6944 -0.0751  0.0764
  839MOL0     C13179   7.308   9.568   4.949  0.0448 -0.3143  0.6771
  839MOL0     C13180   7.427   9.510   4.956 -0.7788  0.1008 -0.5546
  839MOL0     N13181   8.027   9.147   5.328  0.4423  0.4144 -0.4309
  839MOL0     N13182   8.046   9.075   5.435  0.7656  1.2857  0.0985
  839MOL0     C13183   7.217   8.873   6.408  0.0452 -1.0675  0.0875
  839MOL0     C13184   7.234   8.851   6.542  0.9472 -0.0035  0.0231
  839MOL0     C13185   7.443   8.856   6.938  0.7951  0.6149  0.4008
  839MOL0     C13186   7.473   8.723   6.981  0.6481 -0.0156  0.6622
  839MOL0     C13187   7.536   8.711   7.099 -0.0077 -0.3394  0.6213
  839MOL0     C13188   7.552   8.820   7.197 -0.0383 -0.3574  0.4698
  839MOL0     O13189   7.606   8.790   7.318 -0.4893 -0.0549  0.1722
  839MOL0     C13190   7.626   8.895   7.415 -0.7946  0.6477 -0.0046
  839MOL0     C13191   7.679   8.847   7.547  0.1604 -0.7828  0.0496
  839MOL0     C13192   7.569   8.784   7.636  1.1216  0.5878 -0.9864
  839MOL0     C13193   7.631   8.743   7.769 -0.4042  0.0448  0.0674
  839MOL0     C13194   7.700   8.856   7.837  0.6883 -0.2748  0.8364
  839MOL0     C13195   7.744   8.951   7.892 -0.1936  0.1000 -0.9510
  839MOL0     C13196   7.508   8.945   7.155  0.3047  0.2352 -0.3216
  839MOL0     C13197   7.449   8.967   7.031 -0.8042  0.7347 -0.3115
  839MOL0     H13198   7.514   8.676   6.538  1.0438  2.7161 -0.1432
  839MOL0     H13199   7.470   8.687   6.283 -0.3445 -2.7164  1.6177
  839MOL0     H13200   7.405   8.742   6.082 -0.0968  0.6347  0.6578
  839MOL0     H13201   7.234   8.730   6.053  2.0731 -2.8407 -1.7927
  839MOL0     H13202   7.323   8.829   5.842 -0.1058  1.1682 -1.5975
  839MOL0     H13203   7.258   8.964   5.948  0.5706  1.1981  0.0646
  839MOL0     H13204   7.436   9.071   5.893 -0.7541 -1.0353  0.2165
  839MOL0     H13205   7.478   8.997   6.041 -0.5014 -1.6137  0.5130
  839MOL0     H13206   7.582   8.796   5.924 -0.4490 -0.2992  1.0422
  839MOL0     H13207   7.573   8.911   5.775 -0.6248  0.9739 -0.2058
  839MOL0     H13208   7.689   9.080   5.889 -3.4319 -1.8510  1.3644
  839MOL0     H13209   7.735   8.971   6.021 -0.3826  1.3553  0.0179
  839MOL0     H13210   7.926   8.959   5.879 -0.2209  3.1098 -0.8796
  839MOL0     H13211   7.830   8.827   5.804 -0.0614 -0.0805  1.8092
  839MOL0     H13212   7.758   9.069   5.671  0.0394 -0.6656 -3.2368
  839MOL0     H13213   7.921   9.087   5.728  0.9442 -1.4155  3.5376
  839MOL0     H13214   7.840   8.844   5.556  1.6604 -2.1473  0.8996
  839MOL0     H13215   8.006   8.898   5.608  1.3351  3.2537 -0.0179
  839MOL0     H13216   7.725   9.028   5.363 -0.9719  0.8238  1.5113
  839MOL0     H13217   7.779   9.128   5.088  1.2497  0.7835 -1.4608
  839MOL0     H13218   7.752   9.262   5.197 -2.1485 -0.7655 -2.8838
  839MOL0     H13219   7.986   9.218   5.026 -2.5479 -3.0164  0.5583
  839MOL0     H13220   7.963   9.361   5.143  0.0237 -0.3729 -0.0619
  839MOL0     H13221   7.812   9.293   4.884 -5.7751 -1.5330  2.5285
  839MOL0     H13222   7.897   9.447   4.922 -1.8472  2.7885  1.4467
  839MOL0     H13223   7.708   9.486   5.075  1.8958 -0.0994  0.1906
  839MOL0     H13224   7.631   9.340   4.997 -3.1868  3.3184  2.2497
  839MOL0     H13225   7.582   9.663   4.705 -0.7862 -0.6909 -1.2124
  839MOL0     H13226   7.417   9.737   4.542  2.2341  1.1530  0.9145
  839MOL0     H13227   7.260   9.761   4.579  2.3325  0.1317 -3.6157
  839MOL0     H13228   7.390   9.882   4.638  0.2000  0.6406  0.3057
  839MOL0     H13229   6.843   9.461   4.791 -0.6990  0.4255 -1.2120
  839MOL0     H13230   6.625   9.511   4.763 -1.8674  2.3045 -0.4699
  839MOL0     H13231   6.493   9.555   4.975  1.0516 -0.5615 -3.5986
  839MOL0     H13232   6.406   9.688   5.037  2.3168 -0.7036  1.0476
  839MOL0     H13233   6.207   9.630   4.951 -0.6587  0.6364 -1.0626
  839MOL0     H13234   6.269   9.614   4.789  1.2473  0.3663 -0.3955
  839MOL0     H13235   6.206   9.426   5.022 -0.8679  1.4929  0.5302
  839MOL0     H13236   6.318   9.358   4.903  0.3613 -0.7207  4.5013
  839MOL0     H13237   6.035   9.467   4.857 -0.7974 -0.0746 -1.5611
  839MOL0     H13238   6.135   9.440   4.726 -0.7523 -1.1013 -0.3941
  839MOL0     H13239   6.063   9.225   4.922  3.3625  1.8646  1.6080
  839MOL0     H13240   6.182   9.199   4.798  0.5824  2.3319 -2.6313
  839MOL0     H13241   6.013   9.264   4.620  0.5963 -2.4517 -1.3378
  839MOL0     H13242   5.970   9.118   4.712  3.4711 -0.3294  0.6064
  839MOL0     H13243   5.846   9.396   4.759 -1.9152  1.2111 -1.2818
  839MOL0     H13244   5.795   9.258   4.842 -4.0380  2.8359 -1.2754
  839MOL0     H13245   5.709   9.168   4.663  1.9380  0.8842  2.1154
  839MOL0     H13246   5.798   9.251   4.538 -1.4375  1.4996 -1.2334
  839MOL0     H13247   6.672   9.896   4.945  1.3913  0.4493  2.9140
  839MOL0     H13248   6.928   9.848   4.965 -0.1457 -0.0246 -1.1290
  839MOL0     H13249   7.234   9.521   5.013  0.6533  0.4401  1.9828
  839MOL0     H13250   7.434   9.441   5.040  0.7494  1.1353  0.2086
  839MOL0     H13251   7.152   8.957   6.387  1.6550  0.0195 -0.7401
  839MOL0     H13252   7.157   8.883   6.612 -0.7819 -0.4130 -1.6187
  839MOL0     H13253   7.447   8.634   6.925  1.7096 -0.7371  1.3009
  839MOL0     H13254   7.561   8.610   7.133 -0.0191 -1.0874 -1.4375
  839MOL0     H13255   7.705   8.963   7.382  1.4442 -0.9212  1.8221
  839MOL0     H13256   7.532   8.950   7.426 -1.3058 -0.0694 -0.6266
  839MOL0     H13257   7.712   8.941   7.592 -0.1532 -0.6647  0.0390
  839MOL0     H13258   7.754   8.769   7.533 -0.0610 -0.7617 -1.4209
  839MOL0     H13259   7.524   8.694   7.592  0.6372  1.5537 -2.5267
  839MOL0     H13260   7.485   8.849   7.661  1.2853  1.2411 -2.0765
  839MOL0     H13261   7.693   8.653   7.760 -2.1208 -1.3344  1.2582
  839MOL0     H13262   7.559   8.709   7.844  0.4279 -0.1164  0.8142
  839MOL0     H13263   7.781   9.034   7.949 -0.3825 -0.2627 -0.2849
  839MOL0     H13264   7.493   9.033   7.217 -1.3246  0.2482 -0.6963
  839MOL0     H13265   7.404   9.061   7.002 -0.5103  0.3380 -2.1943
  840MOL0     O13266   4.585   3.757   3.272  0.2533 -0.2595  0.2187
  840MOL0     C13267   4.484   3.718   3.325  0.0165 -0.0878 -0.8486
  840MOL0     O13268   4.476   3.607   3.409 -0.0519 -0.6021 -0.0058
  840MOL0     C13269   4.568   3.516   3.453 -0.6061 -0.9751 -1.0482
  840MOL0     C13270   4.521   3.403   3.507 -0.1675 -0.4920 -0.3182
  840MOL0     C13271   4.610   3.295   3.536 -0.3546  0.0415 -0.4028
  840MOL0     C13272   4.752   3.316   3.519  1.0898 -0.6508 -0.4541
  840MOL0     O13273   4.841   3.220   3.543 -0.4119 -0.4135  0.0834
  840MOL0     C13274   4.902   3.213   3.676 -0.2855 -0.3217  0.1704
  840MOL0     C13275   4.821   3.146   3.777  0.3392  0.5409 -0.1813
  840MOL0     C13276   4.900   3.146   3.916 -0.0073 -0.0702 -0.0603
  840MOL0     C13277   4.894   3.285   3.993  0.5945  1.2311 -0.3157
  840MOL0     C13278   4.758   3.334   4.042  0.0737  0.4879 -0.0727
  840MOL0     C13279   4.746   3.487   4.076  0.0218 -0.6855 -0.2727
  840MOL0     C13280   4.853   3.537   4.185 -1.1745  0.3103 -0.0715
  840MOL0     C13281   4.845   3.694   4.228  1.4791 -0.1888  0.1655
  840MOL0     N13282   4.719   3.710   4.296 -0.2522  0.3376 -0.0112
  840MOL0     C13283   4.617   3.774   4.235  0.6319  0.2255 -0.4338
  840MOL0     C13284   4.510   3.758   4.318  0.0431 -0.0478  0.0324
  840MOL0     C13285   4.368   3.813   4.313 -0.8311 -0.4655  0.4563
  840MOL0     C13286   4.342   3.950   4.360  1.5208  0.3489 -1.0264
  840MOL0     C13287   4.415   4.067   4.298  0.1317 -0.3294 -0.1076
  840MOL0     C13288   4.347   4.193   4.337 -0.3078 -0.2480  0.2135
  840MOL0     O13289   4.414   4.302   4.259 -0.1282 -0.1522 -0.2956
  840MOL0     C13290   4.341   4.423   4.246 -1.3453  0.1392 -0.6372
  840MOL0     C13291   4.423   4.522   4.187  0.7180  0.3611  0.6046
  840MOL0     C13292   4.374   4.653   4.168  0.4140  0.4231  0.4278
  840MOL0     C13293   4.477   4.757   4.124  0.0582 -0.7542 -0.2211
  840MOL0     C13294   4.237   4.682   4.195 -0.1377 -0.5352 -0.4188
  840MOL0     C13295   4.173   4.813   4.169 -1.0844 -0.0109  0.4006
  840MOL0     O13296   4.058   4.839   4.233 -0.1210  0.3536  0.1324
  840MOL0     C13297   3.982   4.954   4.209 -0.1770  0.0976  0.1772
  840MOL0     C13298   3.973   5.012   4.083 -0.2962 -0.4691 -1.4910
  840MOL0     C13299   3.894   5.132   4.081 -0.7115 -0.2303  0.2564
  840MOL0     C13300   3.814   5.183   4.183  1.1152 -0.0399  0.0757
  840MOL0     O13301   3.752   5.298   4.151  0.5313 -0.2739  0.0062
  840MOL0     C13302   3.667   5.369   4.240  1.0430 -0.3006  0.5018
  840MOL0     C13303   3.529   5.311   4.270 -0.7701  0.0690 -0.6720
  840MOL0     C13304   3.466   5.251   4.140 -0.1299 -0.0273 -0.2302
  840MOL0     C13305   3.333   5.191   4.170 -0.2236  0.4789 -0.1389
  840MOL0     C13306   3.328   5.088   4.291 -1.0299 -0.3198 -0.2654
  840MOL0     C13307   3.191   5.019   4.302  0.1146  0.6681 -0.8023
  840MOL0     C13308   3.097   5.118   4.383  0.0653 -0.5350 -0.7976
  840MOL0     C13309   2.947   5.074   4.376  0.2724 -0.5467 -0.5544
  840MOL0    Cl13310   2.899   5.109   4.203  0.4115  0.1398  0.0668
  840MOL0     C13311   3.823   5.116   4.303  0.8651 -0.9483 -0.3956
  840MOL0     C13312   3.901   5.000   4.315 -0.0269 -0.8807 -0.2291
  840MOL0     O13313   4.228   4.900   4.102 -1.1404  0.3311 -0.0502
  840MOL0     C13314   4.157   4.581   4.257 -0.8180 -0.3253 -0.2166
  840MOL0     C13315   4.215   4.453   4.279 -0.4530  0.6477 -1.6740
  840MOL0     N13316   4.556   3.685   4.425  0.4551  0.7338  0.5684
  840MOL0     N13317   4.676   3.646   4.410 -0.1275 -0.6540 -0.1081
  840MOL0     C13318   4.793   3.439   3.479 -0.3271  0.0884  0.9519
  840MOL0     C13319   4.704   3.536   3.445  0.9513  0.5037 -0.9487
  840MOL0     C13320   4.353   3.785   3.296 -0.2892 -0.2951  1.0475
  840MOL0     C13321   4.340   3.869   3.183  1.1242 -0.6949 -0.1447
  840MOL0     C13322   4.220   3.931   3.157 -0.1046  0.3525  0.2215
  840MOL0     C13323   4.109   3.910   3.237 -0.1307 -0.6786 -0.2673
  840MOL0     O13324   3.982   3.946   3.206  0.5179  0.6243  0.4198
  840MOL0     C13325   3.918   3.873   3.094  0.3939 -0.1349 -0.1850
  840MOL0     C13326   3.798   3.962   3.036  0.7907  0.1203  1.1262
  840MOL0     C13327   3.732   3.901   2.904  0.6419 -1.1133 -0.3235
  840MOL0     C13328   3.677   3.766   2.945  0.4346 -0.2870 -0.4876
  840MOL0     C13329   3.554   3.723   2.876  1.0340 -0.0242 -0.0291
  840MOL0     C13330   3.451   3.685   2.824  0.0740 -0.7477 -0.1884
  840MOL0     C13331   4.129   3.838   3.349 -0.2186 -0.0191 -0.7145
  840MOL0     C13332   4.247   3.790   3.384 -0.8294  0.0217  0.7212
  840MOL0     H13333   4.414   3.388   3.520 -0.4952 -0.9447 -2.9974
  840MOL0     H13334   4.556   3.210   3.577 -3.4531  1.7072 -0.6906
  840MOL0     H13335   5.003   3.171   3.678  0.4732  1.4465  1.2377
  840MOL0     H13336   4.928   3.314   3.708  3.2557 -2.1276  4.0403
  840MOL0     H13337   4.721   3.190   3.778 -0.3769 -0.9482  2.2144
  840MOL0     H13338   4.801   3.042   3.750 -1.3818  1.0999 -1.2839
  840MOL0     H13339   4.860   3.067   3.979 -2.3620 -2.0657 -3.6570
  840MOL0     H13340   5.001   3.112   3.895 -0.8002 -1.6057 -1.6817
  840MOL0     H13341   4.978   3.289   4.064 -0.8192  2.3116  1.3888
  840MOL0     H13342   4.929   3.362   3.925  0.9345  0.5984 -0.8645
  840MOL0     H13343   4.690   3.313   3.960  1.9697  2.8000 -2.3890
  840MOL0     H13344   4.720   3.279   4.129 -0.9265 -0.9829 -1.4034
  840MOL0     H13345   4.767   3.540   3.983  1.4433 -1.5663 -0.4770
  840MOL0     H13346   4.643   3.514   4.101 -0.0761 -0.7438 -0.6149
  840MOL0     H13347   4.837   3.471   4.270  2.5888  0.8805  1.2556
  840MOL0     H13348   4.956   3.517   4.154 -1.6612  0.4512 -1.9502
  840MOL0     H13349   4.843   3.758   4.139  0.5534  0.3544  0.5616
  840MOL0     H13350   4.923   3.727   4.298  1.0783  2.9444 -0.7058
  840MOL0     H13351   4.619   3.835   4.146 -2.7225 -1.5497 -1.8856
  840MOL0     H13352   4.343   3.797   4.208  2.8935  0.8630 -0.7746
  840MOL0     H13353   4.310   3.740   4.370  0.1811 -0.2676  1.7758
  840MOL0     H13354   4.345   3.958   4.469 -0.2631 -1.4320 -0.7991
  840MOL0     H13355   4.237   3.975   4.341  1.3383  1.5537  1.2187
  840MOL0     H13356   4.408   4.047   4.191 -3.4759 -1.3189  0.1742
  840MOL0     H13357   4.520   4.055   4.324  0.4105 -2.2779 -1.9012
  840MOL0     H13358   4.354   4.213   4.444  1.4728 -2.5720  0.6025
  840MOL0     H13359   4.243   4.189   4.301 -0.5960 -2.2471  1.1411
  840MOL0     H13360   4.522   4.510   4.145  0.6336 -0.2946  0.5861
  840MOL0     H13361   4.450   4.852   4.171  0.3863 -0.5216 -0.4948
  840MOL0     H13362   4.584   4.749   4.142 -0.0142 -0.9073  0.1573
  840MOL0     H13363   4.461   4.775   4.017 -4.5038 -1.1213  0.1970
  840MOL0     H13364   4.044   4.989   4.004  1.5849 -1.9800  0.5217
  840MOL0     H13365   3.894   5.194   3.992 -2.4181 -0.7494 -0.1416
  840MOL0     H13366   3.713   5.398   4.335  0.7362  0.4761  0.4268
  840MOL0     H13367   3.648   5.461   4.183 -1.1147 -3.0781 -3.7856
  840MOL0     H13368   3.548   5.228   4.338  2.1295 -0.0598 -1.4873
  840MOL0     H13369   3.465   5.384   4.321  2.1647  2.9000 -0.6707
  840MOL0     H13370   3.532   5.183   4.086  2.2782  2.4869 -0.6892
  840MOL0     H13371   3.467   5.331   4.065  0.6443  0.3456  0.1633
  840MOL0     H13372   3.266   5.277   4.183  0.4218  1.1342 -1.0345
  840MOL0     H13373   3.313   5.136   4.077 -0.2921 -1.0770  0.7744
  840MOL0     H13374   3.358   5.145   4.379 -4.0237 -0.5363  1.0041
  840MOL0     H13375   3.411   5.021   4.267  0.8340  1.3287  1.1848
  840MOL0     H13376   3.151   4.999   4.202  2.2580  3.8661 -2.4654
  840MOL0     H13377   3.200   4.927   4.361 -0.7611 -0.5129 -2.4048
  840MOL0     H13378   3.116   5.219   4.346  1.7799  0.2740  1.9814
  840MOL0     H13379   3.119   5.121   4.490  0.0622 -1.5035 -0.7630
  840MOL0     H13380   2.881   5.131   4.442 -3.2339 -2.4429 -2.1717
  840MOL0     H13381   2.944   4.967   4.397  3.2219 -0.5912  0.1436
  840MOL0     H13382   3.770   5.149   4.392  1.1734  3.1151 -1.5182
  840MOL0     H13383   3.893   4.958   4.415  1.1591  0.2897  0.3956
  840MOL0     H13384   4.050   4.597   4.265 -0.5773  2.1669 -1.0152
  840MOL0     H13385   4.161   4.372   4.326  1.3257 -1.9564 -3.8552
  840MOL0     H13386   4.898   3.464   3.470 -0.5695  0.7458 -0.1220
  840MOL0     H13387   4.744   3.630   3.409  2.0695 -0.1363 -1.4409
  840MOL0     H13388   4.417   3.875   3.107  0.5091 -1.6096 -0.8557
  840MOL0     H13389   4.215   3.985   3.063  0.2916 -1.5367 -0.9392
  840MOL0     H13390   3.993   3.850   3.018  0.0888  1.1914 -0.9227
  840MOL0     H13391   3.879   3.781   3.139 -1.1450 -0.5125 -2.1452
  840MOL0     H13392   3.854   4.053   3.012 -1.9077  1.6360  0.1474
  840MOL0     H13393   3.732   3.982   3.121  0.0968  1.4171  0.3139
  840MOL0     H13394   3.803   3.893   2.822  0.0621 -1.0889 -0.8337
  840MOL0     H13395   3.654   3.971   2.871  0.4233 -1.1825  0.0335
  840MOL0     H13396   3.648   3.773   3.050 -2.1211 -0.6298 -1.0900
  840MOL0     H13397   3.756   3.690   2.945  1.1532  0.4358  0.8850
  840MOL0     H13398   3.365   3.641   2.777 -0.6926 -0.8628  1.2482
  840MOL0     H13399   4.046   3.821   3.416 -1.1405  0.3369 -1.7370
  840MOL0     H13400   4.263   3.730   3.474 -1.5874 -1.6213 -0.1774
  841MOL0     O13401   1.524   1.281  10.603 -0.5762  0.4483 -0.3758
  841MOL0     C13402   1.567   1.165  10.591 -0.0786  0.8570 -0.0095
  841MOL0     O13403   1.613   1.091  10.703  0.2046  0.0804 -0.7957
  841MOL0     C13404   1.638   1.168  10.813  1.0527  0.4366 -0.1306
  841MOL0     C13405   1.524   1.213  10.895  0.5177  0.5820  0.2327
  841MOL0     C13406   1.541   1.267  11.018  0.8308  0.1335 -0.5886
  841MOL0     C13407   1.668   1.270  11.078  0.6585 -0.3286  0.0739
  841MOL0     O13408   1.658   1.312  11.202 -0.3385 -1.1076 -0.7895
  841MOL0     C13409   1.781   1.367  11.258 -0.1686  0.7105 -0.3340
  841MOL0     C13410   1.765   1.382  11.413 -0.2009 -1.0946  0.2444
  841MOL0     C13411   1.757   1.242  11.478  1.2571 -0.1682  0.7202
  841MOL0     C13412   1.732   1.239  11.625 -0.6217  0.7667  0.3026
  841MOL0     C13413   1.750   1.099  11.689 -0.1903 -0.0703  0.9920
  841MOL0     C13414   1.624   1.024  11.655  0.0938  0.5055 -0.2833
  841MOL0     C13415   1.639   0.887  11.736  0.6365 -0.6895 -0.5895
  841MOL0     C13416   1.499   0.825  11.752  0.0093  0.3568 -0.0595
  841MOL0     N13417   1.501   0.691  11.814  0.0785 -0.5444 -0.0144
  841MOL0     C13418   1.450   0.590  11.736 -0.2338  0.1528 -0.3494
  841MOL0     C13419   1.456   0.487  11.826  0.6113  0.6880  0.0785
  841MOL0     C13420   1.420   0.344  11.813  0.1132 -0.0704 -0.0275
  841MOL0     C13421   1.522   0.260  11.729  0.5478  0.5382  0.0170
  841MOL0     C13422   1.537   0.282  11.584  0.0909  0.9453  1.0482
  841MOL0     C13423   1.643   0.384  11.557  0.1247  0.0365 -1.0506
  841MOL0     O13424   1.623   0.422  11.419 -0.4291  0.2542  0.0034
  841MOL0     C13425   1.741   0.480  11.367  0.0535 -0.8153 -0.6438
  841MOL0     C13426   1.825   0.576  11.430  0.4458 -0.5167  0.8293
  841MOL0     C13427   1.947   0.628  11.380 -0.4527 -0.7370 -0.6266
  841MOL0     C13428   2.025   0.727  11.468  0.1254  0.2237 -0.7597
  841MOL0     C13429   1.988   0.569  11.252 -0.8645 -0.2104 -0.7401
  841MOL0     C13430   2.121   0.606  11.182 -0.5853  0.2924  0.0656
  841MOL0     O13431   2.152   0.531  11.073 -0.5450 -0.0256 -0.9228
  841MOL0     C13432   2.280   0.517  11.033  0.3612  0.1700 -0.1230
  841MOL0     C13433   2.381   0.459  11.108  0.3221 -0.0298 -0.5787
  841MOL0     C13434   2.511   0.447  11.058 -0.8687  0.6608  1.2498
  841MOL0     C13435   2.555   0.511  10.939 -0.1595 -1.0559  0.3543
  841MOL0     O13436   2.683   0.499  10.889  0.8720 -0.1943 -0.7249
  841MOL0     C13437   2.739   0.609  10.824 -0.1410  0.3005  0.2884
  841MOL0     C13438   2.866   0.650  10.904  0.5187  0.7415  0.4702
  841MOL0     C13439   2.951   0.765  10.841  0.9984 -0.0372 -0.6737
  841MOL0     C13440   3.082   0.789  10.915  1.0244 -0.3877  0.1091
  841MOL0     C13441   3.080   0.814  11.069  1.3366  0.4489  0.8065
  841MOL0     C13442   3.012   0.953  11.111  0.2827 -0.0253 -0.0738
  841MOL0     C13443   2.996   0.971  11.265  1.0694 -0.1461 -0.4875
  841MOL0     C13444   2.956   1.103  11.324  0.6039  0.8456 -0.1276
  841MOL0    Cl13445   2.992   1.097  11.499  0.3479  0.0258 -0.2823
  841MOL0     C13446   2.457   0.575  10.864  1.0268  0.7241  0.5604
  841MOL0     C13447   2.321   0.576  10.906 -0.1100 -0.5184  0.8644
  841MOL0     O13448   2.188   0.704  11.205  0.4552  0.6902 -0.0839
  841MOL0     C13449   1.900   0.485  11.182  0.4419  0.9323  0.7110
  841MOL0     C13450   1.782   0.432  11.241 -0.8917 -0.5544 -0.2845
  841MOL0     N13451   1.489   0.525  11.957 -0.2554  0.3556  0.4553
  841MOL0     N13452   1.517   0.646  11.943 -0.2450  0.7884 -0.1082
  841MOL0     C13453   1.782   1.224  11.003  0.5760 -0.5712 -0.9799
  841MOL0     C13454   1.763   1.168  10.875  0.1994  0.3369  0.7040
  841MOL0     C13455   1.560   1.105  10.459 -0.3138 -0.0780 -0.3752
  841MOL0     C13456   1.659   1.028  10.418 -0.8515  0.2171  0.0582
  841MOL0     C13457   1.649   0.959  10.294  0.9235  0.0542  0.3545
  841MOL0     C13458   1.553   1.002  10.198  0.2765 -0.1721  0.6245
  841MOL0     O13459   1.556   0.941  10.082 -0.1292 -0.0248  0.0562
  841MOL0     C13460   1.448   0.949   9.992 -0.1926  0.7686  0.1733
  841MOL0     C13461   1.481   0.863   9.872 -1.2031  0.0123 -0.0115
  841MOL0     C13462   1.388   0.884   9.749 -0.0974 -0.2882 -0.0454
  841MOL0     C13463   1.312   0.766   9.703 -0.0186 -0.1957 -0.1031
  841MOL0     C13464   1.256   0.774   9.571 -1.2344  0.6765 -0.1689
  841MOL0     C13465   1.229   0.793   9.454 -0.0762 -0.1044 -0.2725
  841MOL0     C13466   1.455   1.096  10.244 -0.9705 -0.1615 -0.6149
  841MOL0     C13467   1.447   1.138  10.377 -0.8891  0.3682  0.5083
  841MOL0     H13468   1.421   1.209  10.861  1.1209  2.0350 -2.0347
  841MOL0     H13469   1.455   1.296  11.077  1.2649  0.7460 -0.2542
  841MOL0     H13470   1.867   1.306  11.230 -0.7215  0.1901 -0.9155
  841MOL0     H13471   1.792   1.469  11.220  0.2487  0.5620 -0.6082
  841MOL0     H13472   1.859   1.414  11.460  0.5895 -3.6840  0.5820
  841MOL0     H13473   1.690   1.455  11.444 -1.0619 -0.9954 -1.8751
  841MOL0     H13474   1.671   1.189  11.435 -1.2162  2.3904  2.1945
  841MOL0     H13475   1.847   1.191  11.440 -1.7521 -2.2064 -4.9090
  841MOL0     H13476   1.806   1.304  11.674  0.1845 -0.8029  1.2293
  841MOL0     H13477   1.631   1.277  11.643 -0.4395  1.5333 -0.2431
  841MOL0     H13478   1.844   1.058  11.651  3.2861  2.6039  5.6786
  841MOL0     H13479   1.754   1.115  11.797  1.3969 -1.8496  1.2478
  841MOL0     H13480   1.538   1.084  11.688 -0.5180 -0.5551  0.0926
  841MOL0     H13481   1.624   1.014  11.546 -1.1855 -0.0726 -0.2479
  841MOL0     H13482   1.708   0.816  11.689  1.9666 -0.8130  1.4034
  841MOL0     H13483   1.671   0.905  11.839 -1.7490 -1.5667  0.3759
  841MOL0     H13484   1.459   0.815  11.651  1.5081  2.2974 -0.9219
  841MOL0     H13485   1.438   0.895  11.809  1.8410 -1.2506  4.2974
  841MOL0     H13486   1.403   0.579  11.639  0.2148 -2.4520 -0.3231
  841MOL0     H13487   1.416   0.294  11.910  0.4541  0.9861  0.5408
  841MOL0     H13488   1.317   0.343  11.776  0.2106 -0.9693 -0.3075
  841MOL0     H13489   1.485   0.157  11.736 -1.3230  1.1447 -0.3046
  841MOL0     H13490   1.619   0.268  11.779 -0.6065 -0.4128  2.6276
  841MOL0     H13491   1.450   0.327  11.536  1.2618  3.3953  1.0373
  841MOL0     H13492   1.563   0.186  11.538 -0.6340  1.0960  0.3040
  841MOL0     H13493   1.742   0.338  11.567 -0.1942 -0.5904 -0.6911
  841MOL0     H13494   1.636   0.473  11.621  0.3212 -1.5895  1.3817
  841MOL0     H13495   1.790   0.595  11.531  0.8683 -1.1652  1.1035
  841MOL0     H13496   1.954   0.789  11.524  0.7853  0.0942  0.2465
  841MOL0     H13497   2.085   0.661  11.532 -1.6125 -1.9275 -1.2189
  841MOL0     H13498   2.093   0.791  11.412 -2.4570  1.1783 -3.0372
  841MOL0     H13499   2.350   0.411  11.201  0.4790  0.2207 -0.3983
  841MOL0     H13500   2.580   0.392  11.122  0.8764 -1.2361 -1.9879
  841MOL0     H13501   2.759   0.590  10.718  0.0089 -1.6748  0.6491
  841MOL0     H13502   2.673   0.697  10.829 -2.6014 -0.7269 -5.4521
  841MOL0     H13503   2.836   0.663  11.008  0.4928  2.4888  0.2717
  841MOL0     H13504   2.934   0.564  10.904  3.3814  2.8530 -0.0948
  841MOL0     H13505   2.885   0.852  10.841  1.0069 -0.0296 -0.5903
  841MOL0     H13506   2.968   0.738  10.737  0.8374 -3.1916 -0.0026
  841MOL0     H13507   3.142   0.698  10.903  1.8550  0.1168  0.3761
  841MOL0     H13508   3.146   0.862  10.864 -1.6817  1.2125 -1.2220
  841MOL0     H13509   3.183   0.805  11.102  1.5685  0.6949  0.1730
  841MOL0     H13510   3.027   0.730  11.115  1.3524 -0.0431 -0.0439
  841MOL0     H13511   3.057   1.029  11.047 -1.4618 -2.5192 -4.7580
  841MOL0     H13512   2.906   0.947  11.084  0.1188 -1.5890  0.8018
  841MOL0     H13513   3.095   0.961  11.311  1.2718  2.1730 -0.3246
  841MOL0     H13514   2.927   0.894  11.302  0.7731 -0.5678 -1.8712
  841MOL0     H13515   2.849   1.112  11.304  0.7352 -2.4516 -3.3370
  841MOL0     H13516   2.997   1.190  11.273 -0.1252 -0.2847 -2.8012
  841MOL0     H13517   2.480   0.637  10.777 -2.1432  1.3770  0.0735
  841MOL0     H13518   2.244   0.610  10.838 -0.5496 -2.6099  0.2595
  841MOL0     H13519   1.933   0.450  11.085 -0.2566  3.2431 -0.4340
  841MOL0     H13520   1.713   0.367  11.188 -0.7363 -1.3456  0.4680
  841MOL0     H13521   1.886   1.220  11.031  1.2843  1.4730 -3.0469
  841MOL0     H13522   1.846   1.134  10.815 -1.1060 -0.0213 -0.9599
  841MOL0     H13523   1.749   1.016  10.478 -2.1024  1.7955  2.4292
  841MOL0     H13524   1.728   0.892  10.263  2.0289  1.8708 -0.9833
  841MOL0     H13525   1.353   0.917  10.035 -0.4897  2.0220  0.5210
  841MOL0     H13526   1.438   1.053   9.959 -1.4221  0.2431 -1.1792
  841MOL0     H13527   1.496   0.759   9.899  2.5059 -0.7565 -4.0634
  841MOL0     H13528   1.581   0.887   9.837 -1.2350 -0.5081 -0.4689
  841MOL0     H13529   1.446   0.921   9.664 -1.7055  0.9036 -0.6670
  841MOL0     H13530   1.313   0.963   9.745 -1.9650 -1.9867 -3.3787
  841MOL0     H13531   1.228   0.747   9.770  1.0506 -3.1073  0.5546
  841MOL0     H13532   1.369   0.673   9.708 -0.4710 -0.4185  1.3081
  841MOL0     H13533   1.215   0.826   9.353  0.3117 -1.3673 -0.7666
  841MOL0     H13534   1.377   1.109  10.170  0.3298  0.7904 -1.8661
  841MOL0     H13535   1.367   1.202  10.413 -2.6467 -0.8028 -1.1514
  842MOL0     O13536   9.248   8.999   8.402  0.2929  0.3103 -0.3432
  842MOL0     C13537   9.123   9.024   8.402 -0.8533  0.8456  0.1015
  842MOL0     O13538   9.044   9.000   8.512  0.1720 -1.0608 -0.3700
  842MOL0     C13539   9.084   8.917   8.610 -0.2848 -0.0303 -0.4746
  842MOL0     C13540   9.009   8.799   8.619 -0.0280 -0.9807  0.3359
  842MOL0     C13541   9.048   8.691   8.698  0.5151 -0.9013 -0.2056
  842MOL0     C13542   9.152   8.716   8.796  0.7530  0.8402  1.2260
  842MOL0     O13543   9.204   8.612   8.872 -0.3287 -0.3559 -0.0557
  842MOL0     C13544   9.177   8.477   8.848  0.5411  1.2065 -1.0513
  842MOL0     C13545   9.052   8.451   8.928 -0.5138 -1.1081 -0.4396
  842MOL0     C13546   8.986   8.318   8.892  0.3270  0.3601 -0.5081
  842MOL0     C13547   8.861   8.333   8.821  1.5517  0.4970  1.0709
  842MOL0     C13548   8.742   8.355   8.912  0.8693  0.1259 -0.2620
  842MOL0     C13549   8.615   8.391   8.847 -0.2172  0.3987  0.3158
  842MOL0     C13550   8.585   8.538   8.828 -0.6858 -0.7368 -0.3455
  842MOL0     C13551   8.626   8.602   8.696 -0.1308 -0.1100 -0.3100
  842MOL0     N13552   8.537   8.550   8.588  0.9752  0.0456  0.0380
  842MOL0     C13553   8.410   8.589   8.563 -1.1304  0.6083 -1.3943
  842MOL0     C13554   8.366   8.539   8.445 -0.5528 -0.8285 -1.4251
  842MOL0     C13555   8.230   8.527   8.377  0.4680  1.5551  0.9488
  842MOL0     C13556   8.231   8.452   8.238  0.6546 -0.4883 -0.8323
  842MOL0     C13557   8.230   8.299   8.239 -0.3704 -2.0946 -0.0842
  842MOL0     C13558   8.229   8.232   8.091  0.5181  0.4669 -0.2350
  842MOL0     O13559   8.328   8.294   8.008 -0.7888 -0.2609 -0.3832
  842MOL0     C13560   8.327   8.259   7.874 -0.5274 -0.7604 -0.0509
  842MOL0     C13561   8.248   8.161   7.818  0.8702  0.1034  0.2519
  842MOL0     C13562   8.241   8.143   7.679  0.1099 -0.5222  0.1978
  842MOL0     C13563   8.155   8.021   7.638 -0.8535  0.0355  0.7297
  842MOL0     C13564   8.314   8.235   7.595  0.5537 -0.5003 -0.2415
  842MOL0     C13565   8.302   8.227   7.453 -0.6965 -0.0718  0.7578
  842MOL0     O13566   8.322   8.341   7.387  0.0277 -0.3137  1.4855
  842MOL0     C13567   8.330   8.347   7.242  0.5605  0.0515 -0.0395
  842MOL0     C13568   8.427   8.284   7.163 -0.4969  0.1075 -0.2629
  842MOL0     C13569   8.428   8.303   7.020  0.3576  0.6882 -1.0897
  842MOL0     C13570   8.318   8.366   6.962  0.5507 -0.4933 -0.5207
  842MOL0     O13571   8.331   8.382   6.820  0.0216  0.2272  0.3264
  842MOL0     C13572   8.261   8.481   6.742 -0.0576 -0.5727  0.4594
  842MOL0     C13573   8.271   8.451   6.589 -0.4107  0.9617 -0.8191
  842MOL0     C13574   8.187   8.544   6.514 -0.3827 -0.5675  0.3085
  842MOL0     C13575   8.240   8.566   6.364 -0.1442  0.0348 -0.0591
  842MOL0     C13576   8.134   8.615   6.263 -0.3058 -0.2813 -0.2927
  842MOL0     C13577   8.071   8.757   6.304  1.1516  0.4041 -0.8299
  842MOL0     C13578   7.971   8.817   6.196  0.8067 -0.3360 -1.0679
  842MOL0     C13579   7.842   8.737   6.204  0.4183 -0.9986  0.2609
  842MOL0    Cl13580   7.758   8.738   6.378 -0.4609  0.3690  0.0591
  842MOL0     C13581   8.207   8.410   7.044 -0.2367 -0.3197  0.3667
  842MOL0     C13582   8.214   8.408   7.183 -0.3104 -0.6794  0.0229
  842MOL0     O13583   8.254   8.126   7.410 -0.4115  0.7369  0.1000
  842MOL0     C13584   8.390   8.331   7.656  1.1962 -0.4021  0.4165
  842MOL0     C13585   8.399   8.337   7.792  0.2847  0.3319  0.2913
  842MOL0     N13586   8.473   8.472   8.393  0.1842  0.7818 -0.7178
  842MOL0     N13587   8.574   8.479   8.475 -0.7173 -0.2846 -0.5544
  842MOL0     C13588   9.224   8.831   8.789 -0.2211 -0.4149  0.1608
  842MOL0     C13589   9.195   8.935   8.695  0.4845  0.2330 -0.3281
  842MOL0     C13590   9.056   9.059   8.268  0.7860  0.5054 -0.7457
  842MOL0     C13591   8.918   9.061   8.257  1.0083 -0.2250 -0.6585
  842MOL0     C13592   8.858   9.122   8.139  0.2328  0.7157  0.5602
  842MOL0     C13593   8.944   9.168   8.034  0.0417  0.2623  0.0005
  842MOL0     O13594   8.867   9.196   7.918 -0.0248  0.4778  0.1775
  842MOL0     C13595   8.914   9.260   7.802 -0.7266  0.2467  0.8989
  842MOL0     C13596   8.880   9.407   7.800 -0.8811  0.9772  0.3947
  842MOL0     C13597   8.734   9.443   7.777 -0.0885  0.8539  0.2348
  842MOL0     C13598   8.698   9.569   7.848 -0.5341 -0.6443  0.3237
  842MOL0     C13599   8.703   9.564   7.993 -0.6339 -0.3632  0.5602
  842MOL0     C13600   8.720   9.537   8.115 -0.5912 -0.1552 -0.1076
  842MOL0     C13601   9.078   9.165   8.058  0.3006  1.1432  0.6867
  842MOL0     C13602   9.139   9.126   8.178 -0.2232  0.0419  0.5286
  842MOL0     H13603   8.934   8.783   8.542  0.6729  0.5130 -0.7008
  842MOL0     H13604   9.001   8.595   8.675 -1.0770  0.0892 -1.3022
  842MOL0     H13605   9.170   8.444   8.744 -0.7944 -2.1267 -0.0422
  842MOL0     H13606   9.259   8.415   8.885  0.7708  2.1562  0.1056
  842MOL0     H13607   9.075   8.432   9.033 -1.0282 -5.5961 -0.9646
  842MOL0     H13608   8.981   8.534   8.915 -0.8568 -1.5876 -1.8462
  842MOL0     H13609   9.043   8.256   8.822 -2.9008 -2.9215 -0.5569
  842MOL0     H13610   8.975   8.259   8.984  0.3337  0.9230 -0.1434
  842MOL0     H13611   8.877   8.414   8.749  1.9690  0.1894  0.8198
  842MOL0     H13612   8.837   8.247   8.758  0.6716 -1.4524  3.8256
  842MOL0     H13613   8.721   8.254   8.945 -1.9902  0.2323 -1.4871
  842MOL0     H13614   8.760   8.418   9.000 -1.3076  2.6349 -1.4880
  842MOL0     H13615   8.599   8.335   8.755 -1.5928  1.1228  0.0803
  842MOL0     H13616   8.535   8.350   8.909 -0.8856  2.1395  0.6898
  842MOL0     H13617   8.482   8.563   8.855 -0.1968 -0.5122  1.4734
  842MOL0     H13618   8.643   8.591   8.904  0.6996 -1.0503 -1.1567
  842MOL0     H13619   8.728   8.575   8.668 -1.1346 -1.9058 -2.5789
  842MOL0     H13620   8.622   8.711   8.699 -0.7845 -0.0647  4.8196
  842MOL0     H13621   8.348   8.640   8.636  2.3807  1.9606  0.8681
  842MOL0     H13622   8.162   8.470   8.442  0.5615 -0.5260 -0.6560
  842MOL0     H13623   8.191   8.629   8.365  0.4165  1.4043 -0.2298
  842MOL0     H13624   8.325   8.474   8.187  0.9343 -2.6758 -1.3520
  842MOL0     H13625   8.142   8.478   8.179 -1.2324 -1.7120  1.2972
  842MOL0     H13626   8.146   8.250   8.289  1.0003 -2.8354  1.5830
  842MOL0     H13627   8.321   8.273   8.293 -0.3559  1.5535  1.9617
  842MOL0     H13628   8.131   8.250   8.045  0.2215 -1.7693 -0.6084
  842MOL0     H13629   8.240   8.124   8.103  0.6646  0.5499  0.4344
  842MOL0     H13630   8.184   8.099   7.880 -0.0860 -0.3972 -1.1755
  842MOL0     H13631   8.096   8.035   7.547  2.0323 -0.8318 -1.4183
  842MOL0     H13632   8.224   7.945   7.602  0.8776  1.4363  0.9505
  842MOL0     H13633   8.089   7.978   7.715 -0.0389 -1.1818  0.7657
  842MOL0     H13634   8.497   8.217   7.212 -0.9341 -1.2646 -1.4552
  842MOL0     H13635   8.495   8.264   6.944  2.1011  1.6148 -0.1216
  842MOL0     H13636   8.154   8.495   6.761 -0.1305 -0.3693 -0.0927
  842MOL0     H13637   8.311   8.577   6.762  0.3467 -0.7314  0.2240
  842MOL0     H13638   8.372   8.472   6.552 -0.5365  4.9675  0.6454
  842MOL0     H13639   8.246   8.345   6.579  2.4428  0.2994 -2.1313
  842MOL0     H13640   8.169   8.635   6.572 -0.3665 -0.1519 -0.3237
  842MOL0     H13641   8.091   8.494   6.504 -1.3922 -0.2171  5.5146
  842MOL0     H13642   8.330   8.628   6.364  0.0293 -0.2117  0.8726
  842MOL0     H13643   8.260   8.474   6.308 -1.1298  0.0428 -0.4509
  842MOL0     H13644   8.059   8.537   6.256 -0.0921 -0.4953 -0.1872
  842MOL0     H13645   8.185   8.630   6.167  1.1020 -1.2599  0.2799
  842MOL0     H13646   8.020   8.743   6.400 -2.3641  1.9570 -2.2867
  842MOL0     H13647   8.153   8.826   6.322 -2.5714  4.1059  5.6585
  842MOL0     H13648   8.017   8.812   6.097  0.7699 -1.2875 -1.0447
  842MOL0     H13649   7.951   8.922   6.217 -0.0614 -1.1816  3.2711
  842MOL0     H13650   7.863   8.635   6.170  2.4943 -0.4665 -0.1818
  842MOL0     H13651   7.772   8.772   6.128  2.2671  3.4887  0.3144
  842MOL0     H13652   8.128   8.454   6.985  0.1175  2.7280  1.9684
  842MOL0     H13653   8.136   8.462   7.236  0.3797 -0.7821  1.1723
  842MOL0     H13654   8.453   8.386   7.586  0.8559 -1.9236 -1.1531
  842MOL0     H13655   8.456   8.421   7.831 -1.7134  1.4081  1.0462
  842MOL0     H13656   9.318   8.834   8.844 -0.2116  0.0127  0.1201
  842MOL0     H13657   9.261   9.020   8.686  0.6855 -0.0222 -1.4565
  842MOL0     H13658   8.856   9.022   8.337  1.3225  0.9787  0.2048
  842MOL0     H13659   8.750   9.131   8.127  0.4495  0.9190 -1.7382
  842MOL0     H13660   9.018   9.246   7.771 -1.6271  1.2971 -3.1501
  842MOL0     H13661   8.861   9.215   7.717  2.4808 -1.3468 -0.4121
  842MOL0     H13662   8.932   9.452   7.715  0.4270 -1.9445 -0.4742
  842MOL0     H13663   8.918   9.458   7.889 -2.1472 -0.8758  2.0896
  842MOL0     H13664   8.667   9.361   7.804  0.4293  0.1361 -0.5802
  842MOL0     H13665   8.732   9.443   7.668  1.6498 -2.3496  0.0481
  842MOL0     H13666   8.595   9.599   7.829 -1.3590 -2.8774  0.8677
  842MOL0     H13667   8.752   9.655   7.809 -0.3088 -0.3224  1.3145
  842MOL0     H13668   8.730   9.532   8.221  3.4586 -0.4980 -0.3399
  842MOL0     H13669   9.152   9.192   7.983  0.0082  1.3335  0.4672
  842MOL0     H13670   9.246   9.134   8.197  0.0427 -0.7584 -0.5446
  843MOL0     O13671   6.937   7.020   8.881  0.8346  0.3442 -1.3756
  843MOL0     C13672   6.930   7.140   8.908 -0.0721  0.2173 -0.1358
  843MOL0     O13673   6.990   7.239   8.837 -0.7658  0.4902  0.5630
  843MOL0     C13674   7.083   7.216   8.743  0.0279 -0.0184  0.3428
  843MOL0     C13675   7.069   7.282   8.619  0.2253  0.0946  0.8722
  843MOL0     C13676   7.164   7.258   8.520  0.6264 -0.7005 -0.7454
  843MOL0     C13677   7.267   7.165   8.537  1.0766 -0.1694 -0.3714
  843MOL0     O13678   7.354   7.125   8.434 -0.0543 -0.5851  0.3766
  843MOL0     C13679   7.300   7.127   8.300  0.6156 -0.0538 -0.6407
  843MOL0     C13680   7.409   7.127   8.201 -0.4012 -0.4919 -0.0518
  843MOL0     C13681   7.429   6.984   8.142  0.6895 -0.3032 -0.1379
  843MOL0     C13682   7.554   6.980   8.046  0.0952 -0.4790 -0.5222
  843MOL0     C13683   7.543   6.846   7.972 -0.0749 -0.3779  0.5324
  843MOL0     C13684   7.668   6.815   7.883 -0.2830 -0.9038 -0.5033
  843MOL0     C13685   7.684   6.941   7.797  0.7390 -1.0149  0.0995
  843MOL0     C13686   7.774   6.918   7.674  0.3733  0.0585 -0.5538
  843MOL0     N13687   7.912   6.899   7.725 -0.8861 -0.3247 -0.6855
  843MOL0     C13688   8.017   6.994   7.713 -0.2213  0.4106  0.6137
  843MOL0     C13689   8.115   6.934   7.788  0.3292 -0.7218 -0.1832
  843MOL0     C13690   8.240   7.001   7.829 -0.1516 -0.7820 -0.7173
  843MOL0     C13691   8.220   7.124   7.921 -0.6658 -0.1556 -0.3243
  843MOL0     C13692   8.343   7.208   7.951 -0.3164  0.3155  0.9339
  843MOL0     C13693   8.308   7.343   8.010 -0.2192 -0.7338 -0.4798
  843MOL0     O13694   8.213   7.337   8.119  0.0819 -0.1531 -0.3173
  843MOL0     C13695   8.248   7.366   8.254 -0.0009  0.1590  1.8165
  843MOL0     C13696   8.229   7.279   8.359  0.0276 -0.5942  0.7796
  843MOL0     C13697   8.252   7.328   8.492 -0.7631 -0.0675  0.3346
  843MOL0     C13698   8.212   7.219   8.589  0.0507  0.6638 -0.0399
  843MOL0     C13699   8.296   7.461   8.517  0.3396  0.9308  0.3530
  843MOL0     C13700   8.312   7.512   8.658 -0.3424  0.3189  0.4513
  843MOL0     O13701   8.415   7.601   8.672 -0.7192  0.5517 -0.4948
  843MOL0     C13702   8.473   7.604   8.792  0.2087 -0.1842  0.2834
  843MOL0     C13703   8.456   7.719   8.871  0.0027 -0.3688  0.1690
  843MOL0     C13704   8.527   7.726   8.988  0.6396  0.4404 -0.0101
  843MOL0     C13705   8.612   7.621   9.032 -0.2385 -0.5907  0.8469
  843MOL0     O13706   8.693   7.627   9.138  0.1743 -0.5013 -0.0569
  843MOL0     C13707   8.630   7.601   9.264  0.0192 -0.3696  0.5387
  843MOL0     C13708   8.725   7.571   9.379 -0.0437 -0.2411 -0.4690
  843MOL0     C13709   8.654   7.524   9.504 -0.4003 -0.4368  0.0302
  843MOL0     C13710   8.587   7.386   9.475  0.6088  0.4471 -0.6304
  843MOL0     C13711   8.567   7.313   9.614 -0.5423 -1.0887  0.1848
  843MOL0     C13712   8.436   7.222   9.630 -0.3433 -0.2060  0.4295
  843MOL0     C13713   8.429   7.122   9.519 -0.2048  0.5587 -0.8566
  843MOL0     C13714   8.334   7.000   9.554 -0.3952 -0.0502 -0.0560
  843MOL0    Cl13715   8.318   6.876   9.420  0.4354  0.0327  0.0260
  843MOL0     C13716   8.625   7.507   8.954 -0.1748 -0.2833 -0.0570
  843MOL0     C13717   8.552   7.502   8.832 -0.0394  0.5336 -0.0711
  843MOL0     O13718   8.246   7.465   8.749  1.1830 -0.0908 -0.8526
  843MOL0     C13719   8.310   7.536   8.403 -0.3403 -1.3998  0.2349
  843MOL0     C13720   8.297   7.496   8.273  1.4143  0.8121 -0.2118
  843MOL0     N13721   8.087   6.805   7.818 -0.1418  0.0579 -0.9023
  843MOL0     N13722   7.966   6.784   7.773 -0.1972  0.4722  1.1524
  843MOL0     C13723   7.272   7.099   8.658 -0.3538  0.5412  0.6584
  843MOL0     C13724   7.186   7.133   8.765 -0.6229  0.4604  0.0473
  843MOL0     C13725   6.836   7.186   9.007  0.2575  0.2652 -1.2690
  843MOL0     C13726   6.787   7.323   9.026  0.6016 -0.5131  0.5530
  843MOL0     C13727   6.682   7.357   9.114 -0.3742 -0.5892  0.6195
  843MOL0     C13728   6.629   7.270   9.210 -0.2036 -0.2708  0.0295
  843MOL0     O13729   6.547   7.305   9.308  0.1404  0.3107  0.2167
  843MOL0     C13730   6.469   7.419   9.295  0.2126 -1.2068  0.1611
  843MOL0     C13731   6.399   7.453   9.432  1.0552  0.3279  0.5121
  843MOL0     C13732   6.475   7.517   9.537 -0.2544 -0.1887 -0.5644
  843MOL0     C13733   6.600   7.447   9.591 -0.3477 -0.4413  0.1611
  843MOL0     C13734   6.588   7.300   9.600 -0.1313  1.0285 -0.7613
  843MOL0     C13735   6.597   7.176   9.616  0.2369 -0.8320  0.8148
  843MOL0     C13736   6.686   7.146   9.196  0.3328  0.4287  0.8235
  843MOL0     C13737   6.769   7.097   9.095  0.7071  0.3433 -1.2415
  843MOL0     H13738   6.981   7.346   8.616 -1.2311 -1.5307  3.8948
  843MOL0     H13739   7.159   7.318   8.430 -1.3145 -1.5268 -1.2441
  843MOL0     H13740   7.226   7.047   8.289  1.9013 -1.1091 -2.1675
  843MOL0     H13741   7.246   7.221   8.283 -0.3344 -0.3152  0.7582
  843MOL0     H13742   7.384   7.198   8.122  0.7246  1.4729  1.2568
  843MOL0     H13743   7.504   7.162   8.244  1.4594 -0.8321 -3.5588
  843MOL0     H13744   7.436   6.915   8.226 -2.8890 -0.8111 -0.0963
  843MOL0     H13745   7.348   6.943   8.080  0.7190 -1.3076  0.4576
  843MOL0     H13746   7.551   7.075   7.991  0.8602  1.0275  1.8602
  843MOL0     H13747   7.639   6.989   8.114 -1.9373  1.3542  1.9895
  843MOL0     H13748   7.533   6.766   8.045  0.3603 -1.2949 -0.3924
  843MOL0     H13749   7.450   6.858   7.916 -1.1186  1.4042  2.4739
  843MOL0     H13750   7.759   6.801   7.942 -0.6917  3.5608  1.6010
  843MOL0     H13751   7.652   6.723   7.825 -1.6459 -1.3089  0.4599
  843MOL0     H13752   7.585   6.980   7.772 -0.2029 -2.1826  1.8372
  843MOL0     H13753   7.727   7.027   7.849  0.2199 -0.5992 -0.1388
  843MOL0     H13754   7.773   7.013   7.618  1.2880 -1.2246 -2.8819
  843MOL0     H13755   7.743   6.829   7.619  3.7298 -1.2219 -0.6499
  843MOL0     H13756   8.007   7.099   7.686 -3.9931  0.2176  0.7799
  843MOL0     H13757   8.306   6.929   7.878  2.2475  0.8590 -1.3517
  843MOL0     H13758   8.283   7.044   7.738  1.2525  1.4846  0.9113
  843MOL0     H13759   8.170   7.074   8.005 -3.3616 -0.5274 -2.0486
  843MOL0     H13760   8.145   7.194   7.884 -0.7901  0.5658  1.2155
  843MOL0     H13761   8.403   7.228   7.862  0.1707  0.7969  1.3619
  843MOL0     H13762   8.400   7.136   8.010 -0.3165  0.0738  0.6383
  843MOL0     H13763   8.258   7.398   7.930  1.6320  2.7257  0.5407
  843MOL0     H13764   8.397   7.405   8.025 -1.9172  2.8795 -3.6852
  843MOL0     H13765   8.208   7.174   8.342 -2.1864 -0.3045  1.3250
  843MOL0     H13766   8.107   7.223   8.618  0.0080  2.5994 -0.3111
  843MOL0     H13767   8.239   7.119   8.553  1.4392  1.3069 -0.8830
  843MOL0     H13768   8.271   7.234   8.680 -2.2675  1.9810  1.3467
  843MOL0     H13769   8.384   7.795   8.843 -1.5360 -0.8835  2.5010
  843MOL0     H13770   8.519   7.807   9.060 -0.6711 -1.1633  1.7644
  843MOL0     H13771   8.568   7.677   9.313  3.1626  0.9674  2.8361
  843MOL0     H13772   8.569   7.511   9.249  1.0933 -0.7841 -1.7845
  843MOL0     H13773   8.781   7.487   9.336  0.1177 -1.4997  2.0268
  843MOL0     H13774   8.788   7.660   9.384  0.2044 -0.2412 -2.6085
  843MOL0     H13775   8.593   7.607   9.540  0.0857  0.0210 -0.2010
  843MOL0     H13776   8.734   7.519   9.578 -0.8455 -1.3238  0.4688
  843MOL0     H13777   8.487   7.414   9.440 -1.1310 -1.9152  1.9632
  843MOL0     H13778   8.648   7.327   9.406 -0.6900 -0.2418 -1.2216
  843MOL0     H13779   8.555   7.386   9.694  1.7828 -1.0389  0.5511
  843MOL0     H13780   8.662   7.259   9.627  3.3886  4.4882 -1.5285
  843MOL0     H13781   8.437   7.176   9.729 -0.1306 -0.0586  0.4979
  843MOL0     H13782   8.351   7.288   9.612  0.0758  0.1646 -0.2729
  843MOL0     H13783   8.525   7.074   9.500 -0.6691 -1.5950  1.6014
  843MOL0     H13784   8.383   7.164   9.429 -3.0920 -2.3345 -0.9612
  843MOL0     H13785   8.237   7.041   9.584 -2.0791 -2.6820 -1.4372
  843MOL0     H13786   8.365   6.946   9.643 -1.8427  0.3331  0.7133
  843MOL0     H13787   8.698   7.427   8.967 -0.9107 -0.8036  1.0253
  843MOL0     H13788   8.546   7.420   8.761 -0.7078  1.5631 -1.2544
  843MOL0     H13789   8.340   7.639   8.422 -0.2406 -1.0121 -1.7569
  843MOL0     H13790   8.292   7.566   8.190  1.8869  1.6385  0.4400
  843MOL0     H13791   7.351   7.029   8.679  2.1559  3.2016  0.7899
  843MOL0     H13792   7.202   7.098   8.867  3.8633  2.4524  0.2678
  843MOL0     H13793   6.829   7.403   8.966  2.0214 -3.4416 -2.6924
  843MOL0     H13794   6.641   7.457   9.105  1.1589 -0.1105 -2.1735
  843MOL0     H13795   6.522   7.511   9.268  0.1123 -1.5601 -1.2736
  843MOL0     H13796   6.405   7.416   9.207  2.6088 -0.7924 -1.6969
  843MOL0     H13797   6.353   7.364   9.475 -2.4343  1.4447 -0.5483
  843MOL0     H13798   6.313   7.517   9.409 -0.4121 -1.8302 -0.3601
  843MOL0     H13799   6.404   7.524   9.620 -2.5592 -1.7440 -2.2449
  843MOL0     H13800   6.511   7.615   9.507  1.0344 -0.2902  0.5511
  843MOL0     H13801   6.624   7.486   9.690  1.8115 -0.9877 -0.0853
  843MOL0     H13802   6.689   7.470   9.532 -0.9046 -3.0519 -1.9247
  843MOL0     H13803   6.596   7.072   9.642 -1.7032 -0.4033  2.7690
  843MOL0     H13804   6.668   7.070   9.272  1.5407 -1.4975 -0.6985
  843MOL0     H13805   6.778   6.989   9.089 -0.1378  0.2963 -1.8186
  844MOL0     O13806   3.627   4.099   7.659  0.1940  1.3770 -0.1578
  844MOL0     C13807   3.724   4.023   7.651  0.1840  0.3055 -0.3440
  844MOL0     O13808   3.722   3.893   7.634 -0.1998  1.2508  0.0701
  844MOL0     C13809   3.608   3.816   7.612  0.0159  0.4131  0.3171
  844MOL0     C13810   3.634   3.679   7.610 -0.0464  0.9381 -0.1877
  844MOL0     C13811   3.524   3.596   7.595 -0.4163  0.3291  0.4699
  844MOL0     C13812   3.392   3.633   7.584  0.1575 -1.0905  0.2009
  844MOL0     O13813   3.282   3.546   7.584  0.1521 -0.0280  0.4617
  844MOL0     C13814   3.275   3.429   7.498 -0.5217 -0.3166  0.6328
  844MOL0     C13815   3.246   3.468   7.353 -0.4007 -0.0900  0.1762
  844MOL0     C13816   3.377   3.514   7.280  0.5164 -0.2728 -0.0419
  844MOL0     C13817   3.344   3.548   7.134 -0.8288 -0.5834 -1.3848
  844MOL0     C13818   3.464   3.619   7.059 -0.1783  0.0279 -0.9551
  844MOL0     C13819   3.465   3.580   6.911  0.5902  0.1194  0.2128
  844MOL0     C13820   3.587   3.651   6.840 -0.2972  0.3970  0.4361
  844MOL0     C13821   3.549   3.786   6.810  0.0514 -0.1266  0.2737
  844MOL0     N13822   3.661   3.844   6.725 -0.7149 -0.5330  0.4255
  844MOL0     C13823   3.791   3.854   6.775 -0.4743  0.4780  0.4032
  844MOL0     C13824   3.852   3.927   6.679 -0.6828  1.6639  0.0598
  844MOL0     C13825   4.001   3.983   6.689 -0.1259  0.1048  0.4873
  844MOL0     C13826   4.007   4.142   6.714 -0.5460  1.6075  0.0314
  844MOL0     C13827   4.153   4.182   6.751  0.2409 -1.3716 -0.6907
  844MOL0     C13828   4.256   4.164   6.635  1.8513  0.1964  0.3317
  844MOL0     O13829   4.354   4.280   6.641 -0.2821 -0.0911  0.2115
  844MOL0     C13830   4.321   4.412   6.607  0.2571 -0.7287 -1.3464
  844MOL0     C13831   4.380   4.511   6.694 -0.3735 -0.1844 -0.3412
  844MOL0     C13832   4.366   4.643   6.662  0.6977  0.6320  0.0943
  844MOL0     C13833   4.416   4.748   6.766  0.2727  0.2315  0.2328
  844MOL0     C13834   4.306   4.676   6.542 -0.1936 -0.3011 -0.3356
  844MOL0     C13835   4.311   4.812   6.486  0.6643 -0.1095  0.9015
  844MOL0     O13836   4.416   4.840   6.406 -0.5388 -1.4307  0.0115
  844MOL0     C13837   4.415   4.941   6.314  0.1450 -0.5088  0.7850
  844MOL0     C13838   4.502   4.935   6.196  0.6910 -0.3176 -0.8886
  844MOL0     C13839   4.501   5.033   6.098 -0.3722 -0.4513 -0.8513
  844MOL0     C13840   4.413   5.141   6.110  0.7839 -0.8190  0.5949
  844MOL0     O13841   4.413   5.222   5.996  0.0968  0.8359 -0.4993
  844MOL0     C13842   4.379   5.357   6.016 -1.1807 -0.2224  0.3532
  844MOL0     C13843   4.422   5.436   5.887  0.6544 -0.9814 -0.1698
  844MOL0     C13844   4.316   5.420   5.772 -0.2284  0.1285 -0.2372
  844MOL0     C13845   4.354   5.482   5.642  0.3960 -0.2795 -0.2036
  844MOL0     C13846   4.396   5.630   5.643  0.0978 -0.4507  0.6105
  844MOL0     C13847   4.509   5.662   5.549 -0.1472  0.7732 -0.0897
  844MOL0     C13848   4.566   5.803   5.577 -0.1117 -0.2858  0.3445
  844MOL0     C13849   4.462   5.922   5.543  0.4952  0.5632 -0.1753
  844MOL0    Cl13850   4.408   5.937   5.372 -0.4944  0.2265 -0.0583
  844MOL0     C13851   4.344   5.155   6.226  0.1268  1.2960  0.0564
  844MOL0     C13852   4.327   5.052   6.315 -0.5943 -0.6820 -0.6070
  844MOL0     O13853   4.210   4.877   6.502  0.4665  0.4863  0.2106
  844MOL0     C13854   4.263   4.576   6.456  0.4605  0.3475  0.2416
  844MOL0     C13855   4.258   4.444   6.493  0.7295  0.6118  0.0785
  844MOL0     N13856   3.769   3.947   6.568 -0.4379  0.4154 -1.4473
  844MOL0     N13857   3.649   3.911   6.603 -0.1162 -0.1616 -0.1203
  844MOL0     C13858   3.365   3.768   7.598 -0.0300  0.0724 -0.5313
  844MOL0     C13859   3.475   3.856   7.619  0.0460  0.4370  0.1239
  844MOL0     C13860   3.851   4.097   7.614 -0.8248  0.0196 -0.8457
  844MOL0     C13861   3.847   4.207   7.540  0.0432 -0.9813  0.5291
  844MOL0     C13862   3.951   4.302   7.511 -0.4998 -0.4595  0.5478
  844MOL0     C13863   4.080   4.269   7.560 -0.6911 -0.6748  0.5866
  844MOL0     O13864   4.188   4.350   7.530  0.2834 -0.3854  0.9065
  844MOL0     C13865   4.316   4.324   7.588  0.8565  0.2385 -0.0142
  844MOL0     C13866   4.404   4.442   7.551 -0.3230  1.1875  0.4877
  844MOL0     C13867   4.556   4.404   7.583  0.8110  0.9107 -0.2824
  844MOL0     C13868   4.632   4.530   7.606 -0.8049 -0.3069  0.1982
  844MOL0     C13869   4.736   4.570   7.511 -0.5187  0.0121  0.0395
  844MOL0     C13870   4.821   4.585   7.429  1.4257 -0.1619 -0.3255
  844MOL0     C13871   4.089   4.141   7.630  0.1622 -0.0006  1.2834
  844MOL0     C13872   3.981   4.059   7.652 -0.2555 -0.2288  0.4254
  844MOL0     H13873   3.737   3.648   7.615 -0.0648  0.9362  0.2010
  844MOL0     H13874   3.548   3.490   7.594 -1.5219 -0.0621  3.8933
  844MOL0     H13875   3.366   3.369   7.487  0.3820  1.1454 -0.2286
  844MOL0     H13876   3.193   3.378   7.550 -2.3982  1.5239 -0.4155
  844MOL0     H13877   3.212   3.379   7.299 -0.0347 -2.1518  3.1496
  844MOL0     H13878   3.176   3.552   7.351  2.0182  2.0856 -1.6330
  844MOL0     H13879   3.423   3.605   7.321 -0.8781  0.3361  0.2469
  844MOL0     H13880   3.463   3.446   7.281  0.8279  0.0626 -1.6622
  844MOL0     H13881   3.313   3.455   7.086 -1.6758 -1.5462  0.8809
  844MOL0     H13882   3.257   3.615   7.134 -1.4603 -1.3565 -3.0487
  844MOL0     H13883   3.450   3.726   7.076  0.1807 -0.4316  3.1151
  844MOL0     H13884   3.564   3.594   7.095  0.2545  2.5857 -0.1710
  844MOL0     H13885   3.470   3.472   6.893 -1.4273 -0.0134  0.2376
  844MOL0     H13886   3.371   3.606   6.861  0.4903 -2.4989 -1.1709
  844MOL0     H13887   3.684   3.640   6.889  2.7609 -1.0580 -5.1809
  844MOL0     H13888   3.592   3.593   6.747  1.4109  2.0444 -0.5448
  844MOL0     H13889   3.528   3.840   6.903  1.6068  0.1019  0.5236
  844MOL0     H13890   3.457   3.798   6.752  0.3610  0.1919 -0.1600
  844MOL0     H13891   3.842   3.815   6.862  1.4795 -2.2499 -1.7819
  844MOL0     H13892   4.051   3.935   6.773 -0.0829  0.0013  0.4014
  844MOL0     H13893   4.061   3.955   6.602 -0.5679 -1.4250  0.6569
  844MOL0     H13894   3.943   4.163   6.800  0.2234  0.5063  0.9074
  844MOL0     H13895   3.972   4.203   6.630  0.0961  3.6134  1.1453
  844MOL0     H13896   4.199   4.137   6.840  2.0390 -1.0844 -1.4214
  844MOL0     H13897   4.150   4.290   6.772  0.4543 -1.5834  0.5251
  844MOL0     H13898   4.203   4.158   6.540  1.0421 -2.5137  0.8773
  844MOL0     H13899   4.321   4.080   6.662 -0.2573 -1.1067  1.6654
  844MOL0     H13900   4.431   4.470   6.781 -2.5850 -1.2456  0.5209
  844MOL0     H13901   4.475   4.818   6.706 -1.2682  1.5380  0.1977
  844MOL0     H13902   4.328   4.788   6.816 -3.9649 -1.1384 -5.1144
  844MOL0     H13903   4.484   4.707   6.841 -2.5239  0.9854  3.3605
  844MOL0     H13904   4.554   4.846   6.162  0.7708 -0.3706 -0.6345
  844MOL0     H13905   4.564   5.021   6.010 -0.8825  0.5869 -1.3754
  844MOL0     H13906   4.274   5.359   6.047 -1.3459 -1.2806 -0.0843
  844MOL0     H13907   4.448   5.382   6.097 -0.4770 -2.8032  0.6558
  844MOL0     H13908   4.420   5.545   5.900  1.6326 -0.1999 -4.8597
  844MOL0     H13909   4.527   5.423   5.860  1.3897 -0.5335  2.2299
  844MOL0     H13910   4.222   5.469   5.801 -1.0117 -0.6141 -1.4080
  844MOL0     H13911   4.297   5.315   5.749  0.7871 -0.0149 -0.4186
  844MOL0     H13912   4.436   5.427   5.595  0.3812  0.3550 -0.9996
  844MOL0     H13913   4.271   5.467   5.573 -0.4899 -0.7385  0.9304
  844MOL0     H13914   4.413   5.670   5.744  1.3425 -0.8397  0.5765
  844MOL0     H13915   4.311   5.694   5.616  1.0796  0.8674  0.5099
  844MOL0     H13916   4.586   5.590   5.576 -1.5047 -1.4443 -1.7910
  844MOL0     H13917   4.484   5.645   5.444 -2.3507 -0.6742  0.5899
  844MOL0     H13918   4.653   5.813   5.511 -1.9018 -1.9313 -2.4772
  844MOL0     H13919   4.604   5.813   5.679 -2.0084 -1.5724  1.2147
  844MOL0     H13920   4.514   6.012   5.577  1.2779  0.5743 -1.3514
  844MOL0     H13921   4.373   5.909   5.606  0.0377 -0.7232 -1.0471
  844MOL0     H13922   4.298   5.252   6.244  1.6882  1.9603  0.6056
  844MOL0     H13923   4.257   5.071   6.396  1.4884 -1.7500  1.5602
  844MOL0     H13924   4.231   4.601   6.355  2.0574  0.8076 -0.1798
  844MOL0     H13925   4.234   4.362   6.426  2.4014 -1.2697  1.6523
  844MOL0     H13926   3.267   3.812   7.610  0.3615  0.9091 -0.2972
  844MOL0     H13927   3.451   3.960   7.636 -0.8109 -0.1637  2.9337
  844MOL0     H13928   3.749   4.230   7.499 -0.9969 -3.6613  1.2765
  844MOL0     H13929   3.937   4.382   7.438 -0.9712 -1.5913 -0.6421
  844MOL0     H13930   4.295   4.305   7.693 -1.4116  3.1274  0.1947
  844MOL0     H13931   4.351   4.237   7.531 -0.0529  0.4560 -0.9463
  844MOL0     H13932   4.367   4.524   7.612  1.5252  2.8195 -0.4903
  844MOL0     H13933   4.401   4.467   7.445 -0.8444 -0.7785 -0.0046
  844MOL0     H13934   4.596   4.338   7.505 -0.4340  2.8533 -2.7249
  844MOL0     H13935   4.569   4.346   7.675  2.2956 -3.3902 -2.9145
  844MOL0     H13936   4.669   4.545   7.708 -3.7538  0.8303  1.2122
  844MOL0     H13937   4.562   4.615   7.610 -1.3657 -0.7450 -0.1754
  844MOL0     H13938   4.893   4.600   7.351  0.7065 -1.3039 -1.2447
  844MOL0     H13939   4.184   4.121   7.679  0.3750  0.5346  1.1066
  844MOL0     H13940   3.994   3.971   7.715  0.5794 -0.0189  0.5520
  845MOL0     O13941   3.419   9.218   7.025  0.3073 -0.2592 -0.0500
  845MOL0     C13942   3.422   9.206   7.150 -0.1230 -0.4988 -0.4458
  845MOL0     O13943   3.309   9.217   7.224  0.2142 -0.2189  0.1055
  845MOL0     C13944   3.324   9.235   7.366  1.2705  0.2280  0.1461
  845MOL0     C13945   3.418   9.326   7.417 -0.6317 -0.0916  0.7843
  845MOL0     C13946   3.430   9.358   7.554  0.8992  0.4884 -0.6782
  845MOL0     C13947   3.352   9.282   7.646  0.5923 -1.1523  0.2172
  845MOL0     O13948   3.354   9.329   7.769 -0.0770 -0.9174  0.3852
  845MOL0     C13949   3.332   9.228   7.866  0.2774 -0.1646 -0.2139
  845MOL0     C13950   3.399   9.287   7.989  1.2195 -1.0492 -1.5183
  845MOL0     C13951   3.364   9.216   8.114  0.0363  0.1522 -0.5401
  845MOL0     C13952   3.428   9.280   8.233 -0.1511  0.1973  1.3377
  845MOL0     C13953   3.396   9.213   8.366  0.4725  0.0713 -0.4801
  845MOL0     C13954   3.342   9.318   8.474 -1.7098 -0.1600 -0.1686
  845MOL0     C13955   3.292   9.254   8.604  0.5136 -0.3576 -0.0069
  845MOL0     C13956   3.190   9.148   8.592  1.2866  0.6027 -1.9367
  845MOL0     N13957   3.226   9.013   8.540  0.5138 -0.9286  0.2662
  845MOL0     C13958   3.338   8.948   8.592  0.1701 -0.3733 -1.0014
  845MOL0     C13959   3.342   8.830   8.527  0.2637  0.4194 -0.3839
  845MOL0     C13960   3.437   8.714   8.554 -0.6466  0.1902 -0.5199
  845MOL0     C13961   3.582   8.734   8.502  0.5092  0.3324 -0.5750
  845MOL0     C13962   3.591   8.738   8.347 -0.1418 -0.0062 -0.0275
  845MOL0     C13963   3.740   8.729   8.309  0.8119 -0.5859  1.3174
  845MOL0     O13964   3.828   8.819   8.386 -0.9377  0.0355  0.7144
  845MOL0     C13965   3.807   8.956   8.367  0.4932 -0.3034  0.4646
  845MOL0     C13966   3.810   9.039   8.474 -0.2392  0.3081 -0.8799
  845MOL0     C13967   3.820   9.177   8.464 -0.6838 -0.7160 -0.0011
  845MOL0     C13968   3.835   9.255   8.596  0.4851  0.2340 -0.6984
  845MOL0     C13969   3.792   9.240   8.333  0.1850 -1.4063 -1.2472
  845MOL0     C13970   3.778   9.392   8.315 -0.4311 -1.4137  0.5661
  845MOL0     O13971   3.739   9.431   8.188  0.1197 -0.0194 -0.6483
  845MOL0     C13972   3.727   9.559   8.144 -0.4397 -1.1181  0.9304
  845MOL0     C13973   3.650   9.579   8.019 -0.3684  0.4905 -0.9875
  845MOL0     C13974   3.623   9.705   7.982  0.1360  0.6495  0.6148
  845MOL0     C13975   3.687   9.813   8.045  0.6934 -0.7222 -0.3160
  845MOL0     O13976   3.648   9.943   8.027  0.5070 -0.6710 -0.0895
  845MOL0     C13977   3.528   9.985   8.096 -0.8061 -0.0678 -0.1367
  845MOL0     C13978   3.481  10.121   8.025 -0.6125  0.5612  0.2753
  845MOL0     C13979   3.381  10.192   8.103  0.5406 -0.2909 -0.7178
  845MOL0     C13980   3.239  10.129   8.117 -0.3568  0.7632 -0.3165
  845MOL0     C13981   3.139  10.209   8.212  0.5062  0.1847  0.7067
  845MOL0     C13982   3.186  10.212   8.346 -0.3858  0.1357  0.0115
  845MOL0     C13983   3.223  10.081   8.417 -0.6939 -0.2734  0.5324
  845MOL0     C13984   3.179  10.069   8.557  0.3534  0.1168 -0.7928
  845MOL0    Cl13985   3.006  10.080   8.589  0.6694 -0.5518 -0.1314
  845MOL0     C13986   3.778   9.793   8.150 -0.0054  0.3414  0.3575
  845MOL0     C13987   3.801   9.672   8.197 -0.1835  0.2485  0.2812
  845MOL0     O13988   3.784   9.458   8.415 -0.5460 -0.3807  0.3593
  845MOL0     C13989   3.773   9.152   8.233 -0.5153 -0.0067  0.6242
  845MOL0     C13990   3.798   9.015   8.243 -0.4168  0.4369 -0.4851
  845MOL0     N13991   3.230   8.822   8.446 -0.9725 -0.1953  0.2371
  845MOL0     N13992   3.166   8.925   8.455  0.2235 -1.1785 -0.2906
  845MOL0     C13993   3.258   9.183   7.592 -0.5564  0.9019 -0.8305
  845MOL0     C13994   3.249   9.155   7.454  0.2833  0.4113 -0.0354
  845MOL0     C13995   3.544   9.136   7.209 -0.0618  0.3126 -1.5904
  845MOL0     C13996   3.662   9.196   7.214 -0.2569 -0.5404  1.0836
  845MOL0     C13997   3.781   9.127   7.258 -0.2748  0.3283  0.6206
  845MOL0     C13998   3.781   8.993   7.294 -0.0481 -0.0835 -1.1850
  845MOL0     O13999   3.899   8.937   7.345  0.9374 -0.3606 -0.2596
  845MOL0     C14000   3.901   8.795   7.379  1.0699 -0.5029  0.0318
  845MOL0     C14001   4.018   8.780   7.480 -0.3454  0.6424 -0.6447
  845MOL0     C14002   4.146   8.795   7.396  0.8333 -0.0936 -0.6522
  845MOL0     C14003   4.274   8.764   7.476  0.2292 -0.0125  0.4032
  845MOL0     C14004   4.390   8.828   7.414  0.1969 -0.4404 -0.6850
  845MOL0     C14005   4.495   8.861   7.365  0.7700  0.3180  0.0736
  845MOL0     C14006   3.655   8.932   7.290 -0.6530 -0.3461  0.3788
  845MOL0     C14007   3.541   9.000   7.248  0.8405 -0.2103 -0.4469
  845MOL0     H14008   3.493   9.375   7.356  0.9070 -0.8178  2.0478
  845MOL0     H14009   3.501   9.429   7.596 -0.4377  0.9656  0.8958
  845MOL0     H14010   3.224   9.224   7.885 -0.0575  3.1361 -0.7635
  845MOL0     H14011   3.364   9.132   7.825 -2.7824 -2.0528  1.4392
  845MOL0     H14012   3.506   9.275   7.975  1.5720 -0.4237  0.3526
  845MOL0     H14013   3.375   9.393   8.005 -0.9143 -1.6465 -0.2059
  845MOL0     H14014   3.257   9.237   8.128 -0.1324 -1.3203  0.7549
  845MOL0     H14015   3.371   9.107   8.118 -2.4707 -0.1669 -2.4367
  845MOL0     H14016   3.537   9.285   8.230 -0.0549 -1.6856  0.3069
  845MOL0     H14017   3.406   9.386   8.245  0.8535  0.4104  1.3715
  845MOL0     H14018   3.316   9.143   8.340  2.0887 -1.7260 -0.7956
  845MOL0     H14019   3.484   9.163   8.406  0.4992 -0.2400 -0.9239
  845MOL0     H14020   3.426   9.380   8.505  0.1556 -2.3317 -0.5588
  845MOL0     H14021   3.272   9.390   8.431 -0.4847  1.1605 -0.0170
  845MOL0     H14022   3.371   9.234   8.677  1.2658  1.2481 -0.3382
  845MOL0     H14023   3.245   9.328   8.669  0.9439 -0.1926  0.1208
  845MOL0     H14024   3.108   9.189   8.532  0.2417  0.8069 -0.4391
  845MOL0     H14025   3.152   9.120   8.691 -2.5285 -2.5497 -4.0384
  845MOL0     H14026   3.397   8.986   8.675 -0.0919  1.4318 -1.5892
  845MOL0     H14027   3.430   8.679   8.658 -1.9191 -0.4531 -0.8043
  845MOL0     H14028   3.409   8.619   8.509 -1.4454 -0.6295  1.5579
  845MOL0     H14029   3.641   8.651   8.542 -1.5904  0.1328  2.5086
  845MOL0     H14030   3.625   8.818   8.558  0.4907  0.0986 -0.2025
  845MOL0     H14031   3.543   8.829   8.310 -2.1018  0.6088  3.6536
  845MOL0     H14032   3.541   8.658   8.292  1.3797 -0.3294 -0.9969
  845MOL0     H14033   3.753   8.755   8.203 -2.8625  2.1154  1.3469
  845MOL0     H14034   3.772   8.625   8.324 -1.5497 -1.2131  2.4577
  845MOL0     H14035   3.808   8.990   8.571  0.5428  3.4093  0.7997
  845MOL0     H14036   3.845   9.188   8.682 -2.2806 -1.9714 -1.9118
  845MOL0     H14037   3.930   9.308   8.591  1.3445 -0.9203  1.8343
  845MOL0     H14038   3.745   9.316   8.613 -1.1805 -1.8562 -1.4986
  845MOL0     H14039   3.601   9.496   7.969 -1.7031  1.4476 -1.3153
  845MOL0     H14040   3.555   9.724   7.900 -0.7208  0.0702  1.1786
  845MOL0     H14041   3.446   9.915   8.082 -2.1535  1.4758 -0.1972
  845MOL0     H14042   3.541   9.998   8.204 -2.1343 -1.2207  0.1869
  845MOL0     H14043   3.576  10.174   8.026  1.6720 -3.0699 -2.0166
  845MOL0     H14044   3.439  10.100   7.926  0.0790 -2.0642  0.4704
  845MOL0     H14045   3.359  10.293   8.068  2.1517  0.1384 -0.5696
  845MOL0     H14046   3.421  10.212   8.203 -0.4660 -1.6738  0.0040
  845MOL0     H14047   3.190  10.136   8.020 -0.3067 -1.9690 -0.6298
  845MOL0     H14048   3.251  10.022   8.139  3.9802  1.1882  0.2562
  845MOL0     H14049   3.039  10.165   8.207  0.8919 -0.9654  2.4552
  845MOL0     H14050   3.122  10.312   8.180 -0.6310 -0.3813 -0.6268
  845MOL0     H14051   3.281  10.264   8.363 -0.0909 -1.3671  3.9879
  845MOL0     H14052   3.110  10.264   8.404 -2.6511 -1.6598 -1.2058
  845MOL0     H14053   3.330  10.067   8.402 -0.6001  0.7824  0.1328
  845MOL0     H14054   3.183  10.000   8.355 -0.3146  0.9410 -1.3814
  845MOL0     H14055   3.226  10.148   8.617 -0.7666  0.5744 -0.4828
  845MOL0     H14056   3.213   9.976   8.603  0.0109  0.4307  0.1307
  845MOL0     H14057   3.825   9.885   8.183  3.7242 -1.2896  0.1092
  845MOL0     H14058   3.865   9.659   8.283 -0.4923  2.7612  0.9512
  845MOL0     H14059   3.746   9.193   8.137  1.3236 -1.9788 -0.8344
  845MOL0     H14060   3.798   8.965   8.147  1.0767  2.5463 -1.6510
  845MOL0     H14061   3.187   9.135   7.658 -1.3528  4.7095  1.3351
  845MOL0     H14062   3.178   9.082   7.418 -1.9911  3.5494 -2.4463
  845MOL0     H14063   3.684   9.284   7.155  2.6300 -0.8596  1.5579
  845MOL0     H14064   3.878   9.170   7.238 -0.3735 -0.3259 -1.5139
  845MOL0     H14065   3.810   8.754   7.423  1.2349 -1.1532 -0.2207
  845MOL0     H14066   3.918   8.736   7.288  0.2974 -0.8821  0.1205
  845MOL0     H14067   4.012   8.689   7.540  1.3549  0.5856 -0.5021
  845MOL0     H14068   4.007   8.853   7.560  1.6572 -3.5827  3.9798
  845MOL0     H14069   4.162   8.893   7.348 -0.4300  1.0795  1.2100
  845MOL0     H14070   4.138   8.717   7.320 -2.2334 -1.4331  0.8789
  845MOL0     H14071   4.288   8.656   7.469  1.7996  0.0025  2.5483
  845MOL0     H14072   4.271   8.793   7.581  5.0369  1.0866  0.4633
  845MOL0     H14073   4.597   8.889   7.350  0.5334  1.5891  0.6666
  845MOL0     H14074   3.636   8.829   7.321 -2.9350  0.6017  2.3763
  845MOL0     H14075   3.447   8.946   7.258  1.5781 -1.1178  2.5296
  846MOL0     O14076   1.506  11.239  10.985 -0.1190  0.0529  0.5979
  846MOL0     C14077   1.472  11.352  11.012  0.0996  0.0813  0.2518
  846MOL0     O14078   1.349  11.405  10.976  1.1049 -0.3122 -0.7215
  846MOL0     C14079   1.256  11.321  10.919  0.9725 -0.7335 -1.1410
  846MOL0     C14080   1.266  11.255  10.799  0.0539  0.2673  0.0321
  846MOL0     C14081   1.171  11.160  10.767  0.1913  0.4312 -0.9260
  846MOL0     C14082   1.041  11.156  10.823  0.1986  0.9145  0.7622
  846MOL0     O14083   0.938  11.084  10.757 -0.4446  0.3440 -0.1221
  846MOL0     C14084   0.791  11.096  10.800 -0.3644  0.0935  0.3995
  846MOL0     C14085   0.717  11.043  10.680  0.3810  0.5438 -0.2676
  846MOL0     C14086   0.737  10.888  10.647 -0.4285  0.8248 -0.2068
  846MOL0     C14087   0.701  10.782  10.753 -0.0226  0.6138 -0.6495
  846MOL0     C14088   0.821  10.745  10.840  0.7263 -0.0044  0.5033
  846MOL0     C14089   0.761  10.647  10.950 -0.7112 -1.7130 -0.0574
  846MOL0     C14090   0.730  10.498  10.924 -0.2112 -0.3609  0.7039
  846MOL0     C14091   0.655  10.435  11.030 -1.9361  0.0227 -0.0065
  846MOL0     N14092   0.693  10.471  11.170  0.6824  0.4782  0.4814
  846MOL0     C14093   0.813  10.452  11.235 -0.2567 -0.8075 -0.6239
  846MOL0     C14094   0.789  10.526  11.350  0.3529  0.0961 -0.4377
  846MOL0     C14095   0.877  10.521  11.472 -0.4849  0.2554  0.4127
  846MOL0     C14096   0.998  10.613  11.442 -0.8500  0.4257  0.6055
  846MOL0     C14097   1.111  10.540  11.376 -0.0068  0.0792  0.7941
  846MOL0     C14098   1.243  10.623  11.395  0.1295 -0.3354  0.0748
  846MOL0     O14099   1.328  10.561  11.300 -0.0559 -0.0976  0.2885
  846MOL0     C14100   1.464  10.603  11.293  0.7621  0.4361 -0.0804
  846MOL0     C14101   1.543  10.562  11.189  0.5488  0.1164 -0.2051
  846MOL0     C14102   1.683  10.597  11.165  0.7185  0.2811 -0.2996
  846MOL0     C14103   1.739  10.547  11.031  0.2731 -0.1873  0.7840
  846MOL0     C14104   1.747  10.677  11.267 -0.9885  0.3178  0.0934
  846MOL0     C14105   1.890  10.704  11.264 -0.2507 -0.2666  0.0349
  846MOL0     O14106   1.931  10.802  11.353  0.2954 -0.3784 -0.0017
  846MOL0     C14107   2.063  10.810  11.382  0.1728  0.2577  0.0849
  846MOL0     C14108   2.120  10.775  11.503  0.7517  0.5490  0.3377
  846MOL0     C14109   2.250  10.791  11.534  0.1082 -0.0085  0.3285
  846MOL0     C14110   2.339  10.834  11.434 -0.1249 -0.0377  0.5518
  846MOL0     O14111   2.477  10.849  11.439 -0.4055 -0.7221  0.2624
  846MOL0     C14112   2.552  10.758  11.513 -0.3843 -0.1860 -0.6667
  846MOL0     C14113   2.697  10.721  11.464  0.2507 -0.0765  0.0355
  846MOL0     C14114   2.774  10.849  11.476  0.2284  1.0413 -0.2225
  846MOL0     C14115   2.918  10.802  11.472  0.6186  1.1229 -0.0456
  846MOL0     C14116   3.032  10.914  11.466 -0.2156  0.9030  0.3925
  846MOL0     C14117   3.022  10.984  11.325  0.1395  0.8008  0.3249
  846MOL0     C14118   3.074  10.903  11.214  0.2014 -1.0693 -0.1571
  846MOL0     C14119   3.023  10.954  11.094  0.0847  0.0756  0.5191
  846MOL0    Cl14120   2.848  10.929  11.063 -0.7322  0.1840 -0.0516
  846MOL0     C14121   2.287  10.872  11.307  0.4136  0.5072  1.0889
  846MOL0     C14122   2.149  10.865  11.287 -0.0412 -0.6449 -0.1667
  846MOL0     O14123   1.969  10.650  11.185  0.5280  0.6144 -0.8073
  846MOL0     C14124   1.669  10.723  11.370  1.5910  0.3443 -1.4328
  846MOL0     C14125   1.533  10.686  11.380 -0.5678 -0.0169 -0.5936
  846MOL0     N14126   0.669  10.585  11.348  0.1937  0.7242 -0.0541
  846MOL0     N14127   0.598  10.555  11.239 -0.9531 -0.1636 -0.2051
  846MOL0     C14128   1.026  11.238  10.928 -0.1673  0.8446  0.1814
  846MOL0     C14129   1.127  11.315  10.977  0.0358 -0.4738  0.3784
  846MOL0     C14130   1.572  11.432  11.096 -0.0961 -0.4337  0.0951
  846MOL0     C14131   1.533  11.546  11.173  0.6092 -0.2447  0.1447
  846MOL0     C14132   1.619  11.621  11.253  0.2916 -0.5470  0.3133
  846MOL0     C14133   1.751  11.574  11.278  1.0232  0.2557 -0.5669
  846MOL0     O14134   1.830  11.629  11.375 -0.1716 -0.2893  0.1889
  846MOL0     C14135   1.971  11.635  11.356  0.1365  0.4257  0.0869
  846MOL0     C14136   2.024  11.765  11.413 -0.3489  0.1855 -0.5754
  846MOL0     C14137   2.176  11.789  11.392 -0.7904  0.4522 -0.8644
  846MOL0     C14138   2.266  11.695  11.475 -0.0733 -1.2673 -0.6659
  846MOL0     C14139   2.407  11.739  11.442  0.1678  0.2034 -0.4583
  846MOL0     C14140   2.522  11.758  11.405 -0.6830 -1.3818 -0.2576
  846MOL0     C14141   1.790  11.467  11.194  0.2132 -0.2958  0.0726
  846MOL0     C14142   1.701  11.393  11.111  0.0212  0.4923 -0.2030
  846MOL0     H14143   1.351  11.251  10.732 -1.9769 -1.3722 -2.6905
  846MOL0     H14144   1.208  11.092  10.691  4.7232  1.4678  0.0680
  846MOL0     H14145   0.775  11.040  10.892 -0.8018 -2.2486 -1.0421
  846MOL0     H14146   0.757  11.200  10.801 -3.2725 -0.7550 -0.4216
  846MOL0     H14147   0.610  11.063  10.688  0.1705 -0.4579 -0.4925
  846MOL0     H14148   0.750  11.107  10.597  2.6389 -1.3603 -0.9525
  846MOL0     H14149   0.673  10.858  10.563  0.7604 -0.4081 -0.7072
  846MOL0     H14150   0.839  10.885  10.609 -0.9850 -0.4336 -1.7171
  846MOL0     H14151   0.617  10.811  10.816  0.2193 -0.9869  0.4641
  846MOL0     H14152   0.659  10.694  10.703 -2.1338  1.2429 -0.0533
  846MOL0     H14153   0.900  10.698  10.780  1.5686 -0.9768  2.3075
  846MOL0     H14154   0.866  10.830  10.891 -1.2520  1.2257  0.3008
  846MOL0     H14155   0.833  10.661  11.031 -0.7939  2.0800 -0.4874
  846MOL0     H14156   0.671  10.690  10.994  1.2918 -0.3902  3.1347
  846MOL0     H14157   0.680  10.484  10.828 -1.6320  2.6452  0.9178
  846MOL0     H14158   0.829  10.453  10.914  0.8918  1.9519  0.5701
  846MOL0     H14159   0.646  10.330  11.001 -1.4799  0.6683 -2.7691
  846MOL0     H14160   0.554  10.476  11.028 -1.4819  1.1765 -0.9392
  846MOL0     H14161   0.896  10.383  11.226 -0.0070 -1.1442  2.7444
  846MOL0     H14162   0.816  10.540  11.560 -0.8722  2.5466 -0.2864
  846MOL0     H14163   0.922  10.421  11.476  3.1775  1.7583  0.1740
  846MOL0     H14164   1.046  10.630  11.539  1.4907 -0.7785 -0.2522
  846MOL0     H14165   0.965  10.703  11.390 -3.5370 -1.6149 -1.5111
  846MOL0     H14166   1.077  10.521  11.274  0.4662  1.3922  0.3711
  846MOL0     H14167   1.127  10.445  11.428  1.1519 -0.2543 -0.1218
  846MOL0     H14168   1.275  10.611  11.499 -2.0886 -0.5780  0.7973
  846MOL0     H14169   1.214  10.727  11.377  3.1553  0.3407 -1.4817
  846MOL0     H14170   1.492  10.511  11.109  3.3634 -1.5715 -1.0483
  846MOL0     H14171   1.818  10.474  11.054  0.4822  0.3558  1.8705
  846MOL0     H14172   1.667  10.495  10.968  2.9966 -0.3295 -2.5028
  846MOL0     H14173   1.785  10.629  10.975 -2.1996  1.0910  0.5053
  846MOL0     H14174   2.048  10.720  11.563 -0.0069 -0.0182 -1.0489
  846MOL0     H14175   2.285  10.762  11.632 -0.0209  1.7619  0.9332
  846MOL0     H14176   2.566  10.782  11.619 -1.0266  2.9093 -1.1992
  846MOL0     H14177   2.496  10.664  11.500 -1.9956  1.1186 -4.6525
  846MOL0     H14178   2.735  10.646  11.534  0.1531 -1.0932 -0.9814
  846MOL0     H14179   2.696  10.688  11.360 -1.4638  0.4901 -0.1537
  846MOL0     H14180   2.752  10.909  11.565  1.4241  1.1985 -0.0083
  846MOL0     H14181   2.762  10.908  11.385  0.7734  0.5074 -0.6522
  846MOL0     H14182   2.939  10.727  11.548 -0.2220  0.6526 -0.2593
  846MOL0     H14183   2.918  10.748  11.377  1.7912  0.4821  0.3089
  846MOL0     H14184   3.127  10.859  11.469 -0.5042  0.3714 -0.0366
  846MOL0     H14185   3.028  10.981  11.553 -1.9430  1.5990 -0.1856
  846MOL0     H14186   2.918  11.002  11.295 -0.8405 -1.4433  2.0615
  846MOL0     H14187   3.085  11.073  11.329  2.2117 -0.5533 -0.6324
  846MOL0     H14188   3.035  10.801  11.222 -2.3092 -0.0739  1.9928
  846MOL0     H14189   3.182  10.912  11.226  0.0562  0.0876  0.5250
  846MOL0     H14190   3.078  10.893  11.021 -0.5515 -0.0769  0.1570
  846MOL0     H14191   3.051  11.059  11.079 -0.7205  0.1541 -0.5632
  846MOL0     H14192   2.349  10.907  11.225 -0.8465 -0.3912 -0.3017
  846MOL0     H14193   2.105  10.891  11.191 -1.9916  1.6630  1.2496
  846MOL0     H14194   1.713  10.783  11.449  2.3202 -0.8946 -0.8841
  846MOL0     H14195   1.474  10.717  11.466 -2.2661  1.1459 -2.1045
  846MOL0     H14196   0.927  11.229  10.971  1.3063 -0.9601  3.5549
  846MOL0     H14197   1.100  11.378  11.061  1.5837 -0.1124  0.6336
  846MOL0     H14198   1.435  11.592  11.159  0.9566  0.1128 -1.2499
  846MOL0     H14199   1.583  11.711  11.301 -2.1325 -1.7120  0.8153
  846MOL0     H14200   2.018  11.553  11.412  0.3990  0.0246 -0.7060
  846MOL0     H14201   1.996  11.642  11.250  1.5996  1.6639  0.4804
  846MOL0     H14202   2.006  11.764  11.521  0.1508 -1.2615 -0.4851
  846MOL0     H14203   1.970  11.842  11.357 -0.6362 -0.9618 -1.9500
  846MOL0     H14204   2.202  11.894  11.406 -0.9658  0.2806  0.9326
  846MOL0     H14205   2.203  11.760  11.290 -0.3804  0.8045 -0.8609
  846MOL0     H14206   2.241  11.591  11.455  3.9608 -2.8649  1.5594
  846MOL0     H14207   2.248  11.711  11.582 -2.5279 -0.7300 -1.0819
  846MOL0     H14208   2.624  11.779  11.377 -1.3210  1.7289 -0.6795
  846MOL0     H14209   1.892  11.430  11.194 -0.6797 -3.2856 -3.1153
  846MOL0     H14210   1.740  11.318  11.043 -1.0494  0.2265 -0.5411
  847MOL0     O14211   1.292   2.740   3.649  0.3102  0.2614 -0.0801
  847MOL0     C14212   1.318   2.625   3.601 -0.0396 -1.0281 -0.3022
  847MOL0     O14213   1.266   2.583   3.483 -0.3055 -0.0471  0.4794
  847MOL0     C14214   1.173   2.663   3.422  0.7980 -0.0538  0.2816
  847MOL0     C14215   1.199   2.787   3.362  0.1026  0.1425  0.2231
  847MOL0     C14216   1.108   2.846   3.279  0.5108 -0.9631 -1.3276
  847MOL0     C14217   0.977   2.796   3.259  0.0947  1.2734 -0.1998
  847MOL0     O14218   0.889   2.843   3.178  0.2387 -0.3216  0.6940
  847MOL0     C14219   0.852   2.983   3.205 -0.1464 -0.4080  0.0569
  847MOL0     C14220   0.816   3.056   3.079 -0.5320 -0.0982 -0.5710
  847MOL0     C14221   0.736   3.189   3.110 -0.9133  1.1125  0.4042
  847MOL0     C14222   0.827   3.308   3.136 -0.2120  0.3297  0.5855
  847MOL0     C14223   0.749   3.435   3.120 -0.4156 -1.0960 -1.0878
  847MOL0     C14224   0.649   3.452   3.237  0.2161 -0.6711  0.6035
  847MOL0     C14225   0.516   3.513   3.184  0.6171 -1.0215 -0.5808
  847MOL0     C14226   0.433   3.586   3.288  0.1583 -0.2789  0.6601
  847MOL0     N14227   0.307   3.631   3.227  0.7830  0.6794 -0.5118
  847MOL0     C14228   0.304   3.735   3.128 -1.5221  0.2118 -0.5688
  847MOL0     C14229   0.175   3.717   3.083 -0.2329 -0.6519  0.1036
  847MOL0     C14230   0.102   3.814   3.004 -0.4562  0.0778 -0.4942
  847MOL0     C14231   0.125   3.779   2.852 -0.0257  0.2603  1.1401
  847MOL0     C14232   0.086   3.890   2.747  0.7739 -0.5800 -0.0511
  847MOL0     C14233  -0.064   3.915   2.756  0.1837  0.2847 -0.4500
  847MOL0     O14234  -0.122   4.000   2.659  0.9157 -0.0146 -0.0155
  847MOL0     C14235  -0.255   3.985   2.631 -1.2085  0.6845  0.4219
  847MOL0     C14236  -0.293   3.899   2.529 -0.0991  0.3773  0.5117
  847MOL0     C14237  -0.428   3.855   2.511 -0.6117 -0.0203  0.0651
  847MOL0     C14238  -0.454   3.739   2.419 -0.3488 -0.2463  0.2642
  847MOL0     C14239  -0.524   3.923   2.583  0.8600  0.5083 -0.6376
  847MOL0     C14240  -0.672   3.900   2.572  0.3920 -0.0333 -0.4749
  847MOL0     O14241  -0.744   3.959   2.668 -0.0869  0.6871 -0.2247
  847MOL0     C14242  -0.874   3.931   2.665  0.1793  0.4869  0.1310
  847MOL0     C14243  -0.959   3.969   2.561  0.4757 -0.7463 -0.0614
  847MOL0     C14244  -1.101   3.953   2.568 -0.2650 -0.1526 -0.0611
  847MOL0     C14245  -1.156   3.884   2.680 -0.7698 -0.9956  0.3651
  847MOL0     O14246  -1.284   3.846   2.673 -0.0938 -0.0131  0.4443
  847MOL0     C14247  -1.337   3.769   2.783 -0.3524 -1.0227  0.9577
  847MOL0     C14248  -1.460   3.707   2.726 -0.3730  0.7323  0.7834
  847MOL0     C14249  -1.427   3.615   2.605 -0.3193 -0.8449  0.7180
  847MOL0     C14250  -1.552   3.567   2.536  0.2099 -0.0698  0.2208
  847MOL0     C14251  -1.512   3.482   2.411  0.3736 -0.2083  0.0377
  847MOL0     C14252  -1.618   3.393   2.345  0.1106  0.2400  0.1225
  847MOL0     C14253  -1.687   3.293   2.443  0.0734 -0.0076  0.2586
  847MOL0     C14254  -1.786   3.215   2.353 -1.0107 -0.8939 -1.0229
  847MOL0    Cl14255  -1.917   3.316   2.269  0.0697  0.6502  0.0877
  847MOL0     C14256  -1.070   3.849   2.782 -0.1257 -0.7305  1.0602
  847MOL0     C14257  -0.929   3.872   2.778  0.2739 -0.3146  0.1978
  847MOL0     O14258  -0.715   3.827   2.476 -0.1077 -0.4540 -0.6855
  847MOL0     C14259  -0.480   4.000   2.686 -0.0624  1.1464  0.8908
  847MOL0     C14260  -0.350   4.032   2.720  0.1884 -0.0631 -0.5770
  847MOL0     N14261   0.107   3.613   3.153  0.4311  0.7019 -0.0138
  847MOL0     N14262   0.189   3.565   3.244 -0.4756  0.5045  0.2918
  847MOL0     C14263   0.953   2.670   3.320 -0.2725  0.2496 -0.1164
  847MOL0     C14264   1.045   2.603   3.402 -0.2232 -0.1411  0.2668
  847MOL0     C14265   1.415   2.545   3.679 -1.6122  1.0578 -0.0742
  847MOL0     C14266   1.449   2.420   3.623  0.7904 -0.4308 -0.5184
  847MOL0     C14267   1.536   2.341   3.694 -0.4837  0.8405 -1.1479
  847MOL0     C14268   1.581   2.370   3.828 -0.1876  0.5039 -0.2942
  847MOL0     O14269   1.654   2.265   3.889  0.1381 -1.0858 -0.3829
  847MOL0     C14270   1.733   2.300   4.008  0.0158  0.7880  0.0702
  847MOL0     C14271   1.870   2.375   3.964 -0.2645 -0.3168 -0.4137
  847MOL0     C14272   1.963   2.263   3.899 -0.3274 -0.3786 -0.2999
  847MOL0     C14273   2.101   2.330   3.865 -0.5677 -0.4708  0.0302
  847MOL0     C14274   2.192   2.253   3.782 -1.1251 -1.1050  0.0541
  847MOL0     C14275   2.279   2.207   3.710  0.2696  0.5415  0.5162
  847MOL0     C14276   1.552   2.493   3.882  0.3915 -0.1498 -0.7890
  847MOL0     C14277   1.471   2.585   3.813  0.0367  1.0335  0.1046
  847MOL0     H14278   1.296   2.831   3.383  1.1521 -1.2454 -1.4161
  847MOL0     H14279   1.129   2.944   3.238  0.3069  0.3606  1.5101
  847MOL0     H14280   0.767   2.975   3.272 -0.1644 -1.1003 -0.0459
  847MOL0     H14281   0.928   3.042   3.257 -0.6621  2.2811 -2.0072
  847MOL0     H14282   0.907   3.087   3.028 -0.7855  3.2220  0.7527
  847MOL0     H14283   0.765   2.995   3.004 -1.0784 -0.1391 -0.1722
  847MOL0     H14284   0.672   3.209   3.023  0.5158  0.8868 -0.7328
  847MOL0     H14285   0.664   3.160   3.188 -1.5861 -2.2769 -1.2499
  847MOL0     H14286   0.855   3.297   3.241 -3.3443  2.3747  1.7976
  847MOL0     H14287   0.914   3.310   3.071 -0.5055  2.0736  0.2004
  847MOL0     H14288   0.823   3.515   3.125 -1.8616  0.2484  3.6699
  847MOL0     H14289   0.692   3.448   3.027  1.3862  4.5284 -1.7661
  847MOL0     H14290   0.629   3.360   3.294  2.3301 -2.0414 -0.7057
  847MOL0     H14291   0.692   3.525   3.307  0.4137 -0.0604 -0.1456
  847MOL0     H14292   0.553   3.579   3.105  2.5683  0.5957  1.5586
  847MOL0     H14293   0.456   3.437   3.133 -2.1330  2.5142 -3.1390
  847MOL0     H14294   0.484   3.669   3.339 -2.1210  1.4819  0.2524
  847MOL0     H14295   0.416   3.518   3.372 -1.8361 -0.5678  0.0848
  847MOL0     H14296   0.387   3.804   3.112  0.5463 -2.2680 -1.3200
  847MOL0     H14297  -0.002   3.822   3.037  0.4121  1.0007  2.3515
  847MOL0     H14298   0.150   3.906   3.040 -3.1469  1.5353 -0.3744
  847MOL0     H14299   0.062   3.696   2.821  1.2132 -0.4343  0.4301
  847MOL0     H14300   0.228   3.753   2.827 -0.5425 -0.7938  0.0346
  847MOL0     H14301   0.117   3.853   2.649 -1.8212 -0.5106 -0.9565
  847MOL0     H14302   0.142   3.981   2.772 -1.3137  0.2986  1.7896
  847MOL0     H14303  -0.080   3.955   2.857 -0.2681  1.1692 -0.8545
  847MOL0     H14304  -0.116   3.819   2.751 -0.8884  0.8907 -1.7958
  847MOL0     H14305  -0.219   3.855   2.462  1.2587  1.0506  1.5180
  847MOL0     H14306  -0.372   3.668   2.406  0.6325  1.2683 -2.6792
  847MOL0     H14307  -0.545   3.682   2.444 -0.8494  1.3490  2.4152
  847MOL0     H14308  -0.485   3.772   2.320  0.4580 -3.2406 -1.1004
  847MOL0     H14309  -0.912   4.032   2.486 -0.4791 -0.3543 -0.3556
  847MOL0     H14310  -1.163   3.981   2.484 -2.9975  1.0651  2.2034
  847MOL0     H14311  -1.274   3.687   2.818 -0.0746 -1.3331 -0.2318
  847MOL0     H14312  -1.369   3.843   2.857 -3.0754  0.2902 -1.3331
  847MOL0     H14313  -1.497   3.650   2.812 -0.0754  0.0706  0.4762
  847MOL0     H14314  -1.533   3.782   2.694  1.2489  1.0685 -2.4857
  847MOL0     H14315  -1.386   3.519   2.637 -4.5032 -3.8044 -1.8439
  847MOL0     H14316  -1.356   3.663   2.538 -1.9036 -2.5126 -2.3611
  847MOL0     H14317  -1.587   3.505   2.620 -2.0595  0.0537 -0.5579
  847MOL0     H14318  -1.619   3.648   2.507 -0.1469  1.1348  3.9040
  847MOL0     H14319  -1.430   3.413   2.431 -0.1448 -0.9453 -0.3280
  847MOL0     H14320  -1.477   3.556   2.339 -0.2745 -2.2166 -2.5004
  847MOL0     H14321  -1.688   3.461   2.297  0.9882  0.4606 -0.8766
  847MOL0     H14322  -1.572   3.334   2.265  1.6101  0.7944  0.5459
  847MOL0     H14323  -1.723   3.351   2.528 -1.4817  0.6055 -0.7662
  847MOL0     H14324  -1.624   3.217   2.488  1.6194  0.2017 -1.4259
  847MOL0     H14325  -1.836   3.133   2.406 -4.1843  1.8761  0.7571
  847MOL0     H14326  -1.727   3.164   2.277  1.5651  3.3889 -2.2083
  847MOL0     H14327  -1.110   3.799   2.869  1.5844 -1.4289  1.4811
  847MOL0     H14328  -0.877   3.849   2.870  0.5354 -0.3087  0.0532
  847MOL0     H14329  -0.548   4.036   2.763 -0.0088 -0.1153  1.5523
  847MOL0     H14330  -0.323   4.090   2.808 -1.0063  0.1596 -0.3413
  847MOL0     H14331   0.860   2.623   3.288 -0.7060 -0.2688  1.7936
  847MOL0     H14332   1.003   2.510   3.438 -2.4321  0.7862  0.2487
  847MOL0     H14333   1.413   2.397   3.523 -2.9794  1.2849  0.2613
  847MOL0     H14334   1.583   2.255   3.646  2.4875  2.8326 -2.0958
  847MOL0     H14335   1.683   2.368   4.078  1.8494  2.7617 -0.4463
  847MOL0     H14336   1.763   2.209   4.060 -2.8340  0.2899  1.0442
  847MOL0     H14337   1.929   2.421   4.043  0.7370  0.6599 -1.6778
  847MOL0     H14338   1.848   2.460   3.899  1.1227 -0.2566 -0.8397
  847MOL0     H14339   1.920   2.230   3.804 -2.8055  1.9450 -0.1097
  847MOL0     H14340   1.985   2.180   3.967  1.4841 -0.6326 -1.1366
  847MOL0     H14341   2.160   2.337   3.957 -1.5291 -1.9373  0.8051
  847MOL0     H14342   2.087   2.430   3.825  1.6645  1.5642  3.7518
  847MOL0     H14343   2.362   2.175   3.650  4.1715  0.4157  5.3348
  847MOL0     H14344   1.591   2.524   3.978  0.6555  1.3795 -1.3613
  847MOL0     H14345   1.457   2.685   3.851 -1.0803  1.2886 -0.8845
  848MOL0     O14346   3.752   7.160   9.050  0.1187  0.1877  0.3954
  848MOL0     C14347   3.865   7.167   8.990  1.4505  0.8255  0.5159
  848MOL0     O14348   3.933   7.280   8.938 -0.7320  0.0619 -0.1954
  848MOL0     C14349   3.867   7.395   8.963 -0.7551  0.0712 -0.2992
  848MOL0     C14350   3.826   7.471   8.852 -0.1559 -0.3635  0.1192
  848MOL0     C14351   3.767   7.589   8.862  0.2805 -0.6747 -0.4450
  848MOL0     C14352   3.738   7.656   8.988 -0.6035 -0.1553 -0.7794
  848MOL0     O14353   3.686   7.778   9.006 -0.3302  0.2223  0.0056
  848MOL0     C14354   3.778   7.878   9.067  0.0164 -0.2390 -1.0572
  848MOL0     C14355   3.704   8.013   9.066 -0.1610  0.3484 -0.3957
  848MOL0     C14356   3.772   8.132   9.142 -0.3025  0.6565 -0.4435
  848MOL0     C14357   3.922   8.152   9.111  0.4345 -0.4893 -0.2948
  848MOL0     C14358   3.973   8.283   9.165 -0.6851 -0.8282  0.0317
  848MOL0     C14359   3.935   8.397   9.069  0.3979 -0.8567  1.3569
  848MOL0     C14360   3.926   8.544   9.129 -0.0775  0.4453 -0.3482
  848MOL0     C14361   3.819   8.544   9.239  0.8068 -0.8957 -0.6075
  848MOL0     N14362   3.810   8.676   9.306 -0.2642 -0.4378  0.5547
  848MOL0     C14363   3.906   8.780   9.310 -0.0917  0.3724 -0.7947
  848MOL0     C14364   3.844   8.891   9.357 -0.2292 -1.7922  0.0035
  848MOL0     C14365   3.907   9.030   9.366 -0.2747  0.3232 -0.2159
  848MOL0     C14366   4.059   9.032   9.362 -1.0354 -0.6221  0.5956
  848MOL0     C14367   4.106   9.170   9.368  0.2102 -0.3016  0.1911
  848MOL0     C14368   4.260   9.184   9.358  0.9719 -0.7300  0.1553
  848MOL0     O14369   4.303   9.132   9.223  0.7276  0.2011  0.4145
  848MOL0     C14370   4.405   9.184   9.155  0.0649  0.1057 -0.2987
  848MOL0     C14371   4.402   9.165   9.016  0.6143 -0.3829  0.2516
  848MOL0     C14372   4.500   9.231   8.937 -0.5124  0.8640  0.2119
  848MOL0     C14373   4.490   9.202   8.790  0.1113 -0.8933 -0.0689
  848MOL0     C14374   4.605   9.314   8.999  1.0229 -0.1796  0.3839
  848MOL0     C14375   4.708   9.385   8.912 -0.2695  0.0657  0.2936
  848MOL0     O14376   4.766   9.489   8.972 -0.4102  0.5468 -0.2030
  848MOL0     C14377   4.808   9.608   8.909 -1.2527  0.6154 -0.3813
  848MOL0     C14378   4.880   9.695   8.984  0.7257 -0.9132  0.8814
  848MOL0     C14379   4.938   9.814   8.928  0.2404 -0.3984 -0.4673
  848MOL0     C14380   4.914   9.848   8.796  0.0943 -0.1123 -0.3912
  848MOL0     O14381   4.978   9.961   8.745  0.3073 -0.1656  0.4118
  848MOL0     C14382   4.945  10.001   8.613  0.5074  0.4693 -0.2530
  848MOL0     C14383   5.012  10.139   8.617 -0.8080 -0.8302 -1.0437
  848MOL0     C14384   5.021  10.194   8.478 -0.6065 -0.3303 -0.0978
  848MOL0     C14385   4.883  10.243   8.444  0.0088  0.0513 -0.3513
  848MOL0     C14386   4.888  10.286   8.303 -0.3069  0.4000  0.2042
  848MOL0     C14387   4.894  10.439   8.296  0.3551 -0.7435  0.0203
  848MOL0     C14388   4.929  10.491   8.150 -0.5074 -0.7379  0.4608
  848MOL0     C14389   5.072  10.530   8.124 -0.7507  0.1691 -0.2717
  848MOL0    Cl14390   5.104  10.618   7.974  0.0375  0.2598 -0.4928
  848MOL0     C14391   4.840   9.754   8.718  0.3276 -0.9984 -0.3612
  848MOL0     C14392   4.799   9.629   8.771 -0.2955 -0.4342  0.0536
  848MOL0     O14393   4.741   9.329   8.804  0.2590 -0.2359  0.0572
  848MOL0     C14394   4.610   9.320   9.139  0.8537 -0.9972 -0.7930
  848MOL0     C14395   4.509   9.259   9.219  0.1779  0.2135 -0.1544
  848MOL0     N14396   3.724   8.847   9.411  0.5228  0.3329 -0.2488
  848MOL0     N14397   3.703   8.723   9.371 -0.3085  1.0020 -0.2970
  848MOL0     C14398   3.780   7.574   9.104 -0.1001 -1.0155  0.0172
  848MOL0     C14399   3.839   7.453   9.094 -0.1190 -0.1189 -0.6406
  848MOL0     C14400   3.937   7.039   8.963 -1.8713  1.6323  0.5416
  848MOL0     C14401   3.872   6.911   8.984 -0.6182  0.0399  0.5605
  848MOL0     C14402   3.922   6.785   8.946 -0.1004  0.8007  0.4264
  848MOL0     C14403   4.048   6.787   8.898 -0.0604 -0.9853 -0.2300
  848MOL0     O14404   4.120   6.671   8.876 -0.1715 -0.1676 -0.2678
  848MOL0     C14405   4.090   6.552   8.950  0.7950  0.3339 -0.5062
  848MOL0     C14406   4.184   6.442   8.913  1.1302  0.6021  0.3415
  848MOL0     C14407   4.174   6.325   9.017  0.9885 -0.3158  0.1543
  848MOL0     C14408   4.185   6.191   8.942  0.3460  0.1626  0.2378
  848MOL0     C14409   4.209   6.068   9.015 -0.0319  0.1159 -0.3887
  848MOL0     C14410   4.222   5.968   9.087  1.1430  0.1280  0.7025
  848MOL0     C14411   4.117   6.905   8.864  1.1019  0.4597 -1.0253
  848MOL0     C14412   4.058   7.034   8.896  0.8849  0.3403  0.4073
  848MOL0     H14413   3.838   7.424   8.755 -3.5510 -0.1140 -0.5168
  848MOL0     H14414   3.743   7.641   8.770 -0.2008  2.0220  1.0708
  848MOL0     H14415   3.795   7.844   9.170 -0.2563 -0.4099 -1.0674
  848MOL0     H14416   3.869   7.893   9.008  0.2573  2.1401 -0.2052
  848MOL0     H14417   3.676   8.034   8.962 -3.5968 -2.1044 -0.1492
  848MOL0     H14418   3.606   7.987   9.108 -2.4084  1.9047 -4.1838
  848MOL0     H14419   3.709   8.217   9.116 -2.0744 -0.4417  0.1353
  848MOL0     H14420   3.755   8.118   9.249  0.9356 -0.6492 -0.3935
  848MOL0     H14421   3.986   8.070   9.145  0.0412 -0.5922  0.1995
  848MOL0     H14422   3.941   8.160   9.004 -0.9393 -2.5337 -0.7350
  848MOL0     H14423   3.926   8.287   9.263 -1.3699 -1.3446 -0.2725
  848MOL0     H14424   4.082   8.297   9.167 -0.4431 -2.5767  1.6043
  848MOL0     H14425   3.993   8.395   8.976 -1.8457  0.5823 -0.1909
  848MOL0     H14426   3.839   8.358   9.034 -0.6250 -0.0554  3.1351
  848MOL0     H14427   4.022   8.578   9.169  1.4975 -1.0696 -2.5859
  848MOL0     H14428   3.905   8.610   9.045  2.6974 -1.2366 -2.5633
  848MOL0     H14429   3.835   8.475   9.322  0.7337  2.1314  2.1044
  848MOL0     H14430   3.724   8.505   9.200 -1.2823  0.7386  2.4798
  848MOL0     H14431   4.008   8.771   9.274  0.0694  0.0539 -0.2675
  848MOL0     H14432   3.877   9.084   9.276 -1.5235 -1.6675 -1.0642
  848MOL0     H14433   3.861   9.077   9.454 -0.5198  1.0485 -0.7259
  848MOL0     H14434   4.108   8.985   9.276 -0.9333  0.9750 -0.2579
  848MOL0     H14435   4.114   8.980   9.441  1.7954 -0.3938 -1.0713
  848MOL0     H14436   4.072   9.230   9.453  1.3189  1.8229 -0.7608
  848MOL0     H14437   4.072   9.228   9.282 -1.1112 -0.2213  0.7444
  848MOL0     H14438   4.319   9.134   9.435  1.9636  2.2061  1.4586
  848MOL0     H14439   4.280   9.290   9.375 -0.4271 -0.7489  2.2861
  848MOL0     H14440   4.325   9.104   8.968  0.2183  0.3165 -0.0191
  848MOL0     H14441   4.572   9.142   8.749 -0.7127 -0.4937 -2.5073
  848MOL0     H14442   4.393   9.157   8.767  0.3139 -1.2052 -0.3330
  848MOL0     H14443   4.487   9.297   8.735 -0.8747 -0.2551  1.0693
  848MOL0     H14444   4.901   9.662   9.085  1.2254 -3.2906  0.0612
  848MOL0     H14445   4.973   9.884   9.003  0.1389  1.2996 -1.9268
  848MOL0     H14446   4.991   9.933   8.541 -1.3126 -3.4242  1.9673
  848MOL0     H14447   4.839  10.003   8.588  0.8452 -1.3818 -2.1479
  848MOL0     H14448   4.944  10.189   8.687 -1.0672  1.1409 -2.6067
  848MOL0     H14449   5.112  10.131   8.662 -1.9384  0.2863  1.9105
  848MOL0     H14450   5.056  10.116   8.411 -4.9971 -0.3494 -2.7439
  848MOL0     H14451   5.088  10.279   8.463 -1.6174  0.4141 -0.4998
  848MOL0     H14452   4.833  10.146   8.450 -0.3133  0.3212  2.1543
  848MOL0     H14453   4.843  10.317   8.513  0.7418  0.8733 -0.7796
  848MOL0     H14454   4.807  10.241   8.244 -0.1539 -3.1003  2.3293
  848MOL0     H14455   4.975  10.239   8.256 -1.8031  0.1284 -2.5045
  848MOL0     H14456   4.793  10.473   8.323 -0.3817 -2.9678  0.2796
  848MOL0     H14457   4.966  10.464   8.374 -3.2769  1.0343  3.1416
  848MOL0     H14458   4.863  10.573   8.120 -0.5426 -0.5982  0.9016
  848MOL0     H14459   4.905  10.404   8.088 -2.4631 -0.9956  1.4645
  848MOL0     H14460   5.146  10.449   8.127  1.0310  1.7373 -0.2090
  848MOL0     H14461   5.097  10.597   8.206 -3.7947 -1.1500  1.9212
  848MOL0     H14462   4.798   9.779   8.621 -0.3465  0.7948  0.3503
  848MOL0     H14463   4.747   9.574   8.693 -1.2259 -1.5063  1.3847
  848MOL0     H14464   4.683   9.379   9.194 -1.6112  0.0425  1.5664
  848MOL0     H14465   4.506   9.267   9.327 -1.7813 -2.4324  0.0869
  848MOL0     H14466   3.770   7.618   9.203 -2.4928 -0.9939 -0.1743
  848MOL0     H14467   3.876   7.392   9.175  1.7735 -2.9778 -3.3948
  848MOL0     H14468   3.774   6.901   9.028 -1.3859 -0.0891 -1.1143
  848MOL0     H14469   3.869   6.694   8.971 -0.5337  1.2587  1.2028
  848MOL0     H14470   4.088   6.565   9.058  1.0524 -0.1160 -0.4433
  848MOL0     H14471   3.990   6.528   8.911  0.1245  3.6271 -1.1348
  848MOL0     H14472   4.283   6.487   8.914  1.2214  0.8703 -3.6551
  848MOL0     H14473   4.168   6.410   8.809 -1.5241 -0.9591  1.1387
  848MOL0     H14474   4.075   6.329   9.062 -0.6238 -1.4841 -2.9957
  848MOL0     H14475   4.258   6.325   9.087  1.7785 -1.8435 -0.7150
  848MOL0     H14476   4.271   6.210   8.877 -0.2473 -2.2683 -1.3827
  848MOL0     H14477   4.096   6.190   8.878  0.6088  1.4640 -0.1944
  848MOL0     H14478   4.244   5.883   9.150 -0.4128 -0.1587  0.8950
  848MOL0     H14479   4.217   6.899   8.821  1.8729  2.3640  0.4011
  848MOL0     H14480   4.111   7.127   8.878 -0.4457  1.2651  1.1074
  849MOL0     O14481   5.762   9.846   5.652 -0.6135  0.1812 -0.7673
  849MOL0     C14482   5.779   9.774   5.552 -0.5751  0.1337  0.2104
  849MOL0     O14483   5.800   9.806   5.425 -0.8945 -1.3524  1.1264
  849MOL0     C14484   5.799   9.937   5.382 -0.1935 -0.1461  0.0969
  849MOL0     C14485   5.691   9.988   5.310 -0.3758  0.0998  0.3895
  849MOL0     C14486   5.678  10.131   5.305  0.8814 -0.1954  0.3269
  849MOL0     C14487   5.782  10.212   5.331 -0.7556  0.7739  0.5902
  849MOL0     O14488   5.772  10.348   5.312 -0.3352 -0.1527 -0.4061
  849MOL0     C14489   5.671  10.409   5.233 -0.1974 -0.8001  0.0660
  849MOL0     C14490   5.725  10.418   5.085 -0.0963 -0.4263  0.0699
  849MOL0     C14491   5.675  10.542   4.997 -0.5132 -0.1122 -0.3485
  849MOL0     C14492   5.732  10.679   5.022 -0.2456  0.5702  0.1551
  849MOL0     C14493   5.650  10.779   4.945 -0.1503  0.4705 -0.1882
  849MOL0     C14494   5.733  10.906   4.945 -0.2462 -0.4526  0.1970
  849MOL0     C14495   5.656  11.012   4.877 -0.8921  0.0118  0.3600
  849MOL0     C14496   5.560  11.085   4.959  0.1520  0.9263  0.1621
  849MOL0     N14497   5.540  11.225   4.935  0.2472  0.4248 -0.0850
  849MOL0     C14498   5.584  11.334   5.013  0.8537 -0.0402  0.2635
  849MOL0     C14499   5.507  11.437   4.963 -0.0898 -0.4812  0.4497
  849MOL0     C14500   5.487  11.580   5.012 -0.4656  0.6998 -1.0152
  849MOL0     C14501   5.337  11.609   5.060  0.4391  0.5120  0.2670
  849MOL0     C14502   5.333  11.744   5.136  0.0660  0.9359  0.0594
  849MOL0     C14503   5.372  11.865   5.062 -0.0529 -0.1586 -0.2427
  849MOL0     O14504   5.336  11.876   4.932 -0.1802 -0.1957  0.5311
  849MOL0     C14505   5.207  11.888   4.883  0.2386  0.4365  0.4339
  849MOL0     C14506   5.186  11.870   4.747  1.0108 -0.0339 -0.6164
  849MOL0     C14507   5.059  11.912   4.689 -0.1263  0.0291  0.8060
  849MOL0     C14508   5.059  11.912   4.533  0.3336  0.1741  0.0576
  849MOL0     C14509   4.950  11.943   4.758 -0.4633  0.4117 -0.5425
  849MOL0     C14510   4.811  11.962   4.710 -1.0158  0.3261 -0.0271
  849MOL0     O14511   4.715  11.996   4.802 -0.3241 -0.6824  0.6734
  849MOL0     C14512   4.584  12.001   4.758 -0.3656 -0.1857 -1.4699
  849MOL0     C14513   4.523  11.910   4.669 -0.9393 -0.8615  0.4339
  849MOL0     C14514   4.395  11.932   4.623  0.7201 -0.8439 -0.8504
  849MOL0     C14515   4.311  12.023   4.690 -0.1927 -0.4582 -0.3701
  849MOL0     O14516   4.174  12.019   4.683 -0.4262  0.0279  0.2434
  849MOL0     C14517   4.116  12.036   4.557  0.4630 -0.4044  0.8634
  849MOL0     C14518   3.972  11.976   4.550 -1.9071 -0.3837 -0.2728
  849MOL0     C14519   3.974  11.822   4.557 -0.4268  0.5211  0.5230
  849MOL0     C14520   3.815  11.785   4.537 -0.7267  0.4289 -0.2177
  849MOL0     C14521   3.795  11.635   4.511 -0.3629  0.0701  0.3891
  849MOL0     C14522   3.829  11.538   4.630  0.5705 -0.3985 -0.7828
  849MOL0     C14523   3.759  11.562   4.765 -1.5191  0.5532 -0.6791
  849MOL0     C14524   3.624  11.496   4.794  0.4501  0.3647  0.3040
  849MOL0    Cl14525   3.594  11.499   4.977  0.4351 -0.2004  0.2545
  849MOL0     C14526   4.376  12.113   4.778  0.5150 -0.0713  0.6333
  849MOL0     C14527   4.505  12.113   4.808 -0.5792  0.4774 -0.6891
  849MOL0     O14528   4.794  11.965   4.593 -0.0498  0.6192  0.3403
  849MOL0     C14529   4.979  11.957   4.902 -0.6731  0.4488 -0.2112
  849MOL0     C14530   5.101  11.933   4.964  0.4591  1.2185  0.4085
  849MOL0     N14531   5.426  11.393   4.864 -0.3313  0.6199  0.0167
  849MOL0     N14532   5.444  11.269   4.851  0.0387 -0.0094  0.1641
  849MOL0     C14533   5.898  10.156   5.385  0.2930 -0.7030 -0.4380
  849MOL0     C14534   5.902  10.017   5.419  0.0944  0.1449  0.6925
  849MOL0     C14535   5.744   9.630   5.577  0.3367 -0.6818 -0.1513
  849MOL0     C14536   5.725   9.537   5.474  0.8949  0.5935 -0.2851
  849MOL0     C14537   5.722   9.403   5.504 -0.5188  0.9969  0.0091
  849MOL0     C14538   5.705   9.355   5.636 -0.8823  1.0733  0.7143
  849MOL0     O14539   5.684   9.228   5.675 -0.4753  0.1851 -0.2064
  849MOL0     C14540   5.670   9.121   5.576  0.1989  0.3611 -0.3412
  849MOL0     C14541   5.677   8.981   5.630 -0.3044 -0.1287 -0.5856
  849MOL0     C14542   5.586   8.966   5.760 -1.0983  0.3989  0.5045
  849MOL0     C14543   5.568   8.828   5.811 -0.9086  0.2062  0.4871
  849MOL0     C14544   5.687   8.754   5.818  0.6334  0.5419  0.3573
  849MOL0     C14545   5.772   8.671   5.831 -0.3119 -0.8143  0.2092
  849MOL0     C14546   5.741   9.449   5.733  0.6582  0.4387  1.2382
  849MOL0     C14547   5.763   9.583   5.703  0.0312 -0.1482  0.1435
  849MOL0     H14548   5.607   9.923   5.283  1.1901 -2.4626  1.3234
  849MOL0     H14549   5.582  10.165   5.269  0.6588  0.0321  1.1156
  849MOL0     H14550   5.565  10.383   5.241 -1.6543  3.9654 -0.2051
  849MOL0     H14551   5.681  10.501   5.291  0.9146 -1.2431  0.5850
  849MOL0     H14552   5.834  10.416   5.087  0.2250  4.3442 -0.9587
  849MOL0     H14553   5.700  10.322   5.040  0.4331 -0.9867  0.9247
  849MOL0     H14554   5.691  10.510   4.893 -2.1381 -3.0248  0.1766
  849MOL0     H14555   5.567  10.545   5.014 -0.4018  0.0840  0.3365
  849MOL0     H14556   5.737  10.704   5.129 -3.1331  0.2668  0.4361
  849MOL0     H14557   5.835  10.675   4.986 -0.3251 -1.9473  0.0861
  849MOL0     H14558   5.622  10.739   4.848  0.3698 -3.0482  0.9676
  849MOL0     H14559   5.552  10.789   4.994 -0.4069  1.4335 -0.8766
  849MOL0     H14560   5.753  10.937   5.048  1.8755  2.7624 -1.0153
  849MOL0     H14561   5.833  10.889   4.906 -0.1988 -1.1307  0.5937
  849MOL0     H14562   5.736  11.082   4.851 -0.5679 -0.5070 -0.0821
  849MOL0     H14563   5.609  10.987   4.782 -2.9042 -0.0306  1.3196
  849MOL0     H14564   5.586  11.085   5.066  0.2887 -2.7512  0.2583
  849MOL0     H14565   5.474  11.019   4.945  2.7838 -3.4063  2.3034
  849MOL0     H14566   5.642  11.326   5.105  0.9771  1.0265  0.2963
  849MOL0     H14567   5.557  11.585   5.096  1.0575 -0.4662 -2.1470
  849MOL0     H14568   5.527  11.643   4.932  2.2919  0.0893 -0.2256
  849MOL0     H14569   5.301  11.514   5.101  2.9027  0.3049  2.2171
  849MOL0     H14570   5.293  11.625   4.961  1.0367 -0.0764 -0.1040
  849MOL0     H14571   5.388  11.730   5.230 -2.1813  0.5135  1.3912
  849MOL0     H14572   5.225  11.758   5.149  0.0938  0.7322  0.5230
  849MOL0     H14573   5.480  11.863   5.078  0.0801  0.0214 -1.0962
  849MOL0     H14574   5.337  11.951   5.120  0.0125  0.0729 -0.5481
  849MOL0     H14575   5.266  11.825   4.690  0.6899 -0.5467 -0.6663
  849MOL0     H14576   5.148  11.903   4.469 -0.9431  3.5413 -2.5084
  849MOL0     H14577   4.979  11.845   4.500  0.5863  0.7494 -1.8322
  849MOL0     H14578   5.040  12.016   4.502  0.9971  0.7673  1.5514
  849MOL0     H14579   4.575  11.826   4.625  0.5604 -0.1003  0.6972
  849MOL0     H14580   4.350  11.864   4.551  0.3451 -0.1857 -1.2417
  849MOL0     H14581   4.105  12.142   4.532 -2.0659 -0.7430  0.3107
  849MOL0     H14582   4.182  12.000   4.477 -0.1839 -1.5698  0.8354
  849MOL0     H14583   3.912  12.017   4.632 -0.6150 -1.6539  1.3636
  849MOL0     H14584   3.920  11.997   4.457 -1.1380 -0.3753 -0.7130
  849MOL0     H14585   4.028  11.778   4.641 -1.6732  0.8967  1.5656
  849MOL0     H14586   4.029  11.793   4.467  0.0638  1.2100  0.5866
  849MOL0     H14587   3.760  11.805   4.629  1.2377 -0.5439  1.2548
  849MOL0     H14588   3.769  11.849   4.462 -1.0515  3.4135  2.3157
  849MOL0     H14589   3.849  11.583   4.431  4.9833  1.4505  2.6639
  849MOL0     H14590   3.690  11.615   4.491 -0.8367  1.9046  0.8306
  849MOL0     H14591   3.797  11.441   4.593  0.1978 -1.0246  1.0733
  849MOL0     H14592   3.938  11.544   4.640  0.8176  1.6523 -3.4513
  849MOL0     H14593   3.761  11.670   4.785 -2.9814  0.4138  0.4047
  849MOL0     H14594   3.830  11.514   4.833 -0.8954 -0.6790 -2.1510
  849MOL0     H14595   3.626  11.396   4.748 -2.6792  1.2071 -2.0254
  849MOL0     H14596   3.544  11.551   4.744  1.6480  1.7682 -0.1269
  849MOL0     H14597   4.309  12.170   4.841 -2.7705 -2.6939 -0.2044
  849MOL0     H14598   4.539  12.181   4.886  0.2003  0.8055 -1.3096
  849MOL0     H14599   4.893  11.965   4.966  1.4371 -3.6865  3.7043
  849MOL0     H14600   5.117  11.968   5.065 -0.3156  3.6997 -0.2573
  849MOL0     H14601   5.973  10.227   5.417 -1.4776  1.0459 -0.0034
  849MOL0     H14602   5.976   9.972   5.485 -1.3968 -1.3002  1.4506
  849MOL0     H14603   5.727   9.564   5.369  0.7000 -2.2462 -1.1011
  849MOL0     H14604   5.723   9.338   5.417 -1.0283 -2.0164  2.0853
  849MOL0     H14605   5.579   9.141   5.518  0.2519  3.9119  0.6040
  849MOL0     H14606   5.755   9.136   5.509 -2.4752  2.2957 -3.6211
  849MOL0     H14607   5.783   8.966   5.654 -0.6439  1.1543  2.1800
  849MOL0     H14608   5.650   8.907   5.554 -3.8891  2.5974 -2.2513
  849MOL0     H14609   5.490   9.000   5.720 -0.2431  0.5029 -1.5441
  849MOL0     H14610   5.615   9.030   5.844 -1.1084  0.3425  0.5512
  849MOL0     H14611   5.501   8.782   5.738 -0.2433  0.8940 -0.5869
  849MOL0     H14612   5.521   8.834   5.910  1.9091  0.4840  1.9179
  849MOL0     H14613   5.848   8.596   5.845  1.9441  0.4062 -3.7291
  849MOL0     H14614   5.749   9.421   5.838  2.3717 -0.9386  0.7877
  849MOL0     H14615   5.793   9.648   5.785 -1.1429 -0.6852  1.0422
  850MOL0     O14616   1.447   2.250   8.025 -0.0511 -0.2034  0.1106
  850MOL0     C14617   1.562   2.212   8.043  0.5506 -0.1588  0.7182
  850MOL0     O14618   1.670   2.297   8.040 -0.1380 -0.0607  0.9243
  850MOL0     C14619   1.663   2.437   8.014 -0.1245  0.2959 -0.0390
  850MOL0     C14620   1.732   2.516   8.100 -0.0723 -0.0126 -0.8153
  850MOL0     C14621   1.738   2.650   8.075 -0.3914 -0.2150 -0.3019
  850MOL0     C14622   1.671   2.708   7.969 -0.1741 -0.3268  1.0232
  850MOL0     O14623   1.679   2.842   7.952  0.4663  0.2936 -0.3985
  850MOL0     C14624   1.727   2.884   7.821 -0.7066  0.2153  1.3615
  850MOL0     C14625   1.789   3.025   7.831  0.8758  0.4294 -1.1312
  850MOL0     C14626   1.825   3.093   7.704  0.1446 -0.1136  0.4730
  850MOL0     C14627   1.816   3.252   7.696 -0.5144  0.4971 -0.2841
  850MOL0     C14628   1.858   3.320   7.570  0.9388  0.4353 -0.3580
  850MOL0     C14629   2.011   3.330   7.544  0.1330  0.6259  0.3721
  850MOL0     C14630   2.039   3.277   7.402  0.3252 -0.7581  1.0591
  850MOL0     C14631   1.982   3.362   7.280  0.3226  0.6385  0.3735
  850MOL0     N14632   2.087   3.455   7.237 -0.5681 -0.0473 -0.1194
  850MOL0     C14633   2.141   3.464   7.111  0.3514 -0.0335 -0.1152
  850MOL0     C14634   2.196   3.588   7.099 -0.4240 -0.4004  0.7914
  850MOL0     C14635   2.266   3.648   6.982  0.3510  0.1182  0.0380
  850MOL0     C14636   2.164   3.663   6.869 -0.4561 -0.4870  0.0032
  850MOL0     C14637   2.237   3.668   6.731  0.2496  0.0375  0.2560
  850MOL0     C14638   2.330   3.788   6.716 -0.7083 -1.5825  0.9125
  850MOL0     O14639   2.458   3.777   6.781 -0.6506  0.1707 -0.9791
  850MOL0     C14640   2.521   3.904   6.774  0.2376  0.4071 -0.8669
  850MOL0     C14641   2.638   3.931   6.695 -0.1068 -1.2842  0.0692
  850MOL0     C14642   2.709   4.053   6.713  0.3191  0.5229 -0.0316
  850MOL0     C14643   2.845   4.059   6.653  0.2963  0.4737 -0.3054
  850MOL0     C14644   2.649   4.157   6.785  0.4078  0.5826  0.1677
  850MOL0     C14645   2.715   4.290   6.815 -0.3783 -0.0013  0.4958
  850MOL0     O14646   2.676   4.358   6.923 -0.4964 -0.2055  0.5213
  850MOL0     C14647   2.771   4.428   6.993  0.3874  0.4834 -0.7278
  850MOL0     C14648   2.895   4.374   7.022  0.1812  0.7714  0.3541
  850MOL0     C14649   3.000   4.448   7.074 -0.5561  0.8068 -0.2514
  850MOL0     C14650   2.971   4.583   7.109  0.8662  0.3904  0.4391
  850MOL0     O14651   3.067   4.674   7.145 -0.2920 -0.2442 -1.1765
  850MOL0     C14652   3.200   4.627   7.168 -0.7196  0.7682 -0.2448
  850MOL0     C14653   3.306   4.736   7.198  0.3550 -0.0192 -0.0994
  850MOL0     C14654   3.257   4.809   7.332 -0.0351  0.1194  0.6751
  850MOL0     C14655   3.275   4.728   7.468  0.4866 -0.1515  0.6057
  850MOL0     C14656   3.274   4.806   7.597 -0.4096 -1.2529  0.6555
  850MOL0     C14657   3.387   4.907   7.611  0.4274  0.6968  0.3156
  850MOL0     C14658   3.531   4.843   7.623  0.9448 -0.6815  0.6105
  850MOL0     C14659   3.625   4.955   7.680  0.1708  0.2625 -0.1751
  850MOL0    Cl14660   3.624   4.961   7.862 -0.1310  0.0528 -0.4036
  850MOL0     C14661   2.838   4.636   7.088 -0.4000 -0.0123  0.4959
  850MOL0     C14662   2.745   4.559   7.017  0.1239  0.4841  0.2282
  850MOL0     O14663   2.803   4.336   6.740  0.5350  0.2884  0.8107
  850MOL0     C14664   2.532   4.129   6.855  0.5388  0.5161  0.0708
  850MOL0     C14665   2.475   4.004   6.865 -1.8123  0.1272  0.1991
  850MOL0     N14666   2.176   3.656   7.220  0.1277 -0.2474  0.0238
  850MOL0     N14667   2.129   3.564   7.308 -0.3845 -0.3385  0.3524
  850MOL0     C14668   1.597   2.627   7.885  0.7792  0.8069  0.4772
  850MOL0     C14669   1.590   2.488   7.908 -0.1597  0.3652  0.0379
  850MOL0     C14670   1.569   2.067   8.061 -0.4722  0.3278 -0.8790
  850MOL0     C14671   1.674   2.007   8.141  0.8936 -0.8721  0.1742
  850MOL0     C14672   1.689   1.869   8.130  0.4008  0.1365  0.0995
  850MOL0     C14673   1.602   1.792   8.059 -0.3681 -1.7485  0.8104
  850MOL0     O14674   1.635   1.661   8.080  0.8654  0.1927  0.8336
  850MOL0     C14675   1.532   1.565   8.042  0.6506 -0.2425  0.4000
  850MOL0     C14676   1.580   1.448   8.113  0.2468  1.1547 -0.1600
  850MOL0     C14677   1.719   1.392   8.073  0.3328 -0.4583 -0.2687
  850MOL0     C14678   1.733   1.244   8.115  0.1189 -0.5175  0.1531
  850MOL0     C14679   1.865   1.190   8.093 -0.0516  0.2136 -0.4501
  850MOL0     C14680   1.969   1.129   8.080  1.1630  0.4051  0.5570
  850MOL0     C14681   1.493   1.854   7.983  0.7115 -0.0955 -0.4635
  850MOL0     C14682   1.487   1.988   7.986  0.3653 -0.2493 -0.8352
  850MOL0     H14683   1.784   2.464   8.180 -0.4832 -1.7666 -1.6317
  850MOL0     H14684   1.804   2.715   8.131 -0.4540 -1.9304  1.8897
  850MOL0     H14685   1.807   2.821   7.781  1.0631  2.4090  1.2536
  850MOL0     H14686   1.644   2.886   7.751  1.7438  4.4571 -1.9602
  850MOL0     H14687   1.721   3.094   7.883 -0.6462 -2.5282  1.0747
  850MOL0     H14688   1.877   3.028   7.895 -1.2843  0.1906  2.0811
  850MOL0     H14689   1.929   3.064   7.687 -1.1231 -3.5265 -2.8397
  850MOL0     H14690   1.757   3.054   7.628  2.3167  2.8906 -3.4018
  850MOL0     H14691   1.710   3.266   7.716 -0.6769  1.5383 -1.7223
  850MOL0     H14692   1.870   3.288   7.784 -2.9727 -1.1053  2.0256
  850MOL0     H14693   1.805   3.279   7.483 -3.2737  5.8554 -0.9011
  850MOL0     H14694   1.810   3.418   7.564 -1.9422 -0.8499 -0.1285
  850MOL0     H14695   2.052   3.427   7.572 -1.3804  0.8816  1.8916
  850MOL0     H14696   2.056   3.258   7.613  2.0823  0.4461 -1.0234
  850MOL0     H14697   2.148   3.273   7.387  0.1373 -1.1897 -0.2958
  850MOL0     H14698   2.009   3.172   7.389 -0.7485 -0.1550 -2.3948
  850MOL0     H14699   1.888   3.412   7.308 -0.8353 -0.0470 -2.0117
  850MOL0     H14700   1.959   3.297   7.195  1.1366 -0.9948  1.3680
  850MOL0     H14701   2.144   3.391   7.031 -3.5416 -2.6007  1.7417
  850MOL0     H14702   2.295   3.750   7.011 -3.4753  1.5178 -0.4800
  850MOL0     H14703   2.348   3.578   6.960  1.6892  0.6173  2.8540
  850MOL0     H14704   2.089   3.742   6.874 -0.6642 -0.5584 -1.6165
  850MOL0     H14705   2.100   3.578   6.846  1.8681 -1.4337 -3.8496
  850MOL0     H14706   2.150   3.676   6.665  1.4108 -2.7149 -1.7634
  850MOL0     H14707   2.280   3.570   6.706 -1.3954 -1.1648  1.8353
  850MOL0     H14708   2.279   3.880   6.747  1.1993  1.7896 -4.6295
  850MOL0     H14709   2.346   3.812   6.611  0.9935  0.1076  1.5159
  850MOL0     H14710   2.684   3.858   6.629  3.1222  2.2026 -1.8855
  850MOL0     H14711   2.855   3.991   6.568  2.7527  3.3055 -2.4506
  850MOL0     H14712   2.889   4.150   6.612  2.3821 -0.0299  0.7225
  850MOL0     H14713   2.914   4.011   6.722 -1.7102 -4.5493 -1.2903
  850MOL0     H14714   2.911   4.283   6.964 -2.7686  2.2016 -3.0779
  850MOL0     H14715   3.098   4.405   7.094  0.1641  0.9100 -3.0784
  850MOL0     H14716   3.189   4.557   7.251 -1.2313  0.5518 -0.4932
  850MOL0     H14717   3.235   4.576   7.078  0.5375  3.3748 -1.3351
  850MOL0     H14718   3.407   4.694   7.194  0.4282  0.2430 -1.6445
  850MOL0     H14719   3.309   4.812   7.120  0.1073  1.4935  1.3224
  850MOL0     H14720   3.154   4.843   7.315 -0.2262 -0.4379  0.7026
  850MOL0     H14721   3.303   4.908   7.340 -1.9184  1.1200 -0.2237
  850MOL0     H14722   3.187   4.663   7.466  0.0820  0.4043 -0.6675
  850MOL0     H14723   3.358   4.657   7.462 -0.4400 -1.1722 -0.5672
  850MOL0     H14724   3.291   4.739   7.682  0.2571  0.5488  2.0252
  850MOL0     H14725   3.180   4.850   7.632  0.4514 -0.4047  2.0427
  850MOL0     H14726   3.384   4.985   7.535  0.4028  1.4107  1.0344
  850MOL0     H14727   3.362   4.949   7.709 -1.6488 -3.3997  1.7981
  850MOL0     H14728   3.566   4.821   7.522 -2.5376 -1.0515 -0.6796
  850MOL0     H14729   3.526   4.750   7.681 -0.2455 -0.8736  0.2454
  850MOL0     H14730   3.610   5.059   7.652 -1.0009  0.3576  0.7578
  850MOL0     H14731   3.731   4.928   7.673 -0.4254 -2.4843 -0.0203
  850MOL0     H14732   2.812   4.741   7.102  0.5023  0.2247  0.4186
  850MOL0     H14733   2.641   4.587   7.001 -1.2987 -3.1992  1.8018
  850MOL0     H14734   2.481   4.195   6.924 -0.1088  0.6758 -0.5505
  850MOL0     H14735   2.415   3.984   6.953  0.5091 -1.4861  1.5310
  850MOL0     H14736   1.546   2.679   7.804 -3.3413  3.5626  4.3534
  850MOL0     H14737   1.548   2.425   7.829  1.9344 -2.5930  1.1162
  850MOL0     H14738   1.742   2.068   8.200 -2.7548  1.2725  2.5460
  850MOL0     H14739   1.753   1.813   8.197  2.3228 -2.4259 -3.5157
  850MOL0     H14740   1.433   1.589   8.083 -0.4265  0.8512 -2.5434
  850MOL0     H14741   1.518   1.556   7.933  0.2060 -2.2245  0.5882
  850MOL0     H14742   1.503   1.371   8.110 -0.2990  1.5665  1.7771
  850MOL0     H14743   1.580   1.471   8.220 -1.3265  1.3854 -0.1859
  850MOL0     H14744   1.801   1.457   8.104  1.1457 -0.7827 -1.6093
  850MOL0     H14745   1.727   1.390   7.963  2.0550 -1.6597 -0.1585
  850MOL0     H14746   1.666   1.180   8.057  5.4532 -2.6180 -4.7375
  850MOL0     H14747   1.699   1.248   8.219 -2.5746  2.6612 -0.6626
  850MOL0     H14748   2.059   1.070   8.082  0.8774 -0.1138 -0.8591
  850MOL0     H14749   1.425   1.798   7.920  0.9657 -0.3040 -0.5553
  850MOL0     H14750   1.411   2.025   7.918  0.7848  0.8979 -0.7127
  851MOL0     O14751  11.245   4.766   9.748  0.1816  0.6470 -0.1844
  851MOL0     C14752  11.268   4.820   9.857 -0.1641  0.3646  0.3397
  851MOL0     O14753  11.368   4.918   9.880 -0.4429 -0.4054 -0.4948
  851MOL0     C14754  11.438   4.944   9.772 -1.6550  0.1200  0.8463
  851MOL0     C14755  11.421   5.063   9.708  1.3845 -0.8223  0.7367
  851MOL0     C14756  11.479   5.083   9.588 -0.0403  0.0344  0.1358
  851MOL0     C14757  11.570   4.999   9.536  0.2960  0.3890 -0.2093
  851MOL0     O14758  11.620   5.032   9.415 -1.0299 -0.6126 -1.0089
  851MOL0     C14759  11.767   4.999   9.394 -0.2555 -0.2946 -0.5410
  851MOL0     C14760  11.793   5.040   9.254  0.0708 -1.0009  0.3789
  851MOL0     C14761  11.752   5.195   9.235  0.4235 -0.7837  0.7134
  851MOL0     C14762  11.764   5.244   9.083  0.7694  0.7426 -0.1532
  851MOL0     C14763  11.915   5.266   9.051  0.6120 -0.3153  0.1166
  851MOL0     C14764  11.971   5.398   9.109  0.0428 -0.6200 -0.8796
  851MOL0     C14765  12.109   5.445   9.050  0.2790  0.1887  0.5804
  851MOL0     C14766  12.094   5.540   8.926 -0.3520  0.8485  0.3933
  851MOL0     N14767  12.050   5.460   8.813 -0.2462  0.6767  0.3874
  851MOL0     C14768  12.110   5.350   8.771  0.0541  0.9956  0.2006
  851MOL0     C14769  12.019   5.275   8.700  0.0665 -1.1255 -0.2372
  851MOL0     C14770  12.033   5.142   8.641  0.2629  0.3838 -0.8409
  851MOL0     C14771  11.905   5.094   8.569 -0.3993 -1.4440  0.7859
  851MOL0     C14772  11.821   5.007   8.661 -0.8293  0.1432  0.0051
  851MOL0     C14773  11.710   4.936   8.571 -0.8096  0.4364 -0.2697
  851MOL0     O14774  11.631   4.857   8.656  0.2482  0.1182 -0.4592
  851MOL0     C14775  11.680   4.725   8.676  1.2651 -0.3009  0.1899
  851MOL0     C14776  11.594   4.634   8.735 -0.6891 -0.1328  0.2151
  851MOL0     C14777  11.639   4.502   8.766 -1.2210  0.9578  0.4242
  851MOL0     C14778  11.545   4.405   8.834  0.9272 -0.9494  0.4674
  851MOL0     C14779  11.772   4.460   8.747 -0.7193 -1.0409  0.6725
  851MOL0     C14780  11.829   4.329   8.806 -0.4674 -0.1019  0.3308
  851MOL0     O14781  11.933   4.274   8.737 -0.2155 -0.4899  0.5727
  851MOL0     C14782  11.977   4.150   8.762 -0.2916 -1.1094 -0.7258
  851MOL0     C14783  12.111   4.128   8.773  0.2419  0.0238 -0.3468
  851MOL0     C14784  12.160   4.007   8.760 -0.6896  0.9246 -0.6230
  851MOL0     C14785  12.076   3.893   8.745 -0.4521  1.4207 -1.2412
  851MOL0     O14786  12.137   3.767   8.758  1.1653  0.7962 -0.3115
  851MOL0     C14787  12.079   3.663   8.688 -0.2702 -0.1474  0.2093
  851MOL0     C14788  11.992   3.569   8.777  1.2043 -0.1452  0.1724
  851MOL0     C14789  12.073   3.515   8.902 -0.0409 -0.8026  0.4191
  851MOL0     C14790  11.981   3.456   9.016 -0.0317 -0.2797 -0.6528
  851MOL0     C14791  12.063   3.427   9.152 -0.3661  0.3213  0.5866
  851MOL0     C14792  11.967   3.398   9.266  0.4330  0.1936  0.2307
  851MOL0     C14793  11.878   3.274   9.249 -0.1493  0.8815  0.2665
  851MOL0     C14794  11.963   3.149   9.221  0.3754 -0.5597  0.2822
  851MOL0    Cl14795  12.075   3.138   9.347 -0.2817  0.5383  0.1403
  851MOL0     C14796  11.938   3.914   8.739  0.3479 -0.5194  0.3830
  851MOL0     C14797  11.888   4.048   8.738 -0.8195  0.7851  0.0718
  851MOL0     O14798  11.781   4.278   8.909  0.3855  1.5829 -0.1246
  851MOL0     C14799  11.853   4.552   8.685 -0.0783  0.9823  0.4249
  851MOL0     C14800  11.809   4.680   8.650  0.5472 -0.5722 -0.6736
  851MOL0     N14801  11.913   5.352   8.691 -0.4661 -0.7918  0.4536
  851MOL0     N14802  11.921   5.454   8.770 -0.7878 -0.0608  0.1198
  851MOL0     C14803  11.601   4.876   9.603 -0.1429 -0.0296 -0.6337
  851MOL0     C14804  11.534   4.857   9.720 -0.4669 -0.1162  0.2452
  851MOL0     C14805  11.201   4.764   9.972 -1.1685  0.0280  0.4039
  851MOL0     C14806  11.254   4.799  10.100 -0.5127  0.5343  0.2246
  851MOL0     C14807  11.197   4.728  10.218  1.4142  0.0134 -0.1756
  851MOL0     C14808  11.076   4.655  10.208  0.7723  0.2627 -0.2034
  851MOL0     O14809  11.025   4.605  10.328  0.4370 -0.1109 -0.5039
  851MOL0     C14810  10.916   4.513  10.322 -0.3898  0.5195 -0.0119
  851MOL0     C14811  10.879   4.452  10.461  0.7273  0.6116  0.3419
  851MOL0     C14812  10.808   4.316  10.461 -0.6777 -0.3550 -0.1369
  851MOL0     C14813  10.678   4.314  10.393 -0.2199 -0.2012 -0.3328
  851MOL0     C14814  10.690   4.262  10.257  0.4319  0.9339 -0.1960
  851MOL0     C14815  10.694   4.225  10.140 -0.1965 -0.0481  0.5553
  851MOL0     C14816  11.025   4.636  10.079 -0.0159 -0.2287 -0.2499
  851MOL0     C14817  11.084   4.687   9.964 -0.6493 -0.1224  0.5525
  851MOL0     H14818  11.368   5.145   9.756  0.0652 -0.1711 -1.6610
  851MOL0     H14819  11.447   5.170   9.531 -1.3330  1.1648  2.4449
  851MOL0     H14820  11.831   5.054   9.463  1.7835 -0.9561 -1.8244
  851MOL0     H14821  11.782   4.890   9.395  1.7224 -0.0496  0.4629
  851MOL0     H14822  11.899   5.031   9.230  0.6189 -0.8105  2.5002
  851MOL0     H14823  11.745   4.974   9.180 -2.6543 -0.5115  1.5897
  851MOL0     H14824  11.646   5.206   9.261  0.1379  1.6743 -1.1714
  851MOL0     H14825  11.805   5.261   9.304  2.1421  0.0362 -1.3086
  851MOL0     H14826  11.709   5.183   9.010 -1.4498  0.0669  1.9380
  851MOL0     H14827  11.719   5.343   9.075 -1.5514 -0.3415 -1.7877
  851MOL0     H14828  11.980   5.181   9.077 -0.3696 -1.6959 -1.7074
  851MOL0     H14829  11.931   5.264   8.943  1.9388 -0.4111  0.3061
  851MOL0     H14830  11.898   5.479   9.098  1.3586  0.6856 -0.3608
  851MOL0     H14831  12.000   5.377   9.213  0.7723 -0.4232 -1.0370
  851MOL0     H14832  12.158   5.497   9.133 -1.8237  2.6597  0.3899
  851MOL0     H14833  12.179   5.363   9.031 -2.0591 -1.5631 -1.0113
  851MOL0     H14834  12.193   5.581   8.904 -0.3747 -1.0230 -4.0597
  851MOL0     H14835  12.025   5.623   8.946 -1.9718 -0.8764  2.4625
  851MOL0     H14836  12.212   5.319   8.790 -0.4658  0.3350  2.1934
  851MOL0     H14837  12.124   5.141   8.581  0.0651 -0.1462 -1.1382
  851MOL0     H14838  12.054   5.078   8.728 -3.7798  0.5592  0.4624
  851MOL0     H14839  11.949   5.038   8.486  1.9810  0.5068  0.6072
  851MOL0     H14840  11.842   5.172   8.525  1.4721 -0.5291 -0.4462
  851MOL0     H14841  11.784   5.069   8.743 -1.3127 -1.6864  1.2208
  851MOL0     H14842  11.898   4.942   8.703 -0.0264  3.2132  3.8388
  851MOL0     H14843  11.763   4.871   8.499 -1.3529 -1.0074  0.5917
  851MOL0     H14844  11.644   5.011   8.527  1.5233  2.6673 -0.1436
  851MOL0     H14845  11.496   4.674   8.758 -0.3003  0.8605  0.2117
  851MOL0     H14846  11.532   4.306   8.789 -3.6035  0.3809 -1.8684
  851MOL0     H14847  11.557   4.396   8.942  2.3427 -2.5752  0.2050
  851MOL0     H14848  11.445   4.447   8.818  1.6571  0.4377 -0.6876
  851MOL0     H14849  12.179   4.212   8.790  0.5611 -0.0388 -1.2577
  851MOL0     H14850  12.266   3.989   8.772 -0.9038  0.3420  0.5989
  851MOL0     H14851  12.016   3.695   8.605  1.4323 -0.0768 -1.0938
  851MOL0     H14852  12.165   3.607   8.651 -0.7036 -0.1831 -0.7693
  851MOL0     H14853  11.906   3.625   8.815  2.8241  2.5809  0.0869
  851MOL0     H14854  11.957   3.482   8.722 -1.6320  0.4981  0.7941
  851MOL0     H14855  12.125   3.604   8.938 -1.1007  0.7234 -1.6463
  851MOL0     H14856  12.149   3.443   8.870 -2.6149 -2.3476 -2.8535
  851MOL0     H14857  11.909   3.536   9.036 -0.3997 -0.0278 -2.7630
  851MOL0     H14858  11.950   3.357   8.980  3.2523 -1.7873  0.3043
  851MOL0     H14859  12.130   3.511   9.175  0.6578 -0.5896  1.0327
  851MOL0     H14860  12.131   3.342   9.143 -1.7117 -0.6045 -1.4380
  851MOL0     H14861  12.026   3.372   9.354 -0.2380  1.1424  0.9833
  851MOL0     H14862  11.914   3.492   9.286  2.5781  1.2780  1.0918
  851MOL0     H14863  11.810   3.297   9.167  0.2747 -2.4590 -1.1775
  851MOL0     H14864  11.811   3.263   9.335 -2.4340  0.0263 -1.5271
  851MOL0     H14865  12.016   3.158   9.126  0.4121  3.5571  0.5097
  851MOL0     H14866  11.903   3.057   9.221  0.3220 -0.6395  3.7836
  851MOL0     H14867  11.859   3.840   8.724  1.1184 -1.2182 -0.3166
  851MOL0     H14868  11.782   4.056   8.718 -1.1113 -1.4915  0.4356
  851MOL0     H14869  11.956   4.522   8.667 -0.2661 -0.9046  2.2192
  851MOL0     H14870  11.887   4.750   8.623 -0.1613  0.2082 -0.7239
  851MOL0     H14871  11.683   4.817   9.562  0.2841 -1.0573  1.5869
  851MOL0     H14872  11.568   4.771   9.778  2.5105  1.1916  0.6587
  851MOL0     H14873  11.343   4.857  10.122  1.1983 -1.1196 -1.8518
  851MOL0     H14874  11.250   4.733  10.313  0.0667  1.2354  0.5382
  851MOL0     H14875  10.824   4.551  10.274  0.3758 -0.1423 -2.1281
  851MOL0     H14876  10.947   4.434  10.253  1.6252 -0.1319  1.5812
  851MOL0     H14877  10.819   4.522  10.520 -0.9062  1.1565 -1.8556
  851MOL0     H14878  10.966   4.440  10.527 -0.0915  0.6103  1.4494
  851MOL0     H14879  10.784   4.294  10.566  1.0091 -1.8880 -0.0225
  851MOL0     H14880  10.883   4.247  10.420 -0.2378  0.7697 -1.3023
  851MOL0     H14881  10.624   4.410  10.392 -2.1593 -1.2326  0.4898
  851MOL0     H14882  10.607   4.257  10.453 -0.9908  0.7874 -0.2759
  851MOL0     H14883  10.710   4.195  10.039  2.0220  0.2457  0.7646
  851MOL0     H14884  10.928   4.594  10.055 -0.7129  2.2968 -2.3260
  851MOL0     H14885  11.057   4.669   9.860 -1.4605  0.8492  0.5823
  852MOL0     O14886   6.351   6.341   7.744  0.5705  0.4683 -0.7021
  852MOL0     C14887   6.455   6.278   7.752 -0.6014  0.3464  0.2984
  852MOL0     O14888   6.468   6.145   7.746 -0.7199 -0.4803 -0.3735
  852MOL0     C14889   6.384   6.089   7.645 -0.0041  0.4837 -0.4260
  852MOL0     C14890   6.266   6.020   7.681 -0.7692  0.1912  0.8087
  852MOL0     C14891   6.185   5.962   7.588 -0.6880 -0.1311  0.8249
  852MOL0     C14892   6.227   5.975   7.458  0.2764  0.2150 -0.3453
  852MOL0     O14893   6.134   5.938   7.368  0.0408  0.7050 -0.0195
  852MOL0     C14894   6.118   6.037   7.265  0.3578 -0.3009  0.8561
  852MOL0     C14895   5.966   6.062   7.226 -0.6271 -0.4136 -0.7353
  852MOL0     C14896   5.948   6.137   7.101  0.8319  0.1419  0.4113
  852MOL0     C14897   5.949   6.054   6.963 -0.1588  0.1432  0.4298
  852MOL0     C14898   6.067   5.967   6.931  0.0872 -0.3355 -0.4438
  852MOL0     C14899   6.042   5.878   6.808  0.2090  0.6194 -0.3522
  852MOL0     C14900   6.152   5.776   6.792 -0.9645 -1.1679 -0.9745
  852MOL0     C14901   6.100   5.676   6.687  0.2016  0.0474 -0.1132
  852MOL0     N14902   6.110   5.725   6.547 -0.3601  0.1468 -0.2382
  852MOL0     C14903   6.216   5.721   6.458 -0.2660 -0.2322  0.3121
  852MOL0     C14904   6.177   5.808   6.358  0.8055  0.0226 -0.3026
  852MOL0     C14905   6.257   5.868   6.236 -0.3111  0.0536 -1.1975
  852MOL0     C14906   6.260   5.778   6.115 -0.4043 -0.2060  1.0714
  852MOL0     C14907   6.318   5.836   5.977  0.8905  0.4942 -1.2788
  852MOL0     C14908   6.341   5.735   5.865  0.0165  0.8796 -0.1368
  852MOL0     O14909   6.432   5.636   5.917  0.7066 -0.1822 -0.0837
  852MOL0     C14910   6.476   5.547   5.821  0.5744 -0.6200 -0.7767
  852MOL0     C14911   6.449   5.550   5.690  0.1585 -0.2703 -0.3559
  852MOL0     C14912   6.488   5.456   5.597  0.5451  0.1678 -0.2670
  852MOL0     C14913   6.471   5.501   5.452 -0.2041  0.5946  0.8465
  852MOL0     C14914   6.571   5.347   5.643  0.6120 -0.7132 -0.4754
  852MOL0     C14915   6.630   5.260   5.548  1.1040  0.5713  0.2792
  852MOL0     O14916   6.588   5.132   5.575  0.5423 -0.2725 -0.2440
  852MOL0     C14917   6.633   5.017   5.517 -0.6123 -0.1675 -0.1772
  852MOL0     C14918   6.529   4.923   5.473 -0.4989 -0.2721  0.4138
  852MOL0     C14919   6.563   4.800   5.412 -1.1739 -1.0260 -0.7176
  852MOL0     C14920   6.695   4.788   5.361  0.5189 -0.7073 -0.1519
  852MOL0     O14921   6.723   4.673   5.300  0.3669  0.5419 -0.1696
  852MOL0     C14922   6.844   4.658   5.225  0.7660 -0.7099  0.4405
  852MOL0     C14923   6.966   4.604   5.295 -0.0582 -0.2517  0.6012
  852MOL0     C14924   7.052   4.540   5.182 -0.3473 -0.2033  0.5005
  852MOL0     C14925   7.136   4.426   5.222 -0.3179  0.7892 -0.4558
  852MOL0     C14926   7.224   4.374   5.106  0.1014  0.1870 -0.1999
  852MOL0     C14927   7.331   4.283   5.165  0.1961  1.3936  0.3488
  852MOL0     C14928   7.394   4.186   5.062  0.2021  1.1744 -0.3040
  852MOL0     C14929   7.502   4.089   5.108 -0.1113  0.8157  0.2376
  852MOL0    Cl14930   7.636   4.180   5.186  0.2178  0.2508  0.2616
  852MOL0     C14931   6.787   4.888   5.381 -0.7651 -0.2723  0.0456
  852MOL0     C14932   6.758   5.003   5.462  0.6404  0.3236  0.2959
  852MOL0     O14933   6.705   5.294   5.458 -0.4384 -0.6765  0.1612
  852MOL0     C14934   6.592   5.334   5.785  0.5992  0.5870  0.0538
  852MOL0     C14935   6.550   5.442   5.870  0.3821  0.4478 -0.2684
  852MOL0     N14936   6.054   5.858   6.388  1.0071 -0.4580 -0.2561
  852MOL0     N14937   6.010   5.800   6.498  0.9485 -0.1748  0.1127
  852MOL0     C14938   6.345   6.024   7.420  0.4738 -0.7389 -0.2149
  852MOL0     C14939   6.431   6.084   7.513  0.7094 -0.8790 -0.3084
  852MOL0     C14940   6.575   6.360   7.780 -0.2711  0.3069  0.6984
  852MOL0     C14941   6.707   6.301   7.754  0.2981 -0.1524  0.2821
  852MOL0     C14942   6.821   6.373   7.791 -0.7341 -1.0624 -0.8775
  852MOL0     C14943   6.808   6.507   7.816 -0.5361 -0.0236 -0.1117
  852MOL0     O14944   6.930   6.573   7.834  0.2346 -0.2548 -0.7022
  852MOL0     C14945   6.924   6.720   7.836  0.9616 -0.3292 -0.2986
  852MOL0     C14946   7.061   6.796   7.832  0.9713 -0.2574 -0.4321
  852MOL0     C14947   7.100   6.840   7.689  0.6740  0.1811  0.0324
  852MOL0     C14948   7.250   6.867   7.693 -0.5572 -0.4303  0.0447
  852MOL0     C14949   7.338   6.744   7.682  0.4957  0.3287  0.1517
  852MOL0     C14950   7.406   6.638   7.679 -1.2217 -1.1928  0.3678
  852MOL0     C14951   6.685   6.565   7.822 -0.0929  0.0640 -0.0962
  852MOL0     C14952   6.566   6.496   7.799 -0.1374  0.1479  0.7273
  852MOL0     H14953   6.239   5.995   7.783 -0.8903 -1.9098  0.2898
  852MOL0     H14954   6.096   5.904   7.611 -0.3367  0.2965  3.5948
  852MOL0     H14955   6.146   6.139   7.296  1.0887 -0.7505  1.7205
  852MOL0     H14956   6.169   6.000   7.176  1.6815 -3.2920  2.6887
  852MOL0     H14957   5.917   5.968   7.201  1.6037 -1.5032 -1.2731
  852MOL0     H14958   5.922   6.113   7.313  2.4463  1.8037 -0.3130
  852MOL0     H14959   5.865   6.208   7.107 -1.3592 -1.8288 -2.9629
  852MOL0     H14960   6.032   6.207   7.091  0.9683 -0.3562 -3.7846
  852MOL0     H14961   5.865   5.985   6.974  0.3528 -0.1222  3.5082
  852MOL0     H14962   5.925   6.133   6.891  0.8799  0.2376  0.1662
  852MOL0     H14963   6.163   6.020   6.923  0.0598 -0.4721 -1.9373
  852MOL0     H14964   6.076   5.902   7.019  1.7930  0.1843 -0.2035
  852MOL0     H14965   5.941   5.839   6.818  0.3030  0.9203  2.5208
  852MOL0     H14966   6.052   5.943   6.721  1.9091  1.5706  0.4958
  852MOL0     H14967   6.244   5.818   6.752 -1.3533  0.6627 -0.0457
  852MOL0     H14968   6.170   5.734   6.892 -2.0059  0.7661  0.1023
  852MOL0     H14969   5.996   5.653   6.711  1.0407 -1.6879  2.2816
  852MOL0     H14970   6.144   5.576   6.700 -2.5014 -1.8309 -3.5802
  852MOL0     H14971   6.312   5.671   6.465 -0.8655 -1.3849  0.3564
  852MOL0     H14972   6.207   5.959   6.200 -1.2184 -0.7292 -1.9682
  852MOL0     H14973   6.359   5.877   6.273 -0.6623 -2.3305  0.5706
  852MOL0     H14974   6.162   5.733   6.096  1.1101 -3.0206 -0.8741
  852MOL0     H14975   6.314   5.684   6.133 -1.5085 -1.1296 -0.2407
  852MOL0     H14976   6.413   5.884   6.003 -0.0569  1.7808 -0.0858
  852MOL0     H14977   6.256   5.920   5.943 -0.2684 -0.0471 -0.5561
  852MOL0     H14978   6.388   5.781   5.777  2.0872 -0.7885  0.0201
  852MOL0     H14979   6.244   5.687   5.850  1.9087 -3.3003 -0.3219
  852MOL0     H14980   6.395   5.638   5.655 -0.1741  0.3818  1.6672
  852MOL0     H14981   6.535   5.461   5.373  0.7142 -0.5911  2.1458
  852MOL0     H14982   6.368   5.468   5.437  0.0745  0.4599 -1.0191
  852MOL0     H14983   6.465   5.610   5.437 -1.7757  0.2390 -1.7841
  852MOL0     H14984   6.424   4.931   5.500 -1.1430  1.5473 -2.1806
  852MOL0     H14985   6.491   4.721   5.393  1.5054 -4.4718  2.0881
  852MOL0     H14986   6.809   4.583   5.154 -3.0767  0.1666  1.1774
  852MOL0     H14987   6.867   4.748   5.167 -0.5502 -1.7196 -1.7818
  852MOL0     H14988   7.011   4.689   5.347  0.0784 -0.3873  0.7015
  852MOL0     H14989   6.941   4.528   5.369 -2.3264 -0.3152 -0.1369
  852MOL0     H14990   7.108   4.623   5.137 -4.2058  1.3179 -1.9433
  852MOL0     H14991   6.998   4.500   5.095  0.9525 -1.8154  0.3706
  852MOL0     H14992   7.199   4.461   5.305 -0.8803  1.0933 -0.1494
  852MOL0     H14993   7.066   4.349   5.256  0.5644  0.3927  0.5626
  852MOL0     H14994   7.263   4.451   5.038 -1.7618 -0.4707 -2.1115
  852MOL0     H14995   7.145   4.321   5.053  1.2485 -1.4543 -0.3439
  852MOL0     H14996   7.408   4.348   5.207  0.2917  1.8508 -0.5035
  852MOL0     H14997   7.299   4.211   5.241  2.2706 -2.2885 -1.9894
  852MOL0     H14998   7.439   4.240   4.978  1.1798 -4.6242 -4.0499
  852MOL0     H14999   7.309   4.133   5.019  0.9881 -0.0737 -0.3532
  852MOL0     H15000   7.535   4.024   5.026 -1.3073 -1.2651  1.3141
  852MOL0     H15001   7.453   4.014   5.170 -1.6236  1.3832 -0.2266
  852MOL0     H15002   6.886   4.876   5.340 -1.2632 -0.9471 -1.0008
  852MOL0     H15003   6.830   5.084   5.472 -2.2380  3.8285 -3.7331
  852MOL0     H15004   6.648   5.250   5.826  0.0794 -0.4034 -1.1977
  852MOL0     H15005   6.588   5.447   5.972  0.3697 -1.3128 -0.1417
  852MOL0     H15006   6.374   6.034   7.316  1.1441  0.0428  0.0386
  852MOL0     H15007   6.518   6.144   7.487  0.7222 -0.6160  0.3186
  852MOL0     H15008   6.710   6.196   7.731 -1.4332 -0.6028  1.8721
  852MOL0     H15009   6.922   6.334   7.797 -0.3108  0.0184 -0.7073
  852MOL0     H15010   6.859   6.748   7.753  2.1886 -0.7630 -1.4386
  852MOL0     H15011   6.871   6.739   7.930  1.8032  0.4150  0.0439
  852MOL0     H15012   7.133   6.727   7.875 -0.1078 -2.7042 -2.3320
  852MOL0     H15013   7.046   6.883   7.896 -2.9145 -0.2510 -1.1231
  852MOL0     H15014   7.052   6.933   7.656  3.3673  2.7553  2.7345
  852MOL0     H15015   7.089   6.764   7.611  0.1910 -1.1190  1.3047
  852MOL0     H15016   7.275   6.930   7.779  2.5151 -0.7941 -0.4900
  852MOL0     H15017   7.267   6.937   7.611  1.1984 -0.4584  0.3524
  852MOL0     H15018   7.459   6.549   7.654  1.1995  0.0641  0.7873
  852MOL0     H15019   6.677   6.666   7.859 -0.5462  0.0789 -0.2303
  852MOL0     H15020   6.475   6.553   7.812  0.2546  1.4746 -1.8268
  853MOL0     O15021   6.690   3.199  10.616  0.3095  0.7023  1.4206
  853MOL0     C15022   6.642   3.297  10.563 -0.0112  0.3275  0.9014
  853MOL0     O15023   6.677   3.356  10.432 -0.1951  0.1040 -0.1999
  853MOL0     C15024   6.748   3.287  10.336  0.1372 -0.1853  0.2250
  853MOL0     C15025   6.804   3.354  10.231 -0.3010 -1.0734 -0.6777
  853MOL0     C15026   6.873   3.297  10.121 -0.4603  0.9939 -0.7632
  853MOL0     C15027   6.887   3.160  10.121 -0.2440 -0.6878  0.2866
  853MOL0     O15028   6.938   3.088  10.022 -0.1445 -0.1685 -0.6210
  853MOL0     C15029   7.088   3.066  10.028  0.3655  0.8826 -0.1085
  853MOL0     C15030   7.110   2.941   9.939  0.4745 -0.5266 -0.0331
  853MOL0     C15031   7.106   2.986   9.790  0.2684  0.7573 -0.8723
  853MOL0     C15032   7.139   2.865   9.700  0.4907 -0.3672  0.7638
  853MOL0     C15033   7.073   2.875   9.561  0.5664  0.6124 -0.4510
  853MOL0     C15034   7.135   2.778   9.458 -1.0411 -0.2295  0.0304
  853MOL0     C15035   7.062   2.814   9.326 -0.1965 -0.2560  0.5394
  853MOL0     C15036   7.098   2.721   9.218 -1.2615 -0.1190  0.0065
  853MOL0     N15037   7.027   2.766   9.098  0.1859 -0.3545 -0.0724
  853MOL0     C15038   7.058   2.887   9.027  0.1323  0.3570 -0.2226
  853MOL0     C15039   6.991   2.881   8.907  0.8917  0.9695 -0.6982
  853MOL0     C15040   6.989   2.966   8.788  0.6138 -0.4742  0.3908
  853MOL0     C15041   6.964   3.112   8.809 -0.0655  0.5643  0.4387
  853MOL0     C15042   6.950   3.181   8.672 -0.0600 -0.2564  1.1137
  853MOL0     C15043   6.865   3.311   8.678 -0.9129 -0.2847  0.9609
  853MOL0     O15044   6.861   3.361   8.548 -0.6386 -0.6068  0.1401
  853MOL0     C15045   6.792   3.482   8.542  0.0410 -0.1128  0.1406
  853MOL0     C15046   6.860   3.593   8.487  0.7741  0.0179 -0.4680
  853MOL0     C15047   6.789   3.717   8.458  0.9612 -0.1891 -0.7635
  853MOL0     C15048   6.868   3.823   8.396  0.3566 -0.1810  0.2072
  853MOL0     C15049   6.654   3.722   8.491  0.4880 -0.7086 -0.2237
  853MOL0     C15050   6.571   3.841   8.458  0.7312  0.5703  0.2208
  853MOL0     O15051   6.430   3.820   8.476 -0.2025  0.9131 -0.4302
  853MOL0     C15052   6.333   3.923   8.477  0.5510 -0.0928 -1.0454
  853MOL0     C15053   6.357   4.054   8.525  0.8172  0.8024 -0.5950
  853MOL0     C15054   6.252   4.151   8.521  0.1105 -0.3200  0.5985
  853MOL0     C15055   6.129   4.113   8.465 -0.9287  0.3044 -0.4156
  853MOL0     O15056   6.042   4.222   8.463  0.3620 -0.6428 -0.7436
  853MOL0     C15057   5.938   4.213   8.367 -0.2417  0.4099 -0.0359
  853MOL0     C15058   6.011   4.220   8.233  0.4915  0.4888 -0.0810
  853MOL0     C15059   5.908   4.285   8.126 -0.6896 -0.5087  0.7865
  853MOL0     C15060   5.921   4.440   8.114  0.2496  0.6113 -0.8004
  853MOL0     C15061   5.796   4.501   8.050 -0.6193  0.1492 -0.2056
  853MOL0     C15062   5.708   4.568   8.157  0.4573  0.0977  0.8033
  853MOL0     C15063   5.582   4.624   8.085  0.4172 -0.3025 -0.5518
  853MOL0     C15064   5.522   4.740   8.160 -0.8964  0.7966 -0.4796
  853MOL0    Cl15065   5.456   4.685   8.325  0.2946  0.3472  0.0272
  853MOL0     C15066   6.108   3.981   8.422  0.5632  0.3969 -0.8797
  853MOL0     C15067   6.205   3.884   8.436 -0.3100 -0.2885 -0.6060
  853MOL0     O15068   6.619   3.942   8.413  0.6887 -0.2722 -0.2031
  853MOL0     C15069   6.589   3.621   8.570  0.6500  0.2656 -0.1178
  853MOL0     C15070   6.654   3.496   8.587 -0.6288 -0.1513 -0.1503
  853MOL0     N15071   6.906   2.769   8.921  0.1338  0.4064 -0.7854
  853MOL0     N15072   6.930   2.706   9.034  0.2894 -0.0630  0.0058
  853MOL0     C15073   6.825   3.085  10.224 -0.0526 -0.5871  0.6699
  853MOL0     C15074   6.747   3.144  10.325  0.2123  0.0455 -0.2927
  853MOL0     C15075   6.521   3.347  10.628  0.4404  0.6938  0.0758
  853MOL0     C15076   6.479   3.321  10.756 -0.3619  0.5271 -0.0534
  853MOL0     C15077   6.354   3.373  10.812 -1.1448  0.9329  0.1593
  853MOL0     C15078   6.271   3.434  10.725 -0.9670  0.0106  0.5974
  853MOL0     O15079   6.142   3.465  10.772 -0.7826  0.2922  0.6941
  853MOL0     C15080   6.111   3.603  10.773 -0.6574  0.5693  0.1891
  853MOL0     C15081   6.210   3.683  10.867  0.4110  0.1086 -0.4633
  853MOL0     C15082   6.136   3.814  10.921 -0.5464  0.6125  0.0954
  853MOL0     C15083   6.224   3.901  11.011 -0.1193 -0.3379  0.2956
  853MOL0     C15084   6.285   3.843  11.132  0.5100  0.6134  0.0162
  853MOL0     C15085   6.332   3.806  11.236 -0.1711  0.9776  0.7437
  853MOL0     C15086   6.306   3.457  10.590 -0.2504 -0.3207 -0.2781
  853MOL0     C15087   6.425   3.421  10.543 -0.9970  0.0315 -0.1351
  853MOL0     H15088   6.795   3.462  10.241  0.9257 -0.8487 -1.6324
  853MOL0     H15089   6.923   3.355  10.045 -0.5806  0.8320 -0.9664
  853MOL0     H15090   7.153   3.149   9.999  2.1514  0.8715  3.3000
  853MOL0     H15091   7.132   3.040  10.125 -0.5953  0.4076  0.2156
  853MOL0     H15092   7.205   2.893   9.966  1.8537  0.8937 -2.1025
  853MOL0     H15093   7.037   2.861   9.959  1.4170 -2.3182 -3.1335
  853MOL0     H15094   7.000   3.010   9.778 -0.1925  2.5929  4.0982
  853MOL0     H15095   7.163   3.076   9.768 -0.3728  2.3934  3.2127
  853MOL0     H15096   7.247   2.853   9.689  0.7739 -1.2869  3.7490
  853MOL0     H15097   7.093   2.780   9.750  0.5444 -0.5983  0.4234
  853MOL0     H15098   6.964   2.867   9.569  0.7683 -0.7319  1.7293
  853MOL0     H15099   7.085   2.980   9.533 -0.2506  0.0741 -3.0483
  853MOL0     H15100   7.242   2.790   9.443 -1.5335  1.5604 -2.7977
  853MOL0     H15101   7.110   2.678   9.494 -2.2723 -0.7900 -2.1530
  853MOL0     H15102   6.953   2.806   9.332 -1.0379  4.0062 -3.1887
  853MOL0     H15103   7.061   2.920   9.300  0.4275  0.5879  3.5480
  853MOL0     H15104   7.068   2.619   9.245  0.0799 -0.4246  0.3985
  853MOL0     H15105   7.199   2.716   9.177 -1.1886 -3.4514  0.3322
  853MOL0     H15106   7.135   2.959   9.051  1.8628 -1.8086  0.9539
  853MOL0     H15107   7.084   2.946   8.738  0.4646 -0.7651  0.2219
  853MOL0     H15108   6.919   2.925   8.714  2.2620  0.6156 -1.8629
  853MOL0     H15109   7.043   3.162   8.867  0.6780  3.4052 -2.6577
  853MOL0     H15110   6.877   3.119   8.875  1.5069  0.1515  2.7085
  853MOL0     H15111   6.924   3.103   8.599 -0.9469  1.8422 -0.9496
  853MOL0     H15112   7.047   3.207   8.629 -0.1629 -1.6633 -0.0346
  853MOL0     H15113   6.926   3.371   8.745 -2.9543  0.2370  2.4606
  853MOL0     H15114   6.770   3.290   8.728 -0.1572 -2.0059  1.7663
  853MOL0     H15115   6.966   3.583   8.465  0.6903  0.9581 -1.3840
  853MOL0     H15116   6.873   3.906   8.468  2.8934 -0.0544 -0.0485
  853MOL0     H15117   6.972   3.792   8.389 -0.1562 -2.2028  0.8706
  853MOL0     H15118   6.841   3.863   8.298  4.1110  1.5512 -0.2996
  853MOL0     H15119   6.460   4.084   8.545  0.6144  0.6166  0.8054
  853MOL0     H15120   6.273   4.254   8.548  3.1852 -0.8744  0.6958
  853MOL0     H15121   5.887   4.117   8.375  0.4832  0.0992  1.1575
  853MOL0     H15122   5.869   4.298   8.366 -0.0535  0.6610 -3.1664
  853MOL0     H15123   6.109   4.270   8.230  1.0840 -0.6426 -0.2935
  853MOL0     H15124   6.037   4.118   8.202 -1.9433  0.4074 -2.1973
  853MOL0     H15125   5.805   4.265   8.158 -0.7160 -0.8763  0.4790
  853MOL0     H15126   5.923   4.236   8.030  0.9359 -1.6311  1.5617
  853MOL0     H15127   5.936   4.477   8.216  1.8524  0.6877 -1.0345
  853MOL0     H15128   6.017   4.463   8.066  0.4805  0.4381 -0.4242
  853MOL0     H15129   5.736   4.416   8.015  2.3360 -4.1980  4.0025
  853MOL0     H15130   5.818   4.568   7.967 -0.1706 -1.9775 -1.8738
  853MOL0     H15131   5.685   4.504   8.243  0.1896 -1.6024 -0.4745
  853MOL0     H15132   5.750   4.653   8.211 -3.8108  2.8006  0.3989
  853MOL0     H15133   5.523   4.538   8.054  1.6808 -1.4488  0.1245
  853MOL0     H15134   5.622   4.664   7.991  1.7345  0.0176  0.1176
  853MOL0     H15135   5.440   4.778   8.098  0.7583  1.9663 -2.0695
  853MOL0     H15136   5.603   4.813   8.167  0.2865 -0.6316  1.6674
  853MOL0     H15137   6.006   3.951   8.400 -0.0567  0.4077  1.7306
  853MOL0     H15138   6.187   3.779   8.419  0.4594 -0.3903 -0.8576
  853MOL0     H15139   6.488   3.638   8.605  0.4412 -0.5237 -0.3113
  853MOL0     H15140   6.593   3.413   8.621 -0.9514  0.2351  0.2177
  853MOL0     H15141   6.841   2.978  10.211  1.5745 -0.1387 -1.6775
  853MOL0     H15142   6.692   3.075  10.390  0.4070  1.0811  1.0006
  853MOL0     H15143   6.544   3.260  10.817  0.0614 -1.8406 -2.6609
  853MOL0     H15144   6.326   3.365  10.917  0.9704 -1.9029  0.6519
  853MOL0     H15145   6.107   3.653  10.676  1.6985  1.7972  0.6695
  853MOL0     H15146   6.011   3.603  10.818  0.1573  0.0492  2.0978
  853MOL0     H15147   6.303   3.706  10.814 -1.2070  6.3647 -1.4594
  853MOL0     H15148   6.234   3.634  10.961 -0.1195  0.9188  0.1061
  853MOL0     H15149   6.043   3.786  10.972 -1.1124 -0.1118 -1.2969
  853MOL0     H15150   6.104   3.861  10.828 -2.1490 -1.1319 -0.2913
  853MOL0     H15151   6.164   3.981  11.056  0.3055  1.4384 -2.1170
  853MOL0     H15152   6.292   3.950  10.941 -0.7690 -0.0137 -0.1185
  853MOL0     H15153   6.360   3.755  11.326 -1.5162 -0.1016  0.5873
  853MOL0     H15154   6.231   3.501  10.527 -0.9646 -2.5035 -1.0468
  853MOL0     H15155   6.450   3.434  10.438 -3.0764 -3.3847 -1.2223
  854MOL0     O15156   6.297   0.224   0.340  0.5657  0.6589  0.4429
  854MOL0     C15157   6.204   0.150   0.383  0.2409  0.4911 -0.0339
  854MOL0     O15158   6.196   0.013   0.370  0.5128  0.1366  0.3416
  854MOL0     C15159   6.272  -0.053   0.269  0.1607 -0.6112  0.2961
  854MOL0     C15160   6.408  -0.084   0.281 -0.2733  0.2222  0.1453
  854MOL0     C15161   6.486  -0.142   0.176  0.0032 -0.1951  0.5121
  854MOL0     C15162   6.426  -0.156   0.047  1.1847 -0.5672 -0.6200
  854MOL0     O15163   6.495  -0.200  -0.064 -0.6405  0.0005 -0.7516
  854MOL0     C15164   6.588  -0.305  -0.039  0.3718  0.1307  0.2394
  854MOL0     C15165   6.633  -0.358  -0.178 -0.1716  0.0766  0.4594
  854MOL0     C15166   6.510  -0.438  -0.232 -0.7916 -0.1132  1.0165
  854MOL0     C15167   6.528  -0.504  -0.360 -0.1111  0.0506 -0.5581
  854MOL0     C15168   6.399  -0.579  -0.395 -0.2390 -0.0919  0.0180
  854MOL0     C15169   6.375  -0.628  -0.539 -0.2956  0.6176 -0.2922
  854MOL0     C15170   6.489  -0.703  -0.609  0.5308 -0.8376 -0.6051
  854MOL0     C15171   6.515  -0.833  -0.549 -0.0709  1.0792 -0.1688
  854MOL0     N15172   6.654  -0.868  -0.547 -0.3478 -0.7764 -0.2504
  854MOL0     C15173   6.751  -0.848  -0.446  1.2167 -0.5639 -0.4511
  854MOL0     C15174   6.852  -0.924  -0.501  0.2215  0.8122 -0.0152
  854MOL0     C15175   6.985  -0.956  -0.431 -0.1080  1.0635  0.1862
  854MOL0     C15176   7.029  -1.101  -0.457 -0.5582  0.1028  0.3084
  854MOL0     C15177   7.177  -1.126  -0.408 -0.3086  0.6860 -0.1186
  854MOL0     C15178   7.206  -1.098  -0.258 -0.0016 -0.3587 -0.2191
  854MOL0     O15179   7.115  -1.162  -0.171  0.5900  0.1816  0.4251
  854MOL0     C15180   7.147  -1.150  -0.039 -0.4591 -0.0264  0.3112
  854MOL0     C15181   7.176  -1.028   0.032 -0.0498 -0.5657 -0.3614
  854MOL0     C15182   7.202  -1.033   0.170 -0.2908  0.9606 -0.1686
  854MOL0     C15183   7.244  -0.906   0.242 -1.1636  0.0112 -0.7264
  854MOL0     C15184   7.203  -1.164   0.234  0.4227  0.3874 -0.2841
  854MOL0     C15185   7.231  -1.189   0.380  0.2826 -1.0164  0.2773
  854MOL0     O15186   7.319  -1.286   0.415 -0.5314 -0.4149  0.0946
  854MOL0     C15187   7.299  -1.346   0.540 -0.1695  0.3342  0.1056
  854MOL0     C15188   7.186  -1.337   0.636 -0.9035 -0.1390  0.0193
  854MOL0     C15189   7.187  -1.403   0.758  0.1141  0.6375 -0.4168
  854MOL0     C15190   7.301  -1.482   0.791 -1.3263 -1.6478 -0.2878
  854MOL0     O15191   7.295  -1.559   0.910 -0.4581  0.4587 -0.1459
  854MOL0     C15192   7.410  -1.646   0.957  0.3298 -0.7957  0.5488
  854MOL0     C15193   7.384  -1.710   1.090 -0.5906  0.4935 -0.4029
  854MOL0     C15194   7.443  -1.849   1.108  0.3925  0.3951 -0.3326
  854MOL0     C15195   7.400  -1.903   1.260 -0.2069  0.2971  0.3600
  854MOL0     C15196   7.249  -1.884   1.309  1.4601  1.5615  0.6351
  854MOL0     C15197   7.136  -1.937   1.223 -0.0323 -0.3936 -0.3870
  854MOL0     C15198   7.001  -1.904   1.292 -0.7619  1.4043  0.1068
  854MOL0     C15199   6.974  -1.973   1.436  0.7574  0.1636  1.7059
  854MOL0    Cl15200   6.954  -2.146   1.391  0.7215  0.2305  0.5652
  854MOL0     C15201   7.418  -1.485   0.702  0.7389  0.9926 -0.7649
  854MOL0     C15202   7.412  -1.425   0.585  0.1314 -0.8142  0.4747
  854MOL0     O15203   7.160  -1.116   0.448 -0.0916  1.2191  0.2620
  854MOL0     C15204   7.182  -1.276   0.161 -0.1426 -0.1311 -0.3575
  854MOL0     C15205   7.159  -1.274   0.028  0.9997 -0.1485 -0.2923
  854MOL0     N15206   6.815  -0.970  -0.625 -0.0710  0.1001 -0.6185
  854MOL0     N15207   6.695  -0.940  -0.660 -0.3185  0.1230 -0.5557
  854MOL0     C15208   6.283  -0.122   0.030 -0.1539  0.1552 -0.0677
  854MOL0     C15209   6.210  -0.076   0.148  0.4557 -0.6054 -0.2616
  854MOL0     C15210   6.110   0.215   0.470 -0.3202 -0.0600  0.0675
  854MOL0     C15211   6.157   0.323   0.546  0.2561  0.4704 -0.2548
  854MOL0     C15212   6.069   0.393   0.621  0.0421 -0.0009 -0.7080
  854MOL0     C15213   5.933   0.356   0.635  0.2678 -1.0610 -0.0184
  854MOL0     O15214   5.849   0.417   0.725  0.3480  0.2482  0.0670
  854MOL0     C15215   5.908   0.426   0.853 -0.7221 -0.3841 -0.0137
  854MOL0     C15216   5.807   0.452   0.966 -0.1251 -0.1396 -0.4028
  854MOL0     C15217   5.709   0.341   0.989  0.7311  0.0949  0.0950
  854MOL0     C15218   5.762   0.223   1.063 -0.1688 -0.5697 -0.9396
  854MOL0     C15219   5.760   0.237   1.206  0.8388 -0.2077  1.2195
  854MOL0     C15220   5.763   0.250   1.324  0.7619 -0.0839  0.4567
  854MOL0     C15221   5.890   0.240   0.571  0.9979 -0.1807 -0.6763
  854MOL0     C15222   5.974   0.168   0.491 -0.7443  0.7518  0.5893
  854MOL0     H15223   6.445  -0.088   0.383  1.2993 -1.0044 -0.4373
  854MOL0     H15224   6.589  -0.172   0.196 -1.0326 -2.7976  2.4951
  854MOL0     H15225   6.675  -0.268   0.015  0.8349 -0.3972 -0.1314
  854MOL0     H15226   6.548  -0.392   0.013 -1.0694 -1.7786 -3.6673
  854MOL0     H15227   6.673  -0.271  -0.230  0.6357  0.7606  2.1382
  854MOL0     H15228   6.717  -0.428  -0.164  1.9047  2.7179  2.2924
  854MOL0     H15229   6.497  -0.515  -0.156  1.1425 -1.3746  0.1618
  854MOL0     H15230   6.427  -0.367  -0.232 -0.8999 -0.2374  1.7099
  854MOL0     H15231   6.550  -0.422  -0.429  1.4691  1.4117  1.4530
  854MOL0     H15232   6.613  -0.574  -0.355  0.8231  1.2512  1.1344
  854MOL0     H15233   6.400  -0.672  -0.337  0.8855 -1.8456 -2.6158
  854MOL0     H15234   6.315  -0.518  -0.361  0.6198  1.8508 -1.1454
  854MOL0     H15235   6.282  -0.685  -0.541 -1.5803  2.4982  1.4515
  854MOL0     H15236   6.350  -0.539  -0.597 -1.1415  1.6776  1.6157
  854MOL0     H15237   6.477  -0.720  -0.717 -3.3513 -0.2410 -0.4099
  854MOL0     H15238   6.565  -0.625  -0.608 -1.1665  0.9444  1.7303
  854MOL0     H15239   6.450  -0.911  -0.591  1.3235  0.6023 -1.5534
  854MOL0     H15240   6.477  -0.847  -0.447  3.0031 -2.5354  0.7429
  854MOL0     H15241   6.749  -0.790  -0.354 -1.8357  0.2396 -0.9154
  854MOL0     H15242   7.053  -0.881  -0.475  1.3666  0.0527  0.6832
  854MOL0     H15243   6.984  -0.934  -0.324 -3.0173 -1.2662  0.7614
  854MOL0     H15244   7.013  -1.119  -0.564  0.1538 -0.6878  0.3266
  854MOL0     H15245   6.953  -1.158  -0.402 -0.7019  1.2237  1.3126
  854MOL0     H15246   7.254  -1.077  -0.468 -1.5634  0.6814 -1.8041
  854MOL0     H15247   7.207  -1.230  -0.422  1.9448  1.4896 -1.7675
  854MOL0     H15248   7.209  -0.991  -0.237 -0.0506 -0.5534  0.8365
  854MOL0     H15249   7.305  -1.140  -0.235 -0.8070 -3.1020 -1.3864
  854MOL0     H15250   7.165  -0.932  -0.017  0.0391  1.2254  2.8760
  854MOL0     H15251   7.238  -0.827   0.167  1.8344  0.9537 -0.0997
  854MOL0     H15252   7.183  -0.883   0.330  0.4749  0.4982  0.3254
  854MOL0     H15253   7.348  -0.927   0.268 -2.0881 -4.6939  0.0225
  854MOL0     H15254   7.097  -1.278   0.618 -1.3359 -0.3768  1.2610
  854MOL0     H15255   7.110  -1.406   0.834 -1.8854  1.2729 -2.2925
  854MOL0     H15256   7.437  -1.717   0.879 -1.3077 -1.0703  0.2032
  854MOL0     H15257   7.500  -1.585   0.972 -0.3980  0.1302  1.3091
  854MOL0     H15258   7.426  -1.634   1.156 -4.4015  1.7763  0.8307
  854MOL0     H15259   7.278  -1.711   1.116 -1.2569 -0.2303 -2.8305
  854MOL0     H15260   7.551  -1.842   1.094  0.6205  3.5414  1.8503
  854MOL0     H15261   7.403  -1.920   1.035  0.5943  0.4235 -0.4681
  854MOL0     H15262   7.417  -2.011   1.271 -0.2975  0.4057  1.8752
  854MOL0     H15263   7.461  -1.865   1.343  0.0032  0.7375  0.0055
  854MOL0     H15264   7.234  -1.776   1.312  0.9538  1.7385 -3.3367
  854MOL0     H15265   7.244  -1.914   1.414  2.3218 -2.1398 -0.2530
  854MOL0     H15266   7.157  -1.904   1.121  0.2658  0.3577 -0.0929
  854MOL0     H15267   7.142  -2.046   1.216  0.5506 -0.3785 -0.1890
  854MOL0     H15268   6.922  -1.942   1.227  0.4140 -3.8361  1.3223
  854MOL0     H15269   6.994  -1.796   1.308 -0.6748  1.6230 -1.1972
  854MOL0     H15270   6.878  -1.945   1.481  0.2561 -0.2056  0.8809
  854MOL0     H15271   7.055  -1.951   1.507  1.0099  2.8665  0.6970
  854MOL0     H15272   7.499  -1.547   0.738 -0.3800 -0.2759 -0.3222
  854MOL0     H15273   7.502  -1.423   0.523  1.9077  3.1268  2.7419
  854MOL0     H15274   7.197  -1.364   0.223  0.5362 -2.0471 -3.0515
  854MOL0     H15275   7.167  -1.363  -0.034  0.1481 -2.0119  2.1293
  854MOL0     H15276   6.231  -0.113  -0.065 -1.8302  1.7292  0.9298
  854MOL0     H15277   6.106  -0.051   0.129  0.8003  0.8989 -0.3087
  854MOL0     H15278   6.261   0.353   0.533  0.8698 -1.5161 -0.2358
  854MOL0     H15279   6.085   0.491   0.665 -0.6893  0.0793 -0.5949
  854MOL0     H15280   5.964   0.334   0.875  0.4760  1.0630  3.6927
  854MOL0     H15281   5.982   0.507   0.847  2.1003 -2.6803  1.0079
  854MOL0     H15282   5.758   0.541   0.927  0.1909 -0.5648 -1.8407
  854MOL0     H15283   5.865   0.475   1.056 -1.1941  1.1770 -0.0263
  854MOL0     H15284   5.674   0.316   0.888 -2.0849 -1.5563  1.3553
  854MOL0     H15285   5.617   0.378   1.035 -0.7467 -1.0460 -1.7869
  854MOL0     H15286   5.862   0.187   1.038  0.7234  0.6552  0.6413
  854MOL0     H15287   5.684   0.149   1.044 -1.9296  1.1122 -0.5825
  854MOL0     H15288   5.770   0.273   1.428 -2.5461 -3.8800  1.7839
  854MOL0     H15289   5.790   0.200   0.586  1.1793 -1.3150 -2.2594
  854MOL0     H15290   5.933   0.085   0.435  0.8900 -2.1950  3.3994
  855MOL0     O15291   3.173   8.559   1.238  1.0470 -0.6479  0.0084
  855MOL0     C15292   3.189   8.440   1.245 -0.0304  0.4654 -0.6030
  855MOL0     O15293   3.311   8.372   1.266 -0.3194 -0.1593 -0.9019
  855MOL0     C15294   3.419   8.449   1.275 -0.5290 -0.0449 -0.2383
  855MOL0     C15295   3.474   8.475   1.398 -0.9255 -0.3922 -0.8278
  855MOL0     C15296   3.600   8.544   1.408  1.0912 -0.1528 -0.1065
  855MOL0     C15297   3.660   8.597   1.300 -1.2104 -0.8359 -0.1669
  855MOL0     O15298   3.777   8.670   1.322 -0.2625 -0.2326 -0.4312
  855MOL0     C15299   3.865   8.714   1.217  0.8635 -0.1454 -0.1688
  855MOL0     C15300   3.990   8.795   1.251  0.4138 -0.1095 -0.0961
  855MOL0     C15301   4.089   8.836   1.141 -0.4964 -0.6984  0.0259
  855MOL0     C15302   4.236   8.866   1.189 -0.0731 -0.4826 -0.2200
  855MOL0     C15303   4.316   8.733   1.184  0.8184  0.4708 -0.6385
  855MOL0     C15304   4.355   8.706   1.037 -0.3205 -0.1070  0.2641
  855MOL0     C15305   4.467   8.597   1.047 -0.7265 -0.5176  0.3874
  855MOL0     C15306   4.577   8.602   0.936  0.7144 -0.4206 -0.8724
  855MOL0     N15307   4.508   8.606   0.803  0.5709  0.3001 -0.0104
  855MOL0     C15308   4.497   8.504   0.707  0.1408  0.1194  0.6372
  855MOL0     C15309   4.432   8.564   0.608 -0.4787 -0.0528  0.0037
  855MOL0     C15310   4.399   8.509   0.467 -0.0132  0.7603 -0.4260
  855MOL0     C15311   4.307   8.389   0.464 -0.5033 -0.5454 -0.4132
  855MOL0     C15312   4.396   8.253   0.489  0.0094 -0.9302  1.0606
  855MOL0     C15313   4.315   8.128   0.442 -0.1327  0.0660  0.5672
  855MOL0     O15314   4.266   8.059   0.554 -0.2918 -0.5858  0.0782
  855MOL0     C15315   4.348   7.971   0.617 -0.2205 -0.2566  0.0935
  855MOL0     C15316   4.296   7.917   0.735  0.0644  0.5295 -0.0418
  855MOL0     C15317   4.374   7.831   0.810 -0.1068 -0.8292 -0.0070
  855MOL0     C15318   4.305   7.783   0.936 -0.3455 -0.2684 -0.1623
  855MOL0     C15319   4.502   7.791   0.766 -0.5456  0.8017 -0.0240
  855MOL0     C15320   4.578   7.686   0.838 -0.0830  0.0137  0.2722
  855MOL0     O15321   4.514   7.587   0.894  0.2851 -0.1805  0.8655
  855MOL0     C15322   4.577   7.477   0.942 -0.0853  0.8681  0.1009
  855MOL0     C15323   4.502   7.410   1.031  1.0338  0.1350  0.2784
  855MOL0     C15324   4.545   7.295   1.088  0.0345 -0.2061 -0.9877
  855MOL0     C15325   4.668   7.238   1.060 -0.3088  0.7805 -0.2994
  855MOL0     O15326   4.705   7.117   1.113 -0.0591 -0.5473  0.0699
  855MOL0     C15327   4.615   7.016   1.160  0.3615  0.2821 -0.8993
  855MOL0     C15328   4.631   6.897   1.055 -0.3658  0.8356  0.5965
  855MOL0     C15329   4.768   6.842   1.033 -0.4625 -0.4042  0.4538
  855MOL0     C15330   4.783   6.746   0.912  0.1336 -0.1491 -0.5432
  855MOL0     C15331   4.912   6.682   0.929 -1.6242  0.2901  0.1403
  855MOL0     C15332   5.036   6.764   0.884  0.7234  0.1950 -0.0487
  855MOL0     C15333   5.079   6.748   0.736 -0.1495 -0.3310 -0.0574
  855MOL0     C15334   4.978   6.812   0.627 -0.1916  0.8019 -0.6425
  855MOL0    Cl15335   4.957   6.999   0.649 -0.4947 -0.2097  0.4588
  855MOL0     C15336   4.744   7.303   0.965 -0.3784 -0.2505  0.3301
  855MOL0     C15337   4.703   7.422   0.904 -0.3936  0.6074  0.1416
  855MOL0     O15338   4.696   7.700   0.827 -0.9748  0.2850 -0.4218
  855MOL0     C15339   4.551   7.841   0.641  0.6176  0.2960  0.1217
  855MOL0     C15340   4.477   7.935   0.572  0.1221 -0.9769  0.3650
  855MOL0     N15341   4.404   8.691   0.633  0.7208 -0.1152 -0.7241
  855MOL0     N15342   4.444   8.711   0.751  0.2739 -0.3703 -0.7813
  855MOL0     C15343   3.603   8.582   1.173 -0.7255 -0.1672  0.9621
  855MOL0     C15344   3.484   8.511   1.157 -0.6149  0.6959  0.0293
  855MOL0     C15345   3.074   8.348   1.225 -0.2619 -0.1315  0.6785
  855MOL0     C15346   2.948   8.406   1.208  0.6128  0.8415  1.3152
  855MOL0     C15347   2.843   8.324   1.172  0.3007 -0.3172 -0.4486
  855MOL0     C15348   2.857   8.185   1.170 -0.2003 -0.6383  1.1692
  855MOL0     O15349   2.748   8.109   1.129  0.0003 -0.6261  0.6223
  855MOL0     C15350   2.776   8.015   1.031  0.4508  0.4969  0.0180
  855MOL0     C15351   2.789   7.865   1.088 -0.6010 -0.3803  0.2216
  855MOL0     C15352   2.639   7.823   1.107 -0.0482 -0.0430 -0.0192
  855MOL0     C15353   2.642   7.687   1.183  0.3269 -0.1263  0.1028
  855MOL0     C15354   2.708   7.587   1.100 -0.9576  0.4203  0.0966
  855MOL0     C15355   2.767   7.504   1.035 -0.6419  0.0143 -0.4176
  855MOL0     C15356   2.982   8.125   1.190  0.2998 -0.1585 -0.2703
  855MOL0     C15357   3.095   8.209   1.214  0.3190 -0.5895 -1.1205
  855MOL0     H15358   3.423   8.429   1.482 -0.5195 -5.1001 -2.8166
  855MOL0     H15359   3.638   8.563   1.508 -2.1537  0.6825  1.1018
  855MOL0     H15360   3.905   8.619   1.180 -1.4985 -0.7035 -1.5014
  855MOL0     H15361   3.804   8.758   1.137  1.6488  2.7459  0.7285
  855MOL0     H15362   3.953   8.892   1.286  1.6770  1.1018 -1.9558
  855MOL0     H15363   4.041   8.738   1.329  1.0539 -0.6479 -0.8876
  855MOL0     H15364   4.096   8.762   1.061 -3.9922  0.3231 -1.4023
  855MOL0     H15365   4.047   8.926   1.095  2.6466 -0.4863 -2.8131
  855MOL0     H15366   4.286   8.947   1.134  2.4022  0.2643  2.8120
  855MOL0     H15367   4.232   8.897   1.294  0.7587 -1.1432  0.0163
  855MOL0     H15368   4.401   8.735   1.254 -1.2130 -0.8762  2.0487
  855MOL0     H15369   4.244   8.659   1.219  0.1902  1.3236 -0.0903
  855MOL0     H15370   4.272   8.669   0.976  0.6079  0.6917 -1.5373
  855MOL0     H15371   4.386   8.798   0.988  3.0943 -1.1678  0.2114
  855MOL0     H15372   4.521   8.608   1.141 -2.7313  0.5662  1.4885
  855MOL0     H15373   4.418   8.499   1.049  1.1748 -1.5001  0.6013
  855MOL0     H15374   4.653   8.525   0.947 -0.4598 -1.4322  0.6508
  855MOL0     H15375   4.621   8.702   0.935  1.0710 -0.5509  0.0525
  855MOL0     H15376   4.535   8.403   0.714 -0.8574 -0.2161  1.5419
  855MOL0     H15377   4.354   8.594   0.416  0.7647  1.5985  0.2514
  855MOL0     H15378   4.490   8.483   0.412 -0.5720 -1.9889 -0.1810
  855MOL0     H15379   4.275   8.391   0.359  0.1186  4.0454 -0.7219
  855MOL0     H15380   4.225   8.400   0.535 -0.1434 -3.2033  0.5535
  855MOL0     H15381   4.415   8.234   0.595  4.0145 -0.9521  0.5004
  855MOL0     H15382   4.499   8.256   0.453  0.4703 -1.7805  2.2506
  855MOL0     H15383   4.381   8.068   0.380  0.4523  1.1856  0.0814
  855MOL0     H15384   4.234   8.157   0.375  0.0609  1.9594  1.0957
  855MOL0     H15385   4.198   7.952   0.767  0.5054  3.5083 -1.5266
  855MOL0     H15386   4.272   7.679   0.928  1.0116 -0.8530  1.2106
  855MOL0     H15387   4.385   7.793   1.011 -0.8368  4.9413  0.0407
  855MOL0     H15388   4.220   7.848   0.958 -0.0015  0.7714 -1.7458
  855MOL0     H15389   4.396   7.434   1.032  0.6449 -1.4332  2.1017
  855MOL0     H15390   4.480   7.232   1.148  0.7618 -1.3020 -1.3257
  855MOL0     H15391   4.642   6.973   1.257 -2.8227  2.0878  0.9678
  855MOL0     H15392   4.511   7.051   1.164  1.2158  2.9788  0.1926
  855MOL0     H15393   4.549   6.826   1.065 -2.7504  2.9688 -2.1340
  855MOL0     H15394   4.604   6.934   0.956 -0.8392  2.3505  1.2470
  855MOL0     H15395   4.814   6.805   1.124  4.4727 -0.2546 -1.6508
  855MOL0     H15396   4.834   6.925   1.003 -1.7738 -0.7971 -4.4010
  855MOL0     H15397   4.696   6.679   0.917 -1.6671  2.1202  0.0384
  855MOL0     H15398   4.772   6.806   0.822  0.1753  4.8186  2.4304
  855MOL0     H15399   4.907   6.588   0.873 -0.5465  0.4637 -0.2784
  855MOL0     H15400   4.927   6.660   1.035 -0.6038  1.2808  0.2177
  855MOL0     H15401   5.021   6.872   0.899  5.7578  1.3620 -1.4068
  855MOL0     H15402   5.121   6.730   0.945  2.1400  1.0048 -1.4891
  855MOL0     H15403   5.093   6.640   0.722 -1.9995 -0.9184  2.0481
  855MOL0     H15404   5.174   6.802   0.729 -0.5051  0.1379 -1.7035
  855MOL0     H15405   4.886   6.753   0.630 -0.2375  0.8942  1.4694
  855MOL0     H15406   5.017   6.804   0.525  0.5236  2.4807 -0.5496
  855MOL0     H15407   4.836   7.251   0.943 -0.1814  0.2770 -0.0916
  855MOL0     H15408   4.768   7.475   0.836 -1.8241  0.6552 -1.2333
  855MOL0     H15409   4.652   7.824   0.604  0.7871 -1.1749  1.1597
  855MOL0     H15410   4.533   7.976   0.489  1.5188  0.3553  1.8823
  855MOL0     H15411   3.639   8.628   1.082  2.1538  0.2915  2.2195
  855MOL0     H15412   3.440   8.487   1.060 -3.2647  0.7179  1.1263
  855MOL0     H15413   2.930   8.513   1.202 -0.9011  0.5567 -2.6913
  855MOL0     H15414   2.743   8.364   1.157  0.4222  0.0715 -0.2383
  855MOL0     H15415   2.689   8.017   0.964 -0.6928 -3.6081  1.0519
  855MOL0     H15416   2.867   8.044   0.978  1.0416  3.5265  2.4050
  855MOL0     H15417   2.847   7.861   1.180 -0.9456  0.6649  0.4950
  855MOL0     H15418   2.836   7.791   1.022 -0.6162 -1.4208  1.3562
  855MOL0     H15419   2.593   7.814   1.009  0.3973 -0.8628 -0.1588
  855MOL0     H15420   2.573   7.892   1.161  0.7301  0.0045  0.9107
  855MOL0     H15421   2.538   7.664   1.205 -0.1037  1.9981  0.5205
  855MOL0     H15422   2.696   7.698   1.277 -3.8080 -0.2753  2.7558
  855MOL0     H15423   2.811   7.434   0.966  1.3018  1.4041 -0.6605
  855MOL0     H15424   2.994   8.017   1.191 -1.0086 -0.3190 -0.0086
  855MOL0     H15425   3.189   8.159   1.234 -0.2408 -1.9790 -1.7870
  856MOL0     O15426   7.224   1.575   2.035  0.9665 -0.1266 -0.7232
  856MOL0     C15427   7.204   1.653   1.949  0.1496 -0.6556  0.9800
  856MOL0     O15428   7.190   1.628   1.813 -0.9232  0.1880 -0.9624
  856MOL0     C15429   7.193   1.499   1.760 -0.9592 -0.1949 -0.0800
  856MOL0     C15430   7.257   1.481   1.640 -0.2309 -0.1121 -0.9324
  856MOL0     C15431   7.292   1.362   1.578 -0.0722  0.2187 -0.5343
  856MOL0     C15432   7.253   1.247   1.645  0.1451 -0.6174  0.4467
  856MOL0     O15433   7.297   1.134   1.590 -0.5645 -0.0254  0.0478
  856MOL0     C15434   7.287   1.015   1.665 -0.3631  0.3220  0.1903
  856MOL0     C15435   7.146   0.954   1.621 -0.6950 -0.1374 -0.7549
  856MOL0     C15436   7.114   0.835   1.713  0.5355  1.2970  1.6252
  856MOL0     C15437   6.969   0.797   1.677 -0.7951  0.2529  0.9358
  856MOL0     C15438   6.903   0.679   1.758  0.7219 -0.7805  0.1155
  856MOL0     C15439   6.938   0.674   1.910 -1.3082  0.3049 -0.0004
  856MOL0     C15440   6.893   0.557   2.001 -0.2759  0.9208  0.4590
  856MOL0     C15441   6.914   0.579   2.146 -0.1373  0.9544  0.1930
  856MOL0     N15442   6.810   0.490   2.214 -0.3466  0.4201 -0.4205
  856MOL0     C15443   6.785   0.354   2.202  0.4624 -0.0886  0.0599
  856MOL0     C15444   6.669   0.344   2.270 -0.3090  0.0861  0.0570
  856MOL0     C15445   6.599   0.211   2.275 -0.1994 -0.6210  0.7232
  856MOL0     C15446   6.625   0.111   2.151 -0.3880  0.3570  0.4992
  856MOL0     C15447   6.553  -0.029   2.170 -0.3773 -0.4729  0.0034
  856MOL0     C15448   6.582  -0.127   2.063 -0.7034 -0.4258  0.4860
  856MOL0     O15449   6.503  -0.240   2.088  0.0691  0.6667  0.4206
  856MOL0     C15450   6.535  -0.342   2.177 -0.0971  0.5054 -0.1660
  856MOL0     C15451   6.458  -0.461   2.174 -0.3519 -0.1662 -0.6857
  856MOL0     C15452   6.475  -0.574   2.259  0.1622 -0.0879  0.2945
  856MOL0     C15453   6.379  -0.693   2.228  0.2794  0.3808  0.6258
  856MOL0     C15454   6.600  -0.581   2.334  0.9863 -0.8472  0.1410
  856MOL0     C15455   6.632  -0.695   2.430  0.3131 -1.2176  1.0675
  856MOL0     O15456   6.764  -0.683   2.490  0.8047 -0.7048  0.2679
  856MOL0     C15457   6.796  -0.754   2.605 -0.2019  0.4068  0.5911
  856MOL0     C15458   6.791  -0.892   2.588  0.2456  0.4348  0.0769
  856MOL0     C15459   6.834  -0.972   2.707 -0.2225  0.3490  0.4849
  856MOL0     C15460   6.857  -0.906   2.828  0.0232 -0.8870 -0.3597
  856MOL0     O15461   6.859  -0.978   2.943  0.0703 -1.1530 -0.1359
  856MOL0     C15462   6.953  -0.927   3.033 -0.3026  0.7705 -0.5659
  856MOL0     C15463   7.011  -1.033   3.107 -0.5438 -0.0987 -0.4062
  856MOL0     C15464   7.106  -0.969   3.203 -0.7984  0.4597  0.7350
  856MOL0     C15465   7.168  -1.054   3.311  0.4902  0.1158 -0.0667
  856MOL0     C15466   7.251  -0.968   3.410  0.2773 -0.4990 -0.2823
  856MOL0     C15467   7.333  -1.058   3.504 -0.2827 -0.0736  0.1629
  856MOL0     C15468   7.234  -1.120   3.598  0.3093  0.3634 -0.4514
  856MOL0     C15469   7.310  -1.181   3.717 -0.8975 -0.0720  0.1680
  856MOL0    Cl15470   7.210  -1.281   3.809  0.3485 -0.2498  0.1768
  856MOL0     C15471   6.862  -0.768   2.833  0.5864 -0.0661  0.3591
  856MOL0     C15472   6.822  -0.692   2.721  0.8667 -0.6253  0.1528
  856MOL0     O15473   6.545  -0.774   2.466 -0.4782 -0.3019 -0.4334
  856MOL0     C15474   6.682  -0.468   2.323  0.8970 -0.1773  0.6271
  856MOL0     C15475   6.653  -0.355   2.255  0.5669 -0.7104  0.1910
  856MOL0     N15476   6.630   0.466   2.325 -0.3537  0.6016  1.0995
  856MOL0     N15477   6.727   0.552   2.299  1.0168  1.0324 -0.4955
  856MOL0     C15478   7.170   1.262   1.757  0.6612  0.8418  0.7715
  856MOL0     C15479   7.147   1.382   1.818  0.0965  0.3927 -0.5144
  856MOL0     C15480   7.186   1.793   2.000 -0.0461  0.0784  1.3111
  856MOL0     C15481   7.192   1.836   2.130 -0.3766 -0.6207 -0.4000
  856MOL0     C15482   7.151   1.966   2.169  0.4460  0.3772 -0.5686
  856MOL0     C15483   7.111   2.059   2.069  0.0336  0.5680 -0.2965
  856MOL0     O15484   7.026   2.161   2.091  0.6078  0.6654  0.2553
  856MOL0     C15485   7.012   2.227   2.216  0.4223 -0.4396  0.2663
  856MOL0     C15486   7.147   2.282   2.279  0.7526  0.3758  0.4023
  856MOL0     C15487   7.215   2.359   2.163 -0.4138 -1.0205  0.3280
  856MOL0     C15488   7.357   2.424   2.195  0.3665  0.1609 -0.7605
  856MOL0     C15489   7.342   2.511   2.307 -1.2236  0.5971 -0.4358
  856MOL0     C15490   7.335   2.582   2.406  0.0845 -0.4921  0.7320
  856MOL0     C15491   7.123   2.024   1.936 -0.1852  0.1168 -0.3836
  856MOL0     C15492   7.161   1.891   1.900  1.3448 -0.5170  0.0604
  856MOL0     H15493   7.296   1.561   1.577 -1.6666  0.1449 -1.5405
  856MOL0     H15494   7.338   1.348   1.481 -1.3638 -2.3454 -0.8842
  856MOL0     H15495   7.359   0.941   1.631 -1.2698 -1.0188  1.0790
  856MOL0     H15496   7.295   1.026   1.773 -1.7803  0.3272  0.3159
  856MOL0     H15497   7.062   1.022   1.642 -0.1752 -0.5334  3.4792
  856MOL0     H15498   7.156   0.923   1.517  3.5182 -3.0034  0.2513
  856MOL0     H15499   7.179   0.752   1.684 -2.3789 -1.1230  1.5227
  856MOL0     H15500   7.133   0.863   1.817  1.6653  2.7359  1.0736
  856MOL0     H15501   6.905   0.885   1.666 -0.5160  0.1276 -4.0966
  856MOL0     H15502   6.967   0.768   1.572 -1.6271  3.0669  0.1021
  856MOL0     H15503   6.795   0.674   1.741  0.6622 -2.2078  0.7365
  856MOL0     H15504   6.949   0.586   1.722  0.0076 -1.3842  0.7324
  856MOL0     H15505   7.046   0.671   1.922 -1.2164  0.0389 -0.8233
  856MOL0     H15506   6.904   0.765   1.960  3.0800  0.8917  2.3543
  856MOL0     H15507   6.783   0.557   1.995 -0.2116  0.6630 -1.3761
  856MOL0     H15508   6.929   0.457   1.973 -1.8674 -1.1787  4.9576
  856MOL0     H15509   6.886   0.684   2.160  2.1026  1.6448 -0.0197
  856MOL0     H15510   7.021   0.591   2.165  0.2497  2.6158 -2.4957
  856MOL0     H15511   6.848   0.276   2.160 -0.2354 -0.9118  0.5151
  856MOL0     H15512   6.615   0.153   2.367 -2.1153 -1.0051  0.8765
  856MOL0     H15513   6.492   0.237   2.273  0.4335  2.3748  1.3820
  856MOL0     H15514   6.724   0.083   2.115 -1.2041 -3.7917  1.0351
  856MOL0     H15515   6.574   0.158   2.067 -0.8068 -2.1637 -0.7536
  856MOL0     H15516   6.445  -0.021   2.178 -0.2460 -0.2490  2.3490
  856MOL0     H15517   6.592  -0.071   2.264 -2.8413 -0.4169  1.1244
  856MOL0     H15518   6.689  -0.147   2.073 -0.2015  0.0278 -2.9122
  856MOL0     H15519   6.570  -0.079   1.965 -0.6269  0.8482  1.0773
  856MOL0     H15520   6.374  -0.457   2.106  2.0786  1.5809 -3.8321
  856MOL0     H15521   6.433  -0.780   2.191 -0.4520  0.8831 -1.7666
  856MOL0     H15522   6.312  -0.718   2.311 -4.7388 -2.0116 -3.5549
  856MOL0     H15523   6.320  -0.665   2.140  2.6747  1.2792 -0.7711
  856MOL0     H15524   6.757  -0.941   2.497 -3.0463  0.0979  1.3396
  856MOL0     H15525   6.838  -1.081   2.701 -0.3321  0.4451 -3.4858
  856MOL0     H15526   7.035  -0.872   2.986  0.7630  1.2540  1.6837
  856MOL0     H15527   6.899  -0.854   3.095 -3.8208 -2.2222  0.2918
  856MOL0     H15528   6.938  -1.073   3.178 -1.2307  3.5893  1.1966
  856MOL0     H15529   7.061  -1.113   3.052  1.8730  0.5272  0.7697
  856MOL0     H15530   7.053  -0.884   3.246 -0.4708  0.8325  0.3994
  856MOL0     H15531   7.193  -0.936   3.146  0.1876 -2.9502  0.0350
  856MOL0     H15532   7.098  -1.110   3.375  4.5727 -2.1270  2.8829
  856MOL0     H15533   7.242  -1.124   3.273  2.2832  2.0251 -0.2614
  856MOL0     H15534   7.189  -0.899   3.469  1.5370  0.4607 -0.0464
  856MOL0     H15535   7.315  -0.903   3.349 -2.6585 -0.3243 -3.5136
  856MOL0     H15536   7.389  -1.129   3.442 -2.3857 -0.7193 -1.0905
  856MOL0     H15537   7.399  -0.984   3.551  0.5855 -0.9719  0.3951
  856MOL0     H15538   7.167  -1.200   3.565 -2.6876  1.5153  2.2780
  856MOL0     H15539   7.175  -1.041   3.646  1.4384 -1.2926  4.2385
  856MOL0     H15540   7.361  -1.099   3.769  2.2348 -1.7271 -0.0201
  856MOL0     H15541   7.395  -1.241   3.682 -1.9824 -1.6063  0.0318
  856MOL0     H15542   6.861  -0.726   2.933 -0.7542 -1.9171  1.1892
  856MOL0     H15543   6.818  -0.584   2.721 -1.0612 -0.6773  0.3961
  856MOL0     H15544   6.783  -0.471   2.361  2.3480 -1.5060 -2.9008
  856MOL0     H15545   6.721  -0.272   2.243 -0.8318  0.3601 -0.6632
  856MOL0     H15546   7.127   1.178   1.809 -1.4636  0.9665 -0.6540
  856MOL0     H15547   7.087   1.398   1.906  0.1428 -1.0705 -0.1775
  856MOL0     H15548   7.235   1.773   2.208 -1.3901  0.6084  1.2229
  856MOL0     H15549   7.141   1.990   2.274 -2.4069  0.1016 -0.6957
  856MOL0     H15550   6.949   2.315   2.201  0.2759 -0.9755 -2.8104
  856MOL0     H15551   6.962   2.172   2.296 -1.3093  1.1234  0.3191
  856MOL0     H15552   7.216   2.203   2.309  0.9547 -0.9424 -2.9830
  856MOL0     H15553   7.127   2.351   2.361  3.8367  2.3523 -0.3289
  856MOL0     H15554   7.154   2.442   2.127  1.0241  0.9505  2.1151
  856MOL0     H15555   7.230   2.307   2.068  0.7823  0.2499 -0.2232
  856MOL0     H15556   7.389   2.486   2.111 -0.0303  3.0085  1.0431
  856MOL0     H15557   7.422   2.347   2.235  0.6491 -0.6925 -2.7599
  856MOL0     H15558   7.335   2.650   2.489  1.7495  0.3648  0.0736
  856MOL0     H15559   7.092   2.086   1.851  1.6638  1.5208 -0.1036
  856MOL0     H15560   7.173   1.867   1.794  0.9355 -1.3237  0.1888
  857MOL0     O15561   0.098   2.197  11.070  0.4928  0.0070  0.2116
  857MOL0     C15562   0.059   2.080  11.043 -0.0148 -0.0583  0.3589
  857MOL0     O15563  -0.076   2.034  11.040 -0.2134  0.2424 -0.3099
  857MOL0     C15564  -0.183   2.125  11.045  0.2616  0.3381 -0.1553
  857MOL0     C15565  -0.309   2.087  11.095 -0.1579 -0.8541  0.2334
  857MOL0     C15566  -0.415   2.173  11.102  0.1399  1.0193  0.6264
  857MOL0     C15567  -0.398   2.305  11.081  0.6467 -0.9204 -0.4431
  857MOL0     O15568  -0.498   2.402  11.105 -0.2374  0.3258  0.5268
  857MOL0     C15569  -0.480   2.474  11.229  1.2135 -0.0793  0.4271
  857MOL0     C15570  -0.550   2.396  11.343 -1.2930  0.6368  0.1442
  857MOL0     C15571  -0.474   2.417  11.472 -0.8189 -0.3616 -0.0549
  857MOL0     C15572  -0.529   2.341  11.595  0.2164  0.0096 -0.8587
  857MOL0     C15573  -0.450   2.333  11.732 -0.1866  0.8142 -0.5190
  857MOL0     C15574  -0.418   2.461  11.797  0.0632 -0.3020  0.2574
  857MOL0     C15575  -0.383   2.466  11.945 -0.1676  0.3374  0.1823
  857MOL0     C15576  -0.249   2.392  11.978 -1.0957 -0.4198 -0.2285
  857MOL0     N15577  -0.193   2.420  12.117  0.3117  1.1395 -0.9179
  857MOL0     C15578  -0.078   2.489  12.150 -0.0454 -0.4473 -0.3847
  857MOL0     C15579  -0.086   2.514  12.281 -0.2987  0.5578 -0.9197
  857MOL0     C15580   0.007   2.603  12.356  0.2963  0.7231 -0.0081
  857MOL0     C15581   0.146   2.540  12.342  0.2048  0.6270  0.1137
  857MOL0     C15582   0.252   2.630  12.413  0.2129 -1.2046  0.0635
  857MOL0     C15583   0.259   2.609  12.566  0.3174  0.0702 -0.1763
  857MOL0     O15584   0.321   2.497  12.601  0.4850 -0.9207 -0.2844
  857MOL0     C15585   0.365   2.480  12.726 -0.5621 -0.2554  0.2576
  857MOL0     C15586   0.488   2.413  12.748  0.2495  1.1313 -0.8388
  857MOL0     C15587   0.550   2.402  12.872  0.3260  1.2472 -0.2661
  857MOL0     C15588   0.675   2.309  12.901 -0.7283 -0.2128  0.8574
  857MOL0     C15589   0.480   2.458  12.987 -0.1979 -0.4481  0.2099
  857MOL0     C15590   0.523   2.439  13.124  0.0566 -0.1498 -0.0076
  857MOL0     O15591   0.493   2.551  13.194  0.6825  0.0267  0.0098
  857MOL0     C15592   0.556   2.582  13.318 -0.6016  0.5805  0.8062
  857MOL0     C15593   0.689   2.581  13.342 -0.2478  0.4438  0.9795
  857MOL0     C15594   0.747   2.610  13.463  0.2018  0.0288 -1.0852
  857MOL0     C15595   0.657   2.630  13.569 -0.7583 -0.8314  0.6736
  857MOL0     O15596   0.707   2.666  13.692  0.6294 -0.0380  0.3306
  857MOL0     C15597   0.607   2.724  13.786  0.0061 -0.2668  0.9661
  857MOL0     C15598   0.683   2.808  13.895 -0.3714  0.1760 -0.3287
  857MOL0     C15599   0.760   2.713  13.985  0.5535 -0.4852 -0.2130
  857MOL0     C15600   0.812   2.782  14.116  0.2744 -1.0757 -0.7694
  857MOL0     C15601   0.917   2.681  14.187 -0.0253 -0.6796 -0.1521
  857MOL0     C15602   0.998   2.753  14.302  0.4386  0.1910  1.0239
  857MOL0     C15603   1.100   2.659  14.349 -0.1967  0.4101  0.0734
  857MOL0     C15604   1.132   2.701  14.496 -0.2410  1.1580 -0.1141
  857MOL0    Cl15605   1.201   2.580  14.603 -1.1295 -0.2727  0.5668
  857MOL0     C15606   0.517   2.622  13.544  0.1908 -0.1505  0.8572
  857MOL0     C15607   0.466   2.598  13.418 -1.0362 -0.1682  0.6042
  857MOL0     O15608   0.579   2.338  13.168 -0.7938 -0.2299 -0.2267
  857MOL0     C15609   0.359   2.529  12.967 -0.6143  0.8131  0.4960
  857MOL0     C15610   0.303   2.541  12.838  0.5884  0.6738  0.5524
  857MOL0     N15611  -0.203   2.462  12.330 -0.6149  0.5553  0.0327
  857MOL0     N15612  -0.262   2.401  12.232  1.0168  0.4829 -1.2456
  857MOL0     C15613  -0.277   2.356  11.023 -0.6253  0.5546 -0.1158
  857MOL0     C15614  -0.175   2.266  11.012  0.1241  0.6203  0.8163
  857MOL0     C15615   0.160   1.981  11.010 -0.5811 -0.2526  0.4487
  857MOL0     C15616   0.126   1.853  10.958  0.3148  0.4283  0.3239
  857MOL0     C15617   0.226   1.750  10.946  0.0047 -0.6628  0.0992
  857MOL0     C15618   0.355   1.787  10.961  0.5302 -0.5054  0.8372
  857MOL0     O15619   0.465   1.706  10.933  0.0853  0.0471  0.0963
  857MOL0     C15620   0.434   1.604  10.841  0.0967 -0.0770  0.0506
  857MOL0     C15621   0.557   1.526  10.786 -1.1236 -0.2259  0.1896
  857MOL0     C15622   0.633   1.453  10.905  0.9536  0.1002 -0.4884
  857MOL0     C15623   0.743   1.367  10.861  0.0641  0.2276 -0.1564
  857MOL0     C15624   0.774   1.258  10.961  0.0996 -0.3222  0.4114
  857MOL0     C15625   0.800   1.171  11.044  0.2804 -0.6305  0.3885
  857MOL0     C15626   0.388   1.914  11.016 -0.8689  0.5277  0.2912
  857MOL0     C15627   0.290   2.010  11.049 -0.3996  0.4818  0.2706
  857MOL0     H15628  -0.322   1.981  11.115 -1.9047 -0.4733  1.2999
  857MOL0     H15629  -0.509   2.127  11.131 -0.1504  1.8365  1.0195
  857MOL0     H15630  -0.375   2.494  11.252  0.9913 -0.0225  1.4592
  857MOL0     H15631  -0.536   2.566  11.210  0.9773 -0.4313 -0.6530
  857MOL0     H15632  -0.656   2.422  11.340 -1.1001  1.3280 -1.0852
  857MOL0     H15633  -0.556   2.288  11.331 -2.7525  0.6860  0.2810
  857MOL0     H15634  -0.372   2.381  11.458 -1.0431 -1.4397  0.9880
  857MOL0     H15635  -0.476   2.525  11.490 -0.3667 -0.1694 -1.0791
  857MOL0     H15636  -0.629   2.384  11.603 -0.8142 -2.0892 -1.6176
  857MOL0     H15637  -0.557   2.240  11.562 -2.8981  0.8114 -1.0291
  857MOL0     H15638  -0.523   2.287  11.799  0.9976 -1.8209 -0.9174
  857MOL0     H15639  -0.361   2.274  11.712  0.4616  0.7331  2.1734
  857MOL0     H15640  -0.347   2.511  11.730 -0.4594 -2.9483 -2.5285
  857MOL0     H15641  -0.512   2.516  11.786  0.8190  0.9553 -0.1826
  857MOL0     H15642  -0.394   2.571  11.971 -0.6666 -0.1299  1.9842
  857MOL0     H15643  -0.443   2.413  12.019  1.8408 -0.1459  1.5752
  857MOL0     H15644  -0.174   2.423  11.906 -2.3511  1.2896 -0.8763
  857MOL0     H15645  -0.255   2.283  11.972 -0.3152 -0.6429  2.0078
  857MOL0     H15646   0.004   2.525  12.089 -0.6976  0.5833 -0.6724
  857MOL0     H15647   0.019   2.701  12.310  2.1646  1.0143  0.9657
  857MOL0     H15648  -0.029   2.606  12.460  1.1654 -0.0611  0.3337
  857MOL0     H15649   0.188   2.542  12.241  1.0776  0.4516  0.4659
  857MOL0     H15650   0.154   2.436  12.375  2.5937  1.5435  2.9363
  857MOL0     H15651   0.225   2.735  12.396  2.0061 -0.7767 -0.3395
  857MOL0     H15652   0.354   2.630  12.371 -0.0102  0.7997 -0.5947
  857MOL0     H15653   0.160   2.604  12.613  0.5065 -1.2211  0.1242
  857MOL0     H15654   0.319   2.692  12.604 -0.0786  0.7946 -1.0871
  857MOL0     H15655   0.526   2.369  12.656 -0.4233 -1.2759 -0.0552
  857MOL0     H15656   0.745   2.311  12.818 -2.0489 -0.5810 -0.3173
  857MOL0     H15657   0.724   2.357  12.986 -3.9657  2.4640  1.4536
  857MOL0     H15658   0.639   2.207  12.918  0.3473 -1.2984 -2.4999
  857MOL0     H15659   0.748   2.563  13.252  0.2755  0.7657  1.2531
  857MOL0     H15660   0.853   2.612  13.485  0.1773  1.3596 -1.0122
  857MOL0     H15661   0.526   2.785  13.742  1.4111  1.9793  1.3219
  857MOL0     H15662   0.563   2.645  13.847  0.6506  1.1605  3.4035
  857MOL0     H15663   0.752   2.880  13.850 -2.3747  2.6720  0.4015
  857MOL0     H15664   0.608   2.863  13.952 -1.9340 -1.1174 -1.0509
  857MOL0     H15665   0.839   2.680  13.917 -2.7968 -0.8223 -4.3444
  857MOL0     H15666   0.690   2.636  14.018 -1.8116  1.8961  0.7461
  857MOL0     H15667   0.856   2.877  14.084  1.2904 -2.1088 -2.7135
  857MOL0     H15668   0.725   2.808  14.176 -0.2488  1.0414 -2.3584
  857MOL0     H15669   0.995   2.643  14.120 -0.0082  2.6276 -2.2109
  857MOL0     H15670   0.859   2.600  14.233 -0.6750 -0.4808 -0.6224
  857MOL0     H15671   1.037   2.846  14.258  2.5105 -1.1193 -0.0862
  857MOL0     H15672   0.927   2.780  14.380 -2.1220 -1.9659 -0.4067
  857MOL0     H15673   1.193   2.661  14.292  1.0725 -2.7585  1.7768
  857MOL0     H15674   1.043   2.567  14.364  0.4418 -0.2730 -1.4742
  857MOL0     H15675   1.042   2.742  14.543  0.3619  1.6685  0.6154
  857MOL0     H15676   1.191   2.792  14.484 -0.3311  0.9795 -2.2788
  857MOL0     H15677   0.449   2.620  13.629  2.1407 -0.1906  2.5141
  857MOL0     H15678   0.359   2.585  13.405 -1.2007  0.4189  1.2827
  857MOL0     H15679   0.294   2.552  13.051 -0.6382 -1.7563  1.2834
  857MOL0     H15680   0.202   2.576  12.821  1.1543  1.5322 -1.2287
  857MOL0     H15681  -0.264   2.456  10.983  1.9163 -0.5393 -2.2940
  857MOL0     H15682  -0.085   2.302  10.963  1.9438 -1.0550  2.7030
  857MOL0     H15683   0.026   1.828  10.925 -0.1354  0.6901  1.4608
  857MOL0     H15684   0.204   1.648  10.919  0.1729 -1.0107  1.2144
  857MOL0     H15685   0.381   1.521  10.889  1.6062 -0.7843  0.5383
  857MOL0     H15686   0.375   1.642  10.757 -0.0100  0.7550  0.4839
  857MOL0     H15687   0.632   1.588  10.734 -0.8196 -0.0824  0.7925
  857MOL0     H15688   0.522   1.442  10.725  0.8266 -0.4707 -0.6904
  857MOL0     H15689   0.558   1.395  10.959  1.1490  0.7225  0.4556
  857MOL0     H15690   0.687   1.527  10.964  3.1950  0.1727 -2.4584
  857MOL0     H15691   0.832   1.430  10.850  0.1935 -0.2198 -2.2687
  857MOL0     H15692   0.726   1.332  10.758  0.0779  3.4952 -1.3784
  857MOL0     H15693   0.823   1.107  11.126  1.4033 -0.9461 -0.1483
  857MOL0     H15694   0.494   1.931  11.034 -0.3287 -2.4035  0.3012
  857MOL0     H15695   0.313   2.106  11.093 -2.3289  1.1577 -0.1239
  858MOL0     O15696   9.377  10.581   3.227  0.7231 -0.6378 -0.4614
  858MOL0     C15697   9.431  10.660   3.304 -0.6088 -0.7629 -0.5621
  858MOL0     O15698   9.564  10.643   3.351  0.4705  0.0100 -0.1550
  858MOL0     C15699   9.647  10.527   3.339 -0.1163  1.1883 -0.8425
  858MOL0     C15700   9.604  10.395   3.367  0.1830 -0.2709  0.0907
  858MOL0     C15701   9.687  10.287   3.371  0.3967 -0.0375 -0.9390
  858MOL0     C15702   9.821  10.306   3.359  0.6038  0.6109 -0.4943
  858MOL0     O15703   9.913  10.200   3.375  0.5875  0.1330  0.4564
  858MOL0     C15704   9.893  10.099   3.477  0.5058 -0.2941  0.0392
  858MOL0     C15705   9.998   9.996   3.478 -0.1764 -0.1504  0.1446
  858MOL0     C15706  10.039   9.941   3.619  0.0927 -0.2018  0.8275
  858MOL0     C15707   9.909   9.914   3.710 -0.4540 -1.0678 -0.5825
  858MOL0     C15708   9.932   9.908   3.868 -0.9884 -0.2796  0.2692
  858MOL0     C15709  10.032  10.018   3.910  0.2933  0.6004  1.0404
  858MOL0     C15710  10.067  10.010   4.063 -0.1816  0.4263  0.5871
  858MOL0     C15711  10.200  10.089   4.079 -0.7125  0.1622 -0.0257
  858MOL0     N15712  10.181  10.237   4.064  0.1181  0.5095 -0.2281
  858MOL0     C15713  10.084  10.316   4.127 -0.5264  1.1378 -0.2120
  858MOL0     C15714  10.137  10.442   4.115  0.8882  0.1124  0.5779
  858MOL0     C15715  10.073  10.568   4.168 -0.0707  0.0775  0.3595
  858MOL0     C15716   9.941  10.535   4.254 -0.0801  0.0989  0.1053
  858MOL0     C15717   9.850  10.650   4.299 -0.3402  0.2418  0.6206
  858MOL0     C15718   9.730  10.605   4.375  0.2299  0.2148  0.0492
  858MOL0     O15719   9.767  10.556   4.495  0.1066 -0.0370 -0.4448
  858MOL0     C15720   9.768  10.644   4.604 -0.1621  0.3091 -0.7490
  858MOL0     C15721   9.892  10.695   4.636  0.2825 -0.5442 -0.1094
  858MOL0     C15722   9.909  10.799   4.723  0.6288  0.0559  0.2861
  858MOL0     C15723  10.046  10.852   4.748 -0.1461 -1.1072 -0.1616
  858MOL0     C15724   9.798  10.840   4.800  0.7353 -1.0588 -0.2202
  858MOL0     C15725   9.819  10.932   4.911 -0.4458  0.0627  0.4358
  858MOL0     O15726   9.932  10.911   4.991 -0.3376 -0.4594  0.4731
  858MOL0     C15727   9.962  11.003   5.086  0.1501 -0.0103 -0.0657
  858MOL0     C15728  10.101  11.011   5.106  0.5985  0.1236  0.4504
  858MOL0     C15729  10.158  11.114   5.186  0.0444  0.2585  0.1423
  858MOL0     C15730  10.072  11.191   5.268 -0.4061 -0.8918  0.6349
  858MOL0     O15731  10.120  11.289   5.354 -0.6186 -0.4469  0.5844
  858MOL0     C15732  10.264  11.316   5.365  0.4990  0.0575  0.3946
  858MOL0     C15733  10.285  11.416   5.471  0.0506  0.2812  0.1223
  858MOL0     C15734  10.395  11.513   5.440 -0.1442 -0.1889 -0.5274
  858MOL0     C15735  10.534  11.444   5.443 -0.1100 -0.2001  0.7802
  858MOL0     C15736  10.653  11.534   5.477 -0.9526  0.4143 -0.1113
  858MOL0     C15737  10.780  11.524   5.394  0.2167 -0.1886 -1.3726
  858MOL0     C15738  10.897  11.598   5.465 -0.9256  0.2340  0.9410
  858MOL0     C15739  11.032  11.596   5.370 -0.4416  0.1733  0.0934
  858MOL0    Cl15740  11.064  11.447   5.277 -0.1324 -0.2791  0.0108
  858MOL0     C15741   9.938  11.168   5.258 -0.2153  0.2348  0.1392
  858MOL0     C15742   9.882  11.069   5.175  0.4925 -0.3640  0.2771
  858MOL0     O15743   9.720  10.996   4.942  0.1830 -0.1852  0.0829
  858MOL0     C15744   9.671  10.783   4.774  0.8017  0.1579 -0.3393
  858MOL0     C15745   9.654  10.686   4.674  0.2146  0.2617 -0.0140
  858MOL0     N15746  10.263  10.432   4.062 -0.3046 -0.6170  0.0210
  858MOL0     N15747  10.288  10.309   4.027  0.9716  0.1106 -0.1053
  858MOL0     C15748   9.868  10.437   3.337 -0.5502 -0.2849 -0.1759
  858MOL0     C15749   9.786  10.545   3.328  0.2818  0.6484 -0.1505
  858MOL0     C15750   9.356  10.790   3.326 -1.0276 -0.4615  0.2783
  858MOL0     C15751   9.436  10.897   3.382  0.5275  0.8298  1.5945
  858MOL0     C15752   9.390  11.029   3.383 -0.2705 -0.9392  0.3007
  858MOL0     C15753   9.261  11.055   3.339  0.5322  1.7554  0.3650
  858MOL0     O15754   9.202  11.168   3.323 -0.0541  0.0649 -0.4418
  858MOL0     C15755   9.271  11.288   3.338  0.8347  0.5386 -0.3495
  858MOL0     C15756   9.262  11.343   3.480 -0.3785 -0.5371  0.0596
  858MOL0     C15757   9.113  11.348   3.532  0.1219 -0.7032 -0.2175
  858MOL0     C15758   9.101  11.423   3.664 -0.1755 -1.3103  1.0264
  858MOL0     C15759   8.963  11.419   3.708  0.0825 -1.0010  0.3929
  858MOL0     C15760   8.855  11.409   3.760  0.5207  0.2763  0.6152
  858MOL0     C15761   9.170  10.946   3.302 -0.4730 -0.5168  0.1608
  858MOL0     C15762   9.224  10.815   3.292 -0.1552 -1.1072 -0.1739
  858MOL0     H15763   9.500  10.387   3.397  0.1798  2.9097  1.3288
  858MOL0     H15764   9.657  10.184   3.387  3.7258 -0.8107  1.5494
  858MOL0     H15765   9.892  10.157   3.570  1.8484 -0.0269 -0.0942
  858MOL0     H15766   9.806  10.034   3.466  2.9866 -3.9426  0.3596
  858MOL0     H15767   9.973   9.907   3.420 -0.2414 -0.1595  0.1850
  858MOL0     H15768  10.078  10.044   3.421 -0.4757 -1.6391 -1.5977
  858MOL0     H15769  10.097   9.848   3.614  0.6492  0.2079 -0.6858
  858MOL0     H15770  10.104  10.019   3.661  0.5407  0.9836 -1.8468
  858MOL0     H15771   9.849  10.005   3.699  0.4780 -0.5586 -1.7368
  858MOL0     H15772   9.841   9.832   3.684 -0.8126 -0.6823 -0.8670
  858MOL0     H15773   9.838   9.925   3.920 -1.2881 -1.7878  0.2633
  858MOL0     H15774   9.979   9.812   3.892  0.0188 -0.4502 -2.0795
  858MOL0     H15775  10.123  10.013   3.850 -1.1762 -2.0160 -1.1773
  858MOL0     H15776   9.981  10.109   3.878  1.1665  0.4422 -0.9273
  858MOL0     H15777   9.981  10.058   4.112 -0.5644 -3.0320  3.6701
  858MOL0     H15778  10.072   9.911   4.109  0.0674 -1.2130 -2.7293
  858MOL0     H15779  10.279  10.052   4.013  0.5297  1.0557  0.9174
  858MOL0     H15780  10.238  10.065   4.178 -1.2512 -1.4249 -0.1764
  858MOL0     H15781   9.998  10.282   4.185  0.6594 -1.2019  0.2805
  858MOL0     H15782  10.144  10.621   4.231  0.6315  3.1701 -2.6683
  858MOL0     H15783  10.043  10.641   4.091  0.0747 -1.8000 -1.5674
  858MOL0     H15784   9.972  10.467   4.333  1.3498 -0.0482 -0.5477
  858MOL0     H15785   9.891  10.493   4.166  0.6796  1.9812 -1.3052
  858MOL0     H15786   9.812  10.688   4.204  0.2132 -1.0241 -0.1412
  858MOL0     H15787   9.903  10.725   4.358 -1.6103  1.2141  0.5444
  858MOL0     H15788   9.689  10.517   4.323  0.9230 -0.7852  1.1617
  858MOL0     H15789   9.661  10.690   4.371 -3.3674 -2.4915 -2.0048
  858MOL0     H15790   9.968  10.631   4.594 -1.5583 -2.5719 -0.5620
  858MOL0     H15791  10.121  10.854   4.667 -0.9631  0.8569 -0.9282
  858MOL0     H15792  10.025  10.956   4.771  1.0080 -1.2473  1.7135
  858MOL0     H15793  10.095  10.817   4.840  0.8937 -0.7364 -0.5526
  858MOL0     H15794  10.150  10.945   5.035 -2.7411 -3.0685  0.8366
  858MOL0     H15795  10.263  11.141   5.176  0.1901 -0.3728 -0.0491
  858MOL0     H15796  10.321  11.227   5.395  1.0040 -0.2057 -1.2394
  858MOL0     H15797  10.292  11.355   5.267  1.0342 -0.9753  0.1246
  858MOL0     H15798  10.199  11.482   5.485  0.2896  0.8928 -1.1973
  858MOL0     H15799  10.296  11.364   5.567 -3.1571 -2.0266 -0.6159
  858MOL0     H15800  10.386  11.591   5.516 -0.9032  1.6165 -2.3719
  858MOL0     H15801  10.382  11.576   5.351  1.9059 -0.3652 -1.0104
  858MOL0     H15802  10.533  11.362   5.516  2.0385 -2.9079 -1.9524
  858MOL0     H15803  10.548  11.403   5.343  3.0256  4.5545 -1.0430
  858MOL0     H15804  10.685  11.504   5.577  1.2392 -1.5093 -1.2907
  858MOL0     H15805  10.622  11.639   5.469 -0.0754  0.6434 -0.6545
  858MOL0     H15806  10.784  11.415   5.384 -1.3384 -0.5962  1.3328
  858MOL0     H15807  10.770  11.570   5.295 -1.4453  0.2746 -1.0292
  858MOL0     H15808  10.910  11.547   5.560 -1.1977 -2.4185 -0.3552
  858MOL0     H15809  10.864  11.698   5.493  3.6480  2.4059 -0.5082
  858MOL0     H15810  11.123  11.611   5.429 -0.3485 -1.7456  0.5198
  858MOL0     H15811  11.025  11.677   5.298 -1.2964 -0.5327 -0.6518
  858MOL0     H15812   9.887  11.250   5.308  0.5685  2.5208 -2.5718
  858MOL0     H15813   9.773  11.067   5.176  0.3372  3.0225  1.5108
  858MOL0     H15814   9.594  10.800   4.848  1.7634  3.0037  0.1389
  858MOL0     H15815   9.558  10.638   4.659 -1.7125  2.9963  2.4093
  858MOL0     H15816   9.975  10.450   3.325 -0.7701  3.6889  0.8060
  858MOL0     H15817   9.836  10.638   3.303  1.4503  0.7851  2.2951
  858MOL0     H15818   9.536  10.887   3.423  0.5808  3.4688  2.3410
  858MOL0     H15819   9.451  11.114   3.410 -2.4011  1.3049 -1.4507
  858MOL0     H15820   9.372  11.283   3.298  0.7413 -1.0533 -0.4139
  858MOL0     H15821   9.214  11.361   3.279 -0.0151 -0.4918 -0.8415
  858MOL0     H15822   9.283  11.450   3.471 -2.0151  0.0620  2.3466
  858MOL0     H15823   9.328  11.292   3.552 -0.8718 -0.2151  0.7516
  858MOL0     H15824   9.080  11.245   3.547  1.3210 -0.9002  1.2978
  858MOL0     H15825   9.047  11.405   3.466 -2.5320 -3.1125  0.2023
  858MOL0     H15826   9.121  11.530   3.658  2.2490 -1.7782 -0.8996
  858MOL0     H15827   9.163  11.386   3.745 -1.0150  2.1524  3.4834
  858MOL0     H15828   8.755  11.386   3.791 -0.9454  4.1687 -0.7056
  858MOL0     H15829   9.071  10.975   3.266 -0.5791 -2.2228 -1.0102
  858MOL0     H15830   9.165  10.728   3.263 -2.2144 -0.2415  1.1598
  859MOL0     O15831  11.311   7.339   7.525  0.4929  0.1839  0.8800
  859MOL0     C15832  11.406   7.369   7.450  0.2659  0.5599  0.1395
  859MOL0     O15833  11.398   7.350   7.318  0.1529  0.0550  0.5177
  859MOL0     C15834  11.280   7.330   7.245  0.6409  0.3828 -0.3581
  859MOL0     C15835  11.159   7.383   7.262  0.4258 -0.7574 -0.5546
  859MOL0     C15836  11.058   7.367   7.162  0.0679 -0.1416  1.3557
  859MOL0     C15837  11.081   7.279   7.055  0.5811  0.7625 -0.1389
  859MOL0     O15838  10.973   7.256   6.965 -0.6894 -0.2037  0.2608
  859MOL0     C15839  10.839   7.224   7.011 -0.1710  0.6328 -0.3229
  859MOL0     C15840  10.741   7.186   6.905  1.4468 -0.2876  0.1191
  859MOL0     C15841  10.739   7.292   6.792 -0.0100  0.3731 -0.5389
  859MOL0     C15842  10.650   7.237   6.690 -0.1576  0.5193 -0.0662
  859MOL0     C15843  10.630   7.346   6.579  0.0493  0.3371  0.1982
  859MOL0     C15844  10.517   7.295   6.480  0.2063 -0.3587 -0.5173
  859MOL0     C15845  10.476   7.387   6.363 -1.0036  0.4942 -0.9320
  859MOL0     C15846  10.593   7.431   6.267 -0.4706 -1.2430 -0.5508
  859MOL0     N15847  10.542   7.533   6.181 -0.8195  1.1066  0.0339
  859MOL0     C15848  10.521   7.665   6.215  0.3759 -0.1181 -0.5907
  859MOL0     C15849  10.463   7.704   6.093  0.3260  0.3331  1.0131
  859MOL0     C15850  10.440   7.852   6.064  0.3270  0.6104  0.7854
  859MOL0     C15851  10.299   7.870   5.987 -0.3384 -0.3687  0.6130
  859MOL0     C15852  10.304   7.926   5.852 -0.5491  0.7319  0.1680
  859MOL0     C15853  10.332   7.813   5.742 -0.8389  0.2933 -0.4113
  859MOL0     O15854  10.307   7.872   5.611 -0.6309  0.0980  0.1438
  859MOL0     C15855  10.367   7.813   5.500 -0.6585 -0.9352  0.5690
  859MOL0     C15856  10.340   7.874   5.375  0.7517  0.4408 -1.3136
  859MOL0     C15857  10.391   7.812   5.256 -0.2693  0.5179 -0.3976
  859MOL0     C15858  10.358   7.883   5.125 -0.4231 -0.2455  0.0120
  859MOL0     C15859  10.478   7.695   5.273 -0.1922 -0.5790 -0.0044
  859MOL0     C15860  10.547   7.626   5.153 -1.0189 -0.1041 -0.3501
  859MOL0     O15861  10.600   7.514   5.189 -0.1336  0.0058  0.1604
  859MOL0     C15862  10.721   7.475   5.132 -0.2510 -0.1141 -0.1332
  859MOL0     C15863  10.751   7.338   5.166 -0.1504 -0.0579  0.8987
  859MOL0     C15864  10.864   7.271   5.120  0.1358  0.1631 -0.3485
  859MOL0     C15865  10.960   7.341   5.055 -0.5412 -0.2574 -0.5208
  859MOL0     O15866  11.081   7.285   5.024 -0.7299 -0.1245  0.8777
  859MOL0     C15867  11.111   7.147   5.058 -0.4416  0.8386 -0.2116
  859MOL0     C15868  11.265   7.128   5.053  0.3577  0.6164 -0.4484
  859MOL0     C15869  11.323   7.153   4.908  0.7296  0.4837  0.2243
  859MOL0     C15870  11.315   7.029   4.818  1.1465  0.5070 -0.0779
  859MOL0     C15871  11.399   7.034   4.686  0.2675  0.3855 -0.4576
  859MOL0     C15872  11.359   7.143   4.597 -0.4452 -0.5410  0.2421
  859MOL0     C15873  11.494   7.199   4.535  0.7147  0.0826  0.0050
  859MOL0     C15874  11.471   7.296   4.416 -0.9631  1.0230 -0.3590
  859MOL0    Cl15875  11.374   7.435   4.470  0.0643  0.0070  0.2462
  859MOL0     C15876  10.941   7.472   5.015  0.9634  0.1447 -0.5208
  859MOL0     C15877  10.822   7.542   5.055  1.1304  0.3920 -1.1741
  859MOL0     O15878  10.543   7.676   5.046 -0.0720  0.0717 -0.2593
  859MOL0     C15879  10.516   7.650   5.398  0.0623 -0.3452 -0.2412
  859MOL0     C15880  10.451   7.696   5.508  0.3980 -0.9235 -0.1622
  859MOL0     N15881  10.446   7.600   6.005  0.9989 -0.2168 -0.5941
  859MOL0     N15882  10.491   7.497   6.062 -0.0808  0.5655 -0.0527
  859MOL0     C15883  11.198   7.205   7.058  0.0604  0.3818 -0.5624
  859MOL0     C15884  11.300   7.236   7.147 -0.6419 -0.8790  0.7937
  859MOL0     C15885  11.530   7.408   7.516 -1.1987  0.1768 -0.1648
  859MOL0     C15886  11.661   7.407   7.445 -0.2869  0.7721 -1.1008
  859MOL0     C15887  11.777   7.469   7.491 -0.2985  0.1895 -1.1812
  859MOL0     C15888  11.766   7.533   7.616 -0.2177  0.2804 -0.5811
  859MOL0     O15889  11.882   7.585   7.676 -0.8036  0.1612 -0.3390
  859MOL0     C15890  11.989   7.499   7.733  0.6146 -0.1183 -0.0079
  859MOL0     C15891  11.931   7.401   7.838 -0.4871 -0.2594 -0.2178
  859MOL0     C15892  11.882   7.260   7.797  0.2602 -0.9572 -0.6050
  859MOL0     C15893  11.807   7.216   7.917  0.6440  1.5529 -0.3968
  859MOL0     C15894  11.758   7.072   7.913  0.2909 -0.3995  0.0863
  859MOL0     C15895  11.719   6.959   7.911 -0.7382 -0.4202 -0.2099
  859MOL0     C15896  11.646   7.524   7.701 -0.5230 -0.4885  0.9648
  859MOL0     C15897  11.535   7.456   7.645  0.0839 -0.3338  0.4676
  859MOL0     H15898  11.135   7.448   7.345  1.9842 -2.0713  1.0096
  859MOL0     H15899  10.965   7.424   7.162  0.2909  0.2879 -0.5933
  859MOL0     H15900  10.848   7.147   7.088  0.8169 -0.7283 -1.7095
  859MOL0     H15901  10.813   7.318   7.059  1.2532  1.9486 -1.9967
  859MOL0     H15902  10.756   7.090   6.855  0.2351 -0.4581  0.0322
  859MOL0     H15903  10.640   7.183   6.948  1.9857  0.9495  1.5509
  859MOL0     H15904  10.689   7.380   6.834 -1.3853  0.0763 -1.4841
  859MOL0     H15905  10.840   7.320   6.761 -0.3167  2.6806  0.3445
  859MOL0     H15906  10.698   7.151   6.644  0.6312  0.0420  1.5643
  859MOL0     H15907  10.558   7.213   6.744 -2.1908  0.0069 -3.4887
  859MOL0     H15908  10.598   7.440   6.624 -0.5016  1.7293 -2.8446
  859MOL0     H15909  10.731   7.356   6.536  0.5266 -1.2493  0.8811
  859MOL0     H15910  10.569   7.212   6.430 -1.0888 -1.1357 -0.6179
  859MOL0     H15911  10.426   7.258   6.527  0.1180 -1.1850 -1.2984
  859MOL0     H15912  10.407   7.335   6.296 -1.9151 -0.7039  0.8528
  859MOL0     H15913  10.426   7.475   6.405  0.8966  0.4162  1.7915
  859MOL0     H15914  10.618   7.336   6.221 -1.7683 -3.1808  2.3929
  859MOL0     H15915  10.682   7.475   6.312 -0.9520 -0.5692 -0.2393
  859MOL0     H15916  10.564   7.718   6.299 -3.1445  0.8484  0.7802
  859MOL0     H15917  10.436   7.917   6.152  2.6717  1.8110  0.0974
  859MOL0     H15918  10.523   7.873   5.996  1.9635 -2.1220  1.7644
  859MOL0     H15919  10.237   7.936   6.047  1.5373 -0.1161  2.3885
  859MOL0     H15920  10.252   7.771   5.976  0.9455 -0.8851 -0.6534
  859MOL0     H15921  10.378   8.007   5.845 -0.0728  0.7886  3.9587
  859MOL0     H15922  10.202   7.954   5.824 -1.0143 -3.3782 -3.2987
  859MOL0     H15923  10.262   7.729   5.753  0.5059 -1.0631 -1.7846
  859MOL0     H15924  10.437   7.784   5.753 -0.5607  0.2315 -2.6942
  859MOL0     H15925  10.274   7.960   5.386  3.5683  2.5552  0.8635
  859MOL0     H15926  10.278   7.956   5.129 -0.0170  0.1546  1.8213
  859MOL0     H15927  10.452   7.933   5.101 -0.5576  1.8248  3.2380
  859MOL0     H15928  10.332   7.818   5.041 -2.7092  0.6218 -0.0093
  859MOL0     H15929  10.674   7.280   5.216 -1.5750  0.3587 -0.7143
  859MOL0     H15930  10.883   7.166   5.135  1.0533  0.3150 -0.3520
  859MOL0     H15931  11.083   7.131   5.162  1.8662  0.0348  0.3376
  859MOL0     H15932  11.052   7.077   4.998 -1.1883 -0.9755  2.4877
  859MOL0     H15933  11.322   7.176   5.133  2.2488 -0.1047 -1.3181
  859MOL0     H15934  11.283   7.026   5.087 -1.0120  0.6185  0.3592
  859MOL0     H15935  11.430   7.176   4.908  1.9105 -3.8942 -2.6080
  859MOL0     H15936  11.269   7.245   4.881  0.0168 -0.3860 -1.4665
  859MOL0     H15937  11.341   6.940   4.876  0.4651  0.4691  0.1853
  859MOL0     H15938  11.211   7.010   4.790  0.9189  1.3074  0.2138
  859MOL0     H15939  11.381   6.936   4.641 -0.4485 -0.1264  0.8640
  859MOL0     H15940  11.507   7.042   4.695  0.2609  5.6474 -1.9558
  859MOL0     H15941  11.283   7.117   4.523  0.9627 -0.7131 -1.2166
  859MOL0     H15942  11.323   7.228   4.656  2.2908  2.1577 -1.6375
  859MOL0     H15943  11.552   7.113   4.500  0.8224  0.5918 -1.1036
  859MOL0     H15944  11.558   7.243   4.612 -0.0898 -1.3908  1.5651
  859MOL0     H15945  11.415   7.239   4.342 -0.5166  0.6921 -0.4393
  859MOL0     H15946  11.561   7.326   4.361 -0.2783 -1.8218 -0.9281
  859MOL0     H15947  11.026   7.529   4.978  2.4246  0.6318  3.2133
  859MOL0     H15948  10.806   7.648   5.038 -2.3689 -0.0222 -1.2412
  859MOL0     H15949  10.582   7.566   5.416 -2.2256 -1.9826  0.9831
  859MOL0     H15950  10.467   7.655   5.607 -0.4088  1.7492  1.1877
  859MOL0     H15951  11.197   7.129   6.980  0.5610 -0.2037 -0.0098
  859MOL0     H15952  11.398   7.193   7.132 -2.2083 -4.3778 -0.4104
  859MOL0     H15953  11.670   7.362   7.346  0.2481 -0.5177 -0.4951
  859MOL0     H15954  11.871   7.459   7.438 -1.6036 -1.4687 -3.3989
  859MOL0     H15955  12.028   7.437   7.652  0.3270 -0.4979  0.1429
  859MOL0     H15956  12.070   7.557   7.779  3.6783 -4.3653  0.5840
  859MOL0     H15957  11.857   7.467   7.885 -2.0575 -1.6221 -0.6989
  859MOL0     H15958  12.003   7.387   7.919 -1.1692 -0.6782  0.3285
  859MOL0     H15959  11.967   7.196   7.772 -0.9193 -2.8258 -0.0404
  859MOL0     H15960  11.813   7.267   7.713  1.2812  0.0703 -1.3911
  859MOL0     H15961  11.718   7.278   7.929 -1.6002 -1.8833  2.5727
  859MOL0     H15962  11.883   7.220   7.996  1.9878 -1.5283 -1.3948
  859MOL0     H15963  11.679   6.861   7.925  1.0308 -0.7462  4.0460
  859MOL0     H15964  11.643   7.566   7.801 -4.9205  0.4573  0.6296
  859MOL0     H15965  11.441   7.456   7.699  0.4203  3.9319  1.4467
  860MOL0     O15966   7.959  11.333  11.279  0.1311 -0.0488  0.5244
  860MOL0     C15967   8.017  11.232  11.247  0.5085  0.3074 -0.4577
  860MOL0     O15968   8.138  11.192  11.304 -0.4799 -0.7942  0.2923
  860MOL0     C15969   8.212  11.295  11.363  0.0274  0.2492 -0.5829
  860MOL0     C15970   8.248  11.293  11.497  0.1600 -0.2753  0.0354
  860MOL0     C15971   8.316  11.399  11.551  0.0564 -0.8523  0.5404
  860MOL0     C15972   8.344  11.511  11.472 -0.2914  0.2323 -0.5661
  860MOL0     O15973   8.433  11.604  11.533  0.3162  0.2374 -0.3733
  860MOL0     C15974   8.511  11.681  11.439  1.0924  0.7936 -0.0025
  860MOL0     C15975   8.600  11.784  11.502 -1.5544 -0.2307  0.1867
  860MOL0     C15976   8.701  11.732  11.620 -0.2059 -0.7550  0.5526
  860MOL0     C15977   8.816  11.832  11.663  1.5550  0.2524  0.0214
  860MOL0     C15978   8.894  11.762  11.776 -0.5209 -0.0482  0.4950
  860MOL0     C15979   9.007  11.863  11.828  0.2447 -0.6503  0.8145
  860MOL0     C15980   9.093  11.800  11.940 -0.9531  0.7897  0.1107
  860MOL0     C15981   9.177  11.679  11.913  0.4895  0.7429 -0.6506
  860MOL0     N15982   9.097  11.550  11.934 -0.0444 -0.0076 -0.0387
  860MOL0     C15983   9.101  11.446  11.834 -0.1460  1.0256 -0.6345
  860MOL0     C15984   9.008  11.359  11.878 -0.6388  0.2392  0.2751
  860MOL0     C15985   8.981  11.231  11.811 -0.6240 -0.1049  0.6385
  860MOL0     C15986   9.032  11.107  11.893 -0.0379 -0.7305 -1.1169
  860MOL0     C15987   9.179  11.113  11.934 -0.9633  0.3607  0.3417
  860MOL0     C15988   9.269  11.079  11.810 -0.5750  0.4484 -0.7368
  860MOL0     O15989   9.410  11.121  11.847  0.4737 -0.7007  0.2862
  860MOL0     C15990   9.452  11.245  11.807  0.6101 -0.7906 -0.3695
  860MOL0     C15991   9.470  11.289  11.671 -1.8699 -0.5337  0.1719
  860MOL0     C15992   9.520  11.411  11.631  0.0619 -0.4842 -1.0146
  860MOL0     C15993   9.533  11.447  11.484 -0.4523  0.2846  0.0223
  860MOL0     C15994   9.532  11.506  11.732 -0.3900 -0.2745 -0.2436
  860MOL0     C15995   9.611  11.635  11.711  0.5863  0.1011  0.5609
  860MOL0     O15996   9.734  11.629  11.654  1.4010  0.5698 -0.2312
  860MOL0     C15997   9.820  11.728  11.686 -0.1578 -0.7713  1.0815
  860MOL0     C15998   9.885  11.778  11.575  0.6534  0.2901  0.2953
  860MOL0     C15999   9.981  11.888  11.592 -0.7529 -0.0590  0.7506
  860MOL0     C16000   9.999  11.946  11.712 -0.4261  0.8109 -0.0046
  860MOL0     O16001  10.089  12.044  11.725  0.1515 -0.1812  0.4058
  860MOL0     C16002  10.207  11.984  11.779  0.0754 -0.5545  0.5656
  860MOL0     C16003  10.235  12.017  11.936 -0.3050 -0.5727 -0.5269
  860MOL0     C16004  10.220  12.169  11.957 -0.1027 -0.1387 -1.4518
  860MOL0     C16005  10.167  12.206  12.101  0.0589  0.4147  1.1196
  860MOL0     C16006  10.281  12.206  12.206 -1.0262 -0.2823  0.0934
  860MOL0     C16007  10.227  12.249  12.347  0.5154 -0.2656  0.3308
  860MOL0     C16008  10.206  12.406  12.363 -0.4031  0.0578  0.0474
  860MOL0     C16009  10.105  12.433  12.465 -0.2599 -0.9322  0.0528
  860MOL0    Cl16010   9.939  12.385  12.418 -0.3690 -0.2244  0.3061
  860MOL0     C16011   9.929  11.890  11.826 -1.0932 -0.0688 -0.3865
  860MOL0     C16012   9.842  11.782  11.812 -0.1521  0.2066  0.1696
  860MOL0     O16013   9.543  11.737  11.738  0.2298  0.0368  0.7923
  860MOL0     C16014   9.503  11.476  11.860  1.0465 -0.7871 -0.2895
  860MOL0     C16015   9.464  11.349  11.898 -0.6931  1.2510  0.2520
  860MOL0     N16016   8.945  11.405  11.993 -0.2740  0.7648  0.1261
  860MOL0     N16017   9.007  11.514  12.030 -1.2781 -0.5181 -0.5532
  860MOL0     C16018   8.299  11.521  11.339 -0.0937  0.2251 -0.6496
  860MOL0     C16019   8.241  11.405  11.284  0.9236  0.9647  0.0792
  860MOL0     C16020   7.977  11.150  11.133  0.5907  0.7353  0.4744
  860MOL0     C16021   7.854  11.183  11.071 -0.3135  0.7592  0.1555
  860MOL0     C16022   7.810  11.106  10.953 -0.3330  1.1548 -0.0046
  860MOL0     C16023   7.893  11.017  10.897 -1.3632  0.4768  0.9462
  860MOL0     O16024   7.843  10.955  10.784 -0.3490  0.7956  0.6142
  860MOL0     C16025   7.932  10.877  10.701  0.3647 -0.7598 -0.3230
  860MOL0     C16026   7.858  10.854  10.571  0.0685  0.2212  0.2120
  860MOL0     C16027   7.749  10.747  10.562  0.6858  0.8217 -0.0401
  860MOL0     C16028   7.722  10.711  10.412 -0.0250  0.2524  0.5701
  860MOL0     C16029   7.606  10.630  10.402  0.2569 -0.5019 -0.4936
  860MOL0     C16030   7.526  10.542  10.396  0.4806 -0.1164 -0.0533
  860MOL0     C16031   8.004  10.970  10.964 -0.1113  0.3761  0.0007
  860MOL0     C16032   8.038  11.031  11.089 -1.1697 -0.4386 -0.1511
  860MOL0     H16033   8.205  11.211  11.554 -0.2270  0.3304  0.6240
  860MOL0     H16034   8.351  11.402  11.654  1.0786  2.3676  0.2157
  860MOL0     H16035   8.564  11.601  11.387  2.9817  1.3843  0.9152
  860MOL0     H16036   8.446  11.727  11.364 -0.1505 -2.5139 -1.1229
  860MOL0     H16037   8.659  11.826  11.420  1.2876 -2.7162  0.7857
  860MOL0     H16038   8.548  11.868  11.549 -1.1180 -0.2852  0.7852
  860MOL0     H16039   8.650  11.702  11.712  2.8306 -4.4834  1.2843
  860MOL0     H16040   8.744  11.636  11.589  0.9955 -0.6400  1.7630
  860MOL0     H16041   8.877  11.846  11.574 -1.3058  1.0515 -1.9523
  860MOL0     H16042   8.774  11.927  11.696  0.4722 -0.7228  1.6642
  860MOL0     H16043   8.825  11.715  11.847 -1.3321 -1.2970 -1.0542
  860MOL0     H16044   8.929  11.668  11.731  2.5743  1.1026  0.2732
  860MOL0     H16045   9.065  11.913  11.749 -2.2917  0.9207 -0.1706
  860MOL0     H16046   8.951  11.948  11.867 -0.0940 -0.8092  0.6876
  860MOL0     H16047   9.153  11.879  11.987 -2.2104  1.4082  0.7504
  860MOL0     H16048   9.013  11.766  12.006 -2.4331 -1.9677 -2.8270
  860MOL0     H16049   9.263  11.679  11.980  0.9583 -2.5353 -1.0848
  860MOL0     H16050   9.218  11.678  11.811  1.6033 -0.4769 -0.2167
  860MOL0     H16051   9.175  11.442  11.755  2.9078  3.6557  1.7948
  860MOL0     H16052   8.873  11.227  11.798 -0.3009 -2.0008 -2.2670
  860MOL0     H16053   9.033  11.231  11.715  1.8776 -0.3607  1.9023
  860MOL0     H16054   9.006  11.018  11.835  0.8897  0.0555 -2.8179
  860MOL0     H16055   8.987  11.097  11.992  3.1196  0.0248  0.5464
  860MOL0     H16056   9.207  11.041  12.011  1.1586  4.0485  3.3981
  860MOL0     H16057   9.222  11.207  11.972  3.7139 -0.0576 -2.9643
  860MOL0     H16058   9.239  11.133  11.720 -0.4861  0.1383 -0.9561
  860MOL0     H16059   9.251  10.976  11.778 -0.2460  0.1103  0.1438
  860MOL0     H16060   9.460  11.212  11.596  0.7079 -1.0138  0.2134
  860MOL0     H16061   9.484  11.375  11.417  1.2149 -0.5551 -0.3557
  860MOL0     H16062   9.481  11.542  11.492 -2.0609 -0.6727  1.7444
  860MOL0     H16063   9.636  11.470  11.455 -1.0871  2.0795 -0.9461
  860MOL0     H16064   9.882  11.714  11.488  2.3955  0.8802 -0.2352
  860MOL0     H16065  10.034  11.931  11.507  1.9600 -1.7695  1.4372
  860MOL0     H16066  10.221  11.877  11.767  1.1963 -0.6000  2.0017
  860MOL0     H16067  10.288  12.026  11.719  0.3357 -0.7402  0.7853
  860MOL0     H16068  10.188  11.955  12.013 -0.9003  2.1222  1.4385
  860MOL0     H16069  10.340  11.996  11.960 -0.9337 -0.9213  2.2324
  860MOL0     H16070  10.148  12.209  11.884 -1.7927 -0.4235 -0.0094
  860MOL0     H16071  10.319  12.209  11.933  0.0910  3.7582  4.0497
  860MOL0     H16072  10.113  12.300  12.095 -0.0652  0.4555  2.4769
  860MOL0     H16073  10.092  12.132  12.132  0.0086 -1.0909 -2.1236
  860MOL0     H16074  10.366  12.268  12.178  1.0025 -1.2905  3.3832
  860MOL0     H16075  10.323  12.104  12.210  0.1028  0.1332 -0.6588
  860MOL0     H16076  10.129  12.203  12.363 -0.2672  0.6128 -1.5575
  860MOL0     H16077  10.300  12.218  12.422 -1.6916  1.2063  3.3197
  860MOL0     H16078  10.168  12.452  12.271  1.5643  1.0277 -0.3416
  860MOL0     H16079  10.295  12.458  12.399  0.0518  0.0400 -1.0004
  860MOL0     H16080  10.110  12.540  12.487  0.3630 -0.4940 -1.9678
  860MOL0     H16081  10.130  12.372  12.552  0.6212 -5.8031 -3.1713
  860MOL0     H16082   9.956  11.933  11.922 -0.9212 -2.1377  0.5533
  860MOL0     H16083   9.793  11.737  11.897  5.0346 -4.4337  1.2671
  860MOL0     H16084   9.510  11.555  11.934  1.3492 -1.4528  0.4085
  860MOL0     H16085   9.456  11.321  12.002  1.6364 -0.3951  0.0921
  860MOL0     H16086   8.311  11.613  11.283  1.3085  0.6304  0.2473
  860MOL0     H16087   8.216  11.410  11.179 -0.2176 -3.4881 -0.0609
  860MOL0     H16088   7.800  11.269  11.109 -1.8538 -0.6081  1.2156
  860MOL0     H16089   7.720  11.135  10.899  0.3036  0.2168 -1.6660
  860MOL0     H16090   8.027  10.927  10.682 -0.6364  0.8678 -1.3763
  860MOL0     H16091   7.941  10.780  10.751 -2.1394 -2.8409 -3.4976
  860MOL0     H16092   7.945  10.822  10.512 -0.4696  0.6564 -0.8233
  860MOL0     H16093   7.805  10.938  10.527 -5.9795 -2.7670  0.8481
  860MOL0     H16094   7.656  10.791  10.599  0.1382  0.0146 -0.4273
  860MOL0     H16095   7.778  10.654  10.612 -3.2438 -0.9835 -0.7263
  860MOL0     H16096   7.818  10.668  10.380 -1.2616 -0.6672 -2.1511
  860MOL0     H16097   7.687  10.801  10.361  1.7225  0.5758 -0.1507
  860MOL0     H16098   7.449  10.467  10.396  1.3277 -1.0104 -0.3204
  860MOL0     H16099   8.070  10.892  10.926  1.6236  0.7947  1.9308
  860MOL0     H16100   8.118  10.990  11.151 -1.4476 -2.8426 -1.2667
  861MOL0     O16101   5.688   7.429   3.676 -0.2750 -0.3851 -0.1069
  861MOL0     C16102   5.593   7.509   3.709 -0.4840  0.4384 -1.2155
  861MOL0     O16103   5.567   7.630   3.648 -0.2647  0.2955 -0.5205
  861MOL0     C16104   5.657   7.673   3.541  0.5830  0.6542 -0.3036
  861MOL0     C16105   5.673   7.814   3.525  0.6132 -0.1777 -0.3480
  861MOL0     C16106   5.761   7.860   3.429  0.1481 -0.0002  0.3450
  861MOL0     C16107   5.825   7.767   3.343 -0.7038 -0.4387  0.4145
  861MOL0     O16108   5.906   7.807   3.244 -0.2651  0.1787 -0.5789
  861MOL0     C16109   6.038   7.762   3.249 -0.4507  0.7232  0.3087
  861MOL0     C16110   6.121   7.863   3.188 -1.0438  0.1333 -1.2703
  861MOL0     C16111   6.106   7.864   3.042 -0.4890 -0.8826  0.5522
  861MOL0     C16112   6.207   7.954   2.958 -0.7138 -0.3961  0.5133
  861MOL0     C16113   6.149   7.990   2.827  0.3538  0.3304 -0.1594
  861MOL0     C16114   6.210   7.902   2.719  0.1350  0.5362 -0.2994
  861MOL0     C16115   6.156   7.942   2.579  0.0603  0.1458  0.0719
  861MOL0     C16116   6.023   7.854   2.551  0.5710 -0.9656  0.5046
  861MOL0     N16117   5.987   7.860   2.411 -0.8320  0.0309  0.1850
  861MOL0     C16118   6.002   7.752   2.327  0.1807 -0.3077 -0.7266
  861MOL0     C16119   6.002   7.811   2.201 -0.4198 -0.6082 -1.1126
  861MOL0     C16120   6.036   7.741   2.081 -0.0614  0.3037 -0.2784
  861MOL0     C16121   6.183   7.768   2.043 -0.1897  0.4254  0.5931
  861MOL0     C16122   6.217   7.678   1.921  0.3217  0.9635  1.2949
  861MOL0     C16123   6.342   7.597   1.943 -0.6904 -0.0722 -0.9763
  861MOL0     O16124   6.361   7.487   1.859  0.4699 -0.1212  0.3142
  861MOL0     C16125   6.384   7.524   1.724  0.6089  0.8149 -0.4039
  861MOL0     C16126   6.408   7.650   1.668 -0.3748  0.2927  0.5598
  861MOL0     C16127   6.451   7.648   1.529  0.1448 -1.4536  0.4631
  861MOL0     C16128   6.494   7.791   1.480 -0.0166 -0.0579  0.7503
  861MOL0     C16129   6.442   7.534   1.451 -0.1806  0.7685 -0.4181
  861MOL0     C16130   6.492   7.528   1.305  0.2875 -0.1626 -1.6224
  861MOL0     O16131   6.449   7.417   1.246 -0.6925  0.4387 -0.4379
  861MOL0     C16132   6.449   7.400   1.108 -0.4956  0.4761 -0.4673
  861MOL0     C16133   6.406   7.275   1.066  0.2222 -0.8652  0.1151
  861MOL0     C16134   6.425   7.241   0.926 -0.0855  0.9497  0.8061
  861MOL0     C16135   6.437   7.340   0.828  0.2404 -0.5318 -0.5246
  861MOL0     O16136   6.449   7.322   0.688  0.5739 -0.2379 -1.2313
  861MOL0     C16137   6.454   7.186   0.644 -0.2441 -0.6034  0.8344
  861MOL0     C16138   6.463   7.191   0.498  0.5208 -0.3814  0.3542
  861MOL0     C16139   6.381   7.084   0.421  0.4279  0.1894  0.5827
  861MOL0     C16140   6.232   7.095   0.421  0.1528  0.1731  0.1534
  861MOL0     C16141   6.154   6.998   0.334 -0.3736  0.1464 -0.0264
  861MOL0     C16142   6.168   7.022   0.185 -0.2052 -0.4418 -0.5439
  861MOL0     C16143   6.032   7.056   0.117  0.2833 -0.5050  0.0499
  861MOL0     C16144   6.047   7.053  -0.033 -0.5100  0.4704 -0.0381
  861MOL0    Cl16145   5.890   7.085  -0.120  0.0627 -0.1010  0.3274
  861MOL0     C16146   6.460   7.470   0.876 -0.9044  0.1744 -0.0830
  861MOL0     C16147   6.467   7.498   1.014  0.4876  0.4835 -0.9883
  861MOL0     O16148   6.581   7.604   1.267 -0.1468  0.3046  0.6039
  861MOL0     C16149   6.421   7.408   1.522 -0.4610  0.2944  0.4115
  861MOL0     C16150   6.382   7.405   1.654  0.8315 -0.2949  0.5239
  861MOL0     N16151   5.971   7.947   2.214  0.7425  0.0848  0.5344
  861MOL0     N16152   5.968   7.973   2.336 -0.4290 -0.6322  0.2487
  861MOL0     C16153   5.814   7.634   3.366  0.1568  0.5481  0.4974
  861MOL0     C16154   5.722   7.583   3.458  0.9243 -0.0572 -0.5730
  861MOL0     C16155   5.515   7.491   3.837 -0.6148  0.6701 -0.4655
  861MOL0     C16156   5.440   7.598   3.892 -0.6202  0.6509 -0.2172
  861MOL0     C16157   5.352   7.579   3.996 -0.3658  0.1878  0.1690
  861MOL0     C16158   5.346   7.452   4.059 -0.2289 -0.7868  0.8808
  861MOL0     O16159   5.260   7.422   4.164  0.0073  0.4415  0.0719
  861MOL0     C16160   5.165   7.510   4.206  0.7541 -0.1281 -0.2203
  861MOL0     C16161   5.054   7.421   4.254  0.0394  0.8075 -0.7392
  861MOL0     C16162   5.098   7.345   4.377  0.7575  0.0558 -0.9661
  861MOL0     C16163   4.999   7.225   4.414  0.3241  1.0762  0.7118
  861MOL0     C16164   4.886   7.270   4.496 -0.1290 -0.2550 -1.6143
  861MOL0     C16165   4.812   7.347   4.552 -0.3735 -0.1872 -0.4102
  861MOL0     C16166   5.426   7.345   4.004  0.9412  0.0224  0.3864
  861MOL0     C16167   5.510   7.365   3.894  0.3516 -0.0579 -0.2701
  861MOL0     H16168   5.632   7.877   3.603 -2.7899 -3.6853  1.0656
  861MOL0     H16169   5.771   7.968   3.435 -0.3377 -0.0070  4.2387
  861MOL0     H16170   6.068   7.749   3.354  2.0683 -0.6169 -0.4838
  861MOL0     H16171   6.052   7.661   3.211 -0.4159 -0.7998  3.9333
  861MOL0     H16172   6.090   7.963   3.222 -3.3020 -0.6794 -0.7458
  861MOL0     H16173   6.224   7.840   3.217 -2.0445  0.7399  3.6681
  861MOL0     H16174   6.106   7.760   3.008 -2.2395 -0.4348 -0.9856
  861MOL0     H16175   6.005   7.891   3.012  0.8321  1.0084 -2.7410
  861MOL0     H16176   6.226   8.045   3.016 -2.3863  2.3298 -2.8700
  861MOL0     H16177   6.303   7.904   2.942  1.1708  1.9026  3.5691
  861MOL0     H16178   6.040   7.985   2.823  0.4053 -1.2885 -0.1116
  861MOL0     H16179   6.177   8.095   2.815  1.9917  0.0132  0.4851
  861MOL0     H16180   6.318   7.918   2.715  0.8700 -3.0540  1.2230
  861MOL0     H16181   6.190   7.795   2.736 -2.7222  1.1202  0.7662
  861MOL0     H16182   6.136   8.049   2.585  4.3199  1.1284  0.0798
  861MOL0     H16183   6.226   7.929   2.497  2.3658  3.6655  1.2916
  861MOL0     H16184   5.935   7.890   2.605  1.1716  1.7060 -0.1451
  861MOL0     H16185   6.044   7.750   2.576 -1.6207 -1.6169 -0.1556
  861MOL0     H16186   6.025   7.650   2.355  0.0429 -0.5371 -1.4392
  861MOL0     H16187   6.034   7.632   2.096  0.4220  0.2211 -0.7931
  861MOL0     H16188   5.961   7.763   2.005 -0.7361  0.5214  0.4356
  861MOL0     H16189   6.254   7.746   2.123  2.2827  0.3298 -1.4725
  861MOL0     H16190   6.193   7.875   2.026 -1.5924  0.6127  0.8008
  861MOL0     H16191   6.221   7.736   1.828 -1.9468 -1.2121 -0.2740
  861MOL0     H16192   6.140   7.602   1.908 -1.2170  1.8036  4.3623
  861MOL0     H16193   6.327   7.557   2.044  0.0961  4.4596  1.2205
  861MOL0     H16194   6.432   7.660   1.944 -0.9233  0.2641 -0.7973
  861MOL0     H16195   6.425   7.739   1.728  0.6008  0.2974  0.2898
  861MOL0     H16196   6.566   7.846   1.540  1.3103  0.8558 -1.5441
  861MOL0     H16197   6.550   7.795   1.386 -0.1079  3.6152  0.6941
  861MOL0     H16198   6.408   7.856   1.460 -0.5572  0.1790  3.4798
  861MOL0     H16199   6.371   7.193   1.127  0.8675 -2.1981 -1.2149
  861MOL0     H16200   6.400   7.138   0.903 -0.5688  1.5727 -1.6709
  861MOL0     H16201   6.539   7.136   0.690 -0.2480 -3.3632 -1.8579
  861MOL0     H16202   6.365   7.131   0.675  0.5771 -2.7672 -0.4270
  861MOL0     H16203   6.427   7.289   0.466  0.7742  0.6435  2.9984
  861MOL0     H16204   6.567   7.198   0.465  0.8390  2.1264  1.6036
  861MOL0     H16205   6.406   6.984   0.460  2.9885 -0.1602 -1.6112
  861MOL0     H16206   6.418   7.099   0.319  3.5300  2.9601  1.8957
  861MOL0     H16207   6.199   7.073   0.523 -1.9669 -0.4666 -0.5994
  861MOL0     H16208   6.198   7.190   0.380  2.3295  0.3032 -1.5122
  861MOL0     H16209   6.051   7.015   0.367 -0.4734  1.8401 -1.1006
  861MOL0     H16210   6.177   6.892   0.350  1.8526  0.9230  2.7871
  861MOL0     H16211   6.241   7.103   0.176  0.7392 -0.9753  1.7010
  861MOL0     H16212   6.222   6.937   0.141 -0.9122 -0.1796 -1.9901
  861MOL0     H16213   5.974   7.143   0.151  2.9335  1.2055  0.5453
  861MOL0     H16214   5.964   6.974   0.139 -0.8047  0.3329 -0.0581
  861MOL0     H16215   6.072   6.950  -0.059  2.0383  1.4405 -1.8211
  861MOL0     H16216   6.117   7.124  -0.079  1.1696 -0.9502  0.2509
  861MOL0     H16217   6.473   7.554   0.809 -2.9379 -0.7648 -1.7864
  861MOL0     H16218   6.490   7.602   1.035  0.6872  0.0866  1.0696
  861MOL0     H16219   6.438   7.312   1.475  3.5311  0.4760  1.1355
  861MOL0     H16220   6.358   7.319   1.716 -1.1116 -1.3102 -1.4812
  861MOL0     H16221   5.868   7.549   3.326 -0.5034 -0.5326  1.8081
  861MOL0     H16222   5.697   7.477   3.456  0.1398  0.1285 -0.6279
  861MOL0     H16223   5.464   7.695   3.850 -2.2368  0.4853 -1.6638
  861MOL0     H16224   5.300   7.667   4.033 -2.6435  0.1321 -2.5957
  861MOL0     H16225   5.202   7.575   4.285 -1.0339  0.0127  0.5339
  861MOL0     H16226   5.127   7.582   4.133 -1.6644  0.7117  1.7435
  861MOL0     H16227   5.017   7.344   4.186 -0.9098  0.9484 -0.4087
  861MOL0     H16228   4.963   7.478   4.278  0.8247  1.5683  0.5885
  861MOL0     H16229   5.132   7.404   4.463 -0.7378  2.6514 -2.0549
  861MOL0     H16230   5.186   7.286   4.349  0.7055 -1.4499  1.6609
  861MOL0     H16231   5.062   7.142   4.449  1.7986  0.7793 -2.3170
  861MOL0     H16232   4.951   7.185   4.324  0.8314  0.0078  0.9031
  861MOL0     H16233   4.744   7.407   4.609  2.1335  1.8362  0.6277
  861MOL0     H16234   5.412   7.244   4.042 -0.1175  0.4348  1.1316
  861MOL0     H16235   5.571   7.284   3.854  2.2967 -0.5088  3.2107
  862MOL0     O16236   8.830  10.086   3.455  0.4079  1.0608  0.0274
  862MOL0     C16237   8.837  10.140   3.565 -0.0059 -0.1002  0.1328
  862MOL0     O16238   8.920  10.100   3.662 -0.0276  0.1520 -0.0955
  862MOL0     C16239   8.986   9.975   3.669  0.9589  0.3770 -0.6451
  862MOL0     C16240   8.985   9.911   3.791 -0.0670  0.3136 -0.4305
  862MOL0     C16241   9.045   9.786   3.815 -0.2702  0.5407 -0.7406
  862MOL0     C16242   9.081   9.705   3.709  0.4331 -0.4898 -0.4245
  862MOL0     O16243   9.102   9.577   3.722 -0.1714 -0.4638 -0.1877
  862MOL0     C16244   9.238   9.537   3.684 -0.0507  0.3089 -0.0053
  862MOL0     C16245   9.261   9.430   3.575  0.2706  0.0855 -1.5980
  862MOL0     C16246   9.230   9.280   3.621  0.1486  0.9236  0.1511
  862MOL0     C16247   9.086   9.255   3.668  0.4469 -0.0188  1.5110
  862MOL0     C16248   9.041   9.129   3.738 -0.1793  1.0548  0.0442
  862MOL0     C16249   9.012   9.013   3.644 -0.1103 -0.3758  0.1906
  862MOL0     C16250   8.977   8.879   3.709  0.1547 -0.6560 -0.8475
  862MOL0     C16251   8.953   8.768   3.610 -0.1516  0.7889  0.0970
  862MOL0     N16252   8.957   8.636   3.671  0.1912 -0.3299 -0.2455
  862MOL0     C16253   9.056   8.564   3.721  0.7642  0.7190  0.4767
  862MOL0     C16254   9.001   8.465   3.796  0.0443 -0.2639 -0.3497
  862MOL0     C16255   9.068   8.362   3.883  0.4243 -0.6641  0.2872
  862MOL0     C16256   9.101   8.235   3.811 -0.1701 -0.1163  0.5074
  862MOL0     C16257   9.223   8.156   3.872  0.5086 -0.3744 -0.4040
  862MOL0     C16258   9.200   8.101   4.010  0.9121  0.6374  0.4506
  862MOL0     O16259   9.311   8.008   4.043 -0.4715  0.4808  0.7117
  862MOL0     C16260   9.292   7.917   4.144 -0.2397  1.1056  0.0371
  862MOL0     C16261   9.212   7.937   4.256  0.8535  0.0848 -0.1834
  862MOL0     C16262   9.184   7.834   4.361 -1.3295  0.0656 -0.3229
  862MOL0     C16263   9.091   7.852   4.484  0.7227  0.5832  0.1815
  862MOL0     C16264   9.267   7.720   4.348 -0.6418 -0.1338  0.5853
  862MOL0     C16265   9.265   7.607   4.454 -0.0244  0.2121  1.3649
  862MOL0     O16266   9.328   7.611   4.569 -1.2565  0.1682  1.3308
  862MOL0     C16267   9.422   7.708   4.593 -0.0006  1.4584 -0.8115
  862MOL0     C16268   9.404   7.835   4.665  0.3015  0.2073  0.0795
  862MOL0     C16269   9.511   7.928   4.680 -0.0996  0.7068  0.5722
  862MOL0     C16270   9.632   7.893   4.624 -0.1207 -0.8212 -0.3789
  862MOL0     O16271   9.736   7.983   4.615  0.9515 -0.0503  0.3160
  862MOL0     C16272   9.779   8.035   4.740  0.3669 -0.0859  0.5728
  862MOL0     C16273   9.816   7.943   4.849 -0.3930  0.2055 -0.1449
  862MOL0     C16274   9.936   7.863   4.808 -0.7382 -0.0601  0.1919
  862MOL0     C16275  10.030   7.843   4.933 -0.2728  0.3655  0.0637
  862MOL0     C16276   9.963   7.766   5.047 -0.3133 -0.3682 -0.2016
  862MOL0     C16277  10.060   7.718   5.157 -0.3218 -0.2618  0.6270
  862MOL0     C16278   9.991   7.618   5.243  0.2898 -0.6353  0.8689
  862MOL0     C16279  10.091   7.537   5.330  0.8562  0.2047 -0.5035
  862MOL0    Cl16280  10.201   7.454   5.219 -0.7237  0.6800  0.0134
  862MOL0     C16281   9.649   7.764   4.568  0.8326 -0.0978 -0.0151
  862MOL0     C16282   9.550   7.669   4.557 -0.1501 -0.2375 -0.5487
  862MOL0     O16283   9.198   7.513   4.424  0.6899  0.7702  0.0459
  862MOL0     C16284   9.360   7.706   4.242  0.1883 -0.1874 -0.5043
  862MOL0     C16285   9.366   7.796   4.138 -0.7613  0.8631  0.8095
  862MOL0     N16286   8.863   8.475   3.782  0.6481 -0.3354  0.1028
  862MOL0     N16287   8.844   8.557   3.684  0.0084 -0.0577 -0.3481
  862MOL0     C16288   9.091   9.772   3.590  0.1066  0.3298  0.9047
  862MOL0     C16289   9.039   9.898   3.564  0.9327  0.6539 -0.3493
  862MOL0     C16290   8.757  10.260   3.581 -0.6609 -0.2533  0.5491
  862MOL0     C16291   8.809  10.389   3.593 -0.2837  1.0722 -0.5616
  862MOL0     C16292   8.734  10.510   3.593 -0.5679  0.2285  0.6030
  862MOL0     C16293   8.597  10.494   3.612 -0.1276  0.1326  1.1411
  862MOL0     O16294   8.511  10.599   3.651 -0.4782 -0.0197  0.1560
  862MOL0     C16295   8.520  10.733   3.612  0.4420  1.0662  0.0107
  862MOL0     C16296   8.507  10.808   3.742 -0.5442 -0.1277  0.2920
  862MOL0     C16297   8.457  10.950   3.696 -0.2883 -0.4805 -0.4595
  862MOL0     C16298   8.397  11.040   3.802  0.5831 -0.1692 -0.7420
  862MOL0     C16299   8.503  11.088   3.888 -0.8032 -0.5490 -0.1001
  862MOL0     C16300   8.591  11.114   3.965  0.2820  1.0156 -0.2687
  862MOL0     C16301   8.542  10.364   3.596  0.4492  0.0016  0.2364
  862MOL0     C16302   8.623  10.251   3.568  0.6589 -0.5599  0.0164
  862MOL0     H16303   8.927   9.969   3.862  3.2572  0.2214  2.6775
  862MOL0     H16304   9.041   9.745   3.915 -0.8609 -0.1674 -1.0437
  862MOL0     H16305   9.289   9.622   3.639  0.3724 -1.1791 -2.4838
  862MOL0     H16306   9.287   9.493   3.771  0.5660 -1.1380 -1.0470
  862MOL0     H16307   9.182   9.445   3.501 -1.0918 -3.2895 -1.0022
  862MOL0     H16308   9.359   9.432   3.526  1.1651 -1.9664 -0.0481
  862MOL0     H16309   9.261   9.205   3.548  1.4047  1.9376 -0.3847
  862MOL0     H16310   9.288   9.268   3.713 -4.5310 -3.2653  3.0772
  862MOL0     H16311   9.053   9.340   3.728 -3.0512 -1.5751  2.0159
  862MOL0     H16312   9.017   9.258   3.583  0.0590 -0.3033  1.8137
  862MOL0     H16313   9.118   9.104   3.811 -1.1942 -2.3386  0.0818
  862MOL0     H16314   8.948   9.154   3.790 -0.9489  1.6222 -1.5158
  862MOL0     H16315   8.930   9.043   3.579 -0.8274 -1.3782  0.6197
  862MOL0     H16316   9.099   8.996   3.581 -1.1566 -1.1941 -1.0714
  862MOL0     H16317   9.066   8.863   3.771  0.0210  2.0538  0.1803
  862MOL0     H16318   8.891   8.894   3.774  2.9424 -0.9268  3.3021
  862MOL0     H16319   9.033   8.757   3.536  1.7485 -3.6948  2.4196
  862MOL0     H16320   8.854   8.786   3.566  0.0621  2.1828  0.1400
  862MOL0     H16321   9.161   8.592   3.712  1.0079  0.1427  1.3969
  862MOL0     H16322   9.164   8.413   3.897  1.3435 -1.4132 -2.5715
  862MOL0     H16323   9.009   8.345   3.973 -2.9201 -0.5231 -1.7267
  862MOL0     H16324   9.123   8.264   3.708 -1.1716  0.7219  0.5182
  862MOL0     H16325   9.013   8.169   3.804 -0.8475  0.9287 -3.8274
  862MOL0     H16326   9.313   8.218   3.870 -0.9029  2.2281  3.7367
  862MOL0     H16327   9.244   8.083   3.794 -0.1852 -2.2721  1.1212
  862MOL0     H16328   9.109   8.040   4.009  1.4518 -0.1786  0.0730
  862MOL0     H16329   9.191   8.179   4.086 -1.0210  1.2179 -0.3158
  862MOL0     H16330   9.149   8.025   4.257 -0.4616 -0.7485 -2.0485
  862MOL0     H16331   9.010   7.780   4.468 -0.0710  2.0351 -3.4129
  862MOL0     H16332   9.143   7.823   4.575  0.6252 -0.9264 -0.2138
  862MOL0     H16333   9.049   7.953   4.484 -1.0786 -0.0532 -2.3151
  862MOL0     H16334   9.311   7.880   4.700  0.2585  0.3933 -0.2684
  862MOL0     H16335   9.488   8.030   4.707  2.8281  2.1010 -1.5573
  862MOL0     H16336   9.856   8.105   4.708  0.9333 -0.8864  0.1418
  862MOL0     H16337   9.691   8.091   4.772  1.2796  0.4836  2.2114
  862MOL0     H16338   9.838   8.004   4.937  2.4143  0.0612 -0.6600
  862MOL0     H16339   9.731   7.882   4.880 -0.3293  1.2380  2.3168
  862MOL0     H16340   9.999   7.919   4.739  2.6438  3.4237  5.3794
  862MOL0     H16341   9.904   7.769   4.762 -1.1454  0.2052 -0.0765
  862MOL0     H16342  10.121   7.785   4.916 -0.6108 -0.6623  1.5223
  862MOL0     H16343  10.047   7.940   4.979 -0.7224  1.1873 -1.4262
  862MOL0     H16344   9.906   7.685   5.001 -4.2324  1.5159  0.9373
  862MOL0     H16345   9.892   7.834   5.093 -0.5169 -0.5227 -0.2828
  862MOL0     H16346  10.155   7.684   5.112 -0.9273 -0.7812 -0.3026
  862MOL0     H16347  10.100   7.795   5.223  1.6530 -0.0379 -0.7211
  862MOL0     H16348   9.945   7.545   5.177  0.7426 -0.6382  0.5476
  862MOL0     H16349   9.909   7.658   5.304  0.1814 -1.6136  1.3847
  862MOL0     H16350  10.032   7.465   5.387 -2.2439  2.6421 -0.3945
  862MOL0     H16351  10.135   7.607   5.402 -3.6765  3.5387 -0.5673
  862MOL0     H16352   9.750   7.740   4.538  0.3629 -0.4030 -1.4233
  862MOL0     H16353   9.568   7.578   4.501  4.7375 -0.5697  1.0580
  862MOL0     H16354   9.426   7.620   4.242  1.3741  0.7046 -0.6392
  862MOL0     H16355   9.441   7.787   4.060 -0.1076 -1.7724  1.6386
  862MOL0     H16356   9.116   9.705   3.508 -2.6207 -1.0171  1.0476
  862MOL0     H16357   9.049   9.935   3.462  3.5469  0.5738 -0.1821
  862MOL0     H16358   8.917  10.393   3.589  0.1186 -1.7577  2.7413
  862MOL0     H16359   8.774  10.610   3.607 -0.4773 -0.0567  2.5693
  862MOL0     H16360   8.609  10.751   3.550  1.0624 -0.9206  0.2638
  862MOL0     H16361   8.435  10.760   3.549  0.4076  0.0451 -0.3894
  862MOL0     H16362   8.601  10.806   3.798 -0.3274 -0.9156 -0.0862
  862MOL0     H16363   8.431  10.756   3.802 -2.0413  3.0911  1.4171
  862MOL0     H16364   8.372  10.931   3.630  0.6703 -3.0551 -1.0302
  862MOL0     H16365   8.541  10.994   3.642  0.9665 -0.7935  1.1762
  862MOL0     H16366   8.337  10.975   3.867 -0.2786  1.2495 -0.0871
  862MOL0     H16367   8.345  11.124   3.756  2.2252  0.9058 -0.7068
  862MOL0     H16368   8.659  11.111   4.047  2.2785  0.0379 -1.8698
  862MOL0     H16369   8.435  10.352   3.589  0.5109  0.1031 -1.3266
  862MOL0     H16370   8.584  10.157   3.531  3.2423 -1.3471 -0.9469
  863MOL0     O16371  10.462   0.381   3.074 -0.5655  0.0053 -0.3954
  863MOL0     C16372  10.488   0.503   3.054 -0.7102  0.7319 -0.7649
  863MOL0     O16373  10.522   0.592   3.153 -0.2635  0.0888 -0.0636
  863MOL0     C16374  10.520   0.546   3.285  1.2667  1.2927  0.0987
  863MOL0     C16375  10.411   0.584   3.361  0.0099 -0.4679  0.1392
  863MOL0     C16376  10.391   0.532   3.487  0.1161 -0.4835  0.4431
  863MOL0     C16377  10.487   0.456   3.556  0.1537  0.2205 -0.3397
  863MOL0     O16378  10.452   0.410   3.684 -0.0767 -0.0854  0.7312
  863MOL0     C16379  10.453   0.274   3.715 -0.0682  0.4245  0.2998
  863MOL0     C16380  10.356   0.195   3.633 -1.0029 -0.1389  0.5583
  863MOL0     C16381  10.360   0.054   3.679  0.0193 -0.1992 -0.0628
  863MOL0     C16382  10.233  -0.011   3.622  0.0798  0.0984 -0.7138
  863MOL0     C16383  10.209  -0.152   3.690  0.2814 -1.2098  1.0687
  863MOL0     C16384  10.118  -0.238   3.597  0.2699 -0.2474  0.5090
  863MOL0     C16385  10.084  -0.378   3.646 -0.0116 -0.3549  0.6287
  863MOL0     C16386  10.215  -0.464   3.648 -0.2336 -0.1266  0.3068
  863MOL0     N16387  10.158  -0.607   3.637  0.2339  0.5185  0.0126
  863MOL0     C16388  10.158  -0.682   3.522  0.3612 -0.2815  0.7984
  863MOL0     C16389  10.118  -0.806   3.565  0.5060  0.7412 -0.2620
  863MOL0     C16390  10.117  -0.938   3.487  1.3532 -0.1745  0.6772
  863MOL0     C16391  10.253  -1.001   3.498  0.4850 -0.2447  0.4548
  863MOL0     C16392  10.254  -1.110   3.618  0.6170 -0.2425  0.5780
  863MOL0     C16393  10.194  -1.260   3.594 -0.4629 -0.0239 -0.4563
  863MOL0     O16394  10.285  -1.334   3.514 -0.6578 -0.5274 -0.4092
  863MOL0     C16395  10.370  -1.416   3.579  0.8640  0.5425  0.6625
  863MOL0     C16396  10.393  -1.535   3.509  1.6520 -0.5237  0.3022
  863MOL0     C16397  10.467  -1.641   3.568 -0.0400  0.1460  0.4823
  863MOL0     C16398  10.505  -1.768   3.486  0.0452 -0.7597  0.2009
  863MOL0     C16399  10.532  -1.623   3.694 -0.5380 -0.5940 -0.2945
  863MOL0     C16400  10.629  -1.710   3.763  0.1473  0.1659  0.3765
  863MOL0     O16401  10.752  -1.738   3.719  0.2778 -1.6256  0.2049
  863MOL0     C16402  10.850  -1.795   3.796  0.3360  0.9069 -0.2213
  863MOL0     C16403  10.853  -1.924   3.835 -0.6497 -0.1479  0.6235
  863MOL0     C16404  10.962  -1.978   3.902  0.0713  0.1033 -1.0421
  863MOL0     C16405  11.069  -1.905   3.943 -0.7629 -1.2944 -0.0501
  863MOL0     O16406  11.169  -1.975   4.009 -0.3699  0.4161 -0.1338
  863MOL0     C16407  11.269  -1.889   4.072 -0.2913 -0.0365  0.0371
  863MOL0     C16408  11.326  -1.959   4.184 -0.3334  0.3862  0.1287
  863MOL0     C16409  11.444  -1.876   4.255  0.0896  0.6233 -0.5530
  863MOL0     C16410  11.503  -1.941   4.383  1.1638 -0.3143  0.9782
  863MOL0     C16411  11.386  -1.970   4.486 -0.2962 -0.5588  0.4251
  863MOL0     C16412  11.441  -1.970   4.632  0.8896  0.7353  0.8449
  863MOL0     C16413  11.503  -1.841   4.682  0.7655  0.3985  0.1097
  863MOL0     C16414  11.542  -1.852   4.832 -0.1412 -0.2201  0.6475
  863MOL0    Cl16415  11.687  -1.975   4.833 -0.0942 -0.4648 -0.0128
  863MOL0     C16416  11.078  -1.775   3.881  0.0960  0.1986  0.0229
  863MOL0     C16417  10.973  -1.723   3.808  0.8065  0.5622  0.1855
  863MOL0     O16418  10.587  -1.749   3.878  1.0042  0.1136  0.7370
  863MOL0     C16419  10.519  -1.493   3.756  0.2973 -1.5681 -0.0949
  863MOL0     C16420  10.437  -1.391   3.695  0.4808 -0.0862 -0.0911
  863MOL0     N16421  10.097  -0.796   3.702  0.1169  1.1193  1.0823
  863MOL0     N16422  10.100  -0.678   3.742  0.4808  0.2856  0.0298
  863MOL0     C16423  10.606   0.427   3.484 -0.8353  0.3229  1.2572
  863MOL0     C16424  10.621   0.483   3.354  0.2488 -0.9901  0.6813
  863MOL0     C16425  10.490   0.559   2.916  0.4920  0.3665  1.0697
  863MOL0     C16426  10.495   0.480   2.804  0.4363  0.6701 -0.8771
  863MOL0     C16427  10.506   0.530   2.672 -0.0111 -0.7117  0.3565
  863MOL0     C16428  10.518   0.662   2.660  0.0992  0.9815  0.5214
  863MOL0     O16429  10.525   0.728   2.540 -0.2656  0.2859  0.9038
  863MOL0     C16430  10.637   0.688   2.449 -0.5455 -0.6011 -0.2746
  863MOL0     C16431  10.668   0.799   2.346  0.1233 -0.3612  0.3709
  863MOL0     C16432  10.820   0.831   2.325  0.5196  0.1159 -0.0870
  863MOL0     C16433  10.870   0.841   2.185  0.0161  0.2728 -0.0959
  863MOL0     C16434  10.870   0.706   2.118 -0.5939  0.0518  0.2543
  863MOL0     C16435  10.855   0.608   2.044 -0.4472 -0.7388 -0.9591
  863MOL0     C16436  10.505   0.747   2.767 -0.4984 -0.2409 -0.3168
  863MOL0     C16437  10.484   0.694   2.896 -0.7784 -0.8922 -0.7128
  863MOL0     H16438  10.338   0.642   3.307  2.2056  0.6658 -1.7994
  863MOL0     H16439  10.297   0.567   3.531 -0.5265  2.2681 -2.7253
  863MOL0     H16440  10.553   0.230   3.706  0.5032  1.2154  2.2409
  863MOL0     H16441  10.417   0.257   3.817 -4.6994  2.4072 -0.7341
  863MOL0     H16442  10.260   0.238   3.663 -1.4881 -1.8239  1.5975
  863MOL0     H16443  10.364   0.200   3.524 -1.6186 -2.1082  0.3856
  863MOL0     H16444  10.449   0.005   3.638 -1.0754 -1.1677 -1.4422
  863MOL0     H16445  10.357   0.051   3.788 -1.8651  2.3985  0.0653
  863MOL0     H16446  10.144   0.050   3.639 -0.0541 -0.2589 -0.1220
  863MOL0     H16447  10.236  -0.017   3.512  2.0371  1.1407 -0.7548
  863MOL0     H16448  10.300  -0.212   3.705 -0.0762 -3.2170 -3.0850
  863MOL0     H16449  10.158  -0.134   3.785 -0.8700 -0.3300  0.3088
  863MOL0     H16450  10.029  -0.174   3.596  3.6196  5.1017 -2.7136
  863MOL0     H16451  10.149  -0.229   3.493 -0.6309  2.4168  0.3844
  863MOL0     H16452  10.032  -0.374   3.743 -1.6138 -1.6601 -0.1250
  863MOL0     H16453  10.015  -0.423   3.574 -1.7505 -0.0238  2.0154
  863MOL0     H16454  10.254  -0.447   3.748 -3.0409 -2.7771  2.0294
  863MOL0     H16455  10.288  -0.442   3.570 -0.4725 -2.7434 -0.7865
  863MOL0     H16456  10.182  -0.660   3.418  2.0218 -1.3768  0.9111
  863MOL0     H16457  10.038  -1.004   3.521  0.4016 -0.2166 -1.4575
  863MOL0     H16458  10.100  -0.909   3.383  3.3211  0.3744  0.4661
  863MOL0     H16459  10.323  -0.920   3.525  0.0210 -0.1229  1.3326
  863MOL0     H16460  10.295  -1.052   3.411  1.7963 -0.1197  0.9841
  863MOL0     H16461  10.204  -1.068   3.706 -1.6907  4.1391 -2.4102
  863MOL0     H16462  10.360  -1.109   3.644  0.4925  0.1316  1.0907
  863MOL0     H16463  10.094  -1.258   3.549 -2.3976 -2.1063  3.2563
  863MOL0     H16464  10.181  -1.302   3.695 -0.2544 -0.6689 -0.6945
  863MOL0     H16465  10.343  -1.571   3.420  2.2156 -0.5403 -0.0112
  863MOL0     H16466  10.510  -1.858   3.549 -0.2667  1.4465  3.6591
  863MOL0     H16467  10.435  -1.784   3.404  1.6185 -2.9156 -0.8210
  863MOL0     H16468  10.603  -1.741   3.446 -0.1379  2.0701  1.4212
  863MOL0     H16469  10.767  -1.988   3.816 -0.7336  0.3276 -0.6793
  863MOL0     H16470  10.956  -2.082   3.932 -2.7920  0.3247 -0.5512
  863MOL0     H16471  11.352  -1.869   4.004  0.0898  1.1613  0.8320
  863MOL0     H16472  11.220  -1.794   4.094 -3.0035 -0.8478 -2.0062
  863MOL0     H16473  11.247  -1.988   4.255 -1.5410 -0.0778 -1.3524
  863MOL0     H16474  11.370  -2.048   4.139  1.2420  1.9353 -1.5374
  863MOL0     H16475  11.410  -1.774   4.273  1.8844  1.1418  0.0865
  863MOL0     H16476  11.527  -1.870   4.185  1.3801 -3.3258  0.3572
  863MOL0     H16477  11.570  -2.025   4.362  0.0081 -1.0645  0.2120
  863MOL0     H16478  11.567  -1.856   4.412 -0.5811  2.0119 -1.4596
  863MOL0     H16479  11.328  -2.059   4.459  1.7279 -0.5569 -5.1870
  863MOL0     H16480  11.323  -1.881   4.477  1.8109  0.8989 -0.9640
  863MOL0     H16481  11.353  -1.988   4.694  0.3821 -1.3975 -0.3681
  863MOL0     H16482  11.515  -2.048   4.652 -0.1585 -0.3473  0.6363
  863MOL0     H16483  11.431  -1.760   4.669  1.3853  0.9669  0.2138
  863MOL0     H16484  11.597  -1.842   4.626  0.4841 -2.4612 -0.4888
  863MOL0     H16485  11.456  -1.898   4.883 -0.8187 -0.5626 -0.7554
  863MOL0     H16486  11.573  -1.757   4.876 -1.8904  0.5371  0.3221
  863MOL0     H16487  11.163  -1.707   3.886 -1.7797  2.7858 -1.0485
  863MOL0     H16488  10.965  -1.628   3.755 -2.3810  1.0135  1.2737
  863MOL0     H16489  10.557  -1.480   3.857  2.0838 -2.1252 -0.6508
  863MOL0     H16490  10.411  -1.302   3.750 -3.5141 -0.1289 -1.6118
  863MOL0     H16491  10.683   0.381   3.545 -2.0563 -0.5335  2.2107
  863MOL0     H16492  10.703   0.463   3.287 -1.2440  0.1716 -1.6300
  863MOL0     H16493  10.491   0.374   2.825 -2.2083  1.3181  2.7523
  863MOL0     H16494  10.505   0.463   2.587 -0.3532 -0.4450  0.1469
  863MOL0     H16495  10.730   0.671   2.504  0.0959  1.7201 -0.5270
  863MOL0     H16496  10.611   0.600   2.391 -1.9341  0.2627 -1.0143
  863MOL0     H16497  10.626   0.889   2.393  1.7070  1.6449 -1.8096
  863MOL0     H16498  10.616   0.765   2.256 -0.7777 -2.0814  1.4749
  863MOL0     H16499  10.876   0.758   2.383 -0.8823 -0.6818  0.3097
  863MOL0     H16500  10.836   0.929   2.372  2.5452  0.3085 -1.0756
  863MOL0     H16501  10.969   0.886   2.177 -0.7632  2.1551  0.1881
  863MOL0     H16502  10.802   0.914   2.138  1.5462  0.4329 -2.1747
  863MOL0     H16503  10.839   0.520   1.984  2.7507 -1.0377 -1.5426
  863MOL0     H16504  10.532   0.845   2.730  2.3745 -1.6899 -2.4497
  863MOL0     H16505  10.485   0.761   2.982  0.8240 -1.3950 -0.3045
  864MOL0     O16506   2.879   6.762   8.231 -0.2230  0.3298  0.0959
  864MOL0     C16507   2.978   6.691   8.237  0.3635 -0.3018  1.3109
  864MOL0     O16508   3.048   6.651   8.132 -0.5747 -0.0949  0.9854
  864MOL0     C16509   2.993   6.666   8.002  0.1164  0.1388  0.8763
  864MOL0     C16510   2.855   6.670   7.958 -0.7438  0.0769  0.5003
  864MOL0     C16511   2.830   6.677   7.824  0.7376 -0.4852  0.3880
  864MOL0     C16512   2.929   6.660   7.721 -0.1519  0.0800  0.4964
  864MOL0     O16513   2.905   6.650   7.590 -0.8536  0.3519  1.0607
  864MOL0     C16514   2.795   6.735   7.544 -0.0842 -1.1193  0.3475
  864MOL0     C16515   2.688   6.673   7.455 -0.5571  0.4615 -0.1218
  864MOL0     C16516   2.739   6.613   7.323 -0.1074  0.1204 -0.9204
  864MOL0     C16517   2.635   6.575   7.216  0.5585  0.5026  0.1079
  864MOL0     C16518   2.723   6.515   7.104  0.1703 -0.2108 -0.3181
  864MOL0     C16519   2.632   6.495   6.982  0.1653  0.3901 -0.4996
  864MOL0     C16520   2.700   6.413   6.874  0.6827  0.1340  0.7083
  864MOL0     C16521   2.623   6.439   6.737 -0.0161  0.2214 -0.9387
  864MOL0     N16522   2.550   6.316   6.694  0.0483  0.8140 -0.2777
  864MOL0     C16523   2.610   6.211   6.625  0.9708 -0.1204 -0.4509
  864MOL0     C16524   2.507   6.132   6.597  0.6344  0.0897 -0.2767
  864MOL0     C16525   2.514   5.986   6.545  0.4016 -0.3004 -0.1536
  864MOL0     C16526   2.589   5.966   6.415 -0.6247 -0.2905  0.2858
  864MOL0     C16527   2.604   5.821   6.360  0.7841  0.1758  1.1663
  864MOL0     C16528   2.501   5.804   6.248 -0.4337 -0.2791 -0.3021
  864MOL0     O16529   2.502   5.673   6.183 -0.2539 -0.2343  0.1446
  864MOL0     C16530   2.401   5.573   6.217  0.6065 -0.3488 -0.1369
  864MOL0     C16531   2.300   5.592   6.315 -0.4451 -0.1515  0.5191
  864MOL0     C16532   2.201   5.492   6.329 -0.1980 -0.2637  0.3417
  864MOL0     C16533   2.086   5.534   6.425 -0.4605 -0.1034  0.4938
  864MOL0     C16534   2.197   5.375   6.242  0.8187  0.5583 -0.0849
  864MOL0     C16535   2.079   5.273   6.242 -0.0532 -0.8760 -0.2808
  864MOL0     O16536   2.024   5.248   6.363 -0.0889 -0.2136 -0.1787
  864MOL0     C16537   1.914   5.165   6.365  0.6234 -0.3093  0.3169
  864MOL0     C16538   1.791   5.219   6.311 -0.1507 -0.8576 -0.1126
  864MOL0     C16539   1.669   5.153   6.319 -0.7629 -0.2029 -0.5468
  864MOL0     C16540   1.664   5.037   6.403 -0.7455  0.3248  0.7499
  864MOL0     O16541   1.548   4.974   6.428  0.1481  1.0554  0.8111
  864MOL0     C16542   1.435   5.052   6.474  0.8745  0.1801 -0.1913
  864MOL0     C16543   1.301   4.975   6.491 -0.1796  0.1169 -1.2494
  864MOL0     C16544   1.318   4.835   6.554 -0.5757  0.7328 -0.8605
  864MOL0     C16545   1.377   4.855   6.706  0.5313 -0.2457  0.0770
  864MOL0     C16546   1.290   4.941   6.796  0.4817 -0.2846  0.0354
  864MOL0     C16547   1.349   4.960   6.939 -0.5058  0.1038  0.3243
  864MOL0     C16548   1.426   5.087   6.944 -0.3455 -0.0605  0.0625
  864MOL0     C16549   1.480   5.138   7.071  0.3350 -0.1734 -0.6896
  864MOL0    Cl16550   1.604   5.255   7.031  0.5207  0.5475 -0.5352
  864MOL0     C16551   1.783   4.983   6.451 -0.4154  0.9633 -0.6370
  864MOL0     C16552   1.907   5.049   6.433 -0.3213  0.5284  1.0450
  864MOL0     O16553   2.047   5.224   6.136  0.1590 -0.0063  0.0373
  864MOL0     C16554   2.294   5.363   6.145  0.2929  0.0170 -0.0065
  864MOL0     C16555   2.390   5.465   6.125  0.5544 -0.2735 -0.2268
  864MOL0     N16556   2.387   6.189   6.651  0.9110 -0.0744  0.0622
  864MOL0     N16557   2.415   6.298   6.704 -0.3815 -0.5789  0.2470
  864MOL0     C16558   3.071   6.655   7.756  0.9040  0.0558  0.2186
  864MOL0     C16559   3.100   6.651   7.897 -0.3173 -0.6212  0.1022
  864MOL0     C16560   3.006   6.640   8.370  0.1156 -0.0447 -0.6009
  864MOL0     C16561   2.932   6.649   8.490 -0.5117  1.3275 -0.8501
  864MOL0     C16562   2.972   6.581   8.613 -0.4625  0.8807  0.2728
  864MOL0     C16563   3.081   6.498   8.614 -1.5663 -0.8085 -0.3738
  864MOL0     O16564   3.123   6.414   8.713  0.0892 -0.6192 -0.2213
  864MOL0     C16565   3.038   6.385   8.814 -0.9636  0.3590 -0.8476
  864MOL0     C16566   2.918   6.306   8.763 -0.1258  0.0963  0.2210
  864MOL0     C16567   2.933   6.152   8.735  0.7676 -1.0802 -0.8111
  864MOL0     C16568   2.804   6.088   8.708  0.5684 -0.7750 -0.2776
  864MOL0     C16569   2.825   5.969   8.630  0.3643 -0.1700  0.0942
  864MOL0     C16570   2.849   5.875   8.560 -0.0796 -1.0641 -0.1003
  864MOL0     C16571   3.159   6.500   8.496 -0.0091  0.9298  0.2048
  864MOL0     C16572   3.125   6.562   8.378  0.3293 -0.6663  0.2332
  864MOL0     H16573   2.778   6.640   8.030 -1.7094 -1.8805 -1.2318
  864MOL0     H16574   2.722   6.685   7.815  0.9828  3.4306 -1.2127
  864MOL0     H16575   2.739   6.776   7.629 -4.7307  2.7950 -3.9564
  864MOL0     H16576   2.825   6.822   7.486  0.5348 -0.9986  0.8445
  864MOL0     H16577   2.646   6.597   7.522 -2.5815 -1.4038 -3.2103
  864MOL0     H16578   2.607   6.746   7.443  0.6115  1.7302 -0.5165
  864MOL0     H16579   2.794   6.698   7.282 -1.1411  0.9010 -0.7124
  864MOL0     H16580   2.803   6.526   7.340 -0.5173 -0.2489 -1.2129
  864MOL0     H16581   2.568   6.497   7.254 -0.2014  2.6117  3.5701
  864MOL0     H16582   2.573   6.662   7.194  0.0104 -0.6765 -3.8391
  864MOL0     H16583   2.804   6.584   7.078 -0.1410  1.2462  2.2887
  864MOL0     H16584   2.767   6.419   7.130  0.4352 -0.2632 -0.9478
  864MOL0     H16585   2.539   6.449   7.015 -1.1273 -0.2603 -4.5106
  864MOL0     H16586   2.607   6.596   6.949  0.6550  0.9477  0.7444
  864MOL0     H16587   2.807   6.433   6.865  0.7289  0.1025  1.1576
  864MOL0     H16588   2.700   6.308   6.905  0.9343 -0.7171 -1.8862
  864MOL0     H16589   2.702   6.456   6.662  0.8701 -0.7881 -0.2661
  864MOL0     H16590   2.557   6.524   6.755  0.1421  0.2226 -0.3409
  864MOL0     H16591   2.715   6.192   6.608  1.2450  2.4553 -2.3952
  864MOL0     H16592   2.560   5.923   6.623  3.4982  0.9718 -0.7875
  864MOL0     H16593   2.417   5.947   6.515  1.2083 -1.5808 -1.2246
  864MOL0     H16594   2.692   6.000   6.428 -1.4390  3.0231 -0.8406
  864MOL0     H16595   2.548   6.035   6.340  1.9685  1.1197  0.0619
  864MOL0     H16596   2.598   5.735   6.428 -0.5273  0.3483  1.2818
  864MOL0     H16597   2.700   5.811   6.309  1.1060  2.7127  1.1277
  864MOL0     H16598   2.535   5.876   6.173  1.1686 -0.4545  0.2001
  864MOL0     H16599   2.402   5.839   6.276  0.2763  1.4471  0.1553
  864MOL0     H16600   2.309   5.676   6.382 -0.4362 -0.7300  1.2574
  864MOL0     H16601   2.113   5.509   6.528  1.1279  2.6132  0.8375
  864MOL0     H16602   2.087   5.643   6.415  0.7905 -0.3079 -3.3526
  864MOL0     H16603   1.989   5.495   6.391 -1.5993  1.1789  2.1044
  864MOL0     H16604   1.791   5.312   6.255 -0.5928 -2.0109 -2.1324
  864MOL0     H16605   1.579   5.178   6.265 -1.0467  1.1336  0.4995
  864MOL0     H16606   1.439   5.088   6.577 -3.1965  2.1012 -0.5154
  864MOL0     H16607   1.423   5.142   6.413  1.4137 -0.4214 -1.2115
  864MOL0     H16608   1.227   5.038   6.542 -2.5327 -1.9659 -1.8813
  864MOL0     H16609   1.251   4.965   6.394 -1.1549 -3.6993 -0.5067
  864MOL0     H16610   1.387   4.770   6.500  0.9600  1.4070  0.2226
  864MOL0     H16611   1.220   4.785   6.553  1.5414 -3.8720 -1.6096
  864MOL0     H16612   1.378   4.754   6.747  1.0193 -0.7439 -1.1109
  864MOL0     H16613   1.477   4.900   6.699  0.0028  0.8530 -0.8576
  864MOL0     H16614   1.200   4.880   6.807  0.8097 -0.3586  3.6843
  864MOL0     H16615   1.265   5.038   6.753  0.9131  0.6853  1.8466
  864MOL0     H16616   1.271   4.962   7.016 -0.8107  2.5322  0.0417
  864MOL0     H16617   1.414   4.875   6.965  0.7118  0.8458 -0.2108
  864MOL0     H16618   1.378   5.168   6.889  0.8353 -0.4461 -1.6324
  864MOL0     H16619   1.515   5.067   6.883  0.1905  0.8482  0.5075
  864MOL0     H16620   1.521   5.056   7.131 -4.3454 -1.0967  1.6803
  864MOL0     H16621   1.395   5.181   7.124  0.0175 -1.2266 -0.3268
  864MOL0     H16622   1.785   4.893   6.511 -2.7847  2.0906  1.3579
  864MOL0     H16623   2.007   5.016   6.459 -1.1901 -2.1539  1.3547
  864MOL0     H16624   2.289   5.287   6.068 -1.2084 -1.7682  1.7275
  864MOL0     H16625   2.454   5.451   6.038  2.2635  2.1947  0.5133
  864MOL0     H16626   3.146   6.635   7.681 -0.4598  3.0198 -2.1274
  864MOL0     H16627   3.203   6.642   7.930 -0.0739  1.2707 -0.0421
  864MOL0     H16628   2.834   6.696   8.492 -0.9501  0.4394  0.1716
  864MOL0     H16629   2.898   6.586   8.693 -0.9699  0.4620 -0.1570
  864MOL0     H16630   3.088   6.326   8.892  3.1171  2.9402 -1.2288
  864MOL0     H16631   3.020   6.482   8.861  1.5530 -0.0565  1.1857
  864MOL0     H16632   2.888   6.349   8.667  0.8829  1.1822  0.3753
  864MOL0     H16633   2.837   6.324   8.834  1.2425 -0.4386  1.9808
  864MOL0     H16634   2.990   6.115   8.821  5.3939  1.4003 -2.4680
  864MOL0     H16635   2.994   6.141   8.645  0.5691 -0.7329 -0.9882
  864MOL0     H16636   2.735   6.151   8.651  2.1791  1.8554  0.5507
  864MOL0     H16637   2.773   6.068   8.811  1.8192 -3.5248 -0.3496
  864MOL0     H16638   2.881   5.787   8.507 -1.1668 -0.7199 -1.4036
  864MOL0     H16639   3.251   6.447   8.472  0.8459  3.6447 -3.3528
  864MOL0     H16640   3.200   6.561   8.299  1.1859  3.5533  0.7389
  865MOL0     O16641   1.377   3.778   7.513 -0.6277  0.1443  0.5901
  865MOL0     C16642   1.328   3.668   7.484  0.3606  0.5574  0.1734
  865MOL0     O16643   1.320   3.563   7.565  0.3262  0.2103  0.1955
  865MOL0     C16644   1.401   3.561   7.670 -0.0452 -0.9289 -0.4587
  865MOL0     C16645   1.336   3.517   7.791  0.1826  0.1193 -0.0492
  865MOL0     C16646   1.412   3.499   7.913 -0.1005 -0.5799 -0.0270
  865MOL0     C16647   1.548   3.529   7.922  0.0747  0.7146  0.1307
  865MOL0     O16648   1.603   3.515   8.048  1.7062  0.3509  0.3298
  865MOL0     C16649   1.730   3.447   8.051  0.0741  0.5485 -0.2983
  865MOL0     C16650   1.788   3.438   8.201  0.9253 -0.4311  0.0443
  865MOL0     C16651   1.685   3.365   8.297 -0.5108  0.1469 -0.1069
  865MOL0     C16652   1.726   3.369   8.445 -1.3568 -0.7824  0.2646
  865MOL0     C16653   1.627   3.312   8.545 -0.0599  0.0172  0.6708
  865MOL0     C16654   1.668   3.303   8.690  0.4045 -0.4235  0.7412
  865MOL0     C16655   1.541   3.294   8.781 -0.8439 -0.8414  0.1216
  865MOL0     C16656   1.436   3.181   8.733  0.0786  0.1858  0.3883
  865MOL0     N16657   1.322   3.174   8.823  0.5631  0.5795 -0.3442
  865MOL0     C16658   1.219   3.271   8.831  1.4307  0.0342 -0.2124
  865MOL0     C16659   1.140   3.234   8.932 -0.2334  0.5221  0.2176
  865MOL0     C16660   1.026   3.311   8.976 -1.3473  0.2496  0.0079
  865MOL0     C16661   0.885   3.252   8.934  0.4511  0.1831 -0.0381
  865MOL0     C16662   0.804   3.209   9.061 -0.6495 -0.1985  0.9518
  865MOL0     C16663   0.855   3.069   9.108 -0.9670  1.0951  0.5397
  865MOL0     O16664   0.814   2.984   8.999  0.5028  1.4177  0.7179
  865MOL0     C16665   0.868   2.862   9.027 -0.5618  0.4546 -0.1732
  865MOL0     C16666   0.828   2.775   9.136 -0.3801 -0.1277 -0.6171
  865MOL0     C16667   0.896   2.658   9.173 -0.5460  0.0446 -0.1899
  865MOL0     C16668   0.859   2.615   9.312  0.3286  0.0023 -0.4148
  865MOL0     C16669   1.010   2.621   9.096 -0.6455  0.3216 -0.4556
  865MOL0     C16670   1.093   2.507   9.123  1.7382  0.7209 -0.7972
  865MOL0     O16671   1.223   2.504   9.117 -0.7103  0.6124 -0.3724
  865MOL0     C16672   1.293   2.412   9.192 -0.1156 -0.5718  0.3644
  865MOL0     C16673   1.243   2.321   9.281  0.1433  0.0764 -0.5948
  865MOL0     C16674   1.326   2.235   9.352 -0.4621 -0.0678 -0.1621
  865MOL0     C16675   1.467   2.255   9.350 -0.1760  0.1908 -0.2162
  865MOL0     O16676   1.548   2.188   9.428  0.3820 -0.1808 -0.5546
  865MOL0     C16677   1.644   2.263   9.507 -1.2883 -0.3854  1.0029
  865MOL0     C16678   1.682   2.172   9.624 -0.0918  0.4158 -0.4177
  865MOL0     C16679   1.772   2.058   9.577 -0.1976  0.0662  0.3638
  865MOL0     C16680   1.818   1.955   9.682 -0.0536 -0.3643  0.2865
  865MOL0     C16681   1.914   1.859   9.618 -0.1700  1.0616 -0.2259
  865MOL0     C16682   1.979   1.763   9.715 -0.4291 -0.2515  0.2781
  865MOL0     C16683   2.061   1.655   9.651 -0.8489  0.1306  0.3279
  865MOL0     C16684   2.149   1.582   9.756 -0.2807 -0.4621  0.2572
  865MOL0    Cl16685   2.045   1.469   9.857  0.1320 -0.1818  0.0943
  865MOL0     C16686   1.518   2.345   9.264 -1.0428  0.5007  0.9885
  865MOL0     C16687   1.433   2.414   9.181  0.0813  0.6545  0.4403
  865MOL0     O16688   1.016   2.410   9.124 -0.2918  0.3502  0.9124
  865MOL0     C16689   1.040   2.695   8.979  0.0285 -0.1798  0.5162
  865MOL0     C16690   0.974   2.813   8.946 -0.0156  0.1441  0.7033
  865MOL0     N16691   1.195   3.116   8.989 -0.0106  0.3560 -0.2742
  865MOL0     N16692   1.299   3.079   8.920  0.4900  0.7871  0.2592
  865MOL0     C16693   1.616   3.567   7.797  0.4432  1.0056 -0.3517
  865MOL0     C16694   1.543   3.585   7.677 -0.5379 -0.9519  0.0015
  865MOL0     C16695   1.282   3.635   7.343 -0.3907 -0.5287  0.1340
  865MOL0     C16696   1.258   3.502   7.311 -0.9176  0.0962  0.2178
  865MOL0     C16697   1.207   3.464   7.184 -0.7634  0.1300 -1.0949
  865MOL0     C16698   1.196   3.556   7.088 -0.6920 -0.3149  0.4008
  865MOL0     O16699   1.149   3.513   6.965  0.2007 -0.2495  0.6344
  865MOL0     C16700   1.184   3.380   6.931 -0.2807  0.9966 -0.2266
  865MOL0     C16701   1.336   3.355   6.917 -1.0717  0.3281 -0.7926
  865MOL0     C16702   1.422   3.467   6.853  0.2714  0.4242  0.4026
  865MOL0     C16703   1.574   3.441   6.848 -0.6315 -0.2837 -0.4308
  865MOL0     C16704   1.651   3.545   6.772  0.2157 -0.1902  1.6653
  865MOL0     C16705   1.716   3.608   6.696  1.4612 -0.0536 -0.4145
  865MOL0     C16706   1.219   3.697   7.108  0.7421  0.4312  0.0524
  865MOL0     C16707   1.255   3.733   7.239 -0.3604  0.3724 -0.9274
  865MOL0     H16708   1.238   3.476   7.768  0.3395 -0.2035 -0.1555
  865MOL0     H16709   1.360   3.480   8.007  0.4520 -2.2060 -0.0325
  865MOL0     H16710   1.734   3.354   7.994  1.4576  0.9314 -0.8812
  865MOL0     H16711   1.803   3.511   8.001 -0.1659  0.0413 -1.3336
  865MOL0     H16712   1.885   3.387   8.200 -0.3448 -3.0702 -1.5404
  865MOL0     H16713   1.805   3.539   8.240  0.6498  0.1403 -1.2793
  865MOL0     H16714   1.589   3.417   8.293  0.6697  2.3726 -1.2324
  865MOL0     H16715   1.664   3.262   8.267 -0.1287  0.2166 -0.6361
  865MOL0     H16716   1.816   3.306   8.444  0.0189  1.0972  0.2590
  865MOL0     H16717   1.755   3.463   8.493  1.4010 -0.6053 -1.4962
  865MOL0     H16718   1.535   3.371   8.535  2.3648  3.8663 -1.7501
  865MOL0     H16719   1.602   3.212   8.509  0.0672 -1.0204  3.2757
  865MOL0     H16720   1.718   3.206   8.703 -0.2231 -1.3313 -2.6555
  865MOL0     H16721   1.732   3.384   8.725 -0.2819 -0.5897  2.5400
  865MOL0     H16722   1.573   3.284   8.885 -0.4621  0.6864  0.1826
  865MOL0     H16723   1.496   3.394   8.779  1.9305  0.4886 -0.1706
  865MOL0     H16724   1.475   3.080   8.724 -1.6857 -0.3738 -1.9903
  865MOL0     H16725   1.401   3.192   8.630  0.9899 -2.7107 -0.2994
  865MOL0     H16726   1.204   3.339   8.748  3.2430  0.0882 -0.5251
  865MOL0     H16727   1.032   3.312   9.085 -2.4970  1.6746  0.0883
  865MOL0     H16728   1.031   3.415   8.941 -0.2491  0.0748 -0.3721
  865MOL0     H16729   0.897   3.163   8.871  1.0362  1.3057 -1.5659
  865MOL0     H16730   0.834   3.337   8.888  0.8822  1.1982  1.2884
  865MOL0     H16731   0.699   3.192   9.033  0.0781 -0.1437 -2.2565
  865MOL0     H16732   0.804   3.272   9.150  1.3164 -1.8956  2.2403
  865MOL0     H16733   0.826   3.042   9.210 -0.2192 -0.7007  0.3102
  865MOL0     H16734   0.964   3.077   9.119 -0.4222 -0.0946 -2.6875
  865MOL0     H16735   0.759   2.814   9.209  1.8683  0.2464  1.4290
  865MOL0     H16736   0.824   2.693   9.381 -1.6713  0.1189 -1.5060
  865MOL0     H16737   0.786   2.535   9.296 -0.1981  0.2669  0.5463
  865MOL0     H16738   0.945   2.565   9.359 -1.9326 -1.9225  1.9943
  865MOL0     H16739   1.138   2.296   9.295 -0.1830  1.0581 -1.2234
  865MOL0     H16740   1.281   2.159   9.414 -0.0035 -2.7471 -2.8530
  865MOL0     H16741   1.727   2.279   9.438 -1.5535 -0.3408  0.6905
  865MOL0     H16742   1.617   2.363   9.542 -0.2273 -0.3951  1.8991
  865MOL0     H16743   1.745   2.219   9.700  0.6308 -2.4542  0.8571
  865MOL0     H16744   1.596   2.130   9.676  0.0383  2.4031  1.5525
  865MOL0     H16745   1.857   2.110   9.532 -0.1687  1.4092  1.8811
  865MOL0     H16746   1.725   1.996   9.500  0.8552 -4.1358  2.8167
  865MOL0     H16747   1.860   2.002   9.771 -1.4014 -1.0327  1.3019
  865MOL0     H16748   1.723   1.910   9.713 -0.8307  1.3978  0.5425
  865MOL0     H16749   1.987   1.918   9.562 -0.1765  3.3780  2.0341
  865MOL0     H16750   1.861   1.805   9.538  1.0622  2.1068 -1.8129
  865MOL0     H16751   2.049   1.826   9.771 -3.0995  1.1830  2.2930
  865MOL0     H16752   1.908   1.715   9.783 -1.8453  1.4618  0.0954
  865MOL0     H16753   2.129   1.696   9.576 -1.1495 -2.6395 -1.5899
  865MOL0     H16754   1.999   1.578   9.605 -0.8497  0.8399 -0.9213
  865MOL0     H16755   2.197   1.654   9.823 -0.7519  1.3126 -1.2548
  865MOL0     H16756   2.227   1.528   9.703  0.4853  0.6910  0.1830
  865MOL0     H16757   1.625   2.358   9.251 -1.1541  0.6218  0.1427
  865MOL0     H16758   1.459   2.502   9.123 -3.6875  1.2691 -0.5884
  865MOL0     H16759   1.119   2.665   8.910  3.0257  3.8676  1.8176
  865MOL0     H16760   1.004   2.885   8.871 -1.3630  2.1298  1.9740
  865MOL0     H16761   1.724   3.577   7.792  0.3933  1.5426 -0.4561
  865MOL0     H16762   1.600   3.588   7.585  1.6126  0.3640  1.2845
  865MOL0     H16763   1.272   3.425   7.385 -2.5494 -0.1056  0.3586
  865MOL0     H16764   1.191   3.357   7.188  1.3649 -0.2216 -0.3556
  865MOL0     H16765   1.134   3.308   6.997 -0.9036  0.8388 -0.8629
  865MOL0     H16766   1.132   3.351   6.839  0.2250 -1.0312  0.0736
  865MOL0     H16767   1.357   3.265   6.858  1.6052 -0.2940  0.9555
  865MOL0     H16768   1.381   3.338   7.015 -1.2939 -0.0418 -0.7519
  865MOL0     H16769   1.409   3.559   6.912 -1.5396 -0.6336  1.7771
  865MOL0     H16770   1.382   3.488   6.754  1.3468 -2.9330 -0.8797
  865MOL0     H16771   1.580   3.338   6.813  0.2775 -1.0333  1.7312
  865MOL0     H16772   1.623   3.444   6.946  1.3787  1.5887 -1.3917
  865MOL0     H16773   1.796   3.657   6.644  2.3762 -0.4453  0.5967
  865MOL0     H16774   1.217   3.773   7.030 -0.0397  2.4096  1.8979
  865MOL0     H16775   1.278   3.838   7.253 -0.3281  0.5691 -2.3582
  866MOL0     O16776   9.897   1.758   2.931  0.0450  0.0648 -1.1349
  866MOL0     C16777   9.859   1.674   2.847 -0.0790 -0.1610  0.1901
  866MOL0     O16778   9.728   1.637   2.816 -0.2924  0.3490 -0.3234
  866MOL0     C16779   9.632   1.677   2.901  0.4573  0.8331  0.1532
  866MOL0     C16780   9.620   1.651   3.045  0.3127  0.2971 -0.0613
  866MOL0     C16781   9.501   1.667   3.108 -0.2062 -0.0837 -0.1280
  866MOL0     C16782   9.385   1.700   3.037  0.9288 -0.1417  0.3663
  866MOL0     O16783   9.259   1.707   3.089  0.6001  0.1312 -0.3412
  866MOL0     C16784   9.220   1.712   3.226 -0.2188 -0.7471 -0.2772
  866MOL0     C16785   9.279   1.837   3.288  1.2487  0.3215  0.7388
  866MOL0     C16786   9.249   1.841   3.440 -0.7595  0.2282 -0.7323
  866MOL0     C16787   9.318   1.937   3.529 -0.9682 -0.6280 -0.0049
  866MOL0     C16788   9.474   1.924   3.521  0.9228  0.9471 -0.2196
  866MOL0     C16789   9.530   2.036   3.605 -0.6720  0.1623 -0.1227
  866MOL0     C16790   9.513   2.176   3.539 -0.1863  0.2885  0.1751
  866MOL0     C16791   9.632   2.265   3.573 -0.3877 -0.2419 -0.2332
  866MOL0     N16792   9.595   2.394   3.516 -0.5401  0.3931 -0.0201
  866MOL0     C16793   9.594   2.416   3.377 -0.3888  0.4402 -0.1309
  866MOL0     C16794   9.524   2.533   3.359  0.2630 -0.3912 -0.3711
  866MOL0     C16795   9.475   2.608   3.241 -0.0147  0.5433  0.9310
  866MOL0     C16796   9.498   2.533   3.111 -0.1456 -0.1447 -0.1107
  866MOL0     C16797   9.447   2.640   3.005 -0.0520  0.0474 -0.5480
  866MOL0     C16798   9.302   2.673   3.001  0.0137 -0.7913 -0.0787
  866MOL0     O16799   9.262   2.739   2.879  0.5118 -0.3589  0.9066
  866MOL0     C16800   9.308   2.865   2.856  0.2571 -0.6982 -0.8359
  866MOL0     C16801   9.290   2.923   2.730  0.6294  0.5273  1.2668
  866MOL0     C16802   9.343   3.051   2.698 -0.4402  0.9304  0.1503
  866MOL0     C16803   9.344   3.092   2.553 -0.3111  0.0906 -1.0182
  866MOL0     C16804   9.412   3.124   2.801 -0.0383  0.2685  0.8055
  866MOL0     C16805   9.471   3.253   2.778  0.4850 -0.1308  0.7424
  866MOL0     O16806   9.486   3.336   2.881 -0.0792  0.5380  0.2460
  866MOL0     C16807   9.552   3.456   2.876  0.4522 -0.5642  0.1460
  866MOL0     C16808   9.489   3.565   2.927  0.2574  0.1621  0.2909
  866MOL0     C16809   9.538   3.694   2.910 -0.5581 -0.3971 -0.2776
  866MOL0     C16810   9.668   3.712   2.862 -0.2621  0.1935 -0.0606
  866MOL0     O16811   9.726   3.837   2.876  0.3233  0.2602 -0.5556
  866MOL0     C16812   9.679   3.937   2.778  0.3889  1.0600  0.0516
  866MOL0     C16813   9.703   4.073   2.835  0.3315  0.3041 -0.7038
  866MOL0     C16814   9.844   4.098   2.821  0.2387  0.0765  0.6751
  866MOL0     C16815   9.870   4.244   2.860  0.2830 -0.3171 -0.8007
  866MOL0     C16816  10.012   4.290   2.838 -1.0541  0.2800  0.5094
  866MOL0     C16817  10.114   4.235   2.928  0.3431  0.6516 -0.3635
  866MOL0     C16818  10.259   4.285   2.898  0.9756  0.2791 -0.2917
  866MOL0     C16819  10.367   4.201   2.968 -0.2572  1.3269 -0.4666
  866MOL0    Cl16820  10.351   4.205   3.152  0.4224  0.0740 -0.0446
  866MOL0     C16821   9.733   3.599   2.812  0.5345  0.2497 -0.6688
  866MOL0     C16822   9.675   3.472   2.822  0.9365 -0.2615 -0.2277
  866MOL0     O16823   9.517   3.277   2.664  0.1288 -0.4886 -0.0184
  866MOL0     C16824   9.426   3.071   2.926 -0.9209  0.8105  0.4733
  866MOL0     C16825   9.379   2.946   2.952 -0.0583  0.0928  0.9767
  866MOL0     N16826   9.494   2.576   3.489  1.0164  0.7140  0.1370
  866MOL0     N16827   9.528   2.491   3.581 -0.3554 -0.3639  0.6875
  866MOL0     C16828   9.394   1.717   2.896 -0.1771  0.1923 -0.1459
  866MOL0     C16829   9.519   1.715   2.832  1.3592 -1.3011  0.3961
  866MOL0     C16830   9.962   1.643   2.745  0.9310 -0.9376 -0.5188
  866MOL0     C16831   9.944   1.562   2.633 -0.3186  0.5673  0.4282
  866MOL0     C16832  10.052   1.532   2.540 -1.2913  0.4513 -0.4775
  866MOL0     C16833  10.174   1.591   2.559  0.4789 -0.2718  0.0282
  866MOL0     O16834  10.259   1.596   2.463  0.3327  0.0121  0.5900
  866MOL0     C16835  10.332   1.477   2.435 -0.6835  0.2012  0.8347
  866MOL0     C16836  10.395   1.413   2.556  0.6172  0.4889  0.7194
  866MOL0     C16837  10.519   1.326   2.521 -0.7618 -0.8782 -0.3288
  866MOL0     C16838  10.507   1.199   2.436  0.5005  0.6890  0.7361
  866MOL0     C16839  10.407   1.106   2.501 -0.2486  0.2088 -0.5796
  866MOL0     C16840  10.321   1.044   2.561  0.6165  1.4013  0.4030
  866MOL0     C16841  10.197   1.661   2.672  1.0742 -0.4933 -0.6167
  866MOL0     C16842  10.084   1.699   2.760 -0.1605  0.1712 -0.3640
  866MOL0     H16843   9.712   1.611   3.087  0.7118 -1.0145 -2.0354
  866MOL0     H16844   9.512   1.652   3.215  1.1176 -1.8146 -0.4577
  866MOL0     H16845   9.111   1.710   3.238 -0.3564  0.3692 -1.2362
  866MOL0     H16846   9.249   1.624   3.284 -0.7667 -0.9069 -0.2366
  866MOL0     H16847   9.387   1.844   3.272  1.9513 -1.1649  4.0325
  866MOL0     H16848   9.242   1.927   3.236 -0.5260 -1.9316 -2.2316
  866MOL0     H16849   9.144   1.869   3.451 -0.9519 -0.6387 -0.2991
  866MOL0     H16850   9.278   1.748   3.489  3.6448  2.4539  1.5593
  866MOL0     H16851   9.294   2.041   3.502 -0.7375 -0.6997 -0.4906
  866MOL0     H16852   9.291   1.915   3.633  1.9477  1.4755  1.3387
  866MOL0     H16853   9.493   1.828   3.568 -1.0614 -0.7366 -2.5969
  866MOL0     H16854   9.500   1.923   3.414  0.3927 -1.5605 -0.3889
  866MOL0     H16855   9.491   2.045   3.707  3.5854  1.2042  1.6193
  866MOL0     H16856   9.636   2.021   3.625 -0.3062  3.0967  0.6025
  866MOL0     H16857   9.492   2.168   3.432 -2.5846 -0.5374  0.6391
  866MOL0     H16858   9.418   2.217   3.576 -1.2732 -3.4398  2.0183
  866MOL0     H16859   9.725   2.224   3.532 -1.6778 -1.7691 -1.8356
  866MOL0     H16860   9.646   2.287   3.679  0.7955  1.5566 -0.7232
  866MOL0     H16861   9.630   2.350   3.299 -3.0031 -1.9902  0.5235
  866MOL0     H16862   9.366   2.620   3.247 -0.4197 -1.7343 -0.4583
  866MOL0     H16863   9.522   2.706   3.231  1.9994 -0.4919 -0.3743
  866MOL0     H16864   9.439   2.441   3.114 -3.2489  1.6657  2.5929
  866MOL0     H16865   9.603   2.512   3.093 -0.6024 -2.9584  0.0853
  866MOL0     H16866   9.461   2.599   2.905 -0.1054  4.1093 -2.4169
  866MOL0     H16867   9.513   2.728   3.007  0.8229 -0.5658 -1.4844
  866MOL0     H16868   9.267   2.731   3.086  2.7723  0.2184  0.4726
  866MOL0     H16869   9.256   2.573   3.002  1.5391 -1.5863  3.1144
  866MOL0     H16870   9.234   2.857   2.664 -1.7660 -0.0560  3.7183
  866MOL0     H16871   9.274   3.040   2.487 -0.5809 -0.7522 -0.0932
  866MOL0     H16872   9.326   3.199   2.534 -1.1745 -0.4095 -3.3414
  866MOL0     H16873   9.445   3.072   2.517 -0.9526 -4.5630 -0.8153
  866MOL0     H16874   9.383   3.552   2.950  0.4457 -0.7503  0.7110
  866MOL0     H16875   9.476   3.772   2.953  0.6036  0.4177 -0.0243
  866MOL0     H16876   9.727   3.925   2.680 -2.1165 -0.2446 -1.1194
  866MOL0     H16877   9.571   3.920   2.772  0.4258  0.0109  1.6984
  866MOL0     H16878   9.644   4.138   2.771  1.4857 -0.6972 -2.9118
  866MOL0     H16879   9.683   4.074   2.943  3.8323  1.0858  0.0902
  866MOL0     H16880   9.872   4.084   2.716  3.0059 -1.5254  1.5301
  866MOL0     H16881   9.910   4.023   2.866 -0.7060 -1.3870 -0.2709
  866MOL0     H16882   9.796   4.315   2.823  0.9261  1.8237  1.7122
  866MOL0     H16883   9.864   4.251   2.969  0.3505 -0.3478 -0.7953
  866MOL0     H16884  10.019   4.399   2.843 -0.4536  0.2415  0.6435
  866MOL0     H16885  10.034   4.256   2.736  0.3467 -2.5073  1.6379
  866MOL0     H16886  10.087   4.238   3.034 -4.5615  0.8291 -1.3697
  866MOL0     H16887  10.109   4.129   2.900  0.3548  0.9722 -1.6305
  866MOL0     H16888  10.277   4.389   2.925  0.7525  0.3047 -0.2404
  866MOL0     H16889  10.269   4.284   2.789  2.5584 -0.2431 -0.1648
  866MOL0     H16890  10.461   4.253   2.947 -0.3478  2.1671  1.0380
  866MOL0     H16891  10.355   4.102   2.924 -1.0332  1.7074 -1.1535
  866MOL0     H16892   9.832   3.610   2.768 -0.5898 -1.7409 -4.0225
  866MOL0     H16893   9.729   3.388   2.780  1.4372  0.9962 -2.2542
  866MOL0     H16894   9.480   3.127   3.001 -0.6907 -0.6565  1.4445
  866MOL0     H16895   9.397   2.913   3.054 -3.7693 -2.6111  0.9451
  866MOL0     H16896   9.298   1.729   2.847  0.2389  0.9044 -0.8255
  866MOL0     H16897   9.519   1.735   2.725 -5.5468 -1.4285 -0.0599
  866MOL0     H16898   9.847   1.513   2.627 -0.1926  0.1069  1.6604
  866MOL0     H16899  10.044   1.460   2.459 -0.8745 -0.6069  0.4016
  866MOL0     H16900  10.275   1.394   2.392 -1.8667 -1.5407  5.2637
  866MOL0     H16901  10.418   1.498   2.370  1.0103 -0.5344  2.7253
  866MOL0     H16902  10.320   1.350   2.604  3.6019 -2.6720  1.6517
  866MOL0     H16903  10.435   1.495   2.616  2.4806  1.0163 -1.1352
  866MOL0     H16904  10.570   1.300   2.614 -3.0279 -0.7963  1.0026
  866MOL0     H16905  10.589   1.384   2.459  2.4610 -2.9670  1.0671
  866MOL0     H16906  10.597   1.148   2.398 -2.4036 -0.7581 -5.5221
  866MOL0     H16907  10.465   1.226   2.339  0.3461 -5.0662 -1.1909
  866MOL0     H16908  10.249   0.975   2.601  0.8066  0.9183 -0.0820
  866MOL0     H16909  10.294   1.709   2.678  1.6560 -1.7290  0.5556
  866MOL0     H16910  10.115   1.759   2.845 -0.5484  2.2333 -1.6364
  867MOL0     O16911   1.734   2.665   7.142  0.5224 -0.4481 -0.3010
  867MOL0     C16912   1.797   2.567   7.169 -0.4829  1.2466 -1.2389
  867MOL0     O16913   1.834   2.467   7.076 -0.0033 -0.9509  0.7501
  867MOL0     C16914   1.756   2.440   6.966 -0.1058 -0.5905  0.4558
  867MOL0     C16915   1.705   2.317   6.946  0.1229 -0.5278  0.5606
  867MOL0     C16916   1.625   2.287   6.832 -0.2955 -0.4494 -0.3452
  867MOL0     C16917   1.593   2.391   6.742  0.4400  0.4325  1.0860
  867MOL0     O16918   1.496   2.369   6.647  0.4709 -0.8788 -0.8239
  867MOL0     C16919   1.420   2.253   6.624  0.3890  1.2473 -0.7003
  867MOL0     C16920   1.284   2.277   6.700 -0.5150 -0.4868 -0.5125
  867MOL0     C16921   1.202   2.390   6.634 -0.2675 -0.1292  0.6055
  867MOL0     C16922   1.167   2.348   6.488  0.5508 -0.8321  0.9173
  867MOL0     C16923   1.084   2.464   6.427  0.3744 -0.1942 -0.5224
  867MOL0     C16924   1.013   2.439   6.290  0.5536 -0.6584 -0.7334
  867MOL0     C16925   0.878   2.380   6.315 -0.3294 -0.2981  0.5991
  867MOL0     C16926   0.841   2.300   6.194 -0.2295  0.8343 -0.0636
  867MOL0     N16927   0.804   2.380   6.076  0.5139  0.2395  0.2247
  867MOL0     C16928   0.739   2.501   6.080 -0.8614  0.7674  0.4543
  867MOL0     C16929   0.726   2.531   5.947 -0.8388 -1.0298  0.6116
  867MOL0     C16930   0.637   2.625   5.894  0.2323 -1.1240  0.7474
  867MOL0     C16931   0.684   2.762   5.860 -0.5036 -0.0043  0.1366
  867MOL0     C16932   0.561   2.845   5.796 -0.2833  0.7380  0.6976
  867MOL0     C16933   0.594   2.989   5.781  0.3722  0.3972  1.1270
  867MOL0     O16934   0.621   3.043   5.905  0.6942  0.8437  0.7393
  867MOL0     C16935   0.685   3.161   5.927 -0.3301  0.5068  0.3665
  867MOL0     C16936   0.709   3.199   6.063 -0.9487 -0.4640  0.4722
  867MOL0     C16937   0.763   3.322   6.104 -0.6857  0.0425 -0.7976
  867MOL0     C16938   0.806   3.343   6.250 -1.0376  0.3041  0.4131
  867MOL0     C16939   0.808   3.417   5.997  0.0832  0.4585 -0.7889
  867MOL0     C16940   0.891   3.540   6.016 -0.0869 -0.9828 -0.0543
  867MOL0     O16941   0.937   3.599   5.906  0.2377 -0.2770  0.6055
  867MOL0     C16942   1.019   3.711   5.916 -0.2073  0.5984 -0.4413
  867MOL0     C16943   1.014   3.781   5.806 -0.5215  0.5875 -0.5075
  867MOL0     C16944   1.101   3.886   5.783  0.7713  0.3645  1.1815
  867MOL0     C16945   1.189   3.935   5.881  0.2756  0.5265 -0.5277
  867MOL0     O16946   1.258   4.049   5.849 -0.1213 -0.1899 -0.5216
  867MOL0     C16947   1.377   4.024   5.770 -0.1889 -0.0732 -0.0015
  867MOL0     C16948   1.463   4.159   5.729  0.0797  0.0586 -0.8816
  867MOL0     C16949   1.524   4.224   5.857  0.2064 -0.9839 -0.2127
  867MOL0     C16950   1.630   4.329   5.824  0.0172 -0.3900  0.1466
  867MOL0     C16951   1.572   4.444   5.736 -0.4345 -0.5161 -0.2364
  867MOL0     C16952   1.480   4.542   5.809  0.6759 -0.0115 -0.4325
  867MOL0     C16953   1.371   4.615   5.735 -0.1252 -0.4601  0.7029
  867MOL0     C16954   1.437   4.698   5.619  0.5517  0.5511 -0.3519
  867MOL0    Cl16955   1.316   4.801   5.537 -0.1483  0.0592 -0.4627
  867MOL0     C16956   1.207   3.864   5.995  0.0794  0.1605  0.5968
  867MOL0     C16957   1.119   3.747   6.012 -0.5069 -0.9446 -0.4521
  867MOL0     O16958   0.908   3.586   6.129  0.2070 -1.5250  0.1350
  867MOL0     C16959   0.773   3.378   5.864 -0.2241  0.7195  0.6062
  867MOL0     C16960   0.702   3.258   5.830  0.1863  0.1820 -0.7478
  867MOL0     N16961   0.800   2.439   5.869  0.7609  0.1041  0.1983
  867MOL0     N16962   0.848   2.341   5.950  0.0250 -1.5113 -0.8642
  867MOL0     C16963   1.658   2.517   6.757 -0.1737  0.2071  1.2585
  867MOL0     C16964   1.749   2.545   6.870  0.1331 -0.1704 -0.0932
  867MOL0     C16965   1.861   2.554   7.307  0.4832 -0.3745  0.1296
  867MOL0     C16966   1.835   2.649   7.404 -0.5127  0.8876  0.5004
  867MOL0     C16967   1.893   2.653   7.529  0.0475  0.6123  0.0904
  867MOL0     C16968   1.973   2.544   7.563 -0.4387 -0.6738 -0.1947
  867MOL0     O16969   2.021   2.529   7.689 -0.5421 -0.5121  0.3956
  867MOL0     C16970   1.931   2.478   7.777  0.5220  0.1497 -0.9667
  867MOL0     C16971   1.998   2.367   7.859 -0.6658  0.4344 -0.1001
  867MOL0     C16972   2.110   2.424   7.955  0.0403  0.1882  0.4173
  867MOL0     C16973   2.177   2.307   8.004  0.0355 -0.6840  0.7640
  867MOL0     C16974   2.285   2.250   7.911  0.1107 -1.1486 -0.0966
  867MOL0     C16975   2.356   2.190   7.840 -0.8495 -0.1843 -0.2288
  867MOL0     C16976   2.001   2.440   7.467 -0.6142 -0.3135 -0.8132
  867MOL0     C16977   1.938   2.440   7.340 -0.7442 -0.1253  0.1958
  867MOL0     H16978   1.730   2.245   7.023  1.5611  1.4963  2.1171
  867MOL0     H16979   1.580   2.189   6.821 -1.4989  0.0055  0.2917
  867MOL0     H16980   1.397   2.242   6.517 -1.4483  1.7726 -0.3913
  867MOL0     H16981   1.480   2.168   6.658 -0.7915  0.7005  0.0875
  867MOL0     H16982   1.216   2.191   6.702  0.6239 -1.5728 -3.1146
  867MOL0     H16983   1.308   2.315   6.800 -2.2955  2.3465 -1.0501
  867MOL0     H16984   1.100   2.393   6.674 -0.3064 -0.3062  0.5228
  867MOL0     H16985   1.244   2.491   6.637  0.1870 -0.2457 -0.9385
  867MOL0     H16986   1.253   2.350   6.421  0.7780  2.9566  1.0691
  867MOL0     H16987   1.123   2.249   6.498  2.5314 -1.6500  2.2930
  867MOL0     H16988   0.998   2.491   6.489  0.0816  1.7090 -1.6936
  867MOL0     H16989   1.154   2.547   6.428  1.3180 -0.8946  2.3615
  867MOL0     H16990   1.013   2.524   6.222 -2.9193  2.4141  2.6686
  867MOL0     H16991   1.074   2.360   6.245 -0.0298  0.3912 -3.5392
  867MOL0     H16992   0.877   2.299   6.388 -1.3718  0.2762  1.2436
  867MOL0     H16993   0.804   2.456   6.343 -0.0590 -0.6606  2.4774
  867MOL0     H16994   0.757   2.232   6.208 -0.3414  0.8915 -0.4591
  867MOL0     H16995   0.924   2.233   6.169  0.7834  2.7924 -2.2948
  867MOL0     H16996   0.691   2.548   6.165 -1.8058 -4.9288  3.5881
  867MOL0     H16997   0.603   2.589   5.796  3.2100  2.9012 -2.1384
  867MOL0     H16998   0.546   2.637   5.953 -0.9757  2.6573 -1.5370
  867MOL0     H16999   0.769   2.746   5.793  0.3037 -2.6398  1.6265
  867MOL0     H17000   0.721   2.805   5.953  1.5856 -1.0951 -0.1224
  867MOL0     H17001   0.480   2.826   5.868 -0.4889  0.3493  0.3723
  867MOL0     H17002   0.536   2.800   5.699  1.9608 -1.4332  1.0384
  867MOL0     H17003   0.508   3.038   5.735 -0.3878 -0.7125  1.3026
  867MOL0     H17004   0.667   3.009   5.701 -0.8448  2.7210  0.5250
  867MOL0     H17005   0.683   3.121   6.134 -0.9564 -1.0064 -0.1175
  867MOL0     H17006   0.787   3.446   6.280  2.6583  1.7387 -1.4669
  867MOL0     H17007   0.751   3.271   6.311  1.5358 -2.7086 -0.4989
  867MOL0     H17008   0.914   3.325   6.252 -0.9860 -0.9364 -3.8401
  867MOL0     H17009   0.958   3.747   5.720  0.8806 -2.9499 -0.1979
  867MOL0     H17010   1.096   3.936   5.687 -4.8407 -0.7027  0.5501
  867MOL0     H17011   1.445   3.965   5.832  0.7776 -0.8720 -1.7655
  867MOL0     H17012   1.350   3.972   5.677 -1.4986 -0.3437  0.5066
  867MOL0     H17013   1.538   4.144   5.651  1.7691  2.3994  0.1531
  867MOL0     H17014   1.392   4.224   5.678 -1.3538 -0.4527  0.3805
  867MOL0     H17015   1.579   4.151   5.918 -1.1657 -1.5134  0.4411
  867MOL0     H17016   1.446   4.270   5.918  1.2196 -1.7374  1.7528
  867MOL0     H17017   1.670   4.365   5.920 -0.7965  2.6296 -0.5305
  867MOL0     H17018   1.711   4.289   5.763 -0.2405  0.5253 -0.8192
  867MOL0     H17019   1.499   4.400   5.667 -1.4996  1.5768 -0.5178
  867MOL0     H17020   1.643   4.499   5.673 -1.3059 -0.6288 -1.3630
  867MOL0     H17021   1.432   4.496   5.896 -2.7081  2.5175 -0.7238
  867MOL0     H17022   1.549   4.617   5.849  1.1074 -1.0033  0.7481
  867MOL0     H17023   1.329   4.693   5.798  2.0162  1.4728 -0.1382
  867MOL0     H17024   1.284   4.552   5.711 -1.9314  1.9002  0.6879
  867MOL0     H17025   1.493   4.631   5.554  0.8387  0.8924 -0.4624
  867MOL0     H17026   1.517   4.760   5.660  1.0441 -0.5676  0.4167
  867MOL0     H17027   1.271   3.895   6.077  0.2711 -1.1589  0.9851
  867MOL0     H17028   1.133   3.679   6.096 -1.5897 -1.2031 -0.4748
  867MOL0     H17029   0.776   3.454   5.787 -0.5737  0.8403  0.7119
  867MOL0     H17030   0.670   3.239   5.728 -0.3756 -3.1158 -0.0826
  867MOL0     H17031   1.635   2.574   6.668 -0.5322 -2.6397 -0.6103
  867MOL0     H17032   1.818   2.627   6.886  1.6230 -1.1844 -1.1127
  867MOL0     H17033   1.780   2.735   7.367  0.7151  1.1580 -0.7802
  867MOL0     H17034   1.871   2.741   7.589 -1.1834  3.1555 -3.6954
  867MOL0     H17035   1.881   2.550   7.842  1.8233 -0.0884  0.3407
  867MOL0     H17036   1.846   2.419   7.742 -1.0520  0.5487  1.9185
  867MOL0     H17037   2.055   2.316   7.780  1.3745  2.5841 -0.1254
  867MOL0     H17038   1.920   2.309   7.908 -0.8651 -0.9562 -1.9572
  867MOL0     H17039   2.062   2.465   8.045 -1.0422 -0.0923 -0.0226
  867MOL0     H17040   2.167   2.501   7.903  0.5395 -0.2232  0.3515
  867MOL0     H17041   2.108   2.223   8.017  0.0772 -0.8745 -0.1551
  867MOL0     H17042   2.222   2.323   8.103  1.1272  0.2398  0.1476
  867MOL0     H17043   2.433   2.136   7.790 -0.9612  0.2235 -0.8496
  867MOL0     H17044   2.055   2.354   7.507 -0.0360  0.0032 -0.9015
  867MOL0     H17045   1.957   2.358   7.271 -0.4920 -0.8711  1.1146
  868MOL0     O17046   3.437   1.991   1.685  0.9715 -0.4360  0.9955
  868MOL0     C17047   3.511   2.042   1.771  0.8483 -0.5086 -0.3423
  868MOL0     O17048   3.544   1.985   1.887 -0.0240 -0.0925 -0.0672
  868MOL0     C17049   3.467   1.883   1.942 -0.5609 -0.2240 -0.1365
  868MOL0     C17050   3.345   1.831   1.896  0.1910  0.1117 -0.2414
  868MOL0     C17051   3.275   1.747   1.985  0.7621  0.1772 -0.7452
  868MOL0     C17052   3.323   1.702   2.111  0.0781  0.3318 -0.1904
  868MOL0     O17053   3.261   1.611   2.200 -0.3972  0.4249  0.0366
  868MOL0     C17054   3.117   1.608   2.191 -1.8683  0.1841  0.6584
  868MOL0     C17055   3.078   1.507   2.312 -0.1763 -0.2668 -0.1701
  868MOL0     C17056   3.086   1.360   2.262 -0.1767 -0.1784 -0.0017
  868MOL0     C17057   3.015   1.264   2.357  0.2843 -0.2719 -0.0514
  868MOL0     C17058   3.112   1.223   2.473 -0.0604  0.6660  0.0382
  868MOL0     C17059   3.035   1.146   2.581 -0.1085 -0.0211  0.2145
  868MOL0     C17060   3.141   1.091   2.679 -0.4400  0.0444  0.6784
  868MOL0     C17061   3.252   1.007   2.615 -0.3119  0.2864  1.3119
  868MOL0     N17062   3.329   0.943   2.713  0.6481  0.8078  0.4020
  868MOL0     C17063   3.421   0.998   2.799 -0.6584 -0.0666 -0.4328
  868MOL0     C17064   3.450   0.894   2.879  0.4086  0.4185 -0.7399
  868MOL0     C17065   3.548   0.881   2.992 -0.2472  0.1471 -0.9708
  868MOL0     C17066   3.505   0.927   3.130 -0.3063  0.2114 -0.0986
  868MOL0     C17067   3.382   0.845   3.193 -0.3850  0.4071  0.6471
  868MOL0     C17068   3.397   0.693   3.202  0.4462  0.2526  0.7775
  868MOL0     O17069   3.280   0.633   3.271  0.3791 -0.3869  0.2157
  868MOL0     C17070   3.231   0.503   3.237  0.4791 -0.6542 -1.6042
  868MOL0     C17071   3.282   0.423   3.136  0.5823  0.7066  0.1611
  868MOL0     C17072   3.218   0.301   3.108 -0.0111  0.8653 -0.3164
  868MOL0     C17073   3.256   0.206   2.999  0.1046  0.2043  0.3087
  868MOL0     C17074   3.107   0.254   3.187 -0.0302 -0.6378 -0.3873
  868MOL0     C17075   3.042   0.132   3.169  0.3995  0.8933 -0.6228
  868MOL0     O17076   3.088   0.022   3.222 -0.1782 -0.7415 -0.0458
  868MOL0     C17077   3.012  -0.090   3.250 -0.1552  0.0661  0.3675
  868MOL0     C17078   3.033  -0.214   3.175  0.7710 -0.0768  0.1815
  868MOL0     C17079   2.953  -0.326   3.201  0.8063  1.1803 -0.3591
  868MOL0     C17080   2.851  -0.312   3.300  0.6462 -0.6601 -0.0513
  868MOL0     O17081   2.776  -0.413   3.337 -0.2421  0.0573 -0.6811
  868MOL0     C17082   2.667  -0.449   3.253  0.0257  0.3917 -0.6359
  868MOL0     C17083   2.594  -0.584   3.307 -0.1517 -0.2925  0.0514
  868MOL0     C17084   2.515  -0.659   3.203 -0.9923 -0.1022  0.8929
  868MOL0     C17085   2.416  -0.758   3.264 -0.1441  0.5390  0.4109
  868MOL0     C17086   2.272  -0.705   3.256  0.3409  0.4370  0.7228
  868MOL0     C17087   2.225  -0.606   3.363 -0.5076  0.7271  0.2331
  868MOL0     C17088   2.248  -0.646   3.508  0.0193 -1.2212  0.0655
  868MOL0     C17089   2.178  -0.773   3.555 -0.2947 -0.2502  0.6190
  868MOL0    Cl17090   1.997  -0.751   3.533  0.0899 -0.2185  0.3571
  868MOL0     C17091   2.842  -0.193   3.373  0.5933 -0.2166  0.5670
  868MOL0     C17092   2.916  -0.080   3.349  0.2708  0.1934  0.3135
  868MOL0     O17093   2.923   0.134   3.123 -0.3896 -0.7937  0.0161
  868MOL0     C17094   3.069   0.334   3.290  0.4249  0.5740 -0.0607
  868MOL0     C17095   3.120   0.463   3.315 -2.0678  1.5102 -0.7352
  868MOL0     N17096   3.370   0.799   2.841  0.7858  0.1662  0.0370
  868MOL0     N17097   3.302   0.818   2.739  0.0277 -0.9577 -0.4292
  868MOL0     C17098   3.444   1.749   2.149 -0.5544 -0.0832 -0.2401
  868MOL0     C17099   3.514   1.841   2.069 -0.1898 -1.1321 -0.9491
  868MOL0     C17100   3.593   2.153   1.734 -0.7007 -0.1143 -0.1196
  868MOL0     C17101   3.571   2.227   1.616 -0.1832  0.3736  0.8903
  868MOL0     C17102   3.642   2.329   1.572 -0.9932  0.2792  0.4847
  868MOL0     C17103   3.749   2.372   1.654 -0.9453  0.7194  0.0505
  868MOL0     O17104   3.810   2.491   1.639 -0.7832 -0.1677 -0.0353
  868MOL0     C17105   3.773   2.577   1.528 -0.1954 -0.5488 -0.6601
  868MOL0     C17106   3.876   2.682   1.508  0.7390 -0.4963 -0.0158
  868MOL0     C17107   3.881   2.788   1.625 -0.0836  0.3444 -0.5495
  868MOL0     C17108   3.990   2.907   1.609  0.2451  0.8788 -0.5965
  868MOL0     C17109   3.951   2.968   1.476  0.3312  0.2304 -0.8481
  868MOL0     C17110   3.945   3.014   1.369  0.4538 -0.3954 -0.2230
  868MOL0     C17111   3.777   2.313   1.776 -0.5200  0.4224 -0.6794
  868MOL0     C17112   3.708   2.199   1.816  0.7880  0.4387 -0.0868
  868MOL0     H17113   3.291   1.860   1.807 -0.4541  0.9477  0.4038
  868MOL0     H17114   3.181   1.707   1.947 -1.8605  2.7424  2.4514
  868MOL0     H17115   3.082   1.710   2.206 -0.6324  1.3895 -3.4554
  868MOL0     H17116   3.086   1.569   2.094  1.7874  1.3902 -1.1837
  868MOL0     H17117   3.152   1.521   2.391  0.8797 -0.1094 -1.1595
  868MOL0     H17118   2.979   1.525   2.353  1.7471 -0.0833  5.2328
  868MOL0     H17119   3.014   1.360   2.180 -1.8822 -2.2354  1.3831
  868MOL0     H17120   3.186   1.328   2.233 -0.4231 -4.0238  2.6738
  868MOL0     H17121   2.923   1.313   2.388  1.2594  0.9525  1.0336
  868MOL0     H17122   2.996   1.176   2.295 -1.9287  1.6417 -2.3315
  868MOL0     H17123   3.190   1.153   2.441  1.3944  1.4504  1.6559
  868MOL0     H17124   3.153   1.312   2.523  2.6945 -1.0794  1.1085
  868MOL0     H17125   2.966   1.219   2.624  1.2652  0.6797  1.3245
  868MOL0     H17126   2.981   1.064   2.535  2.1640 -1.0428 -0.7524
  868MOL0     H17127   3.196   1.175   2.723  1.0909 -0.6082  0.1082
  868MOL0     H17128   3.096   1.046   2.768  1.1996  2.1710  2.7180
  868MOL0     H17129   3.320   1.062   2.549 -1.1402  2.3702  2.1096
  868MOL0     H17130   3.209   0.938   2.542  1.4920  0.4574  0.0170
  868MOL0     H17131   3.465   1.098   2.806 -2.2245  0.5844  0.7513
  868MOL0     H17132   3.561   0.773   2.998  1.1135  0.3160 -0.5801
  868MOL0     H17133   3.643   0.927   2.964  1.2986 -1.8721  0.6551
  868MOL0     H17134   3.510   1.034   3.150 -0.0379  0.2846 -0.5433
  868MOL0     H17135   3.581   0.884   3.197 -0.1737  0.5757 -0.0118
  868MOL0     H17136   3.298   0.866   3.126 -0.3733  0.0420  0.5150
  868MOL0     H17137   3.368   0.876   3.297  1.8558  0.1347  1.0749
  868MOL0     H17138   3.477   0.664   3.270  0.2877 -2.2696 -0.0399
  868MOL0     H17139   3.414   0.656   3.100 -1.5964  1.2720  0.0040
  868MOL0     H17140   3.364   0.467   3.079 -0.5221  3.2665  0.4055
  868MOL0     H17141   3.360   0.224   2.970  0.8642 -0.8680  2.2112
  868MOL0     H17142   3.243   0.103   3.033 -2.8561  0.6454  0.7522
  868MOL0     H17143   3.187   0.211   2.914 -1.3496  2.0044  1.5327
  868MOL0     H17144   3.111  -0.219   3.100  1.1107  1.5588  0.3951
  868MOL0     H17145   2.961  -0.416   3.140  1.5350  2.0153 -1.5594
  868MOL0     H17146   2.591  -0.372   3.239  0.6953  1.1213 -0.3387
  868MOL0     H17147   2.708  -0.486   3.159  3.9021  0.5662  0.8301
  868MOL0     H17148   2.669  -0.650   3.350 -1.7816 -2.4757 -0.2802
  868MOL0     H17149   2.524  -0.550   3.383 -2.0887 -0.1539 -1.6849
  868MOL0     H17150   2.580  -0.723   3.142 -3.8307 -1.7614 -0.5814
  868MOL0     H17151   2.473  -0.586   3.133 -0.9694 -2.2821 -1.5419
  868MOL0     H17152   2.415  -0.848   3.202 -0.3610  1.7750 -1.4577
  868MOL0     H17153   2.440  -0.799   3.362  1.2914  0.0358 -0.1232
  868MOL0     H17154   2.200  -0.786   3.244  0.4809  0.6240 -1.9327
  868MOL0     H17155   2.259  -0.654   3.160 -2.9930 -2.4507 -0.5756
  868MOL0     H17156   2.283  -0.514   3.355  0.6973 -0.0837 -0.8131
  868MOL0     H17157   2.119  -0.584   3.343  0.1147  2.5868 -1.4439
  868MOL0     H17158   2.200  -0.570   3.571 -0.9782 -0.0482 -2.0087
  868MOL0     H17159   2.356  -0.648   3.523  0.4540  3.6439 -0.6872
  868MOL0     H17160   2.202  -0.785   3.662 -1.2312 -2.8360  0.6024
  868MOL0     H17161   2.218  -0.862   3.506  0.3126 -1.6783  3.4376
  868MOL0     H17162   2.762  -0.188   3.446  1.7075  0.7159  1.7751
  868MOL0     H17163   2.898   0.016   3.396  2.4264 -0.2552  2.2561
  868MOL0     H17164   2.976   0.298   3.332  0.6499 -0.9329 -0.7579
  868MOL0     H17165   3.088   0.529   3.396  1.5340  0.3872  1.8940
  868MOL0     H17166   3.486   1.724   2.246  0.0245 -3.0804 -1.1457
  868MOL0     H17167   3.602   1.894   2.106 -0.1711 -2.4833  1.0499
  868MOL0     H17168   3.479   2.218   1.560  1.0514 -1.1764 -1.0766
  868MOL0     H17169   3.602   2.380   1.484 -0.5021  1.1727  0.7618
  868MOL0     H17170   3.795   2.529   1.432  1.1670  1.7969 -1.5956
  868MOL0     H17171   3.670   2.609   1.544  1.0988  3.2213  1.6009
  868MOL0     H17172   3.864   2.726   1.409  1.0943 -0.6493 -0.1276
  868MOL0     H17173   3.975   2.638   1.492  1.0875  0.3411 -0.2286
  868MOL0     H17174   3.897   2.743   1.723 -1.7132  3.3507  1.2298
  868MOL0     H17175   3.778   2.825   1.632 -0.5347 -0.8502 -0.5209
  868MOL0     H17176   4.092   2.868   1.612 -0.8358 -2.2431  0.2429
  868MOL0     H17177   3.988   2.984   1.686  2.0999 -1.8314  2.4370
  868MOL0     H17178   3.936   3.077   1.282  1.7756  2.4782  1.5618
  868MOL0     H17179   3.858   2.339   1.843 -1.3284  1.5431 -0.1002
  868MOL0     H17180   3.724   2.141   1.906  0.7085  0.2859 -0.1712
  869MOL0     O17181   2.934  11.023  10.744  0.3252  0.2369 -0.3876
  869MOL0     C17182   3.044  11.068  10.719 -0.1787  0.2181  0.1276
  869MOL0     O17183   3.077  11.193  10.719  0.5055  0.3463 -0.4494
  869MOL0     C17184   2.991  11.296  10.762 -0.5619 -0.5794  1.2088
  869MOL0     C17185   3.037  11.427  10.726 -0.6049  0.0376  0.5940
  869MOL0     C17186   2.966  11.533  10.783 -0.0907 -0.2222  0.7448
  869MOL0     C17187   2.854  11.517  10.862  0.6623 -0.5306  0.6638
  869MOL0     O17188   2.786  11.621  10.923  0.1317  0.6277 -0.3497
  869MOL0     C17189   2.673  11.676  10.856 -0.3887  0.3328  0.5023
  869MOL0     C17190   2.546  11.620  10.916  0.1317 -0.3080 -1.3859
  869MOL0     C17191   2.415  11.684  10.866 -0.4320 -0.1437 -0.2906
  869MOL0     C17192   2.289  11.605  10.901 -0.3453  0.1799 -0.1419
  869MOL0     C17193   2.168  11.688  10.889  0.6902  0.6913 -0.1152
  869MOL0     C17194   2.046  11.604  10.937  0.4356 -0.2316  0.9716
  869MOL0     C17195   1.922  11.694  10.975 -0.0567 -0.1818  1.7993
  869MOL0     C17196   1.877  11.758  10.841  0.4238 -0.2300 -0.1981
  869MOL0     N17197   1.743  11.823  10.869  0.2086  0.5966  0.1769
  869MOL0     C17198   1.626  11.753  10.864 -0.0829  0.0490  1.1749
  869MOL0     C17199   1.521  11.840  10.880 -0.5170 -0.0102 -0.4313
  869MOL0     C17200   1.377  11.805  10.865  0.2873  0.0631  0.8811
  869MOL0     C17201   1.326  11.823  10.725  0.3139  0.3757  0.0294
  869MOL0     C17202   1.171  11.827  10.717 -0.1755 -1.5481 -0.1396
  869MOL0     C17203   1.118  11.684  10.727  0.3099 -0.5668 -0.0571
  869MOL0     O17204   0.981  11.694  10.705  0.5359  0.3675  0.4696
  869MOL0     C17205   0.922  11.598  10.626 -0.5821 -0.7707  0.3824
  869MOL0     C17206   0.804  11.638  10.560 -0.8718  0.0872 -0.4392
  869MOL0     C17207   0.745  11.569  10.466  0.1122  0.0863  0.5088
  869MOL0     C17208   0.618  11.638  10.415  0.6965  0.0241  0.6805
  869MOL0     C17209   0.783  11.436  10.436 -0.9261  0.3758  0.1995
  869MOL0     C17210   0.713  11.351  10.348  0.2292  0.1065  0.7700
  869MOL0     O17211   0.576  11.348  10.381  0.7907 -1.0260  0.6512
  869MOL0     C17212   0.491  11.324  10.276  0.4830 -0.8126 -0.9703
  869MOL0     C17213   0.522  11.327  10.144 -0.7740 -0.2769 -0.0392
  869MOL0     C17214   0.431  11.288  10.050  0.3433  0.7029  0.9226
  869MOL0     C17215   0.297  11.245  10.080  0.7284  0.3150  0.3633
  869MOL0     O17216   0.210  11.206   9.980  0.9147  0.1550  0.8653
  869MOL0     C17217   0.205  11.065   9.965  0.2600 -0.7043  0.1099
  869MOL0     C17218   0.059  11.027   9.907  0.2698 -0.4695 -0.9303
  869MOL0     C17219   0.038  10.872   9.907  1.1042  0.6170  0.2016
  869MOL0     C17220   0.007  10.802  10.035 -0.0601  0.1113  0.3650
  869MOL0     C17221   0.057  10.660  10.038  0.5341 -0.3343  0.8870
  869MOL0     C17222  -0.061  10.580  10.093  1.3331 -0.2317  0.7550
  869MOL0     C17223  -0.020  10.427  10.109 -0.1031 -0.3086 -0.1815
  869MOL0     C17224  -0.093  10.350  10.216 -0.1119  0.5209  0.4258
  869MOL0    Cl17225  -0.069  10.414  10.375 -0.0715  0.0223 -0.8286
  869MOL0     C17226   0.256  11.251  10.212  0.0043  0.0191  0.0337
  869MOL0     C17227   0.357  11.285  10.318 -0.4480  0.7018 -0.3418
  869MOL0     O17228   0.774  11.271  10.274 -0.7726  0.0091  0.2130
  869MOL0     C17229   0.895  11.382  10.510  0.3805  0.1832  0.0013
  869MOL0     C17230   0.963  11.468  10.612 -0.6558 -0.3927  0.1158
  869MOL0     N17231   1.581  11.963  10.910  0.0861  0.3933 -1.1270
  869MOL0     N17232   1.712  11.948  10.901  0.4477 -0.2598 -0.4530
  869MOL0     C17233   2.813  11.390  10.894 -0.0055  0.0179 -0.4871
  869MOL0     C17234   2.883  11.276  10.845 -0.4375 -0.0593 -0.3151
  869MOL0     C17235   3.162  10.989  10.682 -0.9905 -0.5016  1.1696
  869MOL0     C17236   3.299  11.041  10.695  0.7537  0.4552  0.0201
  869MOL0     C17237   3.400  10.953  10.656  0.3764 -0.4285  1.0131
  869MOL0     C17238   3.374  10.821  10.599 -0.0967  0.0416  0.7086
  869MOL0     O17239   3.479  10.757  10.541 -0.6965  0.4959 -0.0789
  869MOL0     C17240   3.553  10.675  10.629 -0.0018 -1.1368  0.8504
  869MOL0     C17241   3.699  10.682  10.578 -0.1230  0.2922  0.5774
  869MOL0     C17242   3.755  10.825  10.541 -0.3516 -1.1298  0.1957
  869MOL0     C17243   3.908  10.830  10.507  0.7659 -0.7505 -0.6780
  869MOL0     C17244   3.993  10.853  10.624  0.5746 -1.0680 -0.1502
  869MOL0     C17245   4.084  10.843  10.706  0.7130 -0.2216 -0.8252
  869MOL0     C17246   3.248  10.778  10.571 -1.0022 -0.7129  0.2292
  869MOL0     C17247   3.148  10.861  10.627 -0.0269  1.0454 -0.6994
  869MOL0     H17248   3.128  11.444  10.669 -2.7701 -0.4192 -3.3862
  869MOL0     H17249   3.006  11.633  10.767 -3.8016  1.3200 -0.0849
  869MOL0     H17250   2.676  11.783  10.877  4.3801  0.2279  1.5871
  869MOL0     H17251   2.686  11.665  10.748 -1.8995  0.7794  0.2573
  869MOL0     H17252   2.541  11.511  10.911 -1.1982 -0.2216 -2.4289
  869MOL0     H17253   2.557  11.647  11.022 -1.9026 -2.4853 -0.5382
  869MOL0     H17254   2.409  11.784  10.908 -0.3115 -0.8975  1.6414
  869MOL0     H17255   2.421  11.694  10.757 -1.9855  3.7694 -0.1752
  869MOL0     H17256   2.276  11.510  10.850 -3.4304 -0.0300  0.8367
  869MOL0     H17257   2.306  11.565  11.002 -1.9716 -3.3356 -1.1263
  869MOL0     H17258   2.167  11.772  10.958  1.3765 -1.3778  2.5804
  869MOL0     H17259   2.151  11.714  10.784 -2.9773  0.4105  0.2722
  869MOL0     H17260   2.003  11.535  10.864  0.1953 -0.2660  1.1461
  869MOL0     H17261   2.074  11.535  11.017 -1.3518 -0.6909  1.2358
  869MOL0     H17262   1.848  11.624  11.013  1.8970 -2.4118  1.7205
  869MOL0     H17263   1.947  11.777  11.043  0.6983  2.3256 -1.2883
  869MOL0     H17264   1.864  11.687  10.759  1.2385 -0.5398 -0.0756
  869MOL0     H17265   1.949  11.836  10.815 -0.0159  0.4827  0.6599
  869MOL0     H17266   1.627  11.646  10.845  5.3293 -0.0255  0.1626
  869MOL0     H17267   1.361  11.706  10.907 -1.7946  0.2963  0.7303
  869MOL0     H17268   1.317  11.875  10.923 -0.6022  1.4487 -1.5696
  869MOL0     H17269   1.356  11.738  10.663 -1.6959 -0.0921 -0.3669
  869MOL0     H17270   1.371  11.908  10.672 -1.2111 -0.0514 -2.0827
  869MOL0     H17271   1.137  11.858  10.618 -2.5754 -1.8405  0.5144
  869MOL0     H17272   1.128  11.897  10.789  1.3823  1.2295 -1.7361
  869MOL0     H17273   1.148  11.646  10.825  3.2884  1.1923 -0.1448
  869MOL0     H17274   1.174  11.618  10.659  0.7756 -0.1261 -0.1109
  869MOL0     H17275   0.777  11.741  10.579  0.7613  1.2115 -3.5003
  869MOL0     H17276   0.529  11.618  10.475  1.0572 -1.1237  0.8569
  869MOL0     H17277   0.616  11.746  10.396 -1.8390 -0.3073 -1.6793
  869MOL0     H17278   0.599  11.606  10.312  1.0118 -3.0996  1.4782
  869MOL0     H17279   0.622  11.349  10.109 -0.8527 -0.6057 -0.4756
  869MOL0     H17280   0.471  11.276   9.950  0.6148  2.9333  0.7274
  869MOL0     H17281   0.281  11.034   9.893  0.5445  1.1214 -0.4164
  869MOL0     H17282   0.224  11.008  10.056 -0.9947 -1.9773 -0.3959
  869MOL0     H17283  -0.019  11.084   9.958 -0.0585 -1.0965 -0.7311
  869MOL0     H17284   0.055  11.064   9.804  1.0535  3.2070  0.2063
  869MOL0     H17285   0.136  10.837   9.872  0.1168 -2.4325  0.2073
  869MOL0     H17286  -0.032  10.854   9.825  1.3947  0.1786  0.0495
  869MOL0     H17287   0.053  10.845  10.124  0.0925 -2.2203  1.4815
  869MOL0     H17288  -0.102  10.804  10.041 -0.2294 -4.1106  2.3881
  869MOL0     H17289   0.147  10.650  10.099  0.5384 -2.2128  0.6324
  869MOL0     H17290   0.087  10.629   9.938  2.8263  1.6773  0.8688
  869MOL0     H17291  -0.098  10.626  10.186  2.3825 -1.0046  1.5928
  869MOL0     H17292  -0.156  10.587  10.040  0.2172 -0.8808  2.5452
  869MOL0     H17293   0.086  10.415  10.131  0.3001  0.5609 -1.5001
  869MOL0     H17294  -0.035  10.385  10.009 -1.3269 -0.8871  0.2235
  869MOL0     H17295  -0.059  10.246  10.214  0.0965  0.5998 -0.1680
  869MOL0     H17296  -0.198  10.349  10.187  0.3625 -1.9758 -1.5808
  869MOL0     H17297   0.165  11.206  10.250 -0.4753  1.6118  0.8652
  869MOL0     H17298   0.317  11.278  10.419 -2.5806  2.7066 -0.9509
  869MOL0     H17299   0.939  11.283  10.499  0.2638 -0.0646  1.4575
  869MOL0     H17300   1.046  11.434  10.673 -0.6428 -0.2647  0.1677
  869MOL0     H17301   2.732  11.377  10.965 -1.1929 -2.3538 -2.1859
  869MOL0     H17302   2.827  11.185  10.865 -2.9594  0.4593 -3.9203
  869MOL0     H17303   3.327  11.140  10.728  4.2835  0.0662 -1.3439
  869MOL0     H17304   3.500  10.989  10.676  0.5496  0.7449 -1.5754
  869MOL0     H17305   3.560  10.719  10.729  0.2873 -0.5624  0.5831
  869MOL0     H17306   3.499  10.580  10.630 -1.4560 -0.3308  1.3092
  869MOL0     H17307   3.719  10.625  10.487 -1.6162  2.4596 -1.1996
  869MOL0     H17308   3.757  10.636  10.659 -1.3751 -0.2900  1.1770
  869MOL0     H17309   3.744  10.903  10.616  2.5490 -1.5488  1.1824
  869MOL0     H17310   3.707  10.860  10.449 -0.2236  1.1497  0.9442
  869MOL0     H17311   3.912  10.916  10.439  2.5264  1.0843  1.5530
  869MOL0     H17312   3.938  10.737  10.458 -0.1554 -1.6799  0.4737
  869MOL0     H17313   4.168  10.839  10.772 -0.5426  0.5384  0.8584
  869MOL0     H17314   3.229  10.689  10.511 -3.1955 -0.5253  0.5527
  869MOL0     H17315   3.050  10.820  10.605 -0.0144  0.8937 -0.4717
  870MOL0     O17316   1.726   5.936   3.797 -0.0454  0.2095  0.3411
  870MOL0     C17317   1.656   5.863   3.866  0.1209  0.1002  0.2516
  870MOL0     O17318   1.673   5.841   4.005 -0.2050 -0.2884  0.3261
  870MOL0     C17319   1.755   5.920   4.079  0.1264  0.6908 -0.3226
  870MOL0     C17320   1.769   6.064   4.062  1.2142  1.1383 -0.3468
  870MOL0     C17321   1.844   6.132   4.156  0.4183 -0.0233  0.4209
  870MOL0     C17322   1.909   6.074   4.260 -0.5249  0.5560  0.5926
  870MOL0     O17323   1.981   6.129   4.362 -0.4990 -0.2647  0.6532
  870MOL0     C17324   1.971   6.266   4.378 -0.4799 -0.5659 -0.0694
  870MOL0     C17325   2.048   6.319   4.501  0.1666 -0.8323 -0.2359
  870MOL0     C17326   2.200   6.293   4.501  0.3580 -0.0898 -0.3630
  870MOL0     C17327   2.271   6.357   4.381 -0.1061  0.2675  0.3098
  870MOL0     C17328   2.421   6.393   4.406 -0.6480 -0.2139  0.9442
  870MOL0     C17329   2.501   6.292   4.475  0.0351  0.0585 -0.1803
  870MOL0     C17330   2.507   6.163   4.389  0.1704  0.9808  0.3739
  870MOL0     C17331   2.590   6.052   4.452 -0.7101  0.3071  0.0065
  870MOL0     N17332   2.562   6.029   4.598 -0.9280  0.1669  0.0300
  870MOL0     C17333   2.445   6.011   4.657  0.7689  1.1696  0.8958
  870MOL0     C17334   2.474   5.980   4.782  0.0337 -0.5613 -0.1603
  870MOL0     C17335   2.379   5.978   4.895 -0.3254 -0.9385 -0.1177
  870MOL0     C17336   2.374   5.854   4.982  0.0183  0.1048  0.1570
  870MOL0     C17337   2.300   5.733   4.903  0.3191 -0.7379 -0.5196
  870MOL0     C17338   2.387   5.658   4.800 -0.3404 -0.0997 -0.3144
  870MOL0     O17339   2.299   5.543   4.763  0.7298 -0.5834 -0.7332
  870MOL0     C17340   2.278   5.432   4.848  0.0471 -0.2051 -0.4511
  870MOL0     C17341   2.155   5.359   4.839  0.0974 -0.2004  0.5345
  870MOL0     C17342   2.122   5.260   4.932  0.5384 -0.2506 -0.2488
  870MOL0     C17343   1.991   5.192   4.894 -0.4649 -1.3475  0.4873
  870MOL0     C17344   2.215   5.225   5.029  0.1848 -0.0127  0.0800
  870MOL0     C17345   2.182   5.114   5.135  0.1697 -1.0312  0.8514
  870MOL0     O17346   2.221   5.133   5.267  0.5901  0.0968  0.2357
  870MOL0     C17347   2.212   5.029   5.357  0.0858  0.7714 -0.0334
  870MOL0     C17348   2.100   5.008   5.445 -0.0502 -0.2939 -0.7584
  870MOL0     C17349   2.111   4.890   5.528  0.2854 -0.2530 -0.4295
  870MOL0     C17350   2.232   4.819   5.539 -0.2273 -0.5420 -0.6540
  870MOL0     O17351   2.270   4.728   5.633 -0.0418 -0.0209  0.9573
  870MOL0     C17352   2.193   4.694   5.751 -0.2294  0.2119  0.0424
  870MOL0     C17353   2.270   4.617   5.858 -0.6703  0.7031  0.4481
  870MOL0     C17354   2.340   4.490   5.785  0.5159  0.2999  0.4509
  870MOL0     C17355   2.488   4.504   5.749 -0.3878  0.4758  0.3862
  870MOL0     C17356   2.525   4.372   5.672 -0.3198  0.0299 -1.8608
  870MOL0     C17357   2.675   4.369   5.626  0.0516 -0.4577  0.0445
  870MOL0     C17358   2.720   4.232   5.576  0.1663 -0.1844  0.7260
  870MOL0     C17359   2.640   4.179   5.457  0.3753 -0.7367 -0.1060
  870MOL0    Cl17360   2.742   4.041   5.412  0.0430 -0.3354 -0.3729
  870MOL0     C17361   2.334   4.841   5.445  0.2093 -0.5986 -0.4453
  870MOL0     C17362   2.324   4.945   5.349  0.2974 -0.5043 -0.2672
  870MOL0     O17363   2.120   5.022   5.091  1.2577  0.4314  0.1657
  870MOL0     C17364   2.327   5.294   5.045 -0.0708  0.2001 -0.3817
  870MOL0     C17365   2.361   5.408   4.965 -0.3466 -0.8713  0.7913
  870MOL0     N17366   2.609   5.991   4.807 -0.0415 -0.0496  0.8011
  870MOL0     N17367   2.662   6.026   4.692 -0.1972  0.0742 -0.8431
  870MOL0     C17368   1.912   5.932   4.263 -0.6686 -0.8090 -0.6332
  870MOL0     C17369   1.835   5.855   4.177 -0.1594 -0.3413  0.6913
  870MOL0     C17370   1.560   5.784   3.793 -0.4203 -0.5196  0.8810
  870MOL0     C17371   1.494   5.680   3.863  0.0439  0.7831  0.2783
  870MOL0     C17372   1.405   5.596   3.790  0.1464 -0.5097 -0.1707
  870MOL0     C17373   1.363   5.631   3.662  0.8895  0.3133 -0.3834
  870MOL0     O17374   1.271   5.558   3.587 -0.1262 -0.0188  0.3949
  870MOL0     C17375   1.224   5.432   3.653  0.6671 -0.2584 -0.5301
  870MOL0     C17376   1.132   5.351   3.553 -0.5128  0.0715 -0.1374
  870MOL0     C17377   1.191   5.335   3.409 -0.6174 -1.1948 -0.0535
  870MOL0     C17378   1.087   5.310   3.296  0.7185  0.2200 -1.0175
  870MOL0     C17379   1.151   5.266   3.172  0.3565 -0.2863 -0.4532
  870MOL0     C17380   1.217   5.252   3.072  0.4038 -0.1559  1.0465
  870MOL0     C17381   1.419   5.736   3.600  0.3894  0.2152  0.7006
  870MOL0     C17382   1.515   5.815   3.660 -0.5207  0.1676 -0.2543
  870MOL0     H17383   1.721   6.120   3.983  1.4870 -0.1251 -1.4385
  870MOL0     H17384   1.837   6.240   4.148 -1.8890  0.0541  2.4661
  870MOL0     H17385   2.004   6.327   4.293  0.7499 -0.9901  0.0910
  870MOL0     H17386   1.865   6.291   4.390  0.3997  2.6158  2.3359
  870MOL0     H17387   2.034   6.427   4.511  0.1449 -1.0309  3.3588
  870MOL0     H17388   2.002   6.274   4.590  0.8712  0.6533  0.9261
  870MOL0     H17389   2.245   6.329   4.594  0.9265  1.7099 -1.2880
  870MOL0     H17390   2.225   6.186   4.502  0.0553 -0.1549  0.3705
  870MOL0     H17391   2.265   6.285   4.299  1.3898 -0.4884  0.8287
  870MOL0     H17392   2.227   6.450   4.344  2.4697  2.6825  2.8393
  870MOL0     H17393   2.459   6.439   4.314 -3.4963  1.8725  0.7022
  870MOL0     H17394   2.400   6.482   4.465  0.3611  2.0047 -1.8133
  870MOL0     H17395   2.597   6.334   4.506 -0.5171 -1.2579  4.0425
  870MOL0     H17396   2.448   6.279   4.570 -2.7291 -1.9219 -1.8617
  870MOL0     H17397   2.406   6.122   4.373  0.3695  0.9180 -0.7576
  870MOL0     H17398   2.554   6.179   4.292  2.3957  4.5444  1.8409
  870MOL0     H17399   2.697   6.068   4.436 -0.1593 -3.6114 -1.5182
  870MOL0     H17400   2.559   5.967   4.390 -1.8752 -0.1457  1.1527
  870MOL0     H17401   2.344   6.009   4.617  1.1064  3.5053 -0.2373
  870MOL0     H17402   2.398   6.070   4.952 -1.8574 -0.8523  0.2910
  870MOL0     H17403   2.278   5.995   4.857 -0.7185 -1.0692  0.8403
  870MOL0     H17404   2.329   5.890   5.075  0.9481  2.7422 -0.3173
  870MOL0     H17405   2.476   5.820   5.003 -1.3066 -2.2026  3.7395
  870MOL0     H17406   2.220   5.780   4.845  1.6271  2.5645  0.1307
  870MOL0     H17407   2.262   5.668   4.982  1.5994  0.7305  1.3988
  870MOL0     H17408   2.474   5.615   4.851  1.9554  4.4736  0.1811
  870MOL0     H17409   2.419   5.714   4.712  0.0672  1.3496  0.7098
  870MOL0     H17410   2.079   5.380   4.764  0.5298  0.5565  0.2975
  870MOL0     H17411   1.941   5.254   4.818  1.9482  2.7564  1.9296
  870MOL0     H17412   1.993   5.097   4.841  0.0385 -0.8720 -0.3660
  870MOL0     H17413   1.917   5.182   4.974 -0.3948 -2.9785  0.3663
  870MOL0     H17414   2.013   5.070   5.461  0.2844 -0.2703  1.3318
  870MOL0     H17415   2.029   4.869   5.596  1.5300 -3.7347  0.1761
  870MOL0     H17416   2.159   4.787   5.798 -0.1404  0.7666 -0.9742
  870MOL0     H17417   2.099   4.648   5.721 -0.9995  1.3123  0.6812
  870MOL0     H17418   2.352   4.671   5.905 -1.3144 -0.8844  3.6857
  870MOL0     H17419   2.204   4.590   5.942 -2.5232 -0.5098 -1.2899
  870MOL0     H17420   2.291   4.462   5.691  0.0082 -2.8216  1.5508
  870MOL0     H17421   2.327   4.411   5.859  1.0326 -1.3594 -1.1556
  870MOL0     H17422   2.509   4.589   5.683  3.1313  1.5951  2.6764
  870MOL0     H17423   2.548   4.513   5.840 -1.5243  1.6193  1.0631
  870MOL0     H17424   2.457   4.352   5.588  0.2274  1.8187 -2.7878
  870MOL0     H17425   2.511   4.296   5.750  0.1019 -0.4194 -2.2212
  870MOL0     H17426   2.690   4.447   5.550  0.9036  0.7592  1.4174
  870MOL0     H17427   2.738   4.390   5.713 -0.9181  0.3812  0.5632
  870MOL0     H17428   2.714   4.155   5.653 -2.0525 -3.4920 -2.4159
  870MOL0     H17429   2.826   4.245   5.551  0.1340 -1.3438 -0.1077
  870MOL0     H17430   2.639   4.257   5.380  0.3210 -1.2254 -0.6047
  870MOL0     H17431   2.538   4.149   5.482 -0.6102  0.8500 -1.9081
  870MOL0     H17432   2.417   4.770   5.444  2.0448  1.4067 -1.8502
  870MOL0     H17433   2.395   4.965   5.270 -1.1046 -0.4165 -1.5330
  870MOL0     H17434   2.401   5.274   5.122 -1.7890 -2.9207  0.6539
  870MOL0     H17435   2.450   5.470   4.976 -1.1338  0.0573  2.2844
  870MOL0     H17436   1.976   5.882   4.336  0.3529  1.3594  0.0711
  870MOL0     H17437   1.825   5.747   4.179 -5.2862 -0.1445 -0.0529
  870MOL0     H17438   1.522   5.649   3.963 -4.4756  0.0379  1.5385
  870MOL0     H17439   1.366   5.511   3.844 -0.7601 -0.9053 -1.4067
  870MOL0     H17440   1.313   5.372   3.674  1.4050  1.3770  1.3091
  870MOL0     H17441   1.165   5.444   3.743  1.0071  1.8538 -0.5436
  870MOL0     H17442   1.043   5.413   3.540  1.3802  3.3334  1.4276
  870MOL0     H17443   1.105   5.250   3.587  2.6260 -1.2708 -1.2475
  870MOL0     H17444   1.273   5.265   3.420 -0.6782 -1.1526  0.7987
  870MOL0     H17445   1.243   5.429   3.392 -0.3177 -0.4951  3.7331
  870MOL0     H17446   1.036   5.405   3.278 -3.2199 -1.3483  0.5250
  870MOL0     H17447   1.011   5.233   3.316 -0.9779  1.8317 -0.9907
  870MOL0     H17448   1.268   5.223   2.983 -0.5867 -0.9934  0.7215
  870MOL0     H17449   1.393   5.755   3.497  1.7410  3.0041  0.7844
  870MOL0     H17450   1.563   5.896   3.607 -0.7486  0.0341 -0.6737
  871MOL0     O17451   1.100   4.163   1.489  0.7917 -0.4147  0.0555
  871MOL0     C17452   1.063   4.045   1.476  0.1899 -0.6360  0.2547
  871MOL0     O17453   1.120   3.944   1.540  0.4058 -0.2576  0.3782
  871MOL0     C17454   1.241   3.954   1.602  1.1325 -0.3654 -0.2720
  871MOL0     C17455   1.357   3.892   1.546  0.1995  0.5045  0.0112
  871MOL0     C17456   1.486   3.907   1.593  0.2195 -0.1419  0.2687
  871MOL0     C17457   1.515   3.999   1.701  0.2790  0.3877  0.0433
  871MOL0     O17458   1.638   4.014   1.757 -0.1273  0.1330  0.1833
  871MOL0     C17459   1.653   4.006   1.903  0.2458 -0.7519 -0.2971
  871MOL0     C17460   1.798   4.017   1.948 -0.6358  0.5121 -0.6658
  871MOL0     C17461   1.864   3.885   1.950  0.5619  1.0031 -0.0111
  871MOL0     C17462   2.018   3.892   1.948 -0.5409  0.1954  0.8139
  871MOL0     C17463   2.099   3.763   1.926 -1.1664  0.8388  0.7988
  871MOL0     C17464   2.243   3.788   1.931 -0.3752  0.5841  0.2419
  871MOL0     C17465   2.319   3.672   1.862  0.6540 -0.7996  0.2394
  871MOL0     C17466   2.475   3.684   1.875  0.3494  0.5395 -0.0081
  871MOL0     N17467   2.540   3.594   1.772  0.8439  0.3869 -0.3039
  871MOL0     C17468   2.571   3.634   1.652 -0.6572  1.0602  1.2125
  871MOL0     C17469   2.600   3.515   1.578  0.5234  0.0875 -0.0491
  871MOL0     C17470   2.608   3.502   1.435 -0.0422  0.0689  0.4297
  871MOL0     C17471   2.463   3.454   1.378 -0.3555  0.0665 -0.0284
  871MOL0     C17472   2.333   3.532   1.394  0.7442 -0.7594  0.5541
  871MOL0     C17473   2.320   3.661   1.307  0.8386 -0.3921  0.1778
  871MOL0     O17474   2.300   3.633   1.160 -0.9673  0.1196  0.1834
  871MOL0     C17475   2.322   3.736   1.073 -0.2083  0.5483 -0.1831
  871MOL0     C17476   2.294   3.868   1.088  0.9876  0.1801  1.1806
  871MOL0     C17477   2.329   3.971   0.990  0.3951 -0.4023 -0.8856
  871MOL0     C17478   2.325   4.122   1.028  0.1168  0.5068 -0.3196
  871MOL0     C17479   2.386   3.918   0.866  0.4453 -0.3676 -0.4378
  871MOL0     C17480   2.424   4.008   0.758 -0.6320  0.0514 -0.1438
  871MOL0     O17481   2.521   3.956   0.659  0.4153 -0.6190 -0.0332
  871MOL0     C17482   2.607   4.038   0.588  0.0059 -0.3402  0.0698
  871MOL0     C17483   2.564   4.159   0.525  0.7559  0.0151  0.5690
  871MOL0     C17484   2.662   4.237   0.454 -0.3738 -0.0316 -0.0409
  871MOL0     C17485   2.802   4.199   0.446 -0.7640 -0.0743 -0.5137
  871MOL0     O17486   2.904   4.269   0.396  0.0832 -0.1103  0.1732
  871MOL0     C17487   2.869   4.390   0.317  1.5096 -0.2338 -0.2357
  871MOL0     C17488   2.996   4.468   0.281  0.9026  0.5920 -0.3900
  871MOL0     C17489   3.079   4.479   0.406  0.7732 -0.5823  0.1537
  871MOL0     C17490   3.192   4.580   0.390 -0.3468 -0.3007  0.3816
  871MOL0     C17491   3.313   4.577   0.486  0.3037 -0.5229  0.4428
  871MOL0     C17492   3.307   4.695   0.585 -0.1975 -0.3703 -0.1928
  871MOL0     C17493   3.190   4.708   0.691  0.1597 -0.0740 -0.2915
  871MOL0     C17494   3.240   4.767   0.821 -0.1637 -0.7033  0.1390
  871MOL0    Cl17495   3.320   4.928   0.778  0.4447  0.0632 -0.3867
  871MOL0     C17496   2.832   4.075   0.496  0.9661  0.7429  0.1813
  871MOL0     C17497   2.738   3.990   0.560  0.6280  0.7052  0.4441
  871MOL0     O17498   2.381   4.121   0.757 -0.1011  0.4400 -0.2550
  871MOL0     C17499   2.416   3.777   0.856 -0.0423 -0.7152  0.1757
  871MOL0     C17500   2.379   3.685   0.950  0.7012 -0.1981  0.2975
  871MOL0     N17501   2.601   3.413   1.674 -0.1066  0.4190  0.0424
  871MOL0     N17502   2.558   3.454   1.786 -0.5557 -0.4483  0.0759
  871MOL0     C17503   1.397   4.065   1.756 -0.1776  0.1368 -0.7530
  871MOL0     C17504   1.264   4.037   1.718 -0.0215 -0.6072 -0.0689
  871MOL0     C17505   0.932   4.021   1.407  0.2431  0.5525 -0.2385
  871MOL0     C17506   0.863   3.894   1.415  0.3629 -0.2977  0.7544
  871MOL0     C17507   0.740   3.886   1.337  0.4302 -0.8318 -0.5201
  871MOL0     C17508   0.687   3.990   1.263 -0.3830  0.0166 -1.1187
  871MOL0     O17509   0.571   3.995   1.196  0.0094  0.6770 -0.1533
  871MOL0     C17510   0.582   4.007   1.047 -0.8366 -0.7988 -0.1634
  871MOL0     C17511   0.638   3.874   0.988 -0.0488  0.7686 -0.0791
  871MOL0     C17512   0.545   3.754   0.996 -0.4947  0.6032 -0.7349
  871MOL0     C17513   0.622   3.638   0.941  0.3949 -1.0186 -0.6462
  871MOL0     C17514   0.715   3.572   1.042 -0.3590  0.0119 -0.3234
  871MOL0     C17515   0.791   3.540   1.128 -0.4721 -1.0405  0.2997
  871MOL0     C17516   0.764   4.112   1.261  0.9059  0.8455  0.2220
  871MOL0     C17517   0.883   4.128   1.331 -0.9692  0.1065  1.1355
  871MOL0     H17518   1.350   3.827   1.459 -2.3212 -2.8561  2.4918
  871MOL0     H17519   1.567   3.851   1.548  1.0379  2.6284 -1.9584
  871MOL0     H17520   1.599   4.094   1.938  1.2072 -0.6317  0.9727
  871MOL0     H17521   1.600   3.917   1.940 -0.4367 -0.6611 -1.0419
  871MOL0     H17522   1.856   4.091   1.892 -2.0620  2.8854  0.7945
  871MOL0     H17523   1.810   4.056   2.050  0.7427  1.2293 -1.0732
  871MOL0     H17524   1.841   3.834   2.043  0.6942  2.8563  1.0858
  871MOL0     H17525   1.817   3.822   1.874  2.7650 -0.2709 -0.3956
  871MOL0     H17526   2.041   3.962   1.867  1.0873 -1.1905  0.0174
  871MOL0     H17527   2.060   3.942   2.036 -0.2603 -0.1556  0.8806
  871MOL0     H17528   2.077   3.698   2.011 -0.6575 -2.1084 -1.1701
  871MOL0     H17529   2.071   3.709   1.835  1.9844 -1.4982  1.0377
  871MOL0     H17530   2.242   3.877   1.867  0.7111 -0.1994 -0.9045
  871MOL0     H17531   2.265   3.814   2.035  0.2796 -1.0447  0.5411
  871MOL0     H17532   2.284   3.573   1.893  0.3064 -0.4159  1.1065
  871MOL0     H17533   2.296   3.687   1.756  1.1595  2.2658  0.4852
  871MOL0     H17534   2.511   3.659   1.975 -2.2900  1.6958  1.3106
  871MOL0     H17535   2.501   3.789   1.862  0.9632  0.4393  0.3733
  871MOL0     H17536   2.567   3.729   1.600 -2.4122  0.8383  0.8641
  871MOL0     H17537   2.642   3.597   1.391  3.7421 -2.1317 -1.8809
  871MOL0     H17538   2.685   3.430   1.408 -1.1574 -1.1383  0.3825
  871MOL0     H17539   2.448   3.354   1.420  2.2567 -1.6503 -2.7661
  871MOL0     H17540   2.477   3.432   1.271 -0.3182 -1.0732  0.2005
  871MOL0     H17541   2.319   3.544   1.502  0.0029 -3.1068  0.7572
  871MOL0     H17542   2.258   3.459   1.365  0.2551  0.6856 -2.2087
  871MOL0     H17543   2.406   3.726   1.327  2.9973 -2.7083 -1.0213
  871MOL0     H17544   2.239   3.725   1.343  1.8600 -1.1581  4.3020
  871MOL0     H17545   2.240   3.911   1.172 -2.0686 -2.0652  0.5135
  871MOL0     H17546   2.270   4.191   0.963  0.6908  0.8301 -0.4626
  871MOL0     H17547   2.282   4.127   1.129  0.2264 -3.4291  0.1070
  871MOL0     H17548   2.429   4.153   1.037  0.1496 -0.0951  1.8346
  871MOL0     H17549   2.458   4.179   0.525  0.9213  0.9615  1.0457
  871MOL0     H17550   2.636   4.338   0.423  0.4440  1.0366  2.5098
  871MOL0     H17551   2.806   4.375   0.229  1.6200 -3.5764  0.1417
  871MOL0     H17552   2.817   4.443   0.397 -0.7863 -1.1519 -1.0238
  871MOL0     H17553   3.061   4.429   0.203 -1.9309 -4.1571 -0.7630
  871MOL0     H17554   2.965   4.572   0.262  1.6818  1.0593  0.7694
  871MOL0     H17555   3.118   4.381   0.437 -0.0219 -0.7652  0.6312
  871MOL0     H17556   3.023   4.511   0.495  0.1002  0.5397 -0.6556
  871MOL0     H17557   3.240   4.568   0.293  1.5940  2.1454  0.9307
  871MOL0     H17558   3.137   4.674   0.384  0.1343 -0.0105  0.4736
  871MOL0     H17559   3.400   4.584   0.421 -1.3577 -0.0074 -1.8801
  871MOL0     H17560   3.328   4.478   0.529 -3.5762 -0.9376  1.1916
  871MOL0     H17561   3.402   4.691   0.638 -0.1855  0.4936 -0.1324
  871MOL0     H17562   3.309   4.788   0.527 -1.6952 -1.1470 -1.5491
  871MOL0     H17563   3.135   4.615   0.707 -2.6150  0.6105 -4.2773
  871MOL0     H17564   3.109   4.772   0.654 -1.7823 -1.1081  1.8882
  871MOL0     H17565   3.317   4.701   0.862 -0.8108 -1.2609  0.4862
  871MOL0     H17566   3.158   4.792   0.889 -1.5436 -0.3493 -1.5714
  871MOL0     H17567   2.933   4.035   0.500  1.3671  1.7976  1.6522
  871MOL0     H17568   2.771   3.888   0.576  0.7164  0.5813 -0.4528
  871MOL0     H17569   2.465   3.746   0.764 -0.3785  2.3668 -1.1736
  871MOL0     H17570   2.397   3.579   0.936 -2.4153 -0.7927  0.1219
  871MOL0     H17571   1.417   4.137   1.836 -0.6412  0.5204 -0.9799
  871MOL0     H17572   1.190   4.089   1.778 -1.1952 -2.6049  0.2974
  871MOL0     H17573   0.910   3.809   1.463 -1.2302 -1.2866  0.6168
  871MOL0     H17574   0.685   3.793   1.331  1.0933 -1.4363  1.7278
  871MOL0     H17575   0.493   4.052   1.004  1.0753  1.6561 -1.7787
  871MOL0     H17576   0.659   4.081   1.026 -2.7178  0.5252 -2.8580
  871MOL0     H17577   0.737   3.844   1.025 -0.2187 -1.8580 -1.4836
  871MOL0     H17578   0.665   3.895   0.884  4.9990  0.6920  0.9168
  871MOL0     H17579   0.457   3.791   0.942 -0.4532  3.9099  1.1888
  871MOL0     H17580   0.525   3.738   1.103  0.5017  3.6127  0.0129
  871MOL0     H17581   0.682   3.668   0.855  0.7188  0.1207 -0.0391
  871MOL0     H17582   0.557   3.554   0.913  0.1048 -1.0412  0.0743
  871MOL0     H17583   0.867   3.516   1.200 -1.0453 -0.8749  0.9729
  871MOL0     H17584   0.729   4.202   1.211  0.0502 -0.5645 -1.8319
  871MOL0     H17585   0.933   4.224   1.323  0.0851 -0.2411  3.0083
  872MOL0     O17586   9.176   6.611   0.457  0.4550  0.0019 -0.4308
  872MOL0     C17587   9.097   6.649   0.546  0.6857 -0.7600  0.2779
  872MOL0     O17588   9.128   6.702   0.667 -0.4689 -0.7943 -0.3316
  872MOL0     C17589   9.251   6.766   0.677 -0.3782 -0.0512 -0.2398
  872MOL0     C17590   9.371   6.701   0.640 -0.5423  0.5374 -0.9612
  872MOL0     C17591   9.494   6.771   0.641  0.2799  0.5213 -0.2452
  872MOL0     C17592   9.499   6.902   0.688  1.2667 -0.4921 -0.0790
  872MOL0     O17593   9.612   6.968   0.700  0.4032  0.5057 -0.0167
  872MOL0     C17594   9.732   6.906   0.746 -0.9612 -0.6559 -0.4876
  872MOL0     C17595   9.836   7.011   0.804 -0.0587  0.2004 -0.2546
  872MOL0     C17596   9.842   7.129   0.699 -0.2456 -1.3580  0.2060
  872MOL0     C17597   9.884   7.088   0.562 -0.5912  0.3680  0.5692
  872MOL0     C17598   9.895   7.206   0.466 -0.2727  0.2869  0.1695
  872MOL0     C17599   9.762   7.239   0.399  0.2539  0.3662 -0.3747
  872MOL0     C17600   9.770   7.327   0.270 -0.2037  0.2231  0.3500
  872MOL0     C17601   9.635   7.389   0.236  0.3208 -0.0953  0.3079
  872MOL0     N17602   9.615   7.533   0.277  0.3624  0.3026  0.5192
  872MOL0     C17603   9.604   7.641   0.198  0.7723  0.4932  0.6698
  872MOL0     C17604   9.600   7.750   0.283 -0.0614  0.3198  0.3517
  872MOL0     C17605   9.590   7.894   0.237  0.3210 -0.0574  0.6673
  872MOL0     C17606   9.460   7.956   0.293 -0.3308  0.7785  0.2249
  872MOL0     C17607   9.378   8.052   0.202 -0.1622  0.0738  0.7318
  872MOL0     C17608   9.338   8.186   0.272 -0.2420  0.1740 -0.7341
  872MOL0     O17609   9.302   8.285   0.167 -0.3986  1.3786  0.4551
  872MOL0     C17610   9.194   8.257   0.080  0.3003  0.0744 -0.0023
  872MOL0     C17611   9.180   8.349  -0.028 -0.4779  0.1961 -0.4300
  872MOL0     C17612   9.088   8.334  -0.131  0.4895 -0.1099  0.0560
  872MOL0     C17613   9.078   8.441  -0.240  0.0084 -0.0899 -0.0636
  872MOL0     C17614   8.981   8.237  -0.117 -0.0582 -0.4221  0.2363
  872MOL0     C17615   8.862   8.226  -0.204 -0.6980 -0.7499  0.0190
  872MOL0     O17616   8.804   8.107  -0.188  0.6276 -0.5247 -0.4725
  872MOL0     C17617   8.694   8.079  -0.265  0.4823  0.1396  0.2614
  872MOL0     C17618   8.580   8.026  -0.206 -0.4356 -0.3137  0.2004
  872MOL0     C17619   8.469   7.998  -0.290  0.7006  1.3063 -0.2156
  872MOL0     C17620   8.471   8.008  -0.434  0.7897 -0.6203 -0.3706
  872MOL0     O17621   8.363   7.977  -0.514 -0.5378 -0.1115 -0.0422
  872MOL0     C17622   8.302   7.854  -0.490 -1.2918 -0.2620 -0.1664
  872MOL0     C17623   8.157   7.865  -0.501  0.2995 -1.2567 -0.2304
  872MOL0     C17624   8.083   7.753  -0.413  0.0390 -0.3424  0.2040
  872MOL0     C17625   8.110   7.617  -0.482  0.3699  0.1386 -0.4076
  872MOL0     C17626   8.073   7.511  -0.383  0.7345 -0.2931  0.2412
  872MOL0     C17627   8.037   7.375  -0.450  0.5110 -1.3475 -0.4829
  872MOL0     C17628   8.147   7.337  -0.546 -0.3502  0.2495 -0.0202
  872MOL0     C17629   8.128   7.196  -0.601 -0.0647 -0.2127 -0.1241
  872MOL0    Cl17630   8.274   7.140  -0.674 -0.3705  0.8095  0.1326
  872MOL0     C17631   8.595   8.043  -0.487  0.7631  0.3755 -0.6991
  872MOL0     C17632   8.702   8.083  -0.402 -1.1616  0.0005  0.2311
  872MOL0     O17633   8.824   8.318  -0.279 -0.8850 -0.0126 -0.2835
  872MOL0     C17634   8.986   8.153  -0.000 -0.3179  0.0177 -0.0170
  872MOL0     C17635   9.098   8.153   0.096 -0.7828  0.0115  0.0084
  872MOL0     N17636   9.607   7.703   0.411  0.5870  0.5830 -0.6283
  872MOL0     N17637   9.611   7.575   0.402  0.1963  0.0354  0.0411
  872MOL0     C17638   9.385   6.974   0.717  0.2512 -0.7291 -0.2512
  872MOL0     C17639   9.258   6.904   0.715 -0.1616  0.1985  0.5855
  872MOL0     C17640   8.948   6.630   0.514 -0.2339  0.1347 -0.0557
  872MOL0     C17641   8.843   6.660   0.611 -0.3442 -0.0814 -0.2348
  872MOL0     C17642   8.710   6.633   0.572 -0.2954  0.5699  0.0729
  872MOL0     C17643   8.684   6.581   0.448  0.7362 -1.0431  0.1338
  872MOL0     O17644   8.543   6.570   0.422  0.2847 -0.2194 -0.4535
  872MOL0     C17645   8.500   6.448   0.361  0.2967 -0.3160  1.1303
  872MOL0     C17646   8.355   6.401   0.387 -0.0650 -0.0291  0.0868
  872MOL0     C17647   8.326   6.354   0.529 -0.1410  0.1201  0.0601
  872MOL0     C17648   8.449   6.310   0.610 -0.8992  0.6102 -0.1184
  872MOL0     C17649   8.421   6.231   0.728 -0.0094  0.2282  0.9602
  872MOL0     C17650   8.403   6.176   0.833  0.2920 -0.3186  0.0496
  872MOL0     C17651   8.784   6.557   0.361  1.1254  0.1257  0.0613
  872MOL0     C17652   8.914   6.589   0.385 -0.0768  0.4069  0.1019
  872MOL0     H17653   9.346   6.598   0.616 -3.5281  0.8486  0.3339
  872MOL0     H17654   9.583   6.718   0.607  0.4690 -2.1667  3.8265
  872MOL0     H17655   9.713   6.837   0.829  1.4510 -2.2435 -1.1594
  872MOL0     H17656   9.784   6.856   0.664  1.8928 -1.9337  1.9275
  872MOL0     H17657   9.795   7.050   0.897  0.0716 -2.0392  0.8034
  872MOL0     H17658   9.934   6.970   0.826 -0.3093  1.2226  3.3401
  872MOL0     H17659   9.748   7.184   0.690  1.0245  1.2109  1.5271
  872MOL0     H17660   9.920   7.196   0.737  0.0572 -1.3122 -0.4789
  872MOL0     H17661   9.982   7.040   0.574 -0.7541  0.2457  1.5335
  872MOL0     H17662   9.820   7.013   0.515  1.6826  0.9321 -3.9535
  872MOL0     H17663   9.948   7.290   0.511  2.6243 -0.2148 -1.9816
  872MOL0     H17664   9.961   7.178   0.382  0.3347  4.0610 -0.7953
  872MOL0     H17665   9.716   7.144   0.370  1.1664 -0.1197 -0.2752
  872MOL0     H17666   9.695   7.281   0.475 -3.8042 -1.2624 -2.7350
  872MOL0     H17667   9.838   7.413   0.280  1.4942 -1.2945  2.9199
  872MOL0     H17668   9.798   7.266   0.184 -0.0949 -1.1374  1.3200
  872MOL0     H17669   9.557   7.335   0.292 -0.1977  0.0169 -0.2891
  872MOL0     H17670   9.612   7.383   0.129  0.5018  0.9742  0.2053
  872MOL0     H17671   9.595   7.647   0.090 -1.9523  0.0812  0.7965
  872MOL0     H17672   9.670   7.961   0.272  1.3981 -0.8915 -0.1140
  872MOL0     H17673   9.577   7.902   0.129  2.1603  4.6359  0.5237
  872MOL0     H17674   9.489   8.011   0.383 -0.2461 -0.0405  0.7055
  872MOL0     H17675   9.389   7.878   0.323  1.2506 -0.9081 -0.2922
  872MOL0     H17676   9.292   8.005   0.153  1.1335  2.9142 -5.0510
  872MOL0     H17677   9.436   8.080   0.114 -1.4412  0.4224 -0.0165
  872MOL0     H17678   9.423   8.229   0.325  1.3468  0.4844 -3.3591
  872MOL0     H17679   9.252   8.172   0.338 -1.4447 -0.7039 -2.4036
  872MOL0     H17680   9.237   8.441  -0.027  1.2257 -0.8001  0.1738
  872MOL0     H17681   8.981   8.488  -0.224  0.3071  1.6805 -2.7681
  872MOL0     H17682   9.154   8.518  -0.226 -1.9778  1.4002  3.6566
  872MOL0     H17683   9.078   8.390  -0.337 -0.2935 -1.0192  0.4096
  872MOL0     H17684   8.579   8.005  -0.100  1.0310 -0.7225  0.1621
  872MOL0     H17685   8.377   7.970  -0.240 -1.7850  2.5282 -3.7183
  872MOL0     H17686   8.325   7.789  -0.575 -1.7489 -0.8920  0.1809
  872MOL0     H17687   8.337   7.803  -0.400 -1.3269  1.7804  1.0848
  872MOL0     H17688   8.114   7.960  -0.470 -2.2521 -1.8010 -1.8391
  872MOL0     H17689   8.137   7.854  -0.608 -1.0456 -0.6448 -0.0572
  872MOL0     H17690   7.975   7.767  -0.417 -0.1482 -1.6712 -0.0991
  872MOL0     H17691   8.122   7.762  -0.311  2.6638  2.7143 -0.8942
  872MOL0     H17692   8.055   7.598  -0.574 -0.5632  0.3532  0.0890
  872MOL0     H17693   8.219   7.605  -0.487  0.5135 -0.3332  2.1656
  872MOL0     H17694   7.988   7.546  -0.324  2.0301  0.3707  1.8159
  872MOL0     H17695   8.156   7.506  -0.311  0.2676  3.3686  1.2235
  872MOL0     H17696   8.039   7.301  -0.370  4.5264  0.4590  1.3371
  872MOL0     H17697   7.940   7.390  -0.499 -0.1001 -0.8871  0.8323
  872MOL0     H17698   8.230   7.342  -0.475 -0.8289 -1.2313  0.7035
  872MOL0     H17699   8.158   7.402  -0.633 -3.7395 -1.2119 -1.7357
  872MOL0     H17700   8.059   7.189  -0.685 -0.3436  1.0406 -0.0189
  872MOL0     H17701   8.092   7.138  -0.516  1.4411 -0.1684  0.5824
  872MOL0     H17702   8.622   8.041  -0.592  1.6667 -3.1717 -0.5183
  872MOL0     H17703   8.788   8.132  -0.444  0.0833 -1.9628  0.3511
  872MOL0     H17704   8.902   8.085   0.011  0.6305 -1.1734  0.0069
  872MOL0     H17705   9.114   8.085   0.179  3.3976 -0.6686 -1.0957
  872MOL0     H17706   9.386   7.080   0.739 -3.7033 -0.0892 -2.2026
  872MOL0     H17707   9.169   6.966   0.728 -1.2789 -1.4476  1.1183
  872MOL0     H17708   8.875   6.699   0.707  2.4044 -3.6583  0.5045
  872MOL0     H17709   8.626   6.653   0.638 -0.1283  1.7369 -0.0497
  872MOL0     H17710   8.507   6.460   0.252  1.9703 -3.6729  0.7326
  872MOL0     H17711   8.567   6.363   0.376 -0.9276 -2.6460 -4.2421
  872MOL0     H17712   8.332   6.323   0.314 -1.3911  0.7829 -0.3928
  872MOL0     H17713   8.283   6.478   0.358  1.5847  1.2403 -0.7722
  872MOL0     H17714   8.261   6.267   0.533 -1.7652  1.3128  0.7693
  872MOL0     H17715   8.277   6.442   0.571 -0.2154 -0.9291  2.3272
  872MOL0     H17716   8.511   6.393   0.644  0.0217 -0.5152  1.0114
  872MOL0     H17717   8.509   6.239   0.553 -0.0197 -0.2964  1.8776
  872MOL0     H17718   8.392   6.131   0.929 -0.6956  0.0360  0.1141
  872MOL0     H17719   8.761   6.513   0.264 -3.6307 -1.7735  1.7485
  872MOL0     H17720   8.978   6.575   0.299  0.3501 -0.2760  0.5265
  873MOL0     O17721   2.774   0.702   6.808  0.2622 -1.0125  0.1946
  873MOL0     C17722   2.676   0.652   6.868  0.1017  1.3723 -0.5695
  873MOL0     O17723   2.617   0.699   6.974  0.3846 -0.1773 -0.2637
  873MOL0     C17724   2.657   0.826   7.015  0.4172  0.6025  0.4047
  873MOL0     C17725   2.778   0.862   7.062  0.2356 -0.7176  1.1664
  873MOL0     C17726   2.799   0.999   7.087 -0.7486  0.4480 -0.0492
  873MOL0     C17727   2.711   1.105   7.068  0.4083  0.8151 -0.1704
  873MOL0     O17728   2.743   1.235   7.098 -0.4650 -0.0395  1.2367
  873MOL0     C17729   2.683   1.294   7.211  0.0841 -0.7585  0.7564
  873MOL0     C17730   2.737   1.426   7.252  0.0959 -0.3781  0.1238
  873MOL0     C17731   2.704   1.536   7.150  0.5288  0.1099  0.0759
  873MOL0     C17732   2.819   1.578   7.060 -0.1244  0.6423 -0.2637
  873MOL0     C17733   2.762   1.681   6.956  0.5892  0.1381 -1.2194
  873MOL0     C17734   2.872   1.756   6.882  0.3600 -0.3620  0.4788
  873MOL0     C17735   2.839   1.814   6.743 -0.5458 -0.0407  0.1813
  873MOL0     C17736   2.967   1.832   6.661  0.4056 -0.4365  0.5616
  873MOL0     N17737   3.037   1.956   6.698 -0.6840 -0.3019 -0.6238
  873MOL0     C17738   3.020   2.080   6.651  0.1068 -0.3275  0.1041
  873MOL0     C17739   3.089   2.157   6.737  0.1327 -0.3253  0.9963
  873MOL0     C17740   3.107   2.306   6.715  0.2063  0.7670 -0.1060
  873MOL0     C17741   3.254   2.330   6.655  0.2452 -0.0373  0.2718
  873MOL0     C17742   3.273   2.483   6.644 -0.0107  0.8450 -0.4699
  873MOL0     C17743   3.357   2.518   6.531  0.1200 -0.5157  0.0747
  873MOL0     O17744   3.465   2.429   6.532 -0.1623 -0.2810  0.0182
  873MOL0     C17745   3.525   2.404   6.409 -0.8391  0.2900 -0.6364
  873MOL0     C17746   3.636   2.320   6.424 -1.0216  0.4037 -0.3986
  873MOL0     C17747   3.722   2.297   6.317 -0.7199  0.0849  0.2685
  873MOL0     C17748   3.848   2.225   6.349 -0.9565  0.4389 -0.1028
  873MOL0     C17749   3.685   2.340   6.187 -0.3811 -0.5415  0.8027
  873MOL0     C17750   3.758   2.306   6.065  0.1508  0.7255 -0.3266
  873MOL0     O17751   3.705   2.374   5.954 -1.0322 -0.5592 -0.5483
  873MOL0     C17752   3.677   2.303   5.841  0.1089  0.3113 -0.6622
  873MOL0     C17753   3.646   2.382   5.738 -1.0832 -0.5383 -0.3203
  873MOL0     C17754   3.603   2.336   5.612  0.4235  0.4577 -0.2117
  873MOL0     C17755   3.596   2.196   5.584 -1.3211 -1.1351  0.8616
  873MOL0     O17756   3.571   2.146   5.462 -0.1206  0.6474  0.3451
  873MOL0     C17757   3.551   2.240   5.359  0.5005 -0.0177  0.4077
  873MOL0     C17758   3.517   2.165   5.223 -0.1885 -1.1973 -0.4645
  873MOL0     C17759   3.391   2.077   5.231  0.1023 -0.7480 -0.4353
  873MOL0     C17760   3.377   1.999   5.089 -0.6591 -0.9518  0.4085
  873MOL0     C17761   3.310   2.094   4.989  0.0965  0.5493  0.9638
  873MOL0     C17762   3.301   2.029   4.847  0.0704  0.3354 -0.1522
  873MOL0     C17763   3.213   1.899   4.839  0.5679  0.5653  0.3644
  873MOL0     C17764   3.069   1.938   4.831  0.0349 -0.3305 -0.1122
  873MOL0    Cl17765   2.964   1.806   4.903 -0.3338  0.0549 -0.1579
  873MOL0     C17766   3.620   2.113   5.690 -0.5576 -0.2672 -0.0379
  873MOL0     C17767   3.668   2.166   5.817 -0.0006  0.3791 -0.1041
  873MOL0     O17768   3.859   2.236   6.065  0.6202  0.1002  0.3274
  873MOL0     C17769   3.573   2.426   6.175 -0.5790  0.0955  0.1139
  873MOL0     C17770   3.498   2.459   6.287  0.1063 -0.3232 -0.0040
  873MOL0     N17771   3.152   2.081   6.836 -0.0484 -0.2412  0.4756
  873MOL0     N17772   3.123   1.961   6.801 -0.4705 -0.1447 -0.0217
  873MOL0     C17773   2.579   1.066   7.045  0.5497  0.1219  0.4506
  873MOL0     C17774   2.550   0.926   7.017  0.4041  0.2330  0.5202
  873MOL0     C17775   2.593   0.545   6.808  0.5818 -0.6628 -0.0927
  873MOL0     C17776   2.621   0.514   6.668  0.0583 -0.3524 -0.0229
  873MOL0     C17777   2.539   0.437   6.592 -0.4942 -0.1292  0.1710
  873MOL0     C17778   2.429   0.385   6.656 -0.7567  0.0757 -1.0944
  873MOL0     O17779   2.355   0.279   6.598  0.4066  0.8539 -0.0209
  873MOL0     C17780   2.315   0.279   6.457 -0.0246  0.3439  1.0926
  873MOL0     C17781   2.237   0.402   6.414 -0.2520 -1.3918 -0.1970
  873MOL0     C17782   2.208   0.405   6.264 -0.2504 -0.3604  0.5501
  873MOL0     C17783   2.281   0.522   6.202  0.9977 -0.0928  0.4296
  873MOL0     C17784   2.233   0.547   6.067  0.0723  0.2387 -0.3129
  873MOL0     C17785   2.205   0.576   5.950 -0.3288 -0.2433  0.3566
  873MOL0     C17786   2.397   0.411   6.787  0.9321  1.1453  0.7085
  873MOL0     C17787   2.477   0.488   6.871  0.6819 -0.6201  0.6870
  873MOL0     H17788   2.860   0.792   7.082 -0.0456 -0.8336  1.9426
  873MOL0     H17789   2.897   1.030   7.124 -0.0339  1.4729 -2.5539
  873MOL0     H17790   2.579   1.312   7.184  0.8851 -0.4083 -2.5405
  873MOL0     H17791   2.685   1.221   7.292 -1.3108  2.1984  3.6936
  873MOL0     H17792   2.689   1.456   7.345  0.9632  1.5650 -0.0250
  873MOL0     H17793   2.844   1.431   7.277 -0.0596  2.9510  0.5621
  873MOL0     H17794   2.616   1.500   7.096  0.1743 -2.6164  2.2705
  873MOL0     H17795   2.661   1.616   7.211 -0.9602 -0.6389  0.0734
  873MOL0     H17796   2.897   1.623   7.123 -1.1151 -0.2263  1.6700
  873MOL0     H17797   2.863   1.490   7.014 -1.0295 -0.5924  1.1355
  873MOL0     H17798   2.707   1.623   6.882 -0.4254 -0.7132  0.1370
  873MOL0     H17799   2.692   1.751   7.003  2.8701  1.4320  0.4675
  873MOL0     H17800   2.900   1.845   6.938 -3.3968  0.8878  0.6322
  873MOL0     H17801   2.963   1.696   6.871 -1.0423 -2.1385 -3.5833
  873MOL0     H17802   2.770   1.747   6.691 -1.0370 -0.6070  1.5415
  873MOL0     H17803   2.787   1.909   6.756 -0.3385 -0.2956  3.6466
  873MOL0     H17804   2.932   1.848   6.559  1.5911  0.2934  0.2525
  873MOL0     H17805   3.034   1.747   6.676  0.2473 -0.3454  1.8917
  873MOL0     H17806   2.962   2.110   6.565 -1.8782 -1.6481  0.8779
  873MOL0     H17807   3.024   2.340   6.652 -0.5505 -0.3118  0.2768
  873MOL0     H17808   3.104   2.345   6.817  0.7651  2.6475 -0.7749
  873MOL0     H17809   3.253   2.278   6.559  0.8888 -1.6762  1.1118
  873MOL0     H17810   3.338   2.283   6.706  0.2336 -2.7208 -1.9656
  873MOL0     H17811   3.323   2.525   6.731  0.8332  0.5030 -0.7856
  873MOL0     H17812   3.177   2.534   6.627 -1.6428 -1.1331  1.9564
  873MOL0     H17813   3.383   2.623   6.550 -1.4834 -0.2282  0.8769
  873MOL0     H17814   3.293   2.499   6.445 -0.1058 -1.3936  0.4319
  873MOL0     H17815   3.662   2.286   6.523 -0.7963 -2.2055 -1.2704
  873MOL0     H17816   3.875   2.231   6.454  2.0616 -0.6326 -0.7118
  873MOL0     H17817   3.832   2.119   6.327 -1.2531 -0.6732  4.5576
  873MOL0     H17818   3.933   2.262   6.290 -1.3405 -0.8075 -1.5119
  873MOL0     H17819   3.651   2.488   5.757 -0.2205 -0.8144  1.1134
  873MOL0     H17820   3.564   2.415   5.548 -1.5771  1.6153  2.2355
  873MOL0     H17821   3.480   2.319   5.383  2.8503  1.5398  2.9115
  873MOL0     H17822   3.641   2.301   5.346 -0.3652  1.6094  1.6650
  873MOL0     H17823   3.506   2.238   5.142 -1.6023  0.4133  1.0990
  873MOL0     H17824   3.608   2.105   5.215 -0.8790 -3.1925  3.7331
  873MOL0     H17825   3.299   2.134   5.244  0.9128  1.1229 -2.3470
  873MOL0     H17826   3.407   2.002   5.309  0.7092  1.5494  1.7714
  873MOL0     H17827   3.478   1.973   5.056  0.0143  1.4603  0.3610
  873MOL0     H17828   3.318   1.908   5.096 -1.4652 -1.1939 -5.3244
  873MOL0     H17829   3.361   2.191   4.994  1.3143  0.0610 -0.8267
  873MOL0     H17830   3.207   2.116   5.018  0.6177  2.1528  1.7394
  873MOL0     H17831   3.267   2.104   4.774  3.2074  0.8269 -1.3071
  873MOL0     H17832   3.397   1.985   4.816 -0.7337 -1.0383 -0.7768
  873MOL0     H17833   3.225   1.835   4.928 -3.0039  0.0189  0.6320
  873MOL0     H17834   3.245   1.837   4.755 -1.4276  0.0477 -0.0867
  873MOL0     H17835   3.026   1.970   4.735 -2.3424  1.4061  1.4219
  873MOL0     H17836   3.062   2.030   4.889 -1.7550 -1.5980  1.8527
  873MOL0     H17837   3.610   2.006   5.672  2.6522 -0.7521  0.4193
  873MOL0     H17838   3.671   2.092   5.897  1.9781 -1.4026 -1.6963
  873MOL0     H17839   3.535   2.477   6.087 -1.4799 -0.3006  0.2634
  873MOL0     H17840   3.419   2.533   6.292 -0.6072 -1.0718  0.1291
  873MOL0     H17841   2.505   1.143   7.027 -2.0235 -2.5971 -1.5163
  873MOL0     H17842   2.453   0.903   6.974  1.7384 -2.7275 -1.1869
  873MOL0     H17843   2.697   0.561   6.606 -1.4446  0.8967 -1.0033
  873MOL0     H17844   2.550   0.401   6.490  1.1196 -3.3657  1.3439
  873MOL0     H17845   2.398   0.270   6.387  0.1204  2.7498  0.8621
  873MOL0     H17846   2.253   0.189   6.450 -2.6359  2.1174 -0.3539
  873MOL0     H17847   2.295   0.491   6.440  0.5667 -1.7493 -0.7565
  873MOL0     H17848   2.146   0.406   6.475 -1.4527 -2.5355 -1.8369
  873MOL0     H17849   2.101   0.419   6.248 -0.0867  1.8163  0.9944
  873MOL0     H17850   2.237   0.312   6.213  1.4095 -0.7539  2.0914
  873MOL0     H17851   2.389   0.506   6.194  0.6350 -1.8581 -1.8692
  873MOL0     H17852   2.263   0.606   6.269  0.0174  0.1929 -0.1765
  873MOL0     H17853   2.168   0.605   5.853  1.6386  0.2742 -0.2910
  873MOL0     H17854   2.308   0.370   6.834 -0.4955  4.7510  1.4733
  873MOL0     H17855   2.445   0.515   6.971  1.4731 -3.1867  1.7100
  874MOL0     O17856   7.317   1.285   3.837 -0.1442  1.0544  0.3635
  874MOL0     C17857   7.316   1.193   3.915 -1.2055 -0.8380 -0.0921
  874MOL0     O17858   7.424   1.159   4.001  0.4495 -0.5971  0.5883
  874MOL0     C17859   7.546   1.222   3.994  0.3242  0.5201  0.2960
  874MOL0     C17860   7.573   1.338   4.054 -0.0791 -0.7354 -0.5403
  874MOL0     C17861   7.706   1.389   4.057  0.5089  0.5023 -0.0058
  874MOL0     C17862   7.805   1.327   3.986 -0.1538  0.5366 -0.3134
  874MOL0     O17863   7.929   1.392   3.982 -0.2734 -0.3842  0.4794
  874MOL0     C17864   8.029   1.349   3.887  1.0870 -0.3162 -0.2921
  874MOL0     C17865   8.160   1.430   3.919  0.5717 -0.0947  0.4440
  874MOL0     C17866   8.261   1.419   3.809 -1.2444 -0.2902  0.6818
  874MOL0     C17867   8.324   1.279   3.800 -0.2975 -0.2164 -0.8194
  874MOL0     C17868   8.404   1.261   3.667 -0.1253 -0.4135  0.1976
  874MOL0     C17869   8.518   1.357   3.639 -0.7679  0.5392  0.4379
  874MOL0     C17870   8.632   1.354   3.745 -0.7717  0.1103  0.1816
  874MOL0     C17871   8.718   1.463   3.697 -0.3271  0.4189  0.1636
  874MOL0     N17872   8.655   1.596   3.702 -1.1365  1.0281  0.0404
  874MOL0     C17873   8.607   1.667   3.593  0.1753 -0.3517 -0.3644
  874MOL0     C17874   8.586   1.793   3.662 -0.6502  0.0545  0.8260
  874MOL0     C17875   8.563   1.926   3.587  1.4555 -0.1783  0.0233
  874MOL0     C17876   8.410   1.937   3.563  0.4904  0.5675 -0.3575
  874MOL0     C17877   8.329   1.931   3.705 -1.2875 -0.4297 -0.7740
  874MOL0     C17878   8.193   2.010   3.703 -0.2832 -0.0253 -1.2020
  874MOL0     O17879   8.198   2.134   3.632 -0.0117  0.2764  1.1739
  874MOL0     C17880   8.074   2.191   3.619 -0.0898  0.6336  0.0445
  874MOL0     C17881   7.946   2.134   3.637  0.2553  0.9039  1.1913
  874MOL0     C17882   7.828   2.215   3.621  0.2215  0.2187 -0.0246
  874MOL0     C17883   7.703   2.134   3.657 -1.1714 -0.1929  0.1624
  874MOL0     C17884   7.843   2.340   3.563 -1.0381 -0.4137 -0.6797
  874MOL0     C17885   7.729   2.428   3.522  0.2986  0.4331 -0.3985
  874MOL0     O17886   7.754   2.532   3.440 -0.0701  0.7116 -0.5130
  874MOL0     C17887   7.652   2.602   3.377  0.3063 -0.0689 -0.4788
  874MOL0     C17888   7.593   2.552   3.255  0.1460  0.1917  0.2252
  874MOL0     C17889   7.483   2.611   3.195  0.9763  0.4619 -0.2882
  874MOL0     C17890   7.415   2.716   3.254  0.1824 -0.4568  0.3576
  874MOL0     O17891   7.292   2.773   3.218  0.2081  0.1097 -0.5377
  874MOL0     C17892   7.228   2.730   3.091  1.2358 -0.3323 -0.3604
  874MOL0     C17893   7.125   2.848   3.058 -0.0246  0.4160 -0.7148
  874MOL0     C17894   6.988   2.798   3.045 -1.0486  0.4721  0.4345
  874MOL0     C17895   6.908   2.907   2.976 -0.6431 -0.5342  0.2642
  874MOL0     C17896   6.763   2.873   2.972  0.5204 -0.6259 -0.3499
  874MOL0     C17897   6.724   2.736   2.936  0.0567  0.3122  0.2496
  874MOL0     C17898   6.579   2.712   2.956  0.1191 -0.1884  0.0990
  874MOL0     C17899   6.527   2.586   2.876  0.3603 -0.1243  0.3187
  874MOL0    Cl17900   6.350   2.591   2.855 -0.2441  0.5325  0.2714
  874MOL0     C17901   7.460   2.758   3.377  0.1724 -0.4412  0.9715
  874MOL0     C17902   7.580   2.705   3.435  0.5836  0.7222  0.2419
  874MOL0     O17903   7.615   2.398   3.557  0.4465 -0.3165  0.2346
  874MOL0     C17904   7.972   2.398   3.538  0.2670  0.0068 -0.8607
  874MOL0     C17905   8.080   2.323   3.570  0.2305  0.4417 -0.2066
  874MOL0     N17906   8.634   1.791   3.789 -0.5375  0.1148  0.2083
  874MOL0     N17907   8.675   1.675   3.814 -0.7484  0.1102  0.3015
  874MOL0     C17908   7.769   1.196   3.925 -1.0135 -0.3850 -0.1844
  874MOL0     C17909   7.641   1.147   3.927  0.6673 -0.1833  0.6530
  874MOL0     C17910   7.194   1.105   3.921  0.1260  0.0227  0.8754
  874MOL0     C17911   7.089   1.131   3.830 -0.4384  0.8850 -0.0244
  874MOL0     C17912   6.992   1.033   3.814  0.0878 -0.0797  0.3558
  874MOL0     C17913   6.995   0.919   3.892 -1.2472 -0.1830  0.4518
  874MOL0     O17914   6.909   0.815   3.871 -0.5781 -0.8578 -0.2703
  874MOL0     C17915   6.974   0.707   3.806 -0.4978 -0.3870  0.2085
  874MOL0     C17916   6.895   0.582   3.826  0.0240  0.8359  0.6415
  874MOL0     C17917   6.868   0.545   3.974 -0.5021  0.4566  0.1327
  874MOL0     C17918   6.800   0.415   4.010  0.6960  0.0056  0.0892
  874MOL0     C17919   6.880   0.315   3.956 -0.2556 -0.1042  0.5547
  874MOL0     C17920   6.954   0.226   3.927 -0.1959 -0.1443  0.4280
  874MOL0     C17921   7.077   0.912   4.005  0.8656 -0.0479 -0.7553
  874MOL0     C17922   7.186   0.999   4.008 -0.1731 -0.2497  0.2951
  874MOL0     H17923   7.494   1.371   4.121 -0.1514 -1.7883 -0.0942
  874MOL0     H17924   7.716   1.478   4.117  0.3394 -0.9145  2.2681
  874MOL0     H17925   8.035   1.245   3.920 -0.9400 -0.2114  0.5592
  874MOL0     H17926   8.003   1.371   3.783  0.6961  3.8803  0.5503
  874MOL0     H17927   8.130   1.535   3.921  4.0754  1.0455  1.0221
  874MOL0     H17928   8.201   1.397   4.015  2.1035 -4.1611 -1.3564
  874MOL0     H17929   8.218   1.448   3.712  2.7745  1.3410 -0.8250
  874MOL0     H17930   8.337   1.496   3.821 -1.1795 -0.3227  0.4812
  874MOL0     H17931   8.394   1.259   3.882 -3.0185 -0.8010  1.5201
  874MOL0     H17932   8.239   1.210   3.800  0.1658 -1.0847 -4.9435
  874MOL0     H17933   8.443   1.159   3.667 -3.8525 -2.0077 -0.6855
  874MOL0     H17934   8.338   1.262   3.580 -1.4511  0.4900  1.1764
  874MOL0     H17935   8.550   1.328   3.538 -0.9249  0.5770  0.3773
  874MOL0     H17936   8.478   1.458   3.635  2.7834  2.1104  0.7780
  874MOL0     H17937   8.601   1.383   3.846  1.6845  1.1587  0.7053
  874MOL0     H17938   8.674   1.254   3.762 -5.0947 -1.7868  1.0585
  874MOL0     H17939   8.766   1.438   3.602 -1.7077 -0.0780 -0.4227
  874MOL0     H17940   8.796   1.451   3.774 -1.1074 -0.8016  0.8073
  874MOL0     H17941   8.597   1.638   3.489  0.1416  0.9932 -0.7513
  874MOL0     H17942   8.592   2.016   3.641  0.0225  1.9551 -2.5218
  874MOL0     H17943   8.601   1.929   3.484 -1.3075 -2.1389 -1.1896
  874MOL0     H17944   8.379   1.857   3.496  1.7230  0.3358 -0.6766
  874MOL0     H17945   8.396   2.028   3.503 -2.0614  3.0084  3.4373
  874MOL0     H17946   8.398   1.979   3.776 -0.4239  0.0976 -1.9378
  874MOL0     H17947   8.311   1.828   3.740 -0.1318  0.4103  2.8019
  874MOL0     H17948   8.145   2.014   3.801 -0.7534  1.9569 -1.4713
  874MOL0     H17949   8.134   1.936   3.647 -0.7656 -0.2174 -0.4450
  874MOL0     H17950   7.937   2.037   3.685 -1.7215  0.2903 -0.2907
  874MOL0     H17951   7.670   2.092   3.562 -2.3922  1.8923 -0.3961
  874MOL0     H17952   7.725   2.055   3.729  2.2394 -0.2809 -0.7724
  874MOL0     H17953   7.617   2.187   3.698  1.1617  0.9476  4.1372
  874MOL0     H17954   7.626   2.454   3.221 -0.2662  0.7803 -1.9775
  874MOL0     H17955   7.450   2.560   3.105 -2.3759 -0.3792  1.2548
  874MOL0     H17956   7.308   2.711   3.019  0.0609 -3.2749 -1.0511
  874MOL0     H17957   7.178   2.635   3.113 -1.5569  0.4268 -2.7400
  874MOL0     H17958   7.129   2.919   3.141 -4.2943  1.0991 -0.8971
  874MOL0     H17959   7.170   2.897   2.971  0.1076  0.7915 -0.4368
  874MOL0     H17960   6.942   2.758   3.136  1.2021 -1.0427  1.0015
  874MOL0     H17961   7.004   2.707   2.987  5.3552 -1.0822  3.7235
  874MOL0     H17962   6.905   2.993   3.044 -1.6802 -1.2288  1.1346
  874MOL0     H17963   6.944   2.919   2.874 -0.6840 -0.6114  0.2409
  874MOL0     H17964   6.710   2.940   2.904  0.1267 -0.7639 -0.1853
  874MOL0     H17965   6.724   2.895   3.072 -0.3766 -0.4851 -0.7244
  874MOL0     H17966   6.749   2.717   2.832 -2.2764 -1.9881  0.0169
  874MOL0     H17967   6.765   2.656   2.999 -0.1283 -1.7847 -2.1625
  874MOL0     H17968   6.530   2.802   2.919  1.1183 -0.0494 -0.9462
  874MOL0     H17969   6.547   2.699   3.060  1.1821 -1.8745  0.2637
  874MOL0     H17970   6.575   2.496   2.916  2.6232  0.8167 -0.1290
  874MOL0     H17971   6.562   2.606   2.775 -0.2536  2.2705  0.5144
  874MOL0     H17972   7.381   2.813   3.429 -0.0758  0.1815 -0.0293
  874MOL0     H17973   7.618   2.729   3.534 -2.2267 -1.1269  1.9172
  874MOL0     H17974   7.999   2.491   3.489  0.9153  1.4531  1.9823
  874MOL0     H17975   8.176   2.365   3.542 -0.3225  1.3114 -0.8434
  874MOL0     H17976   7.838   1.130   3.874  0.1012 -1.2470  2.2990
  874MOL0     H17977   7.607   1.064   3.866 -0.6014  2.3910 -2.3844
  874MOL0     H17978   7.077   1.218   3.767 -0.6217  1.1088  0.3147
  874MOL0     H17979   6.920   1.031   3.733 -0.4542  1.2138  0.7786
  874MOL0     H17980   6.980   0.734   3.700  0.3273  1.0634  0.5940
  874MOL0     H17981   7.079   0.688   3.832  0.3070  0.4915 -2.1098
  874MOL0     H17982   6.935   0.508   3.756  0.0374  0.3178  1.1850
  874MOL0     H17983   6.795   0.598   3.785 -1.0133 -1.0412  2.2497
  874MOL0     H17984   6.802   0.624   4.010 -0.1042  2.5752 -3.3214
  874MOL0     H17985   6.961   0.546   4.031 -0.6003 -1.4236  0.4054
  874MOL0     H17986   6.698   0.420   3.970 -0.4102 -3.7693  1.8715
  874MOL0     H17987   6.809   0.402   4.118  0.3083 -1.9094 -0.0692
  874MOL0     H17988   7.018   0.141   3.917  0.0309  0.1217 -0.5422
  874MOL0     H17989   7.070   0.815   4.054  0.6994 -0.4130 -1.4857
  874MOL0     H17990   7.268   0.994   4.078  0.3320 -2.2554 -0.3867
  875MOL0     O17991   1.421   9.330   9.301  0.2520  0.1664  0.1078
  875MOL0     C17992   1.318   9.360   9.248 -1.4956  0.2886 -0.0656
  875MOL0     O17993   1.200   9.384   9.315 -0.3167  0.9876 -0.3026
  875MOL0     C17994   1.213   9.372   9.448  0.2863 -0.5159 -0.8766
  875MOL0     C17995   1.269   9.256   9.509 -0.5134  1.1757  0.2987
  875MOL0     C17996   1.275   9.254   9.650 -0.4712  0.3647 -0.0293
  875MOL0     C17997   1.230   9.362   9.733  0.6959 -0.7646  0.2445
  875MOL0     O17998   1.250   9.358   9.865  0.0011  0.1781 -0.1933
  875MOL0     C17999   1.382   9.336   9.921  0.1125  0.1180  0.8152
  875MOL0     C18000   1.403   9.423  10.048  0.3887 -0.1167 -0.8146
  875MOL0     C18001   1.376   9.567  10.022 -0.6266 -0.5516  0.2303
  875MOL0     C18002   1.504   9.650  10.003  0.1622 -0.3245  0.0771
  875MOL0     C18003   1.478   9.803   9.996  0.1450  0.4442  0.0445
  875MOL0     C18004   1.610   9.871   9.967 -0.6688 -0.1782 -0.2208
  875MOL0     C18005   1.579  10.008   9.931  0.3404 -0.1835 -0.4898
  875MOL0     C18006   1.707  10.092   9.942  0.1907  0.6364  0.6017
  875MOL0     N18007   1.806  10.071   9.839  0.3850  0.6015  0.2443
  875MOL0     C18008   1.778  10.073   9.703  0.5762 -0.2571 -0.0379
  875MOL0     C18009   1.890  10.030   9.638 -0.3130  1.1538  1.0733
  875MOL0     C18010   1.916  10.051   9.495  0.4194 -0.3552 -0.4484
  875MOL0     C18011   1.803  10.007   9.402  0.6038  0.8452  0.2106
  875MOL0     C18012   1.747   9.869   9.434 -0.4847 -0.4210 -0.2941
  875MOL0     C18013   1.864   9.760   9.437  0.3491 -0.2664 -0.2183
  875MOL0     O18014   1.816   9.631   9.468  0.3446 -0.3362  0.2086
  875MOL0     C18015   1.806   9.569   9.592  0.5470 -0.2712 -0.8571
  875MOL0     C18016   1.841   9.631   9.711  0.6364  0.6083 -0.0019
  875MOL0     C18017   1.845   9.555   9.837 -0.5892 -1.0104 -0.3344
  875MOL0     C18018   1.911   9.612   9.962  0.6814 -0.9922 -1.1331
  875MOL0     C18019   1.803   9.420   9.830 -0.8822 -0.4365 -0.3481
  875MOL0     C18020   1.805   9.323   9.945  0.0277  0.0495 -0.0389
  875MOL0     O18021   1.871   9.216   9.911  0.4768 -0.6041 -0.1288
  875MOL0     C18022   1.832   9.099   9.975  0.8351  0.1770 -0.1040
  875MOL0     C18023   1.934   9.009  10.001  0.0820 -0.0795 -0.7169
  875MOL0     C18024   1.911   8.896  10.079 -0.4513  0.5572 -0.2720
  875MOL0     C18025   1.780   8.858  10.113 -0.3854  0.7509 -0.2047
  875MOL0     O18026   1.739   8.747  10.178 -0.3954 -0.2100 -1.1618
  875MOL0     C18027   1.840   8.657  10.222 -0.4629  0.8534 -0.3836
  875MOL0     C18028   1.876   8.554  10.119  0.0246  0.4567  1.1675
  875MOL0     C18029   1.797   8.429  10.142 -0.0500 -0.1459  0.7633
  875MOL0     C18030   1.807   8.336  10.027 -0.3227  0.9182  0.5807
  875MOL0     C18031   1.758   8.197  10.058  0.2673  0.0451 -0.1625
  875MOL0     C18032   1.625   8.193  10.124 -0.9011  0.3329 -0.0562
  875MOL0     C18033   1.517   8.233  10.031 -0.0077 -0.2500  0.3985
  875MOL0     C18034   1.376   8.197  10.088 -0.6033 -0.2014  0.1394
  875MOL0    Cl18035   1.264   8.233   9.956 -0.3859  0.0296 -0.5192
  875MOL0     C18036   1.679   8.943  10.069 -0.3941  0.0778 -0.8053
  875MOL0     C18037   1.696   9.063   9.997 -0.9523  0.4683  0.3647
  875MOL0     O18038   1.768   9.342  10.059 -0.6653  0.7159 -0.3160
  875MOL0     C18039   1.757   9.374   9.707 -0.0463  0.1046 -0.3842
  875MOL0     C18040   1.765   9.441   9.590  0.6307  0.1282 -0.7388
  875MOL0     N18041   1.962   9.967   9.735 -0.4103 -0.8070 -0.6590
  875MOL0     N18042   1.910   9.994   9.850 -0.9242  0.7180  1.2976
  875MOL0     C18043   1.172   9.471   9.668 -0.9116  0.1859  0.7063
  875MOL0     C18044   1.161   9.476   9.526 -0.7190  0.0069 -0.3810
  875MOL0     C18045   1.304   9.361   9.102 -0.6878  0.1554 -0.3099
  875MOL0     C18046   1.419   9.379   9.021  0.1451  0.0502 -1.0116
  875MOL0     C18047   1.421   9.368   8.885  0.0844  0.2099 -0.1653
  875MOL0     C18048   1.299   9.337   8.823  0.6965 -0.1007  0.5290
  875MOL0     O18049   1.311   9.321   8.683 -0.3246  0.4525 -0.1290
  875MOL0     C18050   1.198   9.275   8.608  0.3206  0.1253 -0.1561
  875MOL0     C18051   1.242   9.267   8.469 -0.6650 -0.6313  0.2107
  875MOL0     C18052   1.293   9.408   8.418  0.0781  0.1225  0.5413
  875MOL0     C18053   1.326   9.395   8.270  0.3451 -0.3457  0.6327
  875MOL0     C18054   1.416   9.497   8.218  0.4029  0.0912  0.2677
  875MOL0     C18055   1.488   9.575   8.173  0.1536  0.0017  0.6348
  875MOL0     C18056   1.185   9.326   8.900  0.1160  0.6663  0.4749
  875MOL0     C18057   1.178   9.338   9.041  0.7866 -0.8028  0.0416
  875MOL0     H18058   1.301   9.178   9.441  0.9954  2.4059 -0.4693
  875MOL0     H18059   1.325   9.166   9.690 -0.9850 -0.8798 -1.9665
  875MOL0     H18060   1.396   9.228   9.938 -0.8563 -0.1603 -0.0325
  875MOL0     H18061   1.464   9.366   9.855  2.9291 -2.2850  2.9207
  875MOL0     H18062   1.333   9.409  10.131  1.6643  0.2012  0.3301
  875MOL0     H18063   1.504   9.410  10.087  0.0492 -0.5819 -0.0703
  875MOL0     H18064   1.331   9.578   9.923  0.1228  3.5990  0.2053
  875MOL0     H18065   1.310   9.615  10.095  1.9392  4.9058 -0.5783
  875MOL0     H18066   1.584   9.634  10.077  0.7804  2.0256  0.0193
  875MOL0     H18067   1.552   9.624   9.908  1.1427 -4.3209  1.4643
  875MOL0     H18068   1.414   9.823   9.909 -0.4880 -3.7583 -0.6746
  875MOL0     H18069   1.431   9.845  10.085 -1.8518 -2.0931  0.3268
  875MOL0     H18070   1.671   9.877  10.058 -2.3640  2.6599  0.8746
  875MOL0     H18071   1.669   9.824   9.888  2.3870 -0.1746  1.8776
  875MOL0     H18072   1.535  10.028   9.833  1.1088  1.5183 -0.5116
  875MOL0     H18073   1.501  10.038  10.001 -2.1846 -3.4151 -1.6597
  875MOL0     H18074   1.741  10.062  10.042  1.0289  1.7577  0.6762
  875MOL0     H18075   1.670  10.195   9.940 -2.4209 -0.1967  2.0025
  875MOL0     H18076   1.702  10.134   9.656  1.1316  1.0859  0.7569
  875MOL0     H18077   1.925  10.160   9.481  0.4156 -0.3196 -0.1902
  875MOL0     H18078   2.009  10.007   9.458 -0.8306 -3.6539  0.0157
  875MOL0     H18079   1.836  10.003   9.297 -0.0995 -4.5945 -0.1115
  875MOL0     H18080   1.718  10.075   9.396 -2.9127 -3.2266 -2.3782
  875MOL0     H18081   1.682   9.846   9.350  1.8739  3.5718 -3.5958
  875MOL0     H18082   1.691   9.879   9.528 -1.8032  1.3731 -1.2082
  875MOL0     H18083   1.927   9.781   9.524 -0.8961 -1.8003  1.1285
  875MOL0     H18084   1.928   9.758   9.348  1.5762  0.9809  0.6009
  875MOL0     H18085   1.872   9.735   9.715  0.5325  0.7738 -2.0605
  875MOL0     H18086   2.004   9.562   9.988  1.4242  1.3620  1.0971
  875MOL0     H18087   1.918   9.721   9.954 -1.2434 -0.5839  1.4538
  875MOL0     H18088   1.852   9.595  10.053  0.0496  0.4340 -1.2433
  875MOL0     H18089   2.038   9.032   9.985  0.7630 -0.6912  2.2899
  875MOL0     H18090   1.997   8.831  10.095 -0.2363  0.9548  0.1978
  875MOL0     H18091   1.933   8.708  10.246 -0.1008  0.5286 -1.0650
  875MOL0     H18092   1.805   8.598  10.307  2.0786 -1.1272 -0.5958
  875MOL0     H18093   1.859   8.591  10.018  3.2459  4.5169  1.8319
  875MOL0     H18094   1.985   8.540  10.113  0.2390  2.4286 -2.7796
  875MOL0     H18095   1.692   8.451  10.165 -1.2477 -0.7897 -3.1895
  875MOL0     H18096   1.831   8.380  10.233 -0.4423 -0.5193  0.7154
  875MOL0     H18097   1.774   8.380   9.933  4.7002  0.4473 -1.6779
  875MOL0     H18098   1.911   8.315  10.003 -1.0174 -2.0274 -0.2501
  875MOL0     H18099   1.838   8.151  10.117  2.6074  0.7942 -2.4943
  875MOL0     H18100   1.754   8.146   9.961 -3.3883  1.6860 -1.0351
  875MOL0     H18101   1.616   8.091  10.163  1.8670 -0.1018 -0.3571
  875MOL0     H18102   1.625   8.252  10.217  0.2681 -2.1797  1.6360
  875MOL0     H18103   1.529   8.164   9.947  2.1408  0.5820 -0.0264
  875MOL0     H18104   1.514   8.342  10.028 -3.0101  0.0002  4.1790
  875MOL0     H18105   1.365   8.258  10.178  0.3294  1.6714 -0.9438
  875MOL0     H18106   1.376   8.091  10.116  0.3255 -0.5993 -1.2524
  875MOL0     H18107   1.577   8.909  10.085 -0.9308  1.3994 -1.2745
  875MOL0     H18108   1.608   9.118   9.964 -1.7756  0.3338  2.1981
  875MOL0     H18109   1.705   9.278   9.716 -0.1349  0.1605 -0.2869
  875MOL0     H18110   1.738   9.391   9.498  0.4407  0.9158 -1.1110
  875MOL0     H18111   1.140   9.561   9.721  1.0085  0.4993  1.4454
  875MOL0     H18112   1.129   9.577   9.499  0.8709  0.7098  0.2231
  875MOL0     H18113   1.519   9.384   9.063  1.1243 -3.8449 -2.4245
  875MOL0     H18114   1.510   9.386   8.826 -1.2316  2.5985 -1.5843
  875MOL0     H18115   1.156   9.181   8.647 -0.7051  0.9193  0.7222
  875MOL0     H18116   1.116   9.344   8.628  0.5096  0.7210 -1.3518
  875MOL0     H18117   1.161   9.246   8.399  0.6785  2.1068 -2.3994
  875MOL0     H18118   1.310   9.181   8.461 -0.6233 -0.6944  1.1169
  875MOL0     H18119   1.392   9.431   8.460 -0.4251 -0.3402  2.0317
  875MOL0     H18120   1.238   9.497   8.449  2.7259  1.7418  0.8731
  875MOL0     H18121   1.234   9.381   8.212  0.6686 -2.5717  0.5526
  875MOL0     H18122   1.376   9.298   8.263 -1.3028 -1.7004  4.6913
  875MOL0     H18123   1.549   9.650   8.126 -1.2729 -0.0778 -1.4680
  875MOL0     H18124   1.085   9.304   8.864  0.1572 -3.2668  2.3142
  875MOL0     H18125   1.086   9.318   9.096  1.0238 -2.4847 -0.1354
  876MOL0     O18126   9.884   9.755   2.453  0.8028  0.3167  0.5517
  876MOL0     C18127   9.834   9.643   2.420  0.9095 -0.4456  0.2047
  876MOL0     O18128   9.702   9.618   2.421  0.4922 -0.1374 -0.6089
  876MOL0     C18129   9.624   9.716   2.466  0.0985 -0.3836 -0.0365
  876MOL0     C18130   9.562   9.700   2.592 -0.4884  0.0133  0.2344
  876MOL0     C18131   9.465   9.782   2.643 -0.0659  0.9473  0.1495
  876MOL0     C18132   9.411   9.890   2.561 -0.6555  0.1745 -0.3696
  876MOL0     O18133   9.310   9.966   2.610 -0.1121  0.7940  0.0669
  876MOL0     C18134   9.178   9.911   2.584 -0.8192 -0.7378 -0.7163
  876MOL0     C18135   9.091  10.013   2.626  0.6112  0.3176 -0.2596
  876MOL0     C18136   8.948   9.984   2.630  0.5790  0.1106  0.3604
  876MOL0     C18137   8.894   9.882   2.533 -0.3086  0.3211 -0.4817
  876MOL0     C18138   8.745   9.852   2.520  0.3916  0.1888 -0.2715
  876MOL0     C18139   8.674   9.936   2.420  0.2787  0.1482  0.4384
  876MOL0     C18140   8.526   9.893   2.417 -0.2096  0.5357 -0.2611
  876MOL0     C18141   8.433   9.972   2.333  0.5844  0.0575  0.0403
  876MOL0     N18142   8.362  10.075   2.409 -0.0689  0.0035 -0.1512
  876MOL0     C18143   8.406  10.213   2.411  0.7808  0.9836 -0.4033
  876MOL0     C18144   8.295  10.281   2.464 -0.3636  0.4043  0.1421
  876MOL0     C18145   8.305  10.424   2.492  0.5836 -0.0993  0.1633
  876MOL0     C18146   8.316  10.453   2.639 -1.0909  0.6865  0.8667
  876MOL0     C18147   8.334  10.603   2.662 -0.1613  0.6201  0.3208
  876MOL0     C18148   8.355  10.605   2.814  0.2447 -0.6529 -0.4811
  876MOL0     O18149   8.324  10.736   2.871  0.7721 -0.7371 -0.7850
  876MOL0     C18150   8.363  10.842   2.798 -0.2140 -1.1486  0.1592
  876MOL0     C18151   8.500  10.866   2.761  0.5912 -0.1944  0.4575
  876MOL0     C18152   8.537  10.987   2.699 -0.6976  0.5591  0.4169
  876MOL0     C18153   8.679  10.991   2.640  0.6523 -0.0476  0.6823
  876MOL0     C18154   8.435  11.088   2.678  0.5091  1.3958 -0.8834
  876MOL0     C18155   8.462  11.208   2.610 -0.2595  1.2128 -0.9541
  876MOL0     O18156   8.560  11.276   2.663  0.0631 -0.0635  0.4295
  876MOL0     C18157   8.604  11.383   2.596 -0.2090  0.1083  0.8290
  876MOL0     C18158   8.643  11.502   2.669  0.0323  0.1012 -0.7312
  876MOL0     C18159   8.665  11.621   2.600 -0.3184 -1.2508 -1.2879
  876MOL0     C18160   8.668  11.626   2.464 -0.7619 -0.9322  0.7393
  876MOL0     O18161   8.692  11.746   2.397 -0.0447  0.4966  0.7660
  876MOL0     C18162   8.636  11.764   2.261 -0.1569  0.5159  0.4874
  876MOL0     C18163   8.731  11.726   2.133  1.1219 -1.0606  0.2696
  876MOL0     C18164   8.643  11.668   2.015  0.3296  1.0427 -1.1311
  876MOL0     C18165   8.727  11.595   1.912  0.4097  0.0121 -0.4115
  876MOL0     C18166   8.636  11.562   1.795  0.8991  0.4315  1.0779
  876MOL0     C18167   8.704  11.487   1.680  0.0843  0.4013  0.3143
  876MOL0     C18168   8.628  11.475   1.551 -0.6754  0.3374  0.2952
  876MOL0     C18169   8.538  11.356   1.554 -0.7244  0.5045 -0.1815
  876MOL0    Cl18170   8.624  11.196   1.528 -0.5145 -0.2586 -0.5362
  876MOL0     C18171   8.655  11.503   2.399  0.4901  0.1053  0.4083
  876MOL0     C18172   8.624  11.382   2.460 -0.2730 -0.4445  0.2823
  876MOL0     O18173   8.392  11.238   2.514 -0.2041  0.2545  0.2823
  876MOL0     C18174   8.303  11.067   2.720 -0.4813 -0.1767  0.1338
  876MOL0     C18175   8.279  10.947   2.787  0.4275  0.4423 -0.1805
  876MOL0     N18176   8.197  10.190   2.496 -0.2691 -0.1378 -0.5661
  876MOL0     N18177   8.238  10.071   2.458 -0.5394 -0.9384 -0.1979
  876MOL0     C18178   9.464   9.901   2.433  0.0189  0.8527 -0.1609
  876MOL0     C18179   9.573   9.823   2.385  0.2407  0.4888  0.8945
  876MOL0     C18180   9.927   9.535   2.388 -0.3676  0.2919  0.1217
  876MOL0     C18181   9.884   9.396   2.401 -0.0838  0.3013  0.0132
  876MOL0     C18182   9.968   9.291   2.354 -0.1318  1.1000  0.0586
  876MOL0     C18183  10.093   9.320   2.302 -0.4872  0.8646  0.3763
  876MOL0     O18184  10.170   9.210   2.281  0.0999  0.0931 -1.1715
  876MOL0     C18185  10.290   9.231   2.202  0.4637 -0.1490 -0.2036
  876MOL0     C18186  10.368   9.109   2.179 -0.3069  0.9826  0.2442
  876MOL0     C18187  10.303   9.002   2.098  0.2502  0.2212  0.6273
  876MOL0     C18188  10.214   8.895   2.179 -0.2723  0.7777 -0.4167
  876MOL0     C18189  10.205   8.772   2.098  0.1837  0.5723 -0.1033
  876MOL0     C18190  10.207   8.682   2.014  0.2786  0.1444 -0.4093
  876MOL0     C18191  10.145   9.450   2.310 -0.1039 -0.1442  0.1346
  876MOL0     C18192  10.059   9.551   2.329 -0.3193  0.0048  0.0561
  876MOL0     H18193   9.590   9.612   2.649  0.8961  0.1950 -0.1120
  876MOL0     H18194   9.421   9.759   2.739  2.3399  0.0562  1.1184
  876MOL0     H18195   9.171   9.894   2.477  0.2531  4.8177 -1.9887
  876MOL0     H18196   9.155   9.821   2.642 -0.7270 -0.3364 -0.0392
  876MOL0     H18197   9.131  10.050   2.721  3.4318  0.9696 -1.5757
  876MOL0     H18198   9.104  10.093   2.552  4.5028 -0.0266 -0.1554
  876MOL0     H18199   8.929   9.963   2.736  1.2300  0.7134  0.6070
  876MOL0     H18200   8.895  10.075   2.600 -0.7488  0.5042  3.4603
  876MOL0     H18201   8.925   9.913   2.433  0.8591  2.0384  0.3583
  876MOL0     H18202   8.948   9.792   2.564  0.3699  1.0076  0.3673
  876MOL0     H18203   8.746   9.750   2.483 -2.7524 -1.2528  3.0171
  876MOL0     H18204   8.699   9.843   2.619 -0.8045 -1.1100 -0.9135
  876MOL0     H18205   8.685  10.042   2.442  0.9087 -0.1178  1.4881
  876MOL0     H18206   8.711   9.928   2.318 -1.9741 -2.5081 -0.2899
  876MOL0     H18207   8.532   9.792   2.376 -0.6802  1.3819 -2.5400
  876MOL0     H18208   8.499   9.880   2.522  2.7489 -0.6440  0.4545
  876MOL0     H18209   8.363   9.896   2.297  3.4555 -1.8152 -2.0567
  876MOL0     H18210   8.489   9.995   2.242  1.6298 -3.4842 -0.3711
  876MOL0     H18211   8.509  10.244   2.398  1.0461  1.2138  1.8093
  876MOL0     H18212   8.392  10.467   2.442  1.5327 -2.3633 -0.2474
  876MOL0     H18213   8.215  10.475   2.455 -1.4619 -2.1136  2.0188
  876MOL0     H18214   8.407  10.402   2.672 -0.2900  2.3436  1.3114
  876MOL0     H18215   8.229  10.413   2.693  0.1565 -3.3732  0.2040
  876MOL0     H18216   8.242  10.654   2.635 -1.7229 -1.3323  1.6593
  876MOL0     H18217   8.424  10.635   2.608 -0.9514  3.8123  0.7016
  876MOL0     H18218   8.450  10.569   2.854 -2.0231 -0.8729  5.9203
  876MOL0     H18219   8.277  10.538   2.852 -1.0605  0.5178 -1.0077
  876MOL0     H18220   8.588  10.805   2.780  2.0461  1.4865 -0.5190
  876MOL0     H18221   8.659  11.038   2.543 -0.9119  0.1250  1.0591
  876MOL0     H18222   8.738  11.054   2.707 -3.4303  3.4692  1.3811
  876MOL0     H18223   8.716  10.889   2.625 -2.1694 -1.5435  2.8889
  876MOL0     H18224   8.651  11.493   2.776  4.2939  1.8251 -0.7069
  876MOL0     H18225   8.686  11.710   2.659  1.2542 -1.3724 -1.5999
  876MOL0     H18226   8.542  11.709   2.257 -0.4094  0.9743  0.0532
  876MOL0     H18227   8.600  11.867   2.259 -1.6094  0.0574  1.4023
  876MOL0     H18228   8.779  11.820   2.106 -1.1899 -0.0204 -0.4573
  876MOL0     H18229   8.789  11.647   2.183 -0.1407 -2.2436 -0.0721
  876MOL0     H18230   8.588  11.746   1.961 -0.7115 -0.8590 -2.9444
  876MOL0     H18231   8.576  11.595   2.063  0.4193  1.4719 -0.3255
  876MOL0     H18232   8.810  11.654   1.872  1.2381 -2.4470 -2.6391
  876MOL0     H18233   8.765  11.500   1.951 -1.4943 -0.4255  0.4908
  876MOL0     H18234   8.583  11.648   1.753  0.2436 -1.0860 -1.4371
  876MOL0     H18235   8.554  11.504   1.840  2.3371 -2.3165  0.3688
  876MOL0     H18236   8.810  11.512   1.675  0.4956 -0.2972  3.3749
  876MOL0     H18237   8.711  11.381   1.709  2.0760  0.2032 -0.6947
  876MOL0     H18238   8.704  11.472   1.472 -1.5066 -0.5788 -0.5009
  876MOL0     H18239   8.564  11.562   1.535 -2.0339 -0.5975  0.5007
  876MOL0     H18240   8.458  11.378   1.482  1.2556  2.0181 -2.0758
  876MOL0     H18241   8.496  11.342   1.653 -2.1283 -2.0723 -1.0585
  876MOL0     H18242   8.646  11.498   2.291 -0.4419  0.3116  0.4680
  876MOL0     H18243   8.594  11.304   2.392 -1.0041 -1.2147  1.4529
  876MOL0     H18244   8.237  11.152   2.713 -2.1161 -1.4119 -0.0411
  876MOL0     H18245   8.179  10.929   2.824  0.9406 -6.2832 -0.7309
  876MOL0     H18246   9.418   9.976   2.368  0.3541 -0.8357 -2.4800
  876MOL0     H18247   9.605   9.827   2.281 -2.1188 -5.1508 -0.4355
  876MOL0     H18248   9.787   9.372   2.444 -0.7819  4.7933  1.4282
  876MOL0     H18249   9.934   9.188   2.342 -1.9638  1.6542  0.2398
  876MOL0     H18250  10.260   9.287   2.114 -0.0402 -0.4173 -0.2075
  876MOL0     H18251  10.360   9.295   2.256 -3.4110  4.0741  0.3615
  876MOL0     H18252  10.390   9.063   2.276 -0.4816 -0.1466 -0.2433
  876MOL0     H18253  10.468   9.128   2.139 -0.2009 -3.8005 -2.5216
  876MOL0     H18254  10.384   8.955   2.042  0.0436  1.2870 -0.5797
  876MOL0     H18255  10.249   9.046   2.014 -0.9184  1.0113  1.7591
  876MOL0     H18256  10.114   8.940   2.180 -1.6284 -1.9945 -1.2825
  876MOL0     H18257  10.247   8.881   2.282 -3.2568  0.0300  0.5252
  876MOL0     H18258  10.215   8.600   1.946 -2.5911 -0.4078 -0.2021
  876MOL0     H18259  10.251   9.469   2.297 -0.7141  1.1454 -4.4428
  876MOL0     H18260  10.095   9.652   2.311 -1.8157  0.6609  0.5331
  877MOL0     O18261   7.681   0.588   2.599 -0.2767 -1.1294  0.3750
  877MOL0     C18262   7.602   0.682   2.574 -0.3022 -0.6444  0.2415
  877MOL0     O18263   7.502   0.721   2.657  0.7133 -0.3039  0.2965
  877MOL0     C18264   7.511   0.668   2.774  0.1583  0.3666 -1.4086
  877MOL0     C18265   7.621   0.689   2.867  0.0885 -1.3053 -0.0989
  877MOL0     C18266   7.627   0.632   2.994 -0.9899 -0.3384 -0.5670
  877MOL0     C18267   7.530   0.540   3.033 -0.4395  0.1072  0.1686
  877MOL0     O18268   7.544   0.463   3.145  0.4671  0.2163 -0.2411
  877MOL0     C18269   7.656   0.476   3.232  0.4179 -0.3034 -0.3332
  877MOL0     C18270   7.642   0.379   3.357  0.0213  0.7999  0.9335
  877MOL0     C18271   7.781   0.344   3.405  0.6728 -0.4104  1.1811
  877MOL0     C18272   7.774   0.278   3.543 -0.2474  0.8536 -0.2133
  877MOL0     C18273   7.897   0.189   3.576  0.7046 -0.3512 -0.3490
  877MOL0     C18274   7.889   0.118   3.715 -1.4586 -0.7600  0.7128
  877MOL0     C18275   7.903   0.210   3.840 -0.1889  0.4393 -0.2802
  877MOL0     C18276   8.028   0.297   3.840  0.0511  0.4570  0.0659
  877MOL0     N18277   8.053   0.372   3.967  0.5036  0.0602  0.7959
  877MOL0     C18278   8.168   0.441   3.991  0.2430 -0.4602 -0.2585
  877MOL0     C18279   8.138   0.515   4.095  0.0434 -1.4137 -0.2008
  877MOL0     C18280   8.225   0.618   4.165  0.4596 -0.4180  0.4993
  877MOL0     C18281   8.362   0.637   4.108 -0.1950  0.9106 -0.3092
  877MOL0     C18282   8.477   0.545   4.169 -0.2976 -0.3029  0.2864
  877MOL0     C18283   8.516   0.593   4.314  0.2949  0.1006  0.0466
  877MOL0     O18284   8.615   0.507   4.353 -0.1221 -0.2334 -0.4341
  877MOL0     C18285   8.644   0.513   4.490  0.7112  0.3111  0.2690
  877MOL0     C18286   8.601   0.613   4.577 -0.3115  0.0189 -0.6192
  877MOL0     C18287   8.650   0.623   4.711 -0.3854 -0.2733 -0.8764
  877MOL0     C18288   8.607   0.750   4.791 -0.3385  0.2535 -0.1924
  877MOL0     C18289   8.755   0.531   4.752 -0.4943  0.1812  0.2421
  877MOL0     C18290   8.832   0.536   4.878 -0.1313 -0.4484  0.6312
  877MOL0     O18291   8.774   0.602   4.982 -0.2924  0.0265 -0.2315
  877MOL0     C18292   8.832   0.586   5.115  1.0818  0.1538  0.1623
  877MOL0     C18293   8.961   0.633   5.147 -0.4200  0.2087 -0.5492
  877MOL0     C18294   9.018   0.636   5.270  0.4182  0.6528 -0.2903
  877MOL0     C18295   8.939   0.568   5.365  0.1945 -0.4744  0.4246
  877MOL0     O18296   9.006   0.557   5.482 -0.1227  0.1984 -0.3279
  877MOL0     C18297   9.027   0.415   5.521  0.2390 -0.2458  0.2112
  877MOL0     C18298   9.085   0.430   5.664  0.5482 -0.1158 -0.0951
  877MOL0     C18299   8.996   0.506   5.767  0.4922 -0.0072  0.4625
  877MOL0     C18300   8.984   0.433   5.903 -0.1084 -0.1420  0.1083
  877MOL0     C18301   8.984   0.536   6.014  0.5055 -0.6190  0.4731
  877MOL0     C18302   8.949   0.475   6.155 -0.1377  0.7837 -0.8620
  877MOL0     C18303   8.804   0.434   6.177 -0.4197 -0.2958 -0.3520
  877MOL0     C18304   8.784   0.388   6.321  0.5309  0.6088 -0.4495
  877MOL0    Cl18305   8.868   0.230   6.343  0.2217  0.2979 -0.0347
  877MOL0     C18306   8.813   0.511   5.340 -0.3106  1.1221 -0.4158
  877MOL0     C18307   8.758   0.524   5.211  0.3209 -0.2951  0.0879
  877MOL0     O18308   8.938   0.475   4.889  0.0210  0.4653 -0.8255
  877MOL0     C18309   8.794   0.432   4.655  0.2823  0.7267 -0.4527
  877MOL0     C18310   8.728   0.418   4.535 -0.2241  0.2033  0.4030
  877MOL0     N18311   8.004   0.500   4.130  0.4148 -0.2449  0.3586
  877MOL0     N18312   7.950   0.422   4.043  0.2693  0.2813 -0.2600
  877MOL0     C18313   7.420   0.517   2.945  0.1462 -0.0208 -0.2554
  877MOL0     C18314   7.405   0.585   2.826 -0.2509 -0.2982 -0.7681
  877MOL0     C18315   7.631   0.758   2.454 -0.1838  0.2231  0.2261
  877MOL0     C18316   7.746   0.731   2.362  0.0876 -0.3417  0.3048
  877MOL0     C18317   7.766   0.819   2.251  0.5796 -0.2766  1.0015
  877MOL0     C18318   7.710   0.944   2.250 -1.4297 -0.1075  1.1949
  877MOL0     O18319   7.746   1.041   2.151  0.1790  0.8634 -0.1496
  877MOL0     C18320   7.799   1.161   2.196  0.0285 -0.7916 -0.0863
  877MOL0     C18321   7.955   1.144   2.196  0.2528  0.0675 -0.1096
  877MOL0     C18322   8.024   1.271   2.242  0.0123  0.5192 -0.2090
  877MOL0     C18323   8.171   1.249   2.251 -0.7744 -0.2080 -0.6657
  877MOL0     C18324   8.240   1.253   2.121  0.0807 -1.0103  0.0746
  877MOL0     C18325   8.288   1.273   2.011 -0.0458  0.3004  0.2561
  877MOL0     C18326   7.599   0.969   2.328 -0.2977 -1.0892  0.1634
  877MOL0     C18327   7.563   0.877   2.429  0.1310  0.5018 -1.6574
  877MOL0     H18328   7.707   0.747   2.834 -3.5050  5.6976  0.9000
  877MOL0     H18329   7.704   0.650   3.069 -2.2582 -0.2781  0.7716
  877MOL0     H18330   7.748   0.464   3.173  2.4834  3.7987  1.6145
  877MOL0     H18331   7.664   0.575   3.278 -0.1637  0.7511 -2.4240
  877MOL0     H18332   7.580   0.413   3.441  0.2685  1.4502  0.8654
  877MOL0     H18333   7.597   0.283   3.334  0.1494  1.1526 -0.9144
  877MOL0     H18334   7.814   0.274   3.328 -0.2001 -0.9748  1.3104
  877MOL0     H18335   7.847   0.431   3.395 -0.5819  0.3189 -1.4263
  877MOL0     H18336   7.783   0.355   3.620  3.0243 -2.2587  2.9737
  877MOL0     H18337   7.682   0.218   3.546  0.7848 -0.8953 -1.5557
  877MOL0     H18338   7.900   0.113   3.498  1.1660 -0.8923  0.1874
  877MOL0     H18339   7.993   0.242   3.572  1.3005 -1.4759 -1.5685
  877MOL0     H18340   7.791   0.068   3.712 -1.7671 -0.2344 -3.7411
  877MOL0     H18341   7.963   0.038   3.721 -4.4113 -3.8423 -0.2911
  877MOL0     H18342   7.809   0.260   3.866  0.2211 -0.0414  2.3839
  877MOL0     H18343   7.914   0.139   3.923 -1.1972  2.4906  1.7146
  877MOL0     H18344   8.029   0.366   3.755 -1.1439  0.0996 -0.2515
  877MOL0     H18345   8.116   0.232   3.844 -1.5531 -1.9011 -0.3144
  877MOL0     H18346   8.260   0.446   3.934 -0.2135 -0.2419 -0.9994
  877MOL0     H18347   8.160   0.706   4.163 -0.6956 -1.2572  0.3373
  877MOL0     H18348   8.247   0.590   4.268  3.4590 -0.4811 -0.0615
  877MOL0     H18349   8.387   0.738   4.141  0.3307  0.5496  0.4041
  877MOL0     H18350   8.362   0.643   3.998 -0.3103 -0.1445 -0.3806
  877MOL0     H18351   8.565   0.566   4.108  0.1198  0.3244  1.0849
  877MOL0     H18352   8.454   0.438   4.165 -1.0922 -0.1042 -1.9822
  877MOL0     H18353   8.427   0.588   4.378  1.4749 -2.4439  1.6517
  877MOL0     H18354   8.549   0.697   4.315 -0.4915  0.3637 -0.1504
  877MOL0     H18355   8.542   0.691   4.529  1.0465  1.2886 -0.3012
  877MOL0     H18356   8.695   0.799   4.834 -1.2924 -0.1170  2.3716
  877MOL0     H18357   8.556   0.825   4.730  1.3175  2.1371  0.6301
  877MOL0     H18358   8.547   0.720   4.877 -1.7216  0.0470 -1.1905
  877MOL0     H18359   9.027   0.686   5.080  2.6868 -1.5140  0.9238
  877MOL0     H18360   9.116   0.675   5.294  2.4171 -2.9672 -1.7910
  877MOL0     H18361   8.935   0.359   5.506 -1.1559  1.9570  0.1488
  877MOL0     H18362   9.116   0.385   5.463  1.0893  0.9137  0.8648
  877MOL0     H18363   9.107   0.327   5.695 -0.5509  0.1221  1.6122
  877MOL0     H18364   9.185   0.473   5.657  0.8406 -0.0575  3.1166
  877MOL0     H18365   8.897   0.534   5.732  1.7255  1.5815 -2.0200
  877MOL0     H18366   9.055   0.598   5.777  0.8398  0.4494 -3.9727
  877MOL0     H18367   8.897   0.366   5.902 -1.3086  1.3597 -1.1216
  877MOL0     H18368   9.072   0.372   5.924 -0.1870  0.9240  4.2528
  877MOL0     H18369   8.920   0.625   6.004  1.9267  0.3126 -0.8335
  877MOL0     H18370   9.084   0.581   6.020 -0.2994  1.4948 -0.6851
  877MOL0     H18371   9.012   0.386   6.168  2.2955  2.7597  2.0101
  877MOL0     H18372   8.978   0.549   6.229  2.7024  0.8245 -1.8748
  877MOL0     H18373   8.775   0.350   6.113 -1.6847 -0.4480  0.3798
  877MOL0     H18374   8.742   0.521   6.151  1.4429  1.1128 -0.3233
  877MOL0     H18375   8.682   0.388   6.360  1.1814 -1.3752  1.5100
  877MOL0     H18376   8.833   0.467   6.379  2.2117 -0.6075 -0.1233
  877MOL0     H18377   8.753   0.461   5.415 -3.7432  2.3746 -2.1260
  877MOL0     H18378   8.657   0.486   5.194  0.0941  1.6657 -4.3293
  877MOL0     H18379   8.875   0.368   4.686  2.9348  3.3424 -1.4613
  877MOL0     H18380   8.759   0.347   4.458  0.2392  1.2265 -0.3802
  877MOL0     H18381   7.355   0.437   2.978 -0.8788  0.5247 -0.8986
  877MOL0     H18382   7.325   0.580   2.754  1.1866  0.9913 -2.5431
  877MOL0     H18383   7.821   0.654   2.381  1.0996  0.6507  0.4160
  877MOL0     H18384   7.853   0.804   2.188 -0.3682 -2.5854  0.1290
  877MOL0     H18385   7.776   1.244   2.128  2.9010  0.2486  0.0482
  877MOL0     H18386   7.760   1.191   2.294 -4.2036  0.4769 -1.9463
  877MOL0     H18387   7.984   1.101   2.100  1.9228 -2.6163  1.4676
  877MOL0     H18388   7.981   1.053   2.250  3.4036 -0.0442 -1.5748
  877MOL0     H18389   7.987   1.296   2.341 -0.9042  1.1288 -0.6904
  877MOL0     H18390   8.000   1.363   2.189 -1.4006 -0.5806 -1.6081
  877MOL0     H18391   8.189   1.149   2.290 -2.5445 -0.1505  0.3809
  877MOL0     H18392   8.213   1.317   2.325 -0.2170  1.3329 -2.3106
  877MOL0     H18393   8.338   1.299   1.920 -1.4664 -0.1149 -0.6736
  877MOL0     H18394   7.544   1.062   2.317  2.6232  0.6101 -1.6129
  877MOL0     H18395   7.483   0.910   2.494  1.4178  1.5481 -0.5523
  878MOL0     O18396   9.227   2.747  11.028 -0.4775  0.0287  0.0478
  878MOL0     C18397   9.157   2.657  11.084  0.3398 -0.7359  0.1621
  878MOL0     O18398   9.084   2.560  11.008 -0.0008 -0.8383  0.1128
  878MOL0     C18399   9.114   2.552  10.868 -0.4549 -0.0570  0.7776
  878MOL0     C18400   9.242   2.535  10.821  0.0018  0.1846 -0.2607
  878MOL0     C18401   9.271   2.557  10.686  1.2339  0.4553  0.8965
  878MOL0     C18402   9.162   2.569  10.589 -0.2203  0.2631 -0.6983
  878MOL0     O18403   9.185   2.587  10.455  0.4363 -0.2424  0.2887
  878MOL0     C18404   9.112   2.495  10.368 -0.0335  0.3671 -0.1138
  878MOL0     C18405   9.151   2.525  10.223  0.6421 -0.5727 -0.2048
  878MOL0     C18406   9.089   2.431  10.117 -1.6264 -0.1827 -0.4063
  878MOL0     C18407   9.129   2.466   9.969 -0.2255 -0.0672 -0.3853
  878MOL0     C18408   9.027   2.575   9.909 -0.1611  0.2189 -1.3975
  878MOL0     C18409   9.007   2.578   9.760 -1.0431  0.0658  0.5005
  878MOL0     C18410   9.114   2.669   9.691 -0.4734 -1.4477  0.3654
  878MOL0     C18411   9.080   2.685   9.540 -1.6021 -0.0985 -0.4389
  878MOL0     N18412   9.152   2.806   9.486 -0.2637  0.4539  0.0948
  878MOL0     C18413   9.224   2.912   9.541 -1.1304  0.0579  0.7561
  878MOL0     C18414   9.256   2.999   9.440  0.5092  0.4129  1.0557
  878MOL0     C18415   9.301   3.132   9.469  0.4042  0.0249  0.0091
  878MOL0     C18416   9.460   3.142   9.449  0.5117 -0.4921 -0.9839
  878MOL0     C18417   9.472   3.222   9.321  0.2964 -0.6687  0.2102
  878MOL0     C18418   9.613   3.287   9.299 -0.0884 -0.8291  0.5621
  878MOL0     O18419   9.686   3.185   9.237  0.5046 -0.0026  0.3597
  878MOL0     C18420   9.821   3.200   9.263  0.3830 -1.2401  1.2610
  878MOL0     C18421   9.888   3.313   9.316  0.3160  0.1690  0.0003
  878MOL0     C18422  10.029   3.318   9.324  0.1997  0.9411 -0.1199
  878MOL0     C18423  10.086   3.446   9.386  0.5702 -0.3785 -0.4925
  878MOL0     C18424  10.100   3.205   9.268 -0.4396  0.1398 -0.5216
  878MOL0     C18425  10.242   3.196   9.280 -0.2245 -0.0715  0.3117
  878MOL0     O18426  10.299   3.067   9.264 -0.6819 -0.6435  0.5446
  878MOL0     C18427  10.430   3.059   9.289 -0.8077 -0.6184 -1.0650
  878MOL0     C18428  10.480   3.015   9.410 -0.4858  0.0237 -0.5216
  878MOL0     C18429  10.614   2.996   9.433 -0.2242 -0.2033 -0.0156
  878MOL0     C18430  10.710   3.022   9.330 -0.5578 -0.5073  0.0517
  878MOL0     O18431  10.846   2.996   9.359 -0.7345 -0.5609  0.3704
  878MOL0     C18432  10.931   2.995   9.239  0.7957 -0.1016  1.0114
  878MOL0     C18433  11.081   2.998   9.278 -0.6185  0.0455  0.5294
  878MOL0     C18434  11.128   2.854   9.302 -0.1376 -0.5239  1.0389
  878MOL0     C18435  11.258   2.859   9.375 -1.1435 -0.6888 -0.4365
  878MOL0     C18436  11.351   2.738   9.349 -0.6100  0.1395 -1.0149
  878MOL0     C18437  11.476   2.749   9.420  0.2246 -0.7072 -0.5747
  878MOL0     C18438  11.456   2.746   9.580  0.3904 -0.2075 -0.2766
  878MOL0     C18439  11.572   2.681   9.655  0.4458  0.7196  0.1115
  878MOL0    Cl18440  11.739   2.750   9.601  0.4314 -0.1711 -0.0466
  878MOL0     C18441  10.655   3.070   9.199  0.0879  0.4000 -0.6558
  878MOL0     C18442  10.520   3.100   9.183  0.2674 -0.1181 -0.5262
  878MOL0     O18443  10.311   3.299   9.298  0.0795  0.8445  1.0846
  878MOL0     C18444  10.029   3.092   9.217 -0.3409  0.4246 -0.5090
  878MOL0     C18445   9.889   3.088   9.213  0.1834  0.7798  0.0470
  878MOL0     N18446   9.216   2.942   9.317  0.2821 -0.5506  0.4305
  878MOL0     N18447   9.158   2.829   9.347  0.0112  0.2378 -0.9527
  878MOL0     C18448   9.035   2.578  10.638  0.9080 -0.1115 -0.1151
  878MOL0     C18449   9.015   2.582  10.772  1.1408  1.2907 -0.0731
  878MOL0     C18450   9.128   2.657  11.224  0.0993  0.5753  0.5093
  878MOL0     C18451   9.032   2.569  11.280 -0.4181  0.9555 -0.1481
  878MOL0     C18452   8.994   2.575  11.415  0.1843  0.3951 -0.0690
  878MOL0     C18453   9.054   2.675  11.502  0.3508 -0.1606  0.0907
  878MOL0     O18454   9.018   2.708  11.629  0.7741 -0.9443  0.1422
  878MOL0     C18455   8.944   2.607  11.703 -0.8553 -0.8656 -0.3275
  878MOL0     C18456   9.024   2.474  11.718  0.6680 -0.2934  0.9007
  878MOL0     C18457   8.972   2.382  11.831 -0.2072 -0.1493  0.1788
  878MOL0     C18458   9.074   2.266  11.846 -0.1831  0.2198 -0.2062
  878MOL0     C18459   8.999   2.162  11.926 -1.3847 -0.0290  0.8687
  878MOL0     C18460   8.944   2.084  12.001  0.3376  0.4104 -0.3308
  878MOL0     C18461   9.146   2.757  11.444 -0.0309 -1.2122  0.3898
  878MOL0     C18462   9.187   2.745  11.313  0.1011 -0.3100 -0.4535
  878MOL0     H18463   9.325   2.534  10.891  0.1039 -3.5861 -0.2476
  878MOL0     H18464   9.373   2.554  10.649  1.0338 -0.0702  0.3637
  878MOL0     H18465   9.147   2.393  10.387  1.1126 -0.0565 -3.7724
  878MOL0     H18466   9.003   2.497  10.382 -0.2252 -2.3255 -0.6104
  878MOL0     H18467   9.111   2.627  10.217 -1.5049 -0.9912  3.7961
  878MOL0     H18468   9.258   2.502  10.214  1.1549  1.0444  1.2032
  878MOL0     H18469   9.120   2.330  10.143  0.3743  1.1952  3.4078
  878MOL0     H18470   8.983   2.434  10.145 -1.3521 -1.4400  0.8981
  878MOL0     H18471   9.232   2.494   9.944  0.3272 -1.8621 -0.2543
  878MOL0     H18472   9.104   2.385   9.900 -0.2578  0.6367 -1.2243
  878MOL0     H18473   8.934   2.541   9.955  1.4166 -1.1733  1.0014
  878MOL0     H18474   9.056   2.674   9.945  3.7078 -1.7892  1.7831
  878MOL0     H18475   9.004   2.471   9.737  0.2565  0.5931 -2.6584
  878MOL0     H18476   8.911   2.628   9.742  0.3163  3.4098  1.6276
  878MOL0     H18477   9.132   2.761   9.746 -0.7127 -0.4419 -1.1879
  878MOL0     H18478   9.210   2.619   9.710  0.7811 -0.4761 -2.7525
  878MOL0     H18479   8.973   2.698   9.524 -2.0613 -3.8436 -1.3070
  878MOL0     H18480   9.105   2.588   9.496  0.3423  1.5579 -3.3625
  878MOL0     H18481   9.225   2.934   9.647 -0.4790 -0.6737  0.9092
  878MOL0     H18482   9.234   3.195   9.409  0.4124 -0.4843 -0.5400
  878MOL0     H18483   9.274   3.152   9.573 -1.0837 -2.6177  0.2069
  878MOL0     H18484   9.518   3.049   9.437  1.3778 -1.0609  4.8004
  878MOL0     H18485   9.501   3.190   9.538  2.5853 -3.2380 -0.3163
  878MOL0     H18486   9.404   3.308   9.321  1.4823  0.3005  1.0990
  878MOL0     H18487   9.444   3.166   9.231 -0.2757  1.4612 -1.0197
  878MOL0     H18488   9.649   3.307   9.400 -0.2691 -1.3296  0.7310
  878MOL0     H18489   9.610   3.381   9.244  1.8054 -1.6943 -1.1305
  878MOL0     H18490   9.832   3.402   9.342 -1.1495  0.2650 -3.1284
  878MOL0     H18491  10.165   3.422   9.458  2.3791  0.6598 -2.0461
  878MOL0     H18492  10.152   3.498   9.317  0.5739 -1.2937 -1.2018
  878MOL0     H18493  10.012   3.515   9.427 -0.6633 -2.0516  0.2187
  878MOL0     H18494  10.408   3.000   9.490  0.9059 -1.7896  0.4789
  878MOL0     H18495  10.657   2.962   9.527  1.6281  0.7822 -0.4545
  878MOL0     H18496  10.915   2.908   9.175 -1.0486  0.9727 -0.0844
  878MOL0     H18497  10.906   3.089   9.188 -0.8826 -1.9260 -1.7774
  878MOL0     H18498  11.133   3.060   9.204 -2.1134  2.1116  1.1097
  878MOL0     H18499  11.078   3.053   9.373 -1.8262  2.7124 -0.9286
  878MOL0     H18500  11.148   2.801   9.208 -1.5226 -0.9365  0.9594
  878MOL0     H18501  11.048   2.799   9.352 -0.7162 -0.3188  0.3562
  878MOL0     H18502  11.305   2.949   9.334 -0.4149 -1.2577 -0.8754
  878MOL0     H18503  11.251   2.880   9.482 -0.6962 -0.1218 -0.5115
  878MOL0     H18504  11.376   2.734   9.243  0.5325  0.0224 -0.7624
  878MOL0     H18505  11.303   2.644   9.378  3.7868 -1.9713  0.3231
  878MOL0     H18506  11.545   2.675   9.380  2.0116  0.0843  0.8926
  878MOL0     H18507  11.534   2.839   9.398  0.9432 -0.8607  0.5857
  878MOL0     H18508  11.362   2.695   9.603 -0.2792  0.7072 -0.9280
  878MOL0     H18509  11.448   2.851   9.611  2.5720 -0.6838  2.3115
  878MOL0     H18510  11.576   2.580   9.614 -0.4158  0.8416 -0.2917
  878MOL0     H18511  11.554   2.689   9.763 -1.0813  0.1920 -0.0795
  878MOL0     H18512  10.721   3.097   9.117  1.8126  1.6614  1.0587
  878MOL0     H18513  10.478   3.130   9.087 -0.4904 -1.4458 -0.6368
  878MOL0     H18514  10.083   3.019   9.158 -0.6121  0.0191 -0.2613
  878MOL0     H18515   9.836   2.997   9.182 -0.4681  0.2046  2.6188
  878MOL0     H18516   8.950   2.592  10.573  1.1963  4.1261  0.1237
  878MOL0     H18517   8.919   2.613  10.811  0.7553 -1.6190  1.6131
  878MOL0     H18518   8.985   2.496  11.216  0.2509  1.7745 -1.6481
  878MOL0     H18519   8.905   2.520  11.447 -0.0142 -1.3846 -3.2747
  878MOL0     H18520   8.924   2.646  11.803  1.6443 -1.6142  0.5614
  878MOL0     H18521   8.845   2.588  11.662 -1.6078  0.5042  0.7963
  878MOL0     H18522   9.128   2.502  11.737 -0.4612  3.0552  2.8058
  878MOL0     H18523   9.020   2.431  11.617  2.6121  0.6803  0.3613
  878MOL0     H18524   8.868   2.354  11.810 -0.9511  3.1686 -1.0740
  878MOL0     H18525   8.975   2.443  11.921  1.1240  2.0791 -1.2687
  878MOL0     H18526   9.163   2.291  11.904  0.0564 -0.0887 -0.4403
  878MOL0     H18527   9.111   2.227  11.751  2.7003 -1.6868  1.5384
  878MOL0     H18528   8.888   2.017  12.064  1.0020 -1.7795 -1.9283
  878MOL0     H18529   9.190   2.829  11.512 -2.3093  1.4978 -0.8009
  878MOL0     H18530   9.252   2.823  11.272  0.9576 -0.7596  0.0267
  879MOL0     O18531   6.237   6.871   7.176  0.1153  0.5805 -0.2807
  879MOL0     C18532   6.210   6.791   7.090 -0.4855  0.0020  0.0669
  879MOL0     O18533   6.145   6.668   7.112  0.0955 -0.2241  0.3816
  879MOL0     C18534   6.097   6.616   7.237  0.5431 -0.1226  0.2833
  879MOL0     C18535   6.139   6.645   7.361 -0.2213  0.8840 -0.3731
  879MOL0     C18536   6.076   6.602   7.480  0.9804  0.4635 -0.7024
  879MOL0     C18537   5.978   6.500   7.470  1.3907 -0.1981 -1.2131
  879MOL0     O18538   5.911   6.463   7.586 -0.1036  0.8899  0.2803
  879MOL0     C18539   5.953   6.336   7.641 -1.0661  0.5777 -0.1190
  879MOL0     C18540   5.973   6.348   7.792 -0.2891  0.1282  0.4601
  879MOL0     C18541   6.015   6.217   7.861  0.6828 -0.3083  0.4884
  879MOL0     C18542   5.953   6.206   8.005  0.6505 -0.0281  0.4038
  879MOL0     C18543   5.930   6.056   8.030 -0.3411 -0.9246  0.4454
  879MOL0     C18544   5.884   6.022   8.174 -0.7445 -0.2098  0.1111
  879MOL0     C18545   6.003   6.040   8.279 -0.3737  0.1143  0.5038
  879MOL0     C18546   5.967   5.994   8.420 -0.7612  0.9292 -0.5830
  879MOL0     N18547   5.956   5.847   8.430 -0.1292 -0.2731  0.2451
  879MOL0     C18548   5.935   5.775   8.547  0.0886 -0.3824 -0.9358
  879MOL0     C18549   5.955   5.647   8.513  0.3069 -0.4266 -0.6362
  879MOL0     C18550   5.935   5.529   8.615 -0.2281 -1.2438 -0.0679
  879MOL0     C18551   5.821   5.439   8.586  0.1897  0.0157  0.2450
  879MOL0     C18552   5.835   5.308   8.671 -0.0452 -0.2265 -0.0283
  879MOL0     C18553   5.886   5.192   8.595 -1.3429  0.1937 -0.0782
  879MOL0     O18554   6.027   5.207   8.562  0.0037 -0.4508  0.3252
  879MOL0     C18555   6.088   5.096   8.503  0.8245 -0.6380  0.2421
  879MOL0     C18556   6.044   5.048   8.374 -0.2354 -0.6262  0.1354
  879MOL0     C18557   6.094   4.934   8.323  0.1713 -0.5627  0.8308
  879MOL0     C18558   6.022   4.881   8.204 -0.4168  0.7120 -0.1775
  879MOL0     C18559   6.197   4.869   8.385  0.0777  0.4863  0.0939
  879MOL0     C18560   6.265   4.748   8.343  0.4548 -0.2904 -0.0105
  879MOL0     O18561   6.390   4.738   8.386 -0.0088  0.6178  0.0202
  879MOL0     C18562   6.458   4.628   8.348 -0.0959 -0.0430  0.2900
  879MOL0     C18563   6.419   4.495   8.390  0.2060 -0.0769  0.2983
  879MOL0     C18564   6.508   4.397   8.340  0.5119  0.1582 -0.4873
  879MOL0     C18565   6.624   4.422   8.271 -0.8437 -0.4977 -0.1966
  879MOL0     O18566   6.690   4.318   8.212  0.9241  0.2569  0.3971
  879MOL0     C18567   6.823   4.280   8.256  0.8626 -0.4445  0.5552
  879MOL0     C18568   6.904   4.186   8.156  0.9098  0.5995 -0.2797
  879MOL0     C18569   7.028   4.136   8.222  0.1588  0.7166  0.3044
  879MOL0     C18570   7.084   4.002   8.156  0.1703 -0.1994  0.6871
  879MOL0     C18571   7.221   3.970   8.219  1.0166 -0.9728 -0.1153
  879MOL0     C18572   7.262   3.836   8.165 -0.0498  0.5987 -0.1728
  879MOL0     C18573   7.403   3.801   8.203 -0.0997 -0.2373  0.1637
  879MOL0     C18574   7.415   3.650   8.218 -0.0500  0.0146  0.2909
  879MOL0    Cl18575   7.581   3.596   8.227 -0.2911 -0.3240 -0.2047
  879MOL0     C18576   6.643   4.552   8.230 -0.6222 -0.7882 -0.3976
  879MOL0     C18577   6.565   4.661   8.269  0.0561  0.3651  0.2097
  879MOL0     O18578   6.203   4.667   8.277 -0.3486 -0.1090 -0.8396
  879MOL0     C18579   6.250   4.926   8.503 -0.1799 -0.0981 -0.3184
  879MOL0     C18580   6.194   5.036   8.567  0.5314 -0.1636  0.6163
  879MOL0     N18581   5.989   5.640   8.381 -0.4173  0.6019 -0.0690
  879MOL0     N18582   5.979   5.758   8.332  0.1212  0.1515  0.4417
  879MOL0     C18583   5.927   6.467   7.343  0.1890  0.9406 -0.7967
  879MOL0     C18584   5.989   6.521   7.230 -0.5194 -0.5754 -0.1358
  879MOL0     C18585   6.254   6.828   6.950 -1.2519  0.4281  0.1349
  879MOL0     C18586   6.228   6.744   6.845  0.0352 -0.3867 -0.1941
  879MOL0     C18587   6.282   6.771   6.723  0.3200 -1.0332  0.1548
  879MOL0     C18588   6.346   6.896   6.695  1.4364 -0.6869 -0.3061
  879MOL0     O18589   6.386   6.942   6.574  0.5262  0.7880  0.2082
  879MOL0     C18590   6.433   6.844   6.479 -0.0938 -0.2999  0.4347
  879MOL0     C18591   6.548   6.757   6.520 -0.2979 -0.2296 -0.2337
  879MOL0     C18592   6.595   6.654   6.415  0.7197  0.2489  1.3165
  879MOL0     C18593   6.707   6.699   6.324  0.7213 -0.6462  0.3138
  879MOL0     C18594   6.713   6.830   6.271 -0.1830 -0.1006  0.7680
  879MOL0     C18595   6.719   6.933   6.215 -0.0605 -0.1503 -0.2876
  879MOL0     C18596   6.345   6.996   6.789 -0.7509 -0.1286  0.3565
  879MOL0     C18597   6.311   6.951   6.924  0.1355  0.8168  0.0162
  879MOL0     H18598   6.226   6.710   7.369  1.0322 -0.8865  1.8336
  879MOL0     H18599   6.112   6.635   7.577  0.3812 -0.6230 -0.0889
  879MOL0     H18600   5.874   6.263   7.625 -2.0278  2.0742 -2.8372
  879MOL0     H18601   6.039   6.296   7.587 -1.6544  2.5558 -2.6919
  879MOL0     H18602   6.052   6.420   7.817  1.6925 -1.7797  0.0602
  879MOL0     H18603   5.884   6.394   7.834 -2.2729 -1.8126 -1.3822
  879MOL0     H18604   5.986   6.128   7.802  2.8662 -1.9159  1.6930
  879MOL0     H18605   6.123   6.208   7.874  0.8982 -0.2854 -1.0765
  879MOL0     H18606   6.008   6.246   8.091 -0.7450 -1.4381  2.0390
  879MOL0     H18607   5.856   6.257   8.011  0.2557 -0.4437 -1.8773
  879MOL0     H18608   5.875   5.994   7.959  0.3646  1.8245 -2.7483
  879MOL0     H18609   6.031   6.013   8.036  1.5134  3.0592  0.6297
  879MOL0     H18610   5.812   6.097   8.208  1.2372  1.6432  0.4819
  879MOL0     H18611   5.850   5.919   8.157 -0.9680 -0.8131  3.4159
  879MOL0     H18612   6.083   5.976   8.240 -2.1024  0.2186 -3.6896
  879MOL0     H18613   6.053   6.137   8.288  2.4863 -1.3570  2.6557
  879MOL0     H18614   5.878   6.053   8.443  0.9828  3.2131  0.8613
  879MOL0     H18615   6.049   6.021   8.488  0.4742  0.0897 -1.6952
  879MOL0     H18616   5.916   5.820   8.644  1.1801  2.1978 -1.8090
  879MOL0     H18617   6.030   5.474   8.611  0.2548 -0.3539 -1.4965
  879MOL0     H18618   5.928   5.567   8.717  1.2690 -0.4647 -0.2252
  879MOL0     H18619   5.829   5.405   8.482  1.2275  0.8108  0.0535
  879MOL0     H18620   5.729   5.498   8.589  1.3438  2.2214 -2.3913
  879MOL0     H18621   5.734   5.275   8.700  0.3124 -1.7923 -0.4561
  879MOL0     H18622   5.890   5.328   8.763 -2.5615  0.0417  1.5343
  879MOL0     H18623   5.833   5.183   8.499 -2.1740 -4.0037  0.5681
  879MOL0     H18624   5.867   5.098   8.649  0.3521 -0.8367 -1.1721
  879MOL0     H18625   5.970   5.106   8.320 -0.1386 -0.4955  0.1419
  879MOL0     H18626   6.082   4.841   8.121  2.1237  0.0403  1.8648
  879MOL0     H18627   5.961   4.802   8.248 -0.4984 -0.6055 -2.4781
  879MOL0     H18628   5.951   4.955   8.165 -1.4814 -0.3764 -0.3634
  879MOL0     H18629   6.327   4.481   8.445 -0.4257  2.3005 -0.0382
  879MOL0     H18630   6.488   4.291   8.355 -1.1163  0.5491  0.2924
  879MOL0     H18631   6.879   4.371   8.281 -2.0250  1.3647  0.9370
  879MOL0     H18632   6.821   4.232   8.354  1.3977 -1.7466 -0.0470
  879MOL0     H18633   6.843   4.096   8.140  2.1159 -0.3039  0.0964
  879MOL0     H18634   6.929   4.242   8.066 -0.4692 -0.6370 -1.4917
  879MOL0     H18635   7.004   4.103   8.324 -1.8498 -3.6004 -1.3104
  879MOL0     H18636   7.102   4.215   8.205  0.6040  0.0751 -0.8575
  879MOL0     H18637   7.013   3.922   8.174 -2.8835  1.8043 -1.4624
  879MOL0     H18638   7.085   4.005   8.046 -1.9002  0.1623  0.6462
  879MOL0     H18639   7.210   3.991   8.326 -1.5481 -0.7189 -0.3665
  879MOL0     H18640   7.295   4.042   8.184  2.1089 -2.7881 -1.6935
  879MOL0     H18641   7.196   3.757   8.201  2.1945 -1.2947  0.0390
  879MOL0     H18642   7.262   3.838   8.056 -0.4065  0.5450 -0.1748
  879MOL0     H18643   7.414   3.843   8.304  2.3975  4.7440 -1.7938
  879MOL0     H18644   7.469   3.849   8.129 -2.0866  1.2113 -0.7587
  879MOL0     H18645   7.375   3.609   8.125  0.2299 -3.2329  1.4537
  879MOL0     H18646   7.353   3.617   8.302 -0.2487 -2.2299 -0.6612
  879MOL0     H18647   6.729   4.580   8.169 -1.2522 -0.2651 -1.0550
  879MOL0     H18648   6.600   4.759   8.241  0.8199  0.0392 -0.0137
  879MOL0     H18649   6.346   4.895   8.541 -0.8628  2.4330  4.2081
  879MOL0     H18650   6.235   5.070   8.662  1.3987  0.7859 -0.0754
  879MOL0     H18651   5.851   6.390   7.341 -1.6036  2.5303  1.1387
  879MOL0     H18652   5.944   6.486   7.137 -0.9617  3.6812 -1.7315
  879MOL0     H18653   6.193   6.642   6.829  1.3108 -0.3845 -4.0484
  879MOL0     H18654   6.269   6.705   6.637 -1.5012  0.2875 -0.6578
  879MOL0     H18655   6.353   6.788   6.429 -1.5625  0.8212  1.4102
  879MOL0     H18656   6.491   6.908   6.412  0.3967 -2.8643 -1.7543
  879MOL0     H18657   6.537   6.704   6.616  2.5857 -1.2862 -0.4051
  879MOL0     H18658   6.633   6.824   6.534  1.6132 -2.6058  0.1574
  879MOL0     H18659   6.513   6.632   6.346  1.8924  0.5379 -0.2238
  879MOL0     H18660   6.618   6.559   6.464  1.9540 -0.6295 -0.8064
  879MOL0     H18661   6.733   6.625   6.247 -0.2618  0.0542 -0.7222
  879MOL0     H18662   6.793   6.676   6.388  1.7901  0.8813 -0.5276
  879MOL0     H18663   6.733   7.027   6.164  0.9787 -0.9149 -1.4776
  879MOL0     H18664   6.385   7.094   6.764  1.4943 -0.7725  1.2047
  879MOL0     H18665   6.346   7.018   7.002  2.2964 -0.1828 -0.0182
  880MOL0     O18666   0.430   6.015  11.119  0.2769 -0.0649  0.0645
  880MOL0     C18667   0.515   5.985  11.195 -0.4404 -0.8039 -0.5608
  880MOL0     O18668   0.538   5.870  11.263  0.0672  0.2921 -0.5041
  880MOL0     C18669   0.473   5.754  11.249 -0.4835  0.7974  0.2594
  880MOL0     C18670   0.494   5.672  11.347 -0.0701  0.5285 -0.3250
  880MOL0     C18671   0.449   5.536  11.348 -0.6358  0.9099 -0.7642
  880MOL0     C18672   0.378   5.487  11.233 -0.0942  0.5841 -0.2591
  880MOL0     O18673   0.333   5.351  11.217 -0.5771  0.1798 -0.2312
  880MOL0     C18674   0.209   5.321  11.143 -0.2449  0.1500  0.3343
  880MOL0     C18675   0.179   5.169  11.157  0.1773 -0.6005 -0.0816
  880MOL0     C18676   0.036   5.111  11.124 -0.8000  0.7306 -0.3913
  880MOL0     C18677   0.004   5.123  10.975  0.0414 -0.4858  0.3847
  880MOL0     C18678  -0.127   5.043  10.937  0.0649  0.1244 -0.1657
  880MOL0     C18679  -0.128   5.015  10.784  0.4096  0.0088  0.0710
  880MOL0     C18680  -0.120   5.148  10.708 -0.2609  0.0993 -0.3078
  880MOL0     C18681  -0.186   5.128  10.568 -0.3478 -0.2534 -0.7877
  880MOL0     N18682  -0.125   5.020  10.485 -0.1607 -0.4141 -0.4837
  880MOL0     C18683  -0.055   5.035  10.366  0.0406  0.3042 -0.1679
  880MOL0     C18684  -0.025   4.915  10.321  0.0093 -0.0568 -0.6379
  880MOL0     C18685   0.066   4.870  10.211 -1.1276 -0.6252  0.1223
  880MOL0     C18686   0.117   4.722  10.217  0.7478  0.0016  0.0846
  880MOL0     C18687   0.228   4.697  10.112 -0.2653  0.2725  0.4216
  880MOL0     C18688   0.275   4.552  10.107  0.1254 -0.0155  0.2041
  880MOL0     O18689   0.162   4.474  10.058  0.6740 -0.3034 -0.0649
  880MOL0     C18690   0.145   4.460   9.925  0.5557 -0.2024  0.0897
  880MOL0     C18691   0.254   4.423   9.846  0.1417 -0.3036 -0.3826
  880MOL0     C18692   0.237   4.397   9.712 -0.6050 -0.4493 -0.6888
  880MOL0     C18693   0.366   4.359   9.637 -0.4169  0.7873 -0.0959
  880MOL0     C18694   0.104   4.407   9.651 -0.1540 -0.5719  0.2544
  880MOL0     C18695   0.071   4.371   9.506  0.5551 -0.3672  0.3049
  880MOL0     O18696  -0.054   4.382   9.466  0.3326  0.6121  0.3573
  880MOL0     C18697  -0.109   4.340   9.341  0.1943 -0.8092 -0.4040
  880MOL0     C18698  -0.046   4.276   9.225 -0.3078 -0.3567 -0.8542
  880MOL0     C18699  -0.124   4.241   9.115  0.2764  0.6814  1.5519
  880MOL0     C18700  -0.265   4.264   9.111 -0.1799 -1.4419 -1.0344
  880MOL0     O18701  -0.331   4.217   9.003  0.7923  0.1126 -0.1976
  880MOL0     C18702  -0.455   4.285   8.958 -0.0535  0.1143 -0.2567
  880MOL0     C18703  -0.493   4.252   8.813  0.0700 -0.2464  0.6562
  880MOL0     C18704  -0.388   4.318   8.720 -0.1335  0.6757 -0.3553
  880MOL0     C18705  -0.444   4.341   8.585  0.0609 -0.9746 -0.2569
  880MOL0     C18706  -0.338   4.394   8.500 -0.7715  0.0106  0.5984
  880MOL0     C18707  -0.335   4.549   8.490 -0.2132 -0.3041  1.0569
  880MOL0     C18708  -0.250   4.599   8.372  0.7576 -0.3814 -0.0553
  880MOL0     C18709  -0.197   4.739   8.383  0.4424 -0.4632  0.2485
  880MOL0    Cl18710  -0.322   4.851   8.321  0.0103  0.5727 -0.3461
  880MOL0     C18711  -0.317   4.332   9.219 -0.4125 -0.0349  0.2307
  880MOL0     C18712  -0.243   4.368   9.330 -0.1823 -0.1304  0.7938
  880MOL0     O18713   0.164   4.341   9.431 -0.6637 -0.1397  0.1328
  880MOL0     C18714  -0.004   4.449   9.729  0.1926  0.2385 -0.6760
  880MOL0     C18715   0.018   4.470   9.866 -0.0062  0.1542 -0.1214
  880MOL0     N18716  -0.070   4.826  10.416  0.3495 -0.5975 -0.8191
  880MOL0     N18717  -0.131   4.888  10.509  0.2102 -0.3327  0.3095
  880MOL0     C18718   0.343   5.582  11.134  0.4238 -0.6889  1.0259
  880MOL0     C18719   0.386   5.717  11.139 -0.6547 -0.3098 -1.3744
  880MOL0     C18720   0.613   6.101  11.235  0.5405 -0.7245  0.5738
  880MOL0     C18721   0.612   6.235  11.176 -1.0571  0.3220  0.1821
  880MOL0     C18722   0.691   6.333  11.231  0.3342 -0.4318  0.9018
  880MOL0     C18723   0.782   6.307  11.334  0.2045 -0.2462 -0.2237
  880MOL0     O18724   0.863   6.409  11.376  0.0829  0.0182  0.1573
  880MOL0     C18725   0.831   6.454  11.506 -0.2069 -0.0851  0.1649
  880MOL0     C18726   0.904   6.597  11.542 -0.0465  1.0265  0.6332
  880MOL0     C18727   0.821   6.711  11.495  0.0958  0.0520 -0.5492
  880MOL0     C18728   0.884   6.842  11.540  1.2732  0.7837  0.3877
  880MOL0     C18729   1.004   6.855  11.458 -0.2512 -0.3777 -0.0229
  880MOL0     C18730   1.116   6.843  11.411 -0.2126  0.1880  0.2747
  880MOL0     C18731   0.787   6.182  11.395  0.8418  1.1782  0.6499
  880MOL0     C18732   0.706   6.073  11.340  0.4983 -0.8779  0.1944
  880MOL0     H18733   0.553   5.701  11.434 -2.0502 -0.2943  1.3810
  880MOL0     H18734   0.466   5.470  11.433 -0.5851  2.1231  0.1858
  880MOL0     H18735   0.124   5.386  11.167 -1.1398 -0.7881 -0.2558
  880MOL0     H18736   0.224   5.341  11.037  0.0199 -0.0691  0.3281
  880MOL0     H18737   0.252   5.115  11.096 -0.9060  1.6486 -3.6972
  880MOL0     H18738   0.198   5.141  11.261  0.8965  1.1764  0.2983
  880MOL0     H18739   0.028   5.005  11.149  2.4698  0.5777  0.4126
  880MOL0     H18740  -0.043   5.165  11.177  1.1896  5.3027 -1.5595
  880MOL0     H18741  -0.015   5.229  10.958 -1.3316 -0.7880 -0.0611
  880MOL0     H18742   0.092   5.101  10.915  0.4042  0.2835  0.6208
  880MOL0     H18743  -0.138   4.954  10.999 -2.0965  1.3674  1.3835
  880MOL0     H18744  -0.219   5.095  10.963 -0.6291 -1.7266  1.3286
  880MOL0     H18745  -0.048   4.946  10.756  0.4727 -0.5824  1.5950
  880MOL0     H18746  -0.222   4.965  10.758 -0.0612  0.8837  0.0554
  880MOL0     H18747  -0.180   5.226  10.756 -1.1851 -0.2110 -0.9425
  880MOL0     H18748  -0.018   5.187  10.700 -0.5104  1.2298  1.3207
  880MOL0     H18749  -0.191   5.228  10.522  0.5196  0.8477  1.3454
  880MOL0     H18750  -0.289   5.096  10.582  0.0910 -1.5626 -0.4444
  880MOL0     H18751  -0.024   5.128  10.319  1.3190 -0.1000 -0.1748
  880MOL0     H18752   0.017   4.874  10.113  1.2999  0.3055 -1.1210
  880MOL0     H18753   0.150   4.939  10.214 -1.1192 -0.4254 -2.2790
  880MOL0     H18754   0.030   4.661  10.193 -0.7536  1.3932  1.7072
  880MOL0     H18755   0.158   4.693  10.314  1.3042  1.5660  0.3494
  880MOL0     H18756   0.313   4.759  10.141  1.1167 -0.9375 -0.8840
  880MOL0     H18757   0.189   4.715  10.012 -1.4100 -2.4655  0.2787
  880MOL0     H18758   0.296   4.512  10.207 -2.5623 -0.5835  0.6284
  880MOL0     H18759   0.365   4.553  10.045  1.4052 -2.7169  1.8116
  880MOL0     H18760   0.345   4.423   9.905 -1.2790  1.0280  1.9275
  880MOL0     H18761   0.375   4.250   9.634 -2.1182  0.4619  2.6307
  880MOL0     H18762   0.360   4.402   9.536 -1.9820 -1.1378 -0.8897
  880MOL0     H18763   0.461   4.399   9.672 -1.1722  2.2389  0.3941
  880MOL0     H18764   0.061   4.267   9.214 -0.4149 -1.0996 -1.3421
  880MOL0     H18765  -0.089   4.189   9.027  0.8137  0.8800  1.6464
  880MOL0     H18766  -0.544   4.258   9.017 -1.2346  0.5858 -1.7609
  880MOL0     H18767  -0.450   4.393   8.967 -2.2713  0.1852  0.8232
  880MOL0     H18768  -0.500   4.145   8.793 -3.5229 -0.1381  0.7047
  880MOL0     H18769  -0.597   4.283   8.797 -0.4556 -3.1901 -2.6557
  880MOL0     H18770  -0.292   4.264   8.721 -0.4295  0.1348  1.3513
  880MOL0     H18771  -0.364   4.415   8.764 -1.7342  0.2176  1.7062
  880MOL0     H18772  -0.486   4.251   8.540 -2.2188  0.3644 -0.9286
  880MOL0     H18773  -0.534   4.401   8.597  1.1991  0.6270  0.7157
  880MOL0     H18774  -0.374   4.349   8.407  0.8631 -2.0296  0.8723
  880MOL0     H18775  -0.240   4.352   8.525 -0.1626  1.0632  0.0750
  880MOL0     H18776  -0.429   4.604   8.478  1.2083  1.8549 -1.1408
  880MOL0     H18777  -0.298   4.590   8.584  0.3732 -0.4092  0.8803
  880MOL0     H18778  -0.311   4.604   8.281 -1.9065 -1.4245  1.5710
  880MOL0     H18779  -0.162   4.541   8.345  3.5118  4.3214 -2.5817
  880MOL0     H18780  -0.110   4.734   8.316 -0.6022 -2.5542 -1.0632
  880MOL0     H18781  -0.172   4.760   8.487  0.9425 -1.3146  0.3055
  880MOL0     H18782  -0.424   4.319   9.231 -0.7959  1.7023 -0.9129
  880MOL0     H18783  -0.296   4.394   9.421  0.1271 -1.1795  1.2848
  880MOL0     H18784  -0.108   4.438   9.702  0.1665  1.4551 -1.1744
  880MOL0     H18785  -0.065   4.489   9.933  0.9761  4.3813  0.1979
  880MOL0     H18786   0.298   5.556  11.039  1.4197 -2.9837  1.1318
  880MOL0     H18787   0.373   5.778  11.050 -3.0062 -0.3603 -1.1509
  880MOL0     H18788   0.554   6.261  11.088  1.2249  1.3802 -1.1041
  880MOL0     H18789   0.703   6.427  11.178 -1.1283 -0.3992  0.6051
  880MOL0     H18790   0.723   6.457  11.526 -0.5485 -3.3008 -0.7056
  880MOL0     H18791   0.882   6.382  11.569  1.4201  0.4631 -0.4658
  880MOL0     H18792   1.008   6.599  11.507 -0.7291  4.5593 -1.7273
  880MOL0     H18793   0.904   6.600  11.652 -3.5154 -1.8826  0.8930
  880MOL0     H18794   0.719   6.703  11.534  0.8339  0.7297  1.6770
  880MOL0     H18795   0.820   6.708  11.386  0.5922 -0.6896 -0.5407
  880MOL0     H18796   0.896   6.842  11.648  0.6679  1.0529  0.4548
  880MOL0     H18797   0.818   6.925  11.513 -1.0024 -1.3711 -1.1605
  880MOL0     H18798   1.211   6.833  11.362  0.5304  2.0596  1.2274
  880MOL0     H18799   0.853   6.156  11.478  0.2711 -0.4001  0.6413
  880MOL0     H18800   0.707   5.973  11.382 -1.1368 -0.3176  1.7308
  881MOL0     O18801   7.064   5.240  10.572 -0.3664  0.2617  1.0419
  881MOL0     C18802   7.145   5.179  10.505 -0.1590 -0.6216  0.8748
  881MOL0     O18803   7.128   5.095  10.402 -0.4853  0.9317  0.0459
  881MOL0     C18804   7.009   5.082  10.333  1.0867 -0.5673  1.4308
  881MOL0     C18805   6.899   5.178  10.326 -0.0692 -0.3018 -0.6885
  881MOL0     C18806   6.777   5.142  10.262  0.1087  0.4903 -0.9996
  881MOL0     C18807   6.756   5.007  10.213  0.3410 -0.1239 -0.1319
  881MOL0     O18808   6.641   4.957  10.169  0.4701  0.2242 -0.2765
  881MOL0     C18809   6.537   5.043  10.149 -0.0985  0.3651  0.0285
  881MOL0     C18810   6.421   4.980  10.082  0.5116  0.5358  0.1740
  881MOL0     C18811   6.359   4.860  10.165  0.7205  0.6633  0.9177
  881MOL0     C18812   6.215   4.828  10.110 -0.0404 -0.7123  0.6034
  881MOL0     C18813   6.158   4.722  10.200 -0.7266 -0.0855 -0.2617
  881MOL0     C18814   6.081   4.609  10.134 -0.3112  0.4672 -0.0577
  881MOL0     C18815   5.946   4.664  10.069 -0.5622  0.5188  0.7030
  881MOL0     C18816   5.947   4.598   9.921 -0.4384  0.5597  1.3251
  881MOL0     N18817   5.917   4.452   9.921  0.1430  0.8400 -0.1785
  881MOL0     C18818   5.848   4.380  10.023 -0.1862 -0.8021  0.5035
  881MOL0     C18819   5.889   4.255  10.023 -0.3623  0.2765 -0.6964
  881MOL0     C18820   5.866   4.140  10.121  0.2174  0.1803  0.1298
  881MOL0     C18821   5.730   4.083  10.088 -0.4283 -0.6277 -0.2603
  881MOL0     C18822   5.697   3.958  10.173 -0.9076  0.1158 -0.1356
  881MOL0     C18823   5.632   4.003  10.305 -0.3030  0.2969 -0.1648
  881MOL0     O18824   5.561   3.887  10.365 -0.3815 -0.2551  0.2685
  881MOL0     C18825   5.464   3.915  10.455 -0.0223  0.4539  0.1257
  881MOL0     C18826   5.363   3.823  10.469  0.0702 -0.9294 -0.1071
  881MOL0     C18827   5.262   3.825  10.571 -0.1385  1.4842  0.2018
  881MOL0     C18828   5.178   3.703  10.581 -1.4990 -0.2785  0.9456
  881MOL0     C18829   5.247   3.939  10.647  0.0714 -0.0189 -0.5397
  881MOL0     C18830   5.150   3.956  10.754 -1.3121 -0.3855  0.1541
  881MOL0     O18831   5.116   4.077  10.788 -0.1065  0.0835  0.0988
  881MOL0     C18832   5.058   4.121  10.908 -0.4277 -0.2276  0.8699
  881MOL0     C18833   5.014   4.246  10.919  0.3699 -0.5457  0.6928
  881MOL0     C18834   4.951   4.294  11.039 -0.0062 -0.0676  0.8066
  881MOL0     C18835   4.926   4.205  11.143 -0.3461 -0.5097  0.6418
  881MOL0     O18836   4.862   4.256  11.253  0.5029 -0.0117 -0.0963
  881MOL0     C18837   4.911   4.229  11.390  0.3382  0.8769  0.2511
  881MOL0     C18838   4.888   4.360  11.460  1.6095  0.4368  0.0093
  881MOL0     C18839   4.751   4.366  11.522 -0.0776 -0.4358 -0.6870
  881MOL0     C18840   4.694   4.509  11.558 -0.7915  0.3841  0.3029
  881MOL0     C18841   4.568   4.502  11.650 -0.4446  0.0160 -0.4627
  881MOL0     C18842   4.612   4.513  11.799 -0.7299 -0.3716 -0.9114
  881MOL0     C18843   4.477   4.540  11.882  0.0678  0.0245 -0.3554
  881MOL0     C18844   4.498   4.517  12.039  0.2988 -0.0110  0.4045
  881MOL0    Cl18845   4.342   4.534  12.118  0.1852 -0.2538 -0.4107
  881MOL0     C18846   4.965   4.078  11.138  0.3627  0.1230 -0.4914
  881MOL0     C18847   5.040   4.033  11.021 -0.4158  0.0175  0.4026
  881MOL0     O18848   5.093   3.854  10.792 -0.0947 -0.1865 -0.8429
  881MOL0     C18849   5.343   4.036  10.620  0.4997  0.1997 -0.2179
  881MOL0     C18850   5.446   4.034  10.524 -0.5059 -0.8175  0.4677
  881MOL0     N18851   5.984   4.248   9.924  0.1937  0.0017 -0.5970
  881MOL0     N18852   6.008   4.370   9.873  0.1681  0.8649 -0.1404
  881MOL0     C18853   6.860   4.913  10.221 -0.4828 -0.2293  0.9851
  881MOL0     C18854   6.986   4.951  10.271  0.0077 -0.0838 -0.2715
  881MOL0     C18855   7.286   5.234  10.526 -0.3598  0.0123  0.1426
  881MOL0     C18856   7.387   5.197  10.439 -0.5668  0.4431 -0.4389
  881MOL0     C18857   7.514   5.231  10.473 -0.0734  0.3026  0.4832
  881MOL0     C18858   7.556   5.314  10.579 -0.2716  0.8057 -0.7149
  881MOL0     O18859   7.681   5.350  10.611 -0.1861 -0.1699  0.7817
  881MOL0     C18860   7.765   5.394  10.494 -1.1440  0.8367  0.5572
  881MOL0     C18861   7.910   5.411  10.533 -0.1742 -0.6856 -0.1386
  881MOL0     C18862   7.932   5.488  10.656  0.7009 -0.6060 -0.2741
  881MOL0     C18863   7.873   5.627  10.662  0.4574 -0.0557 -0.6702
  881MOL0     C18864   7.944   5.709  10.568  0.0689  0.0344 -0.1297
  881MOL0     C18865   7.994   5.798  10.499 -0.5546 -0.6891 -1.0428
  881MOL0     C18866   7.449   5.357  10.666 -0.0753  0.1884  0.5052
  881MOL0     C18867   7.320   5.305  10.640 -0.0875 -0.9999  0.0799
  881MOL0     H18868   6.911   5.274  10.375 -3.9760 -0.4156  0.8470
  881MOL0     H18869   6.699   5.216  10.249  0.6637  0.9981 -1.4681
  881MOL0     H18870   6.507   5.081  10.248  1.6377  3.3147 -0.4391
  881MOL0     H18871   6.567   5.132  10.093 -2.8167  1.3648 -0.0126
  881MOL0     H18872   6.348   5.058  10.058  0.4766  0.0691 -1.3273
  881MOL0     H18873   6.442   4.940   9.983 -0.9960 -0.4865  0.2415
  881MOL0     H18874   6.416   4.771  10.137 -0.0997  1.5847 -4.8139
  881MOL0     H18875   6.353   4.879  10.273 -3.7147 -1.1541  1.1940
  881MOL0     H18876   6.150   4.915  10.098  1.5046  0.7423  2.2385
  881MOL0     H18877   6.225   4.783  10.011 -0.9191  0.7699 -0.1980
  881MOL0     H18878   6.223   4.682  10.278  1.3449  0.2544 -1.7185
  881MOL0     H18879   6.084   4.781  10.254  1.5081 -0.1736  3.2078
  881MOL0     H18880   6.144   4.556  10.062 -0.7065 -1.5062  0.9765
  881MOL0     H18881   6.061   4.533  10.210  0.0805 -1.6567 -1.9715
  881MOL0     H18882   5.864   4.644  10.138 -0.2499 -0.9706  0.6774
  881MOL0     H18883   5.957   4.772  10.057 -0.5816  0.2849 -2.0525
  881MOL0     H18884   6.041   4.616   9.867 -1.2577  0.2475 -0.2750
  881MOL0     H18885   5.886   4.655   9.851  1.7847  0.1712 -1.0858
  881MOL0     H18886   5.776   4.410  10.098  0.2301  1.0575  0.2040
  881MOL0     H18887   5.944   4.068  10.093  0.7715  1.0961 -0.7769
  881MOL0     H18888   5.874   4.175  10.224  1.2085 -1.3784  0.6244
  881MOL0     H18889   5.724   4.055   9.983 -1.3476  1.9853 -0.9619
  881MOL0     H18890   5.656   4.163  10.098 -1.0454 -0.7785 -2.9598
  881MOL0     H18891   5.785   3.896  10.194  1.8420  4.1602  1.6131
  881MOL0     H18892   5.625   3.901  10.114 -0.5590 -0.3884 -0.0906
  881MOL0     H18893   5.559   4.078  10.275 -0.2491 -0.5243 -2.5955
  881MOL0     H18894   5.699   4.043  10.382  2.2874  0.5028 -2.3406
  881MOL0     H18895   5.384   3.728  10.421 -0.4221 -1.3326  0.4703
  881MOL0     H18896   5.072   3.727  10.578 -1.0612  1.7271  0.4467
  881MOL0     H18897   5.196   3.638  10.495  2.0911 -0.9130  2.0014
  881MOL0     H18898   5.195   3.640  10.669  4.3207  1.3011  1.3370
  881MOL0     H18899   5.029   4.306  10.830  0.1260 -0.8649  0.4332
  881MOL0     H18900   4.891   4.383  11.020 -2.5617 -1.7890  0.1834
  881MOL0     H18901   4.863   4.144  11.439 -0.7147  1.0901 -0.3970
  881MOL0     H18902   5.019   4.212  11.375 -0.0700 -0.8744 -1.0445
  881MOL0     H18903   4.970   4.373  11.532  2.0858 -4.9713  0.9002
  881MOL0     H18904   4.899   4.439  11.386 -1.9379  0.0733 -1.0745
  881MOL0     H18905   4.752   4.306  11.614 -0.0712  1.4408  0.5862
  881MOL0     H18906   4.684   4.304  11.460 -0.0029 -0.9739 -0.2435
  881MOL0     H18907   4.771   4.564  11.613 -1.9303  2.1555  0.2150
  881MOL0     H18908   4.674   4.562  11.465 -0.4074 -1.8517 -1.1360
  881MOL0     H18909   4.504   4.416  11.626  0.9817 -0.8136 -1.4635
  881MOL0     H18910   4.503   4.585  11.622 -2.2332 -2.0900 -3.1625
  881MOL0     H18911   4.673   4.429  11.831 -1.1598 -0.2371  0.3109
  881MOL0     H18912   4.673   4.603  11.806 -0.3261 -0.5400 -2.0311
  881MOL0     H18913   4.399   4.469  11.852  0.4255 -1.9260  2.9277
  881MOL0     H18914   4.445   4.644  11.868  0.8747  0.4722  0.9051
  881MOL0     H18915   4.570   4.587  12.082 -0.2681  0.6574  0.2759
  881MOL0     H18916   4.532   4.414  12.051 -0.1606  0.0027  2.1390
  881MOL0     H18917   4.954   4.012  11.224 -2.3146  2.1180  0.8288
  881MOL0     H18918   5.082   3.932  11.020 -0.0111  0.1713 -1.8271
  881MOL0     H18919   5.342   4.134  10.667  1.8229 -1.2926  3.2013
  881MOL0     H18920   5.517   4.116  10.531  1.4048 -1.9023 -3.5488
  881MOL0     H18921   6.835   4.810  10.199  1.0683 -0.7061  1.3025
  881MOL0     H18922   7.052   4.867  10.292  1.0955  1.0533  1.0036
  881MOL0     H18923   7.365   5.125  10.361 -2.3847  0.7414 -0.2477
  881MOL0     H18924   7.594   5.177  10.422  0.8973  0.1305  2.1133
  881MOL0     H18925   7.758   5.309  10.425 -0.3381 -0.3672  1.9066
  881MOL0     H18926   7.715   5.476  10.441 -0.2459  0.2111 -1.3391
  881MOL0     H18927   7.956   5.459  10.446 -3.9507 -0.9844 -2.4721
  881MOL0     H18928   7.964   5.317  10.548  0.9629 -0.0417 -0.0750
  881MOL0     H18929   8.040   5.497  10.668  0.5024  0.6325  0.9842
  881MOL0     H18930   7.887   5.422  10.731 -1.4657 -1.0466 -1.8642
  881MOL0     H18931   7.874   5.662  10.766 -2.4865 -1.4319 -0.0712
  881MOL0     H18932   7.770   5.618  10.627  1.0376 -3.0053 -1.8936
  881MOL0     H18933   8.034   5.868  10.429  2.6035  0.2002  1.4293
  881MOL0     H18934   7.470   5.415  10.755  3.0845 -1.4777  1.0179
  881MOL0     H18935   7.243   5.324  10.715 -2.4018  0.0887 -2.4102
  882MOL0     O18936   6.190   0.910  11.147 -0.4058  0.7146 -0.0188
  882MOL0     C18937   6.297   0.883  11.094 -1.2434 -0.2443 -0.7541
  882MOL0     O18938   6.421   0.894  11.171  0.3077  0.9886  1.0032
  882MOL0     C18939   6.429   0.962  11.277  0.7226 -0.8076 -1.1948
  882MOL0     C18940   6.490   0.908  11.387  0.3943  0.6490 -0.1030
  882MOL0     C18941   6.524   0.978  11.506  1.0244  0.2747  0.5351
  882MOL0     C18942   6.476   1.113  11.512  0.0270  0.2477  0.1845
  882MOL0     O18943   6.506   1.183  11.628  0.0106 -0.4598  0.1451
  882MOL0     C18944   6.392   1.252  11.682  0.0678 -0.4399  0.3054
  882MOL0     C18945   6.433   1.349  11.800 -0.5363  0.1331 -0.8009
  882MOL0     C18946   6.476   1.270  11.925 -0.6941  0.1897  1.0048
  882MOL0     C18947   6.572   1.353  12.012 -0.3315 -0.4422  0.3993
  882MOL0     C18948   6.659   1.260  12.093  0.3017  0.0378  0.0791
  882MOL0     C18949   6.743   1.332  12.196  0.6338 -0.6052 -0.6669
  882MOL0     C18950   6.863   1.257  12.245 -0.0088 -1.1928 -0.1202
  882MOL0     C18951   6.917   1.323  12.375 -0.1151 -0.0498 -0.0231
  882MOL0     N18952   6.993   1.454  12.351 -0.0304 -0.2583  0.5534
  882MOL0     C18953   7.093   1.473  12.266  0.6573  0.8225  0.2252
  882MOL0     C18954   7.111   1.605  12.245 -0.3430  0.4280 -0.3441
  882MOL0     C18955   7.214   1.666  12.152  0.4325 -0.6353 -0.3388
  882MOL0     C18956   7.253   1.569  12.042 -0.4209 -0.2998  0.3741
  882MOL0     C18957   7.364   1.614  11.946 -0.7965 -0.0103 -0.1750
  882MOL0     C18958   7.366   1.766  11.902 -0.7852 -0.2494  0.0683
  882MOL0     O18959   7.388   1.838  12.026 -0.6097  0.6772 -0.0094
  882MOL0     C18960   7.385   1.969  12.035 -0.3887  0.9407  1.5139
  882MOL0     C18961   7.324   2.050  11.943 -0.5450 -0.3866  0.0828
  882MOL0     C18962   7.331   2.196  11.940  0.1493  1.2884  0.0760
  882MOL0     C18963   7.243   2.257  11.834  0.4114  0.2821  0.0506
  882MOL0     C18964   7.414   2.246  12.050 -0.0836  0.7177  0.0625
  882MOL0     C18965   7.410   2.392  12.073  0.2220 -0.0526 -1.0116
  882MOL0     O18966   7.514   2.435  12.145  0.6359 -1.0321  0.7283
  882MOL0     C18967   7.550   2.565  12.162 -0.8487  0.3899 -0.0109
  882MOL0     C18968   7.468   2.684  12.155  0.4145 -0.2266 -0.7668
  882MOL0     C18969   7.508   2.818  12.170 -0.6962  0.1121  0.7065
  882MOL0     C18970   7.651   2.829  12.201  1.2331 -0.1889  0.0285
  882MOL0     O18971   7.707   2.951  12.223 -0.2484 -0.7565 -0.0625
  882MOL0     C18972   7.769   2.983  12.342  0.1760 -0.6327  0.4132
  882MOL0     C18973   7.757   3.133  12.388 -0.5690  0.2670 -0.0418
  882MOL0     C18974   7.825   3.142  12.528 -0.3927 -0.5648  0.0937
  882MOL0     C18975   7.868   3.289  12.553 -1.2721  0.1412 -0.5334
  882MOL0     C18976   7.989   3.331  12.464  0.2049 -0.3514 -0.3523
  882MOL0     C18977   8.072   3.422  12.535 -1.3027 -0.3689  0.2089
  882MOL0     C18978   8.190   3.467  12.452 -1.1574 -0.9333 -0.8269
  882MOL0     C18979   8.298   3.359  12.410 -0.4093 -0.2668  0.0359
  882MOL0    Cl18980   8.437   3.434  12.327  0.0039 -0.2738 -0.0474
  882MOL0     C18981   7.732   2.716  12.210 -0.2185  0.1382  0.2201
  882MOL0     C18982   7.690   2.589  12.185 -0.8409  0.5571 -0.4116
  882MOL0     O18983   7.323   2.457  12.016  0.3534 -0.1565 -0.2169
  882MOL0     C18984   7.491   2.166  12.142 -1.6331 -0.0248  0.0268
  882MOL0     C18985   7.475   2.026  12.125  0.7120 -0.7382 -0.7721
  882MOL0     N18986   7.012   1.673  12.315 -0.5391 -0.0084  0.2174
  882MOL0     N18987   6.946   1.575  12.374  0.1574 -0.1101 -0.1838
  882MOL0     C18988   6.412   1.170  11.406  0.2531 -0.5280  0.2147
  882MOL0     C18989   6.392   1.095  11.286 -0.1184  0.0433 -0.7295
  882MOL0     C18990   6.296   0.804  10.965  0.0917  1.0450 -0.7786
  882MOL0     C18991   6.175   0.753  10.923  0.8502 -1.2020 -0.9731
  882MOL0     C18992   6.173   0.680  10.803  0.3004 -0.9580 -0.7043
  882MOL0     C18993   6.286   0.657  10.723 -0.5194  0.2907  0.1241
  882MOL0     O18994   6.287   0.551  10.632  0.2480 -0.2432 -0.1749
  882MOL0     C18995   6.338   0.588  10.502  0.3644 -0.2801 -0.7411
  882MOL0     C18996   6.243   0.549  10.394  0.5605 -0.8455 -1.0471
  882MOL0     C18997   6.096   0.606  10.418 -1.2653 -0.3785  0.6623
  882MOL0     C18998   6.009   0.588  10.292 -0.7377 -0.2686  0.3968
  882MOL0     C18999   5.962   0.450  10.265 -0.2898 -0.4746  0.2301
  882MOL0     C19000   5.929   0.334  10.254  0.3745 -0.2909 -0.8285
  882MOL0     C19001   6.405   0.716  10.774  0.8664  0.6199  0.6742
  882MOL0     C19002   6.411   0.793  10.890  0.6897 -0.3439  0.0102
  882MOL0     H19003   6.528   0.807  11.380 -0.4563  0.4773 -3.3969
  882MOL0     H19004   6.581   0.946  11.594  0.6908  1.6343  1.2692
  882MOL0     H19005   6.338   1.320  11.616 -1.6480 -0.0709  1.9967
  882MOL0     H19006   6.308   1.188  11.710  0.6089 -2.0998 -1.6393
  882MOL0     H19007   6.509   1.419  11.764  1.6226 -1.2814  0.7541
  882MOL0     H19008   6.340   1.401  11.822 -1.9263 -1.5418 -2.3817
  882MOL0     H19009   6.387   1.227  11.971 -3.4035 -1.9998 -5.1676
  882MOL0     H19010   6.522   1.180  11.882 -1.6240  0.0963  0.1689
  882MOL0     H19011   6.635   1.417  11.949  1.7589 -2.9570 -0.2340
  882MOL0     H19012   6.518   1.420  12.080 -1.7608  1.0047 -2.0332
  882MOL0     H19013   6.600   1.182  12.143 -0.3216 -0.3518 -1.1934
  882MOL0     H19014   6.726   1.202  12.028 -1.0346  0.2573 -1.5792
  882MOL0     H19015   6.782   1.428  12.159  3.5993 -1.7872 -0.9271
  882MOL0     H19016   6.681   1.366  12.279  0.7506  0.1066 -0.8641
  882MOL0     H19017   6.840   1.154  12.271  2.2800 -1.2024  2.2553
  882MOL0     H19018   6.930   1.246  12.159  0.3811  2.3676 -0.4447
  882MOL0     H19019   6.992   1.253  12.411 -1.1769 -1.4311 -0.4125
  882MOL0     H19020   6.841   1.342  12.451 -3.1782 -2.4676 -2.2621
  882MOL0     H19021   7.150   1.393  12.221 -0.9199 -0.3315  0.1988
  882MOL0     H19022   7.176   1.762  12.117  0.8021  0.3548  1.8327
  882MOL0     H19023   7.301   1.675  12.216 -0.5283  1.1712  0.7852
  882MOL0     H19024   7.169   1.554  11.974 -0.8967 -0.3333  0.9611
  882MOL0     H19025   7.280   1.472  12.084 -1.7712 -0.8952 -0.0972
  882MOL0     H19026   7.368   1.545  11.861 -1.1850 -3.2638  2.2413
  882MOL0     H19027   7.453   1.578  11.998  1.0368  0.4901 -2.7559
  882MOL0     H19028   7.271   1.793  11.855 -1.5199 -1.3764  0.8392
  882MOL0     H19029   7.448   1.782  11.832 -3.1118 -2.5625 -3.5458
  882MOL0     H19030   7.269   1.999  11.864 -1.9889 -1.3509  1.6528
  882MOL0     H19031   7.231   2.189  11.749  1.0705  1.6094 -1.1336
  882MOL0     H19032   7.143   2.273  11.875  0.0308 -2.1654  0.2263
  882MOL0     H19033   7.286   2.354  11.811 -1.7433  0.6312 -3.1173
  882MOL0     H19034   7.367   2.668  12.119  0.4861 -0.0500 -1.0515
  882MOL0     H19035   7.442   2.903  12.160 -2.0148 -1.1251 -2.2548
  882MOL0     H19036   7.720   2.931  12.425 -2.9211  1.3612 -0.0260
  882MOL0     H19037   7.877   2.964  12.338  0.0752 -1.2070  0.3934
  882MOL0     H19038   7.802   3.192  12.308 -1.4635  0.8025 -0.1711
  882MOL0     H19039   7.652   3.166  12.387 -0.4397  0.7467  1.0752
  882MOL0     H19040   7.909   3.072  12.527  0.1730  0.1112 -0.7328
  882MOL0     H19041   7.744   3.126  12.601  1.8498 -1.0326  2.6508
  882MOL0     H19042   7.787   3.362  12.545 -0.1832  1.1899 -3.4027
  882MOL0     H19043   7.901   3.291  12.658  0.0036 -2.3866 -0.8091
  882MOL0     H19044   7.968   3.393  12.376  0.9518  4.0180  2.2950
  882MOL0     H19045   8.041   3.238  12.437 -2.2490 -2.4066  1.4854
  882MOL0     H19046   8.011   3.510  12.557 -2.6768 -1.4469  0.8970
  882MOL0     H19047   8.102   3.374  12.628 -0.3244  1.1782  0.7275
  882MOL0     H19048   8.249   3.538  12.511 -0.6961 -0.3789 -1.9358
  882MOL0     H19049   8.152   3.516  12.362  0.0355 -2.1075 -2.0291
  882MOL0     H19050   8.250   3.283  12.349  0.2702 -0.3456 -0.4223
  882MOL0     H19051   8.336   3.301  12.494  1.2095 -0.4892 -0.7939
  882MOL0     H19052   7.829   2.737  12.254  0.3593  0.4115 -1.1157
  882MOL0     H19053   7.763   2.509  12.179  2.9548  3.5800  1.1502
  882MOL0     H19054   7.554   2.212  12.217 -0.1293 -0.7556 -0.7617
  882MOL0     H19055   7.530   1.948  12.178  0.2695 -0.7962 -0.3925
  882MOL0     H19056   6.372   1.270  11.402 -2.3324 -1.5133 -0.8434
  882MOL0     H19057   6.327   1.145  11.215 -1.8716  1.1640  1.5281
  882MOL0     H19058   6.076   0.751  10.966  0.1474 -2.3390 -2.5164
  882MOL0     H19059   6.087   0.619  10.780 -0.4983 -0.1021 -0.0756
  882MOL0     H19060   6.356   0.695  10.497 -0.5535  0.3325  3.9061
  882MOL0     H19061   6.436   0.544  10.482 -0.2822 -0.4410 -4.1487
  882MOL0     H19062   6.247   0.439  10.393 -0.3459 -0.9778  1.5391
  882MOL0     H19063   6.286   0.591  10.303  0.6513  2.2777  0.3071
  882MOL0     H19064   6.105   0.715  10.419  2.8079 -0.5000 -1.7602
  882MOL0     H19065   6.047   0.564  10.507 -1.1571 -0.6528  0.5942
  882MOL0     H19066   6.057   0.638  10.208 -0.3026 -0.3211  0.6137
  882MOL0     H19067   5.915   0.641  10.315 -0.2029 -0.3381  3.1593
  882MOL0     H19068   5.882   0.238  10.262 -2.0812  0.9204  0.2909
  882MOL0     H19069   6.500   0.709  10.723 -0.0702  2.8491 -1.6073
  882MOL0     H19070   6.501   0.842  10.924 -0.4319  3.1473 -1.6053
  883MOL0     O19071   5.694  10.522   2.946 -0.3607  0.0167  0.4568
  883MOL0     C19072   5.691  10.444   2.849 -0.2931 -0.0547  1.1508
  883MOL0     O19073   5.700  10.311   2.848  0.1274 -0.7718  0.1745
  883MOL0     C19074   5.709  10.249   2.972  0.0317  0.4335  0.9027
  883MOL0     C19075   5.832  10.255   3.038  0.7192  0.4266 -0.3771
  883MOL0     C19076   5.854  10.221   3.172  0.8205 -0.2574 -0.4425
  883MOL0     C19077   5.750  10.167   3.248  0.0886 -0.4209 -0.3122
  883MOL0     O19078   5.762  10.137   3.385 -0.3568  0.1276 -0.0095
  883MOL0     C19079   5.839  10.225   3.476  0.8428  0.2301 -0.2407
  883MOL0     C19080   5.924  10.151   3.567 -0.7240  0.8079  0.5562
  883MOL0     C19081   5.833  10.064   3.662 -0.0661  0.0765  0.1729
  883MOL0     C19082   5.907   9.996   3.786  1.0002 -0.0739  1.2878
  883MOL0     C19083   6.024   9.918   3.739 -0.5745  0.7687 -1.1320
  883MOL0     C19084   6.039   9.805   3.859 -0.1526 -0.7895  0.1341
  883MOL0     C19085   6.172   9.720   3.849 -0.0381  0.8879  0.5519
  883MOL0     C19086   6.194   9.650   3.979 -0.3758 -0.0904 -0.7421
  883MOL0     N19087   6.090   9.562   4.026  0.3633 -0.3920  0.5776
  883MOL0     C19088   6.086   9.419   4.021  0.2191 -0.5178 -0.3993
  883MOL0     C19089   5.978   9.390   4.086  0.8962 -0.0034 -0.8964
  883MOL0     C19090   5.915   9.262   4.082  0.1361 -0.0073  0.7046
  883MOL0     C19091   5.827   9.225   3.950 -0.5683 -0.1035  0.6207
  883MOL0     C19092   5.761   9.087   3.956 -0.5288 -0.0898  0.1902
  883MOL0     C19093   5.695   9.044   3.815  0.2031 -1.0302 -0.2242
  883MOL0     O19094   5.668   8.900   3.789 -0.6344 -0.7464  0.3975
  883MOL0     C19095   5.613   8.857   3.677 -0.1428  0.1228 -0.2093
  883MOL0     C19096   5.563   8.943   3.575 -0.6712  0.1459  0.6972
  883MOL0     C19097   5.514   8.899   3.459  0.6119  0.0755 -1.2661
  883MOL0     C19098   5.460   8.989   3.356  0.5169 -0.0134 -0.1028
  883MOL0     C19099   5.514   8.757   3.434 -0.5605 -0.7783  1.0070
  883MOL0     C19100   5.446   8.697   3.316  0.1702 -0.2513  0.1626
  883MOL0     O19101   5.513   8.655   3.205 -0.1782 -0.3896  0.2232
  883MOL0     C19102   5.442   8.630   3.084 -0.5063 -0.2510  0.0899
  883MOL0     C19103   5.478   8.525   3.000  0.0777 -0.2908 -0.8265
  883MOL0     C19104   5.401   8.489   2.888 -0.7960  0.7363 -0.0021
  883MOL0     C19105   5.289   8.569   2.846  0.1369  0.6041  0.0374
  883MOL0     O19106   5.210   8.554   2.731 -0.4119 -0.4767  0.0536
  883MOL0     C19107   5.215   8.433   2.650  0.4241 -0.4155  0.0588
  883MOL0     C19108   5.106   8.457   2.543  0.1862 -0.1685  0.7525
  883MOL0     C19109   5.096   8.336   2.442 -0.2386 -0.1177 -0.3912
  883MOL0     C19110   4.983   8.340   2.345 -0.4034  0.0021  0.0331
  883MOL0     C19111   4.930   8.197   2.324  0.4709  0.6753  0.0990
  883MOL0     C19112   4.827   8.165   2.199 -0.7684  0.0517 -1.2918
  883MOL0     C19113   4.789   8.014   2.203 -0.0383 -0.2802  0.6165
  883MOL0     C19114   4.713   7.983   2.072 -0.3096 -0.3038 -0.2037
  883MOL0    Cl19115   4.838   7.926   1.962 -0.2681  0.0638 -0.2930
  883MOL0     C19116   5.255   8.682   2.922  0.4780  0.2837  0.0699
  883MOL0     C19117   5.335   8.703   3.040  1.1243  0.3802 -0.8597
  883MOL0     O19118   5.322   8.713   3.327  0.0481 -0.1607  0.1692
  883MOL0     C19119   5.561   8.669   3.533  0.1306  0.3403 -0.3282
  883MOL0     C19120   5.618   8.720   3.651 -0.0556  0.2762 -0.5245
  883MOL0     N19121   5.923   9.504   4.134  0.1443 -0.2537 -0.3673
  883MOL0     N19122   5.979   9.611   4.088 -0.2676 -0.1093 -0.5073
  883MOL0     C19123   5.629  10.149   3.180  0.4188 -0.5327  0.0422
  883MOL0     C19124   5.606  10.188   3.043 -0.6038 -0.3634 -0.1724
  883MOL0     C19125   5.692  10.521   2.722  0.1938 -0.1278  0.7193
  883MOL0     C19126   5.639  10.461   2.608  0.2360  0.0436  0.4234
  883MOL0     C19127   5.658  10.517   2.488 -0.3899 -0.7199 -0.3185
  883MOL0     C19128   5.726  10.642   2.479 -0.3270 -0.2973 -0.1998
  883MOL0     O19129   5.752  10.687   2.355  0.1813 -0.7990 -1.2240
  883MOL0     C19130   5.864  10.787   2.331 -1.6517 -0.1172  0.0008
  883MOL0     C19131   5.810  10.927   2.304 -0.0269  1.5795 -0.4701
  883MOL0     C19132   5.734  10.938   2.179  0.0901  0.0348 -0.0876
  883MOL0     C19133   5.669  11.071   2.142  0.4516 -0.3088 -0.7942
  883MOL0     C19134   5.772  11.172   2.123  0.0762  0.9258  1.0743
  883MOL0     C19135   5.862  11.254   2.080  0.5526  0.3916  0.1401
  883MOL0     C19136   5.773  10.707   2.600 -0.2243  0.4251  0.6190
  883MOL0     C19137   5.756  10.640   2.720 -0.6888 -0.7739  0.2667
  883MOL0     H19138   5.922  10.294   2.992  2.0215  0.3274  1.9380
  883MOL0     H19139   5.959  10.217   3.199  1.5494  0.6877 -2.8459
  883MOL0     H19140   5.897  10.292   3.411  2.8187 -1.2214 -0.0678
  883MOL0     H19141   5.770  10.292   3.529 -1.4419 -0.4971 -2.1122
  883MOL0     H19142   5.985  10.082   3.509  0.4466  0.4818  2.1267
  883MOL0     H19143   5.995  10.217   3.618 -1.4454  1.9933  0.0717
  883MOL0     H19144   5.750  10.126   3.696 -0.2257 -1.6786  3.4136
  883MOL0     H19145   5.777   9.991   3.602  0.8022  0.1209 -0.7097
  883MOL0     H19146   5.943  10.076   3.851 -0.9739  0.4753  1.7703
  883MOL0     H19147   5.838   9.930   3.839  0.3556 -0.3825  0.1093
  883MOL0     H19148   6.013   9.862   3.645 -1.7354 -3.1025  1.1127
  883MOL0     H19149   6.116   9.973   3.718 -0.7515  0.5219 -2.7182
  883MOL0     H19150   6.030   9.850   3.958  2.2912  0.1230 -0.0087
  883MOL0     H19151   5.952   9.741   3.839 -2.3586  2.0840 -0.1169
  883MOL0     H19152   6.154   9.650   3.767 -1.7622 -0.3931  1.9627
  883MOL0     H19153   6.257   9.786   3.826  0.4093 -0.6094 -2.6576
  883MOL0     H19154   6.207   9.726   4.056 -1.4253  0.0968 -0.7326
  883MOL0     H19155   6.285   9.590   3.982  2.0350  3.2711 -1.0659
  883MOL0     H19156   6.158   9.353   3.975  2.3561 -0.2461  2.2743
  883MOL0     H19157   5.993   9.188   4.098 -0.5351 -0.6940  0.8902
  883MOL0     H19158   5.849   9.249   4.168 -0.5411 -4.0257 -0.2196
  883MOL0     H19159   5.882   9.226   3.855  0.0149 -0.1877  0.9571
  883MOL0     H19160   5.753   9.305   3.946  0.8219  1.1753 -0.9963
  883MOL0     H19161   5.678   9.091   4.028 -0.9433  5.0460 -0.2654
  883MOL0     H19162   5.835   9.009   3.979 -1.5977 -1.6680 -1.4487
  883MOL0     H19163   5.769   9.072   3.740 -1.4053  1.7429 -0.9280
  883MOL0     H19164   5.602   9.102   3.807  0.0851 -0.8703  1.6553
  883MOL0     H19165   5.548   9.051   3.577 -0.9442  0.3378 -3.3370
  883MOL0     H19166   5.479   9.090   3.394 -0.9079 -0.5065  2.1292
  883MOL0     H19167   5.508   8.991   3.257  1.0012  0.9552  0.1390
  883MOL0     H19168   5.352   8.979   3.344  0.5223  0.9891 -1.0772
  883MOL0     H19169   5.570   8.478   3.033  0.4331  1.5429  0.9524
  883MOL0     H19170   5.430   8.414   2.816 -0.2356 -1.4913  2.3816
  883MOL0     H19171   5.315   8.419   2.608  0.2513  0.8449 -0.8661
  883MOL0     H19172   5.196   8.343   2.708  0.8837  0.6572  1.9372
  883MOL0     H19173   5.004   8.468   2.582 -0.0241 -0.8786  0.4312
  883MOL0     H19174   5.138   8.548   2.492 -3.1959  1.1861  0.7878
  883MOL0     H19175   5.075   8.250   2.506  0.3194 -0.7203 -0.9985
  883MOL0     H19176   5.194   8.317   2.395 -1.2902  1.6807 -3.6409
  883MOL0     H19177   4.904   8.409   2.375 -0.3781 -0.0448  0.2067
  883MOL0     H19178   5.032   8.370   2.251 -3.0203 -2.8733 -2.4683
  883MOL0     H19179   4.879   8.163   2.414  0.7039 -0.6535 -0.2498
  883MOL0     H19180   5.016   8.131   2.312  1.1561  1.9231 -2.8185
  883MOL0     H19181   4.751   8.241   2.220 -0.5815 -0.2286  0.6003
  883MOL0     H19182   4.889   8.189   2.113 -3.9608  2.3057 -3.1597
  883MOL0     H19183   4.738   7.990   2.297 -3.7514  2.6457 -0.3952
  883MOL0     H19184   4.886   7.965   2.199 -0.3575 -1.0396  1.7819
  883MOL0     H19185   4.677   8.080   2.037 -1.6336  0.1018  2.0977
  883MOL0     H19186   4.624   7.920   2.072  0.1109 -1.2979  4.8532
  883MOL0     H19187   5.177   8.747   2.885  3.2266  3.8288 -0.0753
  883MOL0     H19188   5.303   8.786   3.102  1.1977  1.7985 -2.6485
  883MOL0     H19189   5.542   8.567   3.503  0.3305  1.2765 -4.1686
  883MOL0     H19190   5.661   8.661   3.730  1.4337  1.8609 -0.0899
  883MOL0     H19191   5.536  10.120   3.228 -0.2837  0.4636 -0.6749
  883MOL0     H19192   5.505  10.183   3.004 -1.1064  3.4149  0.2427
  883MOL0     H19193   5.606  10.358   2.614 -0.3922  0.3091  3.2237
  883MOL0     H19194   5.612  10.460   2.408  1.4858 -2.2102 -0.4203
  883MOL0     H19195   5.921  10.798   2.423 -1.8960  3.9318 -0.1913
  883MOL0     H19196   5.935  10.762   2.252  0.4072 -0.9141  2.0034
  883MOL0     H19197   5.887  11.004   2.308  1.4967  0.2991 -2.6422
  883MOL0     H19198   5.741  10.952   2.386 -0.5437  0.2100 -0.4575
  883MOL0     H19199   5.652  10.865   2.178  0.9057 -0.9327  0.7879
  883MOL0     H19200   5.814  10.921   2.107  1.2091 -1.6147  1.4327
  883MOL0     H19201   5.604  11.106   2.222  2.0911  0.5367  0.2331
  883MOL0     H19202   5.606  11.066   2.053 -1.6438  1.3510  0.5161
  883MOL0     H19203   5.921  11.336   2.045  0.4970  1.6468  2.7582
  883MOL0     H19204   5.817  10.806   2.605  0.4297  0.2344 -0.8318
  883MOL0     H19205   5.780  10.685   2.815 -2.4818  0.6606  0.0845
  884MOL0     O19206   0.767   8.982   4.293  0.7482 -0.4828 -0.1238
  884MOL0     C19207   0.738   8.985   4.412 -1.2476 -0.2432  1.1169
  884MOL0     O19208   0.611   8.969   4.467  0.3071 -1.2360 -0.1639
  884MOL0     C19209   0.499   8.973   4.383 -0.8183  0.5697 -0.0163
  884MOL0     C19210   0.415   8.862   4.411 -0.9002  0.9990  0.8927
  884MOL0     C19211   0.302   8.835   4.329 -0.9178 -1.2436 -0.0749
  884MOL0     C19212   0.266   8.926   4.223 -0.8923 -0.9202 -0.0538
  884MOL0     O19213   0.148   8.929   4.161  0.1851  0.2677  1.0132
  884MOL0     C19214   0.107   8.806   4.099 -0.0265 -1.1415  0.0080
  884MOL0     C19215   0.015   8.823   3.975 -1.1161 -0.6194 -0.3443
  884MOL0     C19216  -0.068   8.692   3.936 -0.6874  0.3181  0.2609
  884MOL0     C19217  -0.166   8.724   3.823 -0.6577  1.2296 -1.4802
  884MOL0     C19218  -0.231   8.598   3.756  0.0773 -0.3372 -0.2720
  884MOL0     C19219  -0.334   8.517   3.837 -0.2049 -0.4988  0.2857
  884MOL0     C19220  -0.365   8.391   3.759 -0.4614  0.7809 -0.0012
  884MOL0     C19221  -0.444   8.298   3.843  0.5379 -0.5146  0.5308
  884MOL0     N19222  -0.497   8.186   3.771  1.0342 -0.0798 -0.1972
  884MOL0     C19223  -0.580   8.180   3.673 -0.2783  0.1919  0.2832
  884MOL0     C19224  -0.593   8.050   3.646 -0.2656 -0.2495  0.9889
  884MOL0     C19225  -0.679   7.994   3.529 -1.1690  0.3539  0.3361
  884MOL0     C19226  -0.808   7.954   3.600 -0.4638  0.1653  0.3048
  884MOL0     C19227  -0.909   7.871   3.518 -0.2116  0.1141 -0.7483
  884MOL0     C19228  -0.932   7.918   3.381  0.0452  0.5835 -0.0443
  884MOL0     O19229  -1.056   7.896   3.318  0.6654 -0.6013  0.3625
  884MOL0     C19230  -1.047   7.788   3.230 -0.6326  0.7577  0.3065
  884MOL0     C19231  -1.024   7.803   3.095  0.8026  0.2376  0.4631
  884MOL0     C19232  -1.021   7.690   3.006  0.1876  0.1285 -0.5713
  884MOL0     C19233  -0.985   7.710   2.862  0.2310 -0.5696 -0.2094
  884MOL0     C19234  -1.069   7.564   3.055  0.3264  0.2029  0.2833
  884MOL0     C19235  -1.089   7.438   2.972 -1.2851  0.7419  0.0216
  884MOL0     O19236  -1.037   7.434   2.850  0.4357 -0.4814  0.5514
  884MOL0     C19237  -1.097   7.363   2.744  0.4107 -0.2841  0.0508
  884MOL0     C19238  -1.232   7.322   2.747  0.0941  0.3020 -0.8081
  884MOL0     C19239  -1.286   7.263   2.628  0.1409 -0.8025  0.0083
  884MOL0     C19240  -1.202   7.254   2.514  1.0261 -0.1087  0.5331
  884MOL0     O19241  -1.264   7.200   2.398 -0.2130 -0.6524  0.0729
  884MOL0     C19242  -1.275   7.285   2.284  0.2831 -0.5342  0.3460
  884MOL0     C19243  -1.388   7.376   2.295  0.3515 -0.4775 -0.0707
  884MOL0     C19244  -1.525   7.297   2.311 -0.3657  0.4667 -0.0857
  884MOL0     C19245  -1.644   7.370   2.359  0.6637 -0.7006 -0.7973
  884MOL0     C19246  -1.755   7.269   2.377  0.7796 -0.3553  0.0970
  884MOL0     C19247  -1.795   7.171   2.257 -0.0633  0.0971 -0.1724
  884MOL0     C19248  -1.803   7.232   2.115  0.4717  0.7205  0.2671
  884MOL0     C19249  -1.867   7.127   2.020 -0.3710  0.5796 -0.4554
  884MOL0    Cl19250  -1.722   7.031   1.946  0.0517 -0.2625 -0.7198
  884MOL0     C19251  -1.068   7.306   2.514 -0.0316 -0.9803  0.6441
  884MOL0     C19252  -1.014   7.360   2.633  1.0744 -0.2493  0.7392
  884MOL0     O19253  -1.143   7.334   3.024  0.4626 -0.3393 -0.6015
  884MOL0     C19254  -1.104   7.547   3.193 -0.6002 -0.2267  0.7744
  884MOL0     C19255  -1.095   7.657   3.276 -1.2489 -0.1815  0.4250
  884MOL0     N19256  -0.528   7.977   3.738 -0.3537 -0.0922  0.0435
  884MOL0     N19257  -0.476   8.063   3.822  0.3435  0.9572  1.0159
  884MOL0     C19258   0.349   9.042   4.207 -0.5046 -0.1501  0.0221
  884MOL0     C19259   0.468   9.064   4.285  0.1016 -0.4870  0.6731
  884MOL0     C19260   0.851   9.001   4.513 -0.2448  0.4097  1.3760
  884MOL0     C19261   0.815   9.022   4.643  1.0422 -0.5230 -0.0101
  884MOL0     C19262   0.899   9.067   4.741  0.5905  0.6027  0.1799
  884MOL0     C19263   1.031   9.088   4.709  1.5388  0.3505  0.6138
  884MOL0     O19264   1.125   9.104   4.814  1.0329  0.5486  0.6794
  884MOL0     C19265   1.199   9.221   4.781  0.0415  0.3753  0.3289
  884MOL0     C19266   1.330   9.234   4.861 -0.1960 -0.2799 -0.3000
  884MOL0     C19267   1.312   9.261   5.013  0.2379  0.3863 -0.2762
  884MOL0     C19268   1.313   9.413   5.045 -0.0263  0.5176 -0.2126
  884MOL0     C19269   1.278   9.448   5.187  0.1568  0.7534  0.1438
  884MOL0     C19270   1.250   9.477   5.296  0.0046  0.5857  0.8361
  884MOL0     C19271   1.079   9.059   4.577  0.6742  0.0905  0.7226
  884MOL0     C19272   0.989   9.023   4.478  0.1603  0.1483  0.7469
  884MOL0     H19273   0.439   8.785   4.483  0.9895  1.7624  1.1491
  884MOL0     H19274   0.225   8.760   4.346 -0.7817 -1.2813  0.4023
  884MOL0     H19275   0.188   8.734   4.083 -1.6165 -3.1000  0.3004
  884MOL0     H19276   0.040   8.760   4.172 -0.8147  0.7576  0.5438
  884MOL0     H19277  -0.041   8.916   3.989  1.1633  0.8232 -0.3250
  884MOL0     H19278   0.088   8.860   3.902  1.4336  1.8393  3.1522
  884MOL0     H19279   0.002   8.610   3.917  2.5599  2.2702  2.6921
  884MOL0     H19280  -0.124   8.670   4.028 -0.7098  2.3322  0.7715
  884MOL0     H19281  -0.256   8.784   3.841 -0.2962  1.4184 -0.2428
  884MOL0     H19282  -0.100   8.780   3.756  1.9895  2.1958  1.6811
  884MOL0     H19283  -0.290   8.640   3.673 -0.0776  2.6419  1.2091
  884MOL0     H19284  -0.153   8.528   3.726  0.2476  0.6825 -2.4485
  884MOL0     H19285  -0.299   8.486   3.936 -2.3555 -1.3374  0.8443
  884MOL0     H19286  -0.431   8.566   3.851 -0.7324 -0.9290 -1.5939
  884MOL0     H19287  -0.431   8.422   3.677 -2.7384  3.3623  2.5863
  884MOL0     H19288  -0.274   8.345   3.721  0.1066  0.9138  1.1499
  884MOL0     H19289  -0.536   8.353   3.865 -0.5697 -2.4147  0.8595
  884MOL0     H19290  -0.407   8.279   3.944 -1.9400  0.6760  1.7510
  884MOL0     H19291  -0.616   8.262   3.611 -1.5946  0.7541  1.7243
  884MOL0     H19292  -0.698   8.072   3.455 -0.3162  1.6898  1.4740
  884MOL0     H19293  -0.623   7.913   3.482 -1.9219  1.3830 -2.5697
  884MOL0     H19294  -0.852   8.047   3.639  1.7861  1.2604  0.4158
  884MOL0     H19295  -0.786   7.889   3.685  2.0303  1.1907  0.5321
  884MOL0     H19296  -0.998   7.850   3.578 -0.8425 -1.6216 -2.1864
  884MOL0     H19297  -0.865   7.772   3.503  0.9613  0.4765  0.1190
  884MOL0     H19298  -0.842   7.891   3.324  1.0248 -2.9969  2.8057
  884MOL0     H19299  -0.911   8.025   3.387  0.4265  0.4248  2.0215
  884MOL0     H19300  -1.009   7.900   3.049 -1.2523  1.2671  1.7826
  884MOL0     H19301  -0.887   7.662   2.855  1.0495  0.7654  1.2940
  884MOL0     H19302  -1.049   7.656   2.792  0.5270 -2.9907  1.2655
  884MOL0     H19303  -0.982   7.816   2.838 -1.6360  0.0296  1.8767
  884MOL0     H19304  -1.289   7.320   2.839 -0.7697  3.5816 -1.1211
  884MOL0     H19305  -1.388   7.233   2.609 -0.3724  1.1699 -0.6232
  884MOL0     H19306  -1.185   7.347   2.273 -0.6753  0.6133 -1.4626
  884MOL0     H19307  -1.281   7.214   2.201 -0.2568 -1.6598  1.3204
  884MOL0     H19308  -1.369   7.434   2.386 -1.4075 -0.4943  0.3352
  884MOL0     H19309  -1.376   7.446   2.212  5.4792  0.6259  1.2435
  884MOL0     H19310  -1.514   7.198   2.356 -1.4741  1.1313  1.7820
  884MOL0     H19311  -1.534   7.258   2.209 -0.0243 -2.3182  0.8517
  884MOL0     H19312  -1.612   7.407   2.457 -0.2394  2.2349 -1.5213
  884MOL0     H19313  -1.669   7.455   2.295 -2.1475 -2.1461 -1.7672
  884MOL0     H19314  -1.847   7.325   2.397 -0.0682 -1.7326  0.2452
  884MOL0     H19315  -1.727   7.216   2.469 -1.2966 -0.5410  0.6943
  884MOL0     H19316  -1.725   7.088   2.251 -1.1176 -0.7100 -1.7276
  884MOL0     H19317  -1.892   7.125   2.280 -0.2148  0.1260 -0.7394
  884MOL0     H19318  -1.703   7.262   2.080  2.3500 -0.7089  3.8616
  884MOL0     H19319  -1.855   7.328   2.122 -0.3632  0.1638  4.0921
  884MOL0     H19320  -1.922   7.178   1.941  2.0745 -0.7839 -3.2041
  884MOL0     H19321  -1.942   7.067   2.073 -0.8253  2.4398  1.0895
  884MOL0     H19322  -1.013   7.303   2.420  0.5805  0.4915  0.9325
  884MOL0     H19323  -0.913   7.398   2.634  1.7820 -2.0105  0.1807
  884MOL0     H19324  -1.117   7.447   3.235 -1.2452 -1.3490 -1.8707
  884MOL0     H19325  -1.116   7.650   3.382 -2.0294  0.1391  0.2981
  884MOL0     H19326   0.307   9.121   4.146 -2.2911 -2.3258 -1.7482
  884MOL0     H19327   0.548   9.130   4.255  0.4903 -2.2206 -2.4446
  884MOL0     H19328   0.714   9.017   4.682  1.4807 -4.4988  1.0087
  884MOL0     H19329   0.857   9.068   4.841 -1.2058 -3.8750 -0.3318
  884MOL0     H19330   1.222   9.234   4.675 -1.0151 -3.0740 -0.4386
  884MOL0     H19331   1.138   9.303   4.822 -3.0150 -2.0118  0.9466
  884MOL0     H19332   1.394   9.309   4.814  0.0196 -1.4953 -2.0029
  884MOL0     H19333   1.373   9.135   4.848  1.7396  0.8013 -3.0230
  884MOL0     H19334   1.397   9.217   5.067 -2.0854 -1.1218  2.4360
  884MOL0     H19335   1.224   9.209   5.053  0.4694  0.4186  0.2888
  884MOL0     H19336   1.256   9.467   4.969 -0.5206 -2.0120 -1.7388
  884MOL0     H19337   1.416   9.450   5.040  0.6219 -1.0054  0.9441
  884MOL0     H19338   1.230   9.490   5.401  0.9552  0.6874  1.0123
  884MOL0     H19339   1.185   9.055   4.554  0.9151 -0.2124  1.8201
  884MOL0     H19340   1.029   9.007   4.378 -0.0244 -1.4663  0.9062
  885MOL0     O19341   1.489  10.098   2.621  0.2625 -0.9788  0.2795
  885MOL0     C19342   1.589  10.169   2.639  0.3080  0.0516 -0.4775
  885MOL0     O19343   1.702  10.160   2.573 -0.8583 -0.5059 -0.6980
  885MOL0     C19344   1.720  10.105   2.452 -0.0537  0.0180 -0.3227
  885MOL0     C19345   1.854  10.047   2.435  0.1117  0.0933 -0.9260
  885MOL0     C19346   1.886   9.993   2.312  0.8204  0.8699 -0.6658
  885MOL0     C19347   1.795   9.983   2.207  0.6903 -0.1616 -0.8986
  885MOL0     O19348   1.836   9.920   2.094  0.3638  0.7239 -0.5981
  885MOL0     C19349   1.784   9.957   1.966 -0.0558  0.8277 -0.1950
  885MOL0     C19350   1.812   9.840   1.874  0.0174 -0.2826 -0.4758
  885MOL0     C19351   1.778   9.854   1.722  0.0931  0.6420  0.4790
  885MOL0     C19352   1.750   9.718   1.655 -0.4375 -0.3733 -0.4930
  885MOL0     C19353   1.711   9.742   1.508  0.6727  0.3359  0.2019
  885MOL0     C19354   1.707   9.606   1.435 -1.0216  0.1996  0.4730
  885MOL0     C19355   1.717   9.620   1.288  0.8768  0.2243  0.3717
  885MOL0     C19356   1.843   9.690   1.236 -0.0539  0.0623 -0.7040
  885MOL0     N19357   1.863   9.660   1.093  0.3767  0.1739  0.1580
  885MOL0     C19358   1.815   9.717   0.979  1.3250 -0.1691  0.6394
  885MOL0     C19359   1.865   9.641   0.875 -0.5162 -0.6625 -0.1645
  885MOL0     C19360   1.848   9.665   0.729  1.4122  0.3225  0.8317
  885MOL0     C19361   1.947   9.763   0.673  0.2444  1.3280 -0.2226
  885MOL0     C19362   1.900   9.855   0.561  0.7789 -0.1768  0.2516
  885MOL0     C19363   2.009   9.962   0.528  0.5688  0.4948  0.8964
  885MOL0     O19364   1.968  10.070   0.430  0.0814  0.1859 -0.1332
  885MOL0     C19365   2.066  10.164   0.398 -0.4696  0.6437  0.4575
  885MOL0     C19366   2.024  10.272   0.323 -0.6036  1.0305 -1.1248
  885MOL0     C19367   2.113  10.365   0.282 -0.6267 -1.0126  0.6061
  885MOL0     C19368   2.045  10.483   0.225 -1.0598  0.3360 -0.5546
  885MOL0     C19369   2.255  10.345   0.299 -0.2096  0.7070  0.3876
  885MOL0     C19370   2.371  10.422   0.234  1.4083  0.6531  1.3701
  885MOL0     O19371   2.500  10.384   0.263  0.0820 -0.5225 -0.3864
  885MOL0     C19372   2.585  10.362   0.154  0.1243 -0.8314  0.1423
  885MOL0     C19373   2.725  10.338   0.180  0.6367 -0.4267  1.5700
  885MOL0     C19374   2.821  10.319   0.069 -0.0490  0.4220  0.3726
  885MOL0     C19375   2.769  10.315  -0.060 -0.3503  0.2771  0.4201
  885MOL0     O19376   2.860  10.298  -0.169 -0.7310 -0.5804  0.4791
  885MOL0     C19377   2.800  10.275  -0.302  0.6746  0.5709  0.0927
  885MOL0     C19378   2.908  10.257  -0.405 -0.3206  0.7956 -0.6404
  885MOL0     C19379   2.848  10.239  -0.538 -0.0306 -0.4124  1.5774
  885MOL0     C19380   2.830  10.381  -0.600 -0.3239  0.3997  0.2108
  885MOL0     C19381   2.746  10.363  -0.732  0.1944  0.8555  0.7428
  885MOL0     C19382   2.764  10.498  -0.809 -0.0962  0.2442 -0.1127
  885MOL0     C19383   2.685  10.500  -0.938  0.9907 -0.0378 -0.6233
  885MOL0     C19384   2.527  10.494  -0.924 -0.1035  0.3449  0.2980
  885MOL0    Cl19385   2.486  10.314  -0.949  0.1873 -0.2559 -0.4340
  885MOL0     C19386   2.633  10.326  -0.075 -0.1266 -0.5969  0.6051
  885MOL0     C19387   2.543  10.346   0.027 -0.7397  0.5610 -1.0860
  885MOL0     O19388   2.345  10.509   0.161  0.0160  0.4373 -0.4146
  885MOL0     C19389   2.294  10.243   0.375 -0.4232 -0.3945 -0.0890
  885MOL0     C19390   2.200  10.155   0.430  0.6769 -0.1898  0.1581
  885MOL0     N19391   1.948   9.546   0.926  1.3631 -0.2641  0.3950
  885MOL0     N19392   1.943   9.560   1.054 -0.7431 -0.7351 -0.2127
  885MOL0     C19393   1.668  10.046   2.229 -0.2173  0.5629  0.1637
  885MOL0     C19394   1.633  10.112   2.347  0.7155 -0.1915 -0.4913
  885MOL0     C19395   1.575  10.254   2.752 -2.0955 -1.0185  0.5293
  885MOL0     C19396   1.456  10.297   2.811  0.0957  0.1577  0.3025
  885MOL0     C19397   1.457  10.379   2.927  0.8261  0.4425 -0.1620
  885MOL0     C19398   1.568  10.429   2.991  0.2560  0.6441  0.6850
  885MOL0     O19399   1.551  10.505   3.106 -0.6984  0.3986  0.2538
  885MOL0     C19400   1.656  10.601   3.128  0.1103 -0.1928  0.5829
  885MOL0     C19401   1.606  10.667   3.253  0.4343 -0.3468 -0.7434
  885MOL0     C19402   1.699  10.773   3.307 -0.7797 -0.2842  0.5187
  885MOL0     C19403   1.746  10.869   3.194  0.5613 -0.6849  0.4550
  885MOL0     C19404   1.877  10.846   3.145  0.4800 -0.0921 -0.8822
  885MOL0     C19405   1.988  10.847   3.090 -1.2674 -0.5243 -0.1097
  885MOL0     C19406   1.694  10.381   2.937  0.6702  0.8324 -0.3980
  885MOL0     C19407   1.701  10.301   2.824 -0.2104 -0.0433 -0.2848
  885MOL0     H19408   1.933  10.058   2.509  0.3612  2.5110 -1.4956
  885MOL0     H19409   1.973   9.933   2.284  0.6408 -0.9163  2.1764
  885MOL0     H19410   1.675   9.970   1.957  0.1588  2.2052 -1.2860
  885MOL0     H19411   1.828  10.050   1.927 -1.5794  1.5950 -0.1742
  885MOL0     H19412   1.917   9.812   1.879  0.1342 -0.3774 -2.5904
  885MOL0     H19413   1.756   9.753   1.909 -0.4282 -0.4939 -1.6850
  885MOL0     H19414   1.702   9.929   1.701 -0.2234  0.1431 -0.1955
  885MOL0     H19415   1.866   9.887   1.665 -0.0456  1.8849  0.9478
  885MOL0     H19416   1.843   9.662   1.667  0.0597  0.8406  2.1625
  885MOL0     H19417   1.663   9.673   1.704 -0.7944 -0.2849 -1.0422
  885MOL0     H19418   1.609   9.779   1.502 -0.6537 -2.9725 -0.1932
  885MOL0     H19419   1.780   9.810   1.457  1.5244  0.4590  1.4624
  885MOL0     H19420   1.805   9.567   1.464 -0.3892  1.6195  0.3245
  885MOL0     H19421   1.626   9.539   1.464  0.0593 -1.0413  0.6755
  885MOL0     H19422   1.720   9.521   1.241 -1.4063 -0.1380  0.8681
  885MOL0     H19423   1.628   9.662   1.239  1.2243 -0.4765 -0.8940
  885MOL0     H19424   1.931   9.655   1.290  2.0621  3.7906 -1.4309
  885MOL0     H19425   1.852   9.798   1.249  3.0613 -0.1166 -0.7801
  885MOL0     H19426   1.745   9.800   0.977 -1.8736 -2.6874  1.0185
  885MOL0     H19427   1.863   9.567   0.683  2.4537  0.6688  0.4029
  885MOL0     H19428   1.746   9.698   0.704 -1.1663 -3.2278  5.0633
  885MOL0     H19429   2.033   9.703   0.641 -1.0794 -1.9851  1.9088
  885MOL0     H19430   1.997   9.820   0.751  5.4455  0.8517 -2.7717
  885MOL0     H19431   1.805   9.902   0.589  0.3003 -0.5428 -0.7112
  885MOL0     H19432   1.881   9.789   0.476 -2.4355 -2.0943  2.2641
  885MOL0     H19433   2.092   9.914   0.477  0.5646  2.6914 -1.3732
  885MOL0     H19434   2.020  10.022   0.620 -0.8107  2.2766 -0.0307
  885MOL0     H19435   1.921  10.302   0.314 -1.1534 -0.0600  0.9186
  885MOL0     H19436   2.092  10.520   0.133 -4.3711  2.0173 -1.7328
  885MOL0     H19437   1.944  10.462   0.190 -1.3978  1.4553 -0.3082
  885MOL0     H19438   2.045  10.565   0.298  3.1764  0.0455  0.0218
  885MOL0     H19439   2.754  10.336   0.285  2.7738 -0.7445  1.0185
  885MOL0     H19440   2.925  10.297   0.092 -0.6969 -3.1024  0.4423
  885MOL0     H19441   2.729  10.192  -0.295  2.4764 -0.9244  1.8183
  885MOL0     H19442   2.739  10.362  -0.330  0.1408  0.4883  0.9651
  885MOL0     H19443   2.982  10.337  -0.414  0.6691 -0.2282 -2.1677
  885MOL0     H19444   2.970  10.171  -0.377 -0.1963  1.7407  2.3592
  885MOL0     H19445   2.749  10.192  -0.546 -0.6845  1.1506 -3.6157
  885MOL0     H19446   2.904  10.173  -0.605 -1.7588  1.3912 -1.9724
  885MOL0     H19447   2.798  10.463  -0.536  4.5938  3.7917 -1.0455
  885MOL0     H19448   2.934  10.412  -0.618  0.5452 -2.2418  0.2137
  885MOL0     H19449   2.643  10.358  -0.696  0.0159 -0.8510  0.1007
  885MOL0     H19450   2.777  10.280  -0.796 -0.7886  0.4972  0.7221
  885MOL0     H19451   2.730  10.577  -0.742  0.0584 -1.2859  1.8695
  885MOL0     H19452   2.869  10.506  -0.838 -0.1306 -2.4019 -1.3160
  885MOL0     H19453   2.710  10.418  -1.006 -1.3599  0.5743 -2.3609
  885MOL0     H19454   2.704  10.596  -0.987 -1.3636  0.1597 -1.2958
  885MOL0     H19455   2.476  10.548  -1.005 -1.4844 -1.7014 -0.2712
  885MOL0     H19456   2.503  10.531  -0.824  1.2322  1.4397  0.2462
  885MOL0     H19457   2.585  10.333  -0.172  0.6505 -0.6905  0.2070
  885MOL0     H19458   2.439  10.345  -0.006 -1.5520  1.5129  1.2088
  885MOL0     H19459   2.397  10.241   0.411 -1.4698 -0.2116  3.2712
  885MOL0     H19460   2.236  10.076   0.494  0.9613 -0.4357 -0.2986
  885MOL0     H19461   1.602  10.054   2.143  1.5260 -0.4904 -1.3551
  885MOL0     H19462   1.534  10.156   2.356  0.3324 -0.8989 -1.1881
  885MOL0     H19463   1.369  10.247   2.769  2.1299 -2.3133 -1.2416
  885MOL0     H19464   1.365  10.401   2.981  0.3362 -1.6301 -0.0747
  885MOL0     H19465   1.751  10.549   3.144 -0.1759 -1.6707 -1.8504
  885MOL0     H19466   1.663  10.658   3.035 -1.3350 -1.2148 -0.2001
  885MOL0     H19467   1.586  10.589   3.327 -2.3556 -0.0687 -1.0721
  885MOL0     H19468   1.507  10.706   3.226  0.9608  1.5903 -0.0386
  885MOL0     H19469   1.784  10.729   3.360  0.5088  0.9200 -0.4536
  885MOL0     H19470   1.646  10.835   3.380  0.8568 -2.9228  4.2731
  885MOL0     H19471   1.734  10.973   3.226  1.4107  0.2133 -1.9609
  885MOL0     H19472   1.674  10.864   3.112  1.3594  0.5274 -0.3582
  885MOL0     H19473   2.080  10.863   3.039 -1.8478  2.5093 -0.3514
  885MOL0     H19474   1.780  10.389   3.002  1.6868  1.5837 -1.7699
  885MOL0     H19475   1.801  10.276   2.790 -0.1904 -1.7075  0.8977
  886MOL0     O19476   4.565   1.377   7.889 -0.6804  0.5254 -0.1307
  886MOL0     C19477   4.531   1.262   7.891  0.1762  0.4615 -0.0406
  886MOL0     O19478   4.411   1.217   7.879  0.3566  0.5724  0.1270
  886MOL0     C19479   4.289   1.275   7.905 -0.4257  0.5837  0.8019
  886MOL0     C19480   4.194   1.281   7.800 -0.5837  0.4757 -0.0072
  886MOL0     C19481   4.079   1.362   7.814  0.1731  0.7055  0.4491
  886MOL0     C19482   4.060   1.422   7.941 -0.0675  0.5433 -0.8136
  886MOL0     O19483   3.952   1.504   7.974  0.1182 -0.4191 -0.2950
  886MOL0     C19484   3.816   1.454   7.934  0.5064  0.4196  0.7576
  886MOL0     C19485   3.751   1.409   8.055  0.2340  0.5673 -0.2479
  886MOL0     C19486   3.642   1.309   8.020 -0.2457  1.2147 -0.1218
  886MOL0     C19487   3.523   1.371   7.940 -0.0897 -0.5570 -0.0536
  886MOL0     C19488   3.527   1.373   7.786 -0.4053 -0.0678 -0.5847
  886MOL0     C19489   3.436   1.468   7.726  0.4587 -0.2772  0.5050
  886MOL0     C19490   3.429   1.465   7.580  0.7983  0.0146 -0.2433
  886MOL0     C19491   3.346   1.585   7.525  0.0386 -0.0343  0.2444
  886MOL0     N19492   3.380   1.602   7.388  1.0526 -0.4352 -0.0656
  886MOL0     C19493   3.279   1.591   7.290  0.4162 -1.1653  0.7861
  886MOL0     C19494   3.346   1.631   7.179 -1.1152  1.1186  0.3919
  886MOL0     C19495   3.316   1.607   7.039 -0.0317 -0.3022  0.7384
  886MOL0     C19496   3.339   1.717   6.938  0.7265  0.1567 -0.4632
  886MOL0     C19497   3.352   1.658   6.796 -0.7240  0.8008 -0.0551
  886MOL0     C19498   3.397   1.769   6.709 -0.5984 -0.7328  0.0413
  886MOL0     O19499   3.383   1.741   6.570 -0.1098 -0.2437 -0.5522
  886MOL0     C19500   3.345   1.850   6.496  0.3407  0.6154  1.2476
  886MOL0     C19501   3.224   1.841   6.424  0.0341  0.1308 -0.9240
  886MOL0     C19502   3.178   1.947   6.346  1.1083  0.1976 -0.0996
  886MOL0     C19503   3.039   1.940   6.281  0.3293 -0.0571 -0.4581
  886MOL0     C19504   3.253   2.062   6.329  0.1049 -0.1028 -0.2418
  886MOL0     C19505   3.204   2.189   6.274 -0.0579 -0.5273  0.4543
  886MOL0     O19506   3.096   2.248   6.347 -0.3185  0.4303 -0.8875
  886MOL0     C19507   3.039   2.361   6.309  0.3016  0.0470 -0.3356
  886MOL0     C19508   3.092   2.480   6.256  0.5758  0.3201  0.3649
  886MOL0     C19509   3.010   2.590   6.226 -0.2080  0.5411 -0.5777
  886MOL0     C19510   2.873   2.580   6.240  0.8812  0.1951 -0.1459
  886MOL0     O19511   2.778   2.675   6.219 -0.2668  0.2950  0.3430
  886MOL0     C19512   2.817   2.793   6.136  0.0128 -0.8607 -0.9010
  886MOL0     C19513   2.838   2.761   5.989  0.2344  0.6178  0.0918
  886MOL0     C19514   2.899   2.879   5.908  0.5633 -0.6399  0.8482
  886MOL0     C19515   2.894   2.864   5.749  1.3125  0.6150 -0.5605
  886MOL0     C19516   2.943   2.985   5.676 -0.2110 -0.0558 -0.4600
  886MOL0     C19517   2.876   3.007   5.537 -0.7765 -1.1612 -0.4643
  886MOL0     C19518   2.965   3.079   5.434 -1.1148 -0.4199  0.1540
  886MOL0     C19519   2.905   3.116   5.303 -0.4233 -0.4649 -0.0547
  886MOL0    Cl19520   2.780   3.239   5.332  0.4339 -0.4613  0.2134
  886MOL0     C19521   2.819   2.468   6.299 -0.2756  0.6436  1.4927
  886MOL0     C19522   2.899   2.358   6.334 -0.6169  1.3405  1.2073
  886MOL0     O19523   3.264   2.233   6.178 -0.3052  0.3119  0.1077
  886MOL0     C19524   3.375   2.070   6.391 -0.3939 -0.1657  0.7113
  886MOL0     C19525   3.422   1.971   6.470  0.2514  0.6126 -0.2869
  886MOL0     N19526   3.470   1.675   7.221 -0.1072  0.4214 -0.1701
  886MOL0     N19527   3.496   1.661   7.346 -0.4455  0.6043 -0.5827
  886MOL0     C19528   4.142   1.387   8.052  0.5206 -0.3800  0.3412
  886MOL0     C19529   4.268   1.333   8.026 -0.4878 -0.1892  0.4702
  886MOL0     C19530   4.633   1.161   7.863 -1.1086 -0.2562  1.1869
  886MOL0     C19531   4.607   1.041   7.790  0.1193 -0.4590  0.3132
  886MOL0     C19532   4.715   0.954   7.763  0.3338  0.4813  0.0727
  886MOL0     C19533   4.847   0.983   7.792 -0.7191  0.7218  0.5543
  886MOL0     O19534   4.950   0.902   7.734  0.7265  0.3289 -0.1655
  886MOL0     C19535   4.997   0.796   7.823 -0.8544 -0.4119  0.3176
  886MOL0     C19536   5.124   0.728   7.778 -0.3454 -0.7081  0.0867
  886MOL0     C19537   5.243   0.824   7.759  0.2049  0.4573 -0.9485
  886MOL0     C19538   5.272   0.907   7.883 -0.1543  0.8265  0.7493
  886MOL0     C19539   5.311   0.836   8.003  0.3714  0.1000 -0.0641
  886MOL0     C19540   5.320   0.786   8.117  0.8507  0.2657 -0.5609
  886MOL0     C19541   4.878   1.099   7.865  0.1738  0.2754 -0.0513
  886MOL0     C19542   4.774   1.182   7.895  0.3491  0.4704  0.3274
  886MOL0     H19543   4.225   1.243   7.703 -3.2231  1.7235 -1.4588
  886MOL0     H19544   4.016   1.372   7.726  2.0684 -0.2797 -1.0849
  886MOL0     H19545   3.752   1.534   7.896 -2.2405 -1.7292  0.5611
  886MOL0     H19546   3.835   1.370   7.866  5.0358  0.2935  1.8291
  886MOL0     H19547   3.830   1.374   8.123 -0.1269  2.2561  1.1258
  886MOL0     H19548   3.700   1.490   8.107  0.6856 -0.3767  1.7819
  886MOL0     H19549   3.697   1.225   7.976 -0.8108  1.6753 -1.7941
  886MOL0     H19550   3.603   1.274   8.116  0.9866 -3.3315 -1.0255
  886MOL0     H19551   3.431   1.317   7.964 -0.8711  0.6334 -0.2787
  886MOL0     H19552   3.518   1.472   7.983  1.6367 -0.6454  0.4269
  886MOL0     H19553   3.624   1.398   7.743  0.3010  0.9727  1.4987
  886MOL0     H19554   3.487   1.273   7.764 -1.7440  0.9747 -3.2798
  886MOL0     H19555   3.340   1.444   7.772  0.3953 -2.9851 -0.8330
  886MOL0     H19556   3.458   1.572   7.753 -1.8466  1.7925 -4.3393
  886MOL0     H19557   3.533   1.460   7.547  1.1649 -1.3385  1.0123
  886MOL0     H19558   3.371   1.373   7.581 -1.5469  1.4010  0.3229
  886MOL0     H19559   3.371   1.684   7.564 -0.9982  0.3521 -0.0391
  886MOL0     H19560   3.243   1.567   7.557  1.6774 -2.9444  4.7902
  886MOL0     H19561   3.175   1.562   7.298 -0.2524  0.0209 -2.2931
  886MOL0     H19562   3.376   1.518   7.018 -1.0732 -1.3022  1.8689
  886MOL0     H19563   3.208   1.591   7.036 -0.1209  0.0272 -3.2788
  886MOL0     H19564   3.430   1.771   6.968  1.2097  0.9922 -3.2004
  886MOL0     H19565   3.253   1.783   6.944 -0.2858 -1.0756 -0.8458
  886MOL0     H19566   3.260   1.627   6.745 -1.6271  0.3701  1.7630
  886MOL0     H19567   3.423   1.574   6.798 -2.1409 -0.4463  2.0910
  886MOL0     H19568   3.500   1.796   6.731 -0.6937  0.0413 -0.4415
  886MOL0     H19569   3.340   1.860   6.731 -1.1678 -1.1018  0.1156
  886MOL0     H19570   3.150   1.765   6.447 -0.5114  1.2001  0.9667
  886MOL0     H19571   3.006   1.839   6.255  3.0187 -1.5694  1.5946
  886MOL0     H19572   2.965   1.979   6.352 -0.4689 -4.2831  1.3220
  886MOL0     H19573   3.037   1.997   6.187  0.1144 -1.6398 -1.4473
  886MOL0     H19574   3.199   2.491   6.242  0.6216  0.7020  0.9639
  886MOL0     H19575   3.062   2.681   6.196 -1.1626  0.3963 -2.8996
  886MOL0     H19576   2.736   2.867   6.142  1.6669  1.0953 -1.3091
  886MOL0     H19577   2.906   2.843   6.177 -0.6102  1.1702 -1.8708
  886MOL0     H19578   2.908   2.677   5.993  1.4412  1.6394  2.2454
  886MOL0     H19579   2.749   2.722   5.938 -1.6907  3.6339  0.8331
  886MOL0     H19580   2.998   2.869   5.955  1.2303  0.8879 -0.1477
  886MOL0     H19581   2.849   2.974   5.929  1.0140  0.2812 -1.9463
  886MOL0     H19582   2.953   2.776   5.721  2.7716 -0.0001  3.7619
  886MOL0     H19583   2.792   2.847   5.713  1.8536 -2.1832 -0.9852
  886MOL0     H19584   3.052   2.986   5.661 -0.5356  1.7203 -3.6222
  886MOL0     H19585   2.908   3.070   5.734  0.4890 -0.5088  0.6470
  886MOL0     H19586   2.859   2.911   5.488 -2.7592 -1.2440  0.3138
  886MOL0     H19587   2.775   3.047   5.546 -1.4337 -2.4836 -1.6852
  886MOL0     H19588   3.056   3.019   5.425  0.0099  0.9545  1.7325
  886MOL0     H19589   3.006   3.172   5.474  2.2905 -0.1469 -3.3260
  886MOL0     H19590   2.853   3.036   5.248  0.3304 -0.0442 -1.4245
  886MOL0     H19591   2.974   3.148   5.224 -0.7680 -1.9592 -0.9997
  886MOL0     H19592   2.711   2.458   6.307 -0.3512 -1.3844 -0.8079
  886MOL0     H19593   2.863   2.268   6.383  0.5808  0.1429 -0.0282
  886MOL0     H19594   3.433   2.162   6.385 -0.3462 -0.0234  2.7243
  886MOL0     H19595   3.523   1.976   6.509 -0.6076  1.9334  1.9609
  886MOL0     H19596   4.121   1.439   8.146  0.8460  4.1744 -1.8223
  886MOL0     H19597   4.352   1.334   8.094  0.4325 -4.1497 -0.3495
  886MOL0     H19598   4.511   1.010   7.751 -1.9280  3.0972  2.0117
  886MOL0     H19599   4.699   0.881   7.684 -1.4018  0.0370  0.8024
  886MOL0     H19600   5.016   0.840   7.921 -1.0011 -0.0749  0.1937
  886MOL0     H19601   4.924   0.720   7.856 -0.5465 -0.4439  0.9525
  886MOL0     H19602   5.111   0.672   7.686  1.5334 -1.1291  0.0231
  886MOL0     H19603   5.162   0.666   7.860 -0.6057 -1.5392 -0.4142
  886MOL0     H19604   5.235   0.893   7.674  3.1797  0.2250 -1.5246
  886MOL0     H19605   5.328   0.761   7.732 -2.0546 -2.8620 -0.9101
  886MOL0     H19606   5.197   0.982   7.910 -1.3215  2.1653 -4.8460
  886MOL0     H19607   5.363   0.960   7.853  0.4873 -1.2447 -1.3015
  886MOL0     H19608   5.313   0.727   8.206  3.5123 -1.6954 -1.5086
  886MOL0     H19609   4.979   1.135   7.881  0.3688  2.5577 -4.6313
  886MOL0     H19610   4.793   1.282   7.934  1.6571  0.5861 -0.5684
  887MOL0     O19611   2.558   0.319   2.193 -1.0296 -0.3151 -0.0646
  887MOL0     C19612   2.509   0.212   2.228 -0.7569  0.5132  0.0774
  887MOL0     O19613   2.409   0.191   2.322 -0.0125 -0.2005  0.3964
  887MOL0     C19614   2.349   0.300   2.386 -0.2811 -0.1701  0.0714
  887MOL0     C19615   2.211   0.301   2.412 -0.2402 -0.7279  0.1998
  887MOL0     C19616   2.150   0.421   2.453  0.9262  0.8111  0.6481
  887MOL0     C19617   2.222   0.526   2.513 -0.3478  0.2102  0.0007
  887MOL0     O19618   2.158   0.608   2.591 -1.5764 -0.1039 -0.9337
  887MOL0     C19619   2.155   0.752   2.556  0.4735  0.9698  0.8901
  887MOL0     C19620   2.278   0.835   2.603 -1.6340 -0.4980  0.6103
  887MOL0     C19621   2.275   0.880   2.749  0.1411  0.0473  0.1945
  887MOL0     C19622   2.173   0.981   2.778 -0.1124  0.6603 -0.5340
  887MOL0     C19623   2.172   1.038   2.913 -0.7568  0.2101  0.1033
  887MOL0     C19624   2.084   1.164   2.902 -0.2603  0.6448  0.4938
  887MOL0     C19625   2.074   1.238   3.040  1.0214  0.4028 -0.0074
  887MOL0     C19626   2.184   1.327   3.073 -0.1092 -0.6073 -0.8911
  887MOL0     N19627   2.317   1.265   3.078  0.1672 -0.5922 -0.0097
  887MOL0     C19628   2.363   1.188   3.180 -0.3063  0.6437  0.2734
  887MOL0     C19629   2.496   1.166   3.148  0.1962  0.3570 -0.2208
  887MOL0     C19630   2.587   1.105   3.247  0.7836 -0.1969  0.7950
  887MOL0     C19631   2.617   0.957   3.226 -0.1669 -0.4759  0.4534
  887MOL0     C19632   2.669   0.922   3.074 -0.2814 -0.0378 -0.2079
  887MOL0     C19633   2.783   1.013   3.028 -0.5679  0.3233 -0.4054
  887MOL0     O19634   2.837   0.934   2.928  0.7172  1.1745 -0.3323
  887MOL0     C19635   2.796   0.940   2.799 -0.0586  0.9048 -0.4213
  887MOL0     C19636   2.848   0.828   2.733  0.1964 -0.2216  0.0231
  887MOL0     C19637   2.820   0.809   2.597  0.0977 -0.0821  0.3572
  887MOL0     C19638   2.886   0.688   2.530  0.7542 -0.4356 -0.3626
  887MOL0     C19639   2.750   0.910   2.527 -0.1587 -0.0163  0.2430
  887MOL0     C19640   2.709   0.903   2.388 -0.2277  0.1776 -0.6240
  887MOL0     O19641   2.709   0.777   2.340 -0.5359  0.4054 -0.4061
  887MOL0     C19642   2.688   0.746   2.208 -0.0228  0.6630 -0.0477
  887MOL0     C19643   2.623   0.631   2.174 -0.8642 -0.3540  0.9263
  887MOL0     C19644   2.581   0.609   2.039 -0.5769  0.1577 -1.5069
  887MOL0     C19645   2.618   0.699   1.942  1.4367 -0.0204  0.1858
  887MOL0     O19646   2.576   0.660   1.813  0.9147  0.0403  0.4385
  887MOL0     C19647   2.596   0.752   1.702 -0.8994  0.8946 -0.0442
  887MOL0     C19648   2.500   0.733   1.597 -0.7526 -0.4923  0.1421
  887MOL0     C19649   2.355   0.759   1.652 -0.0392 -0.0033 -0.5563
  887MOL0     C19650   2.253   0.731   1.540  0.1895 -0.4229  0.8466
  887MOL0     C19651   2.114   0.717   1.590  1.2763 -0.1020  0.1902
  887MOL0     C19652   2.008   0.675   1.483 -0.3649  0.2617 -0.8004
  887MOL0     C19653   2.023   0.529   1.449  1.0873 -0.2230  0.5218
  887MOL0     C19654   1.933   0.453   1.359  0.3584  0.1078 -0.8543
  887MOL0    Cl19655   1.768   0.433   1.431  0.0876 -0.1901  0.2739
  887MOL0     C19656   2.701   0.810   1.974  0.0821  0.1407  0.4016
  887MOL0     C19657   2.744   0.821   2.101 -0.9515 -0.3685 -0.7789
  887MOL0     O19658   2.691   1.013   2.324  0.8604  0.5575 -0.4404
  887MOL0     C19659   2.696   1.026   2.599 -0.5806  0.6285  0.1728
  887MOL0     C19660   2.721   1.036   2.734 -0.2913  0.0813 -0.6674
  887MOL0     N19661   2.528   1.231   3.031 -0.6723 -0.4274 -0.1908
  887MOL0     N19662   2.419   1.294   3.000 -0.0601 -0.8059  0.8001
  887MOL0     C19663   2.364   0.510   2.511  0.9179  0.3992 -0.2032
  887MOL0     C19664   2.424   0.404   2.443  0.4006 -0.0453  0.6057
  887MOL0     C19665   2.549   0.082   2.163  1.0790 -0.3173 -0.3330
  887MOL0     C19666   2.491  -0.045   2.193  0.2342 -0.0250 -0.4184
  887MOL0     C19667   2.534  -0.159   2.119 -0.6119  0.7083 -0.3467
  887MOL0     C19668   2.625  -0.147   2.014 -0.9332  0.5287 -0.3641
  887MOL0     O19669   2.651  -0.259   1.942  0.3690  1.1613 -0.5299
  887MOL0     C19670   2.712  -0.243   1.813 -0.4804  0.5221 -0.1240
  887MOL0     C19671   2.856  -0.282   1.822  0.1727  0.8780 -0.1334
  887MOL0     C19672   2.892  -0.389   1.718  0.3033  0.7209  0.3879
  887MOL0     C19673   2.857  -0.358   1.571  0.3419 -0.1576  1.0483
  887MOL0     C19674   2.934  -0.414   1.461  0.0109 -0.2111  0.4442
  887MOL0     C19675   3.003  -0.451   1.367 -0.1132  0.7592  0.8287
  887MOL0     C19676   2.689  -0.025   1.998 -1.2942  0.8977 -0.1494
  887MOL0     C19677   2.641   0.086   2.061  0.7652 -0.1653 -0.2482
  887MOL0     H19678   2.146   0.218   2.385 -1.4534  0.1292  0.4071
  887MOL0     H19679   2.042   0.418   2.463  0.8532  0.6629 -0.0718
  887MOL0     H19680   2.162   0.756   2.447  0.8091 -2.4061  0.6787
  887MOL0     H19681   2.058   0.788   2.592  0.4361  1.9235 -0.1084
  887MOL0     H19682   2.368   0.774   2.586 -1.5322 -0.1590 -0.0975
  887MOL0     H19683   2.276   0.921   2.536  3.0555 -0.4156  0.2293
  887MOL0     H19684   2.243   0.787   2.798 -0.5732  1.0917  1.7812
  887MOL0     H19685   2.371   0.908   2.793  0.4309 -4.8146  3.4394
  887MOL0     H19686   2.188   1.060   2.703 -1.0899  1.7497  0.3756
  887MOL0     H19687   2.081   0.925   2.763 -0.4601  1.2218 -0.5567
  887MOL0     H19688   2.142   0.959   2.982  3.7786 -2.1488 -0.2641
  887MOL0     H19689   2.271   1.064   2.950  0.0103  0.3974 -1.9379
  887MOL0     H19690   2.137   1.227   2.830  1.5772 -2.1201 -0.7683
  887MOL0     H19691   1.984   1.140   2.865 -1.4818  0.1731  3.7908
  887MOL0     H19692   1.994   1.313   3.035  0.0342 -0.6070  0.0941
  887MOL0     H19693   2.061   1.178   3.130  0.7317  4.8052  3.2357
  887MOL0     H19694   2.149   1.353   3.173  0.6519  1.8254 -1.1883
  887MOL0     H19695   2.177   1.415   3.008  0.0447  2.1948  2.5948
  887MOL0     H19696   2.318   1.155   3.273  0.8343 -2.8160 -0.2506
  887MOL0     H19697   2.684   1.155   3.235 -0.4918  2.6059  1.5217
  887MOL0     H19698   2.541   1.132   3.342 -1.5943 -2.1566  0.3050
  887MOL0     H19699   2.525   0.902   3.248 -1.1560  1.3000  1.0196
  887MOL0     H19700   2.693   0.923   3.296 -1.8844 -1.3938  1.9578
  887MOL0     H19701   2.581   0.943   3.012 -1.2845  1.3149  1.5650
  887MOL0     H19702   2.702   0.819   3.088  0.4564  0.1393 -0.6310
  887MOL0     H19703   2.855   1.029   3.109 -2.6463  1.7279  1.2729
  887MOL0     H19704   2.745   1.110   2.994  1.9240  1.1825 -1.0080
  887MOL0     H19705   2.918   0.760   2.780  2.2795 -1.9350 -4.8330
  887MOL0     H19706   2.978   0.671   2.586  2.2332  2.9645 -1.5387
  887MOL0     H19707   2.821   0.599   2.536  0.7418 -0.4643 -0.8742
  887MOL0     H19708   2.894   0.696   2.422 -0.4588  2.6936 -0.3409
  887MOL0     H19709   2.589   0.557   2.246  1.3706 -3.1933 -0.6903
  887MOL0     H19710   2.536   0.515   2.011 -2.5850  0.2398  1.0827
  887MOL0     H19711   2.593   0.857   1.733 -0.6556  0.3263  2.1257
  887MOL0     H19712   2.697   0.725   1.670 -0.2113  0.1062  2.5109
  887MOL0     H19713   2.523   0.806   1.519 -0.4584 -1.8781 -1.1103
  887MOL0     H19714   2.502   0.630   1.560 -0.9922 -0.6673  0.6038
  887MOL0     H19715   2.342   0.861   1.691 -0.2829  0.2495 -1.2741
  887MOL0     H19716   2.346   0.684   1.731  0.9584  1.4720  1.0148
  887MOL0     H19717   2.249   0.816   1.472  1.1170 -0.8001  0.3033
  887MOL0     H19718   2.278   0.641   1.483  1.5815  1.0239 -0.9116
  887MOL0     H19719   2.081   0.817   1.619  0.0426  0.4105 -2.6175
  887MOL0     H19720   2.103   0.642   1.669 -1.6821  0.0819  0.0703
  887MOL0     H19721   1.911   0.693   1.530  0.5053  0.0818  1.1776
  887MOL0     H19722   2.019   0.735   1.392 -1.3564  0.4508 -0.8009
  887MOL0     H19723   2.017   0.477   1.545 -2.1937  0.8393  0.9951
  887MOL0     H19724   2.120   0.515   1.399  3.5432  2.0152  4.1691
  887MOL0     H19725   1.962   0.349   1.342 -2.6673 -0.5566 -2.6629
  887MOL0     H19726   1.919   0.503   1.263 -1.0224  1.3436 -0.0517
  887MOL0     H19727   2.734   0.875   1.894  0.2035 -0.3555  0.0422
  887MOL0     H19728   2.807   0.905   2.129 -0.7781 -0.2628 -1.4690
  887MOL0     H19729   2.642   1.094   2.534 -1.4008  0.8488  1.0632
  887MOL0     H19730   2.695   1.129   2.783 -0.6228 -0.1100 -0.4798
  887MOL0     H19731   2.421   0.582   2.569  4.3945 -0.4024 -2.3651
  887MOL0     H19732   2.532   0.404   2.450  0.5123  3.1494  0.3786
  887MOL0     H19733   2.406  -0.057   2.259 -0.8483  2.9582 -1.1012
  887MOL0     H19734   2.475  -0.249   2.132  0.2514  0.1882  0.0357
  887MOL0     H19735   2.645  -0.305   1.753 -3.2054  2.0464  1.1946
  887MOL0     H19736   2.714  -0.145   1.765  0.7295 -0.4838 -2.3013
  887MOL0     H19737   2.883  -0.319   1.921  1.3197 -1.3484 -1.2146
  887MOL0     H19738   2.904  -0.189   1.789 -0.3944  1.1338 -0.2535
  887MOL0     H19739   2.850  -0.487   1.745 -0.2968  0.8921  0.0978
  887MOL0     H19740   3.001  -0.401   1.723  0.1783 -0.8983 -0.0564
  887MOL0     H19741   2.875  -0.252   1.552  1.2039 -0.7926 -2.2824
  887MOL0     H19742   2.753  -0.389   1.557  0.1339 -0.1569  2.3896
  887MOL0     H19743   3.067  -0.476   1.285 -0.3450  0.5909  0.6971
  887MOL0     H19744   2.770  -0.009   1.927 -1.2574  2.4717  0.2041
  887MOL0     H19745   2.700   0.175   2.037  1.5893  0.4689  3.4724
  888MOL0     O19746   0.904   9.477   7.816  0.5757 -0.1366 -0.2379
  888MOL0     C19747   0.817   9.502   7.733  1.0411  1.1168  0.0006
  888MOL0     O19748   0.717   9.594   7.743  0.0099 -0.2917 -0.8371
  888MOL0     C19749   0.686   9.660   7.865  0.4356  1.0064  0.1753
  888MOL0     C19750   0.661   9.796   7.859  0.2398  0.3583  0.6034
  888MOL0     C19751   0.622   9.869   7.978  0.0968  0.0845  0.6470
  888MOL0     C19752   0.609   9.797   8.100  0.3234 -0.8823 -0.1644
  888MOL0     O19753   0.533   9.869   8.199  0.0118 -0.0860  0.1730
  888MOL0     C19754   0.549   9.833   8.340 -0.1889  0.4947  0.4513
  888MOL0     C19755   0.427   9.884   8.422  0.0682  1.0563 -0.3052
  888MOL0     C19756   0.306   9.790   8.387  0.5221  0.1686 -0.1696
  888MOL0     C19757   0.184   9.846   8.455  0.2062  1.3998 -0.1790
  888MOL0     C19758   0.081   9.724   8.439 -0.9899 -0.7872  0.8244
  888MOL0     C19759  -0.058   9.785   8.474  0.2930  0.0342  0.8172
  888MOL0     C19760  -0.139   9.666   8.528 -0.5684 -1.1143 -0.0924
  888MOL0     C19761  -0.292   9.713   8.539  0.0406 -0.5340 -0.0466
  888MOL0     N19762  -0.370   9.623   8.624  0.2807  0.2750 -0.8338
  888MOL0     C19763  -0.372   9.489   8.600 -0.7570  0.0096  0.1531
  888MOL0     C19764  -0.489   9.437   8.644  0.1413  0.5017 -1.2590
  888MOL0     C19765  -0.538   9.296   8.678 -0.2322 -0.5839  0.6486
  888MOL0     C19766  -0.417   9.211   8.711 -0.6199  0.3534 -0.1361
  888MOL0     C19767  -0.343   9.243   8.842  0.0803 -0.2045  0.7702
  888MOL0     C19768  -0.244   9.135   8.889  0.6823 -0.6729  0.0140
  888MOL0     O19769  -0.182   9.074   8.782  0.3585 -0.3169  0.0055
  888MOL0     C19770  -0.058   9.115   8.773  0.1147 -0.6074  0.2348
  888MOL0     C19771  -0.005   9.214   8.694 -0.3932 -0.1497 -0.3510
  888MOL0     C19772   0.138   9.257   8.684  0.5408  0.2933  0.3010
  888MOL0     C19773   0.172   9.386   8.601  0.1639  0.4024 -0.3546
  888MOL0     C19774   0.231   9.196   8.771 -0.1675  0.3350 -0.7413
  888MOL0     C19775   0.373   9.221   8.792  0.3636 -0.0623 -0.7755
  888MOL0     O19776   0.425   9.157   8.899  0.4205 -1.0055 -1.0553
  888MOL0     C19777   0.564   9.135   8.917  0.4222 -0.1163 -0.1908
  888MOL0     C19778   0.646   9.239   8.959  0.0145  0.6725  0.0508
  888MOL0     C19779   0.785   9.215   8.992 -0.0386  0.1537 -0.2532
  888MOL0     C19780   0.844   9.093   8.955  0.1787  0.2723 -0.8051
  888MOL0     O19781   0.981   9.084   8.957 -0.3409 -0.7603 -0.0130
  888MOL0     C19782   1.029   8.954   8.988 -0.4440 -0.4711  0.8824
  888MOL0     C19783   1.186   8.952   8.976  0.5603  0.1229  0.1719
  888MOL0     C19784   1.241   8.847   9.069 -0.2254  0.4706 -0.6131
  888MOL0     C19785   1.257   8.896   9.217  0.2148 -0.0577  0.0586
  888MOL0     C19786   1.307   8.790   9.313 -0.4299  0.5871  0.2812
  888MOL0     C19787   1.301   8.841   9.458 -0.4110  0.1238  0.9547
  888MOL0     C19788   1.408   8.793   9.546 -0.5086 -0.0744  0.1150
  888MOL0     C19789   1.549   8.859   9.537  0.8309 -0.1799  0.2362
  888MOL0    Cl19790   1.521   9.039   9.579 -0.3649  0.4769  0.6114
  888MOL0     C19791   0.755   8.988   8.926 -0.3026 -0.1618  0.6869
  888MOL0     C19792   0.617   9.005   8.913  0.2950 -0.0558 -0.5590
  888MOL0     O19793   0.437   9.270   8.699  0.0390  1.1407  0.4130
  888MOL0     C19794   0.177   9.084   8.840 -0.4767  0.7321 -0.1952
  888MOL0     C19795   0.043   9.048   8.836  0.7719 -0.0659  0.6808
  888MOL0     N19796  -0.552   9.542   8.697  0.1016 -0.0966  0.3421
  888MOL0     N19797  -0.493   9.651   8.680  0.1675 -0.1621 -0.6184
  888MOL0     C19798   0.633   9.653   8.105 -0.2030 -0.8572 -0.1377
  888MOL0     C19799   0.677   9.592   7.983  0.6657  1.3120 -0.6597
  888MOL0     C19800   0.827   9.436   7.604  0.1475  1.4527  0.3783
  888MOL0     C19801   0.716   9.391   7.531 -0.8625  0.2958 -0.4191
  888MOL0     C19802   0.730   9.326   7.406  0.0497 -0.4597 -0.6960
  888MOL0     C19803   0.860   9.317   7.349  0.2685 -0.2687  0.8951
  888MOL0     O19804   0.883   9.275   7.217  0.0147  0.1790 -0.0526
  888MOL0     C19805   0.776   9.228   7.135  0.1385  0.6386  0.1866
  888MOL0     C19806   0.742   9.087   7.152 -0.5216  0.6260 -0.8915
  888MOL0     C19807   0.854   9.006   7.088 -0.1884  0.3150  0.7404
  888MOL0     C19808   0.828   8.859   7.099 -0.3349 -1.0970  0.3075
  888MOL0     C19809   0.750   8.810   6.988 -0.6621  0.8740  0.5568
  888MOL0     C19810   0.683   8.758   6.901  0.6508  0.4655  0.0350
  888MOL0     C19811   0.970   9.347   7.432 -0.1105 -0.7451  0.1865
  888MOL0     C19812   0.954   9.414   7.551  0.9966 -0.3772  0.3645
  888MOL0     H19813   0.675   9.844   7.763 -0.5646 -2.0174 -0.7656
  888MOL0     H19814   0.618   9.977   7.974 -0.1316  0.1411  1.8855
  888MOL0     H19815   0.556   9.724   8.350  1.5845  0.6857  1.9099
  888MOL0     H19816   0.636   9.874   8.391  0.1789  0.8820 -0.4671
  888MOL0     H19817   0.453   9.875   8.528  0.6578  1.7058 -0.3912
  888MOL0     H19818   0.408   9.986   8.388 -1.5919 -0.2740 -3.9835
  888MOL0     H19819   0.284   9.804   8.280 -1.2106  1.1367  0.2880
  888MOL0     H19820   0.323   9.688   8.423 -4.2847  0.0484  2.6206
  888MOL0     H19821   0.216   9.862   8.558  3.3647 -1.3114 -0.5642
  888MOL0     H19822   0.143   9.935   8.407 -1.7905 -0.7625 -2.8840
  888MOL0     H19823   0.091   9.685   8.337  2.2099 -3.1907  1.9217
  888MOL0     H19824   0.113   9.642   8.504  3.2496 -1.4241 -1.6885
  888MOL0     H19825  -0.051   9.854   8.558 -1.1016  1.1484  0.0660
  888MOL0     H19826  -0.108   9.834   8.389  0.6104 -1.6551 -0.3989
  888MOL0     H19827  -0.139   9.589   8.450  0.8124  0.4799 -1.7413
  888MOL0     H19828  -0.101   9.642   8.628 -2.4520  0.2804  1.0192
  888MOL0     H19829  -0.339   9.728   8.441 -0.4538 -1.3938  0.0483
  888MOL0     H19830  -0.296   9.812   8.583 -0.9041 -0.1967 -0.8371
  888MOL0     H19831  -0.276   9.447   8.573 -1.0462 -1.0637  0.7339
  888MOL0     H19832  -0.606   9.289   8.764  0.5337 -1.6519  1.1960
  888MOL0     H19833  -0.592   9.240   8.601  0.8922 -2.1897  0.9744
  888MOL0     H19834  -0.356   9.206   8.620 -1.6448  1.8045 -0.9351
  888MOL0     H19835  -0.457   9.110   8.725 -1.4944  0.8080  0.8164
  888MOL0     H19836  -0.414   9.249   8.925  0.1220  1.9013  0.7194
  888MOL0     H19837  -0.302   9.345   8.841  1.7133 -0.8345 -0.3570
  888MOL0     H19838  -0.304   9.068   8.951 -2.0738 -0.9780 -2.7591
  888MOL0     H19839  -0.178   9.179   8.965  1.3621 -3.8101  1.3980
  888MOL0     H19840  -0.071   9.273   8.631  1.7128  3.0458  0.1792
  888MOL0     H19841   0.272   9.426   8.621 -0.3917  1.6768  0.0127
  888MOL0     H19842   0.164   9.371   8.493  0.1326 -2.6969 -0.0131
  888MOL0     H19843   0.097   9.460   8.630 -1.2395 -1.3472  0.6983
  888MOL0     H19844   0.598   9.336   8.964  1.3436  1.5666 -2.5952
  888MOL0     H19845   0.857   9.292   9.016  0.7517 -0.5685 -0.2195
  888MOL0     H19846   1.004   8.936   9.092 -3.7691 -0.4533  0.1764
  888MOL0     H19847   0.992   8.867   8.933 -1.8396  1.7301 -1.9227
  888MOL0     H19848   1.207   8.921   8.873 -0.4548  2.6231 -0.8984
  888MOL0     H19849   1.231   9.051   8.991  0.0923  0.2030  1.1272
  888MOL0     H19850   1.342   8.826   9.033  1.0979  0.1223  2.9313
  888MOL0     H19851   1.185   8.753   9.065 -0.4417  0.4216  1.9575
  888MOL0     H19852   1.325   8.982   9.220  0.1745  0.0635 -1.4518
  888MOL0     H19853   1.164   8.940   9.252  0.7577 -0.4326  2.0626
  888MOL0     H19854   1.411   8.762   9.291 -0.2710  1.3332  0.0515
  888MOL0     H19855   1.248   8.699   9.300  1.1668 -0.5827  0.8405
  888MOL0     H19856   1.290   8.950   9.454  2.6922  0.5379 -3.7083
  888MOL0     H19857   1.208   8.792   9.490  0.8604 -4.3066 -1.3345
  888MOL0     H19858   1.410   8.684   9.534 -0.6996 -0.2077  1.1705
  888MOL0     H19859   1.371   8.818   9.646 -0.7698  4.0631 -0.8523
  888MOL0     H19860   1.586   8.851   9.435  3.0775 -0.3656  1.0169
  888MOL0     H19861   1.624   8.821   9.607 -0.0351 -2.7834 -0.1474
  888MOL0     H19862   0.786   8.884   8.916 -2.7493 -0.9370  0.4189
  888MOL0     H19863   0.545   8.925   8.899  2.2628 -1.7038 -1.9045
  888MOL0     H19864   0.234   9.017   8.902 -1.5942  0.8052  0.9484
  888MOL0     H19865   0.025   8.951   8.880 -0.3455 -2.1220 -3.7934
  888MOL0     H19866   0.607   9.582   8.182 -1.5796 -0.7651 -0.4894
  888MOL0     H19867   0.699   9.486   7.980 -0.0662  1.1266  0.0301
  888MOL0     H19868   0.616   9.409   7.569 -0.6798  2.3663 -0.7656
  888MOL0     H19869   0.640   9.309   7.348  0.3747  0.1314 -1.3867
  888MOL0     H19870   0.686   9.285   7.158 -1.0565 -1.5295  1.2263
  888MOL0     H19871   0.797   9.243   7.028 -0.2922  3.1429  0.4109
  888MOL0     H19872   0.645   9.059   7.110 -1.7316  0.0138  2.1097
  888MOL0     H19873   0.740   9.058   7.257  0.6144 -0.6333 -1.1799
  888MOL0     H19874   0.951   9.024   7.135 -0.1590  1.3693  0.3019
  888MOL0     H19875   0.866   9.019   6.980 -2.3960 -3.3191 -0.1143
  888MOL0     H19876   0.784   8.851   7.199  1.2560  4.9146  1.9361
  888MOL0     H19877   0.920   8.801   7.097  1.1448  1.1277  0.2418
  888MOL0     H19878   0.614   8.720   6.828  0.9411 -4.4033  1.9292
  888MOL0     H19879   1.071   9.339   7.393 -0.8432 -1.0947 -1.7606
  888MOL0     H19880   1.038   9.458   7.603 -1.4628  2.9203  1.8846
  889MOL0     O19881   3.443   9.047   5.711 -0.0664  0.4985 -0.5745
  889MOL0     C19882   3.385   9.079   5.610  0.3743  0.8668  1.0127
  889MOL0     O19883   3.428   9.165   5.522  0.4196 -0.7551 -0.2589
  889MOL0     C19884   3.550   9.222   5.536 -0.9844 -1.2339 -0.4605
  889MOL0     C19885   3.649   9.199   5.443  1.1029  0.6743  0.0443
  889MOL0     C19886   3.776   9.257   5.451 -0.2600 -0.0695 -0.9267
  889MOL0     C19887   3.808   9.351   5.551  0.1410 -0.3565 -0.2595
  889MOL0     O19888   3.940   9.399   5.556 -0.4604  0.2265 -0.2432
  889MOL0     C19889   3.980   9.506   5.633  0.4422 -0.7180 -0.0620
  889MOL0     C19890   4.129   9.504   5.640  0.0033 -0.6018 -0.5011
  889MOL0     C19891   4.176   9.402   5.746  0.6271 -0.7786 -0.8336
  889MOL0     C19892   4.271   9.461   5.853 -0.4833  0.8566  0.4661
  889MOL0     C19893   4.215   9.538   5.968 -0.0443  0.5683  0.5356
  889MOL0     C19894   4.112   9.470   6.052  0.0429  0.0084 -0.5909
  889MOL0     C19895   4.156   9.329   6.103  0.1587  0.1012 -1.0564
  889MOL0     C19896   4.055   9.268   6.198 -0.5586 -0.5062  0.6347
  889MOL0     N19897   3.927   9.246   6.133 -0.5120  0.0045 -0.4764
  889MOL0     C19898   3.876   9.124   6.100  0.0262 -0.6484 -0.2039
  889MOL0     C19899   3.765   9.151   6.031  0.3558 -1.7372  0.3785
  889MOL0     C19900   3.662   9.060   5.967 -0.4935 -0.2982 -0.0711
  889MOL0     C19901   3.597   8.967   6.072  0.4202 -0.7602  0.0986
  889MOL0     C19902   3.481   8.881   6.011  0.2994 -0.9652 -0.0819
  889MOL0     C19903   3.404   8.804   6.112 -0.3394  0.1206 -0.0724
  889MOL0     O19904   3.502   8.739   6.199 -0.5334 -0.1292  0.4624
  889MOL0     C19905   3.448   8.672   6.296  0.0841 -1.0312 -0.0356
  889MOL0     C19906   3.420   8.545   6.272  0.4363  0.4913 -0.5470
  889MOL0     C19907   3.361   8.461   6.362  1.4538 -0.1738  0.0306
  889MOL0     C19908   3.324   8.313   6.310 -0.1875 -0.1703 -0.5402
  889MOL0     C19909   3.328   8.516   6.489  0.1350 -0.9467 -0.6061
  889MOL0     C19910   3.275   8.434   6.606 -1.0244  0.4761 -1.3806
  889MOL0     O19911   3.245   8.305   6.580  0.4506  0.4331  0.4323
  889MOL0     C19912   3.144   8.253   6.663  0.5829  0.1958 -0.1591
  889MOL0     C19913   3.153   8.122   6.702 -0.0315  0.6199 -0.9312
  889MOL0     C19914   3.046   8.069   6.777  0.4807 -0.2511  0.7672
  889MOL0     C19915   2.932   8.131   6.811  0.4472 -1.0201 -0.2730
  889MOL0     O19916   2.837   8.061   6.878 -0.0599 -0.4272  0.4858
  889MOL0     C19917   2.759   8.005   6.774 -0.3706 -0.3329 -0.1152
  889MOL0     C19918   2.640   7.923   6.835  0.0374 -0.1815 -0.4012
  889MOL0     C19919   2.590   8.007   6.961 -0.6869 -0.3569  1.3971
  889MOL0     C19920   2.462   7.944   7.008  0.5845  0.6427  0.0275
  889MOL0     C19921   2.407   7.996   7.141 -0.5854 -0.8549  0.5079
  889MOL0     C19922   2.271   7.939   7.181 -0.9026  0.1248 -0.5757
  889MOL0     C19923   2.225   8.015   7.315 -0.1132 -0.3958 -0.1876
  889MOL0     C19924   2.091   7.963   7.368  0.4586 -0.1794 -0.4277
  889MOL0    Cl19925   1.952   8.010   7.253  0.0336  0.3836 -0.0340
  889MOL0     C19926   2.919   8.269   6.780 -0.5429  0.3485  0.3756
  889MOL0     C19927   3.032   8.324   6.711 -0.7805 -0.1879  0.2998
  889MOL0     O19928   3.274   8.492   6.717 -0.6559  0.3847 -0.5666
  889MOL0     C19929   3.356   8.653   6.518  0.1344 -0.5851 -0.3471
  889MOL0     C19930   3.415   8.729   6.420 -0.8795  0.7435  0.5378
  889MOL0     N19931   3.739   9.295   6.039 -0.0931  0.3051  0.2038
  889MOL0     N19932   3.840   9.348   6.105  0.7663  0.3128 -0.6767
  889MOL0     C19933   3.707   9.374   5.642 -0.0565 -0.2115 -0.6839
  889MOL0     C19934   3.579   9.320   5.630  0.8050 -0.1300  1.0369
  889MOL0     C19935   3.257   8.997   5.579 -0.8179  0.2654  0.0426
  889MOL0     C19936   3.221   8.893   5.672 -0.2065  0.2686  0.9133
  889MOL0     C19937   3.098   8.823   5.677  0.2327 -0.2243 -0.0098
  889MOL0     C19938   3.010   8.857   5.586  0.0390  0.6448  0.1207
  889MOL0     O19939   2.890   8.791   5.592  0.8503 -0.5121 -0.5808
  889MOL0     C19940   2.846   8.698   5.686 -0.5189 -0.6739  0.5060
  889MOL0     C19941   2.715   8.628   5.649  0.6480 -0.7472 -0.1429
  889MOL0     C19942   2.651   8.517   5.741  0.1229  0.1912 -1.1916
  889MOL0     C19943   2.587   8.566   5.874 -0.1270  0.3617 -0.7254
  889MOL0     C19944   2.443   8.600   5.856  0.7552  0.7096  0.6849
  889MOL0     C19945   2.328   8.608   5.834 -0.0218  0.4841 -0.5136
  889MOL0     C19946   3.032   8.949   5.488 -1.0110 -0.0531  0.4218
  889MOL0     C19947   3.161   9.009   5.482  0.5600 -0.1081  0.0968
  889MOL0     H19948   3.643   9.134   5.356 -0.5879 -1.0181  1.3607
  889MOL0     H19949   3.863   9.220   5.399 -0.5244  0.1998 -1.5687
  889MOL0     H19950   3.940   9.599   5.592 -0.1620 -1.5502 -1.4366
  889MOL0     H19951   3.929   9.489   5.728 -2.6222 -0.2023 -1.5120
  889MOL0     H19952   4.173   9.502   5.540 -1.5902  0.7891 -1.2870
  889MOL0     H19953   4.153   9.601   5.684  0.0871 -0.4921 -0.7820
  889MOL0     H19954   4.089   9.358   5.795  1.0173 -2.7186 -1.7676
  889MOL0     H19955   4.232   9.320   5.700 -0.6954 -3.0342  1.3460
  889MOL0     H19956   4.334   9.378   5.885  0.7984  0.7862 -1.9329
  889MOL0     H19957   4.339   9.530   5.802 -1.1479  1.7276  0.7372
  889MOL0     H19958   4.303   9.565   6.028  0.5179  2.0732 -0.8757
  889MOL0     H19959   4.169   9.628   5.925  1.1063 -0.4124 -3.0331
  889MOL0     H19960   4.078   9.532   6.135 -1.2509 -0.9548 -0.3542
  889MOL0     H19961   4.024   9.463   5.987 -0.0408 -0.1916 -0.4582
  889MOL0     H19962   4.183   9.273   6.014 -1.4232  3.4274 -3.8626
  889MOL0     H19963   4.238   9.335   6.176 -0.9576 -0.1801  0.2727
  889MOL0     H19964   4.041   9.333   6.285  0.7279 -0.3314  0.7325
  889MOL0     H19965   4.086   9.169   6.233  2.7829 -0.3349 -1.3895
  889MOL0     H19966   3.922   9.027   6.116  2.7337  0.8305  1.6288
  889MOL0     H19967   3.582   9.113   5.914  0.2810 -0.4219 -1.3956
  889MOL0     H19968   3.708   8.999   5.889 -2.0441 -1.8338  0.1574
  889MOL0     H19969   3.547   9.009   6.160 -2.9471 -1.5131 -1.2784
  889MOL0     H19970   3.666   8.898   6.121  0.5148 -0.1805  0.8011
  889MOL0     H19971   3.528   8.812   5.940  1.5006 -1.1984  0.9004
  889MOL0     H19972   3.415   8.950   5.958  0.6459 -0.4132  0.2036
  889MOL0     H19973   3.351   8.722   6.063  0.8278 -0.0368 -1.1029
  889MOL0     H19974   3.339   8.862   6.178  1.0284 -0.7614  2.1805
  889MOL0     H19975   3.442   8.501   6.175  0.2375  2.0867 -1.3408
  889MOL0     H19976   3.340   8.280   6.206  0.6474 -1.4144 -0.0408
  889MOL0     H19977   3.394   8.250   6.365  0.9160  2.4785  1.2395
  889MOL0     H19978   3.219   8.298   6.338 -0.0408  1.4029  0.9490
  889MOL0     H19979   3.236   8.062   6.666  3.0051  4.7551 -1.5758
  889MOL0     H19980   3.049   7.965   6.809 -2.0796 -0.5349  0.2650
  889MOL0     H19981   2.722   8.086   6.711  0.2630  0.2353  0.2348
  889MOL0     H19982   2.814   7.939   6.706 -1.1996  0.7340 -1.8918
  889MOL0     H19983   2.552   7.924   6.770  0.8610  0.6350 -1.5464
  889MOL0     H19984   2.673   7.821   6.856 -1.8038 -0.7077  0.1358
  889MOL0     H19985   2.570   8.112   6.938  1.9777 -0.3296 -1.5111
  889MOL0     H19986   2.661   8.001   7.044  0.9449  2.5365  0.3433
  889MOL0     H19987   2.385   7.965   6.933 -0.5046 -1.5344  0.4695
  889MOL0     H19988   2.461   7.835   7.008 -1.9352  0.6136 -0.2029
  889MOL0     H19989   2.396   8.104   7.129  1.7086 -0.6111  0.1380
  889MOL0     H19990   2.479   7.975   7.221 -1.9765 -1.2719  1.6786
  889MOL0     H19991   2.214   7.964   7.091  0.6487  1.7861 -1.1637
  889MOL0     H19992   2.286   7.832   7.196 -1.3118 -0.1429 -1.9034
  889MOL0     H19993   2.212   8.120   7.287 -1.3258 -0.8199 -1.3384
  889MOL0     H19994   2.302   8.016   7.393 -1.1958  0.5951  0.8826
  889MOL0     H19995   2.075   7.990   7.473  1.4135 -3.3849  0.6589
  889MOL0     H19996   2.105   7.854   7.370  4.0308  0.1840  0.6252
  889MOL0     H19997   2.834   8.320   6.824  1.1493  0.6218  3.7445
  889MOL0     H19998   3.028   8.432   6.696 -2.2778 -0.1830  0.5055
  889MOL0     H19999   3.337   8.703   6.613  0.7498  3.0123 -1.9618
  889MOL0     H20000   3.447   8.832   6.438  2.7180  0.4678 -2.9066
  889MOL0     H20001   3.735   9.427   5.732 -0.9374  3.0218 -2.1682
  889MOL0     H20002   3.500   9.335   5.702 -0.8002 -2.1690 -0.1753
  889MOL0     H20003   3.292   8.866   5.749  0.7417 -0.6532 -0.2374
  889MOL0     H20004   3.089   8.744   5.750 -1.2145 -1.2061 -1.1900
  889MOL0     H20005   2.915   8.613   5.696 -0.4378 -0.9922 -2.0172
  889MOL0     H20006   2.849   8.755   5.780  2.7549  2.3468 -1.1704
  889MOL0     H20007   2.719   8.592   5.546  0.6078 -0.2140 -0.3348
  889MOL0     H20008   2.650   8.716   5.644  2.0309  0.4981  2.2245
  889MOL0     H20009   2.727   8.446   5.775  1.4522  2.0452 -0.1231
  889MOL0     H20010   2.576   8.458   5.688 -4.1357 -1.3241  5.3264
  889MOL0     H20011   2.649   8.641   5.923 -0.9675  0.4636  0.2093
  889MOL0     H20012   2.588   8.483   5.945  0.6586  1.6238  0.8063
  889MOL0     H20013   2.223   8.603   5.817  0.2641  0.3860 -2.4660
  889MOL0     H20014   2.964   8.967   5.406 -0.6025 -0.5526 -0.0316
  889MOL0     H20015   3.183   9.089   5.413 -0.1900  2.0704  2.2623
  890MOL0     O20016   4.172   8.546   5.146 -0.1807  0.0664  0.3227
  890MOL0     C20017   4.119   8.627   5.069 -0.8717  0.1052 -0.2192
  890MOL0     O20018   4.047   8.592   4.968 -0.0069 -0.3462  0.6935
  890MOL0     C20019   3.997   8.461   4.967  0.3336 -0.0147  0.1754
  890MOL0     C20020   4.019   8.381   4.854 -0.0047 -0.1871  0.2138
  890MOL0     C20021   3.947   8.255   4.837 -0.7250 -0.0751  0.3848
  890MOL0     C20022   3.866   8.212   4.945 -0.6376 -0.5199 -1.3395
  890MOL0     O20023   3.808   8.096   4.940  0.4420  0.3201 -0.1324
  890MOL0     C20024   3.680   8.071   5.000  0.0589  0.0571 -0.7746
  890MOL0     C20025   3.676   7.915   5.031 -0.3332 -0.2289 -0.6271
  890MOL0     C20026   3.540   7.872   5.102  0.3914  0.1577  0.4141
  890MOL0     C20027   3.458   7.777   5.018 -0.7510 -0.6229 -0.5589
  890MOL0     C20028   3.406   7.851   4.888  0.4064  0.3285  0.5155
  890MOL0     C20029   3.246   7.851   4.877 -0.1481 -0.6367 -0.6894
  890MOL0     C20030   3.209   7.891   4.729 -0.1024  0.5535 -0.4761
  890MOL0     C20031   3.051   7.902   4.729 -0.6372 -0.4005  0.0175
  890MOL0     N20032   2.969   7.775   4.732 -0.2816 -0.7382  0.3240
  890MOL0     C20033   2.838   7.776   4.755 -0.1533  0.2147 -0.0347
  890MOL0     C20034   2.797   7.643   4.744 -0.2895 -0.5424 -0.5392
  890MOL0     C20035   2.661   7.600   4.763  0.1762  0.6354  0.6484
  890MOL0     C20036   2.571   7.679   4.672 -0.0525 -1.3014 -0.0806
  890MOL0     C20037   2.614   7.670   4.524 -0.1422  1.0140  0.1864
  890MOL0     C20038   2.607   7.530   4.475 -1.2528 -0.2245  0.5171
  890MOL0     O20039   2.467   7.509   4.488  0.3727  0.3950  0.5013
  890MOL0     C20040   2.435   7.386   4.431 -0.5601 -0.7065 -0.7987
  890MOL0     C20041   2.463   7.266   4.494  0.6281  0.0214 -0.0566
  890MOL0     C20042   2.419   7.142   4.439 -1.0986 -0.3640  0.1174
  890MOL0     C20043   2.435   7.021   4.524  0.6471  0.3121  0.0809
  890MOL0     C20044   2.352   7.133   4.309 -0.3862  0.7323  0.2772
  890MOL0     C20045   2.315   7.012   4.235  0.9107  0.7042  0.3112
  890MOL0     O20046   2.332   6.889   4.295  0.8989 -0.0427 -0.0642
  890MOL0     C20047   2.302   6.780   4.207 -0.0283  0.9153  0.6011
  890MOL0     C20048   2.415   6.698   4.161 -0.7069 -0.6925 -0.2862
  890MOL0     C20049   2.386   6.582   4.084  0.3949 -0.4230  0.0283
  890MOL0     C20050   2.261   6.547   4.046 -0.5628  0.6457  0.9265
  890MOL0     O20051   2.245   6.441   3.966 -0.7014  0.0040 -0.3257
  890MOL0     C20052   2.140   6.354   4.009 -0.3990 -0.1132  0.2523
  890MOL0     C20053   2.146   6.216   3.950  0.7770  0.6115 -0.2249
  890MOL0     C20054   2.247   6.129   4.014 -0.1234  0.6334  0.5926
  890MOL0     C20055   2.258   5.988   3.959 -0.5093  0.9116  0.4324
  890MOL0     C20056   2.267   5.979   3.800 -0.2532  0.1690 -0.9884
  890MOL0     C20057   2.405   6.027   3.746  0.2325  0.2815  1.2325
  890MOL0     C20058   2.405   6.101   3.607  0.0881 -0.3780  0.8641
  890MOL0     C20059   2.363   6.249   3.614 -0.3999 -0.8147  0.3914
  890MOL0    Cl20060   2.440   6.343   3.744  0.0996 -0.2434  0.6495
  890MOL0     C20061   2.152   6.630   4.088 -0.2620  1.1205 -1.0676
  890MOL0     C20062   2.175   6.733   4.183  0.6622 -0.0898  1.1833
  890MOL0     O20063   2.250   7.030   4.130  0.5483 -1.1066 -0.5082
  890MOL0     C20064   2.328   7.259   4.249 -0.5562  0.1750 -0.0480
  890MOL0     C20065   2.370   7.378   4.310  0.5912  0.1917 -0.3321
  890MOL0     N20066   2.908   7.574   4.720 -0.6706  0.0439  0.2605
  890MOL0     N20067   3.007   7.650   4.705  0.2328  0.7886  0.6788
  890MOL0     C20068   3.855   8.291   5.070  0.1069 -0.7087 -0.2757
  890MOL0     C20069   3.914   8.419   5.074  0.2183 -0.3336  0.0215
  890MOL0     C20070   4.128   8.769   5.113 -0.1293 -0.0712 -0.9354
  890MOL0     C20071   4.096   8.881   5.031  0.3889  0.8241 -0.0198
  890MOL0     C20072   4.103   9.007   5.083 -0.3554  0.3755  0.2902
  890MOL0     C20073   4.142   9.031   5.212  0.4816  0.3416 -0.7593
  890MOL0     O20074   4.138   9.162   5.253  0.1477  0.7265  0.7901
  890MOL0     C20075   4.202   9.204   5.376  0.2506  0.6013  0.1926
  890MOL0     C20076   4.309   9.308   5.367  0.0135 -0.1627  0.7103
  890MOL0     C20077   4.428   9.265   5.284  0.1432 -0.6104  0.4588
  890MOL0     C20078   4.518   9.376   5.254 -0.1173 -0.1002  0.5605
  890MOL0     C20079   4.646   9.377   5.329 -0.3119  0.4612  0.2398
  890MOL0     C20080   4.746   9.390   5.402 -0.0998 -0.3007  0.2219
  890MOL0     C20081   4.177   8.927   5.299  0.5390 -0.3224  0.0064
  890MOL0     C20082   4.159   8.798   5.245 -0.6050 -0.4623 -1.2661
  890MOL0     H20083   4.059   8.421   4.762  1.4996 -1.5275  0.2444
  890MOL0     H20084   3.970   8.192   4.752  0.5854 -2.7735  2.6017
  890MOL0     H20085   3.656   8.122   5.093 -1.4117 -2.5853  0.4220
  890MOL0     H20086   3.599   8.103   4.935  0.4547 -0.0783 -1.3466
  890MOL0     H20087   3.690   7.856   4.940 -2.4258 -1.1936 -0.3868
  890MOL0     H20088   3.763   7.884   5.090 -0.1493  1.5228  0.0939
  890MOL0     H20089   3.552   7.814   5.193 -1.0171 -2.6475 -1.0429
  890MOL0     H20090   3.487   7.965   5.121  1.7871  0.8586  1.0122
  890MOL0     H20091   3.517   7.686   5.003  0.1194  0.3167 -3.6571
  890MOL0     H20092   3.368   7.743   5.070 -1.0295  0.9411  0.0465
  890MOL0     H20093   3.440   7.955   4.891 -0.0084  0.4421  2.0360
  890MOL0     H20094   3.466   7.802   4.810  1.8390 -1.4151  2.6054
  890MOL0     H20095   3.193   7.757   4.893 -2.6918  1.0266  1.3416
  890MOL0     H20096   3.211   7.927   4.947 -0.6643 -0.3962 -1.1946
  890MOL0     H20097   3.246   7.994   4.720 -1.5492  1.2088  0.6067
  890MOL0     H20098   3.244   7.821   4.653 -0.8075  0.8854 -1.1184
  890MOL0     H20099   3.040   7.941   4.627 -2.2665  1.1589  0.7365
  890MOL0     H20100   3.012   7.978   4.798  1.2219 -0.1623  0.8515
  890MOL0     H20101   2.794   7.865   4.797 -1.4980 -0.5660  0.2877
  890MOL0     H20102   2.653   7.491   4.761  0.3713  0.6197  0.7141
  890MOL0     H20103   2.633   7.646   4.858 -1.2394 -0.4165  0.7688
  890MOL0     H20104   2.578   7.783   4.704  0.3237 -1.1500 -0.6312
  890MOL0     H20105   2.470   7.640   4.692 -0.2659  0.2954  2.2823
  890MOL0     H20106   2.720   7.692   4.508 -0.3806  0.1671 -3.1854
  890MOL0     H20107   2.550   7.739   4.468 -2.5322  0.1731  1.6995
  890MOL0     H20108   2.661   7.456   4.534 -3.5063 -2.6419 -0.2290
  890MOL0     H20109   2.639   7.524   4.370 -2.2027 -1.0427  0.2543
  890MOL0     H20110   2.517   7.262   4.588 -1.0206 -0.2929  0.9164
  890MOL0     H20111   2.462   7.043   4.628 -2.5957 -3.3029  1.9250
  890MOL0     H20112   2.336   6.975   4.533  0.0415  0.7054 -3.2878
  890MOL0     H20113   2.510   6.945   4.498  1.3138  0.1794  2.1780
  890MOL0     H20114   2.514   6.731   4.192 -0.1266 -3.0751  0.6644
  890MOL0     H20115   2.471   6.521   4.056  0.5789 -0.5859  0.9100
  890MOL0     H20116   2.136   6.357   4.118  2.4983 -2.5508  0.5380
  890MOL0     H20117   2.041   6.382   3.969 -2.0265 -2.6306  2.1859
  890MOL0     H20118   2.047   6.175   3.969  1.5402 -1.0311  0.3818
  890MOL0     H20119   2.150   6.220   3.840  1.1172  1.9235 -0.1755
  890MOL0     H20120   2.228   6.131   4.122  0.5500 -0.8438  0.7579
  890MOL0     H20121   2.343   6.178   3.998  0.6563 -0.7459  0.8891
  890MOL0     H20122   2.352   5.948   3.997 -0.2756 -0.3416 -1.3547
  890MOL0     H20123   2.170   5.934   3.994 -1.5410  3.8136  2.8381
  890MOL0     H20124   2.180   6.027   3.755  0.9385  1.9689 -1.5112
  890MOL0     H20125   2.267   5.874   3.770  1.2190 -0.4446  0.9266
  890MOL0     H20126   2.448   6.092   3.823 -1.0142  0.8039  1.5127
  890MOL0     H20127   2.474   5.943   3.736  2.3212  1.8270  2.0298
  890MOL0     H20128   2.343   6.052   3.532 -0.3998  2.7634 -0.9627
  890MOL0     H20129   2.507   6.092   3.570 -0.8421 -3.3947 -1.2987
  890MOL0     H20130   2.255   6.255   3.631 -0.3730  2.4753  0.1409
  890MOL0     H20131   2.369   6.294   3.514 -3.2748 -0.5938  0.2261
  890MOL0     H20132   2.053   6.605   4.051 -0.5753  1.5386 -0.5200
  890MOL0     H20133   2.089   6.787   4.220 -0.2757 -1.1964  0.6718
  890MOL0     H20134   2.264   7.260   4.162 -0.3743  1.3197 -0.1799
  890MOL0     H20135   2.329   7.470   4.271 -1.7093 -0.4163  0.4765
  890MOL0     H20136   3.807   8.256   5.160  2.2072  0.8700  1.5789
  890MOL0     H20137   3.890   8.482   5.159  2.4229 -0.0031  0.4414
  890MOL0     H20138   4.050   8.845   4.939 -2.5573  0.9917  1.2766
  890MOL0     H20139   4.060   9.089   5.025 -2.6883  0.5379  2.1086
  890MOL0     H20140   4.127   9.249   5.442  1.6583  0.5154  1.9019
  890MOL0     H20141   4.245   9.123   5.434  2.9627  1.2702 -0.7567
  890MOL0     H20142   4.338   9.340   5.467  0.2787  1.3591  0.1719
  890MOL0     H20143   4.252   9.394   5.332  0.0151  0.1426  1.4393
  890MOL0     H20144   4.382   9.224   5.193  0.6169 -0.2291  0.0377
  890MOL0     H20145   4.485   9.195   5.346 -0.0667  0.3234  1.7462
  890MOL0     H20146   4.458   9.467   5.267 -0.4887 -0.6309  2.8692
  890MOL0     H20147   4.540   9.355   5.149 -2.6574  0.0690 -0.0813
  890MOL0     H20148   4.831   9.419   5.461  0.9725 -3.5294  0.4688
  890MOL0     H20149   4.202   8.927   5.405  2.5850 -3.7758 -0.3015
  890MOL0     H20150   4.211   8.724   5.305  2.7305 -0.2872 -3.6319
  891MOL0     O20151   0.910   2.033  10.557 -0.8346 -0.0270 -0.5477
  891MOL0     C20152   1.023   2.071  10.586  0.6020 -0.3506 -1.1233
  891MOL0     O20153   1.123   2.016  10.652 -0.3022  0.6153 -0.6805
  891MOL0     C20154   1.113   1.885  10.705  0.3226  0.2244 -0.3427
  891MOL0     C20155   0.993   1.832  10.746 -0.2479 -0.9304 -0.2249
  891MOL0     C20156   0.986   1.706  10.808  0.4701 -0.0302  0.5612
  891MOL0     C20157   1.109   1.641  10.832  0.3256 -0.2503 -0.4227
  891MOL0     O20158   1.105   1.515  10.894 -0.4710 -0.6041 -0.1788
  891MOL0     C20159   1.209   1.423  10.866 -0.0634  1.1737  0.2242
  891MOL0     C20160   1.190   1.365  10.728  0.1836  0.0989 -0.0564
  891MOL0     C20161   1.053   1.308  10.700  1.2922  0.4108 -0.5672
  891MOL0     C20162   1.055   1.221  10.580 -0.0992 -0.5583 -0.0249
  891MOL0     C20163   0.917   1.154  10.552 -0.4588  0.2131 -0.0722
  891MOL0     C20164   0.934   1.045  10.439 -0.5264  0.2100 -1.2292
  891MOL0     C20165   0.949   1.119  10.308  0.1942 -0.4319 -0.3894
  891MOL0     C20166   0.934   1.031  10.181 -0.3425  0.2588 -0.7605
  891MOL0     N20167   1.009   1.089  10.065  0.4041 -0.3140  0.3380
  891MOL0     C20168   0.943   1.114   9.941 -0.0411 -0.5131  0.8300
  891MOL0     C20169   1.041   1.114   9.848  0.5932 -0.0235  0.2227
  891MOL0     C20170   1.026   1.154   9.701  0.3916  0.7667  0.1164
  891MOL0     C20171   0.972   1.302   9.695 -0.3541 -0.0514 -0.1204
  891MOL0     C20172   0.926   1.342   9.550  0.2613  0.0056 -0.3728
  891MOL0     C20173   1.029   1.324   9.442  0.4581  0.7303 -0.0075
  891MOL0     O20174   0.990   1.356   9.307  0.1810 -0.6661  0.3088
  891MOL0     C20175   0.969   1.250   9.225 -0.5250  0.1673 -0.5403
  891MOL0     C20176   0.888   1.142   9.274  0.2630 -0.6513  1.0009
  891MOL0     C20177   0.866   1.030   9.193  0.5436  1.6484  0.5595
  891MOL0     C20178   0.807   0.924   9.270 -0.2456  0.9745 -0.0418
  891MOL0     C20179   0.891   1.043   9.049 -0.1491  0.3519 -1.6681
  891MOL0     C20180   0.871   0.928   8.967  0.4615 -0.6205  0.1947
  891MOL0     O20181   0.900   0.947   8.841 -0.3626 -0.2057  0.3564
  891MOL0     C20182   0.899   0.849   8.748  0.7009  0.3253 -1.1345
  891MOL0     C20183   0.797   0.855   8.654 -0.2086  0.7650 -0.2785
  891MOL0     C20184   0.779   0.760   8.553 -0.4361  0.4542  0.3275
  891MOL0     C20185   0.864   0.644   8.553 -0.2539  0.5546  0.7403
  891MOL0     O20186   0.856   0.555   8.444  0.1245  0.3942  0.1854
  891MOL0     C20187   0.932   0.439   8.439 -0.0946 -0.2521 -0.3035
  891MOL0     C20188   0.890   0.344   8.554 -0.0819  0.2197  0.0141
  891MOL0     C20189   0.990   0.231   8.575 -0.4138  0.0080  0.0329
  891MOL0     C20190   0.949   0.151   8.699  0.7889 -1.4456 -1.2594
  891MOL0     C20191   0.974   0.002   8.673  0.0253 -1.0909 -0.6751
  891MOL0     C20192   1.120  -0.025   8.685  0.9071  0.2558  0.9429
  891MOL0     C20193   1.139  -0.178   8.722  0.3651 -0.0826 -0.2155
  891MOL0     C20194   1.270  -0.250   8.689  0.7734 -0.4333 -0.9199
  891MOL0    Cl20195   1.254  -0.271   8.514  0.2411  0.2581  0.2446
  891MOL0     C20196   0.967   0.638   8.653  0.0654 -0.3402 -0.4002
  891MOL0     C20197   0.990   0.744   8.735 -0.0307  0.2197  0.2974
  891MOL0     O20198   0.817   0.831   9.010  1.4325 -0.0342 -0.5313
  891MOL0     C20199   0.967   1.156   9.005 -0.1964 -0.6971  0.2770
  891MOL0     C20200   1.005   1.265   9.091  0.4987  0.5711  0.5973
  891MOL0     N20201   1.159   1.092   9.910 -0.4081 -0.1437 -0.0532
  891MOL0     N20202   1.138   1.076  10.038 -0.4122  0.5396  0.0566
  891MOL0     C20203   1.231   1.696  10.796 -0.6286 -0.8441  0.4812
  891MOL0     C20204   1.236   1.816  10.727 -0.1846 -0.0613  0.4706
  891MOL0     C20205   1.038   2.219  10.554 -0.1819 -0.0500  0.4717
  891MOL0     C20206   0.938   2.306  10.513 -0.4122  0.6625  1.0356
  891MOL0     C20207   0.962   2.434  10.488  0.9403  0.3321 -0.7845
  891MOL0     C20208   1.078   2.494  10.518 -0.2814  0.1597 -0.3545
  891MOL0     O20209   1.093   2.628  10.505  0.2318  0.2235  0.0483
  891MOL0     C20210   1.076   2.699  10.623 -0.0005  0.1869  0.3887
  891MOL0     C20211   1.069   2.846  10.592  0.2698 -0.1310  0.1616
  891MOL0     C20212   1.079   2.941  10.708  0.2272  0.2405 -0.4914
  891MOL0     C20213   0.954   2.926  10.796 -0.3591 -0.5536  0.0426
  891MOL0     C20214   0.971   3.017  10.909  0.6770 -1.0109 -0.0139
  891MOL0     C20215   0.970   3.099  11.001  0.0934  0.1067  0.0410
  891MOL0     C20216   1.184   2.413  10.571  0.6108  0.6017  0.4376
  891MOL0     C20217   1.165   2.269  10.586  0.5946  0.4484 -0.2076
  891MOL0     H20218   0.899   1.876  10.717 -1.7513 -2.6047  1.7463
  891MOL0     H20219   0.894   1.656  10.838 -0.0978  1.4635  1.4162
  891MOL0     H20220   1.304   1.472  10.887 -1.3502  3.1237  1.8731
  891MOL0     H20221   1.200   1.345  10.943 -0.9733  3.5893  2.7522
  891MOL0     H20222   1.207   1.448  10.659  0.1258  1.2391  1.2709
  891MOL0     H20223   1.266   1.293  10.694 -0.2619  0.7877 -2.7680
  891MOL0     H20224   1.011   1.245  10.779 -0.9283  1.6925 -0.6550
  891MOL0     H20225   0.984   1.390  10.680  0.8224  0.0356 -0.4962
  891MOL0     H20226   1.093   1.277  10.494  1.9149 -1.6327  0.1090
  891MOL0     H20227   1.129   1.146  10.610  3.7053  3.9043  3.2868
  891MOL0     H20228   0.876   1.118  10.647 -1.2865 -0.4351 -0.6478
  891MOL0     H20229   0.834   1.219  10.522 -0.0903  0.1830 -1.2226
  891MOL0     H20230   1.020   0.981  10.460 -1.6320 -1.1902 -0.7547
  891MOL0     H20231   0.851   0.974  10.442  0.3670 -0.8804  2.7636
  891MOL0     H20232   0.875   1.199  10.310  0.2111 -0.4263  0.8339
  891MOL0     H20233   1.044   1.171  10.301 -0.2063  0.1941 -1.3579
  891MOL0     H20234   0.829   1.022  10.153  0.1148 -0.3095 -2.4610
  891MOL0     H20235   0.969   0.928  10.198 -1.8670 -0.0403  0.7540
  891MOL0     H20236   0.838   1.129   9.917  0.4765 -0.6568 -1.9091
  891MOL0     H20237   1.123   1.149   9.652 -0.9653  2.2604 -2.9653
  891MOL0     H20238   0.972   1.074   9.649  2.1314 -1.4970  1.5862
  891MOL0     H20239   1.040   1.368   9.752  3.1172 -3.2017 -0.2177
  891MOL0     H20240   0.886   1.312   9.762  1.3273  1.9542  1.9169
  891MOL0     H20241   0.910   1.450   9.553  0.2193 -0.0131  0.3909
  891MOL0     H20242   0.833   1.289   9.530 -0.4965  1.2000 -0.1440
  891MOL0     H20243   1.076   1.226   9.448 -0.9146  0.0674  0.4830
  891MOL0     H20244   1.108   1.392   9.472  1.9967 -1.0637  0.2006
  891MOL0     H20245   0.853   1.148   9.377 -1.9165  2.8082  0.2285
  891MOL0     H20246   0.864   0.832   9.265 -1.6511  0.1035 -0.7139
  891MOL0     H20247   0.791   0.944   9.376 -4.1510 -1.6356  0.0744
  891MOL0     H20248   0.715   0.890   9.221  0.0582  1.2240 -0.7935
  891MOL0     H20249   0.728   0.938   8.658  0.1078  0.9901  1.0743
  891MOL0     H20250   0.692   0.752   8.489  1.7836 -6.7470 -2.8128
  891MOL0     H20251   0.920   0.386   8.344 -2.5983 -0.0463 -0.1710
  891MOL0     H20252   1.038   0.464   8.448  0.1825 -0.2791 -2.8512
  891MOL0     H20253   0.877   0.399   8.648  0.0190 -0.2231  0.2929
  891MOL0     H20254   0.790   0.310   8.527 -0.1176 -0.8011  1.3023
  891MOL0     H20255   1.093   0.266   8.588  0.2493 -1.3465 -1.3609
  891MOL0     H20256   0.975   0.171   8.485 -2.8213  1.7693 -0.8550
  891MOL0     H20257   1.009   0.187   8.783 -0.7122  0.6655 -0.9937
  891MOL0     H20258   0.843   0.160   8.726  1.8037  0.1713  2.9678
  891MOL0     H20259   0.938  -0.031   8.575 -2.6361  0.6263 -0.3920
  891MOL0     H20260   0.930  -0.057   8.753 -0.9279  0.4312 -0.0233
  891MOL0     H20261   1.161   0.002   8.587  0.1555  0.5804  0.7116
  891MOL0     H20262   1.164   0.040   8.762  0.0531  2.8098 -0.5904
  891MOL0     H20263   1.055  -0.230   8.675 -2.0678  0.9594  2.6471
  891MOL0     H20264   1.132  -0.178   8.832  4.4490  2.6683  0.2844
  891MOL0     H20265   1.270  -0.347   8.739  0.1766 -0.2623 -0.5838
  891MOL0     H20266   1.362  -0.200   8.720  1.6619 -3.5263  1.9857
  891MOL0     H20267   1.022   0.548   8.679 -2.4423 -1.5691  1.0407
  891MOL0     H20268   1.074   0.743   8.804  0.0879  1.3707  0.1832
  891MOL0     H20269   0.984   1.164   8.898  2.3537 -1.6206  0.5624
  891MOL0     H20270   1.061   1.345   9.044 -1.4461  1.9798  0.5394
  891MOL0     H20271   1.327   1.655  10.824 -0.5168 -0.8104  0.1603
  891MOL0     H20272   1.322   1.862  10.679  0.3167 -0.0311  1.3734
  891MOL0     H20273   0.845   2.264  10.475  1.2385  0.3655 -3.3242
  891MOL0     H20274   0.889   2.507  10.454  0.5847 -1.4331 -4.2499
  891MOL0     H20275   0.982   2.659  10.660  0.5350 -0.5457  1.0029
  891MOL0     H20276   1.149   2.678  10.703 -0.2150  1.4757  0.9558
  891MOL0     H20277   0.977   2.860  10.534  1.0035 -1.7302 -1.4871
  891MOL0     H20278   1.152   2.864  10.523  0.9181  1.3201  1.2712
  891MOL0     H20279   1.081   3.044  10.672  0.3497 -0.1155 -1.5600
  891MOL0     H20280   1.174   2.937  10.761  0.7758  0.8600 -1.3853
  891MOL0     H20281   0.940   2.822  10.829 -0.7787 -1.0704 -1.6649
  891MOL0     H20282   0.865   2.960  10.742 -1.2603 -3.0668 -0.2007
  891MOL0     H20283   0.980   3.150  11.095 -3.6661  1.8350 -0.3059
  891MOL0     H20284   1.276   2.456  10.611  1.9117  0.0610 -1.8264
  891MOL0     H20285   1.241   2.204  10.628  0.8454  0.9010  0.0488
  892MOL0     O20286   4.813   0.839  11.102 -0.6501 -0.2497 -0.9135
  892MOL0     C20287   4.809   0.948  11.049 -0.7881  0.7169 -0.3481
  892MOL0     O20288   4.863   1.066  11.090 -0.9067 -0.0549  0.0611
  892MOL0     C20289   4.915   1.082  11.216 -0.5242  0.2607  0.3360
  892MOL0     C20290   4.834   1.122  11.318  0.3532  0.3113 -0.5339
  892MOL0     C20291   4.890   1.135  11.448 -0.8828  0.1076 -0.7148
  892MOL0     C20292   5.027   1.110  11.471  0.4589 -0.8665  0.2924
  892MOL0     O20293   5.102   1.147  11.579  0.1365  0.5086 -0.8115
  892MOL0     C20294   5.028   1.202  11.690 -0.2517 -0.4088  0.3642
  892MOL0     C20295   5.128   1.217  11.802 -0.2500  0.4840  0.2442
  892MOL0     C20296   5.070   1.307  11.909  0.2869 -0.2846  0.3986
  892MOL0     C20297   5.021   1.243  12.034  1.1967  0.2841 -0.1632
  892MOL0     C20298   4.934   1.343  12.124  0.2160  0.0018 -0.5180
  892MOL0     C20299   5.028   1.454  12.187 -0.0217 -0.7812  0.0732
  892MOL0     C20300   4.985   1.523  12.319  0.0293 -0.0340 -0.5675
  892MOL0     C20301   4.873   1.626  12.308 -0.1561 -1.1196 -0.4542
  892MOL0     N20302   4.823   1.675  12.440 -0.0917  1.0792  0.5794
  892MOL0     C20303   4.896   1.765  12.512  0.6899  0.0494  0.4519
  892MOL0     C20304   4.815   1.774  12.620 -0.9500  0.9333  0.5712
  892MOL0     C20305   4.886   1.861  12.731  0.1442  0.4969 -0.0403
  892MOL0     C20306   4.884   1.788  12.866 -1.2125  0.1434 -0.0293
  892MOL0     C20307   4.991   1.851  12.947 -0.6310 -0.8150 -0.4312
  892MOL0     C20308   4.978   1.826  13.094  0.1264 -0.2376 -0.4399
  892MOL0     O20309   4.857   1.875  13.146 -0.5420 -0.2609  1.0928
  892MOL0     C20310   4.829   1.878  13.281 -0.1446 -0.6809  0.6418
  892MOL0     C20311   4.931   1.867  13.382 -0.1715  0.6286 -0.5429
  892MOL0     C20312   4.905   1.896  13.515 -0.8471 -0.1758 -0.2605
  892MOL0     C20313   5.030   1.875  13.602  0.1151 -0.1384 -1.1826
  892MOL0     C20314   4.781   1.943  13.565 -0.2019  0.6661  0.1470
  892MOL0     C20315   4.732   1.969  13.706 -1.2184 -0.3102  0.7710
  892MOL0     O20316   4.783   1.893  13.805  0.4917 -0.0700 -1.3723
  892MOL0     C20317   4.740   1.892  13.942 -0.0464 -1.3794  0.0264
  892MOL0     C20318   4.764   1.774  14.007 -0.9253  0.0564  0.4430
  892MOL0     C20319   4.719   1.768  14.141  0.7365  0.2264 -0.9450
  892MOL0     C20320   4.670   1.879  14.205  0.5731 -0.4932 -0.0596
  892MOL0     O20321   4.647   1.875  14.337  0.2211 -0.0087  0.2668
  892MOL0     C20322   4.771   1.858  14.410 -0.5460 -0.9696 -0.7101
  892MOL0     C20323   4.770   1.958  14.526  0.5760 -0.2356 -0.6120
  892MOL0     C20324   4.755   2.102  14.469 -0.4352  0.5269 -0.2451
  892MOL0     C20325   4.749   2.209  14.585  0.1933 -1.2063  0.7222
  892MOL0     C20326   4.619   2.209  14.668  1.0455  0.3898 -0.2736
  892MOL0     C20327   4.499   2.283  14.600  0.5140  0.4551 -1.4113
  892MOL0     C20328   4.370   2.298  14.682  0.6390  0.2425 -0.0428
  892MOL0     C20329   4.237   2.319  14.616  0.0341 -0.2281  0.8210
  892MOL0    Cl20330   4.226   2.171  14.510  0.1210 -0.3264  0.1197
  892MOL0     C20331   4.661   2.001  14.144 -0.3984  0.9119 -0.3104
  892MOL0     C20332   4.683   2.005  14.009 -0.2291  0.0824 -0.2413
  892MOL0     O20333   4.632   2.042  13.722 -0.3830  0.5717 -0.2449
  892MOL0     C20334   4.689   1.967  13.459  1.6735 -1.3491 -0.4996
  892MOL0     C20335   4.711   1.942  13.320 -0.5440  0.7705  0.2492
  892MOL0     N20336   4.708   1.684  12.615  0.4686  0.4745  0.0743
  892MOL0     N20337   4.714   1.625  12.503 -0.6404 -0.5666  0.3287
  892MOL0     C20338   5.110   1.074  11.368  0.3245 -1.4424  1.0775
  892MOL0     C20339   5.051   1.050  11.239  0.2286  0.3004  0.3657
  892MOL0     C20340   4.740   0.941  10.918 -0.1533 -1.0214 -0.7849
  892MOL0     C20341   4.701   0.822  10.850 -0.5870  1.2323 -0.8815
  892MOL0     C20342   4.628   0.830  10.734  1.2044 -0.2239 -0.0121
  892MOL0     C20343   4.599   0.959  10.677  0.3288 -0.3054  0.0809
  892MOL0     O20344   4.524   0.972  10.558  0.3604  1.4436  0.0260
  892MOL0     C20345   4.493   0.863  10.466  0.4756  0.4591  0.5965
  892MOL0     C20346   4.461   0.925  10.325  0.2659  0.2988  0.6450
  892MOL0     C20347   4.584   0.964  10.246 -1.1345  0.6303 -0.3074
  892MOL0     C20348   4.662   0.841  10.192 -0.3223 -0.0843  0.5014
  892MOL0     C20349   4.648   0.818  10.054  0.0518 -0.0992 -0.4101
  892MOL0     C20350   4.647   0.811   9.936  0.1862  0.3041 -0.3087
  892MOL0     C20351   4.645   1.082  10.728  0.2795  0.9449 -0.0911
  892MOL0     C20352   4.705   1.070  10.854  0.4026  0.9323 -0.5089
  892MOL0     H20353   4.730   1.155  11.318 -0.0899 -0.7330  2.3981
  892MOL0     H20354   4.824   1.164  11.529 -0.9547 -3.8662  0.8982
  892MOL0     H20355   4.994   1.302  11.664 -0.4353 -0.4688  0.3699
  892MOL0     H20356   4.944   1.138  11.720 -1.9635  0.1225 -2.8832
  892MOL0     H20357   5.158   1.122  11.847  0.2271  1.2086  1.4962
  892MOL0     H20358   5.220   1.254  11.754  0.0072  0.7647  0.9451
  892MOL0     H20359   5.146   1.384  11.923  0.7083 -0.4524 -0.8406
  892MOL0     H20360   4.991   1.374  11.875  2.0145  1.7744  0.2753
  892MOL0     H20361   4.944   1.169  12.010 -0.2604  2.3244 -2.2841
  892MOL0     H20362   5.089   1.192  12.103  1.7057 -1.2414 -1.7315
  892MOL0     H20363   4.853   1.385  12.065  1.0826 -0.6668 -2.2449
  892MOL0     H20364   4.892   1.284  12.207  3.1826 -2.3770 -0.5095
  892MOL0     H20365   5.131   1.419  12.198  0.9436  2.1310  1.2034
  892MOL0     H20366   5.018   1.535  12.115 -1.9574 -0.3539  0.7581
  892MOL0     H20367   4.960   1.451  12.398  2.2529  0.2969  0.5200
  892MOL0     H20368   5.072   1.576  12.358  0.1507 -1.2465  0.9103
  892MOL0     H20369   4.787   1.583  12.256 -0.8446 -1.1418  0.6761
  892MOL0     H20370   4.915   1.709  12.249 -0.4323 -0.7690 -0.1574
  892MOL0     H20371   4.977   1.833  12.489  1.6819 -0.6143  1.8357
  892MOL0     H20372   4.990   1.872  12.698 -0.3577  3.4726 -0.8667
  892MOL0     H20373   4.842   1.960  12.746 -3.5200 -1.3474  3.2654
  892MOL0     H20374   4.908   1.682  12.854  3.2373  0.8096  0.9402
  892MOL0     H20375   4.787   1.805  12.912 -2.1071  2.5953 -2.5434
  892MOL0     H20376   4.969   1.956  12.931 -1.7920 -1.0250 -0.2630
  892MOL0     H20377   5.091   1.821  12.915 -0.0264  0.1185  0.5221
  892MOL0     H20378   5.060   1.872  13.150 -1.7302  2.3320  0.3295
  892MOL0     H20379   4.988   1.719  13.114  0.8662  0.3509  2.9391
  892MOL0     H20380   5.026   1.823  13.355  0.3555 -0.7313  2.9034
  892MOL0     H20381   5.003   1.893  13.706  0.1013  0.5042 -1.2963
  892MOL0     H20382   5.055   1.768  13.603  0.2258 -0.1097 -0.4106
  892MOL0     H20383   5.124   1.923  13.574  1.2367 -1.2012  0.5976
  892MOL0     H20384   4.813   1.687  13.965 -0.2972  0.9192 -0.6884
  892MOL0     H20385   4.728   1.678  14.201  0.8816  0.1699 -1.0511
  892MOL0     H20386   4.776   1.760  14.457 -1.5421 -0.3824  0.6666
  892MOL0     H20387   4.861   1.872  14.348  1.3481 -2.5154  1.5138
  892MOL0     H20388   4.695   1.931  14.600  0.3599 -0.1049 -0.7818
  892MOL0     H20389   4.864   1.945  14.580 -0.2001 -0.6122  0.6974
  892MOL0     H20390   4.665   2.106  14.407 -1.5119  1.0816  1.2890
  892MOL0     H20391   4.837   2.125  14.400  0.3149 -3.7357 -1.0624
  892MOL0     H20392   4.837   2.202  14.651  0.1625 -2.5873  0.6586
  892MOL0     H20393   4.761   2.306  14.538 -0.4919 -0.0576  2.7861
  892MOL0     H20394   4.629   2.260  14.765 -2.3405 -1.1552  1.0641
  892MOL0     H20395   4.597   2.107  14.702  1.7158  1.0381  2.3740
  892MOL0     H20396   4.535   2.385  14.587  0.0584  1.0170  1.1913
  892MOL0     H20397   4.471   2.238  14.504 -2.6568 -0.2379 -0.2902
  892MOL0     H20398   4.379   2.376  14.758 -1.3088  0.4068  0.0706
  892MOL0     H20399   4.362   2.204  14.737  1.1207 -0.9393 -1.9226
  892MOL0     H20400   4.246   2.404  14.547 -0.0848 -1.4256 -0.7505
  892MOL0     H20401   4.147   2.322  14.678  1.1407 -0.4293  2.4846
  892MOL0     H20402   4.639   2.092  14.199  1.2507  2.0187 -1.4023
  892MOL0     H20403   4.665   2.094  13.950 -0.8058  1.8523  2.4084
  892MOL0     H20404   4.592   2.008  13.485  2.0825 -0.0222 -0.9575
  892MOL0     H20405   4.636   1.948  13.242 -2.2320 -0.1414  1.7152
  892MOL0     H20406   5.217   1.070  11.388  0.0557 -2.9805  2.4598
  892MOL0     H20407   5.119   1.028  11.158  2.0562  1.3582  1.5374
  892MOL0     H20408   4.716   0.724  10.895 -1.7173 -0.1886 -3.3466
  892MOL0     H20409   4.582   0.742  10.689 -0.2788  0.6966 -0.3712
  892MOL0     H20410   4.575   0.790  10.458 -0.6766 -0.9303  0.9680
  892MOL0     H20411   4.407   0.817  10.515 -1.0750  2.2678 -0.3000
  892MOL0     H20412   4.389   1.005  10.344 -2.1059 -1.8430  1.2705
  892MOL0     H20413   4.406   0.850  10.267 -1.0596  0.4907  1.6179
  892MOL0     H20414   4.640   1.019  10.322  0.8039 -2.3345  0.5615
  892MOL0     H20415   4.553   1.027  10.161 -0.8185  1.5346  0.2341
  892MOL0     H20416   4.640   0.753  10.253 -2.6527 -1.4546 -2.0592
  892MOL0     H20417   4.768   0.866  10.193 -0.3967  0.2197  0.8031
  892MOL0     H20418   4.664   0.825   9.831 -0.5568  1.7504 -0.2548
  892MOL0     H20419   4.614   1.177  10.685  0.2538  1.3431  0.7957
  892MOL0     H20420   4.746   1.158  10.903  0.3767  1.5034 -1.4767
  893MOL0     O20421   5.477   8.655   4.549  0.1145 -0.6762 -0.6712
  893MOL0     C20422   5.538   8.668   4.445 -0.2126  1.0590  1.2682
  893MOL0     O20423   5.479   8.705   4.319  0.9318  0.2566 -0.7392
  893MOL0     C20424   5.341   8.735   4.294 -0.8515 -0.4709  0.3822
  893MOL0     C20425   5.259   8.772   4.399  1.3905 -0.4393  0.0337
  893MOL0     C20426   5.119   8.784   4.371  0.2543 -0.1642 -0.2013
  893MOL0     C20427   5.059   8.766   4.243 -0.6908  0.0053  0.4094
  893MOL0     O20428   4.934   8.764   4.202 -0.0594  0.4691  0.5487
  893MOL0     C20429   4.827   8.723   4.298  0.6616  0.0116  0.2090
  893MOL0     C20430   4.713   8.667   4.222  0.6784 -0.0531 -0.4362
  893MOL0     C20431   4.594   8.620   4.301  0.8198 -0.8474  0.0301
  893MOL0     C20432   4.472   8.611   4.208 -0.1051  0.1370  1.1912
  893MOL0     C20433   4.354   8.574   4.289 -0.5955  0.3435  0.3044
  893MOL0     C20434   4.259   8.496   4.193 -0.3441 -0.6442  0.4586
  893MOL0     C20435   4.187   8.584   4.087 -0.2814  0.3306  0.5990
  893MOL0     C20436   4.048   8.534   4.062  0.0076 -0.5499 -0.0948
  893MOL0     N20437   4.049   8.410   3.986  0.4989  0.4391 -0.9548
  893MOL0     C20438   3.953   8.388   3.890 -0.1040  0.3041 -0.2509
  893MOL0     C20439   3.954   8.258   3.871 -0.1009  0.4143 -0.3809
  893MOL0     C20440   3.866   8.177   3.783  0.9344  0.4086  0.9078
  893MOL0     C20441   3.776   8.255   3.688 -0.0309  1.1852  0.2330
  893MOL0     C20442   3.696   8.180   3.580  0.1652 -1.5477 -0.6098
  893MOL0     C20443   3.618   8.275   3.486  0.8869  0.3540  0.3360
  893MOL0     O20444   3.501   8.318   3.557  0.2021  0.4748 -0.7867
  893MOL0     C20445   3.386   8.345   3.484 -1.1043 -0.0568 -0.3872
  893MOL0     C20446   3.284   8.396   3.549  0.2860  0.6587 -0.7651
  893MOL0     C20447   3.152   8.415   3.493 -0.5589  1.3426 -0.9867
  893MOL0     C20448   3.041   8.449   3.593 -0.3231 -0.8080 -0.1943
  893MOL0     C20449   3.146   8.391   3.352  0.7942  0.8949  0.2221
  893MOL0     C20450   3.008   8.396   3.280 -0.5280  0.6130  0.5686
  893MOL0     O20451   3.019   8.434   3.142  0.4509  0.1975  0.3548
  893MOL0     C20452   2.926   8.400   3.048  0.1486 -0.1678  0.2728
  893MOL0     C20453   2.838   8.495   3.005  0.6575 -1.0385  0.4715
  893MOL0     C20454   2.728   8.464   2.914 -0.3818  0.6342  1.1154
  893MOL0     C20455   2.705   8.326   2.888 -1.3836  0.3301  0.4433
  893MOL0     O20456   2.602   8.271   2.819  0.3119  0.5598 -0.0253
  893MOL0     C20457   2.475   8.321   2.822 -0.1390 -0.1261  0.1899
  893MOL0     C20458   2.421   8.332   2.685  1.0213 -0.1352 -0.5046
  893MOL0     C20459   2.288   8.408   2.701  0.4063  0.0936 -0.1783
  893MOL0     C20460   2.197   8.376   2.590 -0.0648  0.4093  1.3613
  893MOL0     C20461   2.094   8.483   2.572 -0.6673  0.1243 -0.2707
  893MOL0     C20462   1.978   8.432   2.485 -0.4329 -0.7616 -0.6040
  893MOL0     C20463   2.017   8.398   2.345  0.8158  0.1856 -0.4322
  893MOL0     C20464   2.034   8.510   2.246  1.0433 -0.4807 -0.2600
  893MOL0    Cl20465   2.044   8.436   2.080  0.1365 -0.1120  0.2486
  893MOL0     C20466   2.804   8.236   2.929  0.0827 -0.2420 -0.2904
  893MOL0     C20467   2.914   8.271   3.003  1.0443 -0.1978 -0.5595
  893MOL0     O20468   2.910   8.347   3.340  0.0917 -0.4463 -0.6106
  893MOL0     C20469   3.259   8.362   3.277 -0.1908  1.2456  0.1543
  893MOL0     C20470   3.371   8.331   3.344 -0.3184 -0.2402  0.3938
  893MOL0     N20471   4.036   8.191   3.960  0.5781 -0.0358 -0.4868
  893MOL0     N20472   4.095   8.288   4.025  0.3171 -0.0727 -0.9269
  893MOL0     C20473   5.151   8.740   4.136 -0.6471  0.1205 -0.5644
  893MOL0     C20474   5.290   8.736   4.160  0.9611  0.2956  0.1706
  893MOL0     C20475   5.684   8.645   4.435  1.4013 -0.7251 -0.2477
  893MOL0     C20476   5.751   8.594   4.545 -0.7499  0.6959 -0.0088
  893MOL0     C20477   5.888   8.583   4.547 -0.0191  0.3080 -0.0894
  893MOL0     C20478   5.968   8.621   4.441 -0.3778 -0.2735 -1.0075
  893MOL0     O20479   6.108   8.638   4.447  0.5554  0.0036  0.7654
  893MOL0     C20480   6.168   8.689   4.565 -0.3958  0.3343 -0.3513
  893MOL0     C20481   6.313   8.709   4.541 -0.6497  0.0941  0.2160
  893MOL0     C20482   6.395   8.729   4.672 -0.1170  0.3996  0.2030
  893MOL0     C20483   6.375   8.862   4.753 -0.8740 -0.0260 -0.8569
  893MOL0     C20484   6.388   8.981   4.670  0.6825  0.1240 -0.9748
  893MOL0     C20485   6.399   9.084   4.608  0.6484 -0.4707 -0.1046
  893MOL0     C20486   5.902   8.668   4.329  0.8018 -0.6922  0.3687
  893MOL0     C20487   5.762   8.673   4.325  1.2079  0.2654 -0.0632
  893MOL0     H20488   5.307   8.792   4.495  1.1580  1.8990 -0.2807
  893MOL0     H20489   5.050   8.809   4.451 -0.4683  1.5315 -1.2842
  893MOL0     H20490   4.873   8.649   4.364 -1.8602 -0.6621  1.2996
  893MOL0     H20491   4.795   8.808   4.359  2.6400  0.3544  0.8685
  893MOL0     H20492   4.671   8.747   4.160  0.6805 -0.4275 -0.9329
  893MOL0     H20493   4.745   8.590   4.152  4.1902  0.3210  0.5808
  893MOL0     H20494   4.608   8.521   4.346 -0.4072  0.0189  2.5072
  893MOL0     H20495   4.578   8.695   4.378  1.3161 -2.1373  1.4403
  893MOL0     H20496   4.449   8.706   4.158 -2.5234  0.0883  2.0747
  893MOL0     H20497   4.493   8.543   4.125  4.4286  0.4864  1.7700
  893MOL0     H20498   4.393   8.509   4.368  0.2908  4.5402  3.6916
  893MOL0     H20499   4.299   8.650   4.346 -3.6360 -1.2690 -0.2753
  893MOL0     H20500   4.305   8.407   4.147 -0.3982 -0.7199  0.5511
  893MOL0     H20501   4.179   8.460   4.258 -1.7833  1.1687 -0.2262
  893MOL0     H20502   4.179   8.685   4.130  0.2310  1.1692 -1.1673
  893MOL0     H20503   4.244   8.599   3.995 -1.5483  1.3934 -0.0456
  893MOL0     H20504   4.007   8.608   3.993  0.5941 -0.5854 -0.4905
  893MOL0     H20505   3.984   8.537   4.151  1.9250  3.9448  1.4698
  893MOL0     H20506   3.899   8.463   3.832 -0.4077  0.4498  0.2142
  893MOL0     H20507   3.926   8.102   3.729 -0.7631  0.0597 -0.5963
  893MOL0     H20508   3.794   8.118   3.839  0.0239 -0.0114 -0.6403
  893MOL0     H20509   3.839   8.328   3.637  1.1371  0.3458  0.4451
  893MOL0     H20510   3.702   8.301   3.754  0.0920 -0.2404  1.4228
  893MOL0     H20511   3.620   8.114   3.623  0.4487 -1.1951  0.4680
  893MOL0     H20512   3.761   8.112   3.524  3.0745  0.5322  0.0020
  893MOL0     H20513   3.594   8.220   3.394 -3.6728  1.7524  0.4556
  893MOL0     H20514   3.683   8.358   3.458  2.3483 -1.6859 -2.8894
  893MOL0     H20515   3.305   8.376   3.653  0.4311 -2.1474 -1.2301
  893MOL0     H20516   2.975   8.363   3.608  1.7575 -2.9855 -2.4375
  893MOL0     H20517   3.077   8.491   3.686 -1.6521 -0.9881  0.4228
  893MOL0     H20518   2.976   8.524   3.547  0.2715 -1.4316 -2.1806
  893MOL0     H20519   2.843   8.601   3.027  3.0107 -0.4769 -2.1554
  893MOL0     H20520   2.658   8.541   2.885 -1.8136 -1.0535 -0.0795
  893MOL0     H20521   2.412   8.251   2.876  1.9882 -2.1432  0.2440
  893MOL0     H20522   2.480   8.418   2.872  2.3237  0.1158 -0.3787
  893MOL0     H20523   2.494   8.378   2.618  0.9908  0.8902  0.1504
  893MOL0     H20524   2.408   8.237   2.632  3.5993 -0.1983 -1.1816
  893MOL0     H20525   2.312   8.515   2.704 -0.2484  0.3554 -2.5725
  893MOL0     H20526   2.243   8.377   2.796  2.8805 -1.5813  0.5459
  893MOL0     H20527   2.254   8.357   2.498 -3.0683 -0.3108 -0.5151
  893MOL0     H20528   2.152   8.278   2.609 -0.0246 -0.6949 -3.0863
  893MOL0     H20529   2.134   8.578   2.538 -1.5958  0.9411  0.8383
  893MOL0     H20530   2.053   8.500   2.672  1.0302 -0.0901  0.4825
  893MOL0     H20531   1.943   8.349   2.547  1.3867 -1.2784 -0.2140
  893MOL0     H20532   1.892   8.498   2.474  0.8139  0.9980 -0.2397
  893MOL0     H20533   1.932   8.339   2.308 -0.0866  2.0439 -1.4222
  893MOL0     H20534   2.106   8.334   2.345  1.5843  1.2289  0.2378
  893MOL0     H20535   2.126   8.567   2.263  1.9120 -1.0567 -2.6368
  893MOL0     H20536   1.944   8.572   2.243 -0.7050 -2.8366  0.3838
  893MOL0     H20537   2.797   8.130   2.906 -0.5217 -0.8034  2.2045
  893MOL0     H20538   2.987   8.196   3.032 -0.6342 -2.3024 -1.5121
  893MOL0     H20539   3.254   8.346   3.170  1.8060 -0.3204  0.2399
  893MOL0     H20540   3.450   8.300   3.276  0.8254  2.7379  0.2340
  893MOL0     H20541   5.117   8.752   4.033  3.6326  2.8949 -1.9001
  893MOL0     H20542   5.367   8.722   4.085  2.8403 -0.6112  2.1643
  893MOL0     H20543   5.695   8.565   4.633  1.0726 -0.1637  0.9298
  893MOL0     H20544   5.921   8.549   4.645 -0.0813  2.0914  0.5873
  893MOL0     H20545   6.119   8.783   4.589 -0.0138  0.5930 -0.5712
  893MOL0     H20546   6.155   8.615   4.644 -0.9246  1.0715  0.2584
  893MOL0     H20547   6.331   8.778   4.458 -4.6209  1.8942  0.6288
  893MOL0     H20548   6.345   8.610   4.508  0.2220  1.3165 -2.9946
  893MOL0     H20549   6.498   8.703   4.646 -0.7419 -3.8425  1.1381
  893MOL0     H20550   6.373   8.644   4.737 -1.0988 -1.8248 -2.7903
  893MOL0     H20551   6.446   8.875   4.834  1.2334 -2.4861 -2.1463
  893MOL0     H20552   6.274   8.852   4.793 -0.9981  1.2655 -0.8087
  893MOL0     H20553   6.409   9.176   4.553  1.0286 -1.8564 -2.5197
  893MOL0     H20554   5.969   8.700   4.250  0.9928  1.0414  1.2072
  893MOL0     H20555   5.702   8.697   4.238  1.3165 -0.6699 -0.4064
  894MOL0     O20556   7.946  10.812   0.750  0.2496  0.8685 -0.2048
  894MOL0     C20557   7.936  10.852   0.636  0.0904  0.1509  0.3360
  894MOL0     O20558   8.004  10.799   0.533 -0.5088 -0.8790  0.5747
  894MOL0     C20559   8.120  10.718   0.539 -0.0088 -0.2014  0.0916
  894MOL0     C20560   8.210  10.707   0.651  0.8133  0.1331 -0.3947
  894MOL0     C20561   8.335  10.640   0.630 -0.2808 -0.5650  1.2061
  894MOL0     C20562   8.354  10.563   0.513  0.3334  0.3705 -0.7778
  894MOL0     O20563   8.465  10.479   0.502 -0.1691  0.0771  0.2885
  894MOL0     C20564   8.461  10.375   0.397 -0.7114 -0.0635 -0.5324
  894MOL0     C20565   8.602  10.313   0.408 -0.9694 -0.6352  0.3303
  894MOL0     C20566   8.625  10.162   0.426  0.5740 -0.3848  0.1742
  894MOL0     C20567   8.525  10.101   0.535  0.0722  0.9496 -0.0007
  894MOL0     C20568   8.575   9.950   0.547  0.2019  0.3685 -0.2624
  894MOL0     C20569   8.490   9.887   0.661 -2.0050 -0.7449  0.1354
  894MOL0     C20570   8.558   9.753   0.696  0.2824 -0.1152 -0.2531
  894MOL0     C20571   8.475   9.682   0.803 -0.1011 -1.0023  0.0108
  894MOL0     N20572   8.518   9.541   0.821  0.5435 -0.2559  0.4784
  894MOL0     C20573   8.638   9.489   0.855 -0.6773 -0.9160 -0.0138
  894MOL0     C20574   8.627   9.352   0.863  0.3492  0.6414  0.3628
  894MOL0     C20575   8.737   9.260   0.888 -0.0405 -1.2108  0.7223
  894MOL0     C20576   8.687   9.117   0.917 -0.5503 -1.0161 -0.3037
  894MOL0     C20577   8.792   9.004   0.896 -0.1157  0.1781  0.0879
  894MOL0     C20578   8.751   8.869   0.946 -0.1133 -0.0922 -0.1379
  894MOL0     O20579   8.712   8.857   1.083 -0.0069  0.1636 -0.3294
  894MOL0     C20580   8.813   8.872   1.177  0.5009 -0.1945 -0.2307
  894MOL0     C20581   8.779   8.943   1.288 -0.7170 -0.4272  0.0546
  894MOL0     C20582   8.870   8.967   1.394  0.2921 -0.0584  1.2147
  894MOL0     C20583   8.819   9.019   1.527  0.3376  0.9921  0.1863
  894MOL0     C20584   9.006   8.943   1.375  0.2255 -0.3385  0.2090
  894MOL0     C20585   9.121   9.002   1.455 -0.3579 -0.1762 -0.5928
  894MOL0     O20586   9.248   8.954   1.425 -0.6068  0.0471  0.5676
  894MOL0     C20587   9.362   9.020   1.465  0.2397 -0.2577 -0.6127
  894MOL0     C20588   9.481   8.935   1.482  0.8242 -0.0060 -0.4168
  894MOL0     C20589   9.607   8.988   1.502 -0.5228 -0.1020  1.0128
  894MOL0     C20590   9.628   9.131   1.497 -0.6565  0.7976 -0.2815
  894MOL0     O20591   9.760   9.181   1.498  0.9850 -0.6544 -0.2530
  894MOL0     C20592   9.789   9.311   1.432 -0.9656 -0.1635 -0.1844
  894MOL0     C20593   9.864   9.277   1.298 -0.0473  0.6607  0.2822
  894MOL0     C20594   9.909   9.410   1.233 -0.0815  0.8785 -1.4177
  894MOL0     C20595   9.914   9.397   1.080  0.3107  0.0857 -0.3053
  894MOL0     C20596  10.032   9.468   1.019  0.2216  0.5827 -0.0080
  894MOL0     C20597  10.056   9.435   0.877 -0.1923  0.1718 -0.4470
  894MOL0     C20598  10.166   9.520   0.811 -0.7781 -0.2772  0.9368
  894MOL0     C20599  10.171   9.506   0.650 -0.3636 -0.4373 -0.2524
  894MOL0    Cl20600  10.124   9.332   0.605  0.5380 -0.2715  0.2593
  894MOL0     C20601   9.512   9.211   1.491  0.0656  0.7275 -0.9761
  894MOL0     C20602   9.384   9.157   1.494  0.1225  0.0166  1.2320
  894MOL0     O20603   9.097   9.097   1.523  0.1531  0.2452  0.0447
  894MOL0     C20604   9.041   8.873   1.255 -0.1946 -0.0059 -0.1825
  894MOL0     C20605   8.947   8.833   1.166 -0.2677 -0.6565  0.0619
  894MOL0     N20606   8.492   9.322   0.833 -0.1381  0.2004  0.0592
  894MOL0     N20607   8.433   9.436   0.809  0.0773  0.7380  0.5093
  894MOL0     C20608   8.265  10.589   0.410  0.8590  0.3320 -0.1348
  894MOL0     C20609   8.147  10.667   0.421 -0.3622  0.2311 -0.6498
  894MOL0     C20610   7.825  10.940   0.605  0.3221  0.5640 -1.3199
  894MOL0     C20611   7.812  11.015   0.486 -0.9605  0.0330  0.0904
  894MOL0     C20612   7.707  11.099   0.472 -0.3831 -0.1877  0.0828
  894MOL0     C20613   7.602  11.105   0.566 -0.3082 -0.7301 -0.5740
  894MOL0     O20614   7.507  11.207   0.540 -1.0962 -0.9228  0.5131
  894MOL0     C20615   7.388  11.223   0.617 -0.9380 -1.0631 -0.0429
  894MOL0     C20616   7.314  11.356   0.571  0.3252  0.0023 -0.1001
  894MOL0     C20617   7.188  11.366   0.656 -0.0972 -0.8027 -0.1279
  894MOL0     C20618   7.230  11.387   0.803 -0.3927  0.2827 -0.1295
  894MOL0     C20619   7.104  11.399   0.879 -0.2599 -0.8382  0.8112
  894MOL0     C20620   6.996  11.393   0.928  0.7699 -0.4072  0.2001
  894MOL0     C20621   7.604  11.023   0.679  0.1256  0.0677  0.2819
  894MOL0     C20622   7.721  10.944   0.697 -0.3393  0.2576  0.3095
  894MOL0     H20623   8.187  10.762   0.742 -1.6982 -4.0557  1.7746
  894MOL0     H20624   8.407  10.625   0.710 -0.3516 -1.5123  1.1056
  894MOL0     H20625   8.386  10.300   0.425 -0.5040  0.2772  1.0551
  894MOL0     H20626   8.454  10.423   0.299  0.3848 -0.4733 -0.8289
  894MOL0     H20627   8.649  10.338   0.312 -1.2504 -2.6159 -0.3744
  894MOL0     H20628   8.664  10.372   0.476  0.3277 -0.5083 -0.9196
  894MOL0     H20629   8.620  10.108   0.331 -1.0103 -0.6238  0.3551
  894MOL0     H20630   8.727  10.151   0.462  0.7970  1.0747  0.0135
  894MOL0     H20631   8.539  10.162   0.624 -0.0127  1.2419 -0.1889
  894MOL0     H20632   8.422  10.097   0.499  0.1423 -0.2038 -0.1139
  894MOL0     H20633   8.580   9.887   0.458 -1.9582  1.6077 -1.3471
  894MOL0     H20634   8.682   9.960   0.566  0.6569  1.4751 -2.9776
  894MOL0     H20635   8.495   9.955   0.747  1.3178  1.0507 -1.2704
  894MOL0     H20636   8.391   9.870   0.618 -1.3225  0.5684 -2.0896
  894MOL0     H20637   8.563   9.676   0.619 -2.8947 -1.0705  0.3490
  894MOL0     H20638   8.658   9.780   0.729  0.4655  0.0456 -0.9235
  894MOL0     H20639   8.371   9.686   0.768 -0.4804  2.5244  1.1074
  894MOL0     H20640   8.475   9.738   0.897 -0.8753 -0.9025 -0.0372
  894MOL0     H20641   8.731   9.536   0.883 -1.1894 -0.0687  0.3098
  894MOL0     H20642   8.803   9.257   0.801  0.4762 -1.7222  1.1240
  894MOL0     H20643   8.804   9.282   0.972 -0.5457 -1.1085  1.1029
  894MOL0     H20644   8.604   9.089   0.852  1.0891 -0.4759 -2.7658
  894MOL0     H20645   8.655   9.116   1.022 -0.7462  1.2197 -0.2905
  894MOL0     H20646   8.879   9.046   0.947 -0.6081  1.2110  0.1131
  894MOL0     H20647   8.816   8.981   0.792 -0.2798 -0.4540  0.1903
  894MOL0     H20648   8.838   8.804   0.936  0.4148  0.6858 -0.6942
  894MOL0     H20649   8.668   8.829   0.887 -0.2973  0.2975 -0.1472
  894MOL0     H20650   8.680   8.987   1.286 -0.2984  0.5338  0.0332
  894MOL0     H20651   8.713   8.995   1.544  0.8926  0.3023  3.2767
  894MOL0     H20652   8.877   8.951   1.589 -0.7943 -1.0325 -0.8844
  894MOL0     H20653   8.840   9.124   1.553  1.2920  1.2005 -1.3126
  894MOL0     H20654   9.464   8.828   1.477 -2.3446  0.4419 -1.6169
  894MOL0     H20655   9.692   8.920   1.504  1.5069  2.2295 -0.1204
  894MOL0     H20656   9.695   9.366   1.419 -3.4347 -3.0404  3.4547
  894MOL0     H20657   9.854   9.359   1.506 -1.6415  0.2798  0.1294
  894MOL0     H20658   9.954   9.217   1.313  0.0313  0.6317 -0.2649
  894MOL0     H20659   9.794   9.209   1.248  1.7055 -2.2774  1.5668
  894MOL0     H20660  10.008   9.434   1.274 -0.0251  1.1423 -1.7045
  894MOL0     H20661   9.850   9.496   1.265 -1.2919 -1.1984  2.5461
  894MOL0     H20662   9.917   9.292   1.050 -0.5059  0.4392 -1.6889
  894MOL0     H20663   9.822   9.443   1.044  0.9650  0.5792 -1.3728
  894MOL0     H20664  10.113   9.434   1.084  0.8998  2.7993  0.3935
  894MOL0     H20665  10.029   9.576   1.036  2.1024  0.3141  2.7958
  894MOL0     H20666  10.099   9.335   0.882  2.2697  1.1420 -0.9713
  894MOL0     H20667   9.964   9.440   0.818 -1.7066 -2.6183  1.4044
  894MOL0     H20668  10.264   9.487   0.847 -0.2634 -2.1143 -1.8682
  894MOL0     H20669  10.154   9.627   0.828 -1.5682 -0.2487  0.2382
  894MOL0     H20670  10.275   9.522   0.621 -0.0243 -2.0081 -0.0034
  894MOL0     H20671  10.100   9.576   0.605 -0.2444 -0.8158 -1.0496
  894MOL0     H20672   9.521   9.319   1.495  1.5439  0.5763  1.4360
  894MOL0     H20673   9.304   9.230   1.494  2.8479  3.3507 -1.2471
  894MOL0     H20674   9.148   8.856   1.242  0.0002  1.4435 -0.6379
  894MOL0     H20675   8.978   8.780   1.076  2.2501  2.1024 -0.8633
  894MOL0     H20676   8.283  10.542   0.314 -0.4772 -1.0062  0.2497
  894MOL0     H20677   8.076  10.689   0.342 -0.9798  0.7670  0.0402
  894MOL0     H20678   7.891  11.023   0.411 -1.0112  0.1579  0.0487
  894MOL0     H20679   7.710  11.174   0.393  3.5558 -0.1612  0.0233
  894MOL0     H20680   7.316  11.141   0.611 -3.1307  0.7602  0.0192
  894MOL0     H20681   7.424  11.228   0.720 -0.3443 -2.2910 -0.1746
  894MOL0     H20682   7.281  11.347   0.467  0.4643  0.9677 -0.2414
  894MOL0     H20683   7.387  11.437   0.582  1.9535 -1.3472 -0.7033
  894MOL0     H20684   7.119  11.282   0.665 -0.0966 -0.6249  2.2176
  894MOL0     H20685   7.131  11.452   0.621 -0.8698  0.1042  3.0901
  894MOL0     H20686   7.286  11.479   0.818  1.3246 -1.1428  3.2819
  894MOL0     H20687   7.294  11.314   0.853 -3.4896 -0.6103  2.9084
  894MOL0     H20688   6.915  11.412   0.997  1.6090 -1.9757  1.6903
  894MOL0     H20689   7.525  11.033   0.753 -1.0884 -0.3094 -0.9277
  894MOL0     H20690   7.734  10.885   0.787  2.7431 -1.6111 -1.1774
  895MOL0     O20691  10.419   8.536   4.800 -0.3787  0.1658 -0.7164
  895MOL0     C20692  10.307   8.570   4.835  0.1959  0.2086  0.5023
  895MOL0     O20693  10.202   8.529   4.766  0.8505 -1.1343 -0.4133
  895MOL0     C20694  10.192   8.432   4.665  0.2249  0.0327 -0.7907
  895MOL0     C20695  10.072   8.366   4.667  0.2550  0.4626 -0.4761
  895MOL0     C20696  10.034   8.284   4.572 -0.7014 -0.0432 -0.6460
  895MOL0     C20697  10.126   8.239   4.477  0.9921  0.9166  0.6213
  895MOL0     O20698  10.095   8.139   4.394  0.6663 -0.0172  0.1723
  895MOL0     C20699  10.096   8.001   4.440 -0.4960 -0.3738  0.0654
  895MOL0     C20700  10.099   7.913   4.321  0.4206  0.3320 -0.1225
  895MOL0     C20701  10.214   7.939   4.231  0.1391 -0.0128  0.2618
  895MOL0     C20702  10.193   7.906   4.077  0.1543 -0.0498 -0.1195
  895MOL0     C20703  10.127   7.771   4.063 -0.0177  0.2026  0.3749
  895MOL0     C20704  10.163   7.726   3.926 -0.1193 -0.4792 -0.4552
  895MOL0     C20705  10.123   7.812   3.810  0.4554  0.8711 -0.2308
  895MOL0     C20706  10.203   7.765   3.688 -0.3842  0.1126  1.1394
  895MOL0     N20707  10.186   7.625   3.644 -0.3778 -0.5462  0.3485
  895MOL0     C20708  10.079   7.584   3.570  0.0490 -0.5574 -0.6683
  895MOL0     C20709  10.125   7.475   3.517  0.6452  1.0893  0.2145
  895MOL0     C20710  10.040   7.380   3.432  0.3760 -0.0223 -0.2472
  895MOL0     C20711  10.127   7.305   3.338  0.5737  0.3024  0.5739
  895MOL0     C20712  10.029   7.221   3.249  0.5861 -0.6583 -0.0046
  895MOL0     C20713  10.110   7.150   3.136 -0.3519 -0.2279  0.0058
  895MOL0     O20714  10.016   7.089   3.047 -1.3591  0.6307  0.3549
  895MOL0     C20715  10.065   7.023   2.937 -0.6733 -1.3800  0.9231
  895MOL0     C20716   9.952   6.991   2.858 -0.0021  0.1735 -0.0672
  895MOL0     C20717   9.958   6.933   2.731  0.4226  0.5092 -0.4907
  895MOL0     C20718   9.822   6.905   2.658 -0.2303 -0.8854  1.0260
  895MOL0     C20719  10.086   6.908   2.672  0.1786 -0.7444 -0.0817
  895MOL0     C20720  10.097   6.859   2.539  0.8326 -0.1909  0.9587
  895MOL0     O20721  10.220   6.827   2.497 -0.6987 -0.0477 -0.0430
  895MOL0     C20722  10.255   6.783   2.372 -0.8202  0.8626  0.3965
  895MOL0     C20723  10.295   6.874   2.281 -0.2473  0.1668  0.7024
  895MOL0     C20724  10.303   6.831   2.146 -0.0961  0.0187 -0.5260
  895MOL0     C20725  10.281   6.701   2.104 -0.2967  0.3782 -0.5766
  895MOL0     O20726  10.279   6.666   1.975 -0.1751  0.5925 -0.1349
  895MOL0     C20727  10.212   6.750   1.883  0.4932  0.6585 -0.1563
  895MOL0     C20728  10.083   6.689   1.834 -0.3746  0.9422  0.2566
  895MOL0     C20729  10.008   6.788   1.752  1.0024 -0.5118 -0.0337
  895MOL0     C20730   9.902   6.721   1.660 -0.5518  0.5851  0.4995
  895MOL0     C20731   9.808   6.812   1.584 -0.0418 -0.3858 -0.4335
  895MOL0     C20732   9.763   6.749   1.453 -0.3063  0.1036  0.9461
  895MOL0     C20733   9.675   6.624   1.474 -0.3511  0.3016  0.0437
  895MOL0     C20734   9.721   6.497   1.395 -0.2959 -0.1903 -0.3586
  895MOL0    Cl20735   9.885   6.434   1.457  0.4833 -0.1299  0.4389
  895MOL0     C20736  10.230   6.610   2.201  1.4727  0.3951  0.7161
  895MOL0     C20737  10.222   6.649   2.326  0.1356  0.2219 -0.0585
  895MOL0     O20738  10.008   6.877   2.457  0.1420 -0.0861  0.1659
  895MOL0     C20739  10.204   6.940   2.750  0.4652  0.4848  1.2352
  895MOL0     C20740  10.196   7.001   2.878  0.1483  0.0211  0.9026
  895MOL0     N20741  10.257   7.451   3.549 -0.0443  0.6941 -0.4470
  895MOL0     N20742  10.293   7.552   3.621  0.1572  0.0513 -0.0674
  895MOL0     C20743  10.245   8.299   4.471  0.4336 -0.0592  0.3362
  895MOL0     C20744  10.282   8.408   4.561 -0.7414  0.1236 -0.8147
  895MOL0     C20745  10.284   8.639   4.965 -0.1528  1.5943  1.3708
  895MOL0     C20746  10.158   8.674   5.013  0.5573 -1.1213 -0.3064
  895MOL0     C20747  10.141   8.742   5.138  0.5149 -0.5506  0.0285
  895MOL0     C20748  10.247   8.751   5.223  0.6912 -0.0665 -0.4530
  895MOL0     O20749  10.222   8.778   5.355  0.4372 -0.6025  0.4341
  895MOL0     C20750  10.327   8.781   5.447  0.3918 -0.2487  0.2343
  895MOL0     C20751  10.267   8.799   5.586  0.4827  0.4531 -0.0279
  895MOL0     C20752  10.363   8.786   5.701  0.5823  0.1892  1.6207
  895MOL0     C20753  10.401   8.928   5.737  0.1750 -0.6566 -0.3357
  895MOL0     C20754  10.491   8.944   5.861  0.8394  0.5611  0.6110
  895MOL0     C20755  10.581   8.972   5.945 -0.3457  0.6748  0.0857
  895MOL0     C20756  10.377   8.725   5.168  0.4598  0.1080 -0.4691
  895MOL0     C20757  10.393   8.682   5.040 -0.6974 -0.0944 -0.7612
  895MOL0     H20758  10.004   8.374   4.751  0.6094  3.0999 -0.3760
  895MOL0     H20759   9.936   8.236   4.569 -1.3111  1.1857 -2.4065
  895MOL0     H20760  10.189   7.990   4.497  1.3900  2.9001 -2.0361
  895MOL0     H20761  10.013   7.973   4.505 -0.1523  1.5013  1.4010
  895MOL0     H20762  10.094   7.809   4.354 -2.0480 -0.6457 -3.0611
  895MOL0     H20763  10.003   7.917   4.268 -0.1481  1.4876  0.9152
  895MOL0     H20764  10.242   8.043   4.251 -0.8113  0.1392  0.8711
  895MOL0     H20765  10.291   7.873   4.272 -0.4891  0.1353  1.7601
  895MOL0     H20766  10.130   7.982   4.030  1.3843  0.7681 -0.4901
  895MOL0     H20767  10.287   7.900   4.021 -0.7300 -0.7320 -1.5962
  895MOL0     H20768  10.169   7.700   4.135 -1.3044 -1.1874 -0.1869
  895MOL0     H20769  10.020   7.789   4.076 -0.3503 -0.5807 -1.0745
  895MOL0     H20770  10.262   7.679   3.929 -0.7133 -1.7205  1.8984
  895MOL0     H20771  10.095   7.640   3.926  0.6570 -1.1586  2.0457
  895MOL0     H20772  10.016   7.791   3.795  0.7267 -2.6834  1.6114
  895MOL0     H20773  10.134   7.920   3.819 -1.4444  1.1431 -0.6119
  895MOL0     H20774  10.311   7.782   3.691 -0.4704  0.5697  1.8930
  895MOL0     H20775  10.165   7.818   3.600  2.9957 -0.3986 -0.8100
  895MOL0     H20776   9.975   7.613   3.558  0.4087  0.3727 -1.7789
  895MOL0     H20777   9.982   7.307   3.491 -0.5931  1.9372  1.3421
  895MOL0     H20778   9.961   7.440   3.387  2.1707  1.9703 -0.8823
  895MOL0     H20779  10.202   7.243   3.387  0.2886 -1.4543 -1.1074
  895MOL0     H20780  10.173   7.372   3.264 -2.4458  0.8439 -0.9549
  895MOL0     H20781   9.949   7.289   3.216  0.8959  0.5897  1.6692
  895MOL0     H20782   9.982   7.139   3.304 -2.2898 -1.0772 -2.7522
  895MOL0     H20783  10.177   7.076   3.181 -0.5825 -1.0555 -0.9732
  895MOL0     H20784  10.170   7.224   3.082 -0.8547  1.0463  1.1222
  895MOL0     H20785   9.856   6.984   2.909 -1.0297  1.5505 -1.7220
  895MOL0     H20786   9.816   6.971   2.572 -0.9124  0.0626  1.7826
  895MOL0     H20787   9.825   6.805   2.613 -0.8289  0.7201 -2.9350
  895MOL0     H20788   9.740   6.923   2.728 -2.5471  2.0876 -2.1125
  895MOL0     H20789  10.326   6.972   2.316 -0.1576  1.0130 -1.5653
  895MOL0     H20790  10.335   6.909   2.077  1.9064  2.2257  2.6256
  895MOL0     H20791  10.186   6.849   1.922 -2.9038  0.0808 -0.6314
  895MOL0     H20792  10.280   6.760   1.798 -1.1602 -4.4123 -2.4361
  895MOL0     H20793  10.104   6.602   1.770 -0.1048  1.9250 -1.0201
  895MOL0     H20794  10.023   6.639   1.912 -1.3652 -1.5174 -1.9327
  895MOL0     H20795  10.075   6.854   1.697  0.5349 -1.1997 -1.4690
  895MOL0     H20796   9.951   6.857   1.815 -2.0863 -2.4272 -0.5123
  895MOL0     H20797   9.948   6.649   1.592 -0.3110 -0.0711  1.3416
  895MOL0     H20798   9.840   6.656   1.723 -2.5148 -0.2405 -2.0882
  895MOL0     H20799   9.858   6.908   1.568 -2.1382  0.3234 -3.6730
  895MOL0     H20800   9.719   6.834   1.643  0.5888 -2.0606  1.2547
  895MOL0     H20801   9.704   6.824   1.400 -0.6052 -0.0134  1.1108
  895MOL0     H20802   9.850   6.728   1.390  1.6853  0.0460  3.5572
  895MOL0     H20803   9.581   6.642   1.421  1.5273 -0.5717 -3.9793
  895MOL0     H20804   9.659   6.606   1.581  1.3151  0.8013  0.4020
  895MOL0     H20805   9.715   6.505   1.286  3.9856 -3.8199 -1.1440
  895MOL0     H20806   9.646   6.418   1.406  0.3830 -0.8796 -0.5538
  895MOL0     H20807  10.179   6.519   2.168  0.3761  1.5147 -0.8201
  895MOL0     H20808  10.175   6.577   2.392 -1.3759 -0.8058 -2.1703
  895MOL0     H20809  10.303   6.926   2.707  0.1968 -1.8948  1.2793
  895MOL0     H20810  10.285   7.041   2.925 -0.4489  0.1606  1.9373
  895MOL0     H20811  10.315   8.290   4.388  1.2788 -1.0960  1.1282
  895MOL0     H20812  10.372   8.461   4.534 -0.9264 -0.1934 -2.1391
  895MOL0     H20813  10.072   8.645   4.954 -0.6600  2.5404 -0.5736
  895MOL0     H20814  10.048   8.775   5.185  1.7243  5.0496 -0.8273
  895MOL0     H20815  10.392   8.693   5.439  0.5097 -0.1290 -0.1698
  895MOL0     H20816  10.384   8.874   5.436  1.8767 -1.2449 -1.0017
  895MOL0     H20817  10.195   8.718   5.602  0.3586  0.8257  1.4673
  895MOL0     H20818  10.202   8.887   5.585 -0.0300  0.0993 -1.6693
  895MOL0     H20819  10.445   8.718   5.679 -0.0430 -0.1520  0.2404
  895MOL0     H20820  10.311   8.748   5.790  0.4511 -0.9075  1.0877
  895MOL0     H20821  10.306   8.978   5.758  0.5434 -0.4193  0.8151
  895MOL0     H20822  10.445   8.984   5.654  0.1947 -0.4747 -0.2044
  895MOL0     H20823  10.668   8.987   6.006  0.0826  3.1907 -1.0052
  895MOL0     H20824  10.463   8.721   5.233  1.9728 -0.0025 -2.3813
  895MOL0     H20825  10.494   8.658   5.010 -0.8136  0.4029 -1.5930
  896MOL0     O20826  10.461   0.561   5.714  0.2308 -0.4608 -0.0311
  896MOL0     C20827  10.423   0.656   5.781  0.0895  0.1453 -0.1910
  896MOL0     O20828  10.449   0.792   5.759  0.4334 -0.1463 -0.2519
  896MOL0     C20829  10.518   0.837   5.650  0.0069 -0.2978 -0.1585
  896MOL0     C20830  10.543   0.781   5.525  0.4504 -0.1435  0.7682
  896MOL0     C20831  10.618   0.850   5.421  0.7829 -1.0486  0.1183
  896MOL0     C20832  10.661   0.984   5.447 -0.1178 -0.4269  0.1091
  896MOL0     O20833  10.733   1.051   5.347 -0.3194  0.1423  0.0293
  896MOL0     C20834  10.718   1.197   5.341  0.1462 -0.5241  0.3477
  896MOL0     C20835  10.618   1.241   5.227  0.5629 -0.4059  0.6221
  896MOL0     C20836  10.683   1.241   5.086 -0.1547 -0.8976  0.7179
  896MOL0     C20837  10.604   1.315   4.976  0.4187 -0.4985 -0.2953
  896MOL0     C20838  10.684   1.329   4.847 -0.0148 -0.5849  0.8175
  896MOL0     C20839  10.593   1.368   4.737 -0.4923 -0.2889  0.8742
  896MOL0     C20840  10.670   1.378   4.599  0.6508 -0.2290 -0.5227
  896MOL0     C20841  10.772   1.490   4.579 -0.1299  0.1574  0.2680
  896MOL0     N20842  10.703   1.616   4.576  0.0215 -0.4807  0.5512
  896MOL0     C20843  10.585   1.648   4.513 -0.1375  0.4737 -0.6228
  896MOL0     C20844  10.576   1.785   4.521  0.0518 -0.0240 -0.4634
  896MOL0     C20845  10.479   1.874   4.452 -0.0752 -0.2929 -0.2841
  896MOL0     C20846  10.343   1.802   4.456 -0.1571  0.1876 -0.6959
  896MOL0     C20847  10.225   1.892   4.435 -0.1792 -0.1561  0.8072
  896MOL0     C20848  10.218   1.939   4.297  0.1403  0.1965  1.3057
  896MOL0     O20849  10.084   1.982   4.272  0.1762  0.3787  0.6504
  896MOL0     C20850  10.061   2.003   4.142 -0.2210 -0.6893  0.0297
  896MOL0     C20851   9.924   2.000   4.098  0.1433 -0.4547 -0.2986
  896MOL0     C20852   9.882   2.040   3.969  0.6164  0.1753  0.1560
  896MOL0     C20853   9.731   2.063   3.935 -0.4911  0.6136 -0.8065
  896MOL0     C20854   9.979   2.092   3.884  0.1993  0.0956  0.1288
  896MOL0     C20855   9.957   2.158   3.751  0.7443  0.5226 -0.6655
  896MOL0     O20856   9.986   2.289   3.748  0.2302  0.5705  0.8754
  896MOL0     C20857   9.986   2.359   3.623 -0.1896  0.8907 -0.2043
  896MOL0     C20858   9.942   2.491   3.626 -0.9404 -1.1035  0.6099
  896MOL0     C20859   9.942   2.578   3.515  0.0282 -0.3343 -0.6911
  896MOL0     C20860   9.983   2.537   3.395  0.1960  1.2631  0.4198
  896MOL0     O20861   9.976   2.616   3.284  0.2132  0.6246  0.5232
  896MOL0     C20862   9.859   2.602   3.197 -0.3688  0.2059  0.3096
  896MOL0     C20863   9.883   2.601   3.047 -0.3233 -0.1064 -0.2476
  896MOL0     C20864   9.896   2.460   2.979  0.9425  0.0141 -0.2491
  896MOL0     C20865  10.018   2.441   2.894  0.4489 -0.0909  0.1037
  896MOL0     C20866  10.024   2.300   2.822 -0.8085 -0.8014  0.4665
  896MOL0     C20867  10.162   2.276   2.758  0.7915  0.3593 -0.1709
  896MOL0     C20868  10.140   2.179   2.637 -0.3145 -0.5736  0.2337
  896MOL0     C20869  10.136   2.037   2.691 -0.7515 -0.1576  0.0409
  896MOL0    Cl20870  10.284   1.993   2.774 -0.2775  0.1499  0.2031
  896MOL0     C20871  10.049   2.408   3.386  1.4916 -0.4325 -0.7177
  896MOL0     C20872  10.040   2.314   3.495  0.0812  0.3865 -0.1488
  896MOL0     O20873   9.883   2.101   3.665  0.2354 -0.3838  0.0742
  896MOL0     C20874  10.114   2.089   3.918  0.0934  0.7067 -0.2095
  896MOL0     C20875  10.156   2.029   4.038 -0.0316  0.0563  0.1666
  896MOL0     N20876  10.684   1.834   4.588  0.6226  0.6157  0.9673
  896MOL0     N20877  10.764   1.731   4.611 -0.2032 -0.0188  0.7644
  896MOL0     C20878  10.623   1.044   5.568  0.2228 -0.8743 -0.1679
  896MOL0     C20879  10.562   0.965   5.666  0.6068  0.1307 -0.8358
  896MOL0     C20880  10.341   0.641   5.905 -0.0882  0.5619  0.0077
  896MOL0     C20881  10.267   0.742   5.959 -0.2771 -0.5154 -0.1376
  896MOL0     C20882  10.176   0.714   6.064 -0.0178  0.4442  0.2249
  896MOL0     C20883  10.163   0.593   6.113  0.1777  0.2259  0.6005
  896MOL0     O20884  10.073   0.576   6.221  0.1689 -0.1766 -0.1109
  896MOL0     C20885   9.953   0.511   6.176  0.0220  0.4442  0.6588
  896MOL0     C20886   9.850   0.548   6.284  0.5594 -0.8572  0.0233
  896MOL0     C20887   9.860   0.500   6.424  0.9502  0.5843  0.3627
  896MOL0     C20888   9.738   0.552   6.513 -0.5915 -1.0957 -0.2222
  896MOL0     C20889   9.749   0.471   6.633 -0.1033 -0.0649 -0.1217
  896MOL0     C20890   9.746   0.406   6.734  1.1552  0.7255 -0.3354
  896MOL0     C20891  10.238   0.488   6.063 -0.4904 -0.1157 -0.4116
  896MOL0     C20892  10.331   0.509   5.958 -0.0642  0.0666  0.0943
  896MOL0     H20893  10.501   0.686   5.495  1.7057 -0.1436 -1.2085
  896MOL0     H20894  10.641   0.796   5.329  3.7895  1.1879 -0.5819
  896MOL0     H20895  10.684   1.238   5.437  0.0726 -1.9575  0.9627
  896MOL0     H20896  10.818   1.240   5.328  0.3147 -1.2976 -1.0538
  896MOL0     H20897  10.529   1.179   5.236  1.4929 -1.5126  3.1863
  896MOL0     H20898  10.583   1.342   5.250  0.5306 -0.7521  2.1729
  896MOL0     H20899  10.783   1.280   5.109  0.3464 -1.5918 -0.2132
  896MOL0     H20900  10.690   1.138   5.052  2.0884 -0.1475 -1.4047
  896MOL0     H20901  10.524   1.242   4.958  1.3091 -1.3301 -0.9762
  896MOL0     H20902  10.570   1.408   5.022  1.8657  0.6974 -1.5471
  896MOL0     H20903  10.758   1.405   4.871 -1.0908  0.1945  1.7533
  896MOL0     H20904  10.737   1.238   4.817  3.6120  1.8130 -0.8058
  896MOL0     H20905  10.510   1.300   4.717  0.4388 -0.8375 -1.3885
  896MOL0     H20906  10.541   1.461   4.764  1.2108  0.3950  1.9540
  896MOL0     H20907  10.705   1.279   4.569  0.6039  0.1315 -1.8302
  896MOL0     H20908  10.586   1.399   4.532 -1.1921  0.6551  1.9236
  896MOL0     H20909  10.823   1.474   4.484  2.5352 -2.5855  2.0082
  896MOL0     H20910  10.851   1.503   4.654 -0.5820 -0.4667  0.8628
  896MOL0     H20911  10.514   1.581   4.465 -0.8574  1.8999 -1.6345
  896MOL0     H20912  10.470   1.956   4.524  2.9344 -1.5744  1.7692
  896MOL0     H20913  10.508   1.904   4.351  3.9895  0.3043  0.8548
  896MOL0     H20914  10.323   1.760   4.555  1.5699  0.0962 -0.3511
  896MOL0     H20915  10.335   1.722   4.381 -1.3549 -1.3567  1.0074
  896MOL0     H20916  10.231   1.976   4.505  4.5098  0.7533 -0.3476
  896MOL0     H20917  10.133   1.843   4.469 -2.9648  1.9130 -3.0634
  896MOL0     H20918  10.232   1.857   4.226  0.0187 -0.2920  1.8343
  896MOL0     H20919  10.288   2.016   4.265 -2.2193  2.5256  1.4168
  896MOL0     H20920   9.855   1.984   4.179 -1.2157  2.4343 -0.7678
  896MOL0     H20921   9.668   2.013   4.009 -1.3204  0.8374 -1.3393
  896MOL0     H20922   9.695   2.165   3.953 -0.9048  0.1159  1.5366
  896MOL0     H20923   9.706   2.022   3.837  0.6876  0.1276 -0.9215
  896MOL0     H20924   9.921   2.537   3.722  0.6837 -0.6329  0.7696
  896MOL0     H20925   9.896   2.677   3.520  1.3143  0.3464 -1.6586
  896MOL0     H20926   9.815   2.505   3.224 -0.8501  0.7809  1.7074
  896MOL0     H20927   9.784   2.678   3.221 -1.4730  0.5831 -3.6422
  896MOL0     H20928   9.795   2.649   3.001 -1.3577 -1.5708  0.1213
  896MOL0     H20929   9.976   2.648   3.015  1.1046 -1.0023  2.3348
  896MOL0     H20930   9.804   2.461   2.920  0.3238  3.3180  0.5399
  896MOL0     H20931   9.887   2.372   3.043 -2.2749  0.4061  0.0057
  896MOL0     H20932  10.019   2.519   2.817 -0.4064 -3.2043 -3.3882
  896MOL0     H20933  10.104   2.452   2.960  0.3636 -1.7997  0.5511
  896MOL0     H20934   9.946   2.302   2.746 -1.2091 -0.9149  0.8667
  896MOL0     H20935  10.002   2.218   2.890 -2.6405  0.0443  0.9597
  896MOL0     H20936  10.208   2.370   2.724  1.9131  0.2923  1.0868
  896MOL0     H20937  10.233   2.234   2.830  0.0669 -0.5270  0.0308
  896MOL0     H20938  10.229   2.193   2.575 -0.2377 -4.3557 -0.7655
  896MOL0     H20939  10.050   2.207   2.581 -0.2642  1.2559  1.0009
  896MOL0     H20940  10.141   1.971   2.604 -2.6795  1.2530 -1.2192
  896MOL0     H20941  10.050   2.015   2.755  1.2394  1.5242  3.6484
  896MOL0     H20942  10.095   2.392   3.289 -0.0592 -0.8132 -1.4274
  896MOL0     H20943  10.097   2.223   3.482  0.5916  0.0891  3.2699
  896MOL0     H20944  10.179   2.134   3.844 -0.7969  0.0935 -1.3956
  896MOL0     H20945  10.263   2.041   4.048 -0.0160  0.1520 -0.1228
  896MOL0     H20946  10.650   1.142   5.607 -0.3842 -1.3927  1.6790
  896MOL0     H20947  10.547   1.006   5.765  1.7923 -1.0702 -0.1308
  896MOL0     H20948  10.259   0.840   5.914  1.9860 -1.0764 -1.9546
  896MOL0     H20949  10.124   0.786   6.126  0.1914 -1.5653  2.8833
  896MOL0     H20950   9.927   0.564   6.083 -0.9984  1.1881  1.3468
  896MOL0     H20951   9.972   0.404   6.161 -2.4510 -0.2911  2.1821
  896MOL0     H20952   9.752   0.513   6.250 -1.7751  1.0926  4.0433
  896MOL0     H20953   9.848   0.657   6.292 -0.1301 -0.9029  0.5260
  896MOL0     H20954   9.961   0.519   6.463  0.2315  0.2161  2.5453
  896MOL0     H20955   9.853   0.392   6.405  0.1832  0.4660  1.2763
  896MOL0     H20956   9.645   0.518   6.465 -2.6680 -2.3740  4.1135
  896MOL0     H20957   9.735   0.659   6.533 -1.0191 -1.0574 -0.4719
  896MOL0     H20958   9.753   0.343   6.820 -1.5314  3.1743  1.9142
  896MOL0     H20959  10.236   0.389   6.108 -0.3406 -0.2436 -0.6827
  896MOL0     H20960  10.384   0.429   5.907 -1.2598 -2.1194  2.0911
  897MOL0     O20961   1.233   3.255   6.415 -0.5551  0.7781 -0.0681
  897MOL0     C20962   1.265   3.208   6.521 -0.0478  0.0322  0.0851
  897MOL0     O20963   1.388   3.234   6.591  0.4778  0.3240 -0.4036
  897MOL0     C20964   1.491   3.278   6.517 -0.2753  0.2697  0.0388
  897MOL0     C20965   1.613   3.205   6.526  0.4248 -0.8070  0.1355
  897MOL0     C20966   1.722   3.243   6.452 -0.0282  0.5356  0.6320
  897MOL0     C20967   1.720   3.356   6.369  0.0292 -0.2821 -0.4746
  897MOL0     O20968   1.832   3.392   6.292 -0.4546  0.4528 -0.1537
  897MOL0     C20969   1.958   3.341   6.332  0.7459  0.7255 -1.0299
  897MOL0     C20970   2.068   3.404   6.255 -0.5267 -0.5575  0.1287
  897MOL0     C20971   2.035   3.419   6.108 -1.0843 -0.0657  0.2037
  897MOL0     C20972   2.029   3.299   6.018 -0.0751  0.2373  0.2934
  897MOL0     C20973   1.894   3.219   5.999  0.0841  0.1745 -0.5048
  897MOL0     C20974   1.790   3.288   5.914  0.6796  0.3211 -0.0834
  897MOL0     C20975   1.683   3.190   5.836 -0.3113  0.5098 -0.5107
  897MOL0     C20976   1.603   3.104   5.931 -1.1570 -0.0634 -1.2990
  897MOL0     N20977   1.510   3.015   5.862  0.1298 -0.2725  0.4491
  897MOL0     C20978   1.385   2.987   5.914 -0.2497  0.9103  1.0311
  897MOL0     C20979   1.327   2.910   5.810 -1.6950 -0.1894 -0.1255
  897MOL0     C20980   1.190   2.847   5.778 -0.2547 -0.4061 -0.1136
  897MOL0     C20981   1.079   2.880   5.871 -0.9763 -0.3207 -0.8652
  897MOL0     C20982   1.014   3.006   5.830  1.0636 -0.3223 -0.0762
  897MOL0     C20983   1.105   3.141   5.822  0.4671  0.1307  0.0096
  897MOL0     O20984   1.147   3.173   5.957  0.5817  0.5053  0.3457
  897MOL0     C20985   1.215   3.287   5.982 -0.6125  1.1918  0.0549
  897MOL0     C20986   1.308   3.342   5.899  0.3671 -0.0141 -0.1219
  897MOL0     C20987   1.379   3.461   5.935 -0.2150 -0.1508  0.7767
  897MOL0     C20988   1.458   3.527   5.830 -0.4063  0.0489  0.5472
  897MOL0     C20989   1.357   3.514   6.066 -1.0335  0.2300  0.1224
  897MOL0     C20990   1.431   3.631   6.122  1.0891 -0.5960  1.2464
  897MOL0     O20991   1.547   3.667   6.066 -0.4835  0.6841 -0.1103
  897MOL0     C20992   1.602   3.788   6.076 -0.1218  0.0163  0.0922
  897MOL0     C20993   1.733   3.781   6.030 -0.2501  0.8797  0.1295
  897MOL0     C20994   1.818   3.892   6.024 -0.7338 -0.7174 -0.4578
  897MOL0     C20995   1.779   4.012   6.081 -0.1769  1.0648 -0.0958
  897MOL0     O20996   1.886   4.099   6.092 -0.0729  0.7709  0.7791
  897MOL0     C20997   1.860   4.227   6.131  0.1984 -0.9540  0.1469
  897MOL0     C20998   1.996   4.299   6.116  0.1866 -0.2466 -0.4754
  897MOL0     C20999   1.971   4.450   6.153 -0.4115 -0.2096 -0.2077
  897MOL0     C21000   1.912   4.525   6.039  0.6723 -0.6964  0.9283
  897MOL0     C21001   1.946   4.674   6.064  0.1151 -0.4328  0.7153
  897MOL0     C21002   1.862   4.748   5.969 -0.2461  0.1639  0.9114
  897MOL0     C21003   1.883   4.897   6.006  0.0013 -0.1190 -0.0826
  897MOL0     C21004   1.800   4.997   5.929  0.1612 -0.7555  1.1290
  897MOL0    Cl21005   1.824   4.987   5.752  0.0139  0.1740 -0.6163
  897MOL0     C21006   1.650   4.019   6.138  0.5958  0.3096  0.3803
  897MOL0     C21007   1.563   3.906   6.138 -0.1288  0.5913  0.0330
  897MOL0     O21008   1.384   3.687   6.216 -0.5002 -0.5828 -0.2278
  897MOL0     C21009   1.262   3.449   6.150 -0.3944 -0.1161 -0.7221
  897MOL0     C21010   1.187   3.343   6.105 -0.3134  0.1705 -0.4315
  897MOL0     N21011   1.428   2.873   5.724 -0.0141  0.8049 -1.0336
  897MOL0     N21012   1.538   2.940   5.755  0.7135  0.2971 -0.6253
  897MOL0     C21013   1.595   3.429   6.366 -0.8293  0.0890 -0.5606
  897MOL0     C21014   1.480   3.393   6.438  0.4620 -0.2695  0.2120
  897MOL0     C21015   1.150   3.142   6.587 -1.0228  0.0832  0.3871
  897MOL0     C21016   1.169   3.033   6.677 -0.2059  0.6501 -0.3871
  897MOL0     C21017   1.063   2.975   6.741 -0.2565  0.5276  0.0231
  897MOL0     C21018   0.937   3.021   6.739 -0.2197 -0.7624  0.2832
  897MOL0     O21019   0.835   2.968   6.815  0.3497  0.2772  0.1219
  897MOL0     C21020   0.709   3.034   6.835  0.5412 -0.0396 -0.0670
  897MOL0     C21021   0.724   3.162   6.925 -0.5492  0.4372 -0.2001
  897MOL0     C21022   0.587   3.212   6.977 -0.3013 -0.1864 -0.3321
  897MOL0     C21023   0.529   3.333   6.913 -0.6854 -0.3007  0.0626
  897MOL0     C21024   0.523   3.339   6.770 -0.2050  0.5818  0.2774
  897MOL0     C21025   0.521   3.340   6.647  0.4533  0.6701 -0.0387
  897MOL0     C21026   0.920   3.141   6.660 -0.1409 -0.1738  1.1949
  897MOL0     C21027   1.025   3.208   6.579 -0.2257  1.3893 -0.5184
  897MOL0     H21028   1.634   3.127   6.598  2.6809 -1.6239 -1.2991
  897MOL0     H21029   1.797   3.165   6.448 -1.0773 -0.4733  0.1446
  897MOL0     H21030   1.980   3.366   6.436  1.1310  0.0333 -0.9356
  897MOL0     H21031   1.962   3.234   6.309 -3.2537  0.0444  0.6188
  897MOL0     H21032   2.083   3.511   6.276  0.5477 -0.7865  0.6075
  897MOL0     H21033   2.169   3.363   6.264 -1.0627 -1.9111  0.0719
  897MOL0     H21034   1.968   3.498   6.072  0.2243  1.1049  0.2998
  897MOL0     H21035   2.125   3.472   6.076 -0.4487 -1.6918 -0.8544
  897MOL0     H21036   2.065   3.338   5.922 -1.5176  1.9925  0.3907
  897MOL0     H21037   2.099   3.227   6.061 -0.6741 -0.1171  0.6786
  897MOL0     H21038   1.918   3.128   5.943 -1.1753 -1.8727  2.0686
  897MOL0     H21039   1.844   3.207   6.095 -0.8297  3.3987 -0.4736
  897MOL0     H21040   1.737   3.359   5.978 -1.5006 -1.5034  0.2678
  897MOL0     H21041   1.841   3.339   5.831 -0.0457 -1.3206 -1.6308
  897MOL0     H21042   1.609   3.245   5.776  0.0809  1.4880 -0.1147
  897MOL0     H21043   1.733   3.123   5.765 -3.5796 -2.3607 -0.3719
  897MOL0     H21044   1.546   3.166   6.001  1.2031 -1.3457  2.0510
  897MOL0     H21045   1.662   3.042   5.999 -0.7330  1.2256 -0.4529
  897MOL0     H21046   1.336   2.998   6.010 -0.6738 -0.2227  0.9626
  897MOL0     H21047   1.152   2.867   5.677  0.1598  0.0872 -0.1778
  897MOL0     H21048   1.212   2.740   5.778 -0.3132 -0.4183  0.2216
  897MOL0     H21049   1.108   2.898   5.975 -0.5974  1.1539 -1.2063
  897MOL0     H21050   1.012   2.793   5.872  0.2040 -1.2594  0.3250
  897MOL0     H21051   0.925   3.020   5.891  0.8163 -1.1729 -0.2286
  897MOL0     H21052   0.963   3.006   5.733 -3.3530  1.4763  1.9606
  897MOL0     H21053   1.036   3.222   5.795 -1.6525 -1.2961  0.9027
  897MOL0     H21054   1.191   3.121   5.757  1.6669  0.7420  1.3558
  897MOL0     H21055   1.309   3.292   5.803 -3.6159  1.1866 -1.0005
  897MOL0     H21056   1.437   3.633   5.812 -0.4413  0.2621  1.7616
  897MOL0     H21057   1.561   3.522   5.866  0.3981  2.1496 -1.2523
  897MOL0     H21058   1.453   3.474   5.735  0.9453  2.0703 -0.7178
  897MOL0     H21059   1.769   3.686   5.992  0.3855 -0.2778  3.3597
  897MOL0     H21060   1.921   3.895   5.991 -1.5580  3.4874 -3.5885
  897MOL0     H21061   1.778   4.266   6.069  1.2031 -0.6728 -1.0582
  897MOL0     H21062   1.834   4.231   6.237 -3.5226 -3.5207 -0.4536
  897MOL0     H21063   2.067   4.250   6.184  0.3146  0.6288  0.0405
  897MOL0     H21064   2.039   4.288   6.015  2.2453 -1.2840  0.4475
  897MOL0     H21065   2.062   4.501   6.187 -0.5994  1.4985 -2.0665
  897MOL0     H21066   1.906   4.462   6.240  0.3698  4.3325 -0.0257
  897MOL0     H21067   1.963   4.507   5.944 -0.9905 -0.4032 -0.0617
  897MOL0     H21068   1.806   4.502   6.026  0.7753  0.2333 -2.5060
  897MOL0     H21069   2.053   4.694   6.052  0.3416 -1.9776 -0.1334
  897MOL0     H21070   1.913   4.711   6.162 -0.1206  0.3121  0.3604
  897MOL0     H21071   1.901   4.730   5.869 -1.8370 -0.9005  0.4417
  897MOL0     H21072   1.754   4.729   5.966 -0.0623 -0.8714  0.2756
  897MOL0     H21073   1.990   4.908   5.984 -0.3372 -0.8455 -2.4024
  897MOL0     H21074   1.874   4.912   6.114  1.6310  4.0813 -0.3389
  897MOL0     H21075   1.838   5.095   5.960 -3.2285 -0.3304  4.6607
  897MOL0     H21076   1.692   4.990   5.942 -0.5698  2.7067 -1.5329
  897MOL0     H21077   1.624   4.119   6.172 -0.7116  1.2548 -3.0074
  897MOL0     H21078   1.467   3.929   6.183 -0.8833 -1.1380 -0.5886
  897MOL0     H21079   1.244   3.480   6.252  0.9081 -3.2677  0.5863
  897MOL0     H21080   1.128   3.294   6.182  2.4030  1.0691  2.4400
  897MOL0     H21081   1.601   3.517   6.303  1.4492  0.7597  0.4538
  897MOL0     H21082   1.385   3.446   6.440  1.5848  1.8665  0.3428
  897MOL0     H21083   1.272   3.012   6.708 -0.2987  1.1219  0.2737
  897MOL0     H21084   1.067   2.880   6.794 -1.1374 -0.7690 -2.0970
  897MOL0     H21085   0.670   3.050   6.734 -2.0849 -3.1636  0.2922
  897MOL0     H21086   0.652   2.968   6.901 -1.9408  2.1766  0.2191
  897MOL0     H21087   0.778   3.242   6.874  1.6655 -0.0791  1.1822
  897MOL0     H21088   0.775   3.125   7.014  0.1060  2.3191  0.2457
  897MOL0     H21089   0.600   3.215   7.085 -3.0913 -2.0312  0.1461
  897MOL0     H21090   0.507   3.139   6.963 -0.6773  0.5531 -2.4245
  897MOL0     H21091   0.586   3.414   6.961  0.2087 -1.8817  1.8010
  897MOL0     H21092   0.428   3.339   6.955 -0.4857 -2.9385  1.1197
  897MOL0     H21093   0.505   3.337   6.541 -0.8312 -1.4862  0.1573
  897MOL0     H21094   0.818   3.177   6.650  0.1475  0.2610 -0.5743
  897MOL0     H21095   0.992   3.289   6.515 -2.8207 -0.4716 -1.7137
  898MOL0     O21096   8.161   5.969   9.357 -0.5674  0.5381  0.6547
  898MOL0     C21097   8.165   5.855   9.420 -0.2866 -0.3319 -1.2646
  898MOL0     O21098   8.075   5.752   9.410  0.7944  0.1633  0.3893
  898MOL0     C21099   7.972   5.770   9.324 -0.3816 -0.3856 -0.5216
  898MOL0     C21100   7.865   5.856   9.355  0.0515 -0.1985 -0.2345
  898MOL0     C21101   7.765   5.875   9.257  0.6227 -0.4202  0.5837
  898MOL0     C21102   7.771   5.800   9.133  0.3056 -0.1651  0.7175
  898MOL0     O21103   7.686   5.819   9.021  0.4147 -0.2906 -0.0239
  898MOL0     C21104   7.579   5.919   9.021 -1.7746 -0.4292  0.5542
  898MOL0     C21105   7.474   5.904   9.121 -0.4303 -0.2957 -0.5499
  898MOL0     C21106   7.327   5.946   9.073 -0.7606  0.5999  0.2452
  898MOL0     C21107   7.232   5.859   9.152  0.7168  0.0726 -0.9402
  898MOL0     C21108   7.083   5.871   9.119 -0.4675 -0.5185  0.5425
  898MOL0     C21109   6.996   5.805   9.227 -0.3411  0.6054 -0.6272
  898MOL0     C21110   6.867   5.769   9.165 -0.8746 -0.8653 -0.6931
  898MOL0     C21111   6.773   5.689   9.261 -0.3696  0.1286  0.4688
  898MOL0     N21112   6.697   5.583   9.198  0.6953  0.7377  0.5829
  898MOL0     C21113   6.745   5.461   9.167 -1.0107  0.5184 -0.3783
  898MOL0     C21114   6.649   5.377   9.131 -0.5752 -0.1588 -0.0201
  898MOL0     C21115   6.672   5.242   9.057  0.9531  0.3354  0.6105
  898MOL0     C21116   6.617   5.126   9.140  0.5992  0.5434 -0.1928
  898MOL0     C21117   6.635   4.987   9.066 -0.1559 -0.4431  0.6434
  898MOL0     C21118   6.608   4.868   9.162 -0.2137  0.7607  0.6212
  898MOL0     O21119   6.472   4.879   9.194 -0.5271  0.1332  0.3706
  898MOL0     C21120   6.377   4.781   9.161  1.8019  0.4820  0.2463
  898MOL0     C21121   6.388   4.705   9.048  0.1623 -0.6918 -0.0004
  898MOL0     C21122   6.287   4.615   9.005 -0.9279 -0.8879 -0.7365
  898MOL0     C21123   6.302   4.530   8.875 -1.2134  0.5390  0.4361
  898MOL0     C21124   6.185   4.596   9.094 -0.4053  0.1690  0.1136
  898MOL0     C21125   6.067   4.498   9.070  0.0978  0.4103  0.4774
  898MOL0     O21126   5.945   4.527   9.129 -0.7836 -0.0565  0.7410
  898MOL0     C21127   5.840   4.446   9.083  0.4408  0.0310 -0.3714
  898MOL0     C21128   5.744   4.484   8.985  0.1079 -0.1597 -0.0362
  898MOL0     C21129   5.636   4.405   8.951  0.4087  0.3541 -1.4921
  898MOL0     C21130   5.604   4.295   9.031  0.3005 -0.1394 -0.8822
  898MOL0     O21131   5.491   4.219   9.011  0.6797  0.2902 -0.0588
  898MOL0     C21132   5.405   4.249   8.908 -0.3553 -0.5852  0.4396
  898MOL0     C21133   5.289   4.146   8.899  0.7425  0.2325  0.2997
  898MOL0     C21134   5.187   4.194   8.787 -0.0410 -0.0009 -0.4275
  898MOL0     C21135   5.251   4.202   8.650  0.7443  0.0977 -0.4855
  898MOL0     C21136   5.147   4.218   8.545  0.3208  0.2448  0.5946
  898MOL0     C21137   5.044   4.326   8.568 -0.1628 -0.6799  0.6638
  898MOL0     C21138   4.965   4.360   8.444 -0.0461 -0.5343 -0.2169
  898MOL0     C21139   4.911   4.238   8.370  0.9096  0.3388 -0.4131
  898MOL0    Cl21140   4.796   4.290   8.238  0.4375 -0.2658 -0.7517
  898MOL0     C21141   5.694   4.246   9.122 -0.3472  0.9199  0.5730
  898MOL0     C21142   5.811   4.324   9.149 -0.0016 -0.9298 -0.7879
  898MOL0     O21143   6.087   4.403   9.000 -0.0111  1.2201 -0.9949
  898MOL0     C21144   6.170   4.671   9.207  0.1073  0.6835  0.5521
  898MOL0     C21145   6.257   4.770   9.237  0.6210  0.5986 -0.2231
  898MOL0     N21146   6.535   5.459   9.145  0.4686  0.1919  0.7095
  898MOL0     N21147   6.557   5.576   9.186 -0.9422  0.4073  0.2244
  898MOL0     C21148   7.873   5.708   9.113 -0.0394  0.3241  0.1058
  898MOL0     C21149   7.970   5.695   9.206 -0.8353  0.8931  0.2323
  898MOL0     C21150   8.265   5.836   9.526  0.6420  0.8111 -0.4055
  898MOL0     C21151   8.264   5.742   9.626  0.1284  0.1793 -0.8554
  898MOL0     C21152   8.371   5.714   9.708 -0.3486 -0.6173  0.3440
  898MOL0     C21153   8.482   5.791   9.708  0.5708 -0.5302  0.5465
  898MOL0     O21154   8.588   5.768   9.799 -0.0171 -0.1619  0.0031
  898MOL0     C21155   8.685   5.875   9.808  0.8589  0.7502 -0.3804
  898MOL0     C21156   8.763   5.861   9.943 -0.5083 -0.2842 -0.3039
  898MOL0     C21157   8.842   5.989   9.976 -0.1249  0.5063  0.0236
  898MOL0     C21158   8.917   5.996  10.113  1.2382  0.1163  0.4298
  898MOL0     C21159   8.810   6.029  10.212  0.3685  0.9661  0.9922
  898MOL0     C21160   8.725   6.058  10.291 -0.7208  0.3392  0.8307
  898MOL0     C21161   8.481   5.906   9.612  0.0938  0.2814 -0.5166
  898MOL0     C21162   8.376   5.920   9.533  0.9206 -0.7957  0.7467
  898MOL0     H21163   7.866   5.910   9.448 -0.9856 -0.2504 -0.1812
  898MOL0     H21164   7.684   5.942   9.284  0.5560  0.0834 -0.7831
  898MOL0     H21165   7.614   6.022   9.019  1.0651 -1.3036 -0.9210
  898MOL0     H21166   7.531   5.914   8.922 -1.4457 -4.0111  0.4578
  898MOL0     H21167   7.484   5.800   9.155  1.5786 -0.0438 -0.2688
  898MOL0     H21168   7.489   5.967   9.209  0.9350 -0.7234 -0.4652
  898MOL0     H21169   7.308   6.053   9.064 -0.7106  0.6583  0.7826
  898MOL0     H21170   7.320   5.903   8.973  1.6468  2.7569 -0.9823
  898MOL0     H21171   7.255   5.753   9.141 -0.4084 -0.3963  0.8019
  898MOL0     H21172   7.246   5.879   9.259 -0.7347 -0.0472 -0.6960
  898MOL0     H21173   7.067   5.980   9.120 -3.2597 -0.8423  0.6776
  898MOL0     H21174   7.049   5.845   9.019  0.7948  2.6895 -0.8678
  898MOL0     H21175   7.035   5.708   9.261 -2.0580  0.2872  0.5779
  898MOL0     H21176   6.970   5.867   9.313 -0.2589 -1.7490  1.1833
  898MOL0     H21177   6.804   5.858   9.161 -2.8556 -1.4241  5.6243
  898MOL0     H21178   6.886   5.721   9.068  1.2684  2.1013 -1.8798
  898MOL0     H21179   6.697   5.762   9.293 -0.5044  0.2042 -0.0150
  898MOL0     H21180   6.830   5.658   9.349  1.8555 -0.8948 -1.2239
  898MOL0     H21181   6.846   5.425   9.152 -0.1724  2.8608 -0.6513
  898MOL0     H21182   6.613   5.249   8.966 -2.3438 -0.0745  2.5422
  898MOL0     H21183   6.778   5.219   9.043  0.5977 -1.4624  0.6027
  898MOL0     H21184   6.509   5.131   9.158  0.6033 -1.2753  0.5763
  898MOL0     H21185   6.663   5.122   9.239  2.8505 -2.6333 -1.2100
  898MOL0     H21186   6.732   4.991   9.014 -1.1847  0.6718 -1.3216
  898MOL0     H21187   6.559   4.988   8.987  4.0767  1.6881 -3.9681
  898MOL0     H21188   6.681   4.867   9.243  1.0334  1.0386 -0.4623
  898MOL0     H21189   6.632   4.781   9.100 -2.2549  0.9235 -0.4771
  898MOL0     H21190   6.473   4.711   8.980 -1.0849  3.6809 -1.5128
  898MOL0     H21191   6.348   4.432   8.884  0.3866  0.9058 -2.5310
  898MOL0     H21192   6.206   4.517   8.825  0.1974 -0.9177 -2.0272
  898MOL0     H21193   6.362   4.586   8.803  0.7619 -2.0151 -0.0129
  898MOL0     H21194   5.755   4.578   8.932  2.2621 -0.8641 -0.9669
  898MOL0     H21195   5.568   4.442   8.875 -1.1710  0.2547 -0.1871
  898MOL0     H21196   5.362   4.349   8.920  0.1246 -0.5980  2.7734
  898MOL0     H21197   5.469   4.264   8.821 -2.1163 -0.4790 -0.8958
  898MOL0     H21198   5.331   4.045   8.890  2.0771  0.3494  3.9076
  898MOL0     H21199   5.232   4.141   8.992 -0.8651 -1.5511 -0.6877
  898MOL0     H21200   5.146   4.292   8.813  1.4303  0.3137  0.8599
  898MOL0     H21201   5.109   4.118   8.785 -0.5121  0.4388 -3.2465
  898MOL0     H21202   5.332   4.275   8.644  0.2003  0.8696  1.0648
  898MOL0     H21203   5.289   4.103   8.625 -2.0319 -0.5845 -2.5850
  898MOL0     H21204   5.097   4.122   8.529  2.2958 -0.6360 -0.7070
  898MOL0     H21205   5.210   4.240   8.459 -0.3533 -0.7112 -0.1603
  898MOL0     H21206   4.972   4.296   8.645 -0.5615  2.1283  1.5145
  898MOL0     H21207   5.090   4.423   8.591  1.4430 -1.8868  2.9171
  898MOL0     H21208   5.026   4.415   8.371  2.5549 -0.0333  2.1917
  898MOL0     H21209   4.885   4.432   8.464  2.8765  2.3257  2.0785
  898MOL0     H21210   4.856   4.188   8.451  1.6114  1.1482  0.5981
  898MOL0     H21211   4.979   4.167   8.323  0.7890 -0.2840  0.3254
  898MOL0     H21212   5.677   4.153   9.175 -1.2552  0.1542 -1.0080
  898MOL0     H21213   5.889   4.293   9.218 -0.9554  0.7706  1.1596
  898MOL0     H21214   6.081   4.651   9.266 -0.5612 -0.5275 -0.8177
  898MOL0     H21215   6.264   4.830   9.328 -1.1557 -0.7326  0.8500
  898MOL0     H21216   7.879   5.649   9.022  0.3479 -1.8470  1.4719
  898MOL0     H21217   8.045   5.622   9.179 -0.1239  0.1869  3.6788
  898MOL0     H21218   8.169   5.693   9.644  0.3389  0.0381 -0.1243
  898MOL0     H21219   8.354   5.640   9.786  3.5936 -0.7694  1.2405
  898MOL0     H21220   8.745   5.874   9.717  1.8921 -1.9196  0.2381
  898MOL0     H21221   8.630   5.969   9.806 -3.0239 -1.3024 -2.0657
  898MOL0     H21222   8.835   5.779   9.935 -1.6902 -1.2930 -0.9893
  898MOL0     H21223   8.691   5.837  10.023 -1.5233 -0.9876 -1.3936
  898MOL0     H21224   8.755   6.055   9.979 -1.3987 -1.0337 -1.0030
  898MOL0     H21225   8.913   6.016   9.898 -0.8242 -2.3793 -1.7839
  898MOL0     H21226   9.002   6.064  10.109  2.1506 -1.0230 -0.6379
  898MOL0     H21227   8.952   5.896  10.141  1.6455  0.3843  0.8813
  898MOL0     H21228   8.654   6.081  10.367 -0.9332 -1.2671  1.1510
  898MOL0     H21229   8.560   5.981   9.612  0.0939  0.3121  0.9489
  898MOL0     H21230   8.382   6.001   9.461  0.7018  0.1702  1.7906
  899MOL0     O21231   8.776   0.014   7.507 -0.9176 -0.0415 -0.3840
  899MOL0     C21232   8.800   0.136   7.508  0.8389  0.2032  0.3932
  899MOL0     O21233   8.908   0.198   7.559  0.3918  0.4961  0.2633
  899MOL0     C21234   8.997   0.109   7.605  0.0610 -0.8959  0.5745
  899MOL0     C21235   9.046   0.127   7.733  0.2061  0.1275  0.3560
  899MOL0     C21236   9.162   0.059   7.769  0.0812  0.4016 -0.2739
  899MOL0     C21237   9.239  -0.020   7.679 -1.3336 -0.1889 -1.2116
  899MOL0     O21238   9.361  -0.071   7.724  0.0603  0.6152 -0.1929
  899MOL0     C21239   9.413  -0.180   7.643  0.0564 -0.2175  0.4947
  899MOL0     C21240   9.342  -0.313   7.673  0.3064 -0.5148 -0.3471
  899MOL0     C21241   9.333  -0.329   7.827 -0.3182  0.2778 -0.4488
  899MOL0     C21242   9.270  -0.463   7.865 -0.1717 -0.1927 -0.1120
  899MOL0     C21243   9.258  -0.448   8.017  0.3616  0.0506 -0.6674
  899MOL0     C21244   9.234  -0.585   8.090 -0.2440 -0.8988  0.0056
  899MOL0     C21245   9.294  -0.589   8.229 -0.8575  0.3516  0.1037
  899MOL0     C21246   9.272  -0.737   8.281  0.5397  0.3332  0.3123
  899MOL0     N21247   9.309  -0.750   8.421 -0.2257  0.3320  0.2414
  899MOL0     C21248   9.368  -0.865   8.471 -0.3132  0.5089 -0.2433
  899MOL0     C21249   9.372  -0.841   8.606 -0.3937  0.0226  0.3191
  899MOL0     C21250   9.406  -0.954   8.706  0.8457  0.4633 -0.0304
  899MOL0     C21251   9.384  -0.908   8.851  0.4059 -0.1283  0.5783
  899MOL0     C21252   9.429  -1.014   8.941  0.4682  0.1936 -0.0193
  899MOL0     C21253   9.446  -0.945   9.082  0.1330  0.0085 -0.6893
  899MOL0     O21254   9.529  -1.021   9.178 -0.4014 -1.2114  1.3821
  899MOL0     C21255   9.664  -1.018   9.163  0.1647  0.6413 -0.2392
  899MOL0     C21256   9.733  -0.952   9.059 -0.2574  0.2625  0.2235
  899MOL0     C21257   9.879  -0.943   9.047 -0.8158 -0.2237 -0.2939
  899MOL0     C21258   9.941  -0.875   8.923  1.0353 -0.0117  0.7128
  899MOL0     C21259   9.954  -1.021   9.139  0.6313 -0.1173 -0.5345
  899MOL0     C21260  10.100  -1.020   9.156 -0.2014  0.2700 -0.2713
  899MOL0     O21261  10.155  -1.112   9.244  0.6187  0.1518  0.2437
  899MOL0     C21262  10.290  -1.127   9.276  1.6939  0.4055  1.4531
  899MOL0     C21263  10.317  -1.160   9.419  0.1956 -0.7457 -0.2317
  899MOL0     C21264  10.444  -1.177   9.458 -0.9885  0.4413 -0.5901
  899MOL0     C21265  10.549  -1.169   9.362  0.6423  0.2937 -0.2916
  899MOL0     O21266  10.673  -1.165   9.420  0.5169 -0.5504 -0.3568
  899MOL0     C21267  10.774  -1.073   9.381 -0.2118 -0.8978 -0.1392
  899MOL0     C21268  10.910  -1.120   9.411 -0.2341 -0.2632 -0.2207
  899MOL0     C21269  10.918  -1.139   9.561 -0.1722 -0.4911  0.0957
  899MOL0     C21270  11.056  -1.196   9.598 -1.3191 -0.3249 -0.1236
  899MOL0     C21271  11.090  -1.183   9.742 -0.9174  0.3176 -0.9365
  899MOL0     C21272  11.210  -1.269   9.774 -1.3078 -0.0355  1.1794
  899MOL0     C21273  11.173  -1.391   9.863  0.0480 -0.0145  0.1222
  899MOL0     C21274  11.292  -1.456   9.938  0.3635  0.6074 -1.0666
  899MOL0    Cl21275  11.390  -1.538   9.817  0.1909 -0.8423 -0.1378
  899MOL0     C21276  10.524  -1.137   9.228 -0.5397  0.5830 -0.5860
  899MOL0     C21277  10.398  -1.130   9.186 -0.3414  0.2724  0.1453
  899MOL0     O21278  10.169  -0.953   9.081  0.2290  0.2120  0.7645
  899MOL0     C21279   9.879  -1.088   9.245 -0.1497 -0.2743  0.3003
  899MOL0     C21280   9.746  -1.083   9.255  0.7120  0.2983  0.4078
  899MOL0     N21281   9.304  -0.724   8.635 -0.0627 -0.6592  0.9156
  899MOL0     N21282   9.264  -0.669   8.520  0.3429  0.4901  0.2421
  899MOL0     C21283   9.191  -0.031   7.550  0.7911 -0.0259 -0.0591
  899MOL0     C21284   9.079   0.038   7.519  0.0190  0.0303 -0.4582
  899MOL0     C21285   8.682   0.213   7.475  0.0119 -0.6427 -0.9344
  899MOL0     C21286   8.558   0.158   7.447  0.2912  0.3756  0.3105
  899MOL0     C21287   8.448   0.238   7.422 -0.5134 -0.5486 -0.3192
  899MOL0     C21288   8.467   0.377   7.404 -0.0684  0.0334 -0.1958
  899MOL0     O21289   8.365   0.456   7.368  0.1433 -0.1204  0.1590
  899MOL0     C21290   8.287   0.409   7.269 -0.2321  0.7240  0.4076
  899MOL0     C21291   8.325   0.505   7.156 -0.0423 -0.1631 -0.7335
  899MOL0     C21292   8.258   0.484   7.014 -0.4371 -0.4530 -0.3706
  899MOL0     C21293   8.335   0.550   6.898  0.2314  0.1308  0.2746
  899MOL0     C21294   8.281   0.683   6.901 -0.7390 -0.6769 -0.6562
  899MOL0     C21295   8.242   0.798   6.915 -0.4159  0.2431  0.2976
  899MOL0     C21296   8.588   0.433   7.427 -0.8878 -0.0961  0.3688
  899MOL0     C21297   8.703   0.353   7.457  0.0168  0.4085  0.1880
  899MOL0     H21298   9.000   0.197   7.802  1.3256  3.0938 -1.6828
  899MOL0     H21299   9.211   0.068   7.865 -0.1943  0.2048 -0.1148
  899MOL0     H21300   9.427  -0.147   7.540 -1.2653 -0.4983  0.2151
  899MOL0     H21301   9.512  -0.198   7.687 -0.5328 -2.2381  1.1045
  899MOL0     H21302   9.238  -0.308   7.638  0.2280  0.2758 -0.0081
  899MOL0     H21303   9.390  -0.402   7.630  0.0942 -1.4923  1.3590
  899MOL0     H21304   9.431  -0.338   7.875 -1.6254 -1.7962  2.0686
  899MOL0     H21305   9.274  -0.247   7.868 -1.1369 -1.0644  1.1371
  899MOL0     H21306   9.169  -0.464   7.822  0.3398  1.5848 -1.4756
  899MOL0     H21307   9.320  -0.550   7.822 -0.6139 -0.6029  0.1997
  899MOL0     H21308   9.352  -0.406   8.054  1.3673 -0.9989 -1.9238
  899MOL0     H21309   9.188  -0.367   8.042 -0.5423  0.4939 -4.0971
  899MOL0     H21310   9.127  -0.607   8.095 -0.0743 -1.8143 -0.0980
  899MOL0     H21311   9.280  -0.662   8.026  0.4043 -0.8890  0.4451
  899MOL0     H21312   9.402  -0.581   8.242 -0.7873 -0.8804  0.4987
  899MOL0     H21313   9.243  -0.523   8.300 -1.2954 -1.3600  1.4628
  899MOL0     H21314   9.333  -0.809   8.224 -0.2196  1.7038 -2.4117
  899MOL0     H21315   9.169  -0.765   8.259  0.7402  0.0791 -0.3492
  899MOL0     H21316   9.407  -0.953   8.422  0.3841  1.1871 -0.9405
  899MOL0     H21317   9.345  -1.043   8.688  0.6323  0.5992  0.0078
  899MOL0     H21318   9.511  -0.976   8.684  0.7929  1.3715 -1.2879
  899MOL0     H21319   9.280  -0.886   8.874 -0.7116 -1.6304 -2.4665
  899MOL0     H21320   9.442  -0.818   8.874 -0.9798 -0.2973  5.9398
  899MOL0     H21321   9.519  -1.067   8.908 -0.8316 -1.2706 -1.3297
  899MOL0     H21322   9.356  -1.094   8.949  0.2624  0.3665 -0.1505
  899MOL0     H21323   9.348  -0.939   9.131  0.4495  1.5288 -0.1931
  899MOL0     H21324   9.476  -0.840   9.078  0.5271 -0.0717  0.0862
  899MOL0     H21325   9.675  -0.905   8.980 -1.5006 -1.7981 -0.1576
  899MOL0     H21326   9.865  -0.845   8.850  1.2889 -1.0419 -0.0104
  899MOL0     H21327  10.006  -0.796   8.961 -0.0234  0.8040  0.8711
  899MOL0     H21328  10.000  -0.949   8.867 -0.2450  0.4031 -1.3186
  899MOL0     H21329  10.233  -1.158   9.488 -0.6261 -2.7830 -1.1025
  899MOL0     H21330  10.459  -1.201   9.563 -1.4462 -1.9501 -1.0141
  899MOL0     H21331  10.762  -1.040   9.278 -1.5300 -0.6771  0.0648
  899MOL0     H21332  10.745  -0.993   9.450 -0.2518 -1.0067 -0.0304
  899MOL0     H21333  10.945  -1.209   9.357  1.4947 -0.1017  0.5486
  899MOL0     H21334  10.986  -1.048   9.380  1.6792 -1.1842  1.9371
  899MOL0     H21335  10.844  -1.211   9.598  2.9885 -1.8399  4.6401
  899MOL0     H21336  10.910  -1.040   9.606 -0.7691 -0.6477  0.3403
  899MOL0     H21337  11.059  -1.305   9.582  1.0208 -0.4220  0.5874
  899MOL0     H21338  11.139  -1.151   9.542 -2.1598  1.7205  0.1911
  899MOL0     H21339  10.997  -1.216   9.789 -0.0364 -4.5651 -1.9778
  899MOL0     H21340  11.108  -1.081   9.777  1.6886 -1.3467  3.4903
  899MOL0     H21341  11.256  -1.309   9.683  2.9185  1.2670  2.4640
  899MOL0     H21342  11.289  -1.207   9.818 -0.3050  0.3953 -1.0654
  899MOL0     H21343  11.125  -1.477   9.816  1.1321  0.4444 -1.9277
  899MOL0     H21344  11.101  -1.351   9.935  1.4750  4.4010 -0.6051
  899MOL0     H21345  11.253  -1.537  10.001  2.0673  0.6643  0.1489
  899MOL0     H21346  11.343  -1.384  10.003  1.2230  0.7203 -1.8418
  899MOL0     H21347  10.603  -1.109   9.160 -2.3833  2.9273 -1.9194
  899MOL0     H21348  10.378  -1.126   9.079  0.5735  0.1042 -0.0409
  899MOL0     H21349   9.930  -1.148   9.320 -1.2783  1.7831  2.8972
  899MOL0     H21350   9.713  -1.132   9.346 -0.6505 -0.5555 -0.5120
  899MOL0     H21351   9.248  -0.088   7.477 -1.6841 -0.6850 -1.5910
  899MOL0     H21352   9.066   0.019   7.412  1.3044 -5.0552  0.0119
  899MOL0     H21353   8.542   0.051   7.456 -1.2422  0.4769 -0.8091
  899MOL0     H21354   8.355   0.183   7.414 -0.3276 -1.3121  2.0033
  899MOL0     H21355   8.294   0.306   7.232 -1.8821  0.7062  0.0465
  899MOL0     H21356   8.186   0.428   7.307  0.8797  0.7672  3.6775
  899MOL0     H21357   8.431   0.496   7.135 -0.7010 -0.6474 -4.4907
  899MOL0     H21358   8.300   0.610   7.176 -1.9143 -0.7613  0.4042
  899MOL0     H21359   8.154   0.519   7.019 -0.1719  0.1407  2.2845
  899MOL0     H21360   8.253   0.375   7.000  1.7850 -0.6685  0.1315
  899MOL0     H21361   8.303   0.502   6.805 -0.3514  0.8550  0.0890
  899MOL0     H21362   8.444   0.546   6.899  0.2727  0.7982  1.8231
  899MOL0     H21363   8.213   0.896   6.884  2.9266  1.1884 -0.2578
  899MOL0     H21364   8.596   0.541   7.419 -1.5766  0.0616  1.5231
  899MOL0     H21365   8.795   0.410   7.471 -1.8746  3.5393  0.7288
  900MOL0     O21366   0.863  10.418   8.469 -0.7575  1.0245 -0.3465
  900MOL0     C21367   0.796  10.353   8.392 -0.1841 -0.4790 -0.0069
  900MOL0     O21368   0.837  10.318   8.270 -0.4689  0.3184  0.4116
  900MOL0     C21369   0.965  10.341   8.223  0.7265  0.0602 -0.0707
  900MOL0     C21370   1.044  10.453   8.248 -0.5696 -0.8949  0.1459
  900MOL0     C21371   1.174  10.470   8.206 -0.4469  0.9726  0.4886
  900MOL0     C21372   1.235  10.360   8.129  0.2199  0.2915 -0.8238
  900MOL0     O21373   1.367  10.350   8.098 -0.3575  0.1841  0.6758
  900MOL0     C21374   1.454  10.455   8.099 -0.4577 -0.0673 -0.3058
  900MOL0     C21375   1.578  10.448   8.011  0.1000 -1.0396 -0.4305
  900MOL0     C21376   1.546  10.522   7.880 -0.1191 -0.4253  0.0538
  900MOL0     C21377   1.665  10.506   7.782  0.0034  0.7805 -0.0096
  900MOL0     C21378   1.758  10.641   7.772  0.0221 -0.6092  0.3904
  900MOL0     C21379   1.877  10.596   7.686 -0.3163 -0.1736  0.3530
  900MOL0     C21380   1.920  10.711   7.603  0.4244  0.3387 -0.7875
  900MOL0     C21381   1.820  10.750   7.487  0.0298  0.5523 -0.0033
  900MOL0     N21382   1.854  10.885   7.436  0.6272 -0.0703  0.4331
  900MOL0     C21383   1.903  10.990   7.520 -0.6990  0.3733  0.5923
  900MOL0     C21384   1.955  11.079   7.438 -0.4173 -0.6517  0.6232
  900MOL0     C21385   2.035  11.194   7.474  0.3193  0.5571 -0.2192
  900MOL0     C21386   2.173  11.131   7.510  0.2662 -0.7378 -0.5938
  900MOL0     C21387   2.270  11.249   7.526  0.7051  0.0405  0.7727
  900MOL0     C21388   2.378  11.217   7.622  0.2517  0.3965 -0.4540
  900MOL0     O21389   2.312  11.190   7.754 -0.4621 -0.5472  0.1006
  900MOL0     C21390   2.374  11.138   7.863 -0.8339  0.4602 -0.2660
  900MOL0     C21391   2.304  11.113   7.988  0.5581  0.0796 -0.4144
  900MOL0     C21392   2.373  11.065   8.103 -0.5833 -0.9006 -0.3721
  900MOL0     C21393   2.295  11.038   8.230 -1.0050  0.0813 -0.4434
  900MOL0     C21394   2.515  11.037   8.096 -0.0212  0.6453 -0.0840
  900MOL0     C21395   2.591  10.984   8.203 -0.7660 -0.7123 -1.6021
  900MOL0     O21396   2.557  11.008   8.337  0.3592 -0.3544 -0.0875
  900MOL0     C21397   2.593  10.906   8.416  0.2695 -0.8503  0.0254
  900MOL0     C21398   2.502  10.806   8.462 -1.1235  0.5100  0.7128
  900MOL0     C21399   2.550  10.705   8.545  0.0925  0.4791 -0.1653
  900MOL0     C21400   2.678  10.708   8.608  1.1704 -0.5936  1.0774
  900MOL0     O21401   2.709  10.620   8.702  0.1912  0.0036  0.4477
  900MOL0     C21402   2.636  10.647   8.828 -0.2217 -0.1700 -0.3811
  900MOL0     C21403   2.693  10.777   8.885 -0.6046  0.1302  0.1298
  900MOL0     C21404   2.760  10.770   9.023 -0.2778  0.2735 -0.5164
  900MOL0     C21405   2.683  10.718   9.153  0.7095 -0.2945  0.3615
  900MOL0     C21406   2.783  10.709   9.274  0.3758  0.7820  0.6239
  900MOL0     C21407   2.700  10.674   9.407  0.0000 -0.1750  0.9016
  900MOL0     C21408   2.599  10.775   9.464 -0.6739 -0.1472 -0.2412
  900MOL0     C21409   2.655  10.887   9.552 -0.0447  1.1097 -0.0175
  900MOL0    Cl21410   2.727  10.811   9.704  0.0281 -0.0400  0.0331
  900MOL0     C21411   2.760  10.808   8.559 -0.1507 -0.3852 -0.3028
  900MOL0     C21412   2.721  10.905   8.470  0.2308 -0.3734 -0.2801
  900MOL0     O21413   2.693  10.925   8.169  0.7261 -0.1925 -0.7702
  900MOL0     C21414   2.581  11.071   7.979  0.2689  0.2331  1.1822
  900MOL0     C21415   2.512  11.118   7.864 -0.6515  0.3217 -0.1622
  900MOL0     N21416   1.937  11.038   7.309 -0.5322 -1.2693  1.4594
  900MOL0     N21417   1.869  10.922   7.311 -0.8337  0.0315  0.3006
  900MOL0     C21418   1.156  10.241   8.110 -0.4124 -0.6637 -0.3394
  900MOL0     C21419   1.031  10.236   8.169 -0.3222  1.0130  0.7237
  900MOL0     C21420   0.666  10.325   8.436 -0.0997 -0.2060  0.1611
  900MOL0     C21421   0.635  10.335   8.576  0.2411  0.0343 -0.5192
  900MOL0     C21422   0.502  10.330   8.613  0.5724  0.6666  0.4094
  900MOL0     C21423   0.403  10.305   8.514 -0.0814 -0.0608 -0.6439
  900MOL0     O21424   0.273  10.325   8.544 -0.0719  1.0106  0.6613
  900MOL0     C21425   0.196  10.209   8.584  0.0277  0.4585  0.6122
  900MOL0     C21426   0.046  10.243   8.602 -0.7046 -0.1208  0.1344
  900MOL0     C21427  -0.016  10.313   8.482  0.6198 -0.5215  0.0184
  900MOL0     C21428  -0.160  10.340   8.487  0.4046  0.3461  0.6155
  900MOL0     C21429  -0.209  10.351   8.346  0.8453 -0.3475  0.3021
  900MOL0     C21430  -0.260  10.390   8.244  0.3822  0.2990  1.3074
  900MOL0     C21431   0.432  10.286   8.376 -0.6692  0.6197 -0.0541
  900MOL0     C21432   0.568  10.300   8.338 -0.1263  0.2698  1.7084
  900MOL0     H21433   1.001  10.536   8.304  2.4364  1.2724 -0.5229
  900MOL0     H21434   1.242  10.551   8.226 -1.8775  2.7822 -1.5429
  900MOL0     H21435   1.403  10.550   8.081 -1.2590 -0.4894 -0.2822
  900MOL0     H21436   1.497  10.455   8.200  1.6576 -0.5785 -1.1541
  900MOL0     H21437   1.656  10.507   8.060 -2.5416  4.7513 -2.2531
  900MOL0     H21438   1.601  10.345   7.985 -1.6070 -1.7590  0.7381
  900MOL0     H21439   1.459  10.470   7.839 -0.9414  0.9080  0.0459
  900MOL0     H21440   1.521  10.629   7.888 -0.3468 -0.5299  0.7545
  900MOL0     H21441   1.729  10.425   7.817 -2.0889  0.1715  2.7368
  900MOL0     H21442   1.624  10.503   7.681  2.3716  0.9914 -1.0467
  900MOL0     H21443   1.705  10.726   7.730 -3.0321 -3.2665 -1.6224
  900MOL0     H21444   1.804  10.677   7.864  0.4499 -0.2631  0.0473
  900MOL0     H21445   1.950  10.559   7.758  0.6393  2.3692  0.8095
  900MOL0     H21446   1.852  10.519   7.613  1.1670  0.1556 -0.5530
  900MOL0     H21447   1.945  10.796   7.668 -0.0468 -0.2826  0.2382
  900MOL0     H21448   2.012  10.670   7.562  0.4702  0.2009 -0.5498
  900MOL0     H21449   1.712  10.748   7.503 -0.6185 -1.0030 -3.6844
  900MOL0     H21450   1.843  10.676   7.410  3.2511 -0.1662  1.4974
  900MOL0     H21451   1.918  10.991   7.628  0.6976  0.8034  0.4082
  900MOL0     H21452   2.045  11.257   7.385  1.0539  1.5165  0.5269
  900MOL0     H21453   2.000  11.255   7.558  0.8926  0.5311  0.0380
  900MOL0     H21454   2.197  11.071   7.422  0.8461 -5.0883  2.2001
  900MOL0     H21455   2.159  11.074   7.603 -1.2929  1.0613  0.3325
  900MOL0     H21456   2.211  11.323   7.580 -0.5839  0.1821 -0.7702
  900MOL0     H21457   2.307  11.296   7.433  0.0712 -3.4734 -1.4284
  900MOL0     H21458   2.446  11.302   7.627  1.7729 -0.8162  0.1416
  900MOL0     H21459   2.433  11.130   7.587  3.5609  2.9141 -2.0150
  900MOL0     H21460   2.199  11.141   7.984 -0.1185 -2.3278 -3.2712
  900MOL0     H21461   2.187  11.051   8.225 -0.7712  1.8243 -2.1166
  900MOL0     H21462   2.322  10.938   8.264  0.0842 -0.3170 -2.3654
  900MOL0     H21463   2.331  11.111   8.304  1.6396 -0.0499 -1.4848
  900MOL0     H21464   2.398  10.799   8.430 -1.1043  2.5932  0.0440
  900MOL0     H21465   2.490  10.619   8.574  2.5184 -1.0739  0.5181
  900MOL0     H21466   2.531  10.653   8.799 -0.8283 -2.3393  1.1705
  900MOL0     H21467   2.652  10.555   8.883 -2.2805 -0.5775 -0.3964
  900MOL0     H21468   2.778  10.801   8.820 -1.0973 -0.7175 -0.8506
  900MOL0     H21469   2.620  10.858   8.874  0.6990  1.2412 -0.7212
  900MOL0     H21470   2.775  10.875   9.048  2.0077  0.5291 -2.5551
  900MOL0     H21471   2.858  10.720   9.018  0.8002  2.1311  0.9328
  900MOL0     H21472   2.608  10.786   9.193  1.0640 -0.8571  2.0552
  900MOL0     H21473   2.638  10.619   9.137  1.3419 -0.3330 -1.3493
  900MOL0     H21474   2.834  10.803   9.293  1.3001  1.0384 -2.5081
  900MOL0     H21475   2.853  10.632   9.239 -1.3455  1.3388 -5.1773
  900MOL0     H21476   2.650  10.581   9.379  1.8487 -1.6170  2.1740
  900MOL0     H21477   2.775  10.661   9.485  1.6740  2.0007 -0.2088
  900MOL0     H21478   2.529  10.717   9.526  1.2044 -0.0067  2.1766
  900MOL0     H21479   2.552  10.821   9.377  1.3549  2.6957  0.0211
  900MOL0     H21480   2.569  10.946   9.585 -1.2145 -1.2158  1.3061
  900MOL0     H21481   2.721  10.955   9.498 -0.9423  2.8087  0.9428
  900MOL0     H21482   2.863  10.814   8.592  0.7992  1.6471 -3.2250
  900MOL0     H21483   2.785  10.990   8.451  1.6972 -1.4523 -0.3315
  900MOL0     H21484   2.688  11.059   7.965  0.2691  1.5874 -0.2644
  900MOL0     H21485   2.551  11.142   7.766  1.1991  0.3081  0.5264
  900MOL0     H21486   1.205  10.153   8.068 -0.1927 -1.0660  0.7290
  900MOL0     H21487   0.982  10.139   8.163 -0.8053  1.3538 -3.1369
  900MOL0     H21488   0.711  10.362   8.648  0.2133  2.6750 -1.3662
  900MOL0     H21489   0.477  10.352   8.716 -2.1711  1.7311 -0.3745
  900MOL0     H21490   0.205  10.135   8.504  1.7052 -0.2165  1.3730
  900MOL0     H21491   0.237  10.173   8.678  3.3641  3.5282  0.5541
  900MOL0     H21492   0.042  10.314   8.685 -0.2338 -0.1376  0.1780
  900MOL0     H21493  -0.001  10.154   8.647 -1.0352 -0.4551 -0.8545
  900MOL0     H21494  -0.001  10.244   8.398  0.5369  0.0938 -0.5099
  900MOL0     H21495   0.021  10.412   8.456 -0.9002 -0.0217 -0.3962
  900MOL0     H21496  -0.162  10.435   8.541 -0.1445  0.0980  1.0422
  900MOL0     H21497  -0.211  10.254   8.532  2.8214 -0.0159  2.9210
  900MOL0     H21498  -0.294  10.439   8.154 -0.0081 -1.9176  0.1535
  900MOL0     H21499   0.354  10.277   8.302 -1.1672 -2.0499  0.6888
  900MOL0     H21500   0.591  10.284   8.233 -0.6199 -2.5347  1.9464
  901MOL0     O21501   5.996   2.325   8.562  0.5945  0.0640  0.3774
  901MOL0     C21502   5.911   2.234   8.544 -0.5638  1.0634 -0.2884
  901MOL0     O21503   5.865   2.137   8.635 -0.3701  0.3527 -0.5261
  901MOL0     C21504   5.907   2.136   8.767  0.0128  0.6510  0.5536
  901MOL0     C21505   5.943   2.246   8.842  1.0725  0.9498  0.2539
  901MOL0     C21506   5.981   2.233   8.979  0.0053  0.5438  0.0950
  901MOL0     C21507   5.975   2.102   9.050 -0.2888  0.5423  1.0973
  901MOL0     O21508   6.008   2.081   9.183 -1.0387 -0.3709 -0.4391
  901MOL0     C21509   6.099   2.162   9.251 -1.2448 -0.2360 -0.6397
  901MOL0     C21510   6.137   2.096   9.385  0.6793  0.2855 -0.0542
  901MOL0     C21511   6.012   2.099   9.481  0.6230  0.2194 -0.0845
  901MOL0     C21512   6.041   1.991   9.596  0.1699 -0.1326 -0.2656
  901MOL0     C21513   6.002   1.840   9.567 -1.4576  0.5856  0.0333
  901MOL0     C21514   5.954   1.750   9.687  0.2370  0.5134  0.7474
  901MOL0     C21515   6.033   1.746   9.821  0.0067  0.1766  1.0141
  901MOL0     C21516   5.931   1.668   9.913 -0.4871  0.1866 -0.5735
  901MOL0     N21517   5.986   1.624  10.041  0.3935  0.5485 -0.5777
  901MOL0     C21518   6.102   1.546  10.053  0.4569 -0.6650  1.0225
  901MOL0     C21519   6.078   1.493  10.177 -1.4162 -0.4327 -0.8930
  901MOL0     C21520   6.159   1.387  10.248 -0.2299  0.4138 -0.5021
  901MOL0     C21521   6.193   1.264  10.163 -0.9954 -0.2611  0.0283
  901MOL0     C21522   6.064   1.182  10.124 -0.9876  1.3320  0.0987
  901MOL0     C21523   6.002   1.217   9.987 -0.6883 -0.4352 -0.5941
  901MOL0     O21524   6.103   1.228   9.894 -0.5979  0.0601 -0.3063
  901MOL0     C21525   6.081   1.277   9.773  0.4532 -0.8145  0.2241
  901MOL0     C21526   6.191   1.328   9.701 -0.3710  0.5656  0.3040
  901MOL0     C21527   6.179   1.374   9.573 -0.2412 -0.5465  0.2186
  901MOL0     C21528   6.311   1.393   9.497  0.0003 -0.1190  0.4598
  901MOL0     C21529   6.055   1.370   9.510 -0.4033  0.2686  0.1393
  901MOL0     C21530   6.031   1.415   9.367  0.2601 -1.1793  0.3963
  901MOL0     O21531   6.126   1.480   9.294  0.4086  0.1409 -0.1885
  901MOL0     C21532   6.091   1.523   9.170  0.1528  0.0977  0.2083
  901MOL0     C21533   6.051   1.441   9.067  0.7552 -0.5844 -0.4334
  901MOL0     C21534   6.030   1.491   8.939 -0.2686  0.5611  0.6153
  901MOL0     C21535   6.046   1.633   8.912  0.3344 -0.4868 -0.8282
  901MOL0     O21536   6.009   1.683   8.786  0.2053 -0.1602 -0.5747
  901MOL0     C21537   5.931   1.600   8.691  0.1209  0.6017 -0.1890
  901MOL0     C21538   5.861   1.681   8.584  0.0546 -0.1655 -0.3615
  901MOL0     C21539   5.949   1.744   8.480  1.3849 -0.5962 -0.8357
  901MOL0     C21540   5.914   1.665   8.356  0.6495 -0.4000 -0.1239
  901MOL0     C21541   5.994   1.731   8.236  0.8203  0.9551 -0.5650
  901MOL0     C21542   5.982   1.644   8.114 -0.5235  0.8058 -0.4113
  901MOL0     C21543   5.846   1.596   8.082  1.1934 -0.2527  0.2252
  901MOL0     C21544   5.736   1.707   8.059 -0.0923  0.2089 -0.2873
  901MOL0    Cl21545   5.796   1.835   7.941  0.2105 -0.0868  0.3195
  901MOL0     C21546   6.100   1.707   9.014  0.3924  0.6449  0.3954
  901MOL0     C21547   6.120   1.650   9.138 -0.0507  0.4242  0.7068
  901MOL0     O21548   5.915   1.392   9.325  0.3471 -0.5713  0.9144
  901MOL0     C21549   5.939   1.337   9.587 -0.8216  0.1239 -0.5428
  901MOL0     C21550   5.959   1.281   9.708  0.9535  0.9735  0.6084
  901MOL0     N21551   5.956   1.533  10.239 -0.7918  0.0956  1.2271
  901MOL0     N21552   5.906   1.613  10.149  0.3412  0.2128 -0.8002
  901MOL0     C21553   5.929   1.997   8.973  0.2917  0.4956  0.5439
  901MOL0     C21554   5.898   2.019   8.840 -0.3917  1.1919 -0.0966
  901MOL0     C21555   5.862   2.223   8.402 -0.0513 -0.2066 -0.1718
  901MOL0     C21556   5.889   2.327   8.309  0.2481  0.7905  0.0319
  901MOL0     C21557   5.838   2.310   8.173 -0.5316 -0.8279 -0.5210
  901MOL0     C21558   5.773   2.203   8.136  1.2085 -0.5137  1.4546
  901MOL0     O21559   5.750   2.186   7.998 -0.2054  0.1048 -0.4790
  901MOL0     C21560   5.698   2.302   7.921 -0.6246 -0.6704  0.4633
  901MOL0     C21561   5.703   2.291   7.767 -0.3543 -0.2246 -0.9702
  901MOL0     C21562   5.705   2.138   7.725 -0.2141  0.6577  0.1488
  901MOL0     C21563   5.725   2.136   7.580  0.3356 -0.4875 -0.3288
  901MOL0     C21564   5.861   2.167   7.540 -0.4814 -0.4633 -0.1746
  901MOL0     C21565   5.975   2.207   7.506 -0.7244 -0.1318  0.6011
  901MOL0     C21566   5.747   2.107   8.226 -0.6529  0.8501  1.0908
  901MOL0     C21567   5.790   2.118   8.357  0.4560 -0.4223 -0.1842
  901MOL0     H21568   5.927   2.340   8.790 -2.7433 -0.0198 -0.6441
  901MOL0     H21569   6.005   2.328   9.025 -4.7017  2.4125 -0.7890
  901MOL0     H21570   6.181   2.186   9.183 -1.0287 -1.5004 -0.8522
  901MOL0     H21571   6.062   2.253   9.299  0.6389 -1.4704  3.7221
  901MOL0     H21572   6.164   1.991   9.377 -5.4046 -1.7249  0.5806
  901MOL0     H21573   6.223   2.145   9.431  0.2937 -0.1815  1.2092
  901MOL0     H21574   6.014   2.193   9.538 -3.8044  0.4156  0.1646
  901MOL0     H21575   5.910   2.092   9.442 -0.1225 -0.5575  1.8638
  901MOL0     H21576   6.147   2.004   9.617  0.5025  0.6170 -2.2439
  901MOL0     H21577   5.988   2.024   9.686  0.8185  1.8823 -0.5793
  901MOL0     H21578   5.929   1.841   9.485  0.7585  0.7578 -2.0776
  901MOL0     H21579   6.089   1.787   9.528  0.1148  2.7626  0.4150
  901MOL0     H21580   5.851   1.787   9.689 -1.3369 -3.3421 -0.4121
  901MOL0     H21581   5.945   1.651   9.642 -2.1447  1.0402 -0.0808
  901MOL0     H21582   6.122   1.693   9.785 -0.2747  2.1454 -3.2125
  901MOL0     H21583   6.050   1.847   9.860 -0.3005  0.8085 -0.4009
  901MOL0     H21584   5.881   1.577   9.877 -2.7147  0.4713  1.4958
  901MOL0     H21585   5.855   1.745   9.931  0.8201  1.0760  1.5309
  901MOL0     H21586   6.181   1.530   9.980 -0.2443  2.8522 -0.7145
  901MOL0     H21587   6.251   1.420  10.296  0.2110  0.8236 -1.5957
  901MOL0     H21588   6.100   1.343  10.329 -1.3701 -1.3950 -2.2263
  901MOL0     H21589   6.244   1.182  10.214 -1.0648  0.5229  1.4181
  901MOL0     H21590   6.257   1.295  10.080 -1.1427  0.9307  0.3346
  901MOL0     H21591   5.994   1.200  10.206 -1.0729  1.0122  0.0969
  901MOL0     H21592   6.078   1.074  10.131 -2.1659  1.2159  0.8953
  901MOL0     H21593   5.950   1.313   9.994  0.7632  0.2601  2.3133
  901MOL0     H21594   5.943   1.133   9.950 -0.8151 -1.8348  2.4899
  901MOL0     H21595   6.286   1.300   9.746 -0.7366 -2.0685 -0.3669
  901MOL0     H21596   6.318   1.328   9.410 -0.7891 -1.5206  1.3979
  901MOL0     H21597   6.332   1.495   9.463  0.1660 -0.5122 -0.6535
  901MOL0     H21598   6.392   1.355   9.561 -0.1154 -0.9051  0.1528
  901MOL0     H21599   6.030   1.335   9.081  0.6244 -0.8200 -2.1484
  901MOL0     H21600   5.975   1.433   8.866  0.1453  0.1714  0.6085
  901MOL0     H21601   5.991   1.523   8.641  0.6077  1.2143 -0.5726
  901MOL0     H21602   5.852   1.540   8.737  1.7157 -0.6406  1.0299
  901MOL0     H21603   5.779   1.623   8.542 -2.4372  2.1165  1.0597
  901MOL0     H21604   5.812   1.760   8.642 -1.8495 -3.6596  3.2663
  901MOL0     H21605   6.057   1.739   8.497  1.6103  3.8123  0.3981
  901MOL0     H21606   5.915   1.846   8.458 -1.9029 -1.9145 -2.5863
  901MOL0     H21607   5.949   1.563   8.371 -1.6971 -1.0918  1.1229
  901MOL0     H21608   5.808   1.671   8.328  1.0082  1.9885 -1.2211
  901MOL0     H21609   6.102   1.729   8.252  0.7721 -1.9918 -0.0179
  901MOL0     H21610   5.969   1.837   8.230 -2.5507  0.2448 -1.6278
  901MOL0     H21611   6.016   1.700   8.026  1.6717  5.9265  3.1892
  901MOL0     H21612   6.048   1.559   8.129 -0.7160  0.8665  0.8826
  901MOL0     H21613   5.803   1.526   8.154 -1.1066  0.4833 -0.3516
  901MOL0     H21614   5.848   1.543   7.986  0.5325 -0.4934  0.3382
  901MOL0     H21615   5.721   1.760   8.154 -1.2296 -1.0492  0.2699
  901MOL0     H21616   5.645   1.655   8.028  0.2650  0.2590 -1.4709
  901MOL0     H21617   6.130   1.811   9.015 -2.1994  1.4760 -0.1178
  901MOL0     H21618   6.173   1.714   9.208  0.8725 -0.6603  1.0511
  901MOL0     H21619   5.838   1.348   9.547 -0.5530 -0.0606 -1.2975
  901MOL0     H21620   5.880   1.249   9.776 -0.5338  1.4090 -0.8393
  901MOL0     H21621   5.902   1.907   9.029  0.2559 -0.9729 -1.6874
  901MOL0     H21622   5.864   1.945   8.767  0.7246  2.8466 -2.4225
  901MOL0     H21623   5.937   2.420   8.336 -4.0421  3.2163  0.2407
  901MOL0     H21624   5.873   2.382   8.101  1.6886 -0.4317  0.8569
  901MOL0     H21625   5.591   2.301   7.942 -0.4638 -1.5493  1.3159
  901MOL0     H21626   5.738   2.398   7.956 -0.7398 -0.7456  0.8026
  901MOL0     H21627   5.779   2.357   7.724  0.9282 -1.4040 -0.5716
  901MOL0     H21628   5.610   2.331   7.726 -0.7776 -1.2791 -1.0638
  901MOL0     H21629   5.616   2.080   7.753  1.2539 -1.6571  0.2408
  901MOL0     H21630   5.790   2.085   7.767  1.5224  2.2088 -1.2072
  901MOL0     H21631   5.659   2.211   7.538 -0.3372 -0.9868 -0.1740
  901MOL0     H21632   5.693   2.035   7.551  3.0398 -1.2415 -1.0988
  901MOL0     H21633   6.075   2.241   7.496 -0.9333  0.6648  1.1989
  901MOL0     H21634   5.698   2.020   8.183  4.9921 -1.8958 -0.7768
  901MOL0     H21635   5.768   2.037   8.426  1.9976  0.8264  1.8708
  902MOL0     O21636   3.920  10.331   1.069 -0.2660  0.1928 -0.3937
  902MOL0     C21637   3.842  10.418   1.102  0.1732 -0.1101  0.1095
  902MOL0     O21638   3.805  10.521   1.024  0.2918 -0.3785 -0.7112
  902MOL0     C21639   3.843  10.521   0.893  0.5484 -0.8074  0.3394
  902MOL0     C21640   3.931  10.629   0.846 -0.4473 -0.6680  0.2332
  902MOL0     C21641   3.953  10.643   0.708 -0.2531 -0.3914  0.0030
  902MOL0     C21642   3.895  10.548   0.626  0.3417  0.6724 -0.3797
  902MOL0     O21643   3.928  10.554   0.492  0.0277  0.1415 -0.1303
  902MOL0     C21644   3.828  10.583   0.381  0.1533 -0.5529 -0.0881
  902MOL0     C21645   3.875  10.712   0.298 -0.6054 -0.8137 -0.1010
  902MOL0     C21646   3.828  10.844   0.366 -1.1818  0.9111  0.6719
  902MOL0     C21647   3.833  10.966   0.268  0.5472 -0.0650 -0.4234
  902MOL0     C21648   3.701  11.053   0.278 -0.1394 -0.9815  0.1004
  902MOL0     C21649   3.609  11.021   0.158 -0.0124  0.5588  0.7824
  902MOL0     C21650   3.471  11.090   0.189 -0.5771 -0.4240 -0.4387
  902MOL0     C21651   3.358  11.054   0.088 -0.2273 -0.5770  0.2676
  902MOL0     N21652   3.373  11.112  -0.040  0.1664  0.2932 -0.2067
  902MOL0     C21653   3.363  11.249  -0.066 -0.2507  0.0476 -0.0912
  902MOL0     C21654   3.390  11.257  -0.196 -0.3419 -0.2845  0.5555
  902MOL0     C21655   3.390  11.377  -0.284  0.2720  0.0626  0.8454
  902MOL0     C21656   3.281  11.327  -0.394 -0.1896  0.3126 -0.0450
  902MOL0     C21657   3.240  11.425  -0.509 -0.2135  0.1418  0.1690
  902MOL0     C21658   3.291  11.556  -0.490  0.0628 -0.5155 -0.5143
  902MOL0     O21659   3.242  11.656  -0.587 -0.2323 -0.3120 -0.4818
  902MOL0     C21660   3.275  11.790  -0.575 -0.1441 -0.8886 -1.6317
  902MOL0     C21661   3.334  11.845  -0.454  0.0771 -0.2741  0.5651
  902MOL0     C21662   3.368  11.984  -0.441 -0.0143  0.1165  0.0040
  902MOL0     C21663   3.431  12.025  -0.315  0.6467 -0.3273 -0.8155
  902MOL0     C21664   3.365  12.065  -0.559  0.1510  0.4405 -0.8495
  902MOL0     C21665   3.417  12.205  -0.566 -0.8567 -0.3051 -1.1384
  902MOL0     O21666   3.523  12.243  -0.482  0.8057 -0.4798 -0.8352
  902MOL0     C21667   3.577  12.365  -0.491 -0.5892  0.0681 -0.6683
  902MOL0     C21668   3.503  12.479  -0.519  0.2707  0.1752 -0.0187
  902MOL0     C21669   3.564  12.608  -0.534  0.4831 -0.2468 -0.0531
  902MOL0     C21670   3.704  12.626  -0.511 -0.8530  0.5295  0.0821
  902MOL0     O21671   3.771  12.736  -0.532 -0.1549 -0.5759  0.3894
  902MOL0     C21672   3.695  12.860  -0.520 -0.4700 -0.6178  0.8595
  902MOL0     C21673   3.671  12.917  -0.665  0.9076 -0.5453 -0.3498
  902MOL0     C21674   3.811  12.957  -0.730 -0.2822  0.3661  0.0040
  902MOL0     C21675   3.811  13.034  -0.873  0.1069 -0.0870  0.5710
  902MOL0     C21676   3.754  12.961  -1.004 -0.6688 -0.1435 -0.1272
  902MOL0     C21677   3.692  13.055  -1.108  0.2823  0.9877 -0.3474
  902MOL0     C21678   3.776  13.171  -1.182 -0.4947  0.7006  1.2776
  902MOL0     C21679   3.882  13.122  -1.276  0.6595  0.1594 -0.7265
  902MOL0    Cl21680   4.029  13.079  -1.200 -0.4757 -0.2815  0.5804
  902MOL0     C21681   3.777  12.510  -0.487  0.1809 -1.2294  1.0814
  902MOL0     C21682   3.714  12.387  -0.460  1.1881  0.2791 -0.0892
  902MOL0     O21683   3.395  12.263  -0.672 -0.4936 -0.5496 -0.4343
  902MOL0     C21684   3.304  12.015  -0.677  1.0032  0.3015 -1.1810
  902MOL0     C21685   3.261  11.874  -0.677  0.9639  0.2443  0.7165
  902MOL0     N21686   3.414  11.132  -0.243  1.0780 -0.2102  1.0169
  902MOL0     N21687   3.405  11.040  -0.151 -0.2487 -0.3929  0.2366
  902MOL0     C21688   3.820  10.436   0.677 -0.5782  0.0002 -0.0613
  902MOL0     C21689   3.792  10.418   0.811 -0.0826  0.0914 -0.7756
  902MOL0     C21690   3.789  10.421   1.247 -0.6154  0.5494  0.4713
  902MOL0     C21691   3.807  10.302   1.325 -0.4042  0.4046  0.1978
  902MOL0     C21692   3.786  10.322   1.464  0.1497  0.2420 -0.4804
  902MOL0     C21693   3.734  10.448   1.515 -0.1395  0.3114  0.0173
  902MOL0     O21694   3.705  10.440   1.657 -0.1761 -0.3234  0.4741
  902MOL0     C21695   3.824  10.414   1.738 -0.3940 -0.3041 -0.8771
  902MOL0     C21696   3.805  10.456   1.883 -0.3721 -1.1224  0.6099
  902MOL0     C21697   3.887  10.567   1.930  0.2706  0.3127  0.7188
  902MOL0     C21698   3.838  10.696   1.877  1.0049 -0.2283 -0.0834
  902MOL0     C21699   3.918  10.800   1.946  0.3616 -0.2337  0.2392
  902MOL0     C21700   3.986  10.873   2.016 -0.2032  0.1639 -0.4142
  902MOL0     C21701   3.704  10.550   1.434  0.4945  0.4676  0.1549
  902MOL0     C21702   3.738  10.534   1.306  0.6860  0.3656 -0.0290
  902MOL0     H21703   3.982  10.703   0.907  3.5282 -1.8148 -1.3559
  902MOL0     H21704   4.019  10.722   0.673 -0.2088 -0.0085  0.9182
  902MOL0     H21705   3.822  10.490   0.323 -0.5363 -1.0682  0.7834
  902MOL0     H21706   3.727  10.605   0.414 -0.4242  2.9441 -3.4688
  902MOL0     H21707   3.979  10.716   0.267 -0.6899  0.7249 -0.2854
  902MOL0     H21708   3.838  10.724   0.195  1.4188  3.4873 -0.5534
  902MOL0     H21709   3.726  10.828   0.402 -1.3599 -2.7611 -1.1141
  902MOL0     H21710   3.886  10.867   0.456 -1.2099  1.7117  0.4944
  902MOL0     H21711   3.906  11.039   0.303 -0.2904 -0.7731  3.2346
  902MOL0     H21712   3.857  10.940   0.165 -0.2080  1.7762 -1.0913
  902MOL0     H21713   3.651  11.037   0.375 -0.2226  2.8633  0.8303
  902MOL0     H21714   3.727  11.159   0.278 -0.7602 -0.8205 -0.3057
  902MOL0     H21715   3.648  11.069   0.068 -0.2288 -1.1211 -0.2454
  902MOL0     H21716   3.612  10.914   0.138  2.5347  1.0823 -2.4714
  902MOL0     H21717   3.440  11.061   0.290  2.5940  1.0683  1.1416
  902MOL0     H21718   3.490  11.198   0.191  1.4056 -0.7047 -1.4929
  902MOL0     H21719   3.263  11.084   0.133 -1.7860 -2.9199 -1.2064
  902MOL0     H21720   3.347  10.947   0.071  2.3630 -1.0945  1.3364
  902MOL0     H21721   3.344  11.334  -0.001 -0.2739 -0.1017  0.0997
  902MOL0     H21722   3.376  11.470  -0.229  1.0222  0.2458  0.7438
  902MOL0     H21723   3.489  11.399  -0.325 -0.4608  1.5269 -0.2098
  902MOL0     H21724   3.186  11.304  -0.345 -0.2345 -2.3628 -1.2039
  902MOL0     H21725   3.319  11.241  -0.452  0.2990  0.8231 -0.4975
  902MOL0     H21726   3.131  11.430  -0.500 -0.1948 -2.1718  4.7473
  902MOL0     H21727   3.288  11.382  -0.597 -0.3188  0.5814 -0.0988
  902MOL0     H21728   3.400  11.562  -0.481 -0.0053  0.6017 -0.2638
  902MOL0     H21729   3.257  11.583  -0.390  3.4417 -1.2059  0.9839
  902MOL0     H21730   3.353  11.774  -0.374  0.5854 -0.0833  0.6169
  902MOL0     H21731   3.429  11.947  -0.239 -0.8728 -1.2780 -1.7892
  902MOL0     H21732   3.538  12.044  -0.329  1.3824 -1.3508  2.5668
  902MOL0     H21733   3.380  12.114  -0.276  0.3858  0.3049 -2.5125
  902MOL0     H21734   3.395  12.465  -0.527  0.5033 -1.1868 -1.0595
  902MOL0     H21735   3.491  12.686  -0.555 -1.5527 -1.9588  0.2653
  902MOL0     H21736   3.605  12.856  -0.458 -1.1757  1.1385  0.0067
  902MOL0     H21737   3.769  12.927  -0.474  0.2376 -0.3987 -0.5307
  902MOL0     H21738   3.609  12.849  -0.724 -0.9946 -0.5261  1.5162
  902MOL0     H21739   3.608  13.005  -0.652  1.7209 -0.0637  0.4309
  902MOL0     H21740   3.883  12.875  -0.734 -0.7799 -0.2282  1.9044
  902MOL0     H21741   3.851  13.030  -0.659  0.2156 -1.0236  1.1989
  902MOL0     H21742   3.753  13.126  -0.858  2.1903  1.2573  0.7816
  902MOL0     H21743   3.906  13.074  -0.910 -1.2223  1.1963 -1.6409
  902MOL0     H21744   3.674  12.897  -0.965 -0.4815  0.4930  1.3624
  902MOL0     H21745   3.828  12.889  -1.040 -0.7438 -0.2007 -0.1690
  902MOL0     H21746   3.659  12.994  -1.193  0.1792 -1.0761  1.0951
  902MOL0     H21747   3.614  13.111  -1.055  2.9880  2.6161  2.2007
  902MOL0     H21748   3.807  13.254  -1.116 -0.5325  0.3955  1.6836
  902MOL0     H21749   3.703  13.222  -1.245 -2.3045 -3.0000  0.1151
  902MOL0     H21750   3.915  13.200  -1.345  2.0697 -1.2289 -1.6904
  902MOL0     H21751   3.844  13.034  -1.329 -3.7469  1.4922 -0.2352
  902MOL0     H21752   3.885  12.495  -0.491 -0.0636 -2.7471 -0.8116
  902MOL0     H21753   3.771  12.296  -0.448 -0.3667 -1.0948 -2.2604
  902MOL0     H21754   3.278  12.060  -0.772 -2.5264 -4.1641 -2.6978
  902MOL0     H21755   3.208  11.824  -0.757  2.8193 -0.4787 -0.1148
  902MOL0     H21756   3.784  10.373   0.596 -0.5962  2.5311 -2.1607
  902MOL0     H21757   3.725  10.340   0.844 -0.4441  1.0152  0.7682
  902MOL0     H21758   3.843  10.206   1.290 -2.3854 -0.2133 -0.2852
  902MOL0     H21759   3.779  10.241   1.537  0.7140  0.4724 -0.1644
  902MOL0     H21760   3.836  10.305   1.735 -3.5639 -0.7719 -4.7183
  902MOL0     H21761   3.914  10.467   1.706  0.6087 -0.1007  1.9750
  902MOL0     H21762   3.845  10.365   1.930  4.9308 -1.0157 -2.8184
  902MOL0     H21763   3.702  10.454   1.920  0.7697 -2.5658  4.2022
  902MOL0     H21764   3.986  10.544   1.890 -1.7013 -2.2187 -3.2939
  902MOL0     H21765   3.892  10.572   2.040  1.0290  1.3706  0.6552
  902MOL0     H21766   3.733  10.705   1.903  1.6074 -2.9114  4.3611
  902MOL0     H21767   3.849  10.693   1.768 -1.9291 -0.3382 -0.4385
  902MOL0     H21768   4.039  10.949   2.070  1.3352  2.1495 -4.3083
  902MOL0     H21769   3.666  10.639   1.484  3.2587 -0.0581  3.5862
  902MOL0     H21770   3.713  10.619   1.243 -0.0064  0.3799  0.2539
  903MOL0     O21771   0.971   5.616   1.779 -1.1030 -0.1281 -0.3831
  903MOL0     C21772   0.933   5.732   1.750  0.1229  0.3054 -0.1038
  903MOL0     O21773   0.801   5.766   1.737 -0.1022  0.0570 -0.7220
  903MOL0     C21774   0.704   5.676   1.749  0.0473  0.8298  0.6872
  903MOL0     C21775   0.676   5.607   1.858  0.0482 -0.9000  0.0114
  903MOL0     C21776   0.583   5.514   1.871 -0.8025  0.2607  1.0276
  903MOL0     C21777   0.504   5.471   1.755  0.1052  0.2854 -0.1346
  903MOL0     O21778   0.437   5.353   1.750  0.1468 -0.1009 -0.1036
  903MOL0     C21779   0.411   5.287   1.879  0.3050 -0.2564  0.3925
  903MOL0     C21780   0.327   5.167   1.866 -1.2720  0.0664  0.0143
  903MOL0     C21781   0.340   5.078   1.988  1.0920  0.6871  0.1610
  903MOL0     C21782   0.254   5.135   2.104  0.1454  0.6574 -0.8233
  903MOL0     C21783   0.296   5.068   2.238  0.3602 -0.3018  0.1255
  903MOL0     C21784   0.250   4.916   2.243  0.1434  0.1184  0.3152
  903MOL0     C21785   0.288   4.854   2.376  0.1968 -0.2965 -0.6358
  903MOL0     C21786   0.180   4.752   2.420  0.0929 -0.8007 -0.2047
  903MOL0     N21787   0.129   4.657   2.323 -0.4775  0.1078  0.3137
  903MOL0     C21788  -0.011   4.643   2.296 -0.7336 -0.7110 -0.7107
  903MOL0     C21789  -0.017   4.553   2.200  0.7955  0.2723 -0.6695
  903MOL0     C21790  -0.158   4.506   2.153  0.1475 -0.2839  0.5610
  903MOL0     C21791  -0.258   4.619   2.149  0.2541  0.8241  0.1843
  903MOL0     C21792  -0.222   4.713   2.027 -0.5649 -0.1422 -1.0660
  903MOL0     C21793  -0.227   4.648   1.883  0.2042  0.0694  0.6119
  903MOL0     O21794  -0.359   4.599   1.849  1.1224 -0.5229  0.5683
  903MOL0     C21795  -0.386   4.590   1.714  0.9564 -1.0886 -0.3240
  903MOL0     C21796  -0.500   4.652   1.671 -1.3757  0.8211 -0.0962
  903MOL0     C21797  -0.542   4.643   1.529  0.7393 -0.1860 -0.1139
  903MOL0     C21798  -0.657   4.744   1.482 -1.2883  0.0861  0.4276
  903MOL0     C21799  -0.476   4.552   1.445 -0.8926  0.1895  0.2194
  903MOL0     C21800  -0.525   4.521   1.304 -0.2142 -0.4036 -0.2485
  903MOL0     O21801  -0.440   4.438   1.238 -0.5294  0.1921 -0.6399
  903MOL0     C21802  -0.485   4.374   1.121 -0.6841 -0.3007 -0.6502
  903MOL0     C21803  -0.519   4.451   1.007 -0.2185  0.5472  0.3853
  903MOL0     C21804  -0.583   4.382   0.896 -0.3863  0.5266 -0.6417
  903MOL0     C21805  -0.619   4.253   0.896  0.5010  0.0864  0.1489
  903MOL0     O21806  -0.716   4.209   0.806  0.2979 -0.7005 -0.7370
  903MOL0     C21807  -0.760   4.068   0.810 -0.8935 -0.1267 -1.0654
  903MOL0     C21808  -0.868   4.050   0.719  0.4172 -0.1934 -0.5224
  903MOL0     C21809  -0.841   4.084   0.575 -0.5449  0.5623 -0.6000
  903MOL0     C21810  -0.947   4.101   0.477  0.1048 -0.1911  0.2178
  903MOL0     C21811  -1.044   4.202   0.513  0.5038  0.1221  0.4541
  903MOL0     C21812  -1.139   4.207   0.388  1.1774 -0.0353  0.3897
  903MOL0     C21813  -1.260   4.302   0.422 -0.1530  0.8974  0.8032
  903MOL0     C21814  -1.322   4.350   0.292  0.6747 -0.8687 -0.7577
  903MOL0    Cl21815  -1.456   4.236   0.240 -0.2264  0.2663  0.2659
  903MOL0     C21816  -0.577   4.182   1.000  0.7725  0.6437 -0.2316
  903MOL0     C21817  -0.493   4.240   1.106  0.4100  0.7145 -0.1932
  903MOL0     O21818  -0.637   4.554   1.262 -0.1170  0.4871 -0.5145
  903MOL0     C21819  -0.357   4.493   1.491 -0.3433  0.6910 -0.1996
  903MOL0     C21820  -0.309   4.512   1.623  0.3263 -0.0772  0.1018
  903MOL0     N21821   0.107   4.513   2.158 -0.1848 -1.0035 -0.0428
  903MOL0     N21822   0.197   4.581   2.233 -0.2116  0.3884 -0.1655
  903MOL0     C21823   0.531   5.551   1.632 -0.4306 -0.2714 -0.4674
  903MOL0     C21824   0.634   5.649   1.632 -0.1144  0.4906 -0.9910
  903MOL0     C21825   1.027   5.848   1.753  0.2097  0.7504 -0.1947
  903MOL0     C21826   1.170   5.837   1.772 -0.1804 -0.2818 -0.1994
  903MOL0     C21827   1.249   5.946   1.804 -0.0069 -0.2742  0.0277
  903MOL0     C21828   1.199   6.078   1.809 -0.1206  1.0311  0.2659
  903MOL0     O21829   1.292   6.171   1.830 -0.3772  0.0107  0.6908
  903MOL0     C21830   1.278   6.311   1.802  0.3713  1.0476  0.1682
  903MOL0     C21831   1.412   6.389   1.808  0.7376  0.0924  0.3443
  903MOL0     C21832   1.535   6.314   1.760 -0.2151 -0.1003  0.3795
  903MOL0     C21833   1.658   6.407   1.761  0.4562 -0.0883  0.6281
  903MOL0     C21834   1.763   6.343   1.689 -0.5379  0.1568 -1.1169
  903MOL0     C21835   1.847   6.289   1.636 -0.6836  0.1041  0.4204
  903MOL0     C21836   1.067   6.088   1.767 -0.2413 -0.6048  0.0780
  903MOL0     C21837   0.982   5.980   1.747  0.5332 -0.4799 -0.1675
  903MOL0     H21838   0.728   5.618   1.953  1.5763 -0.2983 -0.8596
  903MOL0     H21839   0.589   5.448   1.957  0.6239  0.1433  0.8623
  903MOL0     H21840   0.510   5.259   1.916  1.4321  1.8485 -0.8443
  903MOL0     H21841   0.368   5.345   1.961 -1.2802 -3.2844  1.9214
  903MOL0     H21842   0.225   5.200   1.849 -1.8585 -0.2991  2.4794
  903MOL0     H21843   0.363   5.106   1.782 -1.0956 -0.7005  0.6429
  903MOL0     H21844   0.313   4.979   1.951 -0.9816 -0.1839  3.5146
  903MOL0     H21845   0.441   5.069   2.030  0.7610  2.3045  1.4413
  903MOL0     H21846   0.274   5.243   2.102  2.2313  0.4659  2.2515
  903MOL0     H21847   0.148   5.116   2.087 -0.4910  2.4306  0.7091
  903MOL0     H21848   0.401   5.096   2.252  0.5220 -1.4483  1.3751
  903MOL0     H21849   0.232   5.123   2.307 -1.9574  0.3337 -2.3359
  903MOL0     H21850   0.146   4.900   2.212  0.5237 -1.1777 -0.4009
  903MOL0     H21851   0.307   4.861   2.167  2.0664  0.7194  1.2700
  903MOL0     H21852   0.389   4.811   2.377  0.8765  1.1255  2.0861
  903MOL0     H21853   0.300   4.930   2.454  3.2124 -0.8369 -0.4502
  903MOL0     H21854   0.099   4.810   2.466  1.7190  0.7411  0.8737
  903MOL0     H21855   0.222   4.687   2.497 -1.5770 -0.8116  0.7472
  903MOL0     H21856  -0.083   4.714   2.337  2.0582  1.0423  1.5019
  903MOL0     H21857  -0.152   4.459   2.054  2.7467 -1.9376  1.3980
  903MOL0     H21858  -0.196   4.433   2.226 -1.3266 -1.7994 -1.5828
  903MOL0     H21859  -0.257   4.682   2.238 -1.3385  4.0470 -1.8957
  903MOL0     H21860  -0.352   4.567   2.131  3.3001 -5.0157 -1.4320
  903MOL0     H21861  -0.117   4.739   2.040  0.1331 -3.0607 -0.0832
  903MOL0     H21862  -0.298   4.792   2.032 -0.1280  0.2186  1.0777
  903MOL0     H21863  -0.159   4.564   1.871  1.7623  1.3237  0.3397
  903MOL0     H21864  -0.193   4.718   1.807 -2.4631  3.5546  2.3105
  903MOL0     H21865  -0.571   4.700   1.738 -1.9589 -1.8907  1.3898
  903MOL0     H21866  -0.630   4.798   1.392 -3.3202  0.1681 -0.1859
  903MOL0     H21867  -0.747   4.687   1.457  0.3744 -1.5808 -2.3036
  903MOL0     H21868  -0.689   4.808   1.564 -2.9971  0.1367 -0.2417
  903MOL0     H21869  -0.483   4.554   1.005  0.5567  0.2837 -1.9026
  903MOL0     H21870  -0.604   4.431   0.802 -3.4300  2.1508  0.7374
  903MOL0     H21871  -0.673   4.007   0.782  0.3825 -0.6701  3.3019
  903MOL0     H21872  -0.788   4.038   0.912  0.9660 -1.8995 -1.0138
  903MOL0     H21873  -0.900   3.945   0.727 -0.1662  0.0958  1.5575
  903MOL0     H21874  -0.949   4.106   0.768  0.7963 -1.3424  1.5498
  903MOL0     H21875  -0.767   4.020   0.526 -2.5905 -0.3085 -2.8227
  903MOL0     H21876  -0.789   4.179   0.592 -1.2453  0.8638 -0.0898
  903MOL0     H21877  -0.905   4.117   0.377 -1.5542 -0.6927 -0.5889
  903MOL0     H21878  -0.992   4.002   0.466 -0.4621  0.0365  0.4594
  903MOL0     H21879  -1.006   4.297   0.550  0.1054  0.5484 -0.1930
  903MOL0     H21880  -1.103   4.163   0.596  1.2545 -1.3791  0.3292
  903MOL0     H21881  -1.085   4.260   0.308 -2.8389  2.6536 -0.8257
  903MOL0     H21882  -1.160   4.109   0.346  3.1066 -1.8139  3.2233
  903MOL0     H21883  -1.211   4.387   0.471  3.5136 -0.1876 -0.6020
  903MOL0     H21884  -1.332   4.262   0.493  2.5780 -1.8738  2.2430
  903MOL0     H21885  -1.252   4.376   0.212  0.4237  4.5050  0.4061
  903MOL0     H21886  -1.359   4.448   0.322  4.4975  0.3501  0.5520
  903MOL0     H21887  -0.592   4.074   1.005  1.3617  0.3102 -3.3984
  903MOL0     H21888  -0.465   4.164   1.179 -1.3533 -1.2981 -1.4664
  903MOL0     H21889  -0.305   4.417   1.434 -0.2211  0.5200  0.1339
  903MOL0     H21890  -0.217   4.462   1.652  0.7783  0.1417 -0.8977
  903MOL0     H21891   0.480   5.520   1.541 -1.1228 -1.9132  0.4393
  903MOL0     H21892   0.661   5.710   1.546 -3.3970  0.9973 -1.7878
  903MOL0     H21893   1.220   5.741   1.780 -2.7948 -1.6314  1.4386
  903MOL0     H21894   1.352   5.929   1.836 -0.0183 -0.7820 -0.1915
  903MOL0     H21895   1.258   6.312   1.695  2.0017 -1.6521 -0.2474
  903MOL0     H21896   1.190   6.346   1.857 -0.9385 -2.5571  0.6175
  903MOL0     H21897   1.422   6.409   1.915 -2.5257 -1.1643  1.0163
  903MOL0     H21898   1.396   6.489   1.767  2.3149  0.6324  0.9644
  903MOL0     H21899   1.534   6.302   1.651  2.2516 -0.5674  0.3614
  903MOL0     H21900   1.551   6.222   1.816  1.7647  0.6784  1.1694
  903MOL0     H21901   1.682   6.429   1.866  0.9694 -2.1789  0.9881
  903MOL0     H21902   1.629   6.505   1.722 -1.7553 -1.0910 -0.4059
  903MOL0     H21903   1.927   6.240   1.585 -0.5447 -0.7043  1.3814
  903MOL0     H21904   1.031   6.190   1.765  1.1886  0.0387  2.6587
  903MOL0     H21905   0.878   6.001   1.726  0.3876 -0.5611  0.4485
  904MOL0     O21906   6.911   7.904   5.431 -0.9100 -0.1252 -0.6922
  904MOL0     C21907   6.914   7.894   5.552 -0.0997 -0.4503 -0.2189
  904MOL0     O21908   6.945   8.007   5.639 -0.0902  0.4251 -0.3990
  904MOL0     C21909   6.961   8.130   5.571 -0.0534 -0.1058 -0.2570
  904MOL0     C21910   7.067   8.208   5.615 -0.5058  0.7541  0.9358
  904MOL0     C21911   7.096   8.337   5.564 -0.3930  0.4635  0.5313
  904MOL0     C21912   7.007   8.389   5.469 -0.1719 -0.5607  0.0583
  904MOL0     O21913   7.012   8.509   5.410 -0.0132 -0.4910  0.2383
  904MOL0     C21914   7.141   8.582   5.404  1.0048  0.8018  0.0730
  904MOL0     C21915   7.128   8.679   5.284  0.0607  0.6047 -0.7963
  904MOL0     C21916   7.267   8.728   5.242  0.1400 -0.1936  0.4448
  904MOL0     C21917   7.239   8.854   5.164  0.5778 -0.0040 -0.8779
  904MOL0     C21918   7.355   8.900   5.084 -0.1101 -0.3120 -0.0841
  904MOL0     C21919   7.311   9.026   4.993 -0.3989 -0.5971 -0.1928
  904MOL0     C21920   7.422   9.063   4.887  0.1539 -1.1694 -1.1517
  904MOL0     C21921   7.383   9.181   4.796  0.0690 -0.0509  0.0632
  904MOL0     N21922   7.459   9.199   4.673  0.6869  0.6286 -0.3094
  904MOL0     C21923   7.483   9.319   4.613  0.5438  0.4726 -0.1592
  904MOL0     C21924   7.592   9.292   4.536  0.4281 -0.5582  0.7660
  904MOL0     C21925   7.663   9.400   4.450 -0.2955  1.1053 -0.7683
  904MOL0     C21926   7.669   9.379   4.308 -0.0723 -0.2577 -0.3393
  904MOL0     C21927   7.570   9.477   4.234  0.5940  0.2663  1.9248
  904MOL0     C21928   7.583   9.458   4.081 -0.0959  0.9086  0.5949
  904MOL0     O21929   7.464   9.519   4.022 -0.1419  0.3185  0.9983
  904MOL0     C21930   7.495   9.607   3.919 -0.0575  0.3023 -0.6549
  904MOL0     C21931   7.497   9.746   3.958 -0.0230  0.0779  0.8539
  904MOL0     C21932   7.533   9.842   3.859 -0.3736  0.1274  1.1768
  904MOL0     C21933   7.533   9.980   3.907 -0.0433 -0.6889 -0.3468
  904MOL0     C21934   7.574   9.797   3.734  1.0084 -0.3606  0.4840
  904MOL0     C21935   7.610   9.887   3.627 -0.6781  0.7344  0.9698
  904MOL0     O21936   7.601   9.840   3.499 -0.0296 -0.4723 -0.6422
  904MOL0     C21937   7.632   9.913   3.393 -0.3301 -0.7256  0.3588
  904MOL0     C21938   7.708   9.865   3.287  0.6605 -0.3672  0.8520
  904MOL0     C21939   7.724   9.953   3.172 -0.9459  0.4561  0.0061
  904MOL0     C21940   7.678  10.083   3.164  0.4850 -0.6982  0.5858
  904MOL0     O21941   7.712  10.172   3.063 -0.2907 -0.1913  0.7574
  904MOL0     C21942   7.658  10.305   3.046  0.7561  0.2421 -0.1060
  904MOL0     C21943   7.718  10.409   3.142 -0.2070  1.0706  0.5035
  904MOL0     C21944   7.860  10.437   3.100 -0.5227 -0.4769  0.0512
  904MOL0     C21945   7.921  10.569   3.145  0.2127 -0.2992 -0.2115
  904MOL0     C21946   7.848  10.693   3.090  0.0603  0.3683 -0.3434
  904MOL0     C21947   7.798  10.682   2.943  1.4587 -0.5669  0.0593
  904MOL0     C21948   7.715  10.800   2.902  0.5729 -0.0274 -1.0981
  904MOL0     C21949   7.701  10.812   2.762 -0.4219 -0.6635  0.1668
  904MOL0    Cl21950   7.854  10.844   2.691  0.2106 -0.0357  0.3224
  904MOL0     C21951   7.597  10.120   3.270 -0.5984 -1.5153 -0.1046
  904MOL0     C21952   7.566  10.037   3.377  0.8651  0.7698 -0.2169
  904MOL0     O21953   7.655   9.998   3.662 -0.9858  0.9809 -0.0920
  904MOL0     C21954   7.554   9.666   3.699 -0.4872  0.5914  0.1431
  904MOL0     C21955   7.520   9.566   3.791  0.0381 -0.2431  0.4734
  904MOL0     N21956   7.623   9.161   4.534  0.1915  0.3341 -0.3311
  904MOL0     N21957   7.550   9.100   4.624  0.1375 -0.4298  0.5213
  904MOL0     C21958   6.894   8.314   5.434 -1.0869 -1.0077  0.2829
  904MOL0     C21959   6.875   8.181   5.471  0.4006  0.9212  0.9769
  904MOL0     C21960   6.911   7.758   5.600 -1.0393  0.0835  0.0475
  904MOL0     C21961   6.921   7.739   5.734 -0.3514  1.2245 -0.3870
  904MOL0     C21962   6.925   7.611   5.785 -0.1113 -0.1462  0.4805
  904MOL0     C21963   6.921   7.501   5.703  0.0744 -0.4759 -0.7622
  904MOL0     O21964   6.938   7.379   5.758  0.2449  0.7373  0.6111
  904MOL0     C21965   6.877   7.342   5.887 -1.3591  0.4665 -0.4802
  904MOL0     C21966   6.722   7.343   5.866  0.0378  0.3925  0.3611
  904MOL0     C21967   6.671   7.242   5.769  1.2069  0.2632  0.1345
  904MOL0     C21968   6.519   7.236   5.760  0.2719 -0.1763  0.1615
  904MOL0     C21969   6.463   7.130   5.662 -0.4634 -1.0850 -1.3383
  904MOL0     C21970   6.411   7.029   5.626 -0.0181  0.1797  0.2063
  904MOL0     C21971   6.914   7.520   5.561 -0.2130 -0.6953 -0.7568
  904MOL0     C21972   6.900   7.647   5.514  0.5017  0.2786 -0.3476
  904MOL0     H21973   7.137   8.171   5.688  1.2142  4.4526  1.4051
  904MOL0     H21974   7.172   8.399   5.609  0.8391 -0.9642  0.4826
  904MOL0     H21975   7.173   8.618   5.502 -3.2407  0.9588  1.5609
  904MOL0     H21976   7.219   8.515   5.364  1.8900  1.1919  1.1071
  904MOL0     H21977   7.079   8.626   5.202 -5.1835  3.5018  0.0292
  904MOL0     H21978   7.076   8.764   5.328  1.7019  1.2894 -0.0886
  904MOL0     H21979   7.324   8.759   5.330 -1.5147  1.9189  0.8439
  904MOL0     H21980   7.324   8.652   5.188 -0.5974 -2.0930  2.2058
  904MOL0     H21981   7.161   8.825   5.093 -0.0930 -0.3086 -0.0457
  904MOL0     H21982   7.205   8.935   5.230  3.2565  1.0840 -0.6987
  904MOL0     H21983   7.442   8.939   5.136  1.6914 -0.6691 -2.6337
  904MOL0     H21984   7.390   8.823   5.014 -1.1115  0.3498 -1.3657
  904MOL0     H21985   7.222   9.010   4.932 -1.3736  0.4139  0.8977
  904MOL0     H21986   7.266   9.109   5.048 -3.5136 -1.8492 -0.6362
  904MOL0     H21987   7.516   9.086   4.939  0.8195 -0.4720 -2.5935
  904MOL0     H21988   7.438   8.978   4.820 -2.6919 -1.1385 -1.9829
  904MOL0     H21989   7.398   9.275   4.850  0.4375 -1.0525  1.7775
  904MOL0     H21990   7.281   9.164   4.762  1.2973 -2.2543 -2.9176
  904MOL0     H21991   7.440   9.417   4.625  0.4359  1.0004 -3.6960
  904MOL0     H21992   7.615   9.496   4.474 -0.0080  1.0938 -0.1280
  904MOL0     H21993   7.762   9.409   4.495 -1.2371  0.5070  1.5790
  904MOL0     H21994   7.623   9.284   4.280  0.9877 -1.4039  1.5539
  904MOL0     H21995   7.774   9.394   4.281  0.9653 -2.2183  2.1295
  904MOL0     H21996   7.559   9.582   4.263 -0.6090 -0.0006  2.4956
  904MOL0     H21997   7.477   9.423   4.257  0.8441 -0.7936  0.5917
  904MOL0     H21998   7.568   9.355   4.050 -0.1540  2.0135 -3.8271
  904MOL0     H21999   7.676   9.506   4.049  0.0851 -0.2180 -0.6525
  904MOL0     H22000   7.467   9.760   4.061 -0.9127 -2.3529  0.9922
  904MOL0     H22001   7.623   9.997   3.967  1.2083 -2.5076 -1.6190
  904MOL0     H22002   7.513  10.063   3.838  1.0643  0.8582  1.1145
  904MOL0     H22003   7.447   9.977   3.974  1.1376 -0.9190  1.2024
  904MOL0     H22004   7.738   9.761   3.294  2.9523  0.1734  0.0697
  904MOL0     H22005   7.794   9.921   3.095  3.7296  2.5781  2.9331
  904MOL0     H22006   7.662  10.327   2.939  0.1314 -1.0199 -0.3977
  904MOL0     H22007   7.551  10.308   3.069  0.7152  0.0575 -0.2668
  904MOL0     H22008   7.662  10.503   3.143 -0.6576  0.8103  0.4377
  904MOL0     H22009   7.712  10.366   3.242 -1.6647  1.5676  0.6549
  904MOL0     H22010   7.870  10.436   2.991 -2.2407  2.5180 -0.2743
  904MOL0     H22011   7.924  10.356   3.137 -0.2161  1.0710  3.2964
  904MOL0     H22012   7.934  10.573   3.253 -0.2348 -0.3214 -0.1559
  904MOL0     H22013   8.017  10.568   3.091  0.2072  2.9106 -0.4830
  904MOL0     H22014   7.910  10.781   3.106  0.3310  0.1632 -0.2591
  904MOL0     H22015   7.753  10.712   3.142 -0.6222 -0.7449 -1.1234
  904MOL0     H22016   7.884  10.677   2.875  0.0250  0.1044 -1.9133
  904MOL0     H22017   7.733  10.597   2.920 -0.1693  1.1020 -1.9725
  904MOL0     H22018   7.751  10.899   2.933  1.5462 -0.5281 -0.6052
  904MOL0     H22019   7.613  10.784   2.940  0.3479  1.7075 -0.8905
  904MOL0     H22020   7.633  10.895   2.744  2.1385  1.8450  1.2275
  904MOL0     H22021   7.647  10.730   2.713 -4.0670  1.9942 -0.6144
  904MOL0     H22022   7.526  10.202   3.276 -0.2950 -1.3690  2.9849
  904MOL0     H22023   7.504  10.068   3.461 -2.1092 -2.6575 -0.8652
  904MOL0     H22024   7.580   9.620   3.604  0.7804 -0.2637  0.8816
  904MOL0     H22025   7.517   9.458   3.779  1.0848 -0.1066 -1.3339
  904MOL0     H22026   6.827   8.365   5.366 -3.0781 -2.8669  0.7635
  904MOL0     H22027   6.784   8.136   5.434 -0.5075  1.8731  1.9419
  904MOL0     H22028   6.935   7.815   5.810 -3.0772 -1.6664  3.3877
  904MOL0     H22029   6.943   7.594   5.891 -1.8994  3.0442  1.4250
  904MOL0     H22030   6.913   7.243   5.918 -4.4431 -0.5886  0.0156
  904MOL0     H22031   6.908   7.413   5.964 -2.0595 -0.7617  1.0072
  904MOL0     H22032   6.689   7.440   5.827  2.0837  3.5542  5.4975
  904MOL0     H22033   6.670   7.311   5.957 -1.7988 -0.7702 -1.0021
  904MOL0     H22034   6.715   7.148   5.802  1.5349  0.6030  0.6996
  904MOL0     H22035   6.701   7.258   5.665 -0.3609  0.3188 -0.3319
  904MOL0     H22036   6.476   7.332   5.729 -2.0233 -1.1314  0.1674
  904MOL0     H22037   6.480   7.220   5.861  1.1703  0.1637  0.5674
  904MOL0     H22038   6.369   6.940   5.583 -1.4570  0.6582  0.5680
  904MOL0     H22039   6.911   7.431   5.499  4.4476 -0.6618 -1.4254
  904MOL0     H22040   6.892   7.669   5.408  0.4740  0.4436 -0.3121
  905MOL0     O22041   0.600   0.502   3.944  0.0659 -0.7658  0.1509
  905MOL0     C22042   0.591   0.581   4.034  0.7877  0.4924  0.0440
  905MOL0     O22043   0.637   0.703   4.028 -0.5756 -0.1323 -0.7474
  905MOL0     C22044   0.730   0.766   3.942 -0.2440 -0.3957 -0.4752
  905MOL0     C22045   0.772   0.719   3.819 -0.0156 -0.4139  0.4621
  905MOL0     C22046   0.846   0.797   3.730 -0.1932 -0.1947 -0.3365
  905MOL0     C22047   0.885   0.928   3.775 -0.5284 -0.7150 -0.8404
  905MOL0     O22048   0.965   0.996   3.692 -1.2390  0.9340 -0.1691
  905MOL0     C22049   1.067   1.082   3.731 -0.2889 -1.2325  0.0473
  905MOL0     C22050   1.177   1.090   3.616  0.1488 -0.5486 -0.5399
  905MOL0     C22051   1.293   0.993   3.649  0.4201 -0.2236 -0.2260
  905MOL0     C22052   1.255   0.850   3.607 -0.2865  0.9539  0.5508
  905MOL0     C22053   1.388   0.766   3.599  0.0228  1.2260  0.1297
  905MOL0     C22054   1.450   0.736   3.732 -0.3690  0.1984  0.1507
  905MOL0     C22055   1.587   0.675   3.709 -0.0010 -0.0120  0.1045
  905MOL0     C22056   1.643   0.638   3.843  0.2988  0.5419  0.0774
  905MOL0     N22057   1.596   0.498   3.886 -0.6838  0.1325  0.6438
  905MOL0     C22058   1.676   0.389   3.876  0.8950  0.6546  0.6508
  905MOL0     C22059   1.608   0.295   3.947 -0.0301 -0.5546  0.7280
  905MOL0     C22060   1.649   0.152   3.979 -0.0551 -0.6072  0.1007
  905MOL0     C22061   1.791   0.151   4.031 -0.0875  0.0750 -0.6394
  905MOL0     C22062   1.840   0.003   4.068  0.3701 -0.5389  0.3638
  905MOL0     C22063   1.959   0.013   4.165  0.1048 -0.3558  0.5199
  905MOL0     O22064   2.069   0.073   4.095 -0.4925  0.6584  0.9888
  905MOL0     C22065   2.196   0.045   4.132 -0.1189  0.3622 -0.5037
  905MOL0     C22066   2.234  -0.007   4.262 -0.5102  0.0103 -0.4459
  905MOL0     C22067   2.362  -0.034   4.287 -0.0575 -0.3795 -0.7307
  905MOL0     C22068   2.398  -0.068   4.435  0.0367  0.2023  0.4171
  905MOL0     C22069   2.463  -0.016   4.185  0.7641  0.7091  0.0048
  905MOL0     C22070   2.609  -0.060   4.204  1.3857 -0.2188  0.5296
  905MOL0     O22071   2.642  -0.149   4.305  0.5924  0.7782 -0.0827
  905MOL0     C22072   2.767  -0.189   4.345  0.0628  0.9560 -0.2376
  905MOL0     C22073   2.869  -0.227   4.256 -0.0544  0.2285  0.0086
  905MOL0     C22074   2.976  -0.308   4.304 -0.5578 -0.7034  0.5841
  905MOL0     C22075   2.992  -0.344   4.439 -0.6687 -0.5305 -0.0440
  905MOL0     O22076   3.096  -0.417   4.489  0.3306  0.4584  0.6633
  905MOL0     C22077   3.174  -0.515   4.408  0.5397  0.3040 -0.2873
  905MOL0     C22078   3.099  -0.647   4.408  0.0748  0.5991  0.3873
  905MOL0     C22079   3.175  -0.762   4.473 -0.6415 -0.1262 -0.1863
  905MOL0     C22080   3.171  -0.764   4.622  0.3590  0.2119  0.7480
  905MOL0     C22081   3.212  -0.904   4.681  0.2695 -0.3298  0.7471
  905MOL0     C22082   3.246  -0.891   4.827 -0.5837 -0.2508 -1.0184
  905MOL0     C22083   3.271  -1.020   4.900  0.0553  0.3666 -0.0219
  905MOL0     C22084   3.311  -0.996   5.047  0.0112 -0.1742 -0.0751
  905MOL0    Cl22085   3.466  -0.912   5.045  0.0629  0.0719 -0.2160
  905MOL0     C22086   2.902  -0.294   4.534 -0.1786 -0.3413  0.0791
  905MOL0     C22087   2.787  -0.222   4.483 -0.1856  0.5869 -0.1871
  905MOL0     O22088   2.692  -0.017   4.127  0.0022 -0.3154 -0.2493
  905MOL0     C22089   2.423   0.057   4.072 -0.4477  0.2346 -0.0260
  905MOL0     C22090   2.288   0.078   4.039 -0.5736  0.7370  0.0725
  905MOL0     N22091   1.499   0.350   4.007  0.4636 -1.2003  0.9582
  905MOL0     N22092   1.493   0.471   3.972 -0.4640 -1.3752  0.4727
  905MOL0     C22093   0.853   0.971   3.911  0.1276  0.2086  0.0892
  905MOL0     C22094   0.776   0.891   3.988  0.3197  1.0335  0.5888
  905MOL0     C22095   0.529   0.530   4.158  0.7304  0.1499  0.3969
  905MOL0     C22096   0.511   0.621   4.267  0.8925  0.0475 -0.1834
  905MOL0     C22097   0.463   0.570   4.388  1.0939  0.1420 -0.2748
  905MOL0     C22098   0.429   0.443   4.411  0.0034  0.1646 -0.7419
  905MOL0     O22099   0.387   0.420   4.540 -0.7104 -0.4231  0.1116
  905MOL0     C22100   0.377   0.288   4.592  0.8421  0.3063 -0.2330
  905MOL0     C22101   0.511   0.258   4.658 -0.6835 -0.4655 -0.0789
  905MOL0     C22102   0.525   0.104   4.639  0.0541  0.9963  0.3356
  905MOL0     C22103   0.628   0.048   4.733  0.4133 -0.2561  0.2821
  905MOL0     C22104   0.755   0.066   4.672 -0.5877  0.2746 -0.2814
  905MOL0     C22105   0.857   0.067   4.608  0.2704 -0.7727 -0.1418
  905MOL0     C22106   0.449   0.351   4.307 -0.4797 -0.7221  1.1952
  905MOL0     C22107   0.502   0.396   4.178  0.2107  0.5424  0.0323
  905MOL0     H22108   0.753   0.614   3.801 -1.7598 -0.1611  0.6296
  905MOL0     H22109   0.883   0.749   3.640 -2.9706 -2.3674 -0.4959
  905MOL0     H22110   1.019   1.179   3.750  0.3898 -1.2396  2.1250
  905MOL0     H22111   1.106   1.059   3.831  0.2873 -2.3450 -0.4139
  905MOL0     H22112   1.140   1.087   3.513  1.2602 -0.7823 -0.9535
  905MOL0     H22113   1.218   1.191   3.630 -0.2603 -0.7166  2.8848
  905MOL0     H22114   1.378   1.027   3.589 -0.0919  3.3814  0.8238
  905MOL0     H22115   1.313   0.993   3.757  1.1081  3.1028 -0.2397
  905MOL0     H22116   1.184   0.806   3.679 -0.9718  0.7104 -0.2585
  905MOL0     H22117   1.190   0.858   3.520 -0.5593  0.0843  0.6648
  905MOL0     H22118   1.370   0.676   3.541  0.6201  1.8598 -1.0708
  905MOL0     H22119   1.467   0.818   3.543  0.2831 -1.1888 -1.9095
  905MOL0     H22120   1.453   0.827   3.793 -0.3982 -0.2286  0.8037
  905MOL0     H22121   1.396   0.659   3.788 -0.7408 -0.2236 -0.7734
  905MOL0     H22122   1.560   0.592   3.643  2.5257  0.8442 -2.1864
  905MOL0     H22123   1.660   0.745   3.666 -0.7772 -0.1137 -1.4525
  905MOL0     H22124   1.607   0.713   3.915 -2.2482 -1.7833  1.4383
  905MOL0     H22125   1.752   0.640   3.841  0.6311 -4.2740  1.5565
  905MOL0     H22126   1.774   0.386   3.828  1.0893 -1.9446  1.0738
  905MOL0     H22127   1.585   0.115   4.060 -1.9375 -0.0102 -1.0453
  905MOL0     H22128   1.616   0.089   3.895 -2.3228  1.2705 -0.5137
  905MOL0     H22129   1.795   0.216   4.118  0.3187 -0.3151 -0.3648
  905MOL0     H22130   1.860   0.191   3.956  0.7211  0.3226  0.2317
  905MOL0     H22131   1.866  -0.056   3.980  1.6567 -1.1470  1.1359
  905MOL0     H22132   1.751  -0.038   4.117 -3.8334  4.9752 -1.5531
  905MOL0     H22133   1.983  -0.084   4.210  2.7078  0.3122  0.7456
  905MOL0     H22134   1.930   0.084   4.243 -0.6716  0.5822 -0.6059
  905MOL0     H22135   2.159  -0.018   4.339 -1.9852  1.3700 -1.6104
  905MOL0     H22136   2.324  -0.025   4.503 -0.2192  0.9840 -0.3365
  905MOL0     H22137   2.413  -0.174   4.455 -0.2245  0.6213  3.2481
  905MOL0     H22138   2.497  -0.031   4.463  0.6633 -2.3604  1.8988
  905MOL0     H22139   2.848  -0.228   4.149  3.0796  0.3193 -0.7285
  905MOL0     H22140   3.041  -0.354   4.230  1.5122  0.1019  1.8153
  905MOL0     H22141   3.192  -0.487   4.304  1.3466 -1.3558 -0.6404
  905MOL0     H22142   3.271  -0.534   4.456  0.4085 -3.5250 -1.2293
  905MOL0     H22143   2.994  -0.644   4.440 -0.3826 -1.0631 -0.7913
  905MOL0     H22144   3.107  -0.674   4.302  1.7255 -1.5636  0.9768
  905MOL0     H22145   3.273  -0.772   4.426 -0.4608  0.3180  0.0840
  905MOL0     H22146   3.134  -0.859   4.442  1.2931 -1.5710  1.4670
  905MOL0     H22147   3.248  -0.689   4.643  0.5817  0.7297 -1.5922
  905MOL0     H22148   3.074  -0.732   4.661 -0.6559 -3.3925  1.5676
  905MOL0     H22149   3.293  -0.946   4.620  0.3972 -0.3749  0.9465
  905MOL0     H22150   3.122  -0.966   4.680 -0.2843  0.4149  1.9034
  905MOL0     H22151   3.334  -0.827   4.829 -0.9317  0.2259 -0.8731
  905MOL0     H22152   3.168  -0.835   4.880  0.7717 -0.5963  1.4976
  905MOL0     H22153   3.363  -1.055   4.851 -0.8719 -0.4141 -1.2473
  905MOL0     H22154   3.183  -1.083   4.890  0.9878 -0.8808 -0.6792
  905MOL0     H22155   3.315  -1.087   5.107  1.3463  0.1924  0.4290
  905MOL0     H22156   3.231  -0.933   5.087 -2.1459 -1.1920 -2.4859
  905MOL0     H22157   2.915  -0.313   4.640 -1.5016  0.2519  0.3667
  905MOL0     H22158   2.704  -0.201   4.550  1.6352 -2.7596  3.5753
  905MOL0     H22159   2.490   0.095   3.995  1.7861 -1.5795  0.9055
  905MOL0     H22160   2.247   0.118   3.947 -2.3049 -2.2067 -0.5446
  905MOL0     H22161   0.880   1.069   3.951 -2.0459  0.1576  1.8474
  905MOL0     H22162   0.755   0.910   4.093  2.5006 -0.2478  1.3269
  905MOL0     H22163   0.533   0.727   4.262 -1.1773  0.4676 -1.5217
  905MOL0     H22164   0.450   0.650   4.460 -1.5770  1.4914 -2.1037
  905MOL0     H22165   0.292   0.283   4.661 -0.2643  3.9518 -1.1342
  905MOL0     H22166   0.352   0.217   4.512  0.9936 -0.8796  0.7334
  905MOL0     H22167   0.503   0.277   4.765  0.7217 -1.1534  0.1765
  905MOL0     H22168   0.600   0.306   4.615 -0.9992  0.1157 -0.0965
  905MOL0     H22169   0.544   0.075   4.535 -1.9571  0.1044  0.1714
  905MOL0     H22170   0.432   0.049   4.655 -0.0479  0.6538 -1.2563
  905MOL0     H22171   0.605  -0.054   4.767 -0.4574  0.3648  1.6539
  905MOL0     H22172   0.641   0.100   4.828 -1.5336  0.9602 -0.0680
  905MOL0     H22173   0.940   0.061   4.540  0.1970 -0.6800 -0.2403
  905MOL0     H22174   0.439   0.244   4.318  0.6216 -1.0709 -0.6173
  905MOL0     H22175   0.536   0.327   4.102  0.5289 -2.3077  2.5754
  906MOL0     O22176   4.790   2.899  10.479  0.0958  0.2551 -0.1294
  906MOL0     C22177   4.747   2.832  10.384  0.6038  0.1203 -0.0547
  906MOL0     O22178   4.630   2.763  10.372  0.3483 -0.4661  0.8392
  906MOL0     C22179   4.556   2.762  10.485  0.3312 -0.9750 -0.3950
  906MOL0     C22180   4.480   2.878  10.517  0.0264  0.0123 -0.3929
  906MOL0     C22181   4.394   2.877  10.631  0.6234 -0.3389  0.5246
  906MOL0     C22182   4.385   2.768  10.709 -0.2282 -0.3508  0.6113
  906MOL0     O22183   4.293   2.772  10.809 -0.4536 -0.3829 -0.4933
  906MOL0     C22184   4.171   2.702  10.806 -0.2545  0.6286 -0.1275
  906MOL0     C22185   4.164   2.577  10.893  0.8865 -0.5432 -0.2888
  906MOL0     C22186   4.207   2.451  10.816  0.0100 -0.0832  0.7430
  906MOL0     C22187   4.252   2.366  10.928  0.5573 -0.5837  0.4883
  906MOL0     C22188   4.289   2.219  10.894 -0.8440  0.9299  0.4871
  906MOL0     C22189   4.272   2.131  11.021 -0.2193 -0.3768  0.2980
  906MOL0     C22190   4.131   2.131  11.087  0.1546  0.1734  0.4171
  906MOL0     C22191   4.114   2.003  11.172  0.6137 -0.4541 -0.9666
  906MOL0     N22192   4.001   1.927  11.125 -0.2188  0.3916  0.7937
  906MOL0     C22193   3.913   1.850  11.195 -0.2376 -0.8243 -0.4535
  906MOL0     C22194   3.857   1.775  11.105  0.5399 -0.0476  0.2254
  906MOL0     C22195   3.738   1.686  11.135  0.2614  0.4582 -0.2358
  906MOL0     C22196   3.614   1.763  11.176  0.1996  0.6957  0.3530
  906MOL0     C22197   3.614   1.795  11.331  0.6278  0.5028 -0.1277
  906MOL0     C22198   3.476   1.815  11.372  0.7625  0.5334  0.0655
  906MOL0     O22199   3.461   1.810  11.515 -0.4147  0.4657  0.5249
  906MOL0     C22200   3.346   1.819  11.584  0.7518 -0.2146  0.0460
  906MOL0     C22201   3.359   1.809  11.724  0.5088 -0.9053 -0.4818
  906MOL0     C22202   3.242   1.814  11.813 -0.6473  0.7737 -0.9308
  906MOL0     C22203   3.268   1.806  11.962 -0.2751  0.0019 -0.1274
  906MOL0     C22204   3.113   1.828  11.761  0.3922 -0.7256  0.1204
  906MOL0     C22205   2.980   1.836  11.836  0.8964 -1.0021 -0.2568
  906MOL0     O22206   2.997   1.821  11.967  0.1328 -0.1330 -0.1983
  906MOL0     C22207   2.892   1.795  12.055  0.3153 -0.2556 -0.5306
  906MOL0     C22208   2.833   1.891  12.141  0.0481  1.2874 -0.1050
  906MOL0     C22209   2.736   1.848  12.237 -1.0755  0.9275  0.4897
  906MOL0     C22210   2.689   1.715  12.251  0.2337 -0.5365 -0.2075
  906MOL0     O22211   2.596   1.696  12.349 -0.2744 -0.6208  0.0256
  906MOL0     C22212   2.478   1.623  12.291 -0.5707 -0.3021  0.7101
  906MOL0     C22213   2.393   1.715  12.217 -0.0320 -1.0790 -0.1547
  906MOL0     C22214   2.368   1.842  12.298  0.1498 -1.4224 -1.2069
  906MOL0     C22215   2.244   1.905  12.251 -0.8074  0.3887 -1.0722
  906MOL0     C22216   2.254   2.066  12.208 -0.5320  0.4416  0.2717
  906MOL0     C22217   2.117   2.121  12.189  0.3277 -0.0432  0.6761
  906MOL0     C22218   2.052   2.083  12.052  0.3448 -0.0446 -0.8364
  906MOL0     C22219   1.905   2.135  12.037  0.0163  0.4505  0.4568
  906MOL0    Cl22220   1.821   2.083  11.891  0.1366 -0.4656  0.0393
  906MOL0     C22221   2.746   1.625  12.164  0.1616 -0.0364 -0.1799
  906MOL0     C22222   2.840   1.665  12.073 -0.3799  0.8327 -0.3677
  906MOL0     O22223   2.871   1.829  11.777 -0.6842  0.4293  0.3322
  906MOL0     C22224   3.102   1.841  11.622  0.1348 -0.3276  0.3074
  906MOL0     C22225   3.217   1.839  11.536  0.3775  0.2346 -0.1664
  906MOL0     N22226   3.892   1.813  10.979 -0.7579 -0.4079 -0.4482
  906MOL0     N22227   3.978   1.905  10.999  0.3413  0.8797 -0.2292
  906MOL0     C22228   4.460   2.659  10.682 -0.0372  0.5678  0.6303
  906MOL0     C22229   4.547   2.655  10.579  1.1147 -0.5276 -0.3751
  906MOL0     C22230   4.834   2.842  10.273 -0.0398  0.2007  0.7779
  906MOL0     C22231   4.945   2.930  10.262  0.7149  0.3642 -0.1880
  906MOL0     C22232   5.025   2.927  10.152  0.0235  0.5416  0.4925
  906MOL0     C22233   4.989   2.842  10.043 -0.4679 -0.6238 -0.8504
  906MOL0     O22234   5.070   2.842   9.937 -0.2605 -0.0830 -0.5161
  906MOL0     C22235   5.158   2.738   9.935 -0.9912  0.1551 -0.6273
  906MOL0     C22236   5.299   2.790   9.931  0.0434  0.5689 -0.3730
  906MOL0     C22237   5.385   2.660   9.928 -0.2951 -0.7536 -0.5102
  906MOL0     C22238   5.462   2.633   9.794  0.3455 -0.0176  0.3047
  906MOL0     C22239   5.377   2.610   9.681  0.3248 -0.1027 -0.0069
  906MOL0     C22240   5.321   2.592   9.581  0.1960 -0.0245 -0.3148
  906MOL0     C22241   4.885   2.760  10.051 -0.2396 -0.2184 -0.3738
  906MOL0     C22242   4.807   2.758  10.165  0.1187  0.6440 -0.1653
  906MOL0     H22243   4.486   2.963  10.449 -0.1907  0.3967  0.0606
  906MOL0     H22244   4.328   2.961  10.648  1.0038  0.6504 -2.4563
  906MOL0     H22245   4.097   2.770  10.849 -0.8658 -1.3030  2.0537
  906MOL0     H22246   4.138   2.678  10.704 -1.1541 -2.5534  0.8078
  906MOL0     H22247   4.221   2.598  10.985  0.2827  1.2851 -0.2928
  906MOL0     H22248   4.062   2.555  10.924  1.1258 -1.0303  0.1775
  906MOL0     H22249   4.120   2.408  10.766  0.6691  1.0611 -1.5467
  906MOL0     H22250   4.281   2.469  10.737  1.0637  0.5952  1.8459
  906MOL0     H22251   4.329   2.414  10.988 -3.1405  2.6572  3.1276
  906MOL0     H22252   4.167   2.375  10.997  2.3229  1.9927  2.5012
  906MOL0     H22253   4.215   2.188  10.820 -1.0047  1.8476  0.2602
  906MOL0     H22254   4.392   2.200  10.863 -0.8397  0.8592  0.5439
  906MOL0     H22255   4.294   2.025  11.003 -1.2537 -1.1294  2.9944
  906MOL0     H22256   4.346   2.159  11.096 -1.0664  4.6136 -0.3938
  906MOL0     H22257   4.120   2.221  11.148 -0.6784 -0.7566  1.6884
  906MOL0     H22258   4.054   2.150  11.012 -0.6709 -0.1908  1.1597
  906MOL0     H22259   4.106   2.028  11.278 -1.5794  1.9825 -1.6013
  906MOL0     H22260   4.196   1.931  11.170  2.2203  1.2250  0.3503
  906MOL0     H22261   3.895   1.844  11.302  0.9937  2.4664  0.0742
  906MOL0     H22262   3.715   1.634  11.041  2.1960  1.7420 -1.4936
  906MOL0     H22263   3.779   1.618  11.210  0.3802  0.9604  0.1629
  906MOL0     H22264   3.525   1.707  11.145  1.7767 -1.7141 -0.0958
  906MOL0     H22265   3.615   1.853  11.113 -2.0238  1.1714  0.9136
  906MOL0     H22266   3.677   1.877  11.367  1.6332  0.6825 -2.1550
  906MOL0     H22267   3.647   1.713  11.395 -0.3078  2.9213  3.7917
  906MOL0     H22268   3.417   1.731  11.334  0.9883  0.3132  0.1961
  906MOL0     H22269   3.427   1.900  11.324 -0.8120  0.0579  0.7709
  906MOL0     H22270   3.455   1.818  11.773 -1.8454  0.0425  4.5808
  906MOL0     H22271   3.224   1.719  12.013  2.5341 -0.4440  1.7445
  906MOL0     H22272   3.368   1.817  12.005 -0.3014  0.2231 -0.1200
  906MOL0     H22273   3.219   1.888  12.016 -2.5998 -3.0275  2.8134
  906MOL0     H22274   2.859   1.993  12.114 -0.7820  0.3763 -5.6127
  906MOL0     H22275   2.692   1.932  12.289 -0.8766  0.8589  0.7692
  906MOL0     H22276   2.501   1.541  12.223  1.8986  1.5263 -0.8640
  906MOL0     H22277   2.428   1.595  12.384 -1.0472 -0.7807  0.3129
  906MOL0     H22278   2.432   1.748  12.121 -1.1501  3.2791  0.6411
  906MOL0     H22279   2.298   1.663  12.199  0.6001 -2.6259  0.8017
  906MOL0     H22280   2.447   1.914  12.273 -2.0030  0.8064 -1.9589
  906MOL0     H22281   2.355   1.814  12.403 -1.2915 -1.9436 -1.5051
  906MOL0     H22282   2.222   1.855  12.156  1.6958 -1.4250 -0.8051
  906MOL0     H22283   2.165   1.896  12.326  1.2361  3.6068  1.7802
  906MOL0     H22284   2.326   2.068  12.126  0.2984 -2.2165  0.8310
  906MOL0     H22285   2.288   2.127  12.292  1.0051  1.4614 -1.0411
  906MOL0     H22286   2.052   2.086  12.270  1.3778 -1.1351  1.0806
  906MOL0     H22287   2.116   2.230  12.196 -0.9982 -0.0844  1.5465
  906MOL0     H22288   2.036   1.975  12.059 -1.7924  0.3085  0.4745
  906MOL0     H22289   2.115   2.119  11.970 -2.5047  1.9549 -2.3253
  906MOL0     H22290   1.913   2.245  12.040 -1.2403  0.5570  0.3242
  906MOL0     H22291   1.844   2.095  12.119 -0.6357  0.7266  0.1108
  906MOL0     H22292   2.731   1.518  12.170  0.0581 -0.5409 -5.3068
  906MOL0     H22293   2.889   1.605  11.997  2.4533  1.2132  1.0330
  906MOL0     H22294   3.004   1.845  11.575 -0.4204 -1.2606  1.3423
  906MOL0     H22295   3.192   1.835  11.431 -1.2257  1.1858  0.1433
  906MOL0     H22296   4.447   2.569  10.741 -2.7637 -0.0394 -0.7035
  906MOL0     H22297   4.611   2.569  10.559 -1.0057 -2.6984  1.5561
  906MOL0     H22298   4.960   3.001  10.343 -2.5807 -1.2097  2.0055
  906MOL0     H22299   5.119   2.980  10.145  1.4713 -1.7917  1.1660
  906MOL0     H22300   5.154   2.672  10.022 -0.6429  0.3505 -0.4612
  906MOL0     H22301   5.152   2.684   9.840  2.3593  2.5037 -2.3931
  906MOL0     H22302   5.336   2.845  10.018 -0.0670  2.7759 -1.6181
  906MOL0     H22303   5.325   2.838   9.836 -0.8580  0.6837 -0.5665
  906MOL0     H22304   5.329   2.568   9.950  0.7907 -1.1729  0.5733
  906MOL0     H22305   5.460   2.663  10.007 -0.3446  0.8269 -0.4928
  906MOL0     H22306   5.520   2.540   9.804 -2.0086 -1.4568  1.7456
  906MOL0     H22307   5.524   2.720   9.774 -1.0416  0.6756 -1.1440
  906MOL0     H22308   5.260   2.580   9.494  0.6439 -2.1147 -0.3796
  906MOL0     H22309   4.841   2.696   9.975 -3.2605 -0.3160  1.3295
  906MOL0     H22310   4.730   2.683  10.167 -0.4360  1.2007 -0.3016
  907MOL0     O22311   9.819   5.570   5.430 -0.4357  0.1363  0.9194
  907MOL0     C22312   9.759   5.633   5.348 -0.1810  0.1173  0.1744
  907MOL0     O22313   9.810   5.742   5.280  0.4661 -0.3335  0.2220
  907MOL0     C22314   9.949   5.751   5.282  0.2939 -0.5516 -0.3495
  907MOL0     C22315  10.032   5.663   5.207 -0.2319 -0.0211  0.6187
  907MOL0     C22316  10.175   5.676   5.195 -0.5334  0.1525 -0.0884
  907MOL0     C22317  10.238   5.783   5.259  0.5607 -0.4788 -0.4877
  907MOL0     O22318  10.371   5.816   5.250 -0.4468  0.7418 -0.3614
  907MOL0     C22319  10.458   5.744   5.174 -0.6478  0.4857 -0.2828
  907MOL0     C22320  10.598   5.792   5.191  0.0497 -0.0098  0.3096
  907MOL0     C22321  10.695   5.722   5.103  0.0435  0.5087  1.0258
  907MOL0     C22322  10.843   5.752   5.108 -0.4347  0.3820  0.5322
  907MOL0     C22323  10.916   5.689   4.994 -0.5812  0.2100 -0.0021
  907MOL0     C22324  11.021   5.777   4.936 -0.1178 -0.0106  0.1556
  907MOL0     C22325  11.119   5.849   5.031  0.4991  0.6484 -0.6376
  907MOL0     C22326  11.236   5.757   5.046  0.2083 -0.1004  0.1381
  907MOL0     N22327  11.347   5.787   4.964 -0.4913 -0.4175 -0.3294
  907MOL0     C22328  11.441   5.893   4.972  0.1636  0.4457 -0.5243
  907MOL0     C22329  11.538   5.868   4.884  0.1173 -0.0861 -0.3554
  907MOL0     C22330  11.668   5.945   4.865  0.9379 -0.9063  0.8416
  907MOL0     C22331  11.769   5.935   4.974  0.0242  0.4042  0.5301
  907MOL0     C22332  11.819   5.795   4.988  0.0496  0.4177 -0.5391
  907MOL0     C22333  11.733   5.711   5.089 -0.0002  0.3260 -0.5593
  907MOL0     O22334  11.707   5.787   5.207  0.4631  0.1310  0.1294
  907MOL0     C22335  11.764   5.765   5.326  0.4015  1.0385 -0.0341
  907MOL0     C22336  11.858   5.661   5.347 -0.7317 -0.3167 -0.4574
  907MOL0     C22337  11.912   5.630   5.470  0.2665  0.8117  0.3032
  907MOL0     C22338  12.003   5.510   5.491  0.1352  0.2350 -0.0358
  907MOL0     C22339  11.855   5.690   5.583  0.5082 -0.3030  0.5921
  907MOL0     C22340  11.897   5.655   5.717 -0.5959  0.8790  0.8484
  907MOL0     O22341  11.815   5.579   5.791  0.9631 -0.4611  0.1485
  907MOL0     C22342  11.862   5.516   5.900 -0.0104  0.5038  0.4595
  907MOL0     C22343  11.777   5.497   6.020  0.0564 -0.9750  0.1153
  907MOL0     C22344  11.826   5.427   6.131  0.0644 -0.0049  0.8926
  907MOL0     C22345  11.956   5.369   6.125  0.8042  0.5059 -0.4233
  907MOL0     O22346  11.991   5.285   6.234  0.0991 -0.0200  0.4023
  907MOL0     C22347  12.103   5.191   6.212  0.6069 -0.7692 -0.7850
  907MOL0     C22348  12.123   5.092   6.331 -0.2905  0.5582  0.2538
  907MOL0     C22349  11.992   5.024   6.358  0.0958 -1.1962 -0.2036
  907MOL0     C22350  12.020   4.900   6.437  0.5495 -0.8672  0.7870
  907MOL0     C22351  11.923   4.882   6.542 -0.3194  0.0365 -0.8109
  907MOL0     C22352  11.785   4.852   6.490  0.2160  0.2821  0.2253
  907MOL0     C22353  11.696   4.860   6.614 -0.1968  0.0127 -0.2858
  907MOL0     C22354  11.555   4.829   6.593  0.5854  0.1933  0.9674
  907MOL0    Cl22355  11.463   4.770   6.739  0.7643  0.0657 -0.2815
  907MOL0     C22356  12.043   5.397   6.025  0.9578  0.1983  0.7237
  907MOL0     C22357  11.993   5.457   5.904  0.1229 -0.9322 -0.1862
  907MOL0     O22358  12.007   5.700   5.746 -0.1609 -0.9578  0.0118
  907MOL0     C22359  11.774   5.810   5.563  0.7750  0.0382 -0.0842
  907MOL0     C22360  11.723   5.846   5.441 -0.7399 -0.8182 -0.2499
  907MOL0     N22361  11.503   5.765   4.798  1.0979 -0.5009  0.3371
  907MOL0     N22362  11.378   5.730   4.839  0.0475  0.1981 -0.0423
  907MOL0     C22363  10.153   5.865   5.342  0.1168 -0.0126 -0.7575
  907MOL0     C22364  10.015   5.848   5.350 -0.5849 -0.2413  0.2964
  907MOL0     C22365   9.614   5.598   5.323 -0.6640 -0.7730  0.0904
  907MOL0     C22366   9.543   5.647   5.219 -0.0798  0.4038  0.3390
  907MOL0     C22367   9.410   5.611   5.197 -0.8238  0.2480 -0.0830
  907MOL0     C22368   9.334   5.536   5.286 -0.4846  1.0032 -0.0411
  907MOL0     O22369   9.204   5.503   5.279  0.1016  0.1986 -0.4006
  907MOL0     C22370   9.129   5.524   5.151  0.2289 -0.3144 -0.4773
  907MOL0     C22371   8.988   5.473   5.167 -0.2809 -0.1684  0.2669
  907MOL0     C22372   8.918   5.495   5.299  0.4559 -0.1651  0.4056
  907MOL0     C22373   8.766   5.518   5.268 -0.2714  0.9918 -0.2059
  907MOL0     C22374   8.677   5.563   5.373  0.6291  0.3287 -0.1892
  907MOL0     C22375   8.595   5.592   5.456 -0.4766  0.0210 -1.2226
  907MOL0     C22376   9.410   5.485   5.395  1.1587  0.3984  1.2457
  907MOL0     C22377   9.543   5.523   5.416  0.7133  0.4580 -1.3342
  907MOL0     H22378   9.972   5.592   5.152  2.8553 -1.7477 -0.8363
  907MOL0     H22379  10.220   5.607   5.124 -1.7265  0.6596 -1.4016
  907MOL0     H22380  10.445   5.638   5.195  0.2446  0.5336  0.5951
  907MOL0     H22381  10.434   5.760   5.068  3.1179 -4.1855 -2.1931
  907MOL0     H22382  10.595   5.900   5.177  0.9233 -0.1373 -1.0421
  907MOL0     H22383  10.640   5.785   5.292 -0.6115 -0.2467  0.5759
  907MOL0     H22384  10.684   5.614   5.115  0.7954  0.0123 -1.9033
  907MOL0     H22385  10.661   5.728   4.999 -0.3489 -1.6745  0.9712
  907MOL0     H22386  10.849   5.861   5.097 -0.5232  0.2045 -1.9237
  907MOL0     H22387  10.888   5.719   5.202 -1.7763 -4.2650 -0.1947
  907MOL0     H22388  10.963   5.602   5.040 -0.6923  0.5830  0.8396
  907MOL0     H22389  10.854   5.660   4.908  1.8960 -1.8484 -1.2438
  907MOL0     H22390  11.078   5.720   4.862  1.8027 -0.0037  1.5811
  907MOL0     H22391  10.969   5.854   4.878  0.3165  0.7394  0.7513
  907MOL0     H22392  11.146   5.943   4.983  4.7259  0.3388  0.6984
  907MOL0     H22393  11.073   5.865   5.129 -0.4268  2.4890 -1.3263
  907MOL0     H22394  11.222   5.649   5.039  1.7407 -0.3120 -0.1030
  907MOL0     H22395  11.266   5.762   5.151 -0.0902  0.1408  0.2119
  907MOL0     H22396  11.438   5.975   5.044  0.9426 -1.7677  2.2501
  907MOL0     H22397  11.703   5.908   4.768  2.5266  1.0507  0.5840
  907MOL0     H22398  11.644   6.050   4.847  2.9183 -0.7165 -1.1795
  907MOL0     H22399  11.733   5.985   5.064  1.5028 -0.4656  1.6573
  907MOL0     H22400  11.844   6.004   4.933 -1.3795  1.3252 -0.5598
  907MOL0     H22401  11.921   5.796   5.025 -0.3253 -0.6652  0.5945
  907MOL0     H22402  11.821   5.750   4.889  2.4070  1.0943 -0.8367
  907MOL0     H22403  11.777   5.614   5.113 -0.3844 -0.1144 -1.5703
  907MOL0     H22404  11.636   5.678   5.052  0.2163 -1.4598  0.3388
  907MOL0     H22405  11.898   5.599   5.267 -0.3349  0.6247 -1.0014
  907MOL0     H22406  12.027   5.463   5.395  2.9142 -0.0751  0.7255
  907MOL0     H22407  12.099   5.528   5.540  0.0723 -1.5957  0.8267
  907MOL0     H22408  11.948   5.444   5.559 -0.5158 -0.1293 -0.8886
  907MOL0     H22409  11.684   5.554   6.027  0.3769 -0.2612 -1.0711
  907MOL0     H22410  11.760   5.411   6.216 -0.3493  0.5766  0.6849
  907MOL0     H22411  12.091   5.139   6.116 -0.0784 -2.2041  0.0452
  907MOL0     H22412  12.191   5.255   6.200  0.2701 -0.3164 -0.8646
  907MOL0     H22413  12.198   5.017   6.304  1.6633  1.7447  2.1025
  907MOL0     H22414  12.141   5.145   6.424  1.6935 -0.6142  0.5798
  907MOL0     H22415  11.932   4.998   6.271 -1.7196 -1.2187  0.9989
  907MOL0     H22416  11.941   5.104   6.413  1.0550 -0.2527 -0.6482
  907MOL0     H22417  12.025   4.811   6.373 -0.8793 -1.3402  1.2698
  907MOL0     H22418  12.117   4.916   6.484  0.8310 -0.4128  0.0488
  907MOL0     H22419  11.931   4.971   6.606 -1.8480 -0.1970 -0.2526
  907MOL0     H22420  11.952   4.795   6.602 -1.1045 -0.5762 -1.3081
  907MOL0     H22421  11.755   4.932   6.421  3.3128  1.4889  0.0819
  907MOL0     H22422  11.771   4.750   6.454 -1.7040  0.4306  0.4853
  907MOL0     H22423  11.713   4.957   6.663  0.1499 -0.3039  0.2355
  907MOL0     H22424  11.738   4.787   6.683  2.5228 -0.0474 -1.8906
  907MOL0     H22425  11.539   4.762   6.509 -2.6185  2.0482 -0.1109
  907MOL0     H22426  11.507   4.926   6.573  1.3942  0.8980  2.2670
  907MOL0     H22427  12.149   5.375   6.037  0.9527 -0.3902 -0.2402
  907MOL0     H22428  12.063   5.468   5.822 -1.1028 -0.6494 -1.2257
  907MOL0     H22429  11.753   5.876   5.646  0.2063 -1.4877  1.0264
  907MOL0     H22430  11.670   5.940   5.437 -2.3727 -1.6885  0.0745
  907MOL0     H22431  10.187   5.961   5.380 -2.8976  1.9086 -2.4751
  907MOL0     H22432   9.953   5.923   5.397  1.8862  1.3557  1.1203
  907MOL0     H22433   9.600   5.717   5.159 -0.1550  0.8351  0.7621
  907MOL0     H22434   9.362   5.658   5.112 -0.7612  2.5935  1.0861
  907MOL0     H22435   9.136   5.633   5.137 -4.8606  0.1432 -1.0990
  907MOL0     H22436   9.180   5.467   5.073  4.0520 -0.0598  1.5904
  907MOL0     H22437   8.987   5.368   5.138 -0.8498  0.3078 -1.5903
  907MOL0     H22438   8.936   5.527   5.088  2.7970 -0.4086 -2.1177
  907MOL0     H22439   8.966   5.580   5.348 -2.5672  2.5582 -0.9556
  907MOL0     H22440   8.947   5.421   5.374  1.8086  0.5268  0.5938
  907MOL0     H22441   8.728   5.418   5.244 -0.8211  0.8265  1.2570
  907MOL0     H22442   8.747   5.591   5.189 -3.9091  2.7271  2.0294
  907MOL0     H22443   8.523   5.613   5.532 -0.0444  1.5742 -1.2054
  907MOL0     H22444   9.360   5.445   5.482 -0.5014 -0.3068  0.0172
  907MOL0     H22445   9.593   5.489   5.506 -0.1771  0.5317 -0.7976
  908MOL0     O22446   0.078   3.223   5.887  0.4078  0.0583 -0.3992
  908MOL0     C22447  -0.012   3.277   5.814  0.8636 -0.0990 -0.5777
  908MOL0     O22448  -0.130   3.223   5.769 -0.0014 -0.0505 -0.7619
  908MOL0     C22449  -0.160   3.091   5.817 -0.1164 -0.7113 -0.1224
  908MOL0     C22450  -0.194   3.005   5.717 -0.1843  0.5161 -0.1376
  908MOL0     C22451  -0.219   2.871   5.739 -0.1685 -0.1431  0.8970
  908MOL0     C22452  -0.208   2.815   5.865 -0.0187 -0.0679  0.4696
  908MOL0     O22453  -0.233   2.681   5.861 -0.0804  0.6775 -0.1219
  908MOL0     C22454  -0.210   2.610   5.984  0.3332  0.7349 -0.2817
  908MOL0     C22455  -0.277   2.476   5.959  0.3347  0.0234 -0.1860
  908MOL0     C22456  -0.257   2.383   6.082  0.0999  0.3922  0.1450
  908MOL0     C22457  -0.150   2.276   6.048  0.0490 -0.0370 -0.1725
  908MOL0     C22458  -0.130   2.180   6.166  0.5703 -0.4767 -0.6906
  908MOL0     C22459  -0.080   2.258   6.291 -0.1021 -0.3442 -1.2833
  908MOL0     C22460   0.011   2.174   6.376  0.0576 -0.1338  0.8670
  908MOL0     C22461   0.052   2.219   6.515 -0.0351 -0.8232 -0.4450
  908MOL0     N22462  -0.053   2.216   6.616  0.7231 -0.1496  0.0545
  908MOL0     C22463  -0.115   2.334   6.653  0.4003  0.7251 -0.0339
  908MOL0     C22464  -0.213   2.295   6.742 -0.0711 -0.3649  0.1524
  908MOL0     C22465  -0.309   2.391   6.815  0.8230  1.1662  0.5426
  908MOL0     C22466  -0.416   2.330   6.914 -0.6843  0.0119  0.5750
  908MOL0     C22467  -0.511   2.237   6.843  0.5057  0.0912 -0.4460
  908MOL0     C22468  -0.636   2.220   6.925  0.4810  0.4810 -0.9263
  908MOL0     O22469  -0.731   2.136   6.857  0.4775  0.5722  1.0697
  908MOL0     C22470  -0.871   2.160   6.853 -0.0543  0.5068 -0.0808
  908MOL0     C22471  -0.942   2.215   6.957  1.0848  0.5830 -0.4915
  908MOL0     C22472  -1.082   2.213   6.962  1.2681 -0.1387 -1.0153
  908MOL0     C22473  -1.158   2.258   7.097  0.4145 -0.7674  0.1615
  908MOL0     C22474  -1.156   2.173   6.844  0.7311 -0.3717 -0.0964
  908MOL0     C22475  -1.295   2.170   6.823  0.6852  0.4846 -0.5607
  908MOL0     O22476  -1.358   2.063   6.893 -0.8304  0.5720  0.1806
  908MOL0     C22477  -1.493   2.057   6.888 -0.1792  0.3360  0.3112
  908MOL0     C22478  -1.564   2.171   6.920  0.2718  0.2078  0.0525
  908MOL0     C22479  -1.703   2.155   6.914 -1.2364  0.3449  1.0557
  908MOL0     C22480  -1.762   2.035   6.870  0.3444  0.0709 -0.2915
  908MOL0     O22481  -1.900   2.048   6.872  0.0592  0.0456 -0.3671
  908MOL0     C22482  -1.965   1.921   6.892 -1.1452 -0.3424  0.4842
  908MOL0     C22483  -2.122   1.927   6.893 -0.4565 -0.0657 -0.6329
  908MOL0     C22484  -2.199   1.789   6.884 -0.0557 -0.7654  0.4894
  908MOL0     C22485  -2.162   1.693   6.996  0.4234  0.0158  0.2192
  908MOL0     C22486  -2.238   1.568   6.970 -0.3488  0.2669 -0.3617
  908MOL0     C22487  -2.202   1.463   7.079 -0.1930 -0.0442  0.1133
  908MOL0     C22488  -2.060   1.408   7.063  0.0766  0.0970  0.9735
  908MOL0     C22489  -2.033   1.287   7.159  0.3455 -0.1665  0.0748
  908MOL0    Cl22490  -2.051   1.338   7.342  0.4310  0.5653 -0.3237
  908MOL0     C22491  -1.686   1.920   6.848 -0.4351  0.3376 -0.5285
  908MOL0     C22492  -1.548   1.932   6.862 -0.3284 -0.2027  0.6020
  908MOL0     O22493  -1.351   2.248   6.750  0.1432  0.7484 -0.4455
  908MOL0     C22494  -1.079   2.141   6.733  0.7752  0.0791 -0.7999
  908MOL0     C22495  -0.939   2.130   6.738  0.2270  0.0127  0.1916
  908MOL0     N22496  -0.195   2.161   6.754  0.5507 -0.2416  0.9970
  908MOL0     N22497  -0.097   2.109   6.689 -0.0013  0.0406  1.5661
  908MOL0     C22498  -0.170   2.897   5.972 -0.8871  0.1053  0.9919
  908MOL0     C22499  -0.140   3.034   5.944 -0.6770 -0.3183  0.6672
  908MOL0     C22500   0.011   3.417   5.773  0.0067  0.0580 -1.1970
  908MOL0     C22501  -0.085   3.502   5.707 -0.0747  0.0747  0.1923
  908MOL0     C22502  -0.051   3.627   5.652  0.0537  0.4409  0.6079
  908MOL0     C22503   0.068   3.689   5.683 -0.4627  0.0730  0.3787
  908MOL0     O22504   0.113   3.813   5.639 -0.1562 -0.2078 -0.4333
  908MOL0     C22505   0.015   3.910   5.590  0.7217  0.9482 -0.7563
  908MOL0     C22506  -0.006   4.008   5.708  0.4588  0.1120 -0.4541
  908MOL0     C22507   0.134   4.072   5.741  0.0614  1.2117 -0.1884
  908MOL0     C22508   0.130   4.224   5.720 -0.2735 -0.2018  0.1680
  908MOL0     C22509   0.098   4.258   5.588  0.5926 -0.0613  0.3193
  908MOL0     C22510   0.064   4.276   5.476 -1.0175 -0.3489 -0.5416
  908MOL0     C22511   0.158   3.618   5.773 -0.2013 -0.7847 -0.3083
  908MOL0     C22512   0.125   3.489   5.812  0.5522 -1.1117  0.6364
  908MOL0     H22513  -0.204   3.040   5.615 -0.1435 -3.3480 -1.6458
  908MOL0     H22514  -0.250   2.806   5.657 -0.4072  0.5031  0.4700
  908MOL0     H22515  -0.105   2.599   6.012 -0.3814 -0.3596  2.2350
  908MOL0     H22516  -0.262   2.664   6.063  1.8392  1.3858  0.2942
  908MOL0     H22517  -0.385   2.488   5.948 -0.1162 -1.7410  1.5406
  908MOL0     H22518  -0.244   2.437   5.862 -1.5906 -0.7080 -0.5794
  908MOL0     H22519  -0.220   2.440   6.167  1.5545 -1.5706  0.9003
  908MOL0     H22520  -0.352   2.343   6.117  0.6544 -0.2984  0.8790
  908MOL0     H22521  -0.180   2.204   5.971  0.8735 -0.3280 -0.2252
  908MOL0     H22522  -0.050   2.314   6.027 -0.2307  1.7081  1.4054
  908MOL0     H22523  -0.221   2.124   6.188  1.4986 -2.2486 -1.1564
  908MOL0     H22524  -0.062   2.101   6.132  0.6927  0.0832 -1.7980
  908MOL0     H22525  -0.016   2.339   6.254  1.5257 -2.1714 -2.6626
  908MOL0     H22526  -0.149   2.311   6.358  1.4251  0.3978 -0.2402
  908MOL0     H22527  -0.042   2.079   6.374 -1.1750  0.5324 -2.0772
  908MOL0     H22528   0.099   2.155   6.314  2.4925 -0.4908  4.1026
  908MOL0     H22529   0.078   2.326   6.513 -4.4716  0.5505  2.0444
  908MOL0     H22530   0.123   2.141   6.544  0.9553 -0.2410 -1.2587
  908MOL0     H22531  -0.085   2.432   6.617 -0.1987  0.8238 -0.2772
  908MOL0     H22532  -0.242   2.453   6.875  1.6265  0.7271  0.1333
  908MOL0     H22533  -0.362   2.464   6.752  0.2662  1.3791  1.2543
  908MOL0     H22534  -0.465   2.412   6.968  0.4216  1.1444 -0.0755
  908MOL0     H22535  -0.352   2.275   6.983  0.0539 -0.2695 -0.3250
  908MOL0     H22536  -0.471   2.138   6.819 -0.4945  0.0719 -2.2152
  908MOL0     H22537  -0.536   2.281   6.746  0.2315 -0.4089 -0.6012
  908MOL0     H22538  -0.678   2.321   6.937  0.1742  0.6642 -3.1648
  908MOL0     H22539  -0.601   2.171   7.016  4.2000  1.0185 -1.9238
  908MOL0     H22540  -0.882   2.237   7.045  0.3122 -1.9751  0.7805
  908MOL0     H22541  -1.259   2.297   7.079  0.8063  0.0641 -0.2847
  908MOL0     H22542  -1.175   2.179   7.170 -0.7130  0.5383  1.3832
  908MOL0     H22543  -1.110   2.342   7.149 -1.0831  0.0806  0.2296
  908MOL0     H22544  -1.517   2.261   6.958 -0.2075 -0.2074  1.7150
  908MOL0     H22545  -1.758   2.246   6.937 -0.2914  0.9264  1.0423
  908MOL0     H22546  -1.942   1.845   6.816  1.4964  1.3368 -0.5574
  908MOL0     H22547  -1.922   1.881   6.984 -0.4187  0.1034  0.3435
  908MOL0     H22548  -2.159   1.983   6.980 -0.7194  1.8983 -1.9305
  908MOL0     H22549  -2.161   1.971   6.800 -3.1719 -1.0146 -0.0258
  908MOL0     H22550  -2.180   1.732   6.793  0.5619 -0.0492  0.1551
  908MOL0     H22551  -2.306   1.811   6.885  0.4397  2.0719  0.7365
  908MOL0     H22552  -2.055   1.688   7.017  0.1887 -3.8835  1.1163
  908MOL0     H22553  -2.199   1.739   7.089  3.0392  0.7537  0.9833
  908MOL0     H22554  -2.197   1.526   6.878  0.8195 -1.4291  0.8678
  908MOL0     H22555  -2.346   1.582   6.957 -0.8175 -2.1095  0.5309
  908MOL0     H22556  -2.224   1.510   7.176 -0.0048 -0.1332  0.2002
  908MOL0     H22557  -2.277   1.385   7.065 -0.9058  1.0736 -2.8847
  908MOL0     H22558  -1.991   1.488   7.092 -1.4261  1.8385 -0.0354
  908MOL0     H22559  -2.053   1.376   6.958  0.2469 -0.7750  1.2480
  908MOL0     H22560  -1.936   1.239   7.143 -0.6045 -2.2910  0.2771
  908MOL0     H22561  -2.096   1.199   7.143  1.7105 -1.7979  2.9064
  908MOL0     H22562  -1.720   1.817   6.836 -1.1581 -0.2975  4.5607
  908MOL0     H22563  -1.492   1.841   6.842 -1.3755 -0.9743  1.1064
  908MOL0     H22564  -1.128   2.108   6.643  0.1449  0.0170 -0.4418
  908MOL0     H22565  -0.887   2.095   6.649  3.5242  1.7385  1.2661
  908MOL0     H22566  -0.152   2.852   6.069 -0.0934 -1.2381  0.2537
  908MOL0     H22567  -0.081   3.096   6.011  2.3357 -1.3701 -0.8012
  908MOL0     H22568  -0.188   3.473   5.689  0.1809 -0.7684  0.0580
  908MOL0     H22569  -0.128   3.665   5.586  0.7410  0.6328 -0.0972
  908MOL0     H22570   0.051   3.964   5.502 -0.0479  0.6295 -1.2753
  908MOL0     H22571  -0.067   3.862   5.536 -1.4505 -0.8338  3.6554
  908MOL0     H22572  -0.043   3.949   5.792  2.9221  0.7098  1.1444
  908MOL0     H22573  -0.081   4.083   5.681  0.8570  0.5927 -0.2319
  908MOL0     H22574   0.206   4.036   5.666 -0.5916 -1.1943  0.2621
  908MOL0     H22575   0.166   4.051   5.843  0.8481  2.1656 -0.2121
  908MOL0     H22576   0.220   4.275   5.754 -1.6881  1.6712  1.3310
  908MOL0     H22577   0.053   4.261   5.789 -1.8218 -2.4605 -0.2055
  908MOL0     H22578   0.037   4.292   5.373 -1.8601 -0.1021 -0.2813
  908MOL0     H22579   0.251   3.662   5.809 -0.5458 -2.4976  3.0727
  908MOL0     H22580   0.194   3.455   5.888  1.5274 -0.6716 -0.0425
  909MOL0     O22581   5.577   7.999   1.642  0.4128 -0.3350  0.2535
  909MOL0     C22582   5.649   7.978   1.740 -0.1551  0.3107  0.3122
  909MOL0     O22583   5.697   7.852   1.780 -0.1631  0.1886  0.5958
  909MOL0     C22584   5.669   7.750   1.695 -0.8983  0.4343 -0.5216
  909MOL0     C22585   5.714   7.760   1.567  0.1922 -0.5828  0.1949
  909MOL0     C22586   5.675   7.657   1.484 -0.1472 -0.4349  1.2769
  909MOL0     C22587   5.597   7.549   1.522  0.3446  0.3049  0.0065
  909MOL0     O22588   5.553   7.452   1.438  0.0358  0.2569 -0.0167
  909MOL0     C22589   5.662   7.385   1.361 -0.4608 -1.1242 -0.8480
  909MOL0     C22590   5.592   7.274   1.283  0.4538  0.4615  0.2371
  909MOL0     C22591   5.553   7.155   1.377 -0.5180 -0.6912 -0.2666
  909MOL0     C22592   5.560   7.016   1.318  0.4829 -0.4663  1.0451
  909MOL0     C22593   5.546   6.898   1.416 -0.1673 -0.8031  0.4207
  909MOL0     C22594   5.604   6.763   1.352  0.6877 -0.2211 -0.1271
  909MOL0     C22595   5.525   6.714   1.231 -0.4622  0.1733  0.1785
  909MOL0     C22596   5.371   6.730   1.236  1.2596 -0.3490  0.4855
  909MOL0     N22597   5.328   6.648   1.349 -0.2067  0.2918  0.4131
  909MOL0     C22598   5.215   6.697   1.410  0.7516  0.7187 -0.6265
  909MOL0     C22599   5.147   6.583   1.453 -0.3099 -1.4101 -0.1268
  909MOL0     C22600   5.011   6.563   1.527  0.2955  0.1200 -1.1300
  909MOL0     C22601   4.985   6.679   1.627 -0.1395 -0.7600  1.1576
  909MOL0     C22602   4.972   6.817   1.569 -0.0091  0.1574 -0.4725
  909MOL0     C22603   4.884   6.914   1.651  0.2177 -0.1566 -0.0167
  909MOL0     O22604   4.828   7.016   1.571 -0.7348 -0.4768 -0.5821
  909MOL0     C22605   4.907   7.113   1.511  1.1211  0.6665 -0.6673
  909MOL0     C22606   5.030   7.156   1.559  0.1649  0.8641  0.8416
  909MOL0     C22607   5.094   7.260   1.491  0.2575 -0.1371  0.9597
  909MOL0     C22608   5.216   7.301   1.545 -0.9352  0.4508  0.0149
  909MOL0     C22609   5.046   7.316   1.370 -0.8992 -0.2086  1.2082
  909MOL0     C22610   5.112   7.428   1.292  0.1626 -0.2064 -0.7457
  909MOL0     O22611   5.053   7.458   1.176 -0.0663 -0.2758 -0.4504
  909MOL0     C22612   5.102   7.549   1.081 -0.0586  0.1921  0.1701
  909MOL0     C22613   5.238   7.557   1.036  0.4348  0.3047  0.0162
  909MOL0     C22614   5.276   7.639   0.937  0.0737 -1.3298  0.2242
  909MOL0     C22615   5.182   7.722   0.883 -0.1609 -0.2386 -0.6662
  909MOL0     O22616   5.237   7.812   0.795  0.6703 -0.3413 -0.1077
  909MOL0     C22617   5.160   7.931   0.780  0.6426  0.4986  0.5695
  909MOL0     C22618   5.253   8.045   0.747  1.1372 -0.8111  0.1887
  909MOL0     C22619   5.183   8.155   0.664  1.5645  0.4322 -0.0542
  909MOL0     C22620   5.297   8.246   0.619  0.3150  0.4334 -0.1283
  909MOL0     C22621   5.253   8.386   0.582 -1.0626 -0.1973 -0.2658
  909MOL0     C22622   5.343   8.457   0.488 -0.5498 -0.2358  0.6567
  909MOL0     C22623   5.461   8.516   0.550 -0.6459  0.2081  0.3082
  909MOL0     C22624   5.445   8.649   0.626  0.2014  0.5104  0.9969
  909MOL0    Cl22625   5.594   8.692   0.710 -0.0931  0.2110  0.2395
  909MOL0     C22626   5.046   7.704   0.911  0.9828  0.1866 -0.2085
  909MOL0     C22627   5.002   7.619   1.015 -0.1646 -0.2017  0.9697
  909MOL0     O22628   5.194   7.505   1.351 -0.5840  0.8220 -0.4789
  909MOL0     C22629   4.922   7.260   1.311  0.1957 -0.1104 -0.6943
  909MOL0     C22630   4.853   7.170   1.399 -0.2943  0.5352 -0.9644
  909MOL0     N22631   5.220   6.471   1.424 -0.3811  0.3117  1.2442
  909MOL0     N22632   5.309   6.509   1.343 -0.4925 -0.5379  0.3638
  909MOL0     C22633   5.536   7.550   1.647 -0.1974  1.6504 -0.9615
  909MOL0     C22634   5.571   7.657   1.729 -0.5060 -0.1679  0.3229
  909MOL0     C22635   5.707   8.092   1.809 -0.0706  0.0845  0.2908
  909MOL0     C22636   5.764   8.070   1.938  0.7414 -0.6598  0.4228
  909MOL0     C22637   5.821   8.180   2.000  0.4807  0.2694  0.8922
  909MOL0     C22638   5.837   8.307   1.943  0.0627 -0.2155 -0.2575
  909MOL0     O22639   5.915   8.403   2.005 -0.6882 -0.3231 -0.3458
  909MOL0     C22640   5.855   8.540   1.994  0.1068 -1.1344 -0.0404
  909MOL0     C22641   5.964   8.640   2.043  0.1862 -0.2948 -0.3868
  909MOL0     C22642   6.010   8.634   2.189  0.1090  0.1182 -0.0354
  909MOL0     C22643   6.120   8.728   2.206 -0.0339 -0.3415  0.0990
  909MOL0     C22644   6.181   8.720   2.342  0.3112  1.6828  0.1906
  909MOL0     C22645   6.235   8.691   2.447 -0.2358  1.2379  0.8428
  909MOL0     C22646   5.778   8.327   1.809  0.2039 -0.2725 -0.0522
  909MOL0     C22647   5.720   8.219   1.744 -0.3015  0.2077 -0.6970
  909MOL0     H22648   5.748   7.853   1.523  0.5649  0.0064  1.6673
  909MOL0     H22649   5.678   7.662   1.376  2.0673 -0.4093  1.2918
  909MOL0     H22650   5.711   7.462   1.300  2.0174  0.1726  2.4553
  909MOL0     H22651   5.731   7.331   1.427 -2.6915 -3.9836 -0.6234
  909MOL0     H22652   5.500   7.317   1.244 -0.3382  0.5078  2.0971
  909MOL0     H22653   5.658   7.240   1.202  1.3740  3.9874 -0.6750
  909MOL0     H22654   5.641   7.152   1.442 -0.6962 -2.2073 -0.0756
  909MOL0     H22655   5.454   7.159   1.423 -0.4319 -0.8333 -0.0663
  909MOL0     H22656   5.484   7.011   1.239 -1.6983 -0.5565  3.0412
  909MOL0     H22657   5.656   6.996   1.270 -1.2463 -4.1700 -1.3321
  909MOL0     H22658   5.604   6.907   1.509 -1.7969 -0.3751  1.4291
  909MOL0     H22659   5.439   6.893   1.440 -0.1822  0.8111  0.8014
  909MOL0     H22660   5.708   6.785   1.327 -0.5492  2.1949 -4.0462
  909MOL0     H22661   5.597   6.687   1.431  0.3049 -1.8136 -1.6451
  909MOL0     H22662   5.561   6.767   1.142  0.8762  0.7549  1.0366
  909MOL0     H22663   5.552   6.609   1.220 -0.6304  0.1333  0.1496
  909MOL0     H22664   5.326   6.689   1.145  2.0158  2.3671 -1.2540
  909MOL0     H22665   5.346   6.837   1.229  1.9602 -0.1478  0.8849
  909MOL0     H22666   5.178   6.799   1.415  0.3748  0.5863 -0.6652
  909MOL0     H22667   4.930   6.563   1.453 -0.3568  2.8677 -0.5205
  909MOL0     H22668   5.003   6.469   1.582 -4.4068  0.9944  0.0991
  909MOL0     H22669   5.071   6.691   1.693  3.0469 -1.8890 -2.4158
  909MOL0     H22670   4.900   6.652   1.690 -0.0408 -0.5894  1.3640
  909MOL0     H22671   4.932   6.804   1.468  0.6024  1.6624 -0.9265
  909MOL0     H22672   5.065   6.873   1.557 -0.5608  0.6833 -2.6286
  909MOL0     H22673   4.930   6.951   1.743 -1.3187 -1.0222  1.1680
  909MOL0     H22674   4.792   6.861   1.680 -0.7961  0.5683 -1.7521
  909MOL0     H22675   5.081   7.121   1.648  4.7503 -1.8657 -2.4501
  909MOL0     H22676   5.298   7.301   1.473 -0.9902  1.3156 -0.0496
  909MOL0     H22677   5.212   7.393   1.603 -1.4695 -0.6987  1.8735
  909MOL0     H22678   5.238   7.222   1.617 -0.4838 -1.8641 -2.4781
  909MOL0     H22679   5.321   7.511   1.088  0.1230  0.5642  0.7586
  909MOL0     H22680   5.380   7.664   0.918 -0.9187  1.6007 -2.2369
  909MOL0     H22681   5.094   7.924   0.692  1.4736 -0.3337 -0.0064
  909MOL0     H22682   5.101   7.952   0.870  1.7079  1.1857  1.1296
  909MOL0     H22683   5.289   8.077   0.845 -0.4533 -2.1386  1.2427
  909MOL0     H22684   5.331   8.015   0.676  0.9930  4.4186 -2.7322
  909MOL0     H22685   5.103   8.212   0.711  0.0922 -0.3922 -1.4422
  909MOL0     H22686   5.130   8.105   0.582 -1.2948 -1.2097  2.6028
  909MOL0     H22687   5.371   8.256   0.699  1.1464  2.2782 -1.0707
  909MOL0     H22688   5.349   8.193   0.539  1.1790  1.2103 -0.1059
  909MOL0     H22689   5.240   8.449   0.670  2.5265 -0.2401  0.4488
  909MOL0     H22690   5.151   8.375   0.544 -1.9542  3.9723  0.4910
  909MOL0     H22691   5.388   8.386   0.418  1.1458  0.5117  0.9411
  909MOL0     H22692   5.288   8.529   0.427 -0.5899  0.2145  1.2220
  909MOL0     H22693   5.532   8.545   0.471  0.1678 -0.6183  0.7180
  909MOL0     H22694   5.501   8.431   0.606 -3.2589 -2.4186 -1.4984
  909MOL0     H22695   5.365   8.646   0.701 -0.6101 -1.0074  0.1241
  909MOL0     H22696   5.416   8.736   0.566  2.1618  2.0048  2.0600
  909MOL0     H22697   4.960   7.758   0.871  0.1710 -1.0879 -0.2469
  909MOL0     H22698   4.899   7.604   1.045 -1.2164  0.1128 -2.1157
  909MOL0     H22699   4.881   7.296   1.217  1.5469 -0.0695 -1.2982
  909MOL0     H22700   4.753   7.131   1.382 -1.0449  1.6123  0.7578
  909MOL0     H22701   5.464   7.473   1.671 -0.1733  1.5327 -1.2657
  909MOL0     H22702   5.540   7.690   1.828  2.3999  1.3001  0.8444
  909MOL0     H22703   5.777   7.972   1.981  0.4175  0.0115  2.1413
  909MOL0     H22704   5.885   8.156   2.084 -0.9663  0.1664  2.0168
  909MOL0     H22705   5.835   8.560   1.888 -1.7293 -1.2811  0.2461
  909MOL0     H22706   5.758   8.534   2.044  0.8388 -1.6295  1.3771
  909MOL0     H22707   5.920   8.738   2.024 -0.5802  0.6219  4.6424
  909MOL0     H22708   6.049   8.604   1.985 -0.9844  0.1895 -2.4753
  909MOL0     H22709   6.047   8.535   2.219  0.4304  0.3568  0.3788
  909MOL0     H22710   5.930   8.654   2.260 -0.5436  1.5753 -1.1437
  909MOL0     H22711   6.119   8.834   2.179  2.1462  1.0162  4.4886
  909MOL0     H22712   6.204   8.693   2.146  0.5643  4.5934 -2.4997
  909MOL0     H22713   6.281   8.652   2.536 -0.7642 -1.3826  0.0337
  909MOL0     H22714   5.789   8.418   1.752  2.6483 -0.4162  0.0816
  909MOL0     H22715   5.671   8.218   1.647  1.4464 -4.4769 -1.8202
  910MOL0     O22716   1.311  10.279   4.076  0.1653 -0.6064  0.3031
  910MOL0     C22717   1.225  10.341   4.140  0.3495 -0.1606 -0.6164
  910MOL0     O22718   1.153  10.446   4.095  0.9644  0.1843  0.8324
  910MOL0     C22719   1.169  10.491   3.965  0.2374 -0.4070  0.0208
  910MOL0     C22720   1.156  10.406   3.854  0.4060  0.7791 -0.0603
  910MOL0     C22721   1.173  10.450   3.726  0.2725  0.2251  0.4458
  910MOL0     C22722   1.181  10.586   3.699  0.4869 -0.2101 -0.0731
  910MOL0     O22723   1.193  10.648   3.581  0.0843  0.0428 -0.4743
  910MOL0     C22724   1.135  10.574   3.477  0.6450 -0.0254  0.5817
  910MOL0     C22725   1.139  10.654   3.351  0.4182 -0.6735 -0.1348
  910MOL0     C22726   1.067  10.584   3.233 -0.2955 -0.6410 -0.3054
  910MOL0     C22727   1.032  10.664   3.110 -0.2181 -0.3183 -1.5189
  910MOL0     C22728   0.981  10.572   2.991  0.3459  0.3850 -0.4675
  910MOL0     C22729   1.102  10.494   2.945  0.6440 -0.2946  0.5107
  910MOL0     C22730   1.077  10.426   2.806 -0.2763 -0.3507 -1.0405
  910MOL0     C22731   1.078  10.513   2.684  0.2540  0.2377 -0.5236
  910MOL0     N22732   1.045  10.430   2.566  0.9457  0.0796 -0.1187
  910MOL0     C22733   1.108  10.317   2.520 -0.6162  0.6233  0.7695
  910MOL0     C22734   1.030  10.272   2.410 -0.4553  0.2695 -1.1308
  910MOL0     C22735   1.068  10.153   2.311  0.3549  0.4930  0.0219
  910MOL0     C22736   1.217  10.116   2.293 -0.1111 -0.1580  0.8364
  910MOL0     C22737   1.297  10.203   2.190 -0.8577  0.0547 -0.0492
  910MOL0     C22738   1.305  10.354   2.226 -0.9063  0.1488  0.1716
  910MOL0     O22739   1.379  10.379   2.345  1.6108 -0.0821 -0.4318
  910MOL0     C22740   1.360  10.496   2.411 -0.0319  0.0877  0.5047
  910MOL0     C22741   1.274  10.608   2.392 -0.1924 -0.0152  0.7142
  910MOL0     C22742   1.278  10.722   2.473 -0.1914 -0.0630 -0.5073
  910MOL0     C22743   1.197  10.850   2.444  0.1691  0.1468  0.1095
  910MOL0     C22744   1.381  10.730   2.577  0.4231  0.3783 -0.2470
  910MOL0     C22745   1.406  10.841   2.661 -0.4337  0.4800  0.7015
  910MOL0     O22746   1.537  10.902   2.667 -0.3332  0.0199  0.0785
  910MOL0     C22747   1.556  11.016   2.742 -0.0121 -0.0858  0.4587
  910MOL0     C22748   1.654  11.018   2.843 -0.2969  0.1110  0.0583
  910MOL0     C22749   1.684  11.132   2.916 -0.3478 -0.2400 -0.7511
  910MOL0     C22750   1.609  11.247   2.885 -0.4386 -0.4623 -0.4190
  910MOL0     O22751   1.617  11.359   2.958 -0.1357  0.3260  0.0689
  910MOL0     C22752   1.626  11.342   3.102 -0.2185  0.4256 -0.5957
  910MOL0     C22753   1.551  11.454   3.183 -0.7107  0.6738 -0.5075
  910MOL0     C22754   1.642  11.582   3.201  0.7437  0.1545 -0.4416
  910MOL0     C22755   1.769  11.565   3.280  0.6941 -1.0266 -0.2263
  910MOL0     C22756   1.815  11.700   3.341 -0.3160  0.0817  0.1651
  910MOL0     C22757   1.960  11.689   3.400  0.3482 -0.4017  0.0786
  910MOL0     C22758   1.964  11.590   3.529 -0.7446 -0.6548 -0.2381
  910MOL0     C22759   2.048  11.629   3.652  0.3193 -0.7981  0.4039
  910MOL0    Cl22760   1.992  11.788   3.725  0.3069 -0.2500  0.3693
  910MOL0     C22761   1.505  11.240   2.797 -0.8351  0.4911 -0.3634
  910MOL0     C22762   1.490  11.125   2.709 -0.4087 -0.9789  0.2933
  910MOL0     O22763   1.309  10.877   2.735 -0.1622  0.4331 -0.3490
  910MOL0     C22764   1.463  10.621   2.599 -0.6466  0.1070 -0.6909
  910MOL0     C22765   1.456  10.515   2.515  0.3479  0.0525 -0.3462
  910MOL0     N22766   0.921  10.362   2.390 -0.2373  0.7731 -0.6980
  910MOL0     N22767   0.922  10.442   2.497 -1.0994 -0.2000 -0.4858
  910MOL0     C22768   1.179  10.672   3.812 -0.1697  0.4053 -0.3426
  910MOL0     C22769   1.171  10.628   3.951  0.3164  0.1929  1.2833
  910MOL0     C22770   1.193  10.285   4.276 -0.3713  0.2545  0.1691
  910MOL0     C22771   1.273  10.183   4.325 -0.0788 -0.2244 -0.1425
  910MOL0     C22772   1.257  10.124   4.445 -1.1002 -1.0891  0.6818
  910MOL0     C22773   1.150  10.165   4.525  0.3606 -0.0836 -0.0926
  910MOL0     O22774   1.150  10.113   4.652  0.1419  1.0538 -0.1312
  910MOL0     C22775   1.117  10.202   4.764  0.7994 -0.9487  0.0658
  910MOL0     C22776   1.200  10.156   4.878  0.2479 -0.0014 -0.5668
  910MOL0     C22777   1.352  10.158   4.846  0.4304 -0.5059 -0.4635
  910MOL0     C22778   1.429  10.138   4.965  0.5450 -0.6957  0.5171
  910MOL0     C22779   1.568  10.120   4.926 -1.5204  0.0676  0.2059
  910MOL0     C22780   1.689  10.096   4.888 -0.2050 -0.2483 -0.6374
  910MOL0     C22781   1.056  10.256   4.470 -0.4811 -0.5327  0.2497
  910MOL0     C22782   1.085  10.328   4.352 -0.3610 -0.1384 -0.4654
  910MOL0     H22783   1.143  10.304   3.889 -1.1263  1.2955  1.0077
  910MOL0     H22784   1.176  10.368   3.655  0.7023 -1.5807  2.4393
  910MOL0     H22785   1.190  10.484   3.447  0.3391 -0.5184  1.4497
  910MOL0     H22786   1.041  10.528   3.510  0.0031 -1.2478 -2.5343
  910MOL0     H22787   1.092  10.753   3.348  1.2017 -0.2560 -3.6055
  910MOL0     H22788   1.241  10.667   3.313 -0.3020 -0.9396 -2.3154
  910MOL0     H22789   1.121  10.492   3.209 -1.8252 -2.0552  1.3480
  910MOL0     H22790   0.969  10.552   3.269 -0.1484 -1.1095 -0.3101
  910MOL0     H22791   0.948  10.727   3.142 -1.3408 -2.8556  0.9893
  910MOL0     H22792   1.122  10.721   3.085  1.3012 -1.4602  0.8701
  910MOL0     H22793   0.913  10.499   3.034  0.8864  1.0546  1.6654
  910MOL0     H22794   0.946  10.638   2.911  1.6349  0.5584 -0.9215
  910MOL0     H22795   1.179  10.569   2.925 -2.4524  3.6758  2.0281
  910MOL0     H22796   1.134  10.419   3.018  0.8375 -1.2037 -0.4765
  910MOL0     H22797   1.150  10.344   2.797  1.7272  1.2452 -0.2063
  910MOL0     H22798   0.977  10.382   2.803 -1.3338  1.9198 -0.6357
  910MOL0     H22799   1.179  10.553   2.666  1.2184 -1.7735  0.1367
  910MOL0     H22800   1.004  10.592   2.701  0.1160  0.0360 -0.1868
  910MOL0     H22801   1.205  10.274   2.545  0.0560  2.3654  1.3282
  910MOL0     H22802   1.012  10.063   2.338 -1.1690  1.1131 -0.9409
  910MOL0     H22803   1.022  10.171   2.214  0.5334 -2.5182 -0.7031
  910MOL0     H22804   1.215  10.015   2.252  1.9181  0.0599  0.1215
  910MOL0     H22805   1.263  10.103   2.392  1.3103 -0.2701  0.1873
  910MOL0     H22806   1.251  10.191   2.092 -3.3929 -2.1043  1.2721
  910MOL0     H22807   1.396  10.160   2.176  0.0815  1.3377  2.0567
  910MOL0     H22808   1.202  10.381   2.250 -0.7085 -0.0826  1.3624
  910MOL0     H22809   1.353  10.418   2.151  1.3655 -0.2097  1.2247
  910MOL0     H22810   1.204  10.589   2.311 -1.6054  0.0752  1.8599
  910MOL0     H22811   1.114  10.832   2.375  0.3744 -1.5478  0.2745
  910MOL0     H22812   1.147  10.879   2.537  1.8221 -1.2756  1.4950
  910MOL0     H22813   1.264  10.927   2.402  1.2156 -0.2358  1.0410
  910MOL0     H22814   1.709  10.926   2.857 -0.6339 -0.4973 -2.2862
  910MOL0     H22815   1.758  11.142   2.994 -0.1912 -1.8714 -0.6715
  910MOL0     H22816   1.577  11.250   3.135  1.9615  0.4459  3.3419
  910MOL0     H22817   1.728  11.335   3.140 -0.2530 -0.3588 -0.6358
  910MOL0     H22818   1.461  11.485   3.129 -0.4208  0.8457 -0.8907
  910MOL0     H22819   1.514  11.404   3.273  2.3234  0.1252  0.5487
  910MOL0     H22820   1.588  11.669   3.238  1.1000 -0.5258  1.8162
  910MOL0     H22821   1.673  11.599   3.097  5.3024 -0.7233  0.5464
  910MOL0     H22822   1.739  11.494   3.357 -1.4775  1.0918  1.0280
  910MOL0     H22823   1.850  11.525   3.218  0.7185  0.4398 -1.1932
  910MOL0     H22824   1.753  11.724   3.428 -2.0220 -1.5918 -0.5014
  910MOL0     H22825   1.810  11.772   3.259 -0.8383 -2.1856 -1.9032
  910MOL0     H22826   2.027  11.659   3.320  0.1266 -0.8459  0.0548
  910MOL0     H22827   1.992  11.788   3.434  1.8849 -0.7625 -0.2421
  910MOL0     H22828   2.000  11.500   3.479 -0.4208  0.5588 -2.3112
  910MOL0     H22829   1.866  11.561   3.569 -1.4456 -1.9215 -2.6908
  910MOL0     H22830   2.153  11.632   3.621  0.8674 -1.6432  2.0452
  910MOL0     H22831   2.034  11.552   3.729  0.9497  0.8574  2.2654
  910MOL0     H22832   1.461  11.331   2.757  1.8921  1.0962 -2.2948
  910MOL0     H22833   1.427  11.147   2.624 -0.8675 -4.3342 -0.3810
  910MOL0     H22834   1.529  10.628   2.685  0.6465  2.3466 -1.7632
  910MOL0     H22835   1.521  10.431   2.535  0.5924  0.2549 -0.2870
  910MOL0     H22836   1.190  10.780   3.808  3.5908  0.3414  2.7139
  910MOL0     H22837   1.166  10.703   4.030 -3.1654  2.2439 -0.6270
  910MOL0     H22838   1.345  10.140   4.256 -1.2677  1.7939 -2.7851
  910MOL0     H22839   1.324  10.044   4.475 -0.6256 -1.0702 -0.2702
  910MOL0     H22840   1.132  10.307   4.739  2.4105 -1.6391 -2.2441
  910MOL0     H22841   1.010  10.185   4.778  0.1708 -0.2956 -3.0302
  910MOL0     H22842   1.167  10.061   4.921 -0.0697  0.5976  0.5645
  910MOL0     H22843   1.185  10.236   4.952  0.8820  0.6842 -1.1632
  910MOL0     H22844   1.378  10.258   4.811 -0.8743  0.4292  1.0882
  910MOL0     H22845   1.381  10.084   4.771 -1.1509  0.9881 -2.6844
  910MOL0     H22846   1.398  10.047   5.017 -1.0659 -0.6526 -0.2790
  910MOL0     H22847   1.422  10.222   5.035  3.5884 -0.5104  0.7029
  910MOL0     H22848   1.793  10.086   4.866 -0.2391  0.4744 -1.1674
  910MOL0     H22849   0.970  10.265   4.536 -1.6212 -0.3464 -1.2071
  910MOL0     H22850   1.010  10.401   4.324  0.0709  0.9227  1.0722
  911MOL0     O22851   5.290  10.930   7.238  0.1327  0.4383 -0.3730
  911MOL0     C22852   5.169  10.926   7.275  0.1537 -0.3473  0.7442
  911MOL0     O22853   5.122  10.861   7.389 -1.2563 -0.2749 -0.0296
  911MOL0     C22854   5.209  10.763   7.442 -0.1801  0.3391 -0.1976
  911MOL0     C22855   5.281  10.673   7.367  0.2947  0.0343 -0.5178
  911MOL0     C22856   5.359  10.573   7.433  0.6810 -0.5535  0.4663
  911MOL0     C22857   5.362  10.563   7.571 -0.2867 -0.1477 -0.7641
  911MOL0     O22858   5.453  10.471   7.624  0.1162 -0.0503  0.1987
  911MOL0     C22859   5.436  10.422   7.752 -0.4120  0.8432  0.8154
  911MOL0     C22860   5.321  10.318   7.772  0.1392 -0.5138 -1.1183
  911MOL0     C22861   5.322  10.272   7.920 -0.4623 -0.3281 -0.2736
  911MOL0     C22862   5.445  10.183   7.955  0.6807  0.7185 -0.2395
  911MOL0     C22863   5.424  10.114   8.084 -0.4141  0.3723  0.5238
  911MOL0     C22864   5.526  10.009   8.115 -0.2916 -0.1348  0.0240
  911MOL0     C22865   5.661  10.051   8.155 -1.3746 -0.0419 -0.3918
  911MOL0     C22866   5.770   9.930   8.150  0.3151 -0.6109  0.0829
  911MOL0     N22867   5.900   9.978   8.198 -0.2821 -0.6575 -0.8937
  911MOL0     C22868   5.974   9.935   8.307  0.4158 -0.6117 -0.6794
  911MOL0     C22869   6.099   9.970   8.283  0.3652 -0.3540  0.7370
  911MOL0     C22870   6.227   9.942   8.364 -0.4682 -0.4052  0.0048
  911MOL0     C22871   6.319  10.068   8.371  0.2774 -0.4139 -0.1018
  911MOL0     C22872   6.444  10.042   8.459 -0.2410  0.7577  0.1449
  911MOL0     C22873   6.422  10.077   8.611 -0.5798 -0.0073 -1.2377
  911MOL0     O22874   6.316  10.006   8.679  0.2100 -0.7208  0.1053
  911MOL0     C22875   6.350   9.894   8.748 -0.5875 -1.5986 -0.5447
  911MOL0     C22876   6.476   9.836   8.743  0.1298  0.1925  0.3702
  911MOL0     C22877   6.490   9.711   8.809  0.8157  0.3316 -0.5780
  911MOL0     C22878   6.624   9.643   8.790 -0.1637  0.2632 -0.3756
  911MOL0     C22879   6.382   9.652   8.874  0.1891 -0.0672  0.1143
  911MOL0     C22880   6.403   9.517   8.942 -0.1063  0.4934  0.3187
  911MOL0     O22881   6.519   9.487   9.012 -0.1171 -0.8687 -0.0578
  911MOL0     C22882   6.550   9.359   9.022  0.1709  0.3189 -0.3192
  911MOL0     C22883   6.563   9.276   8.909  0.8470  0.6274 -0.0511
  911MOL0     C22884   6.612   9.144   8.921 -1.3249 -1.0679  0.2839
  911MOL0     C22885   6.629   9.085   9.044  0.0650 -0.5004 -1.0667
  911MOL0     O22886   6.675   8.957   9.058  0.4143  0.2234  0.1839
  911MOL0     C22887   6.651   8.867   8.952  0.5132  0.4814  0.8347
  911MOL0     C22888   6.510   8.821   8.939 -0.2999  0.6169 -0.4955
  911MOL0     C22889   6.473   8.739   9.062 -0.6894 -0.2563  0.5080
  911MOL0     C22890   6.316   8.743   9.076  1.0627  1.4649  1.1900
  911MOL0     C22891   6.250   8.670   8.959 -0.7350 -0.2882  0.2112
  911MOL0     C22892   6.103   8.651   8.989 -0.2061 -0.4210  1.0267
  911MOL0     C22893   6.024   8.573   8.879 -0.2543 -0.6234 -1.0349
  911MOL0     C22894   6.091   8.438   8.848  0.3654  0.6530 -0.8163
  911MOL0    Cl22895   6.118   8.347   8.993 -0.3757  0.0493  0.2475
  911MOL0     C22896   6.627   9.167   9.156  0.9948  0.6369 -0.2736
  911MOL0     C22897   6.590   9.299   9.145  0.2858 -0.2150  0.5100
  911MOL0     O22898   6.307   9.435   8.921 -0.4499  1.0656 -0.4489
  911MOL0     C22899   6.259   9.722   8.883 -0.4147  0.9848 -0.0680
  911MOL0     C22900   6.239   9.839   8.810 -0.5292 -1.4171  0.3019
  911MOL0     N22901   6.104  10.039   8.168 -0.0787 -0.2199 -0.0466
  911MOL0     N22902   5.988  10.055   8.122 -0.2738 -0.4072  0.0148
  911MOL0     C22903   5.284  10.662   7.650 -0.1828 -0.8540 -0.0622
  911MOL0     C22904   5.217  10.756   7.583 -0.1942 -0.8543 -0.0320
  911MOL0     C22905   5.067  10.988   7.190 -0.2254  0.9062 -0.4859
  911MOL0     C22906   5.104  11.074   7.086 -0.0903  0.9659 -0.3718
  911MOL0     C22907   5.002  11.147   7.022 -0.2431  1.1924  0.2112
  911MOL0     C22908   4.872  11.139   7.064 -0.9272  0.4887 -0.8049
  911MOL0     O22909   4.771  11.207   6.990  0.0185 -0.4469 -0.5454
  911MOL0     C22910   4.720  11.326   7.050 -0.7670  0.2842 -0.4005
  911MOL0     C22911   4.581  11.361   7.008  0.7022 -0.4509  0.3517
  911MOL0     C22912   4.497  11.241   7.046  0.5619  0.2850 -0.3685
  911MOL0     C22913   4.466  11.220   7.199 -0.2252 -0.8320 -0.4951
  911MOL0     C22914   4.404  11.325   7.281  0.4049 -0.1621  0.7122
  911MOL0     C22915   4.377  11.417   7.353 -0.3128 -0.3832  0.4372
  911MOL0     C22916   4.833  11.058   7.165  1.5693 -0.1426  0.8129
  911MOL0     C22917   4.930  10.986   7.230  1.5015  0.1898 -0.4036
  911MOL0     H22918   5.259  10.688   7.261 -1.9511  1.5444  0.0796
  911MOL0     H22919   5.411  10.507   7.365 -2.3539 -1.9577 -0.7026
  911MOL0     H22920   5.527  10.364   7.770 -0.2332  0.8269 -0.0835
  911MOL0     H22921   5.427  10.498   7.829 -0.3477  1.0084  0.6602
  911MOL0     H22922   5.227  10.374   7.775 -0.7288 -1.8999  2.6517
  911MOL0     H22923   5.302  10.236   7.702  0.4777  0.4578 -2.3931
  911MOL0     H22924   5.334  10.359   7.984 -0.4553 -2.1895  2.4224
  911MOL0     H22925   5.226  10.229   7.950 -0.2621 -2.8517 -2.7596
  911MOL0     H22926   5.458  10.119   7.867  0.6255 -1.1637  1.0698
  911MOL0     H22927   5.541  10.236   7.959  1.1441 -0.1642  0.7341
  911MOL0     H22928   5.422  10.188   8.164 -1.5006 -0.2314  1.0864
  911MOL0     H22929   5.327  10.063   8.084 -2.5860  3.7263  5.6424
  911MOL0     H22930   5.484   9.936   8.184 -0.2733 -0.8037 -0.6498
  911MOL0     H22931   5.540   9.949   8.024 -1.4673  1.6579 -1.4273
  911MOL0     H22932   5.697  10.128   8.086 -2.2068  1.4493  0.7647
  911MOL0     H22933   5.654  10.096   8.254 -1.8586  1.2427 -0.9888
  911MOL0     H22934   5.781   9.895   8.047 -0.4067 -0.5141 -0.0313
  911MOL0     H22935   5.735   9.844   8.207  1.9399 -0.2687  1.7189
  911MOL0     H22936   5.937   9.873   8.388 -0.8283  2.1224  1.0117
  911MOL0     H22937   6.198   9.910   8.465  0.6904 -1.3723  0.0579
  911MOL0     H22938   6.285   9.863   8.315 -1.3905 -0.1342 -1.5893
  911MOL0     H22939   6.261  10.139   8.430  1.2238 -1.8313  2.7223
  911MOL0     H22940   6.347  10.109   8.274  0.7612  3.0615  1.3373
  911MOL0     H22941   6.525  10.102   8.417 -0.8918  0.6812 -1.2756
  911MOL0     H22942   6.469   9.936   8.453 -0.8990  0.4331  2.3633
  911MOL0     H22943   6.406  10.185   8.610  2.3759  0.6197  1.3161
  911MOL0     H22944   6.520  10.061   8.659 -1.5270  2.0497  1.6648
  911MOL0     H22945   6.554   9.867   8.675 -1.2723  1.8189 -0.5789
  911MOL0     H22946   6.603   9.536   8.781  1.1958 -0.1138  0.7666
  911MOL0     H22947   6.678   9.675   8.700 -1.0354  2.4539 -0.1876
  911MOL0     H22948   6.699   9.651   8.869  2.4602  1.1705 -2.7952
  911MOL0     H22949   6.540   9.321   8.813 -1.6625  3.1122  1.5482
  911MOL0     H22950   6.629   9.088   8.829  1.4860  1.1255 -0.6694
  911MOL0     H22951   6.691   8.901   8.856  0.5802  1.9902  1.3773
  911MOL0     H22952   6.712   8.780   8.980  1.7057  0.5361 -1.3233
  911MOL0     H22953   6.447   8.908   8.918 -1.6850 -0.1133  0.5159
  911MOL0     H22954   6.510   8.761   8.848 -1.1313  1.8278 -1.3139
  911MOL0     H22955   6.507   8.784   9.155  0.3079  1.7293 -0.7406
  911MOL0     H22956   6.513   8.639   9.046  0.5519  0.1189  1.1961
  911MOL0     H22957   6.291   8.688   9.167  1.7699 -4.3492 -1.6636
  911MOL0     H22958   6.271   8.843   9.073  1.1566  1.5021  1.0168
  911MOL0     H22959   6.289   8.568   8.949 -0.7986 -0.2101 -0.8664
  911MOL0     H22960   6.275   8.703   8.858  1.2752 -0.7467  0.5066
  911MOL0     H22961   6.090   8.603   9.086  1.9246 -0.0655  1.5375
  911MOL0     H22962   6.069   8.755   8.989  5.9591  2.0629 -1.6177
  911MOL0     H22963   6.013   8.631   8.787 -0.6147  2.5063  0.8204
  911MOL0     H22964   5.922   8.556   8.916  0.5122 -1.6431  0.6901
  911MOL0     H22965   6.183   8.456   8.793  1.5616  0.6104  1.0780
  911MOL0     H22966   6.018   8.381   8.790 -1.2394  0.0815  1.6141
  911MOL0     H22967   6.644   9.133   9.258 -0.8754  2.2687  0.6484
  911MOL0     H22968   6.573   9.352   9.238  1.0779 -1.3641  1.3424
  911MOL0     H22969   6.175   9.684   8.940 -1.4866  0.4894 -1.8883
  911MOL0     H22970   6.145   9.894   8.815  0.2083 -0.2305  2.3919
  911MOL0     H22971   5.283  10.666   7.758  1.8161 -0.1807 -0.0251
  911MOL0     H22972   5.175  10.834   7.646 -2.4324 -1.1506 -1.0849
  911MOL0     H22973   5.208  11.087   7.058  0.1267 -0.4445 -0.2771
  911MOL0     H22974   5.043  11.224   6.958 -0.2258 -1.0611 -2.7184
  911MOL0     H22975   4.734  11.333   7.158  0.8184 -1.7673 -0.4185
  911MOL0     H22976   4.790  11.391   6.998  1.2285 -2.6096 -1.5993
  911MOL0     H22977   4.574  11.365   6.899 -0.4580 -5.1037  0.0472
  911MOL0     H22978   4.543  11.451   7.056  0.7468  0.0300 -0.5034
  911MOL0     H22979   4.548  11.153   7.005  0.5517 -0.4828  1.2024
  911MOL0     H22980   4.405  11.243   6.985 -0.6290 -0.8534  1.2887
  911MOL0     H22981   4.558  11.178   7.240  0.1605 -0.8127 -1.3281
  911MOL0     H22982   4.380  11.153   7.207 -1.9949  1.4084  0.6554
  911MOL0     H22983   4.343  11.503   7.407 -1.1038 -1.0921  1.0755
  911MOL0     H22984   4.727  11.064   7.186  1.3215  6.2825 -0.2458
  911MOL0     H22985   4.890  10.943   7.322 -1.0233  6.0428  1.7566
  912MOL0     O22986   7.757   1.837   2.446  0.3617  0.0689 -0.1219
  912MOL0     C22987   7.639   1.860   2.480  0.4399 -0.2447  0.8832
  912MOL0     O22988   7.546   1.938   2.400 -0.2069 -0.3616  0.2533
  912MOL0     C22989   7.591   2.012   2.298  0.1234 -0.4981  0.8585
  912MOL0     C22990   7.694   2.099   2.301  0.6026  0.6248 -0.8229
  912MOL0     C22991   7.702   2.187   2.191 -1.1850 -0.3105 -0.0828
  912MOL0     C22992   7.619   2.179   2.078  1.2003 -0.0024 -0.3156
  912MOL0     O22993   7.643   2.265   1.968  0.4623 -0.3847 -0.2972
  912MOL0     C22994   7.586   2.235   1.838 -0.0940 -0.6183 -0.2214
  912MOL0     C22995   7.691   2.167   1.746  0.4475  0.6887 -0.7279
  912MOL0     C22996   7.634   2.110   1.620  0.3410 -0.2985  0.1688
  912MOL0     C22997   7.554   1.979   1.645  0.1003  1.1126  0.1269
  912MOL0     C22998   7.515   1.899   1.513  0.1293 -0.7373 -1.0480
  912MOL0     C22999   7.465   1.994   1.406  0.3355  1.0640  0.1864
  912MOL0     C23000   7.333   2.060   1.461  0.1731 -0.3331 -0.0664
  912MOL0     C23001   7.283   2.163   1.349  0.6323 -0.1658 -0.3938
  912MOL0     N23002   7.164   2.240   1.396 -0.2719 -0.3459  0.1180
  912MOL0     C23003   7.156   2.310   1.515 -0.5071 -0.7391  0.8702
  912MOL0     C23004   7.019   2.344   1.522 -0.8670 -0.4378 -0.2892
  912MOL0     C23005   6.927   2.396   1.636  0.0289 -0.1801  0.5282
  912MOL0     C23006   7.008   2.471   1.744  0.4704  0.3083  0.2278
  912MOL0     C23007   7.034   2.611   1.689 -0.7569 -0.9106 -0.2071
  912MOL0     C23008   7.103   2.689   1.799  0.6323 -0.3379  0.1270
  912MOL0     O23009   7.009   2.736   1.890  0.0753  1.0484 -0.6842
  912MOL0     C23010   6.928   2.850   1.871  1.0300  0.7787  0.3671
  912MOL0     C23011   6.935   2.949   1.772 -0.0096 -0.4711 -0.8780
  912MOL0     C23012   6.838   3.044   1.753  0.0434 -0.5954  0.3461
  912MOL0     C23013   6.868   3.141   1.641  0.8328 -0.7438  0.2647
  912MOL0     C23014   6.731   3.032   1.839  0.0875 -0.8688 -0.5951
  912MOL0     C23015   6.630   3.132   1.830  0.5368 -0.3547 -0.3606
  912MOL0     O23016   6.586   3.165   1.714 -0.6587 -0.0464  0.3903
  912MOL0     C23017   6.471   3.234   1.704 -0.0461  0.0768  0.8528
  912MOL0     C23018   6.348   3.182   1.750 -0.0981  0.5031 -0.7341
  912MOL0     C23019   6.231   3.252   1.715 -0.2791  0.3668  0.3569
  912MOL0     C23020   6.227   3.350   1.609 -0.0320  0.0961 -0.4182
  912MOL0     O23021   6.111   3.408   1.588  0.3224 -0.3198  0.8186
  912MOL0     C23022   6.110   3.550   1.594 -0.0538  0.0464  0.2090
  912MOL0     C23023   5.989   3.626   1.530  0.4947 -0.6771  0.3424
  912MOL0     C23024   5.991   3.776   1.555 -0.0693  0.6621 -0.2399
  912MOL0     C23025   5.885   3.874   1.513  0.3516 -0.5711  0.1345
  912MOL0     C23026   5.744   3.813   1.538 -0.1153  0.0469 -0.5660
  912MOL0     C23027   5.642   3.909   1.476 -0.3782  0.0662 -0.7033
  912MOL0     C23028   5.618   3.899   1.329 -0.3190 -0.2280  0.4729
  912MOL0     C23029   5.474   3.955   1.290 -0.3123 -0.0834  0.5428
  912MOL0    Cl23030   5.455   4.136   1.343  0.3739  0.0976  0.2893
  912MOL0     C23031   6.353   3.388   1.554  0.1255 -1.5047  0.5438
  912MOL0     C23032   6.473   3.334   1.605  0.2223  0.3888  0.2068
  912MOL0     O23033   6.582   3.166   1.944  0.1864  0.0694  0.0517
  912MOL0     C23034   6.717   2.933   1.937  0.8860 -0.0677 -0.5958
  912MOL0     C23035   6.816   2.846   1.952  0.1715  1.2262  0.5734
  912MOL0     N23036   6.960   2.304   1.397  0.0254  0.6327  0.2934
  912MOL0     N23037   7.046   2.241   1.329 -0.8256 -0.2514 -0.4791
  912MOL0     C23038   7.505   2.088   2.092  0.3070  0.1155  0.0485
  912MOL0     C23039   7.496   2.012   2.193 -0.7015  0.5747 -0.4358
  912MOL0     C23040   7.575   1.796   2.594 -0.6205  0.1796  0.3733
  912MOL0     C23041   7.440   1.744   2.585  1.1034 -0.5243  0.2113
  912MOL0     C23042   7.365   1.694   2.694 -0.3631  0.2185 -0.0008
  912MOL0     C23043   7.427   1.679   2.812  0.4189  0.2892 -0.9908
  912MOL0     O23044   7.359   1.643   2.924 -0.5666  0.1470 -0.2759
  912MOL0     C23045   7.426   1.592   3.038 -0.1322  0.2732  0.3600
  912MOL0     C23046   7.439   1.697   3.146  0.0078 -0.2223  0.0147
  912MOL0     C23047   7.506   1.630   3.270 -1.4282  0.0588 -0.3454
  912MOL0     C23048   7.561   1.738   3.364 -0.0024 -0.8058 -0.3664
  912MOL0     C23049   7.464   1.828   3.431  0.1578 -0.9242  0.8183
  912MOL0     C23050   7.372   1.896   3.480 -0.8114 -0.1626 -1.2390
  912MOL0     C23051   7.567   1.713   2.821  0.2109  0.0016  0.0781
  912MOL0     C23052   7.645   1.763   2.714 -0.1053 -0.1965  0.4987
  912MOL0     H23053   7.762   2.091   2.385 -0.9988  4.5104  1.1046
  912MOL0     H23054   7.786   2.255   2.186 -0.3004 -1.4069 -0.6721
  912MOL0     H23055   7.496   2.172   1.838 -0.1846 -0.4899 -0.0936
  912MOL0     H23056   7.552   2.322   1.781 -2.0187 -2.0681 -1.4266
  912MOL0     H23057   7.758   2.250   1.728  2.1602  0.2948  2.9536
  912MOL0     H23058   7.743   2.082   1.792  0.9236  0.5548 -1.4972
  912MOL0     H23059   7.573   2.175   1.556  0.1648 -0.3830  0.2484
  912MOL0     H23060   7.721   2.077   1.563 -0.6526 -0.3545 -1.3702
  912MOL0     H23061   7.617   1.909   1.701 -2.3015 -3.4007 -2.2718
  912MOL0     H23062   7.461   1.992   1.702 -1.2785  0.7435 -1.9106
  912MOL0     H23063   7.610   1.861   1.473 -0.7470 -0.2227 -3.8642
  912MOL0     H23064   7.454   1.815   1.547  1.7786 -1.0398  1.4527
  912MOL0     H23065   7.549   2.061   1.383  1.0714  0.6308  1.4723
  912MOL0     H23066   7.442   1.949   1.309  1.6729 -0.9577  0.7469
  912MOL0     H23067   7.260   1.982   1.483  1.3584 -0.5373  3.8111
  912MOL0     H23068   7.349   2.111   1.557  1.3659 -0.8786  0.0396
  912MOL0     H23069   7.262   2.112   1.254 -3.8420  0.3766  0.0909
  912MOL0     H23070   7.358   2.243   1.342 -2.5587  2.9846 -1.8251
  912MOL0     H23071   7.235   2.322   1.589 -0.0205  0.8974  0.1563
  912MOL0     H23072   6.848   2.462   1.599 -1.4989 -1.0178  2.1643
  912MOL0     H23073   6.877   2.316   1.691 -1.3107  0.0473 -0.3088
  912MOL0     H23074   7.100   2.415   1.763 -0.2518 -0.9063  0.2044
  912MOL0     H23075   6.942   2.481   1.831 -0.2993 -1.0026 -0.1918
  912MOL0     H23076   6.947   2.662   1.645  1.5516  0.7066 -3.2964
  912MOL0     H23077   7.108   2.621   1.610  0.1471  0.7137  0.7882
  912MOL0     H23078   7.162   2.774   1.764  0.2079 -0.2960 -0.5014
  912MOL0     H23079   7.179   2.626   1.847 -0.3304 -0.5406  1.4448
  912MOL0     H23080   7.017   2.949   1.701  0.3006  0.5106 -0.5505
  912MOL0     H23081   6.780   3.136   1.576  1.4237 -1.1842 -0.5072
  912MOL0     H23082   6.876   3.242   1.682 -0.1473  0.3181 -1.9827
  912MOL0     H23083   6.949   3.128   1.569  0.5147  5.1218 -1.6679
  912MOL0     H23084   6.341   3.086   1.800 -0.7810  0.6696 -0.4926
  912MOL0     H23085   6.137   3.233   1.765 -1.2257  0.8324 -1.1742
  912MOL0     H23086   6.122   3.584   1.697  0.4627  0.3979  0.0413
  912MOL0     H23087   6.196   3.607   1.556 -0.6767  1.0667  0.2863
  912MOL0     H23088   5.997   3.605   1.423 -0.5465  1.5495 -0.2398
  912MOL0     H23089   5.899   3.579   1.569 -0.7398  0.1118 -1.4387
  912MOL0     H23090   6.094   3.803   1.530  0.0636  0.7378  0.3685
  912MOL0     H23091   5.999   3.786   1.664  0.9454 -0.4288 -0.1957
  912MOL0     H23092   5.890   3.969   1.567 -2.0909 -0.0182 -0.4479
  912MOL0     H23093   5.903   3.894   1.406  2.3755 -3.1095 -0.0709
  912MOL0     H23094   5.724   3.799   1.644  2.7655 -3.4607 -0.2848
  912MOL0     H23095   5.730   3.714   1.492 -2.9484  0.7497 -1.3880
  912MOL0     H23096   5.557   3.882   1.539 -1.2389 -0.7376 -2.1747
  912MOL0     H23097   5.666   4.014   1.497  1.2805 -0.1877 -1.1533
  912MOL0     H23098   5.629   3.797   1.292  4.3249  0.0543  0.4995
  912MOL0     H23099   5.700   3.960   1.290  0.3232 -0.0447  2.0596
  912MOL0     H23100   5.398   3.905   1.351  3.4372 -1.4584  4.6017
  912MOL0     H23101   5.440   3.946   1.186 -3.0407  0.0893  1.3315
  912MOL0     H23102   6.351   3.462   1.475  2.2752 -0.9359  0.9670
  912MOL0     H23103   6.563   3.378   1.564 -1.3812  2.9348 -0.8495
  912MOL0     H23104   6.641   2.936   2.014  1.6278  0.3416  0.1439
  912MOL0     H23105   6.800   2.762   2.018 -2.8508  0.9738 -0.3234
  912MOL0     H23106   7.426   2.087   2.017  0.0565 -0.4838  0.3189
  912MOL0     H23107   7.404   1.955   2.191  0.4076 -1.2876 -0.5408
  912MOL0     H23108   7.388   1.762   2.492  3.2104 -2.0808 -1.3771
  912MOL0     H23109   7.267   1.654   2.672 -1.1325  1.1291  1.5826
  912MOL0     H23110   7.368   1.511   3.083  0.1945 -1.8662 -2.7720
  912MOL0     H23111   7.524   1.551   3.013 -0.2870 -0.8899  1.5357
  912MOL0     H23112   7.336   1.729   3.162 -0.6158 -1.4177 -1.3794
  912MOL0     H23113   7.496   1.782   3.106  1.1943 -0.6945  0.6489
  912MOL0     H23114   7.580   1.561   3.228 -2.3200 -0.7559 -0.6057
  912MOL0     H23115   7.436   1.569   3.327  0.4218 -0.8608  1.0813
  912MOL0     H23116   7.623   1.803   3.302 -3.0281  0.9799 -1.6885
  912MOL0     H23117   7.634   1.692   3.432  0.4611 -1.1229 -1.0706
  912MOL0     H23118   7.292   1.957   3.517  0.3435  0.1816  0.7936
  912MOL0     H23119   7.630   1.685   2.905  0.0467  2.3650  1.0621
  912MOL0     H23120   7.750   1.788   2.724  0.3530 -2.0684  0.6432
  913MOL0     O23121   4.759   5.300   1.404 -0.4771 -0.6666 -0.1492
  913MOL0     C23122   4.762   5.409   1.348 -0.2365  0.4586 -1.2634
  913MOL0     O23123   4.701   5.522   1.397  0.1799 -0.2562 -0.2992
  913MOL0     C23124   4.646   5.508   1.520 -0.0649  0.4163  0.3573
  913MOL0     C23125   4.507   5.505   1.552 -0.1440  0.5065  0.0235
  913MOL0     C23126   4.470   5.495   1.689 -0.1496 -0.8356 -1.1978
  913MOL0     C23127   4.569   5.502   1.794  0.1968  0.4927  0.0220
  913MOL0     O23128   4.540   5.517   1.925 -0.0729  0.8369  0.2131
  913MOL0     C23129   4.635   5.525   2.034  0.3152  0.2012 -0.2076
  913MOL0     C23130   4.562   5.556   2.169  1.0780 -0.4482  0.1499
  913MOL0     C23131   4.654   5.536   2.287  0.4400 -0.0045  1.3082
  913MOL0     C23132   4.793   5.595   2.286  0.8644  0.4715 -0.2303
  913MOL0     C23133   4.908   5.490   2.319 -0.4560  0.1085 -0.0089
  913MOL0     C23134   5.039   5.575   2.324 -0.1744 -0.2669 -0.3944
  913MOL0     C23135   5.175   5.509   2.329  0.4638 -0.3645 -0.1971
  913MOL0     C23136   5.190   5.399   2.223 -0.2898  0.8416 -0.0422
  913MOL0     N23137   5.307   5.436   2.136  0.3734 -0.1258 -0.1123
  913MOL0     C23138   5.432   5.464   2.178  0.4752  0.0318  0.1650
  913MOL0     C23139   5.506   5.462   2.061  0.0903 -0.4264 -0.4183
  913MOL0     C23140   5.650   5.492   2.038  0.6760  0.1313 -0.4495
  913MOL0     C23141   5.746   5.409   2.126 -0.5987  0.6281 -0.2855
  913MOL0     C23142   5.700   5.263   2.131  0.1194 -0.3372  0.3943
  913MOL0     C23143   5.784   5.174   2.223 -0.2853  0.1608  0.6010
  913MOL0     O23144   5.713   5.126   2.340 -0.2195  0.0084  0.2096
  913MOL0     C23145   5.753   5.154   2.468  0.6494  0.1501  0.4509
  913MOL0     C23146   5.740   5.059   2.571  0.2572 -0.5897  0.4357
  913MOL0     C23147   5.770   5.079   2.701 -0.5158  0.2352  1.3748
  913MOL0     C23148   5.728   4.959   2.798 -0.8069 -0.6836  0.1719
  913MOL0     C23149   5.830   5.202   2.734  0.2635  0.5796  0.5141
  913MOL0     C23150   5.879   5.230   2.866 -0.1346 -0.5328  0.1956
  913MOL0     O23151   5.958   5.341   2.875 -0.0356  0.5414  0.1255
  913MOL0     C23152   6.023   5.365   2.991  1.0174  0.0800 -0.6331
  913MOL0     C23153   5.950   5.400   3.105  1.0361 -0.3797  0.9144
  913MOL0     C23154   6.008   5.445   3.221  0.4765 -1.4844  0.5370
  913MOL0     C23155   6.140   5.452   3.231  0.0045 -0.5246 -0.0043
  913MOL0     O23156   6.188   5.497   3.353  0.2157 -0.2868  0.4941
  913MOL0     C23157   6.291   5.603   3.349  0.5026  1.0151 -0.6705
  913MOL0     C23158   6.274   5.659   3.490 -0.8170 -0.2124 -0.2096
  913MOL0     C23159   6.418   5.698   3.554 -0.5346  0.6873 -1.0410
  913MOL0     C23160   6.450   5.568   3.633 -0.1378 -1.0793  1.3324
  913MOL0     C23161   6.577   5.597   3.715 -0.6445 -0.3477  0.6694
  913MOL0     C23162   6.628   5.470   3.775  0.1208 -0.2743 -0.0375
  913MOL0     C23163   6.738   5.485   3.881  0.1858 -0.1331 -0.5756
  913MOL0     C23164   6.793   5.356   3.924 -0.0719  0.4261  0.1876
  913MOL0    Cl23165   6.902   5.385   4.058  0.2105  0.1691  0.2461
  913MOL0     C23166   6.221   5.420   3.128 -0.1864  0.4135  1.4906
  913MOL0     C23167   6.162   5.373   3.003 -0.1300 -0.3248 -0.7921
  913MOL0     O23168   5.825   5.174   2.963 -0.0381 -0.2760 -0.2404
  913MOL0     C23169   5.846   5.299   2.634 -0.4036 -0.0756  0.9351
  913MOL0     C23170   5.805   5.282   2.505  0.9649  1.0258  0.5118
  913MOL0     N23171   5.423   5.434   1.954 -0.4798  0.3627  0.2304
  913MOL0     N23172   5.310   5.406   2.001 -0.7390 -0.3247  0.0969
  913MOL0     C23173   4.701   5.489   1.756 -0.2760 -1.2626  0.2270
  913MOL0     C23174   4.733   5.506   1.624 -0.9806  1.5298  0.4186
  913MOL0     C23175   4.813   5.421   1.206  0.5337  0.7862 -0.0932
  913MOL0     C23176   4.858   5.311   1.124 -0.1038 -0.4786 -0.4804
  913MOL0     C23177   4.893   5.332   0.992 -0.1000 -0.0058 -0.0208
  913MOL0     C23178   4.904   5.464   0.935  0.0312  0.0479  0.5517
  913MOL0     O23179   4.956   5.500   0.813  1.0521  0.1085 -0.7191
  913MOL0     C23180   4.985   5.409   0.710 -0.0426 -0.2774  0.7994
  913MOL0     C23181   5.133   5.401   0.728 -0.4590  0.1383  0.0431
  913MOL0     C23182   5.182   5.275   0.660  0.3770  1.0119  0.6235
  913MOL0     C23183   5.202   5.299   0.511  0.5495  0.0132  0.0649
  913MOL0     C23184   5.079   5.283   0.431 -0.1988  0.5662  0.1080
  913MOL0     C23185   4.975   5.270   0.363 -1.5703 -0.8905 -0.3844
  913MOL0     C23186   4.877   5.571   1.019  0.3686  0.0287 -0.9821
  913MOL0     C23187   4.820   5.548   1.151 -0.4921 -0.0138  0.5939
  913MOL0     H23188   4.430   5.499   1.476 -0.6755 -2.8147  0.6737
  913MOL0     H23189   4.367   5.494   1.722 -0.0529 -1.4794 -0.8903
  913MOL0     H23190   4.690   5.431   2.044 -0.1845 -0.5599 -3.2873
  913MOL0     H23191   4.699   5.612   2.021  0.3868  0.4721  1.7159
  913MOL0     H23192   4.532   5.661   2.163  2.4041 -0.0448  0.3172
  913MOL0     H23193   4.481   5.483   2.172  1.8632 -1.4342 -1.1585
  913MOL0     H23194   4.606   5.576   2.377 -0.3946  2.9844 -0.3444
  913MOL0     H23195   4.649   5.427   2.298 -2.6305 -0.2979 -1.6586
  913MOL0     H23196   4.821   5.630   2.186 -1.0550  1.5076 -0.4502
  913MOL0     H23197   4.808   5.681   2.352 -1.7178  0.3320  0.6288
  913MOL0     H23198   4.888   5.430   2.408  0.6574 -0.0740  0.1355
  913MOL0     H23199   4.920   5.422   2.235  1.4622  0.1111  0.2125
  913MOL0     H23200   5.028   5.641   2.237 -0.3444  0.1614 -0.0509
  913MOL0     H23201   5.029   5.641   2.411  0.1999 -1.4432  0.5655
  913MOL0     H23202   5.247   5.590   2.316  1.3055 -1.3105 -1.6476
  913MOL0     H23203   5.189   5.465   2.429  2.5958 -0.6225 -0.5701
  913MOL0     H23204   5.104   5.385   2.157  0.1361  0.6661 -0.5588
  913MOL0     H23205   5.214   5.311   2.284  0.3153  2.2811  1.9208
  913MOL0     H23206   5.455   5.494   2.279  0.9107  3.0134 -0.7194
  913MOL0     H23207   5.662   5.459   1.934 -0.1141 -0.9590 -0.2026
  913MOL0     H23208   5.671   5.599   2.054 -1.0384  0.6338 -1.3214
  913MOL0     H23209   5.754   5.452   2.226  2.5459 -0.1057 -0.1353
  913MOL0     H23210   5.848   5.408   2.088 -0.1936  0.4369  0.7807
  913MOL0     H23211   5.698   5.220   2.030  1.5162 -2.0429  1.0488
  913MOL0     H23212   5.594   5.252   2.158 -0.1200 -4.3488 -1.4134
  913MOL0     H23213   5.875   5.228   2.246 -1.4775  1.6123  2.1636
  913MOL0     H23214   5.819   5.095   2.155  0.0304  2.9026 -2.6753
  913MOL0     H23215   5.701   4.964   2.537  3.4578 -0.8188 -3.3006
  913MOL0     H23216   5.692   4.876   2.737  1.9515 -0.0485 -2.5389
  913MOL0     H23217   5.819   4.935   2.853 -0.8785  1.6722  1.4721
  913MOL0     H23218   5.651   4.978   2.873 -2.2239 -2.9122 -0.6324
  913MOL0     H23219   5.845   5.379   3.086  1.2436 -0.0053 -0.8142
  913MOL0     H23220   5.961   5.462   3.317  1.9949  0.1100  1.0471
  913MOL0     H23221   6.388   5.557   3.327  0.1145  0.1352 -0.5745
  913MOL0     H23222   6.274   5.675   3.268 -0.0210  2.1108  0.3719
  913MOL0     H23223   6.207   5.745   3.490 -0.8387 -0.2079 -1.8166
  913MOL0     H23224   6.213   5.592   3.551 -0.1314 -1.6697 -1.0694
  913MOL0     H23225   6.420   5.780   3.627 -1.4186 -0.7222  0.6413
  913MOL0     H23226   6.488   5.719   3.473  1.2438 -0.8762 -0.0104
  913MOL0     H23227   6.368   5.545   3.701 -1.4509 -0.8212 -0.1037
  913MOL0     H23228   6.462   5.481   3.567  2.0049 -1.8506  2.6464
  913MOL0     H23229   6.558   5.668   3.796 -1.9503 -1.4725  1.3740
  913MOL0     H23230   6.655   5.643   3.652 -0.6039 -1.8752 -0.4598
  913MOL0     H23231   6.538   5.425   3.819 -1.5592  1.1300 -1.8272
  913MOL0     H23232   6.653   5.400   3.695 -1.9726 -0.4826 -0.5641
  913MOL0     H23233   6.690   5.536   3.966  0.7964  0.0136 -0.3152
  913MOL0     H23234   6.821   5.550   3.853  1.5786 -0.6586  1.9928
  913MOL0     H23235   6.841   5.308   3.839  1.5989  3.5882 -0.8100
  913MOL0     H23236   6.714   5.291   3.965  0.4727 -0.5934 -0.3396
  913MOL0     H23237   6.330   5.412   3.130 -0.1188  1.3956  2.6630
  913MOL0     H23238   6.236   5.337   2.932  2.5830 -2.4166  2.7634
  913MOL0     H23239   5.909   5.386   2.652  2.4180 -1.8502  0.2597
  913MOL0     H23240   5.810   5.365   2.435 -1.3654  1.1292  0.3830
  913MOL0     H23241   4.779   5.473   1.830 -0.8088 -4.4176  0.2547
  913MOL0     H23242   4.840   5.508   1.605 -1.0737  3.4713 -0.0653
  913MOL0     H23243   4.877   5.211   1.162  1.1692  0.3831  1.3370
  913MOL0     H23244   4.922   5.254   0.923 -2.8404 -0.2641 -0.9998
  913MOL0     H23245   4.940   5.310   0.711  0.2935 -0.5648 -2.7783
  913MOL0     H23246   4.958   5.451   0.613  2.3060 -4.6897 -2.0763
  913MOL0     H23247   5.164   5.407   0.832 -1.3051  1.1697  0.2424
  913MOL0     H23248   5.192   5.483   0.687  2.1215 -1.2165  0.8271
  913MOL0     H23249   5.120   5.187   0.678  0.4122  0.4366 -1.7215
  913MOL0     H23250   5.283   5.246   0.693  1.2333  4.2180  1.1057
  913MOL0     H23251   5.267   5.218   0.476 -0.5115  0.7026 -4.0708
  913MOL0     H23252   5.259   5.390   0.490 -3.5184  2.4929 -1.4199
  913MOL0     H23253   4.884   5.262   0.307 -0.3146  0.4253 -2.7633
  913MOL0     H23254   4.885   5.672   0.981  2.0242  1.4917  2.7499
  913MOL0     H23255   4.797   5.636   1.210  1.4260  0.2682  1.0056
  914MOL0     O23256  10.844   1.112   9.263  0.6205  0.3894 -0.1573
  914MOL0     C23257  10.934   1.045   9.209 -0.5410  0.3725 -0.4467
  914MOL0     O23258  11.067   1.053   9.240 -0.1432 -0.2376 -0.5328
  914MOL0     C23259  11.119   1.112   9.354 -0.1470 -1.4332 -0.2443
  914MOL0     C23260  11.106   1.056   9.478  1.1296  0.1530  0.5088
  914MOL0     C23261  11.184   1.107   9.586  0.4947  0.6409 -0.4057
  914MOL0     C23262  11.265   1.220   9.572  0.0200  0.2880  0.3849
  914MOL0     O23263  11.342   1.275   9.677  0.0860 -0.2952  0.3865
  914MOL0     C23264  11.332   1.224   9.805 -0.5101  0.2259  0.5873
  914MOL0     C23265  11.434   1.115   9.826  1.1559 -0.1114  0.0059
  914MOL0     C23266  11.580   1.152   9.786 -0.3148 -0.3760 -0.7998
  914MOL0     C23267  11.680   1.056   9.839 -0.3104  0.3629 -2.0033
  914MOL0     C23268  11.818   1.114   9.797  0.1206  0.0080 -0.8650
  914MOL0     C23269  11.933   1.022   9.830  0.1950  0.3533  0.0721
  914MOL0     C23270  11.942   0.970   9.972  0.3031  0.0511  0.6967
  914MOL0     C23271  12.005   1.082  10.058 -0.0668 -0.1122  0.7789
  914MOL0     N23272  12.026   1.023  10.189 -0.3180 -0.2733  0.0682
  914MOL0     C23273  11.977   1.061  10.309 -0.8220 -0.0854 -0.9286
  914MOL0     C23274  12.028   0.976  10.399  0.3035  0.1510  0.2182
  914MOL0     C23275  11.987   0.993  10.547 -0.3483 -0.2276  0.6653
  914MOL0     C23276  12.127   0.977  10.617  0.1805 -0.7242 -0.4722
  914MOL0     C23277  12.105   0.976  10.773  1.1494 -1.2191  0.1374
  914MOL0     C23278  12.035   1.098  10.836 -0.4853  0.6557 -0.4629
  914MOL0     O23279  11.893   1.067  10.840  0.8074  0.0241 -0.1603
  914MOL0     C23280  11.804   1.161  10.892 -0.0043 -0.6205 -0.3203
  914MOL0     C23281  11.731   1.238  10.798 -0.0101 -0.3079 -0.8484
  914MOL0     C23282  11.637   1.328  10.830 -1.1050 -0.6428 -0.0596
  914MOL0     C23283  11.588   1.417  10.717  0.5181  0.5957  0.6650
  914MOL0     C23284  11.609   1.359  10.963  0.7305  0.4025  0.1490
  914MOL0     C23285  11.519   1.461  11.020  1.0100  0.2449  0.7845
  914MOL0     O23286  11.481   1.443  11.144 -0.0437 -0.0582 -0.6068
  914MOL0     C23287  11.401   1.536  11.211  0.6340  0.3666 -0.3406
  914MOL0     C23288  11.459   1.659  11.261  0.5053  1.3400  0.4918
  914MOL0     C23289  11.376   1.752  11.313 -1.3552 -0.4237 -0.2961
  914MOL0     C23290  11.244   1.726  11.343  0.5169 -0.5095 -0.1082
  914MOL0     O23291  11.173   1.836  11.398 -0.0329 -0.3411 -0.9458
  914MOL0     C23292  11.045   1.812  11.470 -0.2754 -0.1367  0.9941
  914MOL0     C23293  11.037   1.772  11.621 -0.1120 -0.0943 -0.1164
  914MOL0     C23294  11.126   1.863  11.717  0.3068 -0.0652 -0.5467
  914MOL0     C23295  11.051   1.869  11.860 -0.1585 -0.3047  0.3948
  914MOL0     C23296  11.157   1.897  11.957  0.3052  0.4125 -0.7714
  914MOL0     C23297  11.122   1.863  12.101  0.6943  0.1088  0.8079
  914MOL0     C23298  11.236   1.907  12.205  0.9518 -0.4411 -0.0237
  914MOL0     C23299  11.219   2.040  12.262 -1.0575 -0.1497 -0.9103
  914MOL0    Cl23300  11.084   2.030  12.380 -0.7869 -0.2173  0.3246
  914MOL0     C23301  11.188   1.605  11.302 -0.8778 -0.2532 -0.8511
  914MOL0     C23302  11.269   1.511  11.233  0.9771  0.2097  0.1572
  914MOL0     O23303  11.499   1.561  10.952  0.3499  0.9360 -0.3610
  914MOL0     C23304  11.678   1.278  11.064  0.6832 -0.0490  0.9964
  914MOL0     C23305  11.783   1.180  11.026  0.2261 -0.2400 -0.6612
  914MOL0     N23306  12.115   0.893  10.337  0.1647 -0.7425  0.3782
  914MOL0     N23307  12.111   0.920  10.209  0.2002 -0.1750 -0.0935
  914MOL0     C23308  11.274   1.274   9.443 -0.9558  0.1083 -0.0376
  914MOL0     C23309  11.199   1.216   9.336 -1.2011  0.0313  0.3794
  914MOL0     C23310  10.894   0.965   9.095  0.3129 -0.2045 -0.8750
  914MOL0     C23311  10.989   0.913   9.016 -0.9168  0.0061  0.3299
  914MOL0     C23312  10.962   0.867   8.888  0.7171  0.9615  0.2114
  914MOL0     C23313  10.830   0.864   8.831  0.2677 -0.4446 -0.8515
  914MOL0     O23314  10.819   0.826   8.707 -0.3666 -0.2449 -0.0147
  914MOL0     C23315  10.687   0.829   8.641  0.0509  1.2693  0.1178
  914MOL0     C23316  10.701   0.751   8.510  0.2751 -0.5496 -1.0541
  914MOL0     C23317  10.564   0.710   8.446  0.8486 -0.2304  0.4198
  914MOL0     C23318  10.518   0.575   8.489  0.4733  0.2301 -0.5530
  914MOL0     C23319  10.563   0.471   8.389  0.8346 -0.1297 -0.4369
  914MOL0     C23320  10.574   0.364   8.331 -0.3605  0.0456 -0.4208
  914MOL0     C23321  10.732   0.920   8.922  0.8449 -0.1612  0.6877
  914MOL0     C23322  10.767   0.971   9.045  0.5424  0.1699  0.5769
  914MOL0     H23323  11.041   0.970   9.489  1.0611  0.2778  1.0921
  914MOL0     H23324  11.163   1.066   9.684  5.1533 -3.0046 -0.5867
  914MOL0     H23325  11.351   1.305   9.876 -0.5579  1.1977 -0.4717
  914MOL0     H23326  11.233   1.181   9.822 -0.0743 -2.0965 -1.9782
  914MOL0     H23327  11.434   1.096   9.934  0.4330  1.4125  0.3047
  914MOL0     H23328  11.393   1.031   9.771 -0.8357  1.7406 -1.5048
  914MOL0     H23329  11.586   1.157   9.677  2.0222 -3.9854 -1.0114
  914MOL0     H23330  11.602   1.248   9.834  1.3129 -1.1741  0.1709
  914MOL0     H23331  11.663   1.053   9.947  1.4620 -1.9752 -1.7055
  914MOL0     H23332  11.659   0.953   9.810  1.2978 -0.5951  0.0693
  914MOL0     H23333  11.828   1.124   9.689 -0.2461  2.6412 -0.7021
  914MOL0     H23334  11.830   1.210   9.847 -1.2451  0.1268 -0.7331
  914MOL0     H23335  11.928   0.946   9.752 -1.3991  2.8941 -2.5249
  914MOL0     H23336  12.024   1.069   9.792 -0.5925 -0.6123 -3.3550
  914MOL0     H23337  11.848   0.945  10.022  0.6012  0.6473  1.5712
  914MOL0     H23338  12.007   0.882   9.973 -1.0416 -0.9933  2.7924
  914MOL0     H23339  11.935   1.164  10.045 -1.9543 -1.7971 -0.2951
  914MOL0     H23340  12.101   1.100  10.010 -0.2061 -1.1765  0.0588
  914MOL0     H23341  11.898   1.129  10.341 -1.7359 -0.7669 -1.6708
  914MOL0     H23342  11.944   1.091  10.569  2.6814  1.4423 -0.3491
  914MOL0     H23343  11.931   0.905  10.581 -1.0866 -0.7668 -1.7607
  914MOL0     H23344  12.190   1.065  10.596 -0.2456 -0.5109 -0.8749
  914MOL0     H23345  12.174   0.882  10.590 -0.2334 -1.3003  0.7689
  914MOL0     H23346  12.206   0.970  10.817  0.4588  0.5685  2.1395
  914MOL0     H23347  12.043   0.892  10.805 -0.5305 -0.1631 -0.2386
  914MOL0     H23348  12.059   1.189  10.780  0.6832  0.7417  0.1456
  914MOL0     H23349  12.072   1.114  10.937  2.2229  1.4146 -1.4847
  914MOL0     H23350  11.758   1.215  10.695 -3.3735 -2.1988 -1.4507
  914MOL0     H23351  11.607   1.374  10.618 -0.3864  0.0710  0.7082
  914MOL0     H23352  11.480   1.426  10.726  0.0540  0.5673 -3.2501
  914MOL0     H23353  11.630   1.517  10.733  0.5511  0.9950 -1.5789
  914MOL0     H23354  11.559   1.685  11.229  0.4456 -0.5175 -1.4542
  914MOL0     H23355  11.409   1.850  11.344 -1.6292 -0.1340 -0.9229
  914MOL0     H23356  10.998   1.911  11.471  0.8375  0.3995  1.1850
  914MOL0     H23357  10.984   1.742  11.412 -1.1881 -1.8174  3.7947
  914MOL0     H23358  10.929   1.767  11.638 -0.1055 -5.5233 -0.0050
  914MOL0     H23359  11.072   1.669  11.627  0.4118  0.0274 -0.9690
  914MOL0     H23360  11.145   1.963  11.677  1.6988 -0.2474 -0.4067
  914MOL0     H23361  11.223   1.813  11.725 -0.5983 -2.2725 -2.3449
  914MOL0     H23362  10.984   1.956  11.864  2.5419  1.9181  0.2646
  914MOL0     H23363  10.986   1.782  11.876  0.6823 -0.8045  1.1707
  914MOL0     H23364  11.186   2.003  11.956  2.8556 -0.1995  0.5140
  914MOL0     H23365  11.253   1.849  11.936  1.1843  1.3966  0.8421
  914MOL0     H23366  11.032   1.922  12.123  1.4300  2.7862 -2.5715
  914MOL0     H23367  11.084   1.761  12.099 -0.6779  0.5621  1.9611
  914MOL0     H23368  11.336   1.910  12.159  0.4424  2.2127 -1.1538
  914MOL0     H23369  11.240   1.839  12.290 -0.3315  0.5175  0.8406
  914MOL0     H23370  11.181   2.113  12.190 -2.2458  0.8126  0.6018
  914MOL0     H23371  11.310   2.082  12.307 -1.0146  0.8902 -1.9384
  914MOL0     H23372  11.085   1.580  11.326  0.0011 -1.5268  1.9421
  914MOL0     H23373  11.215   1.418  11.213  2.2392 -0.7089  0.8727
  914MOL0     H23374  11.663   1.294  11.170  0.7010 -2.5856  1.4571
  914MOL0     H23375  11.833   1.127  11.107 -4.0862 -1.0735  1.7721
  914MOL0     H23376  11.337   1.358   9.416  0.4094 -0.7839  0.2326
  914MOL0     H23377  11.219   1.260   9.239  1.8457 -0.6505  0.5971
  914MOL0     H23378  11.092   0.903   9.047  0.2614  0.5628 -3.0063
  914MOL0     H23379  11.044   0.844   8.820 -0.2504  0.6921 -0.8958
  914MOL0     H23380  10.614   0.774   8.701 -0.8607  1.6595 -0.6080
  914MOL0     H23381  10.659   0.932   8.617 -1.6484  0.4639 -1.6223
  914MOL0     H23382  10.750   0.659   8.545  1.4158  0.8974  1.3949
  914MOL0     H23383  10.773   0.793   8.439  0.7433 -3.8605 -2.7824
  914MOL0     H23384  10.568   0.709   8.337 -2.0188 -2.6600  0.2395
  914MOL0     H23385  10.492   0.787   8.476  1.0812 -0.9192  3.0090
  914MOL0     H23386  10.410   0.567   8.477  0.4930 -2.3342  0.3246
  914MOL0     H23387  10.564   0.546   8.584  1.4004 -2.2930 -1.6596
  914MOL0     H23388  10.604   0.286   8.264 -2.0823  1.7532 -3.4028
  914MOL0     H23389  10.631   0.932   8.886  0.5526 -1.9093  0.8853
  914MOL0     H23390  10.692   1.033   9.095 -1.7869  0.5546 -3.0730
  915MOL0     O23391   6.755  10.382   7.451  0.1251 -0.2496  0.0905
  915MOL0     C23392   6.781  10.310   7.545  0.8438 -0.5973  0.1680
  915MOL0     O23393   6.829  10.346   7.666  0.1469 -0.1694 -0.3936
  915MOL0     C23394   6.825  10.476   7.703 -0.2392  0.4597  0.8707
  915MOL0     C23395   6.929  10.550   7.754 -0.1758 -0.0677  0.3784
  915MOL0     C23396   6.917  10.671   7.817  0.5751  0.7423  0.0785
  915MOL0     C23397   6.790  10.737   7.813  0.2304 -0.4599 -0.0419
  915MOL0     O23398   6.755  10.859   7.876 -0.1725  0.4469 -0.9564
  915MOL0     C23399   6.718  10.827   8.021  0.3105  0.3261  1.4912
  915MOL0     C23400   6.712  10.950   8.110 -0.6827  0.5599 -0.2992
  915MOL0     C23401   6.727  10.922   8.263  0.0852 -0.0166  0.0775
  915MOL0     C23402   6.715  11.048   8.341  0.5189 -0.4643  0.2045
  915MOL0     C23403   6.697  11.023   8.486  0.1979  0.4209  0.1281
  915MOL0     C23404   6.675  11.145   8.569  0.2054  0.0482 -0.2154
  915MOL0     C23405   6.647  11.105   8.713 -0.5440 -0.7140 -0.9508
  915MOL0     C23406   6.613  11.223   8.801 -0.3248 -0.0576  0.6054
  915MOL0     N23407   6.593  11.182   8.944  0.0062 -0.4657  1.1580
  915MOL0     C23408   6.689  11.100   9.014  0.4647  0.5729  0.3756
  915MOL0     C23409   6.628  11.088   9.139 -0.3613  0.0582  0.2248
  915MOL0     C23410   6.694  11.031   9.259 -0.0468  0.4139 -0.0318
  915MOL0     C23411   6.849  11.064   9.263  0.2533 -0.7505 -0.2562
  915MOL0     C23412   6.919  10.991   9.382 -0.1826  0.8396 -0.2189
  915MOL0     C23413   7.067  11.000   9.388 -0.1685 -1.2158  0.0515
  915MOL0     O23414   7.130  10.915   9.488  0.0844  0.1806 -0.6404
  915MOL0     C23415   7.149  10.781   9.455  0.0631  0.3880  0.4947
  915MOL0     C23416   7.195  10.716   9.562 -0.3646 -0.3032 -0.0994
  915MOL0     C23417   7.211  10.568   9.563 -0.4880 -0.0304  0.1845
  915MOL0     C23418   7.266  10.503   9.687  0.2453  0.1867  0.5481
  915MOL0     C23419   7.181  10.497   9.448 -1.0973  0.0789 -0.4080
  915MOL0     C23420   7.186  10.349   9.433  0.2884 -0.6057  0.2142
  915MOL0     O23421   7.102  10.309   9.328 -0.0339  0.0908 -0.7786
  915MOL0     C23422   7.119  10.176   9.297  0.2981 -0.1457  0.4035
  915MOL0     C23423   7.184  10.134   9.181  0.3053  0.5123  0.4080
  915MOL0     C23424   7.190   9.995   9.153 -0.1269 -0.6222  0.9189
  915MOL0     C23425   7.129   9.904   9.228  0.0993  1.4559 -1.2551
  915MOL0     O23426   7.129   9.774   9.194  0.4665 -0.5621  0.2917
  915MOL0     C23427   7.009   9.690   9.200 -0.9575 -1.7909  0.6478
  915MOL0     C23428   7.065   9.556   9.252  0.3434 -0.3882  0.1623
  915MOL0     C23429   6.954   9.478   9.326 -0.3434  0.5591  0.2208
  915MOL0     C23430   7.007   9.349   9.406 -0.3562  0.1396  0.9044
  915MOL0     C23431   6.888   9.256   9.437 -0.8642 -0.1519  0.5994
  915MOL0     C23432   6.932   9.149   9.536  0.6679 -0.0006  0.8071
  915MOL0     C23433   6.817   9.049   9.556 -0.1664 -0.1590 -0.6862
  915MOL0     C23434   6.866   8.932   9.649 -0.3606 -0.1599  0.5403
  915MOL0    Cl23435   6.750   8.798   9.654 -0.1984 -0.1773 -0.0024
  915MOL0     C23436   7.066   9.949   9.343  0.6331  0.2323  0.0727
  915MOL0     C23437   7.057  10.086   9.379  0.1201  0.8289  0.0099
  915MOL0     O23438   7.262  10.282   9.506  0.7253 -0.1921  0.7015
  915MOL0     C23439   7.132  10.575   9.337 -0.2015 -0.8320  0.1034
  915MOL0     C23440   7.113  10.713   9.341  0.1351 -0.4931 -0.2258
  915MOL0     N23441   6.499  11.158   9.134  0.4859 -0.5347  0.1904
  915MOL0     N23442   6.484  11.210   9.010 -0.3182 -0.0856  0.1884
  915MOL0     C23443   6.684  10.669   7.744 -0.0104 -0.3911  0.2540
  915MOL0     C23444   6.702  10.534   7.702  0.7921 -0.4559 -0.3085
  915MOL0     C23445   6.751  10.173   7.534  0.7536 -0.0377  0.2847
  915MOL0     C23446   6.707  10.121   7.408  0.2279 -0.3050 -0.8408
  915MOL0     C23447   6.667   9.989   7.399  0.1388 -0.2806  0.8137
  915MOL0     C23448   6.656   9.903   7.509  0.3238 -0.2983  0.2585
  915MOL0     O23449   6.607   9.773   7.484  0.5576 -0.1855 -0.5794
  915MOL0     C23450   6.603   9.668   7.583 -0.3528 -0.0859 -0.0838
  915MOL0     C23451   6.452   9.627   7.622 -0.6319 -0.9365 -0.3394
  915MOL0     C23452   6.453   9.596   7.772  0.9874 -0.1867  0.1044
  915MOL0     C23453   6.321   9.529   7.807  0.1910  0.3100  0.4163
  915MOL0     C23454   6.338   9.454   7.938 -0.1782  0.0685  0.6000
  915MOL0     C23455   6.333   9.393   8.042 -0.1373  0.0400  0.5658
  915MOL0     C23456   6.690   9.957   7.634 -0.7824  0.5813 -1.3000
  915MOL0     C23457   6.752  10.086   7.645 -0.1033 -0.4360  0.3502
  915MOL0     H23458   7.030  10.512   7.761 -0.9761 -2.5365 -0.1999
  915MOL0     H23459   7.009  10.715   7.855  4.1223 -4.1768 -1.7767
  915MOL0     H23460   6.619  10.781   8.017  1.4222 -2.1258 -1.0894
  915MOL0     H23461   6.778  10.750   8.070 -1.7318 -1.8901  0.7169
  915MOL0     H23462   6.789  11.024   8.085  3.8367 -2.7597  2.1337
  915MOL0     H23463   6.616  10.999   8.092 -1.1700 -0.2218  0.0899
  915MOL0     H23464   6.662  10.849   8.311  2.7050 -0.5473  3.1724
  915MOL0     H23465   6.823  10.872   8.274  0.0420 -0.3583 -1.0011
  915MOL0     H23466   6.794  11.120   8.321 -0.9341  1.6055  1.5009
  915MOL0     H23467   6.631  11.101   8.296 -0.1922  0.4636  2.4721
  915MOL0     H23468   6.617  10.949   8.501  1.2023 -0.3122  2.2881
  915MOL0     H23469   6.788  10.977   8.525  0.1279  0.4107  0.2802
  915MOL0     H23470   6.750  11.223   8.558  0.8356 -0.5392 -0.1616
  915MOL0     H23471   6.576  11.183   8.543 -0.1376  2.4157  3.8242
  915MOL0     H23472   6.577  11.021   8.723  0.7802 -2.5101 -4.8133
  915MOL0     H23473   6.736  11.057   8.755 -0.5475 -0.0848 -0.1871
  915MOL0     H23474   6.526  11.262   8.747 -1.5974 -2.2063  0.9514
  915MOL0     H23475   6.690  11.300   8.798  2.9302 -3.0505  0.9561
  915MOL0     H23476   6.781  11.058   8.975  0.1574 -0.6458  0.9248
  915MOL0     H23477   6.650  11.084   9.344  1.6874  2.1191 -0.1343
  915MOL0     H23478   6.661  10.928   9.271  0.1998  0.4430  0.9668
  915MOL0     H23479   6.858  11.168   9.295 -1.4002 -0.4549 -0.6690
  915MOL0     H23480   6.903  11.054   9.168 -1.7057  1.9244 -1.7928
  915MOL0     H23481   6.896  10.885   9.367 -2.1327  1.0743  0.7171
  915MOL0     H23482   6.877  11.015   9.480  2.0095  0.7967  0.7805
  915MOL0     H23483   7.092  11.103   9.415  1.3983 -1.7982  0.9868
  915MOL0     H23484   7.125  10.982   9.297 -3.3251 -0.7939 -2.1973
  915MOL0     H23485   7.220  10.780   9.646  4.6193 -0.0316 -1.4662
  915MOL0     H23486   7.368  10.473   9.663  0.7260  0.1416  2.4496
  915MOL0     H23487   7.268  10.561   9.780  0.9575  0.1812  0.5453
  915MOL0     H23488   7.204  10.415   9.708 -0.5733  0.0693 -1.9863
  915MOL0     H23489   7.232  10.211   9.122  0.6918  0.7478  1.0305
  915MOL0     H23490   7.239   9.962   9.062 -2.5420 -2.8016  0.3105
  915MOL0     H23491   6.946   9.740   9.273 -1.6518 -0.8731 -0.5420
  915MOL0     H23492   6.967   9.685   9.099  0.6032 -1.5999 -0.0465
  915MOL0     H23493   7.107   9.494   9.172  2.6638  0.5592  0.5605
  915MOL0     H23494   7.146   9.565   9.325  0.1593 -0.0946  0.3340
  915MOL0     H23495   6.882   9.438   9.254  0.0043 -4.1028  2.1159
  915MOL0     H23496   6.895   9.539   9.395 -0.4572 -3.0349  3.6386
  915MOL0     H23497   7.089   9.301   9.353  0.8689 -2.3197  4.6190
  915MOL0     H23498   7.058   9.382   9.498  2.4092  3.2945 -1.5173
  915MOL0     H23499   6.845   9.209   9.347  1.8661  0.7923 -1.3241
  915MOL0     H23500   6.802   9.307   9.482  0.5077  1.2490  1.6998
  915MOL0     H23501   7.023   9.103   9.497  1.1387  3.2420 -2.5574
  915MOL0     H23502   6.949   9.202   9.630 -2.6992  1.6113  0.6693
  915MOL0     H23503   6.790   9.012   9.456  2.8065 -3.4074 -0.4564
  915MOL0     H23504   6.737   9.105   9.605  0.1204 -0.3617  0.0113
  915MOL0     H23505   6.881   8.957   9.754 -3.5649  0.1816  1.0108
  915MOL0     H23506   6.961   8.889   9.614  0.4330  3.2504 -2.0537
  915MOL0     H23507   7.011   9.875   9.400  3.3824 -2.5757 -0.5523
  915MOL0     H23508   7.003  10.117   9.468  0.0886  2.2220 -0.4743
  915MOL0     H23509   7.098  10.535   9.242  3.2541  1.3135 -2.3175
  915MOL0     H23510   7.079  10.764   9.251 -0.0555 -0.8786 -0.3734
  915MOL0     H23511   6.582  10.706   7.741 -0.2602 -1.0077 -3.5372
  915MOL0     H23512   6.612  10.481   7.673  0.5187 -1.1116  1.6292
  915MOL0     H23513   6.702  10.171   7.312  3.0655  0.4581 -0.6961
  915MOL0     H23514   6.644   9.934   7.309  1.4059  1.0185 -0.3598
  915MOL0     H23515   6.650   9.582   7.536  1.2107  1.1676 -0.9106
  915MOL0     H23516   6.663   9.682   7.674  1.2560 -2.5726 -0.6641
  915MOL0     H23517   6.411   9.547   7.560  0.2151 -0.6531 -1.2808
  915MOL0     H23518   6.384   9.712   7.611  0.4131 -0.1960 -1.3006
  915MOL0     H23519   6.458   9.684   7.837  0.4097 -1.2536  1.6577
  915MOL0     H23520   6.536   9.531   7.800  2.4392  0.8272 -1.6466
  915MOL0     H23521   6.311   9.454   7.728 -0.0238  2.2316 -1.4918
  915MOL0     H23522   6.241   9.604   7.801 -2.9324 -2.8708 -3.4267
  915MOL0     H23523   6.322   9.326   8.125 -0.2732  1.1712  1.4894
  915MOL0     H23524   6.688   9.896   7.723  1.6034  3.3237  0.8124
  915MOL0     H23525   6.774  10.119   7.746 -1.4807  0.9208  0.2522
  916MOL0     O23526   6.069   8.304   0.022 -0.5925 -0.2979  0.0916
  916MOL0     C23527   5.994   8.374  -0.032 -0.0944 -0.0908 -0.6012
  916MOL0     O23528   6.022   8.502  -0.069  0.7638 -0.0712 -0.7493
  916MOL0     C23529   6.125   8.565  -0.014 -0.0612 -0.4136  0.3976
  916MOL0     C23530   6.173   8.675  -0.093  0.7439 -0.3052  0.0043
  916MOL0     C23531   6.284   8.752  -0.056  0.0319  0.2884 -0.1940
  916MOL0     C23532   6.355   8.719   0.059 -0.6316  0.2821  0.3239
  916MOL0     O23533   6.469   8.784   0.090  0.3794 -0.7270 -0.4729
  916MOL0     C23534   6.582   8.754   0.019  0.1368  0.6874  1.2881
  916MOL0     C23535   6.683   8.868   0.011  0.2139 -0.1204 -0.4469
  916MOL0     C23536   6.717   8.923  -0.136  0.0122 -0.4051  0.4316
  916MOL0     C23537   6.868   8.921  -0.170  0.2709  0.6534  0.8286
  916MOL0     C23538   6.890   9.001  -0.300  0.2214 -0.5845  0.1866
  916MOL0     C23539   7.039   9.019  -0.324 -0.3873  0.0731 -0.3954
  916MOL0     C23540   7.126   8.890  -0.361 -0.3339  0.1970  0.6930
  916MOL0     C23541   7.062   8.796  -0.467  0.1655 -0.0390  0.6698
  916MOL0     N23542   7.150   8.682  -0.484 -0.3961 -0.6685  0.4737
  916MOL0     C23543   7.201   8.593  -0.396 -0.4084 -0.7984 -0.5601
  916MOL0     C23544   7.298   8.529  -0.461  0.7694 -0.0895 -1.1910
  916MOL0     C23545   7.373   8.405  -0.411  0.2961  0.5498  0.1010
  916MOL0     C23546   7.407   8.296  -0.511  0.1373 -0.0183 -0.5084
  916MOL0     C23547   7.494   8.187  -0.447 -0.0687  1.0225 -0.8487
  916MOL0     C23548   7.564   8.095  -0.544 -0.6429  0.7177  0.8290
  916MOL0     O23549   7.570   7.967  -0.491  0.4688  0.3950  0.1712
  916MOL0     C23550   7.640   7.872  -0.567  0.1023 -0.1440 -0.5080
  916MOL0     C23551   7.711   7.888  -0.686  0.2177  0.7015  0.2845
  916MOL0     C23552   7.785   7.788  -0.744 -0.8445  0.4719  0.3189
  916MOL0     C23553   7.865   7.830  -0.870  0.7134  0.0492  0.1649
  916MOL0     C23554   7.780   7.659  -0.693  0.8235  0.2682 -0.3202
  916MOL0     C23555   7.835   7.542  -0.762  0.9821 -0.0400 -1.0705
  916MOL0     O23556   7.937   7.557  -0.836 -0.9716  0.0822 -0.3382
  916MOL0     C23557   7.983   7.469  -0.941  0.1589 -0.8912 -0.5339
  916MOL0     C23558   8.102   7.397  -0.936 -0.7303 -1.0994  0.1361
  916MOL0     C23559   8.129   7.294  -1.020  0.0073 -0.2288 -0.2803
  916MOL0     C23560   8.027   7.256  -1.109  0.2396 -0.3293 -0.7832
  916MOL0     O23561   8.045   7.145  -1.183 -0.3324  0.3776  0.0298
  916MOL0     C23562   7.932   7.083  -1.254  0.7584 -0.1070  0.7510
  916MOL0     C23563   7.999   6.940  -1.275  0.5845 -0.1366 -0.9552
  916MOL0     C23564   7.912   6.854  -1.363  0.8914  0.8369 -0.1723
  916MOL0     C23565   7.979   6.721  -1.401  0.2930 -1.3184  0.2323
  916MOL0     C23566   8.081   6.745  -1.512 -0.1877 -0.2442  0.0730
  916MOL0     C23567   8.139   6.618  -1.567  0.1226  0.2423 -0.4935
  916MOL0     C23568   8.280   6.638  -1.637  0.3655  0.1175 -0.8416
  916MOL0     C23569   8.270   6.738  -1.751  0.3497  0.2399 -0.5896
  916MOL0    Cl23570   8.120   6.723  -1.847  0.0794  0.3460 -0.0212
  916MOL0     C23571   7.913   7.336  -1.115 -0.1411  0.0102 -0.3201
  916MOL0     C23572   7.884   7.435  -1.031  0.2450  0.8653 -0.1069
  916MOL0     O23573   7.772   7.439  -0.733  0.1402  0.5456 -0.4075
  916MOL0     C23574   7.702   7.632  -0.579 -0.1978 -0.6902  0.1432
  916MOL0     C23575   7.642   7.738  -0.515  0.5939  0.4106 -0.3751
  916MOL0     N23576   7.314   8.587  -0.582  0.3558  0.0865 -0.3156
  916MOL0     N23577   7.218   8.671  -0.603 -0.1998  0.4120  0.1991
  916MOL0     C23578   6.297   8.622   0.142  0.9774 -0.2468 -0.2958
  916MOL0     C23579   6.194   8.543   0.109  0.1257 -0.2215  0.1146
  916MOL0     C23580   5.859   8.322  -0.063 -0.8831 -0.2592  1.2399
  916MOL0     C23581   5.772   8.397  -0.135  0.5667  0.8355 -0.4358
  916MOL0     C23582   5.633   8.363  -0.155 -1.0852  0.2975 -0.3899
  916MOL0     C23583   5.601   8.235  -0.114  0.2766  0.0110 -0.2712
  916MOL0     O23584   5.465   8.204  -0.140 -0.5488 -1.5676  0.4837
  916MOL0     C23585   5.379   8.176  -0.024 -0.1407 -0.3688 -0.8822
  916MOL0     C23586   5.341   8.310   0.042  0.5509 -0.0972  0.2290
  916MOL0     C23587   5.201   8.369   0.004  0.0054  0.7788  0.8621
  916MOL0     C23588   5.084   8.297   0.071 -0.2224 -0.4527 -0.7851
  916MOL0     C23589   4.962   8.291  -0.012  0.1122 -0.0895 -0.2729
  916MOL0     C23590   4.873   8.303  -0.094 -0.6048  0.3614  0.1116
  916MOL0     C23591   5.694   8.140  -0.063  0.0401  0.5321  1.1171
  916MOL0     C23592   5.817   8.183  -0.038 -0.3201  0.1352 -1.2058
  916MOL0     H23593   6.122   8.698  -0.186 -0.6939  1.4216  1.1618
  916MOL0     H23594   6.318   8.833  -0.120 -0.2185 -1.7526 -3.0634
  916MOL0     H23595   6.633   8.670   0.066  1.9590 -0.7021 -2.6896
  916MOL0     H23596   6.550   8.722  -0.081 -0.2195  0.9442  1.3170
  916MOL0     H23597   6.655   8.958   0.067 -0.3480 -0.3162 -0.4089
  916MOL0     H23598   6.782   8.832   0.041  0.9738  0.8586 -1.6337
  916MOL0     H23599   6.659   8.864  -0.208  2.8921  0.6379 -3.0750
  916MOL0     H23600   6.687   9.029  -0.140 -0.7046 -0.5087  2.2598
  916MOL0     H23601   6.922   8.960  -0.084 -0.2424 -0.5953  1.7452
  916MOL0     H23602   6.912   8.823  -0.186 -1.7397 -0.3937  1.3877
  916MOL0     H23603   6.832   8.959  -0.383 -2.2079 -0.2232  1.5919
  916MOL0     H23604   6.853   9.103  -0.282 -0.9936 -0.5611 -2.0100
  916MOL0     H23605   7.037   9.084  -0.413  0.8330  0.6002 -0.0672
  916MOL0     H23606   7.075   9.070  -0.234 -0.6852 -0.5084  0.0564
  916MOL0     H23607   7.226   8.915  -0.396 -0.8028 -1.3475 -2.0130
  916MOL0     H23608   7.145   8.831  -0.270  1.0207  1.5276  1.3087
  916MOL0     H23609   7.049   8.847  -0.563 -3.0224 -0.9598  0.5127
  916MOL0     H23610   6.965   8.757  -0.436  0.6228 -2.4693 -0.6338
  916MOL0     H23611   7.161   8.579  -0.296 -0.4537  2.0002 -0.0960
  916MOL0     H23612   7.460   8.449  -0.361  0.5943 -0.0028  0.0804
  916MOL0     H23613   7.310   8.359  -0.334  1.6219 -2.2358 -0.3539
  916MOL0     H23614   7.467   8.338  -0.593 -1.6260  2.1636 -0.7992
  916MOL0     H23615   7.318   8.247  -0.550  2.2757 -2.4358 -2.7276
  916MOL0     H23616   7.433   8.126  -0.380  0.0442  1.7909 -0.0351
  916MOL0     H23617   7.570   8.232  -0.382  1.5633 -1.0540 -1.1782
  916MOL0     H23618   7.665   8.130  -0.565 -0.7934  0.5691 -0.1725
  916MOL0     H23619   7.509   8.089  -0.638 -0.5906  1.1980  0.7638
  916MOL0     H23620   7.722   7.984  -0.736  0.8962 -0.0028 -0.9860
  916MOL0     H23621   7.971   7.830  -0.842  1.1096  3.8577 -0.7983
  916MOL0     H23622   7.864   7.762  -0.956 -3.3486  1.9204 -1.4964
  916MOL0     H23623   7.834   7.924  -0.917  1.2091 -1.0162 -2.4614
  916MOL0     H23624   8.184   7.428  -0.872 -0.4669 -1.9133  0.1910
  916MOL0     H23625   8.222   7.241  -1.000 -1.1135 -1.3537  2.3929
  916MOL0     H23626   7.828   7.080  -1.219 -0.8072 -5.6133 -2.9289
  916MOL0     H23627   7.932   7.140  -1.347  0.5923  0.6109  1.1830
  916MOL0     H23628   8.099   6.952  -1.317  3.2511 -1.3495  4.2138
  916MOL0     H23629   8.020   6.895  -1.177 -1.2916  1.6020  0.3375
  916MOL0     H23630   7.880   6.905  -1.454 -0.1990 -0.4687 -0.5590
  916MOL0     H23631   7.823   6.831  -1.303  0.7419 -0.2003 -0.7616
  916MOL0     H23632   8.019   6.679  -1.307 -0.7112 -1.1227  0.7630
  916MOL0     H23633   7.901   6.662  -1.449 -1.4845  2.1665 -1.4792
  916MOL0     H23634   8.159   6.817  -1.485  1.1665 -1.7195  0.2332
  916MOL0     H23635   8.034   6.805  -1.591 -0.0607  3.3620  2.4900
  916MOL0     H23636   8.164   6.543  -1.492  5.0402  0.1959 -1.8714
  916MOL0     H23637   8.071   6.575  -1.641  0.3527  2.2573 -1.9378
  916MOL0     H23638   8.314   6.547  -1.689 -0.7101 -1.5315  1.1652
  916MOL0     H23639   8.352   6.672  -1.562  1.4685  2.2054 -2.7250
  916MOL0     H23640   8.363   6.742  -1.809  0.1856  0.1490 -0.8631
  916MOL0     H23641   8.270   6.837  -1.705 -0.6023  1.1975 -2.5122
  916MOL0     H23642   7.834   7.302  -1.182 -0.1442 -1.0506  0.1900
  916MOL0     H23643   7.786   7.483  -1.029  0.2822  0.9408 -0.0655
  916MOL0     H23644   7.692   7.528  -0.550 -1.0275 -1.0743 -1.4136
  916MOL0     H23645   7.594   7.710  -0.421  2.2099 -1.2606  0.0172
  916MOL0     H23646   6.332   8.607   0.244  1.1832 -2.1019 -0.6163
  916MOL0     H23647   6.155   8.466   0.175 -2.2696  1.6163  1.0312
  916MOL0     H23648   5.799   8.502  -0.141 -2.5006  2.0017  2.4436
  916MOL0     H23649   5.562   8.430  -0.204 -4.1478 -1.2762  1.5465
  916MOL0     H23650   5.287   8.125  -0.054 -1.9878  0.8280  2.2122
  916MOL0     H23651   5.438   8.112   0.042  2.2228  1.5934 -0.9385
  916MOL0     H23652   5.416   8.389   0.034  1.0599 -0.3544  2.0168
  916MOL0     H23653   5.342   8.290   0.149  2.2920  1.8741  0.6408
  916MOL0     H23654   5.184   8.362  -0.104 -1.2369 -1.1089  1.1396
  916MOL0     H23655   5.192   8.475   0.032  1.8450  0.4203  3.1328
  916MOL0     H23656   5.058   8.354   0.161  3.6608 -1.2617  1.0580
  916MOL0     H23657   5.120   8.200   0.105  0.9788  0.5006  0.8573
  916MOL0     H23658   4.805   8.310  -0.177  1.2776  4.2571 -1.4248
  916MOL0     H23659   5.673   8.034  -0.048 -1.9939  0.7426  0.1271
  916MOL0     H23660   5.905   8.129  -0.002  1.4854  3.4287 -0.2646
  917MOL0     O23661   3.261   6.135   4.167  0.8111 -0.2051 -0.2687
  917MOL0     C23662   3.376   6.120   4.209 -0.2864  0.0921  0.8688
  917MOL0     O23663   3.450   6.004   4.187  0.5380 -0.5274 -0.3232
  917MOL0     C23664   3.395   5.894   4.121 -0.0266  0.0676  0.1901
  917MOL0     C23665   3.298   5.907   4.019  0.7278  0.6918 -0.7097
  917MOL0     C23666   3.230   5.791   3.986  1.1210  0.2811 -0.3737
  917MOL0     C23667   3.260   5.664   4.031  0.4038  0.4483 -0.6365
  917MOL0     O23668   3.200   5.547   3.989  0.3917 -0.9577 -0.6708
  917MOL0     C23669   3.055   5.549   3.969 -0.0687  0.1351 -0.4971
  917MOL0     C23670   2.983   5.420   3.977 -0.1789  1.3201  0.7176
  917MOL0     C23671   2.848   5.435   3.911 -1.1647  0.4724 -0.0325
  917MOL0     C23672   2.758   5.313   3.907  0.7126  0.4967  0.3061
  917MOL0     C23673   2.618   5.339   3.847 -0.2104  0.2598 -0.3000
  917MOL0     C23674   2.523   5.226   3.881 -0.6550  0.8702 -0.0419
  917MOL0     C23675   2.377   5.273   3.898 -0.0565 -0.3024 -0.6523
  917MOL0     C23676   2.304   5.145   3.913 -0.0041  0.2953 -0.2056
  917MOL0     N23677   2.157   5.166   3.884 -0.0201 -0.3073 -0.1580
  917MOL0     C23678   2.060   5.215   3.961 -0.2829 -0.5146  0.7662
  917MOL0     C23679   1.951   5.211   3.896  1.4396 -0.4017  0.6848
  917MOL0     C23680   1.812   5.233   3.962 -0.4229 -0.9609  0.8489
  917MOL0     C23681   1.804   5.367   4.029  0.3234  0.0289  0.0674
  917MOL0     C23682   1.818   5.497   3.949 -0.2836  1.0326  0.7770
  917MOL0     C23683   1.945   5.545   3.893 -0.9574  1.0702 -0.0910
  917MOL0     O23684   2.054   5.547   3.990  0.2531 -0.7018  0.3075
  917MOL0     C23685   2.177   5.599   3.959  0.1043  0.0604 -0.1305
  917MOL0     C23686   2.248   5.637   4.076  0.4394  0.3929  0.4765
  917MOL0     C23687   2.377   5.690   4.065  0.3165 -0.4599 -1.1938
  917MOL0     C23688   2.430   5.749   4.192 -0.0719 -0.9221 -0.4134
  917MOL0     C23689   2.448   5.681   3.938  0.5748 -0.3389 -0.9266
  917MOL0     C23690   2.586   5.731   3.908 -0.3847  0.8400 -0.4483
  917MOL0     O23691   2.627   5.724   3.772 -0.5663  0.2744  0.1631
  917MOL0     C23692   2.750   5.767   3.728 -1.4067  0.3030  0.4817
  917MOL0     C23693   2.832   5.866   3.788 -0.0070 -0.6808 -0.0519
  917MOL0     C23694   2.959   5.901   3.732  0.1550  0.3546 -0.9135
  917MOL0     C23695   3.001   5.841   3.609 -0.2030 -0.7185 -0.2638
  917MOL0     O23696   3.129   5.882   3.573  0.4751  0.2128 -0.0811
  917MOL0     C23697   3.202   5.785   3.501  1.2622  0.8901 -0.4428
  917MOL0     C23698   3.331   5.765   3.578  0.8311 -0.9304 -0.1145
  917MOL0     C23699   3.395   5.909   3.597  0.5127  0.2736  0.3049
  917MOL0     C23700   3.502   5.903   3.702 -0.1959 -0.1718  1.1365
  917MOL0     C23701   3.540   6.041   3.750 -1.0410 -0.0892  1.0700
  917MOL0     C23702   3.674   6.029   3.822  0.3172  0.0977  0.8865
  917MOL0     C23703   3.722   6.133   3.922 -0.5032  0.0576  0.7077
  917MOL0     C23704   3.882   6.145   3.930  0.9388 -0.8071  0.1435
  917MOL0    Cl23705   3.922   6.247   4.075 -0.1096 -0.2549  0.3672
  917MOL0     C23706   2.920   5.744   3.551 -1.0611  0.6303 -0.6438
  917MOL0     C23707   2.800   5.706   3.613  0.5021 -0.3741 -0.7764
  917MOL0     O23708   2.640   5.784   4.004 -0.5086  0.4946 -0.1508
  917MOL0     C23709   2.370   5.630   3.830  0.2168  0.1398 -0.0822
  917MOL0     C23710   2.238   5.597   3.834 -0.1501  0.1188 -0.0396
  917MOL0     N23711   1.976   5.156   3.772  0.6650 -0.4982  0.2523
  917MOL0     N23712   2.102   5.134   3.763  0.7119 -1.2562  0.1665
  917MOL0     C23713   3.351   5.654   4.135  0.4656 -0.1645  0.0591
  917MOL0     C23714   3.422   5.764   4.180  0.5963 -1.0251  0.8237
  917MOL0     C23715   3.418   6.246   4.281 -0.0418  0.2193 -0.3104
  917MOL0     C23716   3.553   6.279   4.285 -0.2333 -0.0893  0.0570
  917MOL0     C23717   3.606   6.372   4.372  0.5296 -0.2338  0.5699
  917MOL0     C23718   3.520   6.463   4.434  0.2341 -0.0152  0.1469
  917MOL0     O23719   3.571   6.565   4.514 -0.2020 -0.2930 -0.2107
  917MOL0     C23720   3.521   6.691   4.487  0.4683  0.4467 -0.9506
  917MOL0     C23721   3.587   6.790   4.575 -0.1093  0.1908 -0.3579
  917MOL0     C23722   3.547   6.806   4.726  1.1523  0.9555 -0.5528
  917MOL0     C23723   3.672   6.862   4.799 -0.3958 -0.6746  0.1688
  917MOL0     C23724   3.638   6.855   4.935  0.3476  1.3009 -0.7217
  917MOL0     C23725   3.602   6.868   5.050  0.3729  0.4108  0.7135
  917MOL0     C23726   3.376   6.432   4.429 -0.1208  0.0763  0.1116
  917MOL0     C23727   3.323   6.319   4.358 -1.1398 -0.2557  0.1364
  917MOL0     H23728   3.271   5.998   3.966  1.5121  1.5478  0.3154
  917MOL0     H23729   3.165   5.795   3.899  2.8070  1.6614 -1.6535
  917MOL0     H23730   3.015   5.614   4.047 -0.8145 -3.0725  1.9538
  917MOL0     H23731   3.020   5.597   3.877 -1.3992 -1.3769 -0.8176
  917MOL0     H23732   3.034   5.338   3.924 -1.0156  1.4780 -0.3712
  917MOL0     H23733   2.966   5.383   4.078  1.5220  1.6614  1.1699
  917MOL0     H23734   2.803   5.521   3.961 -2.9260 -0.6340  0.3459
  917MOL0     H23735   2.864   5.459   3.805  4.9516  0.8361  0.6248
  917MOL0     H23736   2.806   5.215   3.893  2.3157  0.6147  3.9110
  917MOL0     H23737   2.738   5.288   4.011  1.4531 -2.0893 -0.0753
  917MOL0     H23738   2.580   5.425   3.902 -2.1655  1.4422 -3.2383
  917MOL0     H23739   2.625   5.377   3.744  3.9918  0.9124  0.0229
  917MOL0     H23740   2.516   5.159   3.795 -3.8123 -0.0671  0.8122
  917MOL0     H23741   2.540   5.165   3.970 -0.6259  0.5541 -0.2598
  917MOL0     H23742   2.372   5.339   3.985  0.0796  2.0729 -2.3135
  917MOL0     H23743   2.341   5.334   3.814  0.3088 -1.1903 -1.4799
  917MOL0     H23744   2.315   5.106   4.015 -1.6518  2.1511  0.7447
  917MOL0     H23745   2.344   5.067   3.848  0.0229  1.6234 -1.8201
  917MOL0     H23746   2.062   5.235   4.068 -1.0200 -0.2955  0.7414
  917MOL0     H23747   1.720   5.216   3.905 -0.4406  1.4681  0.0479
  917MOL0     H23748   1.802   5.155   4.038  3.3414  0.1198  2.6884
  917MOL0     H23749   1.861   5.376   4.122 -1.3937 -0.2873  1.1930
  917MOL0     H23750   1.698   5.371   4.057 -0.4129 -3.0267 -1.8153
  917MOL0     H23751   1.768   5.577   4.005 -4.1971 -1.1533  0.7515
  917MOL0     H23752   1.758   5.475   3.860 -0.1260  0.7129  0.7487
  917MOL0     H23753   1.934   5.644   3.846 -0.5893  2.3967  2.4523
  917MOL0     H23754   1.991   5.486   3.814  0.8203  3.0888 -0.6664
  917MOL0     H23755   2.190   5.652   4.166  2.1615  0.5344  1.6071
  917MOL0     H23756   2.524   5.705   4.226  0.4256  1.2638  1.2569
  917MOL0     H23757   2.442   5.853   4.161 -0.6105 -0.2418  1.5072
  917MOL0     H23758   2.365   5.750   4.280  0.7161  1.1653  0.2051
  917MOL0     H23759   2.793   5.910   3.880 -1.2426 -1.7089 -0.0517
  917MOL0     H23760   3.022   5.973   3.782  1.7894 -0.8459 -1.1404
  917MOL0     H23761   3.156   5.686   3.490  0.3422  1.3099 -0.3934
  917MOL0     H23762   3.213   5.812   3.395  0.7894 -2.5904 -1.5274
  917MOL0     H23763   3.303   5.731   3.678 -1.9443 -1.1691 -0.8996
  917MOL0     H23764   3.403   5.698   3.531  0.1963 -2.0863  0.5054
  917MOL0     H23765   3.319   5.985   3.617 -2.6333 -2.8674  1.2741
  917MOL0     H23766   3.453   5.944   3.511  0.5964  1.2616  0.7623
  917MOL0     H23767   3.470   5.846   3.790 -0.1138 -0.2660  1.1060
  917MOL0     H23768   3.586   5.856   3.650 -1.6777  0.2530 -1.8786
  917MOL0     H23769   3.456   6.088   3.801  0.7870  0.0109  4.2955
  917MOL0     H23770   3.555   6.104   3.662  1.6691 -0.0672  1.4578
  917MOL0     H23771   3.666   5.931   3.869 -0.4155 -1.9752 -3.1085
  917MOL0     H23772   3.748   6.014   3.743 -1.0990  0.0153 -0.4776
  917MOL0     H23773   3.685   6.095   4.018  1.7184 -0.3345  1.4622
  917MOL0     H23774   3.681   6.231   3.895  1.2188  0.4231 -0.7326
  917MOL0     H23775   3.926   6.198   3.846  2.7090 -1.6788  0.4842
  917MOL0     H23776   3.940   6.053   3.929  3.4301  0.6859 -0.7081
  917MOL0     H23777   2.940   5.681   3.464 -6.0621 -2.7196  0.2202
  917MOL0     H23778   2.726   5.649   3.558  0.5876 -0.7529 -0.5042
  917MOL0     H23779   2.423   5.609   3.738  2.7108 -2.1599  1.7279
  917MOL0     H23780   2.193   5.560   3.742  1.0811  2.7539 -1.8556
  917MOL0     H23781   3.361   5.551   4.169 -0.5159 -0.4554 -0.4750
  917MOL0     H23782   3.488   5.750   4.264  1.3029 -1.0762  0.2664
  917MOL0     H23783   3.619   6.216   4.225 -3.5690 -3.1810 -0.6659
  917MOL0     H23784   3.710   6.399   4.384 -0.4103  3.4818  1.6158
  917MOL0     H23785   3.555   6.710   4.385  2.9995 -1.3737 -0.5322
  917MOL0     H23786   3.414   6.703   4.506  0.5851 -0.2264  0.2797
  917MOL0     H23787   3.558   6.890   4.542 -0.8887  0.2453  0.4542
  917MOL0     H23788   3.695   6.792   4.561 -0.3581  1.5754 -2.5814
  917MOL0     H23789   3.511   6.711   4.767  0.6661  2.4035  2.7044
  917MOL0     H23790   3.461   6.869   4.750  0.6010 -0.8711  3.1700
  917MOL0     H23791   3.686   6.964   4.760 -0.6377 -1.6591 -2.6953
  917MOL0     H23792   3.765   6.811   4.776  2.6665  3.7821  1.2525
  917MOL0     H23793   3.576   6.891   5.152  0.1588 -0.4430  0.8626
  917MOL0     H23794   3.293   6.491   4.467 -2.4641  0.3039 -4.5914
  917MOL0     H23795   3.216   6.298   4.349 -1.5656  1.6510  0.3590
  918MOL0     O23796   3.704   1.347   6.171 -0.3117  0.3797  0.0299
  918MOL0     C23797   3.605   1.411   6.158  0.3469  0.2645 -0.0919
  918MOL0     O23798   3.529   1.457   6.270 -0.5273  0.2697  0.2779
  918MOL0     C23799   3.586   1.441   6.397 -0.0153 -0.9225 -0.2531
  918MOL0     C23800   3.612   1.321   6.451  0.5328 -0.3655 -0.5229
  918MOL0     C23801   3.671   1.301   6.573  1.1234  0.4654 -0.3081
  918MOL0     C23802   3.716   1.417   6.649  0.3724 -0.2084  0.2277
  918MOL0     O23803   3.758   1.414   6.786  0.3939  0.6072  0.0914
  918MOL0     C23804   3.788   1.286   6.853 -0.0860 -0.0610  0.1557
  918MOL0     C23805   3.917   1.210   6.808 -0.2267 -0.6548  0.3708
  918MOL0     C23806   4.023   1.308   6.750 -0.3163  0.3754 -0.2196
  918MOL0     C23807   4.086   1.397   6.853 -0.1663 -0.4642 -1.1080
  918MOL0     C23808   4.184   1.497   6.787 -0.4249  1.0808 -0.3378
  918MOL0     C23809   4.118   1.606   6.694 -0.2368  0.7559  0.8542
  918MOL0     C23810   4.022   1.693   6.772  1.5842 -0.6946 -0.4209
  918MOL0     C23811   3.999   1.829   6.696 -0.3125  0.0545  0.3678
  918MOL0     N23812   3.928   1.937   6.772  0.1344  0.2410 -0.0257
  918MOL0     C23813   3.793   1.921   6.809  0.0299  0.0440 -0.7099
  918MOL0     C23814   3.751   2.043   6.866 -0.0591  0.5867 -1.1450
  918MOL0     C23815   3.621   2.074   6.939 -0.4014  0.2893  0.4397
  918MOL0     C23816   3.646   2.024   7.083  1.0092 -0.2068  0.2396
  918MOL0     C23817   3.545   2.075   7.188  0.8083  0.8243 -0.8773
  918MOL0     C23818   3.583   2.018   7.329  0.3370 -0.9311 -0.1418
  918MOL0     O23819   3.512   2.074   7.442 -0.4701 -0.0788 -0.6806
  918MOL0     C23820   3.553   2.027   7.563  0.4543 -0.9731 -0.3116
  918MOL0     C23821   3.529   2.113   7.672  0.2626  0.3320 -0.0448
  918MOL0     C23822   3.546   2.053   7.804  0.6293  0.1458  0.3070
  918MOL0     C23823   3.504   2.134   7.914 -0.8923  0.9872 -0.0579
  918MOL0     C23824   3.589   1.921   7.824 -0.0853 -1.2361 -0.4041
  918MOL0     C23825   3.620   1.863   7.953 -0.1674 -0.3245  0.4771
  918MOL0     O23826   3.672   1.940   8.061  1.4094 -0.0932  0.3965
  918MOL0     C23827   3.720   1.878   8.177 -0.0580 -0.3465  0.3318
  918MOL0     C23828   3.645   1.883   8.301 -0.3923 -0.0049  0.3540
  918MOL0     C23829   3.676   1.815   8.413 -1.4632  0.5303 -0.1630
  918MOL0     C23830   3.799   1.743   8.413  0.0303 -0.1161  0.0364
  918MOL0     O23831   3.826   1.671   8.527 -0.5584  0.5137 -0.1319
  918MOL0     C23832   3.902   1.550   8.531 -0.0258 -0.6088  0.3406
  918MOL0     C23833   3.961   1.518   8.672  0.1847  0.1568  0.4810
  918MOL0     C23834   3.844   1.470   8.756 -0.2133 -0.5404 -0.1566
  918MOL0     C23835   3.779   1.583   8.841  0.1585 -0.2100  0.1584
  918MOL0     C23836   3.627   1.562   8.881  0.5203 -0.1562 -0.6895
  918MOL0     C23837   3.523   1.547   8.763 -1.0255 -0.0511  0.0301
  918MOL0     C23838   3.379   1.532   8.821  0.5872  0.5459  0.3663
  918MOL0     C23839   3.279   1.480   8.704  0.0058 -0.2262 -0.0255
  918MOL0    Cl23840   3.275   1.303   8.726 -0.1109 -0.0046 -0.1434
  918MOL0     C23841   3.874   1.742   8.299 -0.3608 -0.6537 -0.3701
  918MOL0     C23842   3.840   1.808   8.179 -0.7895 -0.1338 -0.1487
  918MOL0     O23843   3.605   1.744   7.964 -0.3061  0.1059  0.4701
  918MOL0     C23844   3.628   1.846   7.711 -0.5424  0.7978  0.5070
  918MOL0     C23845   3.614   1.902   7.583  0.3326 -0.1848  0.5437
  918MOL0     N23846   3.867   2.127   6.859 -0.0676 -0.0057 -0.2502
  918MOL0     N23847   3.962   2.069   6.797 -0.1449 -0.3387  0.4993
  918MOL0     C23848   3.688   1.538   6.603 -0.3557  0.2375 -0.5615
  918MOL0     C23849   3.620   1.546   6.476  0.3478 -0.1168 -0.5256
  918MOL0     C23850   3.562   1.444   6.014 -0.4749  0.1482 -0.2429
  918MOL0     C23851   3.647   1.464   5.910 -0.6970 -0.7356  0.5630
  918MOL0     C23852   3.606   1.522   5.785  0.8064 -1.5751 -0.2536
  918MOL0     C23853   3.470   1.561   5.767 -0.4628 -0.1277  0.1517
  918MOL0     O23854   3.445   1.636   5.660 -0.0681 -0.7162  0.1774
  918MOL0     C23855   3.313   1.643   5.609  0.1829  0.3019 -0.8621
  918MOL0     C23856   3.303   1.752   5.506  0.0678  0.0556 -0.3833
  918MOL0     C23857   3.163   1.736   5.430  1.1548  0.2413  0.4095
  918MOL0     C23858   3.171   1.662   5.295 -0.7985  0.8147  0.0240
  918MOL0     C23859   3.198   1.518   5.306 -0.3160 -0.3740 -0.9651
  918MOL0     C23860   3.234   1.404   5.321 -0.6937  0.2914 -1.0343
  918MOL0     C23861   3.379   1.535   5.871 -0.3142  0.3172 -0.9256
  918MOL0     C23862   3.422   1.476   5.995 -0.9264 -0.1750 -0.4961
  918MOL0     H23863   3.596   1.233   6.390 -2.2356  0.6830 -1.4720
  918MOL0     H23864   3.676   1.199   6.609  1.0939  0.6014  0.0869
  918MOL0     H23865   3.770   1.297   6.960 -3.2725 -0.8702 -0.1925
  918MOL0     H23866   3.711   1.214   6.823  0.1353  0.0221 -0.6376
  918MOL0     H23867   3.956   1.164   6.899  1.9740 -4.2841 -2.1588
  918MOL0     H23868   3.881   1.139   6.734  0.1967 -3.6623  2.8508
  918MOL0     H23869   4.101   1.252   6.699  0.8074  3.7702 -2.5407
  918MOL0     H23870   3.976   1.356   6.664 -2.6603 -2.9958 -1.0523
  918MOL0     H23871   4.005   1.450   6.903 -0.6609  2.4275 -4.5736
  918MOL0     H23872   4.142   1.339   6.927  2.2234  2.7163 -0.1857
  918MOL0     H23873   4.235   1.554   6.865 -1.8988  3.1882 -0.8078
  918MOL0     H23874   4.255   1.429   6.741 -1.2118 -1.8325  2.4362
  918MOL0     H23875   4.192   1.677   6.655 -1.1643  0.9635 -0.5980
  918MOL0     H23876   4.066   1.555   6.613 -2.0384  0.2864  2.2570
  918MOL0     H23877   3.929   1.635   6.773 -1.1447  3.2976 -0.4741
  918MOL0     H23878   4.055   1.718   6.873  1.0099  0.6617 -0.5492
  918MOL0     H23879   3.941   1.803   6.607 -3.1074 -1.6641  2.4996
  918MOL0     H23880   4.105   1.853   6.684  0.3436 -2.4974  0.3719
  918MOL0     H23881   3.737   1.828   6.803 -0.9873  0.7632 -4.3039
  918MOL0     H23882   3.598   2.181   6.944  2.6016  1.1243 -1.3183
  918MOL0     H23883   3.529   2.029   6.899 -0.5651  0.2239  0.8865
  918MOL0     H23884   3.742   2.056   7.124  2.2120 -3.7680  0.5758
  918MOL0     H23885   3.655   1.915   7.086  1.9915 -0.4420 -4.5116
  918MOL0     H23886   3.443   2.043   7.163  0.2545  2.8064 -1.3092
  918MOL0     H23887   3.560   2.183   7.181  0.9045  0.7356 -2.4946
  918MOL0     H23888   3.690   2.037   7.347  0.6490 -2.0105 -0.7676
  918MOL0     H23889   3.561   1.911   7.320  0.9006 -1.3100  2.2163
  918MOL0     H23890   3.502   2.218   7.663 -1.0323 -0.0118 -0.3982
  918MOL0     H23891   3.450   2.092   8.000  2.1570  0.8777  1.9559
  918MOL0     H23892   3.600   2.170   7.952 -0.3234  0.4507 -0.9400
  918MOL0     H23893   3.435   2.212   7.881  0.1090  2.4151  1.0717
  918MOL0     H23894   3.552   1.938   8.310 -0.8960 -0.5083 -1.3152
  918MOL0     H23895   3.612   1.822   8.500  1.4240  0.3930  2.1021
  918MOL0     H23896   3.843   1.466   8.496  0.6148 -1.0760  0.3596
  918MOL0     H23897   3.983   1.551   8.457 -0.2775  0.2537  0.0642
  918MOL0     H23898   4.039   1.442   8.675  0.6898  0.6477 -0.0862
  918MOL0     H23899   4.004   1.608   8.718 -0.5527  1.9373 -2.0587
  918MOL0     H23900   3.886   1.404   8.833 -0.5505  0.9262  1.3456
  918MOL0     H23901   3.773   1.423   8.688  1.7859  0.4032 -3.0994
  918MOL0     H23902   3.833   1.593   8.936  0.4364 -2.0728  0.2235
  918MOL0     H23903   3.784   1.675   8.783  0.3912  1.6427  2.9297
  918MOL0     H23904   3.598   1.629   8.962  1.4364 -2.0368  1.2995
  918MOL0     H23905   3.615   1.462   8.925  2.0232  0.2924  0.8447
  918MOL0     H23906   3.533   1.639   8.704  2.2581  1.0990  2.0885
  918MOL0     H23907   3.554   1.462   8.701 -0.2644 -0.5074  1.0116
  918MOL0     H23908   3.349   1.633   8.850 -0.6514  0.5598 -0.8598
  918MOL0     H23909   3.364   1.475   8.912 -3.4559 -1.1370 -1.1597
  918MOL0     H23910   3.303   1.506   8.600 -1.0049 -5.0992 -1.7499
  918MOL0     H23911   3.188   1.534   8.731 -0.1402  0.6500 -2.0944
  918MOL0     H23912   3.954   1.669   8.304 -1.2361 -1.9307 -2.8162
  918MOL0     H23913   3.895   1.794   8.087 -0.7500  0.9804 -0.3061
  918MOL0     H23914   3.670   1.746   7.709  0.3979  1.1059 -3.4958
  918MOL0     H23915   3.643   1.839   7.500 -1.7235  0.1034 -0.4713
  918MOL0     H23916   3.712   1.620   6.670 -1.9564  1.9926 -2.0162
  918MOL0     H23917   3.605   1.650   6.446  1.4226  0.4336  0.7373
  918MOL0     H23918   3.754   1.449   5.921 -0.4807  1.1116  1.3030
  918MOL0     H23919   3.676   1.554   5.708  4.2474 -0.5682  3.0093
  918MOL0     H23920   3.290   1.541   5.578  2.4632 -0.4540 -0.2600
  918MOL0     H23921   3.239   1.671   5.685 -1.4516 -0.7265 -2.0216
  918MOL0     H23922   3.385   1.754   5.434 -0.0865 -1.1554 -0.6068
  918MOL0     H23923   3.299   1.851   5.554  1.8065  0.9742 -1.9981
  918MOL0     H23924   3.109   1.830   5.423 -0.3354 -0.5540  0.7012
  918MOL0     H23925   3.097   1.674   5.492  0.0798  2.2249  1.3117
  918MOL0     H23926   3.258   1.705   5.243  0.7600 -0.9049  1.1039
  918MOL0     H23927   3.082   1.669   5.233 -0.8486  3.7685  0.2526
  918MOL0     H23928   3.255   1.305   5.356 -2.4416 -1.0700 -3.5070
  918MOL0     H23929   3.276   1.567   5.867 -0.7439 -0.5876  1.5273
  918MOL0     H23930   3.350   1.467   6.076 -0.2338 -0.5721  0.0927
  919MOL0     O23931   9.651   4.105   4.597  0.5320 -0.5184  0.0843
  919MOL0     C23932   9.627   4.129   4.476  0.5345  1.0038 -0.7257
  919MOL0     O23933   9.602   4.031   4.375 -0.3212  0.2428 -0.7743
  919MOL0     C23934   9.610   3.896   4.391  0.3909  0.8139 -0.4682
  919MOL0     C23935   9.704   3.830   4.474  0.1693 -0.1243 -0.1978
  919MOL0     C23936   9.690   3.688   4.484  0.4007  0.4809 -0.5995
  919MOL0     C23937   9.593   3.617   4.421 -0.3732  0.0190  0.0086
  919MOL0     O23938   9.575   3.482   4.429 -0.3571 -0.1775 -0.3237
  919MOL0     C23939   9.648   3.403   4.526  0.1158  0.2522 -0.8026
  919MOL0     C23940   9.641   3.260   4.490  0.0554  0.8721 -0.1148
  919MOL0     C23941   9.724   3.223   4.353 -0.3200 -0.0552  0.2684
  919MOL0     C23942   9.664   3.097   4.292 -0.5637 -0.0943  0.4099
  919MOL0     C23943   9.543   3.120   4.194 -0.8322 -0.5195  0.6003
  919MOL0     C23944   9.419   3.204   4.240 -0.1871 -0.5348  0.3300
  919MOL0     C23945   9.303   3.184   4.148  0.0161 -0.2580  0.2959
  919MOL0     C23946   9.179   3.264   4.187  0.1189  0.3028  0.3228
  919MOL0     N23947   9.127   3.213   4.309 -1.3281  0.1326  0.6096
  919MOL0     C23948   9.023   3.121   4.311 -0.8622  1.2368 -0.7967
  919MOL0     C23949   8.998   3.103   4.441  0.1693  0.6180 -0.0205
  919MOL0     C23950   8.895   3.037   4.527  0.1283  0.4823 -0.0287
  919MOL0     C23951   8.942   2.993   4.661 -0.1158  0.3186 -0.9585
  919MOL0     C23952   8.935   3.112   4.769 -0.6885 -0.3315  0.1944
  919MOL0     C23953   8.791   3.181   4.782 -0.0785  0.4750 -0.4938
  919MOL0     O23954   8.700   3.078   4.822 -0.9358 -0.5313 -1.0591
  919MOL0     C23955   8.583   3.130   4.872 -0.0696  0.0862 -0.3416
  919MOL0     C23956   8.522   3.052   4.970 -0.2476 -0.7078  0.4308
  919MOL0     C23957   8.406   3.091   5.029 -0.8151  1.0719  0.3496
  919MOL0     C23958   8.367   3.007   5.151  0.1577 -0.2405  0.3845
  919MOL0     C23959   8.330   3.193   4.972 -0.6252  0.0957 -0.3849
  919MOL0     C23960   8.210   3.246   5.036 -0.6463  0.3471  0.9216
  919MOL0     O23961   8.181   3.385   5.035  0.0697  1.1295 -0.1657
  919MOL0     C23962   8.078   3.428   5.103  0.9464 -0.9305 -0.1340
  919MOL0     C23963   7.944   3.390   5.076  0.3778  0.1276  1.0855
  919MOL0     C23964   7.841   3.431   5.158 -0.2997  0.2098 -0.3338
  919MOL0     C23965   7.868   3.518   5.265  1.0474  0.1428  0.2996
  919MOL0     O23966   7.762   3.565   5.342  0.7349 -0.1176 -0.5260
  919MOL0     C23967   7.701   3.691   5.304  0.4441  0.1560  0.0264
  919MOL0     C23968   7.701   3.792   5.418 -1.4324 -0.4276 -0.7610
  919MOL0     C23969   7.840   3.820   5.477 -0.4802  0.2228  0.1960
  919MOL0     C23970   7.824   3.939   5.573 -0.4368 -0.4437  0.1172
  919MOL0     C23971   7.963   3.989   5.627  0.2620 -0.5306  0.4781
  919MOL0     C23972   7.933   4.111   5.713 -0.2773 -0.5099  0.9092
  919MOL0     C23973   8.077   4.169   5.733  0.0418  0.1926 -0.0558
  919MOL0     C23974   8.065   4.292   5.819  0.3901  0.0412  0.3903
  919MOL0    Cl23975   8.226   4.358   5.874 -0.4972  0.3245  0.0518
  919MOL0     C23976   7.998   3.563   5.281  0.2002  0.0135 -1.1758
  919MOL0     C23977   8.104   3.518   5.211 -0.0104 -0.0711  0.9012
  919MOL0     O23978   8.137   3.165   5.096  0.7166 -0.5861  0.6878
  919MOL0     C23979   8.389   3.272   4.874 -0.3574 -1.3027  1.0844
  919MOL0     C23980   8.521   3.242   4.826 -0.4605 -0.4786 -0.2467
  919MOL0     N23981   9.084   3.191   4.510  0.0092 -0.2531 -0.2845
  919MOL0     N23982   9.160   3.255   4.437 -0.0995  0.3398  0.9395
  919MOL0     C23983   9.507   3.685   4.331 -0.0827  0.5816 -0.8485
  919MOL0     C23984   9.516   3.822   4.317  0.1410 -0.5590 -0.6103
  919MOL0     C23985   9.616   4.275   4.431  0.5329  0.8806 -0.0480
  919MOL0     C23986   9.639   4.377   4.520 -0.4755 -1.1281  0.5701
  919MOL0     C23987   9.612   4.513   4.488  1.4957  0.4590 -0.8027
  919MOL0     C23988   9.562   4.541   4.358 -0.2341  0.9358  0.1994
  919MOL0     O23989   9.525   4.658   4.306  0.8376  0.7133  0.6383
  919MOL0     C23990   9.527   4.781   4.384  0.5000 -0.0317 -0.1877
  919MOL0     C23991   9.642   4.880   4.333 -1.1000  0.1532 -0.3424
  919MOL0     C23992   9.779   4.809   4.327  0.5147 -0.2902  0.2053
  919MOL0     C23993   9.889   4.906   4.292 -0.2432  0.1285 -0.2704
  919MOL0     C23994  10.020   4.851   4.335  0.2107 -0.7728  0.4820
  919MOL0     C23995  10.136   4.808   4.350 -0.5454  0.1710 -0.7238
  919MOL0     C23996   9.531   4.438   4.270  0.4637  0.3794  0.1920
  919MOL0     C23997   9.560   4.305   4.301  0.0069  0.0126 -0.2540
  919MOL0     H23998   9.777   3.882   4.535 -0.9252 -0.1790  1.2184
  919MOL0     H23999   9.758   3.634   4.549 -0.5108  0.0902  0.0407
  919MOL0     H24000   9.752   3.436   4.530  0.6612 -0.6795 -4.2220
  919MOL0     H24001   9.597   3.408   4.622 -1.8197 -0.2157 -1.7551
  919MOL0     H24002   9.679   3.201   4.574 -0.9915  1.9351  1.1528
  919MOL0     H24003   9.542   3.214   4.485  0.1698  0.7675 -3.6735
  919MOL0     H24004   9.730   3.298   4.273  2.6448 -1.3100 -0.8326
  919MOL0     H24005   9.829   3.210   4.379 -0.5737  1.7381  2.5281
  919MOL0     H24006   9.732   3.033   4.234 -1.3147 -3.1324  2.6517
  919MOL0     H24007   9.627   3.030   4.370 -1.0541  0.9420  1.0849
  919MOL0     H24008   9.573   3.174   4.104 -1.8296 -2.7770 -1.1880
  919MOL0     H24009   9.513   3.022   4.157 -0.1092  0.6901 -3.7479
  919MOL0     H24010   9.387   3.175   4.341 -4.5771  0.1019 -0.6611
  919MOL0     H24011   9.458   3.306   4.243  1.9331 -1.2471 -0.9873
  919MOL0     H24012   9.333   3.201   4.044 -0.7123 -1.3881 -0.1169
  919MOL0     H24013   9.275   3.079   4.159  0.1959 -0.1874  1.5043
  919MOL0     H24014   9.102   3.256   4.109 -0.5379 -0.6565  1.0557
  919MOL0     H24015   9.203   3.370   4.199 -2.7215  0.9496  0.9889
  919MOL0     H24016   8.955   3.089   4.233 -3.9381  1.7091  1.4859
  919MOL0     H24017   8.804   3.098   4.526  0.2969  0.7310 -0.2846
  919MOL0     H24018   8.865   2.951   4.467 -1.7314  1.3747 -0.4502
  919MOL0     H24019   9.046   2.960   4.654  0.6121  2.4157 -0.6422
  919MOL0     H24020   8.876   2.914   4.699  1.7919  0.2192  2.4984
  919MOL0     H24021   9.004   3.190   4.735  0.6141 -1.6215 -0.2275
  919MOL0     H24022   8.977   3.070   4.861  0.1070 -0.8663 -0.4005
  919MOL0     H24023   8.770   3.223   4.683 -2.2273  1.2099  0.2131
  919MOL0     H24024   8.801   3.261   4.857  0.6631 -0.2903  0.2432
  919MOL0     H24025   8.580   2.961   4.977  0.6386 -0.2510 -0.7433
  919MOL0     H24026   8.348   3.066   5.241 -0.3491  1.9172 -1.0740
  919MOL0     H24027   8.282   2.940   5.137  0.5284 -0.7920  0.6957
  919MOL0     H24028   8.457   2.951   5.178  2.2887  3.3088  1.3437
  919MOL0     H24029   7.920   3.314   5.002  0.6633 -1.2805  2.3916
  919MOL0     H24030   7.742   3.389   5.144  0.1710 -1.1580  0.2612
  919MOL0     H24031   7.761   3.726   5.219 -0.9371 -0.7495 -1.3656
  919MOL0     H24032   7.595   3.681   5.279 -0.6482  4.8082  1.7394
  919MOL0     H24033   7.656   3.886   5.385 -1.3870 -1.6536 -4.8906
  919MOL0     H24034   7.637   3.761   5.501  2.7636  0.1146  3.1111
  919MOL0     H24035   7.901   3.843   5.389  0.3312 -0.7699  0.4870
  919MOL0     H24036   7.873   3.727   5.523 -0.7671 -0.5148 -1.0397
  919MOL0     H24037   7.763   4.020   5.533  2.2393  0.1677 -3.2304
  919MOL0     H24038   7.772   3.911   5.665  0.0010  1.1808  0.8815
  919MOL0     H24039   8.029   4.014   5.543 -0.8115  0.2022 -0.1686
  919MOL0     H24040   8.016   3.902   5.668 -0.7476 -1.9573 -1.0966
  919MOL0     H24041   7.864   4.187   5.673  0.9383 -0.5594 -1.4673
  919MOL0     H24042   7.888   4.075   5.806  0.4160  0.7569  1.7567
  919MOL0     H24043   8.106   4.193   5.630 -1.0103 -1.0574 -0.6810
  919MOL0     H24044   8.144   4.101   5.787 -0.3982  0.5259  0.9242
  919MOL0     H24045   8.009   4.276   5.911  1.2513  1.1030  1.1216
  919MOL0     H24046   8.010   4.360   5.753 -1.8612 -0.4469  1.6865
  919MOL0     H24047   8.031   3.618   5.368 -3.0451  2.9054 -1.5749
  919MOL0     H24048   8.208   3.539   5.231 -0.4754  1.5421  1.7485
  919MOL0     H24049   8.336   3.358   4.835  1.5535 -0.3715  0.4429
  919MOL0     H24050   8.567   3.304   4.749  2.9813  1.2976  2.8684
  919MOL0     H24051   9.427   3.636   4.277 -2.1546 -0.2292  2.7214
  919MOL0     H24052   9.450   3.871   4.245 -0.0393 -1.8612 -1.3534
  919MOL0     H24053   9.675   4.368   4.622  0.9352 -0.2142  0.1767
  919MOL0     H24054   9.638   4.584   4.567 -0.5802  0.5096 -0.1144
  919MOL0     H24055   9.430   4.826   4.359  1.3603  0.2111 -3.7228
  919MOL0     H24056   9.534   4.755   4.490 -0.0384 -1.4994 -0.4821
  919MOL0     H24057   9.656   4.974   4.386  3.6575 -0.3583 -0.2873
  919MOL0     H24058   9.621   4.908   4.229 -3.1759 -0.2203 -0.0676
  919MOL0     H24059   9.773   4.732   4.249  0.1049 -0.9921  0.9260
  919MOL0     H24060   9.822   4.772   4.420  1.5816 -1.3871 -0.6883
  919MOL0     H24061   9.872   5.001   4.344 -1.5279  0.1550 -0.6977
  919MOL0     H24062   9.908   4.924   4.186  1.4686 -0.8289 -0.1523
  919MOL0     H24063  10.230   4.764   4.379 -0.7570  2.2858  4.2183
  919MOL0     H24064   9.496   4.472   4.174  2.4620 -0.5845 -0.9490
  919MOL0     H24065   9.536   4.230   4.226  0.0699  3.2054 -3.7320
  920MOL0     O24066   9.004   8.623   0.032  0.0154  0.0629 -0.1879
  920MOL0     C24067   9.011   8.675   0.144  0.0681 -1.1735 -0.3482
  920MOL0     O24068   8.979   8.619   0.261  0.5244  0.4026 -0.5428
  920MOL0     C24069   8.907   8.508   0.274  0.6808 -0.4839  1.2846
  920MOL0     C24070   8.805   8.483   0.187  0.5961  0.0141  0.3152
  920MOL0     C24071   8.732   8.355   0.198 -0.4709  0.4892 -0.0384
  920MOL0     C24072   8.764   8.264   0.303 -1.1913 -0.2421  0.1303
  920MOL0     O24073   8.706   8.136   0.311 -0.4737 -0.8668 -0.1798
  920MOL0     C24074   8.564   8.139   0.305  0.1198  0.2235 -0.5180
  920MOL0     C24075   8.512   8.078   0.174 -1.2574 -0.2184 -0.0479
  920MOL0     C24076   8.362   8.063   0.161  0.2258 -0.7301  0.3031
  920MOL0     C24077   8.315   8.115   0.025 -0.7918 -0.1067  0.4477
  920MOL0     C24078   8.171   8.080  -0.011  1.1114  0.3377 -0.5180
  920MOL0     C24079   8.113   8.153  -0.133  1.2313  0.1959  0.2443
  920MOL0     C24080   8.171   8.300  -0.137 -1.3678  0.1543 -0.5108
  920MOL0     C24081   8.114   8.407  -0.236 -0.4305  0.0288 -1.1154
  920MOL0     N24082   8.086   8.348  -0.369  0.1399  0.0748  0.0547
  920MOL0     C24083   8.176   8.327  -0.466  0.4759 -0.4482 -0.6397
  920MOL0     C24084   8.108   8.244  -0.548  0.3784 -0.2800  0.2840
  920MOL0     C24085   8.163   8.187  -0.672 -0.0722 -0.5340  0.4438
  920MOL0     C24086   8.055   8.205  -0.788  0.6406 -0.2708 -0.0864
  920MOL0     C24087   8.106   8.157  -0.924 -0.2826  0.4442  0.3554
  920MOL0     C24088   8.028   8.182  -1.046  0.2585  0.0954  0.1913
  920MOL0     O24089   8.026   8.325  -1.081 -0.2077 -0.1212 -0.3023
  920MOL0     C24090   7.998   8.361  -1.209  0.4782 -0.4273 -0.4461
  920MOL0     C24091   7.991   8.265  -1.305  0.0827 -0.3754 -0.2260
  920MOL0     C24092   7.998   8.304  -1.435  0.3472 -0.9551  1.4134
  920MOL0     C24093   8.002   8.196  -1.545  0.4043  0.7221  0.2318
  920MOL0     C24094   7.999   8.446  -1.475 -0.2733 -0.0986 -0.0729
  920MOL0     C24095   7.996   8.494  -1.616  0.5880  0.8959 -0.2926
  920MOL0     O24096   7.971   8.622  -1.629  0.5517 -0.0758  0.4730
  920MOL0     C24097   8.029   8.682  -1.739 -0.4863  0.9086  0.3638
  920MOL0     C24098   7.969   8.678  -1.866 -0.0703 -0.2368  0.3763
  920MOL0     C24099   8.030   8.744  -1.957  0.1768 -0.9150  0.4542
  920MOL0     C24100   8.142   8.822  -1.938  0.4071  0.1578  0.6567
  920MOL0     O24101   8.188   8.891  -2.049 -0.2051 -0.9004 -1.0238
  920MOL0     C24102   8.295   8.825  -2.112 -0.0684 -1.0485  0.8444
  920MOL0     C24103   8.304   8.911  -2.235 -0.0610 -0.3024  0.2952
  920MOL0     C24104   8.421   8.885  -2.328  0.0282  1.1859  0.1682
  920MOL0     C24105   8.419   8.988  -2.439 -0.5901 -0.6103  0.5399
  920MOL0     C24106   8.539   8.962  -2.536  1.0999 -0.0360  0.2576
  920MOL0     C24107   8.519   9.064  -2.647  0.3787  0.6941 -0.5775
  920MOL0     C24108   8.553   9.007  -2.786  0.5753 -0.0963  0.3165
  920MOL0     C24109   8.487   9.080  -2.901  0.0904  0.0070  0.5018
  920MOL0    Cl24110   8.312   9.045  -2.927  0.0100  0.2109 -0.1609
  920MOL0     C24111   8.204   8.817  -1.816 -0.7065 -0.4886  0.3233
  920MOL0     C24112   8.142   8.751  -1.712  0.5290  0.7209  0.8347
  920MOL0     O24113   8.031   8.424  -1.705  0.2190 -1.2377 -0.7053
  920MOL0     C24114   7.995   8.537  -1.374 -0.1531  1.4553  0.5987
  920MOL0     C24115   7.998   8.492  -1.241 -0.2403 -0.1052  0.5689
  920MOL0     N24116   7.983   8.208  -0.501  1.9276 -0.2165  0.5998
  920MOL0     N24117   7.972   8.272  -0.392  0.3843 -0.0478 -0.3318
  920MOL0     C24118   8.863   8.302   0.402  0.2162  0.2241 -0.3566
  920MOL0     C24119   8.944   8.414   0.372  0.1044  0.1861 -1.0404
  920MOL0     C24120   9.077   8.811   0.146 -0.9126 -0.2495 -0.1367
  920MOL0     C24121   9.128   8.876   0.039  0.5004  0.8041 -0.1712
  920MOL0     C24122   9.187   9.006   0.042  0.2243  0.0678 -0.3743
  920MOL0     C24123   9.198   9.069   0.166 -0.0142 -0.5598  0.0034
  920MOL0     O24124   9.279   9.182   0.178  0.2111 -0.2987 -0.4031
  920MOL0     C24125   9.207   9.300   0.199  0.3116 -0.2454  0.5871
  920MOL0     C24126   9.285   9.438   0.201 -0.0335  0.1436 -1.5301
  920MOL0     C24127   9.371   9.449   0.076 -0.2122  0.0044  0.0982
  920MOL0     C24128   9.428   9.589   0.057  1.0578  0.4153  0.3357
  920MOL0     C24129   9.357   9.673  -0.038 -0.2644  0.3098 -0.3469
  920MOL0     C24130   9.294   9.731  -0.128 -0.0352 -1.2690 -0.2199
  920MOL0     C24131   9.136   9.008   0.276 -0.1106  0.2980 -0.5931
  920MOL0     C24132   9.077   8.879   0.265 -0.1482 -0.2242 -0.0239
  920MOL0     H24133   8.772   8.546   0.105 -0.7766 -1.0626  0.0106
  920MOL0     H24134   8.665   8.331   0.116 -0.8318 -0.4464  0.5207
  920MOL0     H24135   8.523   8.081   0.389 -1.3108  0.2934 -1.1407
  920MOL0     H24136   8.523   8.240   0.319  1.3466  0.7806 -0.8596
  920MOL0     H24137   8.551   8.144   0.096  0.2756 -1.0698 -0.0500
  920MOL0     H24138   8.568   7.984   0.178  0.9156  0.9962 -0.3285
  920MOL0     H24139   8.340   7.958   0.186 -2.1403 -0.4414 -0.3237
  920MOL0     H24140   8.299   8.111   0.236 -1.0349 -2.0454  0.1522
  920MOL0     H24141   8.350   8.219   0.019  3.7335 -1.4778 -2.5404
  920MOL0     H24142   8.371   8.067  -0.056  0.7509  2.6284 -0.2431
  920MOL0     H24143   8.149   7.972  -0.007 -0.3230  0.6243  0.2471
  920MOL0     H24144   8.103   8.129   0.059  0.3542  2.1127 -2.3740
  920MOL0     H24145   8.136   8.092  -0.220 -4.5844 -2.4605  0.0857
  920MOL0     H24146   8.004   8.160  -0.124  1.1841  0.6509 -0.5857
  920MOL0     H24147   8.157   8.343  -0.037  2.7170  2.0258 -0.5575
  920MOL0     H24148   8.278   8.300  -0.160 -1.0823  0.7220  0.7191
  920MOL0     H24149   8.179   8.494  -0.247  0.0952 -0.3258 -0.8888
  920MOL0     H24150   8.027   8.450  -0.186  2.1919  1.3975  2.7952
  920MOL0     H24151   8.271   8.377  -0.481 -0.5959  1.4805 -1.3174
  920MOL0     H24152   8.257   8.241  -0.683  0.7631 -1.9113  0.6263
  920MOL0     H24153   8.175   8.078  -0.674  2.0559 -0.3290 -1.5659
  920MOL0     H24154   8.033   8.312  -0.795 -1.4756 -0.6514 -0.0271
  920MOL0     H24155   7.960   8.153  -0.772 -0.0622  0.4957 -1.5327
  920MOL0     H24156   8.124   8.050  -0.910 -3.2848  0.0971  2.4800
  920MOL0     H24157   8.202   8.204  -0.947 -1.4781  2.5116 -0.6757
  920MOL0     H24158   7.926   8.143  -1.039  0.7457 -2.3271 -3.5169
  920MOL0     H24159   8.085   8.125  -1.120 -0.1154 -0.6509  0.4678
  920MOL0     H24160   7.990   8.158  -1.287 -0.0509 -1.0240 -3.4886
  920MOL0     H24161   8.096   8.197  -1.602 -1.4811 -1.1253 -3.2749
  920MOL0     H24162   7.985   8.098  -1.499  0.2666  1.4812  1.8684
  920MOL0     H24163   7.928   8.234  -1.617  2.4975  1.3383 -1.7154
  920MOL0     H24164   7.867   8.644  -1.880 -1.4340  3.2510  0.8020
  920MOL0     H24165   7.975   8.756  -2.050 -1.2237  1.8242  1.5130
  920MOL0     H24166   8.387   8.829  -2.052  0.8178 -0.3615 -0.5204
  920MOL0     H24167   8.258   8.730  -2.152 -1.1172  0.1581 -1.1736
  920MOL0     H24168   8.209   8.892  -2.284 -1.3121  1.4920  1.8595
  920MOL0     H24169   8.313   9.014  -2.198  0.5881 -0.4585  0.5919
  920MOL0     H24170   8.430   8.785  -2.373 -0.1955  1.1159  0.2768
  920MOL0     H24171   8.513   8.893  -2.269  0.1278  0.3687  0.1368
  920MOL0     H24172   8.331   9.014  -2.498  0.2576 -2.0984 -1.4884
  920MOL0     H24173   8.440   9.079  -2.381 -2.0801 -1.0088  1.7631
  920MOL0     H24174   8.524   8.860  -2.572 -1.9514  0.1313  0.7759
  920MOL0     H24175   8.639   8.974  -2.495  0.5612 -0.7040  1.8603
  920MOL0     H24176   8.416   9.093  -2.672  0.1633 -0.5292 -1.1589
  920MOL0     H24177   8.590   9.147  -2.640  2.4565 -1.0791  0.6092
  920MOL0     H24178   8.536   8.899  -2.781  1.6129 -0.3302 -0.7676
  920MOL0     H24179   8.659   9.014  -2.812  0.1743 -0.4021 -1.5439
  920MOL0     H24180   8.535   9.058  -2.997 -1.0055 -2.3782  0.4334
  920MOL0     H24181   8.500   9.187  -2.886  0.6094  0.1301 -0.7643
  920MOL0     H24182   8.294   8.874  -1.800 -0.1789 -1.3676  0.5950
  920MOL0     H24183   8.177   8.766  -1.610  2.0976 -1.3779  0.6742
  920MOL0     H24184   7.981   8.645  -1.376 -2.1423  1.2146 -0.5231
  920MOL0     H24185   7.999   8.579  -1.176  1.7519  0.2697  0.1185
  920MOL0     H24186   8.879   8.241   0.490 -0.9239 -0.3262 -0.5177
  920MOL0     H24187   9.032   8.439   0.430 -0.5278  1.7531 -0.7294
  920MOL0     H24188   9.130   8.821  -0.054  0.6201  0.9240 -0.2390
  920MOL0     H24189   9.241   9.046  -0.043  3.6365  0.7628  1.9117
  920MOL0     H24190   9.133   9.314   0.120 -0.0345  0.7735  1.0733
  920MOL0     H24191   9.156   9.294   0.296  1.4570 -0.1213  1.2107
  920MOL0     H24192   9.361   9.424   0.278  1.0589 -0.6218 -2.7205
  920MOL0     H24193   9.221   9.526   0.219  0.1155 -0.0500  0.1060
  920MOL0     H24194   9.308   9.428  -0.011 -3.1879 -0.4569  2.2331
  920MOL0     H24195   9.440   9.365   0.093  0.5390  0.4178 -0.7956
  920MOL0     H24196   9.530   9.571   0.022  0.3410  0.7136 -2.0985
  920MOL0     H24197   9.436   9.638   0.155  3.8222 -0.1088  0.4506
  920MOL0     H24198   9.251   9.786  -0.210  2.7662 -0.2671 -1.1690
  920MOL0     H24199   9.132   9.055   0.374 -0.1806 -2.4786  0.8351
  920MOL0     H24200   9.039   8.833   0.355  0.0084  1.5297  0.9744
  921MOL0     O24201   9.459  10.341   7.942 -1.0573 -0.0792 -0.3504
  921MOL0     C24202   9.522  10.231   7.951 -1.3532  0.4471  0.7824
  921MOL0     O24203   9.598  10.187   8.058 -0.5314 -0.2861 -0.4454
  921MOL0     C24204   9.619  10.268   8.161 -0.0577  0.5675  0.3195
  921MOL0     C24205   9.686  10.390   8.152  0.5424 -0.7200  0.1773
  921MOL0     C24206   9.703  10.464   8.274 -0.8508 -0.1022  0.5326
  921MOL0     C24207   9.651  10.422   8.395  0.3481 -0.4170  0.3543
  921MOL0     O24208   9.684  10.506   8.503  0.0003  0.7845  0.5682
  921MOL0     C24209   9.716  10.436   8.627 -0.5327 -0.4134  0.5406
  921MOL0     C24210   9.835  10.340   8.639  0.0612  0.9547  0.5884
  921MOL0     C24211   9.863  10.292   8.783 -0.2090  0.1093  0.0384
  921MOL0     C24212  10.008  10.244   8.781  0.0479  0.0536 -0.4571
  921MOL0     C24213  10.035  10.187   8.924  0.3041 -0.5548 -0.1968
  921MOL0     C24214  10.171  10.140   8.932  0.3025 -0.6439 -0.1793
  921MOL0     C24215  10.227  10.092   9.070 -0.7566  0.7545 -0.2888
  921MOL0     C24216  10.361  10.021   9.057  1.0372  0.2591  1.4098
  921MOL0     N24217  10.408   9.966   9.182 -0.2277  0.2464 -0.7015
  921MOL0     C24218  10.473  10.033   9.284  0.1562 -0.7444  0.6817
  921MOL0     C24219  10.522   9.941   9.361  0.4834  1.1773  0.2450
  921MOL0     C24220  10.611   9.950   9.480  0.2655 -0.1067  0.1746
  921MOL0     C24221  10.756   9.944   9.458 -0.0999 -1.1626 -0.8837
  921MOL0     C24222  10.817  10.030   9.347  0.4596  0.7920 -0.3334
  921MOL0     C24223  10.968  10.026   9.368  0.8850 -0.0214 -0.7480
  921MOL0     O24224  11.021  10.117   9.280 -0.6549 -0.1613  0.2355
  921MOL0     C24225  11.139  10.085   9.228  0.3407 -0.2270  0.6530
  921MOL0     C24226  11.147  10.093   9.084  0.1349 -0.4041  0.8435
  921MOL0     C24227  11.264  10.072   9.015 -0.3502  0.7743 -0.3776
  921MOL0     C24228  11.269  10.083   8.863 -0.8828 -0.4072 -0.6841
  921MOL0     C24229  11.378  10.038   9.096 -0.3273 -0.0751  0.1309
  921MOL0     C24230  11.512  10.011   9.036  0.3344  0.4959  0.0458
  921MOL0     O24231  11.585   9.897   9.080  0.2470 -0.2279  0.2485
  921MOL0     C24232  11.704   9.858   9.016  0.5861 -0.2911 -0.0968
  921MOL0     C24233  11.708   9.805   8.891 -0.0273 -0.2634  0.3174
  921MOL0     C24234  11.827   9.763   8.840  0.0046  0.1011  0.6605
  921MOL0     C24235  11.950   9.771   8.912 -0.3212  0.2459 -0.5850
  921MOL0     O24236  12.073   9.722   8.875 -0.9946 -0.1886 -0.3343
  921MOL0     C24237  12.079   9.587   8.823  0.2563 -0.3143 -0.7383
  921MOL0     C24238  12.215   9.543   8.758  0.4144  0.1142  0.3895
  921MOL0     C24239  12.262   9.646   8.647 -1.1810 -1.0980 -0.0475
  921MOL0     C24240  12.389   9.606   8.573 -0.1863  0.3817  1.0003
  921MOL0     C24241  12.428   9.695   8.452 -0.8794  1.1036  0.4049
  921MOL0     C24242  12.542   9.648   8.363  0.5573  0.2304 -0.2603
  921MOL0     C24243  12.556   9.730   8.232  0.7212  0.9661 -0.8617
  921MOL0     C24244  12.684   9.711   8.151  0.7032 -0.2434  0.5513
  921MOL0    Cl24245  12.669   9.827   8.017 -0.0041  0.0090 -1.0921
  921MOL0     C24246  11.946   9.826   9.038 -0.1103  0.1231 -0.8994
  921MOL0     C24247  11.820   9.861   9.090  0.5026  0.3556  0.3219
  921MOL0     O24248  11.548  10.086   8.940 -0.5953  0.5366 -0.2801
  921MOL0     C24249  11.370  10.030   9.234  0.6481  0.4195 -1.1945
  921MOL0     C24250  11.250  10.053   9.299  0.5922  0.6932  1.1814
  921MOL0     N24251  10.475   9.813   9.319  0.1827  0.0387 -0.1950
  921MOL0     N24252  10.408   9.830   9.210  0.1650 -0.1808 -0.2700
  921MOL0     C24253   9.586  10.301   8.400  0.7280  0.2072  0.1910
  921MOL0     C24254   9.571  10.223   8.284 -0.4985  0.6296 -0.2646
  921MOL0     C24255   9.551  10.172   7.813  0.5159  0.1207 -0.1141
  921MOL0     C24256   9.659  10.081   7.800  0.1650 -0.0907  0.1278
  921MOL0     C24257   9.693  10.029   7.678  0.0074  0.3178 -0.2921
  921MOL0     C24258   9.619  10.060   7.566 -0.6224 -0.4503  0.4058
  921MOL0     O24259   9.643   9.989   7.447  0.0795  0.0350 -0.2244
  921MOL0     C24260   9.583  10.039   7.319  0.1021  0.4579 -0.7203
  921MOL0     C24261   9.638  10.184   7.276  0.4747 -0.0440 -0.0383
  921MOL0     C24262   9.765  10.178   7.197  0.2700 -0.3842 -0.0185
  921MOL0     C24263   9.882  10.111   7.276  0.6242 -0.1432 -0.7001
  921MOL0     C24264  10.000  10.195   7.251  0.1069  0.3300 -0.6409
  921MOL0     C24265  10.081  10.281   7.223  0.6049  0.5867  0.4542
  921MOL0     C24266   9.508  10.153   7.577  0.0951  0.7279 -0.1615
  921MOL0     C24267   9.474  10.208   7.703 -0.5499 -0.2407  0.3172
  921MOL0     H24268   9.718  10.424   8.054  2.0571  0.0936  0.9320
  921MOL0     H24269   9.744  10.565   8.270  0.1821 -0.5316 -0.3061
  921MOL0     H24270   9.749  10.517   8.693 -0.5464  1.1599 -1.2814
  921MOL0     H24271   9.622  10.399   8.668 -1.6929  3.2911  1.6607
  921MOL0     H24272   9.799  10.259   8.575 -2.2965 -1.2818  4.3593
  921MOL0     H24273   9.919  10.392   8.593 -0.2501  1.7906  0.9400
  921MOL0     H24274   9.856  10.375   8.853 -0.4475  0.1288 -0.0102
  921MOL0     H24275   9.797  10.212   8.819 -2.0636  2.0758  1.1878
  921MOL0     H24276  10.029  10.164   8.710  4.8698  0.9499 -0.3753
  921MOL0     H24277  10.069  10.331   8.756 -1.2182  1.3592  0.8383
  921MOL0     H24278  10.049  10.274   8.989  1.4949 -0.4420 -0.5933
  921MOL0     H24279   9.958  10.126   8.972 -0.2781  0.1306 -0.2354
  921MOL0     H24280  10.169  10.063   8.854  2.7458  1.4854 -2.5201
  921MOL0     H24281  10.234  10.226   8.910 -1.2397  0.9441  1.2792
  921MOL0     H24282  10.224  10.168   9.148 -1.2685  1.9357 -1.4117
  921MOL0     H24283  10.158  10.012   9.097 -0.5555  0.0279 -1.8058
  921MOL0     H24284  10.427  10.095   9.012  2.4728 -0.7489  1.8002
  921MOL0     H24285  10.346   9.936   8.990  0.7251 -0.1644  2.0074
  921MOL0     H24286  10.492  10.140   9.289 -1.2874 -0.3662 -1.0610
  921MOL0     H24287  10.584  10.046   9.525 -0.1720  0.0845 -0.4821
  921MOL0     H24288  10.587   9.872   9.553  1.9612 -1.2826 -0.4503
  921MOL0     H24289  10.778   9.837   9.444 -3.1985 -1.7802 -1.8454
  921MOL0     H24290  10.794   9.986   9.551  1.9127 -0.9627 -1.7476
  921MOL0     H24291  10.777  10.131   9.360  0.8180  0.9995 -0.8179
  921MOL0     H24292  10.798   9.989   9.248 -1.7457  1.0751 -0.0718
  921MOL0     H24293  11.011   9.926   9.363  2.0941  0.4294  0.2200
  921MOL0     H24294  10.988  10.055   9.471 -2.2092 -1.2501  0.3241
  921MOL0     H24295  11.054  10.112   9.032  1.2261 -0.5928 -1.3040
  921MOL0     H24296  11.343  10.158   8.833  0.2433 -1.6430 -1.1258
  921MOL0     H24297  11.295   9.989   8.813 -3.3114 -2.2282  1.2664
  921MOL0     H24298  11.175  10.123   8.826 -0.2466  0.2794 -1.6174
  921MOL0     H24299  11.616   9.781   8.837  2.1441  0.1920 -4.0122
  921MOL0     H24300  11.831   9.725   8.739  0.3509  1.6256  0.0731
  921MOL0     H24301  12.052   9.521   8.906  1.2186 -2.4566 -2.0347
  921MOL0     H24302  12.003   9.571   8.745  0.3101 -1.3040 -0.6052
  921MOL0     H24303  12.298   9.521   8.826  0.7214 -2.6079 -0.7739
  921MOL0     H24304  12.199   9.450   8.703 -1.8928  1.7911 -2.0889
  921MOL0     H24305  12.290   9.739   8.697 -0.5480 -1.4495  0.2601
  921MOL0     H24306  12.176   9.664   8.582 -2.0127  1.1710  1.5623
  921MOL0     H24307  12.471   9.585   8.642  1.2038  2.3381  0.0616
  921MOL0     H24308  12.368   9.503   8.543 -6.6142  1.7643 -0.8257
  921MOL0     H24309  12.455   9.792   8.494  4.9581  0.3997 -0.8517
  921MOL0     H24310  12.345   9.720   8.384  0.9759  2.6126 -1.4553
  921MOL0     H24311  12.639   9.657   8.413  2.6057 -1.7621 -3.5151
  921MOL0     H24312  12.518   9.544   8.341  0.8208 -0.5219  2.5746
  921MOL0     H24313  12.551   9.835   8.261 -0.6595  1.0721 -1.3987
  921MOL0     H24314  12.474   9.699   8.166 -2.6658 -1.7344  3.9807
  921MOL0     H24315  12.700   9.610   8.114  0.2068 -0.8395  1.9220
  921MOL0     H24316  12.761   9.749   8.220 -2.0872  1.2490  3.0838
  921MOL0     H24317  12.030   9.834   9.107 -2.8992  1.2014  2.6854
  921MOL0     H24318  11.807   9.907   9.188 -4.4735  0.5268 -0.1820
  921MOL0     H24319  11.453  10.003   9.299 -0.6816 -1.2061 -0.0637
  921MOL0     H24320  11.246  10.037   9.406  0.7019 -0.5318  1.0095
  921MOL0     H24321   9.547  10.267   8.496  1.8750 -1.2200  0.1900
  921MOL0     H24322   9.526  10.125   8.292  2.3969 -0.6608  2.9133
  921MOL0     H24323   9.719  10.058   7.887 -0.0253  0.5158  0.4207
  921MOL0     H24324   9.769   9.953   7.666 -0.9019 -1.1462  2.4356
  921MOL0     H24325   9.610   9.970   7.238 -0.1953 -1.3317  0.6457
  921MOL0     H24326   9.475  10.036   7.335  0.0652 -0.7447 -1.1210
  921MOL0     H24327   9.657  10.230   7.373  1.0102 -2.6061  1.1448
  921MOL0     H24328   9.562  10.247   7.228  0.5987  2.2096  2.5180
  921MOL0     H24329   9.799  10.280   7.176  0.3441 -0.3033  0.4867
  921MOL0     H24330   9.761  10.116   7.106  1.8937  0.2119 -0.5422
  921MOL0     H24331   9.897  10.003   7.275  0.3459 -0.2209  0.7729
  921MOL0     H24332   9.861  10.130   7.382  1.4011 -0.3135 -0.5087
  921MOL0     H24333  10.152  10.361   7.209  1.9102 -0.3078  1.6743
  921MOL0     H24334   9.450  10.187   7.492 -0.1198 -1.1963 -0.8417
  921MOL0     H24335   9.391  10.278   7.706  1.1926  2.0641 -0.9662
  922MOL0     O24336  10.504   3.492   1.360  0.2415 -0.0271  0.3142
  922MOL0     C24337  10.603   3.534   1.417  0.4311 -1.4819 -0.1148
  922MOL0     O24338  10.732   3.483   1.418 -0.2140 -0.1350 -0.3895
  922MOL0     C24339  10.765   3.384   1.323 -0.2959  0.9084 -1.3063
  922MOL0     C24340  10.740   3.251   1.356 -0.1894  0.2279 -1.5355
  922MOL0     C24341  10.767   3.163   1.251  0.2608 -0.3648 -0.1601
  922MOL0     C24342  10.818   3.191   1.125 -0.7896  0.5220  0.9172
  922MOL0     O24343  10.840   3.093   1.032 -0.2006  0.7176 -0.0195
  922MOL0     C24344  10.730   3.060   0.945  0.3170  0.2180  0.1998
  922MOL0     C24345  10.787   2.938   0.865  0.6191  0.3023 -0.1235
  922MOL0     C24346  10.671   2.877   0.778 -0.2987  0.2116 -0.6272
  922MOL0     C24347  10.644   2.957   0.646 -0.7553 -0.0947  0.5977
  922MOL0     C24348  10.519   2.909   0.568  0.5352  0.6896 -0.4147
  922MOL0     C24349  10.499   2.988   0.438  0.1848 -0.3520  0.4376
  922MOL0     C24350  10.383   2.936   0.355  1.1663 -0.7422 -0.1137
  922MOL0     C24351  10.244   2.940   0.421  0.2065 -0.8987 -0.2937
  922MOL0     N24352  10.206   3.081   0.434  0.0757 -0.2667 -0.1046
  922MOL0     C24353  10.132   3.155   0.345  0.9432  0.0931  0.5140
  922MOL0     C24354  10.134   3.284   0.386  0.6833 -0.1009 -0.1390
  922MOL0     C24355  10.073   3.380   0.283 -1.0816 -0.0068 -1.0813
  922MOL0     C24356  10.137   3.352   0.148  0.3177 -0.4729  0.2123
  922MOL0     C24357  10.101   3.468   0.053  0.1383  0.8633 -0.1083
  922MOL0     C24358  10.132   3.438  -0.088 -0.0719  1.0129 -0.0281
  922MOL0     O24359  10.035   3.329  -0.125 -0.0662 -0.4358  0.6524
  922MOL0     C24360   9.981   3.343  -0.254 -1.0630  0.3039 -0.2789
  922MOL0     C24361   9.845   3.322  -0.271  0.0695 -0.3312  0.5222
  922MOL0     C24362   9.782   3.318  -0.401 -0.1847  0.1049  0.0417
  922MOL0     C24363   9.633   3.299  -0.409  1.2125 -0.4568  0.2493
  922MOL0     C24364   9.868   3.318  -0.513 -0.2101  0.2526  0.2292
  922MOL0     C24365   9.830   3.312  -0.653  0.3103  0.0465  0.3207
  922MOL0     O24366   9.880   3.222  -0.739  0.8795 -0.2749  0.4221
  922MOL0     C24367   9.810   3.202  -0.857 -0.6062 -0.7508 -0.3593
  922MOL0     C24368   9.670   3.175  -0.869 -0.8457  0.4158 -0.1348
  922MOL0     C24369   9.602   3.187  -0.993 -0.7677 -0.1546 -0.1230
  922MOL0     C24370   9.672   3.211  -1.113  0.0914 -0.0452  0.1851
  922MOL0     O24371   9.605   3.234  -1.234  0.0990  0.9433 -0.4944
  922MOL0     C24372   9.500   3.138  -1.262 -0.1650 -1.2938 -0.4997
  922MOL0     C24373   9.551   2.991  -1.287 -0.5494  0.5758 -0.4061
  922MOL0     C24374   9.677   2.985  -1.381 -0.0963  0.1593 -0.0388
  922MOL0     C24375   9.783   2.874  -1.346 -1.2664 -0.3104 -0.3006
  922MOL0     C24376   9.762   2.732  -1.396 -0.0089 -0.1654 -0.4546
  922MOL0     C24377   9.885   2.643  -1.378  0.5996 -0.2802 -0.2921
  922MOL0     C24378   9.842   2.502  -1.429  0.1873  0.3011 -0.4019
  922MOL0     C24379   9.930   2.383  -1.388  0.3248 -0.6995 -0.3538
  922MOL0    Cl24380  10.108   2.418  -1.418  0.0579 -0.2294  0.3084
  922MOL0     C24381   9.810   3.221  -1.104  0.1370  0.5749  1.0422
  922MOL0     C24382   9.880   3.218  -0.981  1.0954 -0.8052  0.6511
  922MOL0     O24383   9.747   3.390  -0.681  0.1401 -0.0215  0.5017
  922MOL0     C24384  10.009   3.320  -0.492 -0.9294 -0.1001  0.0497
  922MOL0     C24385  10.061   3.342  -0.363  0.4189 -0.1505  0.8577
  922MOL0     N24386  10.205   3.287   0.500 -0.6169  0.0658 -0.2140
  922MOL0     N24387  10.246   3.168   0.534 -0.7855  0.1221  0.0591
  922MOL0     C24388  10.833   3.318   1.093 -0.8849  0.2159 -0.6644
  922MOL0     C24389  10.809   3.418   1.192 -0.3507  0.0749 -0.5122
  922MOL0     C24390  10.599   3.657   1.490 -0.1739  0.8992 -0.9220
  922MOL0     C24391  10.485   3.667   1.564  0.0945 -0.0233 -0.3791
  922MOL0     C24392  10.480   3.759   1.665 -0.6158  0.5082 -0.0271
  922MOL0     C24393  10.585   3.851   1.681 -1.0555  0.2191  0.0641
  922MOL0     O24394  10.585   3.962   1.760 -0.4954  0.3011  0.7517
  922MOL0     C24395  10.460   3.998   1.829 -0.5934 -0.8303  0.1505
  922MOL0     C24396  10.367   4.085   1.741  0.2474 -1.5475  0.5812
  922MOL0     C24397  10.231   4.116   1.807  0.4352 -0.1308  0.0793
  922MOL0     C24398  10.135   4.004   1.823 -0.2017  0.2572  0.8954
  922MOL0     C24399  10.109   3.931   1.698  0.9150 -0.6721 -0.1322
  922MOL0     C24400  10.070   3.905   1.595  0.4222  0.6318 -0.3821
  922MOL0     C24401  10.704   3.836   1.617  0.2628  0.4085  0.5611
  922MOL0     C24402  10.708   3.738   1.513 -0.5562  0.1984  0.4688
  922MOL0     H24403  10.698   3.229   1.453  2.0811  1.1685 -0.2897
  922MOL0     H24404  10.736   3.060   1.267 -0.6210 -0.1309 -0.3020
  922MOL0     H24405  10.642   3.026   1.002 -2.1102  1.6165 -2.4839
  922MOL0     H24406  10.710   3.140   0.874 -1.6043  0.3225  0.8090
  922MOL0     H24407  10.876   2.965   0.807  1.2038  0.5700  0.8845
  922MOL0     H24408  10.823   2.870   0.943 -0.7266 -0.7664 -0.3881
  922MOL0     H24409  10.682   2.769   0.762 -2.1755 -0.1070 -0.0184
  922MOL0     H24410  10.586   2.880   0.847 -0.4987 -0.8533 -0.8086
  922MOL0     H24411  10.645   3.064   0.670  0.0872 -0.1994  1.0721
  922MOL0     H24412  10.724   2.945   0.573 -1.8764 -1.8361 -0.4133
  922MOL0     H24413  10.523   2.800   0.554 -3.4874 -0.4441  4.1170
  922MOL0     H24414  10.433   2.910   0.636  1.3128  0.0440  0.6180
  922MOL0     H24415  10.481   3.090   0.472 -0.1933  0.1367 -1.1258
  922MOL0     H24416  10.595   2.992   0.386  0.6835  1.7205  1.4489
  922MOL0     H24417  10.376   2.979   0.255  3.6077  0.6527  0.2374
  922MOL0     H24418  10.408   2.830   0.340 -0.3197 -1.8004  3.8308
  922MOL0     H24419  10.254   2.888   0.517  0.3686  0.2270  0.3115
  922MOL0     H24420  10.164   2.899   0.359 -1.1977  0.7440  0.3707
  922MOL0     H24421  10.083   3.117   0.256  0.2942 -0.5918  1.1518
  922MOL0     H24422   9.965   3.378   0.268 -1.0714  2.1342 -1.8615
  922MOL0     H24423  10.077   3.485   0.316 -0.3347  0.3653 -2.2776
  922MOL0     H24424  10.100   3.256   0.109  1.2860 -1.7086  2.1347
  922MOL0     H24425  10.245   3.336   0.151  0.5937  1.3298  0.8441
  922MOL0     H24426  10.136   3.562   0.096 -2.8750  1.9435  0.2163
  922MOL0     H24427   9.992   3.479   0.050 -0.0109 -0.4499  0.0932
  922MOL0     H24428  10.233   3.398  -0.095  0.5430  2.4084  0.6401
  922MOL0     H24429  10.124   3.526  -0.152 -0.7899  2.2787  1.7031
  922MOL0     H24430   9.785   3.314  -0.181 -0.6097  0.7230  0.1867
  922MOL0     H24431   9.587   3.355  -0.327  1.9181 -1.5958  1.4767
  922MOL0     H24432   9.587   3.350  -0.494 -2.2347  1.6938  3.1370
  922MOL0     H24433   9.603   3.194  -0.409  0.4202 -0.3055  2.8610
  922MOL0     H24434   9.621   3.169  -0.772 -0.4700 -5.1432  0.0237
  922MOL0     H24435   9.494   3.188  -1.000 -0.8447 -1.2178  0.7408
  922MOL0     H24436   9.414   3.138  -1.195  1.3001 -0.8759  1.4577
  922MOL0     H24437   9.445   3.174  -1.351  1.7536  1.9681 -0.5340
  922MOL0     H24438   9.588   2.943  -1.196 -0.7284 -2.5615 -1.8789
  922MOL0     H24439   9.459   2.939  -1.315  0.9097 -2.8499  0.6661
  922MOL0     H24440   9.730   3.080  -1.369  0.8334 -0.6035  2.6044
  922MOL0     H24441   9.645   2.973  -1.484 -0.7691  2.4796 -0.1667
  922MOL0     H24442   9.874   2.921  -1.383 -2.7043  2.9439 -0.0440
  922MOL0     H24443   9.798   2.880  -1.238  2.4250 -0.1141 -0.6842
  922MOL0     H24444   9.733   2.742  -1.502  0.0011  1.5033 -0.3342
  922MOL0     H24445   9.673   2.688  -1.350  1.1936 -2.6388 -0.3143
  922MOL0     H24446   9.969   2.685  -1.435 -0.6455  2.5255 -0.2440
  922MOL0     H24447   9.922   2.640  -1.275  1.2092  0.0777 -0.4940
  922MOL0     H24448   9.845   2.502  -1.538  1.0601  0.6627 -0.3818
  922MOL0     H24449   9.741   2.477  -1.394  1.2906 -0.6866  2.4435
  922MOL0     H24450   9.897   2.298  -1.449 -1.4717 -0.0874 -0.3038
  922MOL0     H24451   9.922   2.357  -1.282 -1.8152  5.3090  1.3321
  922MOL0     H24452   9.863   3.253  -1.194  0.4796 -0.5869  0.8210
  922MOL0     H24453   9.982   3.251  -0.992  0.7210  0.6910  1.2819
  922MOL0     H24454  10.078   3.330  -0.575  1.9477 -2.5849  1.9499
  922MOL0     H24455  10.167   3.353  -0.345  0.1551 -0.9367  3.2396
  922MOL0     H24456  10.890   3.341   1.003  0.6893 -1.3407 -0.1452
  922MOL0     H24457  10.833   3.520   1.167  0.7850 -0.1852 -0.5470
  922MOL0     H24458  10.405   3.594   1.564  1.5956 -1.7385 -0.6343
  922MOL0     H24459  10.381   3.766   1.708 -0.2476 -1.2513  1.1988
  922MOL0     H24460  10.412   3.909   1.872 -0.6725 -0.6051  0.5311
  922MOL0     H24461  10.483   4.053   1.921 -1.2741  0.0656 -0.2043
  922MOL0     H24462  10.357   4.042   1.642  0.3833  2.5145 -1.4142
  922MOL0     H24463  10.420   4.178   1.719 -2.0797 -0.9836 -3.7358
  922MOL0     H24464  10.181   4.196   1.752 -2.9553 -0.7627  1.9796
  922MOL0     H24465  10.244   4.164   1.905  2.1081  1.2656 -0.7629
  922MOL0     H24466  10.039   4.045   1.856 -0.7417 -0.8588  0.7760
  922MOL0     H24467  10.169   3.929   1.896  1.5083 -1.8689 -1.8835
  922MOL0     H24468  10.025   3.873   1.503  0.0208  2.8388 -0.9887
  922MOL0     H24469  10.793   3.898   1.626  0.6577  0.3981 -2.3454
  922MOL0     H24470  10.808   3.738   1.472  0.0281 -1.9768  1.7339
  923MOL0     O24471   8.588   8.353  10.823 -0.3941  0.3600 -0.0304
  923MOL0     C24472   8.515   8.451  10.832  0.0384 -0.1243  0.5855
  923MOL0     O24473   8.460   8.521  10.728 -0.3024 -0.4144  0.6059
  923MOL0     C24474   8.474   8.474  10.597 -0.3289  0.2189 -0.4244
  923MOL0     C24475   8.368   8.489  10.508  0.1028 -0.2073  1.5217
  923MOL0     C24476   8.385   8.446  10.373  0.1908  0.2463  0.7120
  923MOL0     C24477   8.499   8.378  10.323  0.0066  0.4748 -1.0351
  923MOL0     O24478   8.500   8.326  10.200 -0.5365  0.3723  0.3442
  923MOL0     C24479   8.500   8.181  10.181 -0.4847 -0.5924  0.4261
  923MOL0     C24480   8.370   8.116  10.239 -0.1190  0.7979 -0.0200
  923MOL0     C24481   8.394   7.957  10.252  0.8404 -0.8786 -0.4465
  923MOL0     C24482   8.293   7.900  10.355 -0.7758 -0.1449  0.4381
  923MOL0     C24483   8.310   7.753  10.388 -0.1094 -0.3994 -0.2104
  923MOL0     C24484   8.430   7.717  10.477  0.0360  0.4675 -0.6248
  923MOL0     C24485   8.429   7.773  10.616  0.0608  0.7276 -0.0122
  923MOL0     C24486   8.540   7.717  10.705  0.7920 -0.1218  0.0616
  923MOL0     N24487   8.542   7.565  10.719  0.3051 -0.3129 -0.3741
  923MOL0     C24488   8.654   7.488  10.693  0.1871 -0.9592 -0.5474
  923MOL0     C24489   8.615   7.358  10.713  0.0983  0.0797 -0.7685
  923MOL0     C24490   8.698   7.234  10.727 -0.0871 -1.4574  0.1730
  923MOL0     C24491   8.681   7.135  10.611 -0.4737 -0.1072 -0.5166
  923MOL0     C24492   8.543   7.103  10.563 -1.1962 -0.2497 -0.5862
  923MOL0     C24493   8.548   6.986  10.465 -0.6092  0.1746  0.3355
  923MOL0     O24494   8.614   7.021  10.342 -0.1005  0.0217  0.2056
  923MOL0     C24495   8.612   6.920  10.244 -0.0256  0.5538 -0.6339
  923MOL0     C24496   8.647   6.953  10.112 -0.4418 -0.8352  0.1911
  923MOL0     C24497   8.661   6.859  10.004  1.0601  1.1569 -0.1764
  923MOL0     C24498   8.707   6.910   9.869  0.7858  0.1084  1.0477
  923MOL0     C24499   8.642   6.724  10.025  0.1350  0.0601 -0.7721
  923MOL0     C24500   8.650   6.608   9.923  0.2098 -0.3623 -0.2890
  923MOL0     O24501   8.662   6.643   9.790 -0.1801 -0.4580 -0.3029
  923MOL0     C24502   8.684   6.554   9.688 -0.1327  0.1344 -0.0250
  923MOL0     C24503   8.656   6.610   9.561  0.2845  0.2638 -0.0376
  923MOL0     C24504   8.681   6.529   9.445 -0.3922 -0.7762  0.5205
  923MOL0     C24505   8.736   6.401   9.450  1.3095  0.3271  0.2132
  923MOL0     O24506   8.770   6.352   9.329  0.8937  0.2508 -0.4242
  923MOL0     C24507   8.792   6.203   9.321  0.2014 -0.0659  0.9974
  923MOL0     C24508   8.762   6.159   9.173  0.8218  0.9253  1.1507
  923MOL0     C24509   8.616   6.160   9.136  0.8992 -0.1976  0.5742
  923MOL0     C24510   8.589   6.167   8.988 -0.4692 -1.0584 -0.3663
  923MOL0     C24511   8.450   6.129   8.955  0.1939  0.7296  0.1411
  923MOL0     C24512   8.433   5.980   8.995 -1.0463 -0.1323  0.2120
  923MOL0     C24513   8.312   5.921   8.938  0.3213  0.6326  0.1299
  923MOL0     C24514   8.293   5.776   8.980 -0.2796 -0.5697  0.4495
  923MOL0    Cl24515   8.152   5.682   8.910  0.4008  0.1069  0.1233
  923MOL0     C24516   8.766   6.349   9.574  0.6102 -0.1297 -0.2519
  923MOL0     C24517   8.744   6.428   9.695  0.7191  0.9252  0.8928
  923MOL0     O24518   8.639   6.488   9.963  0.0924  0.4795  0.2480
  923MOL0     C24519   8.599   6.687  10.156 -0.1374 -0.6690  0.5595
  923MOL0     C24520   8.578   6.779  10.264  0.6452 -0.1276  0.1343
  923MOL0     N24521   8.479   7.354  10.740  0.2282 -0.5239 -0.0666
  923MOL0     N24522   8.441   7.480  10.753 -0.6419 -0.7489 -0.1940
  923MOL0     C24523   8.600   8.357  10.416 -0.2510  0.3226 -0.1005
  923MOL0     C24524   8.590   8.403  10.550 -0.8558  0.8903 -0.7737
  923MOL0     C24525   8.492   8.506  10.970  0.5361  0.1440 -0.1245
  923MOL0     C24526   8.385   8.587  10.992  0.2016 -0.3716  0.8607
  923MOL0     C24527   8.359   8.620  11.120 -0.2129 -0.0950  0.0257
  923MOL0     C24528   8.428   8.577  11.231 -0.2678  0.1114  0.1236
  923MOL0     O24529   8.390   8.617  11.354 -0.0852  0.8052 -0.0452
  923MOL0     C24530   8.473   8.611  11.477 -0.0887 -0.2589 -0.5095
  923MOL0     C24531   8.572   8.727  11.478  0.7522  0.5086 -0.6542
  923MOL0     C24532   8.498   8.852  11.520  0.7854  0.0316 -0.3612
  923MOL0     C24533   8.527   8.963  11.418  0.2151  0.7161  1.0404
  923MOL0     C24534   8.658   9.022  11.441  0.4363 -1.1013 -0.3318
  923MOL0     C24535   8.770   9.068  11.456 -0.3688 -0.2115 -0.5164
  923MOL0     C24536   8.534   8.492  11.203  0.7987 -0.3197  0.1311
  923MOL0     C24537   8.579   8.475  11.074  0.6811  0.2992  0.2012
  923MOL0     H24538   8.284   8.551  10.536 -0.9881 -0.0910 -1.6185
  923MOL0     H24539   8.301   8.466  10.306  1.6530 -1.5651 -1.8574
  923MOL0     H24540   8.513   8.149  10.077 -2.0231 -0.3705  0.1420
  923MOL0     H24541   8.588   8.145  10.234 -3.0761 -2.2046  4.0348
  923MOL0     H24542   8.332   8.155  10.334  1.5195  0.5938  0.7604
  923MOL0     H24543   8.298   8.149  10.164  1.3223  4.1548 -0.0831
  923MOL0     H24544   8.388   7.912  10.153  0.6249 -0.1641 -0.7664
  923MOL0     H24545   8.495   7.940  10.293  1.5572 -1.1985 -2.2728
  923MOL0     H24546   8.293   7.963  10.444 -1.3320  0.4264  0.0437
  923MOL0     H24547   8.195   7.913  10.309 -0.2301  0.0084 -0.7505
  923MOL0     H24548   8.220   7.721  10.440  0.6550 -0.0224  1.4297
  923MOL0     H24549   8.325   7.719  10.285 -1.0373  0.8632 -0.7891
  923MOL0     H24550   8.433   7.608  10.479  2.0591  0.4820  0.9178
  923MOL0     H24551   8.522   7.755  10.430  1.1679 -1.9849 -0.5587
  923MOL0     H24552   8.429   7.882  10.611  1.9659  0.8389  1.5265
  923MOL0     H24553   8.344   7.733  10.673  2.1599 -2.0205  1.4457
  923MOL0     H24554   8.521   7.765  10.802 -2.7923 -0.2676 -0.4390
  923MOL0     H24555   8.642   7.746  10.679  0.8491  0.4557  0.8647
  923MOL0     H24556   8.753   7.531  10.678  0.4324 -0.7036  1.5388
  923MOL0     H24557   8.801   7.269  10.730 -0.7558  0.7295 -0.5229
  923MOL0     H24558   8.662   7.179  10.815 -0.0196 -1.0662  0.4437
  923MOL0     H24559   8.734   7.044  10.640  0.2234  0.9944  1.9972
  923MOL0     H24560   8.739   7.182  10.531  1.9717  3.5763  2.9911
  923MOL0     H24561   8.493   7.194  10.531 -0.8546  0.9407  1.9959
  923MOL0     H24562   8.472   7.063  10.636 -3.2743 -1.4612 -3.0987
  923MOL0     H24563   8.448   6.948  10.442 -0.9670  0.9661  0.5506
  923MOL0     H24564   8.588   6.912  10.534 -4.7641  0.4565  3.4440
  923MOL0     H24565   8.671   7.056  10.086  2.4109 -1.5707 -0.3786
  923MOL0     H24566   8.700   7.018   9.858  2.3518 -0.0114 -2.4177
  923MOL0     H24567   8.812   6.883   9.854  1.6142  1.3045  4.0057
  923MOL0     H24568   8.646   6.871   9.787  1.4527  0.9958  0.1117
  923MOL0     H24569   8.624   6.712   9.542 -1.5769 -0.3638 -0.4131
  923MOL0     H24570   8.666   6.568   9.345  0.2739  0.3181  0.8285
  923MOL0     H24571   8.897   6.180   9.341  0.6657 -0.8843 -1.8119
  923MOL0     H24572   8.730   6.152   9.395 -1.0338 -0.0389  0.0200
  923MOL0     H24573   8.822   6.226   9.111  2.0041 -0.9828  0.1252
  923MOL0     H24574   8.809   6.061   9.160 -4.3282 -1.3963 -3.5116
  923MOL0     H24575   8.583   6.255   9.179  0.2893 -0.0638 -0.1748
  923MOL0     H24576   8.566   6.080   9.191  2.5264 -1.8875 -0.2905
  923MOL0     H24577   8.610   6.269   8.955 -2.4134 -0.8077 -0.9858
  923MOL0     H24578   8.651   6.097   8.931  1.1085  1.9615 -2.5820
  923MOL0     H24579   8.439   6.143   8.847 -0.9989  0.2801  0.1824
  923MOL0     H24580   8.371   6.189   9.001 -2.0274 -0.3428 -2.0699
  923MOL0     H24581   8.519   5.923   8.960 -1.2858  0.3403 -1.2135
  923MOL0     H24582   8.421   5.978   9.104  3.2554  0.6557  0.8543
  923MOL0     H24583   8.305   5.938   8.830 -2.8796 -3.3108 -0.5465
  923MOL0     H24584   8.225   5.975   8.977  0.4043  0.6396  0.3042
  923MOL0     H24585   8.288   5.765   9.089  2.0029  1.5194  0.8505
  923MOL0     H24586   8.376   5.713   8.948 -0.8614  0.6313 -4.1160
  923MOL0     H24587   8.819   6.254   9.586  1.1428  0.0091 -1.3790
  923MOL0     H24588   8.765   6.385   9.793 -1.5503 -1.2771  0.5123
  923MOL0     H24589   8.566   6.584  10.171  2.1100 -1.7966 -1.4787
  923MOL0     H24590   8.535   6.730  10.352 -0.8777 -1.5900 -1.3372
  923MOL0     H24591   8.684   8.296  10.385  2.1010  2.8604  0.9011
  923MOL0     H24592   8.677   8.372  10.608 -0.1044 -2.8748 -3.5324
  923MOL0     H24593   8.317   8.613  10.911  2.1432 -0.1200 -0.7986
  923MOL0     H24594   8.272   8.684  11.127 -0.6381 -0.2598 -2.8227
  923MOL0     H24595   8.423   8.611  11.574  0.3090 -0.2761 -0.3046
  923MOL0     H24596   8.527   8.516  11.473 -0.0788 -0.3168  0.7713
  923MOL0     H24597   8.615   8.739  11.378  1.3341  2.0380 -0.2410
  923MOL0     H24598   8.665   8.717  11.534  0.2384 -0.0092  0.1146
  923MOL0     H24599   8.528   8.883  11.620  1.1495 -2.4018  0.3514
  923MOL0     H24600   8.390   8.835  11.525  0.8518 -0.0573  1.1143
  923MOL0     H24601   8.452   9.043  11.422 -3.0388 -2.1510  2.3343
  923MOL0     H24602   8.534   8.926  11.315  0.8337 -1.3527  1.7800
  923MOL0     H24603   8.860   9.109  11.498 -2.2821  1.8309  1.9401
  923MOL0     H24604   8.596   8.436  11.271  1.0238 -2.0640 -1.4537
  923MOL0     H24605   8.654   8.400  11.052  0.5416  0.0066  0.6962
  924MOL0     O24606   8.730   0.101   5.415 -0.4286  1.2308 -0.0036
  924MOL0     C24607   8.845   0.045   5.430  0.5853  0.1008 -0.6671
  924MOL0     O24608   8.864  -0.063   5.504 -0.5197 -0.6855 -0.1966
  924MOL0     C24609   8.769  -0.091   5.603 -0.2535  0.0808 -0.0857
  924MOL0     C24610   8.809  -0.089   5.737  0.4741  0.3248  0.2349
  924MOL0     C24611   8.710  -0.129   5.831  0.0029  0.0016 -0.0770
  924MOL0     C24612   8.577  -0.159   5.794 -0.4769  0.5918  0.5256
  924MOL0     O24613   8.488  -0.177   5.900  0.3060  0.3800  0.7353
  924MOL0     C24614   8.346  -0.205   5.869  0.1099  0.6813  0.1337
  924MOL0     C24615   8.267  -0.078   5.836 -0.3711  0.4189  0.4698
  924MOL0     C24616   8.124  -0.109   5.777 -0.1716 -0.6704  0.4386
  924MOL0     C24617   8.028   0.009   5.761 -0.2791 -0.9004 -0.3258
  924MOL0     C24618   7.889  -0.032   5.730  0.6973  0.0542  0.1228
  924MOL0     C24619   7.816   0.084   5.659 -0.4226 -0.2536 -0.1879
  924MOL0     C24620   7.853   0.108   5.513 -0.3680 -0.0237  0.6276
  924MOL0     C24621   7.743   0.187   5.434 -0.7794  0.6329  0.3326
  924MOL0     N24622   7.628   0.101   5.435 -0.3089 -0.2389  0.3372
  924MOL0     C24623   7.504   0.144   5.481  0.1575  0.9955 -0.0936
  924MOL0     C24624   7.418   0.047   5.444  0.0974  0.6620  0.0384
  924MOL0     C24625   7.264   0.067   5.453 -0.3951 -0.3206 -0.0428
  924MOL0     C24626   7.200   0.150   5.340 -1.0827 -0.1859  0.6885
  924MOL0     C24627   7.055   0.108   5.320  0.6960 -0.1763  0.0960
  924MOL0     C24628   6.970   0.111   5.442  0.0024  0.3780  0.2693
  924MOL0     O24629   6.830   0.079   5.404 -0.2261  0.7290  0.2711
  924MOL0     C24630   6.780  -0.051   5.399  0.7633  0.6141 -0.2118
  924MOL0     C24631   6.839  -0.164   5.462  0.2453 -0.2405  0.3738
  924MOL0     C24632   6.789  -0.290   5.450 -0.3666  0.2722 -0.6473
  924MOL0     C24633   6.847  -0.383   5.565  1.6284 -0.1198  0.3716
  924MOL0     C24634   6.684  -0.323   5.357 -0.6608 -0.4340 -0.5523
  924MOL0     C24635   6.625  -0.453   5.330 -1.4339  0.8825 -0.5456
  924MOL0     O24636   6.702  -0.560   5.369 -0.0857 -0.3745 -0.3942
  924MOL0     C24637   6.651  -0.692   5.371  0.6639  0.6363  0.2642
  924MOL0     C24638   6.533  -0.724   5.438  0.6655 -0.5775  0.3494
  924MOL0     C24639   6.491  -0.857   5.457  0.6968  0.0037 -0.6880
  924MOL0     C24640   6.572  -0.965   5.402  0.0696  0.1838  1.0227
  924MOL0     O24641   6.526  -1.095   5.416 -0.6432 -0.4233 -0.2896
  924MOL0     C24642   6.437  -1.135   5.520  0.1136  0.0540 -0.3614
  924MOL0     C24643   6.431  -1.288   5.534 -0.2707 -0.1213 -0.1763
  924MOL0     C24644   6.323  -1.327   5.628 -0.4104 -0.6693  0.6824
  924MOL0     C24645   6.315  -1.478   5.627 -0.3723  0.2354 -0.3687
  924MOL0     C24646   6.223  -1.530   5.736  0.7546  0.1906  0.7571
  924MOL0     C24647   6.217  -1.686   5.721  0.1574  0.2613 -0.2573
  924MOL0     C24648   6.122  -1.748   5.819  0.7424  0.0763 -0.2890
  924MOL0     C24649   6.105  -1.912   5.820  0.7227 -1.1227  0.3317
  924MOL0    Cl24650   6.241  -1.987   5.721 -0.1680  0.4425 -0.0451
  924MOL0     C24651   6.682  -0.929   5.323  0.3995  0.4786  1.0649
  924MOL0     C24652   6.717  -0.792   5.312 -0.1780  0.4326  0.4558
  924MOL0     O24653   6.522  -0.464   5.273 -0.2050  0.2210  0.2031
  924MOL0     C24654   6.631  -0.208   5.291  0.0239 -0.2927  0.5733
  924MOL0     C24655   6.670  -0.084   5.314 -0.6086 -1.0939 -0.1413
  924MOL0     N24656   7.501  -0.057   5.397  0.4324 -0.3008  0.2764
  924MOL0     N24657   7.628  -0.023   5.382  0.6931 -1.1936 -0.0588
  924MOL0     C24658   8.547  -0.160   5.652 -0.1737 -0.3285 -0.1837
  924MOL0     C24659   8.644  -0.132   5.558 -0.4241  0.7340 -0.7127
  924MOL0     C24660   8.949   0.092   5.341  0.2821 -0.4631 -0.5254
  924MOL0     C24661   8.934   0.202   5.259 -0.6145 -0.1410  0.7954
  924MOL0     C24662   9.035   0.244   5.169  0.5146 -0.5853 -0.0130
  924MOL0     C24663   9.156   0.167   5.153  0.6081 -0.1972  0.0784
  924MOL0     O24664   9.260   0.182   5.067  0.5279 -0.0698 -0.0146
  924MOL0     C24665   9.251   0.274   4.953 -0.1968 -0.4876  0.1268
  924MOL0     C24666   9.254   0.426   4.990  0.0280  0.2019 -0.6478
  924MOL0     C24667   9.393   0.474   5.016 -0.0170  0.7293 -0.0848
  924MOL0     C24668   9.481   0.392   5.113  0.0112 -0.6340 -0.3868
  924MOL0     C24669   9.623   0.444   5.114  0.4087  0.6161 -1.6466
  924MOL0     C24670   9.732   0.494   5.114 -0.0988 -0.9884 -0.6879
  924MOL0     C24671   9.171   0.065   5.251 -0.0642 -0.1732  0.4667
  924MOL0     C24672   9.080   0.036   5.346  0.4189 -0.6215 -0.2435
  924MOL0     H24673   8.901  -0.049   5.778 -0.9478  4.4700 -0.1622
  924MOL0     H24674   8.733  -0.123   5.936  0.0040  0.2333 -0.0889
  924MOL0     H24675   8.340  -0.278   5.788 -3.2932  1.4013 -0.4088
  924MOL0     H24676   8.299  -0.248   5.957  1.3600 -1.5551 -0.2160
  924MOL0     H24677   8.245  -0.019   5.925  2.1742 -0.9799  2.1508
  924MOL0     H24678   8.317  -0.012   5.764 -0.3010  0.2471  0.3608
  924MOL0     H24679   8.139  -0.134   5.671  1.3633  0.4387  0.3524
  924MOL0     H24680   8.089  -0.201   5.824  0.9016 -1.5638 -0.4691
  924MOL0     H24681   8.035   0.070   5.852  0.2121 -2.6656  0.8739
  924MOL0     H24682   8.056   0.085   5.688  0.2059  0.1051  0.8538
  924MOL0     H24683   7.894  -0.124   5.670  0.8252  0.6533 -0.8188
  924MOL0     H24684   7.836  -0.064   5.820 -1.0324 -0.9022 -1.1700
  924MOL0     H24685   7.709   0.064   5.672 -1.0705  2.8150 -0.0931
  924MOL0     H24686   7.828   0.172   5.723 -0.8243 -2.6721  3.5275
  924MOL0     H24687   7.947   0.164   5.520  1.7310 -3.2682  0.4995
  924MOL0     H24688   7.883   0.023   5.451  1.3652  2.1478 -1.7428
  924MOL0     H24689   7.766   0.216   5.330 -1.8772 -2.7627 -0.9874
  924MOL0     H24690   7.731   0.273   5.500 -1.2887 -1.9509  3.8399
  924MOL0     H24691   7.472   0.239   5.522  0.9732  1.3039 -0.1520
  924MOL0     H24692   7.236  -0.038   5.442  2.3892 -0.9336 -2.6119
  924MOL0     H24693   7.242   0.107   5.552  1.2679 -2.8153  1.4438
  924MOL0     H24694   7.256   0.140   5.247 -1.0524 -0.9746  0.7843
  924MOL0     H24695   7.221   0.255   5.362  0.6621  0.8512 -4.6140
  924MOL0     H24696   7.048   0.012   5.268  0.8773  0.0373 -0.3243
  924MOL0     H24697   7.007   0.192   5.268 -0.4199  0.5365  2.1631
  924MOL0     H24698   6.982   0.211   5.485 -0.2619  0.2917  0.5513
  924MOL0     H24699   7.012   0.036   5.510 -2.4358 -1.0274  0.3632
  924MOL0     H24700   6.920  -0.140   5.530  0.3829  1.5614 -0.3481
  924MOL0     H24701   6.900  -0.337   5.649 -0.4581  3.3553 -0.0322
  924MOL0     H24702   6.765  -0.444   5.603  1.5110  0.1604  0.5762
  924MOL0     H24703   6.915  -0.452   5.516  0.0424 -0.6221 -1.2096
  924MOL0     H24704   6.475  -0.653   5.496  3.1407 -1.0313  3.6888
  924MOL0     H24705   6.404  -0.871   5.521  0.0798 -2.6844 -1.9412
  924MOL0     H24706   6.463  -1.080   5.611 -0.7454 -0.2494  0.0888
  924MOL0     H24707   6.335  -1.107   5.491  1.1025  2.8982 -1.3656
  924MOL0     H24708   6.404  -1.320   5.432  1.1457  1.1185 -0.9706
  924MOL0     H24709   6.523  -1.341   5.561 -0.6400 -1.0456 -0.6589
  924MOL0     H24710   6.226  -1.296   5.587 -0.8072 -1.5821  0.8887
  924MOL0     H24711   6.344  -1.289   5.728  1.6287  2.4393 -0.7730
  924MOL0     H24712   6.297  -1.518   5.527 -0.0898 -1.6192  0.2911
  924MOL0     H24713   6.417  -1.512   5.647  0.0340  1.4745 -0.2514
  924MOL0     H24714   6.119  -1.501   5.717  0.8720  0.2715  0.2284
  924MOL0     H24715   6.249  -1.492   5.835 -2.6049  0.3236  1.7249
  924MOL0     H24716   6.196  -1.717   5.618  0.8804  2.1497 -1.0052
  924MOL0     H24717   6.317  -1.713   5.758 -0.4596  2.1308  3.1603
  924MOL0     H24718   6.018  -1.713   5.819  0.5754 -0.2001  2.1750
  924MOL0     H24719   6.161  -1.728   5.919  0.4864 -0.7989 -0.0076
  924MOL0     H24720   6.007  -1.941   5.780 -0.8169  1.1464  2.2345
  924MOL0     H24721   6.106  -1.955   5.920 -1.5700 -0.5648  0.6436
  924MOL0     H24722   6.745  -1.000   5.270 -0.1401  0.2326  0.7554
  924MOL0     H24723   6.805  -0.754   5.261 -0.2903  2.5399  1.7285
  924MOL0     H24724   6.559  -0.224   5.211 -0.5623 -0.6728  1.1617
  924MOL0     H24725   6.618  -0.005   5.261 -1.5138 -1.4188  0.2508
  924MOL0     H24726   8.447  -0.168   5.612  0.6479  0.3322 -2.5478
  924MOL0     H24727   8.612  -0.130   5.454  1.6551 -1.4879 -1.4978
  924MOL0     H24728   8.844   0.262   5.258  0.0735  1.0475  3.3446
  924MOL0     H24729   9.017   0.325   5.098 -0.2091 -0.8497 -0.1344
  924MOL0     H24730   9.338   0.252   4.889  0.9783 -1.3796  1.9571
  924MOL0     H24731   9.165   0.266   4.886  1.4481  2.9349 -2.7816
  924MOL0     H24732   9.203   0.443   5.085 -3.4685  2.5289 -2.6725
  924MOL0     H24733   9.198   0.484   4.915 -1.6327  0.5865  0.8087
  924MOL0     H24734   9.381   0.574   5.059 -0.5149 -0.3987  2.6323
  924MOL0     H24735   9.454   0.462   4.926 -0.1761  0.0100 -0.1004
  924MOL0     H24736   9.484   0.284   5.092  2.4304 -1.1852  2.0750
  924MOL0     H24737   9.446   0.391   5.217  0.8430 -1.3297 -0.0952
  924MOL0     H24738   9.821   0.553   5.116 -3.0868  4.5543 -3.7984
  924MOL0     H24739   9.264   0.009   5.250 -0.4830 -0.9349  1.7537
  924MOL0     H24740   9.110  -0.032   5.424  0.0621 -2.0191 -1.2804
  925MOL0     O24741   3.592   3.187   6.713  0.1161  0.1389  0.5194
  925MOL0     C24742   3.583   3.063   6.699  0.1828  1.5701 -0.3321
  925MOL0     O24743   3.582   2.976   6.802  0.6156  0.6298 -0.8063
  925MOL0     C24744   3.606   3.039   6.927 -0.8070  0.4246 -0.0280
  925MOL0     C24745   3.510   3.122   6.982 -0.1605 -0.0726  0.1739
  925MOL0     C24746   3.530   3.186   7.103 -0.1796 -0.6935  0.4297
  925MOL0     C24747   3.644   3.170   7.173  0.0984  0.0200 -0.4075
  925MOL0     O24748   3.664   3.258   7.277  0.2051  0.3594  0.1061
  925MOL0     C24749   3.765   3.233   7.375  0.6249 -0.3530 -0.1374
  925MOL0     C24750   3.765   3.335   7.490 -0.1322 -0.7589 -0.4507
  925MOL0     C24751   3.906   3.339   7.548 -0.0635  0.3682  0.3375
  925MOL0     C24752   3.938   3.454   7.647 -0.1631  0.5540  0.8796
  925MOL0     C24753   4.056   3.416   7.734 -0.2352 -0.3915 -0.8345
  925MOL0     C24754   4.093   3.522   7.844  0.3545  1.2862  0.1640
  925MOL0     C24755   4.231   3.500   7.920  0.9319  0.3000  0.1592
  925MOL0     C24756   4.348   3.534   7.828  0.2358  0.7085  0.1468
  925MOL0     N24757   4.479   3.545   7.887  0.4790  0.4193  0.6987
  925MOL0     C24758   4.581   3.449   7.888 -1.2573  0.2843  0.3454
  925MOL0     C24759   4.665   3.516   7.962  0.1402 -0.4414  0.1306
  925MOL0     C24760   4.804   3.463   7.982 -0.1610  0.7569 -0.1109
  925MOL0     C24761   4.822   3.348   8.082 -0.4709 -1.5429 -0.1890
  925MOL0     C24762   4.794   3.394   8.226  0.2540  0.2066 -1.2699
  925MOL0     C24763   4.808   3.286   8.341 -0.2133 -0.7560 -0.5526
  925MOL0     O24764   4.729   3.174   8.320  0.6109  0.5011 -0.8030
  925MOL0     C24765   4.773   3.052   8.373 -0.8929 -0.6343  0.8180
  925MOL0     C24766   4.724   2.937   8.318 -0.7117 -0.1761 -1.4492
  925MOL0     C24767   4.759   2.805   8.362 -0.2402  0.4706 -0.9386
  925MOL0     C24768   4.699   2.680   8.292 -0.8793 -0.4632 -0.1250
  925MOL0     C24769   4.862   2.797   8.462 -0.3890 -0.1073  0.1023
  925MOL0     C24770   4.906   2.672   8.539 -0.0617 -0.6853  0.5980
  925MOL0     O24771   5.027   2.675   8.605  0.1926 -0.2073 -0.5020
  925MOL0     C24772   5.101   2.559   8.615 -0.3833 -0.4483 -0.2929
  925MOL0     C24773   5.111   2.471   8.509 -0.9987 -0.6668  0.3894
  925MOL0     C24774   5.198   2.367   8.496 -1.0449 -1.0156  1.6358
  925MOL0     C24775   5.261   2.327   8.610  0.9222 -0.0984  0.0963
  925MOL0     O24776   5.351   2.225   8.620 -0.4143 -0.4219 -0.5403
  925MOL0     C24777   5.371   2.126   8.511 -0.1673  0.0202 -0.4475
  925MOL0     C24778   5.250   2.021   8.508 -0.1374 -0.0625 -1.0066
  925MOL0     C24779   5.289   1.883   8.560  0.5882 -0.7127 -0.0806
  925MOL0     C24780   5.192   1.773   8.535  0.4404 -0.6648  0.7629
  925MOL0     C24781   5.202   1.652   8.627  0.4259 -0.7732  1.1985
  925MOL0     C24782   5.143   1.522   8.568  0.1257 -0.9950  0.3072
  925MOL0     C24783   5.123   1.420   8.682  0.2944 -0.2322 -0.5078
  925MOL0     C24784   5.011   1.451   8.782 -0.2080  0.7680 -0.1400
  925MOL0    Cl24785   4.854   1.493   8.713 -0.0992  0.2024 -0.2841
  925MOL0     C24786   5.237   2.399   8.728 -0.0935  0.1037  0.0257
  925MOL0     C24787   5.168   2.516   8.734 -0.6959 -0.1733 -0.2831
  925MOL0     O24788   4.833   2.576   8.531  0.3954 -0.0135  0.0622
  925MOL0     C24789   4.921   2.919   8.509  0.1437  0.0583 -0.6253
  925MOL0     C24790   4.870   3.044   8.470 -0.1281  0.1119  0.7239
  925MOL0     N24791   4.624   3.640   8.005  0.6312  0.5429 -0.2547
  925MOL0     N24792   4.506   3.658   7.965  0.4408  0.1132 -0.0210
  925MOL0     C24793   3.742   3.076   7.122 -0.6619  0.9077  0.0376
  925MOL0     C24794   3.725   3.007   6.999  0.5991  0.6750 -0.9829
  925MOL0     C24795   3.566   3.000   6.565 -0.0479 -0.3201  0.0320
  925MOL0     C24796   3.530   2.864   6.550 -0.5962  0.1059  0.7113
  925MOL0     C24797   3.521   2.813   6.416 -0.2629 -0.0503  0.5393
  925MOL0     C24798   3.543   2.889   6.300  0.0157  0.2904  0.6386
  925MOL0     O24799   3.550   2.832   6.176  0.9004  0.0884 -0.0955
  925MOL0     C24800   3.500   2.897   6.060  0.1604 -0.2966  0.4323
  925MOL0     C24801   3.478   2.794   5.954 -0.5714  0.8015 -0.2994
  925MOL0     C24802   3.351   2.713   5.998  0.6345  0.4901 -0.2386
  925MOL0     C24803   3.300   2.641   5.869  0.0539 -0.0787  0.4120
  925MOL0     C24804   3.210   2.536   5.897  0.4690  0.5662  0.4506
  925MOL0     C24805   3.122   2.456   5.914  0.6504 -0.0058  0.5089
  925MOL0     C24806   3.568   3.025   6.314  0.6314  0.4630  0.6227
  925MOL0     C24807   3.583   3.080   6.440  0.3287  0.4374 -0.6569
  925MOL0     H24808   3.426   3.141   6.916 -1.2234 -1.9623  0.9147
  925MOL0     H24809   3.452   3.257   7.131 -1.1315 -1.2892 -0.6255
  925MOL0     H24810   3.743   3.136   7.419 -1.6414  0.1106 -0.0923
  925MOL0     H24811   3.857   3.234   7.316 -1.1520 -0.9724 -3.1033
  925MOL0     H24812   3.740   3.438   7.462 -0.3067 -0.0974  1.9143
  925MOL0     H24813   3.694   3.309   7.569 -1.2668  0.1990 -1.1214
  925MOL0     H24814   3.921   3.240   7.592 -1.9361  0.1582  0.5545
  925MOL0     H24815   3.973   3.353   7.462  1.1075 -1.6212  0.8775
  925MOL0     H24816   3.959   3.547   7.593 -0.9596  0.1346 -0.1860
  925MOL0     H24817   3.848   3.476   7.705 -2.3284  2.8793 -2.9404
  925MOL0     H24818   4.032   3.326   7.793  0.6924  1.6335  3.0185
  925MOL0     H24819   4.143   3.401   7.669  1.1766  2.7971  0.0881
  925MOL0     H24820   4.096   3.618   7.790  2.2831 -1.7955 -6.2912
  925MOL0     H24821   4.017   3.515   7.922 -2.9468  0.6360 -2.8556
  925MOL0     H24822   4.223   3.570   8.004 -0.5590 -0.2069  0.4717
  925MOL0     H24823   4.219   3.399   7.960  3.0747 -0.3191 -0.6183
  925MOL0     H24824   4.319   3.624   7.773 -2.6162 -1.7764 -2.8321
  925MOL0     H24825   4.349   3.454   7.753 -1.2050 -0.3254  1.1817
  925MOL0     H24826   4.597   3.354   7.838  5.1826  0.5308  1.1536
  925MOL0     H24827   4.852   3.430   7.890  0.5062  2.7844 -0.5594
  925MOL0     H24828   4.867   3.548   8.012 -1.0649  0.5048  2.9214
  925MOL0     H24829   4.916   3.298   8.056 -0.5422 -0.7345 -2.1638
  925MOL0     H24830   4.761   3.262   8.052  0.9729 -1.0156 -5.6388
  925MOL0     H24831   4.690   3.427   8.233  0.0435 -0.6311 -0.1320
  925MOL0     H24832   4.858   3.483   8.233  0.7203 -0.0971 -1.5981
  925MOL0     H24833   4.781   3.333   8.437  2.5019 -2.9959  1.4990
  925MOL0     H24834   4.916   3.269   8.334  0.0800  0.4610  0.5306
  925MOL0     H24835   4.635   2.950   8.257 -0.2869 -0.8250 -2.2345
  925MOL0     H24836   4.782   2.611   8.271 -0.5279 -0.0757 -0.0363
  925MOL0     H24837   4.607   2.648   8.340 -1.5859  2.3233  0.5649
  925MOL0     H24838   4.675   2.719   8.192 -1.2876  2.4008  1.0082
  925MOL0     H24839   5.047   2.487   8.422 -0.7969 -1.0203  0.1754
  925MOL0     H24840   5.209   2.332   8.394 -1.3037 -1.4637  1.7619
  925MOL0     H24841   5.389   2.171   8.413  2.0268 -2.9513 -1.5699
  925MOL0     H24842   5.463   2.069   8.526  1.0557  2.1244  0.3165
  925MOL0     H24843   5.173   2.071   8.567  1.5404  1.0502  0.3154
  925MOL0     H24844   5.227   2.008   8.402 -1.0197 -2.9332 -0.5591
  925MOL0     H24845   5.299   1.882   8.669 -1.8588  2.4863  0.3139
  925MOL0     H24846   5.387   1.866   8.512  0.6362 -0.3243 -0.1198
  925MOL0     H24847   5.087   1.805   8.538  0.7015  0.1565  2.0179
  925MOL0     H24848   5.219   1.741   8.434 -1.1760 -1.3291  0.5040
  925MOL0     H24849   5.168   1.672   8.729 -0.5852  4.3087  0.1609
  925MOL0     H24850   5.309   1.628   8.629  0.3903 -1.5825 -1.7433
  925MOL0     H24851   5.050   1.543   8.514  1.2855  0.6049 -1.1989
  925MOL0     H24852   5.208   1.478   8.492 -0.0369 -0.0853 -0.3773
  925MOL0     H24853   5.213   1.426   8.744 -1.4504  2.6906  1.9557
  925MOL0     H24854   5.112   1.314   8.657 -3.6983 -0.3557  0.9941
  925MOL0     H24855   5.051   1.526   8.851 -1.8060  0.5138  1.1253
  925MOL0     H24856   5.001   1.364   8.848 -0.0884  1.7768  1.2491
  925MOL0     H24857   5.280   2.368   8.823 -0.2656  1.6703  0.6503
  925MOL0     H24858   5.148   2.580   8.820  0.7522  1.0614 -0.8238
  925MOL0     H24859   4.994   2.925   8.589 -3.2653  1.8572  2.6499
  925MOL0     H24860   4.905   3.128   8.529  5.0596 -1.7135  0.7532
  925MOL0     H24861   3.837   3.079   7.174 -1.0709  3.7414  0.7856
  925MOL0     H24862   3.802   2.935   6.971 -0.7224 -1.4180  0.4978
  925MOL0     H24863   3.515   2.795   6.632  0.0109 -1.4081 -0.3895
  925MOL0     H24864   3.510   2.709   6.388  1.0804  0.1517 -0.8384
  925MOL0     H24865   3.407   2.953   6.076  1.4140  1.3595  2.2991
  925MOL0     H24866   3.583   2.964   6.037  1.1606  0.9240  6.1620
  925MOL0     H24867   3.562   2.729   5.927 -2.2900 -0.6879 -2.4379
  925MOL0     H24868   3.475   2.843   5.856 -2.0308  0.7025 -0.3206
  925MOL0     H24869   3.272   2.770   6.046 -0.3400 -1.1695  0.2224
  925MOL0     H24870   3.399   2.644   6.070  0.7923  0.1369 -0.6781
  925MOL0     H24871   3.378   2.616   5.796 -0.7968  4.2843 -2.3590
  925MOL0     H24872   3.243   2.719   5.818 -0.1463 -1.8476 -2.3224
  925MOL0     H24873   3.040   2.392   5.940  0.6251  0.1794  0.8919
  925MOL0     H24874   3.569   3.092   6.228  0.8604  1.2435  1.2170
  925MOL0     H24875   3.596   3.186   6.455  2.0705  0.3360 -1.2039
  926MOL0     O24876   9.307   4.450   7.427  0.0468  0.4964 -0.9824
  926MOL0     C24877   9.405   4.391   7.472  0.3167 -0.2271  0.3076
  926MOL0     O24878   9.404   4.325   7.587 -0.6429 -0.9784 -0.1597
  926MOL0     C24879   9.305   4.350   7.682 -0.6907 -0.3252 -0.9381
  926MOL0     C24880   9.274   4.244   7.757 -0.2887  1.1279  0.6201
  926MOL0     C24881   9.171   4.238   7.840  0.0550 -0.3148 -0.5119
  926MOL0     C24882   9.097   4.355   7.864 -0.1248 -0.3471 -0.3520
  926MOL0     O24883   9.011   4.350   7.967  0.8049  0.0317 -0.1710
  926MOL0     C24884   8.890   4.444   7.971 -0.4530  0.6252 -0.9255
  926MOL0     C24885   8.760   4.373   7.921  0.0880  0.0869  0.0098
  926MOL0     C24886   8.767   4.340   7.768 -0.1849  0.2379 -0.6734
  926MOL0     C24887   8.712   4.444   7.670 -0.1603  0.4126  0.9430
  926MOL0     C24888   8.783   4.420   7.528 -0.2736  0.1338 -0.3229
  926MOL0     C24889   8.912   4.498   7.506  0.3189  0.0551 -0.7218
  926MOL0     C24890   8.940   4.545   7.367 -0.1206  0.3609  0.0301
  926MOL0     C24891   8.966   4.429   7.267 -0.0724 -0.0919 -0.1133
  926MOL0     N24892   9.062   4.455   7.158  0.7656  0.5064  0.4873
  926MOL0     C24893   9.197   4.415   7.145 -0.3245 -0.6074  0.9282
  926MOL0     C24894   9.233   4.439   7.015  0.8634 -0.1114 -0.5735
  926MOL0     C24895   9.355   4.399   6.938  0.3512 -0.0059  0.8776
  926MOL0     C24896   9.335   4.327   6.798  0.2384  0.7995 -0.0255
  926MOL0     C24897   9.443   4.238   6.752  0.0836 -0.2383  0.1269
  926MOL0     C24898   9.413   4.090   6.783 -0.8019  0.2327 -0.4647
  926MOL0     O24899   9.421   4.052   6.919  0.0104 -0.5623 -0.5133
  926MOL0     C24900   9.540   4.013   6.981 -0.7049  0.0355 -0.0889
  926MOL0     C24901   9.540   3.955   7.114 -0.0733  0.5537 -0.1709
  926MOL0     C24902   9.664   3.918   7.177 -0.3572  0.1657 -0.3098
  926MOL0     C24903   9.650   3.847   7.303  0.3092 -0.9309 -0.2343
  926MOL0     C24904   9.785   3.940   7.114  0.7269  0.2330 -0.1888
  926MOL0     C24905   9.917   3.926   7.183  0.0320 -0.1721 -0.0291
  926MOL0     O24906  10.026   3.958   7.113  0.0789 -0.6077 -0.5106
  926MOL0     C24907  10.152   3.983   7.164 -0.9170 -0.2710  0.3227
  926MOL0     C24908  10.187   4.042   7.287 -0.2384  0.5473  0.3797
  926MOL0     C24909  10.321   4.049   7.330 -0.3343 -0.1834  1.0963
  926MOL0     C24910  10.428   4.006   7.245 -0.7730  0.4877 -1.1594
  926MOL0     O24911  10.562   4.008   7.275 -0.2909  0.8257  0.2707
  926MOL0     C24912  10.602   4.112   7.363 -0.0764 -0.0748 -1.1141
  926MOL0     C24913  10.760   4.122   7.353  0.8452  0.4300 -0.5216
  926MOL0     C24914  10.798   4.142   7.211 -0.6971  0.3074  0.0506
  926MOL0     C24915  10.945   4.172   7.194  0.7434 -0.0221  0.3173
  926MOL0     C24916  11.031   4.094   7.091 -0.2837  0.0888 -0.3358
  926MOL0     C24917  11.164   4.170   7.077  0.7751 -0.2518 -0.6584
  926MOL0     C24918  11.235   4.120   6.948 -0.2523  0.5467  0.3687
  926MOL0     C24919  11.370   4.177   6.907  1.4263  0.9031  0.4637
  926MOL0    Cl24920  11.475   4.143   7.045  0.3559 -0.0787 -0.0476
  926MOL0     C24921  10.390   3.946   7.120 -0.6012 -0.2230 -0.4969
  926MOL0     C24922  10.255   3.937   7.086 -0.0227  0.5172 -0.3728
  926MOL0     O24923   9.920   3.903   7.301 -0.0236  0.5132 -0.3367
  926MOL0     C24924   9.782   3.974   6.978  0.3560  0.2055 -0.7984
  926MOL0     C24925   9.665   4.001   6.914  0.0899 -0.2534  0.7273
  926MOL0     N24926   9.123   4.497   6.957 -0.8961 -0.6213  0.0200
  926MOL0     N24927   9.027   4.511   7.035 -0.7674 -0.0861  0.1138
  926MOL0     C24928   9.129   4.467   7.792 -0.2735 -0.1694 -0.8882
  926MOL0     C24929   9.235   4.465   7.701  0.1951  0.4050 -0.0473
  926MOL0     C24930   9.524   4.371   7.373  0.1717  0.2140  0.1641
  926MOL0     C24931   9.578   4.470   7.297 -0.1068 -0.3597 -0.8051
  926MOL0     C24932   9.682   4.448   7.207 -0.5876 -0.2473  0.3522
  926MOL0     C24933   9.745   4.323   7.205 -0.2991  1.4840  1.2505
  926MOL0     O24934   9.847   4.285   7.117 -0.2734  0.0980 -0.6775
  926MOL0     C24935   9.882   4.368   6.996 -0.0515 -0.7131 -0.3419
  926MOL0     C24936  10.007   4.302   6.930  0.3763  0.3052  0.5435
  926MOL0     C24937  10.070   4.367   6.802  0.6987 -0.4350  0.5774
  926MOL0     C24938   9.977   4.433   6.694 -0.6403 -0.1215 -0.4622
  926MOL0     C24939   9.893   4.346   6.609  0.4149 -0.1996  0.2905
  926MOL0     C24940   9.846   4.257   6.542 -0.6376  1.0246 -0.1971
  926MOL0     C24941   9.717   4.236   7.306 -0.1722 -0.8946 -0.1435
  926MOL0     C24942   9.604   4.260   7.390 -0.6323  0.4262 -0.0067
  926MOL0     H24943   9.342   4.159   7.753  0.1233  1.4968 -0.7409
  926MOL0     H24944   9.152   4.155   7.906 -0.7455 -1.8264 -2.5413
  926MOL0     H24945   8.879   4.488   8.071 -2.3626  0.9183 -1.2135
  926MOL0     H24946   8.907   4.525   7.900  2.0480  2.8168  1.8995
  926MOL0     H24947   8.753   4.290   7.992 -0.7620  1.6250  1.7935
  926MOL0     H24948   8.672   4.435   7.939 -1.3125 -1.2575 -1.7295
  926MOL0     H24949   8.872   4.319   7.746  0.1250 -2.5232  2.6121
  926MOL0     H24950   8.708   4.248   7.761  1.5027 -0.8475 -1.1046
  926MOL0     H24951   8.606   4.417   7.667  0.2791 -1.7586  2.6006
  926MOL0     H24952   8.730   4.546   7.705 -0.9780  1.7049 -2.0418
  926MOL0     H24953   8.815   4.316   7.521  0.2008  0.1724  1.1085
  926MOL0     H24954   8.706   4.446   7.455 -1.0255 -0.7986  0.1223
  926MOL0     H24955   8.920   4.591   7.563  1.8292  0.7408 -1.9549
  926MOL0     H24956   8.998   4.442   7.544 -0.5025 -0.3233  0.6411
  926MOL0     H24957   8.871   4.622   7.334  0.8043  0.2314 -2.4081
  926MOL0     H24958   9.042   4.585   7.368  1.5115 -3.1313 -2.5316
  926MOL0     H24959   8.875   4.409   7.210  0.2856 -1.1077 -0.3486
  926MOL0     H24960   8.982   4.338   7.325 -2.4209  1.0494  2.5729
  926MOL0     H24961   9.266   4.373   7.217 -1.5523 -1.4424  1.6587
  926MOL0     H24962   9.421   4.486   6.926  2.9112 -2.1385 -2.2482
  926MOL0     H24963   9.407   4.332   7.007 -1.0757 -0.8753  1.1418
  926MOL0     H24964   9.340   4.409   6.726  2.0426  1.5311  0.8777
  926MOL0     H24965   9.244   4.266   6.803  0.3196  0.7576  1.2621
  926MOL0     H24966   9.538   4.265   6.798  0.7491 -1.2605 -0.5972
  926MOL0     H24967   9.464   4.257   6.646  0.7346  5.3357  0.9305
  926MOL0     H24968   9.483   4.029   6.725 -0.7314  1.3735 -1.6240
  926MOL0     H24969   9.312   4.059   6.754 -1.4151  0.8071  0.9843
  926MOL0     H24970   9.449   3.923   7.163 -1.7461  0.1849 -3.2803
  926MOL0     H24971   9.718   3.762   7.294  1.1141 -0.2060 -1.2360
  926MOL0     H24972   9.680   3.918   7.381  3.3342 -0.9422 -1.2913
  926MOL0     H24973   9.549   3.810   7.323  0.0083 -0.6045 -1.0686
  926MOL0     H24974  10.106   4.070   7.353 -0.7201 -1.7170  0.8149
  926MOL0     H24975  10.336   4.097   7.426 -2.7147 -0.8335  1.8597
  926MOL0     H24976  10.565   4.210   7.332 -1.1377 -0.2694 -0.5310
  926MOL0     H24977  10.569   4.083   7.464 -0.3422  0.0830 -1.1545
  926MOL0     H24978  10.788   4.209   7.413 -2.3534 -0.5145  2.6780
  926MOL0     H24979  10.802   4.035   7.405 -2.0485  0.5355  2.3166
  926MOL0     H24980  10.744   4.229   7.174 -0.4286  0.7248  0.6349
  926MOL0     H24981  10.774   4.053   7.151 -0.0693  0.0190  0.2181
  926MOL0     H24982  10.946   4.277   7.162  1.1216  0.2736  1.2461
  926MOL0     H24983  10.992   4.162   7.293  0.0949 -0.3528  0.5933
  926MOL0     H24984  10.980   4.080   6.996 -0.3285  0.4421 -0.3683
  926MOL0     H24985  11.052   3.995   7.132 -1.1799  1.6891  4.5786
  926MOL0     H24986  11.126   4.270   7.052 -1.0302 -0.6566  0.2794
  926MOL0     H24987  11.228   4.170   7.166  2.2274  2.4922 -1.5772
  926MOL0     H24988  11.165   4.130   6.865  1.4871  0.5483 -1.1734
  926MOL0     H24989  11.258   4.014   6.953  1.0267  0.8093  0.5253
  926MOL0     H24990  11.354   4.281   6.879 -1.9713  0.4959  0.4386
  926MOL0     H24991  11.410   4.114   6.826  0.7738  0.9943  0.0679
  926MOL0     H24992  10.461   3.898   7.055 -1.7507 -3.0607  0.1952
  926MOL0     H24993  10.223   3.876   7.003 -2.3388 -0.0837  0.8690
  926MOL0     H24994   9.879   3.975   6.929  1.4477 -0.8869  1.2026
  926MOL0     H24995   9.682   4.029   6.810  2.9672 -2.5648  0.4554
  926MOL0     H24996   9.079   4.563   7.808 -0.7997 -0.5336 -0.2828
  926MOL0     H24997   9.253   4.553   7.639 -3.2502 -1.5538 -4.4541
  926MOL0     H24998   9.544   4.573   7.310  1.4238  0.0763 -0.0787
  926MOL0     H24999   9.714   4.524   7.137 -2.0359  1.6548  1.6313
  926MOL0     H25000   9.798   4.370   6.927 -0.8551  3.0464  0.5504
  926MOL0     H25001   9.917   4.469   7.018 -1.7285 -0.1581 -0.0862
  926MOL0     H25002   9.978   4.201   6.900 -0.2608  0.2827  1.2224
  926MOL0     H25003  10.078   4.288   7.012  0.7569 -0.0514  0.1605
  926MOL0     H25004  10.125   4.294   6.741  0.9416 -0.3679  0.7199
  926MOL0     H25005  10.143   4.440   6.837 -0.9509  0.8231  1.5437
  926MOL0     H25006  10.033   4.495   6.624  0.2839 -1.5433 -1.0152
  926MOL0     H25007   9.919   4.509   6.748 -0.7039  0.8340 -1.8104
  926MOL0     H25008   9.801   4.172   6.495  2.0638 -1.2359  1.0812
  926MOL0     H25009   9.783   4.150   7.314  0.0944 -0.6011  0.9219
  926MOL0     H25010   9.595   4.187   7.469  0.7539 -1.9003 -1.8414
  927MOL0     O25011   6.185   9.019   9.800  0.3862  0.0321  0.0041
  927MOL0     C25012   6.280   8.970   9.865 -0.4347 -0.4433  0.2191
  927MOL0     O25013   6.380   9.054   9.902  0.1491 -0.0656 -0.7515
  927MOL0     C25014   6.385   9.180   9.866 -0.1243  0.5988  0.4492
  927MOL0     C25015   6.324   9.280   9.927  0.5985 -0.1026  0.9208
  927MOL0     C25016   6.337   9.413   9.886  0.3561 -0.3925  0.7533
  927MOL0     C25017   6.423   9.448   9.785 -0.1736  0.2213 -0.8467
  927MOL0     O25018   6.449   9.576   9.746 -0.4834  0.5911  0.8208
  927MOL0     C25019   6.576   9.647   9.777  1.0266 -1.1787  1.1869
  927MOL0     C25020   6.677   9.639   9.661 -0.0580 -0.8890 -0.3507
  927MOL0     C25021   6.617   9.706   9.542  0.4368 -0.8633  0.5231
  927MOL0     C25022   6.704   9.809   9.477  0.6112 -0.0391 -0.1803
  927MOL0     C25023   6.656   9.831   9.338  0.5536  0.5924  0.8900
  927MOL0     C25024   6.721   9.943   9.250  0.5306  0.9231  0.3382
  927MOL0     C25025   6.641   9.977   9.123  0.1572  0.0809  1.0815
  927MOL0     C25026   6.527  10.063   9.161 -0.0609 -0.4084 -0.7545
  927MOL0     N25027   6.460  10.131   9.052  0.2815  0.0655 -0.2771
  927MOL0     C25028   6.329  10.118   9.021 -1.1706 -0.0414 -0.0832
  927MOL0     C25029   6.306  10.220   8.930 -0.3226 -0.7593 -0.6665
  927MOL0     C25030   6.184  10.263   8.863 -0.1462 -0.5369 -0.7005
  927MOL0     C25031   6.185  10.410   8.818 -0.4165  0.2944 -0.1461
  927MOL0     C25032   6.271  10.438   8.692 -0.5199  0.6579  0.1137
  927MOL0     C25033   6.274  10.589   8.656  0.5221 -0.0977  0.8228
  927MOL0     O25034   6.155  10.614   8.572 -0.5075  0.3881 -0.3791
  927MOL0     C25035   6.126  10.743   8.549 -0.5501 -0.2324 -0.3369
  927MOL0     C25036   6.220  10.847   8.569  1.0177  0.0815 -0.5614
  927MOL0     C25037   6.199  10.980   8.552 -0.1595  0.0216  0.6198
  927MOL0     C25038   6.300  11.078   8.619  1.5004 -0.2940  0.2523
  927MOL0     C25039   6.074  11.022   8.491 -0.1330 -0.2977 -0.2613
  927MOL0     C25040   6.037  11.157   8.462  0.3833  0.0722  0.1914
  927MOL0     O25041   5.915  11.181   8.391 -0.1289  0.5127 -0.1458
  927MOL0     C25042   5.876  11.313   8.372  0.4814  0.8627 -0.6822
  927MOL0     C25043   5.841  11.354   8.238  0.1098 -1.3821  0.1350
  927MOL0     C25044   5.772  11.475   8.224 -0.4146 -0.3189  0.9087
  927MOL0     C25045   5.770  11.567   8.328  0.0348 -0.4201 -0.4537
  927MOL0     O25046   5.713  11.687   8.305 -0.8024 -0.4806  0.1695
  927MOL0     C25047   5.580  11.697   8.252  0.5905  0.1656 -0.2718
  927MOL0     C25048   5.550  11.835   8.200  0.1888 -0.2258 -0.0064
  927MOL0     C25049   5.653  11.877   8.094  0.5047 -0.2552  1.0930
  927MOL0     C25050   5.615  12.010   8.023  0.1756  0.7439  0.0849
  927MOL0     C25051   5.726  12.053   7.930  0.6370  0.1743  0.1220
  927MOL0     C25052   5.688  12.188   7.853 -0.2652  1.2009  0.3779
  927MOL0     C25053   5.817  12.232   7.789 -0.4538 -1.4078 -0.4214
  927MOL0     C25054   5.816  12.375   7.736  0.8958 -0.9937  0.2612
  927MOL0    Cl25055   5.669  12.412   7.635 -0.1768  0.3486 -0.4879
  927MOL0     C25056   5.806  11.529   8.454 -0.5122 -0.0301  0.0605
  927MOL0     C25057   5.852  11.397   8.477 -0.2171 -0.1096  0.9441
  927MOL0     O25058   6.124  11.241   8.474  0.1125 -0.1006 -0.0606
  927MOL0     C25059   5.978  10.917   8.467  1.0148 -0.8184 -0.1514
  927MOL0     C25060   6.004  10.781   8.503  0.8095  0.2454  0.7235
  927MOL0     N25061   6.429  10.288   8.911  0.4439 -0.7531 -0.5272
  927MOL0     N25062   6.511  10.238   8.985 -1.0216  0.1525 -1.0421
  927MOL0     C25063   6.495   9.338   9.727  0.3715  0.2058  0.3472
  927MOL0     C25064   6.476   9.204   9.765  0.1005 -0.8047  1.3320
  927MOL0     C25065   6.274   8.822   9.883 -0.0037  0.5284  0.7147
  927MOL0     C25066   6.388   8.740   9.893 -0.7744 -0.2658 -1.1785
  927MOL0     C25067   6.368   8.599   9.909 -0.2646 -0.2847  0.4914
  927MOL0     C25068   6.240   8.542   9.929  0.4495  0.1792  0.3965
  927MOL0     O25069   6.221   8.404   9.956  0.1839  0.0183  0.0365
  927MOL0     C25070   6.333   8.316   9.994 -0.5416 -0.2017 -0.3186
  927MOL0     C25071   6.398   8.250   9.876 -0.5730  0.1842 -0.0496
  927MOL0     C25072   6.542   8.206   9.922  0.2957 -0.1211  1.2605
  927MOL0     C25073   6.620   8.118   9.821  0.0095 -0.7922  1.4576
  927MOL0     C25074   6.637   8.200   9.697 -0.0742 -0.1458 -0.2730
  927MOL0     C25075   6.675   8.260   9.600 -0.0788  0.7710  0.8923
  927MOL0     C25076   6.128   8.627   9.915  0.2255 -0.2770  0.2291
  927MOL0     C25077   6.144   8.761   9.897 -0.3774  0.3627 -0.3076
  927MOL0     H25078   6.245   9.263  10.000  0.2524  5.1678  2.1972
  927MOL0     H25079   6.256   9.478   9.918 -1.8491 -2.6456  0.1059
  927MOL0     H25080   6.546   9.744   9.816  0.4290 -0.6785 -0.4178
  927MOL0     H25081   6.627   9.610   9.866 -0.3430 -2.2013  1.5984
  927MOL0     H25082   6.772   9.683   9.693 -1.1776  1.2424  0.2629
  927MOL0     H25083   6.694   9.533   9.641 -3.4345 -2.3808  3.3516
  927MOL0     H25084   6.598   9.642   9.455  0.0385  1.3162 -1.1218
  927MOL0     H25085   6.516   9.747   9.553  0.8564  1.5668 -2.9176
  927MOL0     H25086   6.701   9.901   9.536 -3.5547  1.0476 -1.6785
  927MOL0     H25087   6.808   9.779   9.482  0.7046  0.4893  2.6611
  927MOL0     H25088   6.643   9.744   9.273  0.2286 -1.5124  3.6059
  927MOL0     H25089   6.554   9.868   9.353 -0.3025 -1.2709  0.0115
  927MOL0     H25090   6.724  10.035   9.308 -2.4328  0.3187  1.6161
  927MOL0     H25091   6.822   9.913   9.221  0.4594 -1.1419  1.9477
  927MOL0     H25092   6.695  10.045   9.057 -0.9900  0.2518  0.2944
  927MOL0     H25093   6.609   9.892   9.064 -1.8289  1.0513  0.6888
  927MOL0     H25094   6.561  10.136   9.234  1.9225 -1.1709 -0.8459
  927MOL0     H25095   6.452   9.996   9.205  0.0645  0.2825  0.5473
  927MOL0     H25096   6.252  10.061   9.072 -1.6633  0.8273  0.1585
  927MOL0     H25097   6.170  10.209   8.769  0.6939 -0.5857 -0.8036
  927MOL0     H25098   6.098  10.234   8.923  0.2859  2.6418  1.7012
  927MOL0     H25099   6.225  10.474   8.897  0.5677  1.4950 -1.5638
  927MOL0     H25100   6.079  10.433   8.803 -1.5739 -5.1253 -2.5753
  927MOL0     H25101   6.230  10.383   8.607  0.2937 -2.7600  1.7740
  927MOL0     H25102   6.376  10.410   8.694 -0.5776 -0.0608 -2.7478
  927MOL0     H25103   6.363  10.620   8.601 -2.1236  4.8498 -1.3614
  927MOL0     H25104   6.268  10.648   8.748 -0.5950 -1.1333  1.4353
  927MOL0     H25105   6.320  10.828   8.606 -0.0673 -2.2101  1.4942
  927MOL0     H25106   6.381  11.019   8.663  1.4469  0.3641  1.2523
  927MOL0     H25107   6.347  11.139   8.540  2.1089 -1.8111 -0.6059
  927MOL0     H25108   6.240  11.135   8.690 -3.5316  1.4865 -4.6893
  927MOL0     H25109   5.869  11.294   8.152 -0.6937 -0.0188 -1.1367
  927MOL0     H25110   5.748  11.502   8.122 -1.1019 -0.8664  0.9159
  927MOL0     H25111   5.566  11.622   8.174  0.6375  1.0986 -1.1982
  927MOL0     H25112   5.508  11.678   8.332 -1.1522  2.2717 -1.2196
  927MOL0     H25113   5.455  11.844   8.146  1.5507  0.7604 -2.3522
  927MOL0     H25114   5.547  11.902   8.287 -1.4120  2.3026 -1.8668
  927MOL0     H25115   5.647  11.807   8.010  3.3993  0.4274  0.1737
  927MOL0     H25116   5.759  11.882   8.122  0.9575 -2.6450  0.0382
  927MOL0     H25117   5.527  12.001   7.959  1.9392 -2.6013 -2.2233
  927MOL0     H25118   5.602  12.089   8.098  0.5718  1.2894 -0.4053
  927MOL0     H25119   5.737  11.978   7.851 -4.0027  1.1120 -1.7582
  927MOL0     H25120   5.817  12.081   7.984 -0.1824  2.2551  0.5545
  927MOL0     H25121   5.597  12.174   7.794 -3.1643 -3.4470  5.0935
  927MOL0     H25122   5.646  12.265   7.918 -4.8714 -1.1450  0.5799
  927MOL0     H25123   5.836  12.165   7.704 -1.2925 -2.1872 -0.0149
  927MOL0     H25124   5.903  12.232   7.857 -1.7929  1.2790  1.4261
  927MOL0     H25125   5.912  12.381   7.685  0.6831 -0.3446 -0.0688
  927MOL0     H25126   5.805  12.442   7.823 -1.2444  2.4516 -2.3886
  927MOL0     H25127   5.790  11.598   8.536 -1.7156  0.4863 -0.5836
  927MOL0     H25128   5.868  11.359   8.577  0.5164  0.9573  1.2470
  927MOL0     H25129   5.881  10.947   8.428  0.4642  0.3817  2.0099
  927MOL0     H25130   5.925  10.706   8.495  1.9311 -0.8138 -5.2789
  927MOL0     H25131   6.558   9.366   9.643  0.7180 -0.3962  0.4023
  927MOL0     H25132   6.530   9.127   9.711  0.3051  0.9659 -1.1460
  927MOL0     H25133   6.488   8.781   9.882 -0.3648 -0.0339  2.1755
  927MOL0     H25134   6.455   8.535   9.898 -0.6196 -1.0042  1.6577
  927MOL0     H25135   6.410   8.373  10.048  1.2593 -1.7881 -1.0877
  927MOL0     H25136   6.287   8.236  10.053 -4.2723  0.1352 -2.4843
  927MOL0     H25137   6.397   8.318   9.791 -2.0639  0.2094 -0.0350
  927MOL0     H25138   6.343   8.160   9.846  1.4578 -1.1278 -0.0736
  927MOL0     H25139   6.527   8.151  10.015 -0.4975 -1.0152  0.6247
  927MOL0     H25140   6.598   8.298   9.942  0.9017 -0.3117  0.4806
  927MOL0     H25141   6.567   8.026   9.796  1.2097 -0.6243 -2.3926
  927MOL0     H25142   6.720   8.107   9.864  1.2405 -1.5720 -1.3923
  927MOL0     H25143   6.716   8.306   9.512 -1.0334 -1.8778 -1.0739
  927MOL0     H25144   6.028   8.585   9.924 -1.0417  1.6929 -2.9425
  927MOL0     H25145   6.057   8.825   9.885  1.2263  2.6471 -0.2937
  928MOL0     O25146   9.849   2.048   8.146  0.5127 -1.0214 -0.4721
  928MOL0     C25147   9.910   1.949   8.109 -0.7489 -0.2123  0.3731
  928MOL0     O25148   9.871   1.823   8.127  0.7751  0.4595  0.1354
  928MOL0     C25149   9.755   1.807   8.191  0.1510  0.0513 -0.1406
  928MOL0     C25150   9.751   1.823   8.323  0.2301  0.2554 -0.5651
  928MOL0     C25151   9.626   1.818   8.390 -0.2409  0.0637 -0.2190
  928MOL0     C25152   9.511   1.775   8.328 -1.2906 -0.1409 -0.0280
  928MOL0     O25153   9.404   1.771   8.408 -0.4486 -0.6742 -0.2333
  928MOL0     C25154   9.269   1.766   8.351  0.2256 -1.3323  0.0692
  928MOL0     C25155   9.160   1.834   8.439 -0.4761  0.8470  0.4896
  928MOL0     C25156   9.206   1.974   8.484 -0.5853 -0.0911  0.3669
  928MOL0     C25157   9.122   2.051   8.576  0.3645 -0.3764 -0.8867
  928MOL0     C25158   9.197   2.173   8.636  0.1862 -0.0624 -0.0998
  928MOL0     C25159   9.301   2.129   8.741 -0.1059  0.8309 -0.5410
  928MOL0     C25160   9.334   2.254   8.832 -0.9203  0.4757  0.4980
  928MOL0     C25161   9.417   2.359   8.759 -0.9815  0.2807  0.2171
  928MOL0     N25162   9.449   2.460   8.859 -0.6031 -0.2371 -0.5175
  928MOL0     C25163   9.369   2.556   8.906 -0.1810 -0.7642 -0.0350
  928MOL0     C25164   9.437   2.607   9.010 -1.4189 -0.1984  0.0600
  928MOL0     C25165   9.382   2.714   9.101  0.1305 -0.5831 -1.7169
  928MOL0     C25166   9.436   2.846   9.057 -0.0426 -1.1032  0.5705
  928MOL0     C25167   9.401   2.886   8.911  1.0654  0.2911 -0.3524
  928MOL0     C25168   9.464   3.015   8.882 -0.2850 -1.1909 -0.0074
  928MOL0     O25169   9.601   3.053   8.915 -0.0809 -0.0605 -0.6210
  928MOL0     C25170   9.710   2.985   8.871 -0.0164  0.1044 -0.1132
  928MOL0     C25171   9.720   2.851   8.849  0.2225 -1.4077  0.0988
  928MOL0     C25172   9.832   2.783   8.804 -0.4941  0.2411 -0.8653
  928MOL0     C25173   9.828   2.629   8.815 -0.2547  0.6031 -0.2031
  928MOL0     C25174   9.949   2.863   8.789  0.5957  0.0634 -0.8956
  928MOL0     C25175  10.092   2.811   8.792  1.5899  0.6770 -0.0624
  928MOL0     O25176  10.167   2.829   8.906  0.3432 -0.4170 -0.3272
  928MOL0     C25177  10.293   2.777   8.920  0.2541  0.1921 -0.8146
  928MOL0     C25178  10.356   2.800   9.041 -0.1730  0.6446 -0.6819
  928MOL0     C25179  10.481   2.762   9.059 -0.2544  0.3318 -0.7343
  928MOL0     C25180  10.558   2.701   8.969 -0.8572  0.2313 -0.1204
  928MOL0     O25181  10.695   2.683   8.967  0.3761 -0.0433  0.1707
  928MOL0     C25182  10.735   2.634   9.095 -0.2897 -0.9673 -0.2411
  928MOL0     C25183  10.886   2.646   9.096  0.3463  0.2133 -0.4781
  928MOL0     C25184  10.958   2.510   9.083  0.2639  0.3691 -0.2241
  928MOL0     C25185  11.109   2.518   9.111  0.5455  0.0266  0.1051
  928MOL0     C25186  11.173   2.380   9.098 -1.0242 -0.1774 -0.0557
  928MOL0     C25187  11.315   2.384   9.142  0.1787  0.0728 -0.6306
  928MOL0     C25188  11.363   2.246   9.157 -0.3889 -0.3192  0.7932
  928MOL0     C25189  11.513   2.233   9.144  0.9181 -0.1040 -0.1059
  928MOL0    Cl25190  11.604   2.335   9.256  0.1204  0.1076  0.0298
  928MOL0     C25191  10.502   2.671   8.851 -0.3513 -0.9304  1.0234
  928MOL0     C25192  10.369   2.715   8.816  0.8644 -0.3741 -0.1925
  928MOL0     O25193  10.116   2.744   8.687  0.2638  0.2319  0.1060
  928MOL0     C25194   9.942   3.003   8.799 -0.2593  1.7290  0.9753
  928MOL0     C25195   9.822   3.062   8.849  0.0066  0.1212 -0.6161
  928MOL0     N25196   9.559   2.539   9.028 -0.0136 -0.8116 -0.4622
  928MOL0     N25197   9.568   2.460   8.932 -1.1084  0.2959 -0.0491
  928MOL0     C25198   9.524   1.745   8.195 -0.4873  0.1236  0.1591
  928MOL0     C25199   9.637   1.784   8.120 -0.1111  1.0256 -0.3772
  928MOL0     C25200  10.046   1.968   8.051  0.2322  1.1438  0.5316
  928MOL0     C25201  10.131   1.859   8.008  0.0153 -0.5723  0.4689
  928MOL0     C25202  10.258   1.882   7.957  0.1669  0.0498  0.5206
  928MOL0     C25203  10.299   2.008   7.936  0.4551 -0.3062 -0.0940
  928MOL0     O25204  10.428   2.048   7.890  0.9039  0.5831  0.4280
  928MOL0     C25205  10.494   1.961   7.800 -0.8663 -0.0745  0.3821
  928MOL0     C25206  10.588   2.039   7.707  0.2377  0.8090 -0.5342
  928MOL0     C25207  10.713   2.094   7.785  0.4173  0.8999  0.2382
  928MOL0     C25208  10.788   2.198   7.696  0.2847  0.2212 -0.7303
  928MOL0     C25209  10.924   2.150   7.681  0.4523  0.2040 -0.3458
  928MOL0     C25210  11.038   2.104   7.671 -0.6268 -0.2049 -0.1908
  928MOL0     C25211  10.232   2.110   7.993  0.2500 -0.3933  0.6438
  928MOL0     C25212  10.103   2.097   8.042 -0.6289 -0.3125 -0.4663
  928MOL0     H25213   9.839   1.851   8.380  0.4079 -0.7478 -0.3389
  928MOL0     H25214   9.620   1.824   8.498  1.0000 -1.6758  0.0004
  928MOL0     H25215   9.275   1.815   8.253  0.3300  0.0898  0.7535
  928MOL0     H25216   9.260   1.658   8.337 -1.5884 -0.8438 -3.4156
  928MOL0     H25217   9.066   1.834   8.383 -0.8387 -2.7930  0.8617
  928MOL0     H25218   9.128   1.774   8.525 -2.0624  1.6369  0.4843
  928MOL0     H25219   9.309   1.975   8.521 -0.8958 -1.0349  1.3208
  928MOL0     H25220   9.213   2.031   8.391  0.0555  0.8822  0.9902
  928MOL0     H25221   9.036   2.084   8.518  0.4299 -0.1609 -0.8630
  928MOL0     H25222   9.088   1.985   8.656 -2.8960  2.3868  0.3099
  928MOL0     H25223   9.242   2.220   8.548  0.6793  2.9859  1.6621
  928MOL0     H25224   9.127   2.248   8.674  0.8791  0.5693 -0.0449
  928MOL0     H25225   9.257   2.051   8.804 -1.8108  3.0374  1.1592
  928MOL0     H25226   9.385   2.092   8.681  0.1021  0.6765 -0.1593
  928MOL0     H25227   9.237   2.292   8.866 -1.3262 -0.5126  0.4914
  928MOL0     H25228   9.393   2.219   8.917  1.0282  1.2796 -0.4802
  928MOL0     H25229   9.359   2.405   8.679  1.1370 -0.0690 -1.6082
  928MOL0     H25230   9.504   2.323   8.704 -0.1984 -0.4343  1.8542
  928MOL0     H25231   9.276   2.599   8.869 -1.4475 -1.7015  1.9380
  928MOL0     H25232   9.272   2.717   9.107  0.0178 -0.0608 -3.4340
  928MOL0     H25233   9.422   2.691   9.200  0.4967 -0.5633 -1.8594
  928MOL0     H25234   9.544   2.846   9.074 -0.2839 -0.9486  2.2445
  928MOL0     H25235   9.414   2.928   9.126  1.5676 -0.8553  0.8362
  928MOL0     H25236   9.295   2.899   8.891  0.5419 -1.5648  0.9706
  928MOL0     H25237   9.439   2.813   8.838  2.1824  1.5546 -1.0950
  928MOL0     H25238   9.414   3.098   8.934  1.9564 -0.1423  0.5802
  928MOL0     H25239   9.454   3.033   8.774 -2.3653  0.8255  0.4246
  928MOL0     H25240   9.640   2.785   8.880 -0.3855 -0.5485  0.3909
  928MOL0     H25241   9.926   2.583   8.801 -0.4812  0.5229 -1.7664
  928MOL0     H25242   9.784   2.593   8.908 -3.6912 -0.0266 -1.8999
  928MOL0     H25243   9.776   2.592   8.727  1.3217 -3.0717  0.2489
  928MOL0     H25244  10.296   2.830   9.127 -2.0683  0.3658 -1.8564
  928MOL0     H25245  10.523   2.788   9.156 -0.9955 -0.2418 -0.2404
  928MOL0     H25246  10.698   2.704   9.171  3.2907 -0.2970  1.1134
  928MOL0     H25247  10.699   2.534   9.122 -4.4344  0.0300 -1.3395
  928MOL0     H25248  10.922   2.723   9.028  3.8311 -1.3549 -0.6141
  928MOL0     H25249  10.904   2.693   9.193 -2.2861  4.1650 -1.6350
  928MOL0     H25250  10.933   2.461   8.989  1.5574  0.3254 -0.5591
  928MOL0     H25251  10.916   2.443   9.158 -0.8088  0.6920 -0.5141
  928MOL0     H25252  11.154   2.592   9.044  0.9405 -0.7059 -0.4439
  928MOL0     H25253  11.114   2.565   9.210 -1.7475  2.5796 -0.8677
  928MOL0     H25254  11.176   2.362   8.990  2.2157  1.8208 -0.4412
  928MOL0     H25255  11.113   2.305   9.149 -1.1484  1.6499  2.6936
  928MOL0     H25256  11.376   2.438   9.070 -0.0157  1.9220  0.5253
  928MOL0     H25257  11.319   2.427   9.243 -0.4505 -4.3047  1.5239
  928MOL0     H25258  11.296   2.188   9.094 -2.2629 -0.3205  2.6572
  928MOL0     H25259  11.336   2.207   9.256 -0.4837 -0.7717  0.5888
  928MOL0     H25260  11.529   2.268   9.041 -2.3120 -0.5694 -0.9075
  928MOL0     H25261  11.546   2.130   9.135  3.8132  0.8808 -2.4249
  928MOL0     H25262  10.568   2.624   8.778 -0.7465 -2.8680  1.8516
  928MOL0     H25263  10.343   2.707   8.711 -0.3571  4.3691 -0.4962
  928MOL0     H25264  10.021   3.068   8.764  1.2576 -0.1389  0.7443
  928MOL0     H25265   9.823   3.163   8.888  2.4869  0.3746 -1.1777
  928MOL0     H25266   9.433   1.709   8.150  0.3628 -0.0035 -1.5192
  928MOL0     H25267   9.641   1.765   8.013  5.5331 -0.4322 -0.2276
  928MOL0     H25268  10.085   1.761   8.006 -3.7802  0.9847 -3.3639
  928MOL0     H25269  10.326   1.802   7.926 -1.2497 -1.1958  0.5424
  928MOL0     H25270  10.548   1.887   7.859  2.3929  0.4399 -1.6921
  928MOL0     H25271  10.422   1.910   7.736  2.2090 -1.8048 -2.0076
  928MOL0     H25272  10.528   2.127   7.680  0.6941  3.2835  5.2235
  928MOL0     H25273  10.611   1.978   7.619 -4.8141 -2.8529  0.2647
  928MOL0     H25274  10.776   2.011   7.817 -0.0155  1.3771  2.5781
  928MOL0     H25275  10.676   2.134   7.880 -1.4329 -1.4115  0.5933
  928MOL0     H25276  10.784   2.302   7.728  3.7865  0.0623  0.6588
  928MOL0     H25277  10.755   2.193   7.592  1.8345  1.6875 -1.3283
  928MOL0     H25278  11.137   2.068   7.657 -0.0183  1.1341  0.4889
  928MOL0     H25279  10.273   2.211   7.997 -2.5294  0.8457  0.1933
  928MOL0     H25280  10.061   2.192   8.072  0.7827  0.7117 -1.6075
  929MOL0     O25281  11.366  10.471   6.457 -0.1015 -0.2964  0.0903
  929MOL0     C25282  11.408  10.540   6.547  0.1363  0.1853 -0.9094
  929MOL0     O25283  11.382  10.514   6.687 -0.1090  0.7086 -0.1730
  929MOL0     C25284  11.288  10.427   6.722  0.3615 -0.4083  0.1346
  929MOL0     C25285  11.162  10.445   6.661 -0.4726  0.0716  0.8514
  929MOL0     C25286  11.050  10.363   6.711 -0.0939 -0.3052  0.3103
  929MOL0     C25287  11.067  10.287   6.834  0.0875  0.0224 -0.1430
  929MOL0     O25288  10.970  10.222   6.905  0.1276  0.2242 -0.0486
  929MOL0     C25289  10.889  10.128   6.838  0.0741  0.4792  0.7931
  929MOL0     C25290  10.769  10.209   6.810 -1.0451  0.5302  0.6899
  929MOL0     C25291  10.663  10.125   6.738 -0.4405  0.1981 -0.0512
  929MOL0     C25292  10.541  10.203   6.712  0.0907 -0.0932  0.7753
  929MOL0     C25293  10.441  10.132   6.608 -0.1498 -0.0152 -0.1918
  929MOL0     C25294  10.299  10.198   6.598  1.0679  0.0776  0.5383
  929MOL0     C25295  10.225  10.144   6.479 -0.5585 -0.3431 -0.5302
  929MOL0     C25296  10.084  10.219   6.456 -0.1778 -0.0624 -0.1107
  929MOL0     N25297  10.024  10.208   6.318  0.0289  0.1014  0.4333
  929MOL0     C25298  10.088  10.200   6.199 -0.3029 -0.7921  0.2053
  929MOL0     C25299   9.994  10.203   6.097  0.2431  0.0819 -0.7561
  929MOL0     C25300  10.031  10.196   5.952 -0.1450  0.0919 -0.5441
  929MOL0     C25301  10.129  10.097   5.914  0.8641 -0.4674 -0.9537
  929MOL0     C25302  10.184  10.140   5.776 -1.0290  0.4868  0.2791
  929MOL0     C25303  10.287  10.038   5.726  0.4676  0.0273 -0.0705
  929MOL0     O25304  10.394  10.094   5.649 -0.3797 -1.2262  0.2503
  929MOL0     C25305  10.363  10.119   5.516  0.1738  0.9030  0.1219
  929MOL0     C25306  10.444  10.219   5.454  0.2640 -0.5742  0.5338
  929MOL0     C25307  10.434  10.259   5.314  0.8380 -0.3831 -0.6237
  929MOL0     C25308  10.509  10.382   5.274  0.2042 -0.7897  1.1293
  929MOL0     C25309  10.346  10.181   5.231 -0.0799  0.0029 -0.8745
  929MOL0     C25310  10.336  10.183   5.081 -0.3382 -0.8309  0.0163
  929MOL0     O25311  10.388  10.067   5.036 -0.3042  0.3023 -0.2210
  929MOL0     C25312  10.364  10.034   4.900  0.4018  0.6820  0.6218
  929MOL0     C25313  10.469  10.070   4.812  1.4313  0.3815 -0.2161
  929MOL0     C25314  10.467  10.030   4.681  0.5984  0.5102  0.4395
  929MOL0     C25315  10.364   9.944   4.639  0.3945  0.2737 -0.0350
  929MOL0     O25316  10.363   9.908   4.506 -0.4339  0.6209 -0.5230
  929MOL0     C25317  10.393   9.768   4.487 -0.6462 -0.8857  0.2598
  929MOL0     C25318  10.430   9.733   4.339  0.8155  0.4281 -1.1825
  929MOL0     C25319  10.308   9.769   4.248  0.0804  0.5262 -0.4208
  929MOL0     C25320  10.347   9.726   4.101 -0.8440  0.5368 -0.5823
  929MOL0     C25321  10.242   9.626   4.051 -0.2978  0.5113  0.7055
  929MOL0     C25322  10.290   9.569   3.911  0.5009 -1.0347 -0.0167
  929MOL0     C25323  10.196   9.463   3.874 -0.2251 -0.3000  1.5193
  929MOL0     C25324  10.265   9.335   3.913 -0.7641 -0.4519 -0.4292
  929MOL0    Cl25325  10.193   9.187   3.839 -0.1701 -0.0090  0.3106
  929MOL0     C25326  10.264   9.902   4.726  0.4768 -0.1399  0.1889
  929MOL0     C25327  10.261   9.946   4.859  0.6773  0.5783 -0.0761
  929MOL0     O25328  10.281  10.267   5.012  0.1012 -0.2951  0.6959
  929MOL0     C25329  10.267  10.079   5.292 -0.0202  0.5254  0.2762
  929MOL0     C25330  10.271  10.047   5.430 -0.4381  0.7695 -0.5591
  929MOL0     N25331   9.874  10.207   6.165  0.7375  0.0691 -0.2335
  929MOL0     N25332   9.889  10.205   6.298 -0.5304  0.0113  0.0760
  929MOL0     C25333  11.195  10.292   6.904  0.4277 -0.2807 -0.2043
  929MOL0     C25334  11.304  10.352   6.837  0.0255 -0.5177  0.2300
  929MOL0     C25335  11.485  10.662   6.519  0.3735  0.0528 -0.7074
  929MOL0     C25336  11.569  10.712   6.615  0.8815  0.0744 -0.0285
  929MOL0     C25337  11.635  10.833   6.591 -0.9286  0.0473  1.1584
  929MOL0     C25338  11.640  10.886   6.461  1.2868  0.1502 -0.0147
  929MOL0     O25339  11.694  11.002   6.414  0.6576  0.2615 -0.7909
  929MOL0     C25340  11.760  11.085   6.508 -0.2484 -0.4956 -0.0791
  929MOL0     C25341  11.893  11.022   6.538  0.4809 -0.6660 -0.7615
  929MOL0     C25342  11.991  11.033   6.421  0.2507 -0.5971  0.1522
  929MOL0     C25343  12.065  11.173   6.431  0.3178 -0.3086  1.3057
  929MOL0     C25344  12.165  11.180   6.328 -0.8445 -0.2686 -0.6608
  929MOL0     C25345  12.251  11.201   6.239  1.3624  0.7968  1.1085
  929MOL0     C25346  11.561  10.819   6.359 -0.1920 -1.2735 -0.8984
  929MOL0     C25347  11.476  10.711   6.385 -0.1110  0.7965  0.2284
  929MOL0     H25348  11.152  10.490   6.563  1.1019 -0.0081  0.6274
  929MOL0     H25349  10.956  10.371   6.657  0.2262  2.3889  0.0408
  929MOL0     H25350  10.928  10.092   6.743 -4.5813  2.4740 -2.2841
  929MOL0     H25351  10.862  10.040   6.896 -0.1819 -1.4443 -2.0472
  929MOL0     H25352  10.715  10.247   6.897 -2.4331  3.4051 -1.2810
  929MOL0     H25353  10.803  10.303   6.766  1.0248  0.5621  2.1969
  929MOL0     H25354  10.700  10.097   6.638 -1.2380  1.7849 -0.8255
  929MOL0     H25355  10.636  10.038   6.799  3.9394  0.6589  3.0233
  929MOL0     H25356  10.488  10.205   6.807  0.6658 -1.2483  1.1352
  929MOL0     H25357  10.563  10.302   6.672 -0.8910  0.8099  2.3501
  929MOL0     H25358  10.480  10.127   6.506 -0.7133 -2.7108 -0.3457
  929MOL0     H25359  10.427  10.036   6.659  2.7716  1.2106  3.3768
  929MOL0     H25360  10.250  10.165   6.690  1.3336 -2.5333 -0.1793
  929MOL0     H25361  10.298  10.308   6.597  3.2142  0.1539  1.5905
  929MOL0     H25362  10.290  10.165   6.394  0.7826  1.3353  0.8272
  929MOL0     H25363  10.209  10.036   6.487 -0.0041 -0.3577  0.6172
  929MOL0     H25364  10.092  10.327   6.472  2.2796 -0.0748 -0.7885
  929MOL0     H25365  10.016  10.167   6.524  1.6201 -1.3744  0.7673
  929MOL0     H25366  10.194  10.201   6.176  0.6471 -2.8815  3.7064
  929MOL0     H25367   9.942  10.169   5.894 -0.7178  1.9116 -0.5984
  929MOL0     H25368  10.063  10.296   5.921 -2.8979  1.6505  1.1899
  929MOL0     H25369  10.085   9.998   5.929 -0.4352  0.3278  0.7871
  929MOL0     H25370  10.206  10.105   5.991 -1.2030  2.7109  0.9982
  929MOL0     H25371  10.228  10.239   5.767 -1.0322  0.7157  2.2396
  929MOL0     H25372  10.103  10.121   5.706 -0.5459 -3.6910  0.5876
  929MOL0     H25373  10.231   9.956   5.679 -2.1071  1.0589  1.0011
  929MOL0     H25374  10.333  10.005   5.819  0.1076 -2.1401 -0.5891
  929MOL0     H25375  10.509  10.287   5.509  0.3266 -0.6401  0.5412
  929MOL0     H25376  10.525  10.454   5.355 -0.8871 -0.2966  0.9167
  929MOL0     H25377  10.606  10.343   5.240 -0.8188 -0.0275 -3.1803
  929MOL0     H25378  10.465  10.442   5.195  2.8987  0.5808  0.5558
  929MOL0     H25379  10.554  10.119   4.859  1.6078 -1.4705  1.5292
  929MOL0     H25380  10.550  10.034   4.610  0.0118 -1.4037 -0.4263
  929MOL0     H25381  10.477   9.747   4.554 -0.9321 -0.9499  0.6041
  929MOL0     H25382  10.307   9.707   4.515 -0.9822 -1.5017 -1.9327
  929MOL0     H25383  10.518   9.792   4.315 -0.5891  3.0942 -0.2151
  929MOL0     H25384  10.463   9.630   4.322  1.7706  1.1651 -4.5871
  929MOL0     H25385  10.279   9.874   4.249  0.2998  0.5853 -0.2203
  929MOL0     H25386  10.218   9.716   4.279 -0.4981  1.7160 -0.0206
  929MOL0     H25387  10.341   9.810   4.032  5.3287  1.0060 -1.1257
  929MOL0     H25388  10.448   9.683   4.095 -1.6215 -1.4339 -0.4288
  929MOL0     H25389  10.147   9.677   4.035  0.7318  1.4980 -3.0699
  929MOL0     H25390  10.238   9.543   4.123  2.5697  2.4958  3.4239
  929MOL0     H25391  10.279   9.652   3.840  1.2538  0.9363  2.0384
  929MOL0     H25392  10.395   9.537   3.911  1.9891  3.0866 -1.9190
  929MOL0     H25393  10.184   9.477   3.766  1.1103  1.0835  1.5059
  929MOL0     H25394  10.098   9.484   3.918 -0.6716 -0.4922  0.6376
  929MOL0     H25395  10.270   9.334   4.022 -2.7518  1.3508 -0.2485
  929MOL0     H25396  10.367   9.339   3.875 -0.4483  4.1708  0.3340
  929MOL0     H25397  10.186   9.836   4.688 -0.7039 -1.0073  3.7571
  929MOL0     H25398  10.188   9.910   4.931 -0.0161  1.5305 -0.2839
  929MOL0     H25399  10.197  10.024   5.230 -1.2884  3.0914 -0.7091
  929MOL0     H25400  10.215   9.962   5.469  0.6984  0.1468 -0.2468
  929MOL0     H25401  11.208  10.238   6.998 -2.0012  0.2578  0.5137
  929MOL0     H25402  11.407  10.356   6.873  0.7508  0.9826 -1.8039
  929MOL0     H25403  11.579  10.674   6.716  2.9355  1.2221  0.2618
  929MOL0     H25404  11.683  10.886   6.673  0.7247 -2.3838  1.8639
  929MOL0     H25405  11.762  11.186   6.467  1.4825 -1.6005 -3.0661
  929MOL0     H25406  11.705  11.090   6.603 -1.2972  0.8321 -0.7359
  929MOL0     H25407  11.878  10.916   6.562  0.7842 -0.6042 -0.2845
  929MOL0     H25408  11.925  11.066   6.633 -0.5563 -0.3419 -0.5505
  929MOL0     H25409  11.947  11.035   6.321  0.5941  0.6528  0.0020
  929MOL0     H25410  12.067  10.955   6.436  0.0634 -0.6490  0.8584
  929MOL0     H25411  12.110  11.183   6.530  0.0011 -1.5809  1.5915
  929MOL0     H25412  11.996  11.258   6.430 -0.8377 -1.1869 -1.0233
  929MOL0     H25413  12.332  11.213   6.170  1.1439  2.0976  1.0405
  929MOL0     H25414  11.557  10.863   6.259  0.0699 -0.7204 -0.6691
  929MOL0     H25415  11.419  10.664   6.304  0.6242  0.5202 -0.1393
  930MOL0     O25416   9.948   7.916   7.936 -0.6587 -0.3222 -0.6556
  930MOL0     C25417   9.878   7.944   8.033 -0.7016 -0.3281 -0.2219
  930MOL0     O25418   9.755   7.892   8.045  0.0073  0.4572  0.2974
  930MOL0     C25419   9.716   7.797   7.958  0.4722  1.0315 -0.6017
  930MOL0     C25420   9.773   7.666   7.955  0.4579  0.5621 -0.0174
  930MOL0     C25421   9.728   7.573   7.856 -0.6455  0.3182 -0.5790
  930MOL0     C25422   9.634   7.614   7.758 -0.2057  0.2388 -0.9944
  930MOL0     O25423   9.573   7.530   7.670  0.5599 -0.4756  0.3046
  930MOL0     C25424   9.651   7.449   7.588  0.0565  0.6781 -0.2492
  930MOL0     C25425   9.583   7.307   7.579 -0.1277 -0.1230 -0.0294
  930MOL0     C25426   9.600   7.239   7.719 -0.7939 -0.6134 -0.2826
  930MOL0     C25427   9.552   7.100   7.700 -0.3838 -0.2824 -0.4003
  930MOL0     C25428   9.532   7.030   7.841  0.4694 -0.1729 -0.1044
  930MOL0     C25429   9.656   6.984   7.908 -0.5539  0.2879 -0.2810
  930MOL0     C25430   9.700   7.109   7.999  0.7648 -0.2047  0.0747
  930MOL0     C25431   9.832   7.085   8.079  0.7963  0.1044  0.1563
  930MOL0     N25432   9.888   7.214   8.125  0.4798  0.2148 -0.3258
  930MOL0     C25433   9.968   7.297   8.049  0.0481  1.7463  0.5601
  930MOL0     C25434   9.988   7.407   8.117  0.5610 -0.1499 -0.9020
  930MOL0     C25435  10.068   7.534   8.097  0.3241  0.0324 -0.6454
  930MOL0     C25436  10.222   7.494   8.104 -0.6348  0.3996  0.3424
  930MOL0     C25437  10.294   7.623   8.116  0.4300 -0.4230  0.4894
  930MOL0     C25438  10.448   7.590   8.110 -0.0125 -0.1626  0.0227
  930MOL0     O25439  10.480   7.531   8.235 -0.3552 -0.1410  0.0304
  930MOL0     C25440  10.607   7.543   8.296  0.3822 -0.5538  0.3712
  930MOL0     C25441  10.605   7.510   8.432  1.4974  0.2021  0.7931
  930MOL0     C25442  10.723   7.531   8.496  0.4517  0.5043 -0.2296
  930MOL0     C25443  10.724   7.472   8.636  1.0077 -0.0596  0.5919
  930MOL0     C25444  10.842   7.588   8.442  0.2349  0.2099  0.5503
  930MOL0     C25445  10.964   7.625   8.525  0.3767  0.7121 -0.1373
  930MOL0     O25446  10.948   7.659   8.657 -0.5049  0.2176  0.1158
  930MOL0     C25447  11.054   7.667   8.739  0.3921  0.1682 -0.0381
  930MOL0     C25448  11.078   7.575   8.850  0.2996 -0.4935 -0.8378
  930MOL0     C25449  11.195   7.577   8.926  0.2235  0.8810 -0.2253
  930MOL0     C25450  11.274   7.695   8.903 -0.0817  0.0625  0.1261
  930MOL0     O25451  11.394   7.715   8.963 -0.3857 -0.3101  0.4116
  930MOL0     C25452  11.439   7.654   9.079 -0.1203  0.4775  0.3595
  930MOL0     C25453  11.589   7.629   9.081  0.8322  0.2582 -0.0577
  930MOL0     C25454  11.628   7.528   8.974 -0.2940 -0.1907 -0.0356
  930MOL0     C25455  11.596   7.382   9.005  0.1376 -0.9488 -0.3402
  930MOL0     C25456  11.642   7.285   8.892 -0.2768  0.4667 -0.1125
  930MOL0     C25457  11.557   7.151   8.884 -0.0555 -0.5131  0.5296
  930MOL0     C25458  11.543   7.084   9.014  0.3577  0.5617  0.0196
  930MOL0     C25459  11.675   7.048   9.068  0.5674 -0.2294  0.6952
  930MOL0    Cl25460  11.659   6.945   9.222  0.4206 -0.2865  0.3243
  930MOL0     C25461  11.251   7.788   8.806  0.1574  0.2982  0.4470
  930MOL0     C25462  11.138   7.776   8.728  0.3650 -0.0836 -0.4483
  930MOL0     O25463  11.068   7.623   8.460 -0.8828 -0.1101  0.1675
  930MOL0     C25464  10.833   7.621   8.303  0.0557  1.0249 -0.0130
  930MOL0     C25465  10.716   7.596   8.221  0.6314 -0.4085 -1.3450
  930MOL0     N25466   9.916   7.401   8.238 -1.2058 -0.2537 -0.2985
  930MOL0     N25467   9.858   7.290   8.233 -0.5964 -0.3874 -1.0006
  930MOL0     C25468   9.584   7.745   7.758  0.4064 -0.3075 -0.3098
  930MOL0     C25469   9.620   7.835   7.862  0.3277  0.1685 -0.2843
  930MOL0     C25470   9.928   8.037   8.133 -0.7545  0.6615  0.8709
  930MOL0     C25471   9.838   8.110   8.210  0.6914  0.1894 -0.4305
  930MOL0     C25472   9.882   8.219   8.292  1.1553  0.1023  0.4305
  930MOL0     C25473  10.014   8.238   8.321 -0.3418 -0.7640 -0.0294
  930MOL0     O25474  10.059   8.333   8.411 -0.4828  0.4553 -0.1043
  930MOL0     C25475   9.981   8.456   8.422  0.4752 -0.1315  1.4799
  930MOL0     C25476  10.068   8.571   8.457  0.3384  0.2756  0.1594
  930MOL0     C25477  10.104   8.580   8.610  0.6006 -0.5832  1.1004
  930MOL0     C25478  10.217   8.485   8.649 -0.3772 -0.0499 -0.2132
  930MOL0     C25479  10.248   8.514   8.788  0.3240 -2.1200 -0.4007
  930MOL0     C25480  10.262   8.515   8.910 -0.0391  0.9983  0.4075
  930MOL0     C25481  10.106   8.164   8.248 -0.5481  0.4454  0.7924
  930MOL0     C25482  10.065   8.066   8.156  0.1244  0.1226  0.6507
  930MOL0     H25483   9.845   7.632   8.030  2.0042 -2.2311 -2.5461
  930MOL0     H25484   9.760   7.470   7.870  0.6571  0.8292  0.2881
  930MOL0     H25485   9.661   7.493   7.489  5.2034 -0.9027 -0.7186
  930MOL0     H25486   9.749   7.427   7.631 -0.6361 -3.2771 -0.3742
  930MOL0     H25487   9.475   7.309   7.564 -0.4897  0.0598  2.2600
  930MOL0     H25488   9.631   7.243   7.505 -3.6089 -3.1732  0.0658
  930MOL0     H25489   9.707   7.220   7.735 -1.1468 -2.9045 -0.3141
  930MOL0     H25490   9.555   7.304   7.794  0.9483 -0.1421  0.4096
  930MOL0     H25491   9.450   7.094   7.660  0.1518  2.7573 -2.5171
  930MOL0     H25492   9.626   7.050   7.636  1.9710  0.6863  1.3917
  930MOL0     H25493   9.461   7.092   7.896  1.3436  1.7585 -1.0730
  930MOL0     H25494   9.464   6.946   7.829  0.8036 -0.6955  1.3921
  930MOL0     H25495   9.646   6.893   7.968  1.2355  1.2964  1.6841
  930MOL0     H25496   9.745   6.959   7.849  0.0845  1.3716  0.1809
  930MOL0     H25497   9.707   7.206   7.949  0.5674  0.2717  0.9457
  930MOL0     H25498   9.623   7.130   8.074  0.7160  1.4192 -0.3815
  930MOL0     H25499   9.894   7.031   8.006  1.8342 -0.0047  1.0937
  930MOL0     H25500   9.827   7.019   8.166  0.9248 -0.7655 -0.4792
  930MOL0     H25501  10.018   7.276   7.955  0.3795  1.3713  0.8181
  930MOL0     H25502  10.052   7.578   7.998 -2.5871  0.4692 -0.0853
  930MOL0     H25503  10.046   7.615   8.166 -0.4678 -0.4146 -0.3631
  930MOL0     H25504  10.250   7.439   8.014 -1.8076 -2.0250  1.3795
  930MOL0     H25505  10.241   7.432   8.192 -0.7107 -2.1602 -1.3561
  930MOL0     H25506  10.270   7.679   8.206 -0.4729  1.2638 -0.7441
  930MOL0     H25507  10.281   7.686   8.027  1.2972  2.8751  2.5401
  930MOL0     H25508  10.508   7.681   8.098  2.8367 -0.8542  5.5448
  930MOL0     H25509  10.458   7.530   8.019  2.9519  1.2604 -0.7152
  930MOL0     H25510  10.518   7.454   8.463 -1.0354  1.8184 -2.7372
  930MOL0     H25511  10.666   7.379   8.631  0.6831  0.2198 -2.0413
  930MOL0     H25512  10.825   7.441   8.666  0.2410 -0.0499  3.4859
  930MOL0     H25513  10.678   7.540   8.709 -0.5669 -0.9257  0.4512
  930MOL0     H25514  11.005   7.495   8.861 -0.6908  0.3297 -1.2698
  930MOL0     H25515  11.222   7.494   8.991 -0.2057  0.3034 -0.7727
  930MOL0     H25516  11.431   7.719   9.166  3.6020  0.9735  0.5079
  930MOL0     H25517  11.382   7.566   9.107  1.8787 -0.4896  1.5791
  930MOL0     H25518  11.644   7.721   9.060 -1.4713  1.4212 -1.3830
  930MOL0     H25519  11.617   7.594   9.181  0.3400 -1.9193 -0.6275
  930MOL0     H25520  11.737   7.522   8.963 -0.1987  2.6133 -1.5568
  930MOL0     H25521  11.582   7.562   8.881 -3.1477 -1.3334  0.8599
  930MOL0     H25522  11.638   7.352   9.102 -0.6401 -0.8348  0.0430
  930MOL0     H25523  11.489   7.380   9.026  0.2385 -1.1886  0.1751
  930MOL0     H25524  11.749   7.265   8.901 -0.4871  0.4499  4.3445
  930MOL0     H25525  11.640   7.344   8.799  2.8902  1.2618  0.2222
  930MOL0     H25526  11.456   7.185   8.862 -0.9933 -1.6726  2.7040
  930MOL0     H25527  11.596   7.075   8.816  1.0343  0.7698 -0.3516
  930MOL0     H25528  11.474   7.000   9.025 -2.3193  2.6187  0.1250
  930MOL0     H25529  11.508   7.164   9.080  3.9590  1.5006  1.0267
  930MOL0     H25530  11.736   7.133   9.099 -1.7402  1.7466  0.2214
  930MOL0     H25531  11.715   7.003   8.977 -3.6217 -0.7786 -1.1489
  930MOL0     H25532  11.311   7.875   8.782 -1.3832  1.0183 -1.0675
  930MOL0     H25533  11.108   7.848   8.653  2.1121  1.1591 -0.0297
  930MOL0     H25534  10.924   7.660   8.258  1.4967 -1.6052  0.4204
  930MOL0     H25535  10.707   7.612   8.114 -1.3333  1.2085 -0.9876
  930MOL0     H25536   9.514   7.776   7.682 -0.4467 -0.9452  0.2095
  930MOL0     H25537   9.587   7.939   7.857 -2.7025 -0.4505  2.9384
  930MOL0     H25538   9.731   8.091   8.217  1.1296 -2.0391  3.6559
  930MOL0     H25539   9.810   8.279   8.345 -0.2352  1.6199 -2.9055
  930MOL0     H25540   9.939   8.479   8.324 -0.6549 -1.6555  1.5654
  930MOL0     H25541   9.897   8.450   8.493  1.7731  0.6791  3.1697
  930MOL0     H25542  10.017   8.667   8.446  2.1367  1.3995  1.0768
  930MOL0     H25543  10.154   8.563   8.389  1.7879  0.0137  1.9304
  930MOL0     H25544  10.018   8.549   8.670 -0.0774 -0.9262 -0.0140
  930MOL0     H25545  10.142   8.682   8.615 -2.0735  0.4478  2.5887
  930MOL0     H25546  10.299   8.485   8.577  0.2458 -3.9754  0.2553
  930MOL0     H25547  10.185   8.381   8.655  1.0201 -0.5187 -0.4729
  930MOL0     H25548  10.284   8.511   9.015 -1.8304  0.5711  0.7972
  930MOL0     H25549  10.214   8.171   8.261 -0.4650 -0.6994  0.8655
  930MOL0     H25550  10.142   8.010   8.103 -1.1547  0.3516 -1.5940
  931MOL0     O25551  10.313   6.784   4.558  0.2001 -0.0709 -0.0898
  931MOL0     C25552  10.405   6.861   4.579  0.4458  0.1271 -0.5388
  931MOL0     O25553  10.428   6.988   4.527 -0.0238 -0.0030  0.1012
  931MOL0     C25554  10.343   7.020   4.428  0.0300  0.4318  0.8197
  931MOL0     C25555  10.299   7.150   4.424  0.5994  0.0032  0.1863
  931MOL0     C25556  10.221   7.194   4.319 -0.7014 -0.8929 -0.1465
  931MOL0     C25557  10.179   7.111   4.213 -1.0470  0.7728 -0.3232
  931MOL0     O25558  10.109   7.162   4.114  0.1232 -0.2232 -0.0964
  931MOL0     C25559  10.174   7.152   3.985 -0.3499  0.6046  0.0443
  931MOL0     C25560  10.124   7.264   3.891  0.0214  0.0657 -0.1834
  931MOL0     C25561   9.982   7.246   3.834 -0.7051 -0.8499 -0.3686
  931MOL0     C25562   9.895   7.378   3.830 -0.3764  0.4367  0.4733
  931MOL0     C25563   9.784   7.369   3.726 -0.1536 -0.0072  0.1141
  931MOL0     C25564   9.706   7.501   3.723  0.1171  0.8475  0.1467
  931MOL0     C25565   9.585   7.489   3.622  0.8104 -0.1601 -0.4449
  931MOL0     C25566   9.631   7.494   3.476  0.7670 -0.7107 -0.5095
  931MOL0     N25567   9.612   7.367   3.399  0.3044 -0.5345 -0.2028
  931MOL0     C25568   9.514   7.360   3.294 -0.5453  0.1250  0.3862
  931MOL0     C25569   9.510   7.232   3.250  0.4531 -0.4364 -0.1368
  931MOL0     C25570   9.441   7.164   3.131  0.4727 -0.4525  0.7715
  931MOL0     C25571   9.545   7.158   3.017  0.2773  0.4579  0.0835
  931MOL0     C25572   9.555   7.279   2.926  0.5842 -0.0252 -1.0341
  931MOL0     C25573   9.430   7.293   2.830  0.7551 -0.3761 -0.6002
  931MOL0     O25574   9.462   7.230   2.703 -0.0974  0.6344 -0.0641
  931MOL0     C25575   9.361   7.234   2.609 -0.4076 -0.2419 -0.0448
  931MOL0     C25576   9.409   7.236   2.481 -0.3397 -0.1941  0.5171
  931MOL0     C25577   9.329   7.262   2.371 -0.2346 -0.8345 -0.0311
  931MOL0     C25578   9.405   7.281   2.238  0.2108  0.3701 -0.5511
  931MOL0     C25579   9.183   7.285   2.397 -0.2142 -0.8006  0.3592
  931MOL0     C25580   9.082   7.301   2.288  0.2303  0.7057 -0.6356
  931MOL0     O25581   8.948   7.325   2.323  0.0031  0.3465  0.5151
  931MOL0     C25582   8.863   7.368   2.220  0.2179 -0.1139  0.7276
  931MOL0     C25583   8.831   7.500   2.216 -0.7745  0.2773 -0.1449
  931MOL0     C25584   8.755   7.555   2.109  0.6534 -0.1161 -0.7618
  931MOL0     C25585   8.711   7.465   2.012  0.4536  0.8763  0.1113
  931MOL0     O25586   8.647   7.525   1.910  0.0930 -0.8117 -0.9111
  931MOL0     C25587   8.698   7.486   1.782 -0.8964 -0.0905  0.7666
  931MOL0     C25588   8.629   7.559   1.670  0.1135  0.0192 -0.3513
  931MOL0     C25589   8.649   7.706   1.646  0.4050  0.2583 -0.2427
  931MOL0     C25590   8.560   7.748   1.528 -0.3552  0.3403  1.3127
  931MOL0     C25591   8.514   7.893   1.524 -0.2592 -0.8255  0.6859
  931MOL0     C25592   8.624   7.990   1.553  0.2196 -0.2379  0.3164
  931MOL0     C25593   8.721   8.008   1.441  0.9668 -0.2177  1.3004
  931MOL0     C25594   8.849   8.065   1.497 -0.8425 -0.0987  0.8297
  931MOL0    Cl25595   8.935   8.169   1.375 -0.3494 -0.0552  0.2266
  931MOL0     C25596   8.757   7.329   2.015  0.4186 -0.4118  0.3596
  931MOL0     C25597   8.835   7.287   2.115  0.6527 -0.3202  0.8853
  931MOL0     O25598   9.129   7.312   2.178  0.5804  0.0269 -0.6374
  931MOL0     C25599   9.139   7.275   2.529 -0.9575  0.4305 -0.0663
  931MOL0     C25600   9.232   7.261   2.632 -0.2071 -0.1356 -0.2405
  931MOL0     N25601   9.617   7.174   3.326  0.2243 -0.0843 -0.1089
  931MOL0     N25602   9.679   7.249   3.408  0.2420 -0.1062 -1.4490
  931MOL0     C25603  10.240   6.979   4.205  0.1014  0.0406 -0.4060
  931MOL0     C25604  10.314   6.938   4.318  0.1991  0.5316 -0.3060
  931MOL0     C25605  10.509   6.818   4.676  0.2291  0.7439 -0.1359
  931MOL0     C25606  10.639   6.856   4.683  0.2675  0.5393 -0.2365
  931MOL0     C25607  10.721   6.825   4.796 -0.0820 -0.0039  0.1050
  931MOL0     C25608  10.678   6.750   4.896 -0.3438  0.3174  0.5724
  931MOL0     O25609  10.749   6.713   5.006 -0.2241 -0.4483 -0.1788
  931MOL0     C25610  10.863   6.792   5.043  1.1740 -0.6623 -0.7509
  931MOL0     C25611  10.885   6.786   5.193  0.1365 -1.4277 -0.1999
  931MOL0     C25612  10.770   6.853   5.268 -0.5568 -0.2257 -0.0934
  931MOL0     C25613  10.779   6.806   5.417  0.0651 -0.3645 -0.8715
  931MOL0     C25614  10.678   6.861   5.510 -0.4565  0.0413 -0.7589
  931MOL0     C25615  10.612   6.926   5.589 -0.0892  0.2896 -0.3089
  931MOL0     C25616  10.544   6.703   4.889 -1.0255 -0.8091  0.0332
  931MOL0     C25617  10.458   6.742   4.786  0.2473 -0.5498  0.4585
  931MOL0     H25618  10.311   7.214   4.511 -0.7484  1.4888 -0.6913
  931MOL0     H25619  10.186   7.297   4.321 -0.0358 -0.6628 -0.2430
  931MOL0     H25620  10.280   7.170   4.002 -0.0203 -1.9277  1.1374
  931MOL0     H25621  10.150   7.056   3.937 -1.6955  0.8756  0.1194
  931MOL0     H25622  10.130   7.354   3.953  2.3286 -0.1776  0.0262
  931MOL0     H25623  10.199   7.275   3.812  3.6274 -0.1680  2.9419
  931MOL0     H25624   9.994   7.195   3.738 -1.4280  2.5255 -2.4342
  931MOL0     H25625   9.922   7.188   3.904  1.8252  0.6076  3.3640
  931MOL0     H25626   9.852   7.397   3.929  1.4178  1.1731  1.1382
  931MOL0     H25627   9.956   7.465   3.808 -1.3246  1.1971  0.7786
  931MOL0     H25628   9.831   7.350   3.629 -0.5043  1.1831 -0.3077
  931MOL0     H25629   9.713   7.289   3.746 -0.1648  0.6843  3.4929
  931MOL0     H25630   9.667   7.516   3.824 -0.3065  0.5348  0.0324
  931MOL0     H25631   9.767   7.589   3.701  0.4284  0.9941  1.5114
  931MOL0     H25632   9.538   7.394   3.650 -0.5060  0.6294  0.0975
  931MOL0     H25633   9.506   7.557   3.653  0.8223  0.4756 -1.7060
  931MOL0     H25634   9.737   7.514   3.454  0.9070  0.3080  0.9486
  931MOL0     H25635   9.576   7.579   3.436  1.2067  0.0752  0.5180
  931MOL0     H25636   9.471   7.450   3.249  2.1651  3.2319  3.4078
  931MOL0     H25637   9.431   7.060   3.163  2.5557 -1.1320 -0.5126
  931MOL0     H25638   9.350   7.212   3.094  0.3306 -2.6780 -2.1802
  931MOL0     H25639   9.533   7.068   2.957 -2.6376  0.2669  0.7974
  931MOL0     H25640   9.640   7.137   3.068  0.0271 -0.6813  0.1025
  931MOL0     H25641   9.642   7.268   2.860  0.9811 -0.6932 -0.4223
  931MOL0     H25642   9.582   7.353   3.001  1.7648 -0.0684 -1.4034
  931MOL0     H25643   9.408   7.399   2.819  0.9125 -0.4832 -2.0982
  931MOL0     H25644   9.354   7.239   2.888  0.8890  1.9363  1.9494
  931MOL0     H25645   9.513   7.219   2.457  0.6329  3.5862  1.4789
  931MOL0     H25646   9.511   7.306   2.243  0.9058 -2.0153 -1.9007
  931MOL0     H25647   9.377   7.198   2.172 -1.6408 -1.1534  1.9491
  931MOL0     H25648   9.360   7.365   2.183 -2.1581 -1.3898 -1.4833
  931MOL0     H25649   8.867   7.559   2.300 -2.4333 -1.5210  1.9418
  931MOL0     H25650   8.712   7.655   2.106 -1.1895 -0.8898 -0.6680
  931MOL0     H25651   8.804   7.514   1.778 -1.1358  0.7511  0.0269
  931MOL0     H25652   8.685   7.378   1.767 -2.3828  0.2254 -0.3939
  931MOL0     H25653   8.651   7.509   1.575  0.5157  1.5823 -1.1035
  931MOL0     H25654   8.523   7.538   1.682  0.4888 -2.3812 -0.6333
  931MOL0     H25655   8.755   7.730   1.631  0.5051 -0.4436 -0.6933
  931MOL0     H25656   8.621   7.757   1.739  1.3696  4.0152 -1.8081
  931MOL0     H25657   8.614   7.730   1.435 -0.6769 -2.0049  1.5260
  931MOL0     H25658   8.465   7.694   1.536 -0.1402 -0.4215 -0.7082
  931MOL0     H25659   8.444   7.911   1.606  1.1054  3.1101  1.1840
  931MOL0     H25660   8.454   7.914   1.435 -1.0904 -2.4945  0.8083
  931MOL0     H25661   8.582   8.086   1.585  2.1706  0.8034 -0.1081
  931MOL0     H25662   8.682   7.960   1.640 -1.4524  1.3973  2.1172
  931MOL0     H25663   8.670   8.077   1.374 -0.9118 -1.0983  1.7540
  931MOL0     H25664   8.741   7.913   1.391 -2.3394 -1.5998  2.3226
  931MOL0     H25665   8.922   7.986   1.519  0.0639  0.5387  0.1998
  931MOL0     H25666   8.826   8.126   1.584 -3.3049 -1.7307  1.4246
  931MOL0     H25667   8.724   7.258   1.940  2.5050 -0.6207 -0.4195
  931MOL0     H25668   8.874   7.186   2.112 -1.4184 -1.1638 -0.3747
  931MOL0     H25669   9.037   7.292   2.562 -0.8668  1.7327 -0.4072
  931MOL0     H25670   9.194   7.273   2.733 -1.2557  2.2656 -0.8588
  931MOL0     H25671  10.217   6.928   4.112 -0.5981  0.7786 -0.6520
  931MOL0     H25672  10.366   6.844   4.322  1.7174  1.3118 -0.8858
  931MOL0     H25673  10.681   6.929   4.615  0.0750  0.4980 -0.4002
  931MOL0     H25674  10.818   6.873   4.803  0.8631 -1.7757 -0.2907
  931MOL0     H25675  10.945   6.750   4.985  0.2784 -0.6576 -2.0762
  931MOL0     H25676  10.843   6.897   5.020 -2.6043 -1.1767 -0.4530
  931MOL0     H25677  10.979   6.832   5.224 -0.5517  0.6403 -0.9940
  931MOL0     H25678  10.894   6.681   5.222 -1.3569 -1.6945 -0.6307
  931MOL0     H25679  10.671   6.825   5.230 -0.8848  1.5987 -0.6830
  931MOL0     H25680  10.793   6.959   5.261  0.5329 -0.5380 -2.3737
  931MOL0     H25681  10.879   6.831   5.453  0.2174  0.5673 -1.8794
  931MOL0     H25682  10.772   6.697   5.427  0.1538 -0.3739 -0.9076
  931MOL0     H25683  10.546   6.966   5.663 -0.1498 -1.8888  0.9029
  931MOL0     H25684  10.511   6.639   4.970  3.0962  0.2472  2.8523
  931MOL0     H25685  10.354   6.714   4.802  0.2752 -1.2126 -0.4592
  932MOL0     O25686   5.365   8.957   1.520  0.5876 -0.8077 -0.0156
  932MOL0     C25687   5.287   8.925   1.609  0.2681 -0.2063  0.4564
  932MOL0     O25688   5.201   8.812   1.601 -0.3649 -0.1257  0.4765
  932MOL0     C25689   5.181   8.740   1.488 -0.3756 -0.7937  0.1328
  932MOL0     C25690   5.216   8.770   1.359 -0.6116  0.1057 -0.5390
  932MOL0     C25691   5.185   8.679   1.260  0.2935 -0.3487 -0.7607
  932MOL0     C25692   5.093   8.567   1.280 -0.4400 -0.3032  0.0244
  932MOL0     O25693   5.061   8.488   1.177 -0.1180  0.5099  0.0396
  932MOL0     C25694   5.181   8.425   1.135  0.3693  0.2593  0.6031
  932MOL0     C25695   5.153   8.336   1.011  0.6356 -0.1667  0.5090
  932MOL0     C25696   5.056   8.229   1.042 -0.4435 -0.4231  0.2258
  932MOL0     C25697   4.927   8.244   0.959 -0.4082  0.0881  0.7729
  932MOL0     C25698   4.820   8.139   0.996 -0.7927 -0.7494 -0.2001
  932MOL0     C25699   4.696   8.144   0.914  0.4748 -0.2370 -0.1297
  932MOL0     C25700   4.592   8.051   0.981  0.2460  0.4384  0.1026
  932MOL0     C25701   4.537   8.115   1.105 -0.0071 -0.3356 -0.5532
  932MOL0     N25702   4.410   8.048   1.144  0.1405  0.0636  0.8890
  932MOL0     C25703   4.406   7.945   1.242  0.3516 -1.1977  0.5893
  932MOL0     C25704   4.268   7.930   1.281 -0.8248  0.3348  1.0905
  932MOL0     C25705   4.203   7.830   1.363 -0.6802  0.4422  0.0699
  932MOL0     C25706   4.285   7.701   1.383  0.3081 -0.8134 -0.4351
  932MOL0     C25707   4.202   7.611   1.480 -0.5971  1.0274  0.9818
  932MOL0     C25708   4.233   7.466   1.462 -0.1300  0.4494  0.5856
  932MOL0     O25709   4.348   7.416   1.533 -0.4580 -0.0306 -0.2453
  932MOL0     C25710   4.378   7.282   1.511  0.8905  0.1141  0.0021
  932MOL0     C25711   4.317   7.188   1.428  0.9710 -0.0004  0.3594
  932MOL0     C25712   4.358   7.054   1.407  0.7808 -0.9406  1.5900
  932MOL0     C25713   4.271   6.969   1.318  0.5126  0.0311  0.4980
  932MOL0     C25714   4.448   7.006   1.494  0.8421 -0.1769  0.2313
  932MOL0     C25715   4.474   6.856   1.504 -0.7312 -0.1739 -0.8727
  932MOL0     O25716   4.518   6.832   1.631  0.4818 -0.1825  0.2315
  932MOL0     C25717   4.519   6.720   1.697  0.0660  0.2287  0.2775
  932MOL0     C25718   4.594   6.708   1.809  1.0463 -0.3840 -0.2572
  932MOL0     C25719   4.592   6.595   1.893 -0.9853  0.0660 -0.0184
  932MOL0     C25720   4.518   6.475   1.853  0.0974  0.8738 -0.2617
  932MOL0     O25721   4.514   6.356   1.926 -0.0000  0.4873 -0.2943
  932MOL0     C25722   4.535   6.367   2.066  0.4027  0.2079 -1.1094
  932MOL0     C25723   4.439   6.282   2.151 -0.3440  0.0531  0.6280
  932MOL0     C25724   4.476   6.293   2.306 -0.8753 -0.2415 -0.9405
  932MOL0     C25725   4.353   6.279   2.392  0.6210 -0.2924  0.1645
  932MOL0     C25726   4.278   6.408   2.408 -0.0910 -0.2600  0.4343
  932MOL0     C25727   4.343   6.487   2.522  1.3037 -0.5324 -1.0907
  932MOL0     C25728   4.254   6.595   2.583  0.1977 -0.0887 -0.3102
  932MOL0     C25729   4.201   6.715   2.504 -0.0969  0.2618  0.6472
  932MOL0    Cl25730   4.324   6.785   2.401  0.1172  0.1246 -0.7159
  932MOL0     C25731   4.456   6.488   1.730  0.2507  0.4946  0.4392
  932MOL0     C25732   4.443   6.608   1.653  0.3440 -0.1569 -0.8383
  932MOL0     O25733   4.485   6.770   1.407 -0.0276  0.6856  0.0108
  932MOL0     C25734   4.511   7.095   1.583 -0.4217  0.1913 -0.0592
  932MOL0     C25735   4.486   7.232   1.581 -1.1285 -1.0907 -0.3462
  932MOL0     N25736   4.202   8.021   1.204  0.3678 -0.1579 -0.5374
  932MOL0     N25737   4.280   8.086   1.131 -0.1985  0.4190  0.0993
  932MOL0     C25738   5.057   8.536   1.407 -0.0230 -0.6406 -0.3335
  932MOL0     C25739   5.097   8.629   1.511  0.5259  0.5709 -0.3998
  932MOL0     C25740   5.284   9.011   1.728 -0.1962 -0.6771  0.0048
  932MOL0     C25741   5.399   9.090   1.757 -0.5795  0.7963  0.5361
  932MOL0     C25742   5.407   9.153   1.877 -0.5891  0.8192 -0.7376
  932MOL0     C25743   5.308   9.140   1.971  0.7332  0.4226  0.1540
  932MOL0     O25744   5.319   9.218   2.086  0.0359  0.2428  0.1691
  932MOL0     C25745   5.209   9.274   2.151 -0.0250  0.5048  0.8089
  932MOL0     C25746   5.245   9.399   2.225 -0.2127  0.7404  0.2715
  932MOL0     C25747   5.322   9.377   2.355 -0.0719 -0.4783  1.1653
  932MOL0     C25748   5.338   9.504   2.446  1.1985 -0.9983 -0.1783
  932MOL0     C25749   5.442   9.466   2.551 -0.3885 -0.4887 -0.5264
  932MOL0     C25750   5.522   9.444   2.639  0.1256 -0.5594 -0.2107
  932MOL0     C25751   5.193   9.064   1.942  0.0578 -0.5830  0.2059
  932MOL0     C25752   5.184   9.003   1.821  0.3561  0.1890 -0.5398
  932MOL0     H25753   5.272   8.858   1.329 -0.8968 -0.1421 -1.8528
  932MOL0     H25754   5.218   8.700   1.159 -0.3502  0.7735 -0.7471
  932MOL0     H25755   5.253   8.502   1.105  1.2388  0.6361  3.3280
  932MOL0     H25756   5.220   8.359   1.213  1.3127 -0.4700 -0.4516
  932MOL0     H25757   5.126   8.394   0.922  1.6765  1.0558  0.9413
  932MOL0     H25758   5.251   8.296   0.981  1.4353  2.1975 -0.3229
  932MOL0     H25759   5.109   8.133   1.037 -0.7589 -0.5460 -1.0575
  932MOL0     H25760   5.027   8.241   1.147  0.4414  0.0080  0.4258
  932MOL0     H25761   4.896   8.345   0.987  1.5164  1.6738 -2.2486
  932MOL0     H25762   4.940   8.242   0.850 -0.6056 -1.4752  0.7582
  932MOL0     H25763   4.867   8.040   0.996  0.9486  0.0079  1.6377
  932MOL0     H25764   4.797   8.149   1.102  0.0122 -1.9313  0.1159
  932MOL0     H25765   4.645   8.241   0.905 -2.6401 -1.7360 -0.0811
  932MOL0     H25766   4.713   8.098   0.816  0.3220  1.6117 -1.0591
  932MOL0     H25767   4.513   8.024   0.911 -0.0528 -0.1653  0.6665
  932MOL0     H25768   4.635   7.957   1.015 -0.5713  1.0026  2.8921
  932MOL0     H25769   4.525   8.223   1.093  2.7223  0.2166  0.7715
  932MOL0     H25770   4.618   8.093   1.176  0.5110  1.0538 -0.6890
  932MOL0     H25771   4.492   7.894   1.283  1.6382 -1.5637 -2.3405
  932MOL0     H25772   4.162   7.866   1.458 -0.5400  0.1750  0.2341
  932MOL0     H25773   4.113   7.801   1.307 -0.8689  1.4844 -0.1847
  932MOL0     H25774   4.383   7.724   1.425  0.0036  0.5015 -0.3946
  932MOL0     H25775   4.300   7.648   1.289  2.6523  0.5137 -0.8753
  932MOL0     H25776   4.093   7.619   1.471 -0.7839  0.8736  2.7063
  932MOL0     H25777   4.221   7.640   1.584  2.0962  1.3042  0.4762
  932MOL0     H25778   4.250   7.450   1.356 -0.4870  2.0368  0.2647
  932MOL0     H25779   4.142   7.419   1.501 -0.6008  2.2019  1.7197
  932MOL0     H25780   4.230   7.228   1.378  1.8306  1.7444  0.1809
  932MOL0     H25781   4.200   6.936   1.394 -0.4173  2.6301  0.8706
  932MOL0     H25782   4.206   7.030   1.253  0.0455  0.4725  1.3596
  932MOL0     H25783   4.322   6.890   1.262  1.7615  0.4428  1.0230
  932MOL0     H25784   4.654   6.792   1.842  0.4355 -0.6054  1.5401
  932MOL0     H25785   4.629   6.595   1.995 -1.1672 -2.3966  0.1143
  932MOL0     H25786   4.636   6.336   2.092 -0.3635  0.0261  1.9931
  932MOL0     H25787   4.520   6.468   2.107 -1.0831 -0.7584  0.8834
  932MOL0     H25788   4.342   6.329   2.135  0.4613  0.9053 -2.5823
  932MOL0     H25789   4.439   6.179   2.114  0.2602  0.3397 -0.2076
  932MOL0     H25790   4.544   6.375   2.328  1.5543 -2.3383 -0.0721
  932MOL0     H25791   4.535   6.204   2.331  0.4737  0.9769  0.4461
  932MOL0     H25792   4.279   6.211   2.350  0.0386  1.1152 -1.2152
  932MOL0     H25793   4.391   6.237   2.485  0.6630 -1.0302 -0.1763
  932MOL0     H25794   4.176   6.381   2.435 -1.6279  1.0085 -3.3817
  932MOL0     H25795   4.271   6.469   2.317  0.4271  3.1580  2.4976
  932MOL0     H25796   4.370   6.426   2.609  2.0257  2.5033  0.9717
  932MOL0     H25797   4.434   6.534   2.483 -0.3069  1.2875 -2.8895
  932MOL0     H25798   4.314   6.646   2.659 -1.3409  0.8099  0.3682
  932MOL0     H25799   4.172   6.553   2.642  1.3626  1.4147  2.5859
  932MOL0     H25800   4.152   6.790   2.568 -1.6632  0.0055 -0.1958
  932MOL0     H25801   4.124   6.668   2.443  2.3125 -1.0200 -1.6070
  932MOL0     H25802   4.411   6.395   1.696  1.4476 -0.2079  0.7216
  932MOL0     H25803   4.385   6.613   1.561 -0.7961 -1.3218 -0.2349
  932MOL0     H25804   4.589   7.065   1.652 -1.6303  1.0924  1.7571
  932MOL0     H25805   4.543   7.293   1.650  0.6944 -0.8520 -1.9586
  932MOL0     H25806   4.982   8.458   1.416 -1.1914  0.5194  0.4820
  932MOL0     H25807   5.081   8.597   1.613 -0.3103 -5.5554 -2.0763
  932MOL0     H25808   5.485   9.097   1.691 -0.3642  1.0315  0.8353
  932MOL0     H25809   5.500   9.195   1.914 -0.4022 -1.2743  1.4503
  932MOL0     H25810   5.131   9.294   2.077  0.3980 -0.7305 -0.0024
  932MOL0     H25811   5.163   9.201   2.218 -0.2590  1.0283  1.2296
  932MOL0     H25812   5.146   9.439   2.251 -1.8243 -1.4984 -1.9367
  932MOL0     H25813   5.305   9.461   2.157  1.0852  2.2759  2.6844
  932MOL0     H25814   5.421   9.340   2.327 -0.3515  0.7744 -1.7695
  932MOL0     H25815   5.264   9.304   2.412  0.3253  0.1461  2.4176
  932MOL0     H25816   5.240   9.521   2.492  1.1845 -0.0400 -0.5529
  932MOL0     H25817   5.371   9.600   2.405 -2.8879  0.7500  0.1723
  932MOL0     H25818   5.568   9.410   2.730  0.6954  1.2339  0.2058
  932MOL0     H25819   5.115   9.038   2.013 -2.0623 -2.1810 -2.4785
  932MOL0     H25820   5.098   8.940   1.799  0.6376 -1.9532  3.6030
  933MOL0     O25821   9.337   5.172   6.896 -0.2213 -0.2608 -0.1104
  933MOL0     C25822   9.292   5.130   6.794 -0.3155  0.2157 -0.2343
  933MOL0     O25823   9.171   5.064   6.782 -0.8401 -0.2018  0.5751
  933MOL0     C25824   9.098   5.036   6.893  0.3674  0.3711  0.3026
  933MOL0     C25825   9.045   4.907   6.901 -0.1747  0.7116 -0.6955
  933MOL0     C25826   8.973   4.864   7.022  0.1784 -0.0836  0.2060
  933MOL0     C25827   8.944   4.959   7.121 -0.4660  0.5025 -0.2623
  933MOL0     O25828   8.869   4.927   7.229 -0.9746  0.3864 -0.6973
  933MOL0     C25829   8.747   4.860   7.213  0.4140 -0.1175  0.1362
  933MOL0     C25830   8.672   4.857   7.343 -0.9270 -0.2080  0.0775
  933MOL0     C25831   8.547   4.777   7.335 -0.3568  0.8017  0.6312
  933MOL0     C25832   8.480   4.760   7.473  0.4429  0.0130 -0.2628
  933MOL0     C25833   8.323   4.787   7.470 -0.4084 -0.0433 -1.2122
  933MOL0     C25834   8.226   4.688   7.402 -0.5134  0.3394  1.1753
  933MOL0     C25835   8.078   4.714   7.427  0.1817  0.4468  0.2837
  933MOL0     C25836   7.982   4.612   7.364 -0.1147 -0.1349  0.5556
  933MOL0     N25837   8.018   4.560   7.232  0.0672  0.3488  0.4729
  933MOL0     C25838   8.112   4.461   7.206 -0.0988  0.7646  0.0429
  933MOL0     C25839   8.164   4.490   7.083  0.0974  0.4024  0.7550
  933MOL0     C25840   8.260   4.413   6.992 -0.1667  0.3640  0.1378
  933MOL0     C25841   8.188   4.301   6.915 -0.1034  0.0419 -0.8992
  933MOL0     C25842   8.165   4.167   6.989 -0.2241 -0.3131 -0.2539
  933MOL0     C25843   8.288   4.109   7.056  0.1335 -0.1376  0.1234
  933MOL0     O25844   8.300   4.180   7.183  0.2201 -0.3737 -0.1228
  933MOL0     C25845   8.403   4.134   7.263 -0.1518 -0.3224  0.1054
  933MOL0     C25846   8.488   4.025   7.233  0.5314  0.3205 -0.5760
  933MOL0     C25847   8.584   3.975   7.320 -0.3120 -0.1315 -0.6510
  933MOL0     C25848   8.647   3.834   7.284  0.2497 -0.0524  0.2323
  933MOL0     C25849   8.595   4.040   7.447 -1.0499 -0.2374  1.1104
  933MOL0     C25850   8.652   3.964   7.544  0.9931  0.1907 -0.1604
  933MOL0     O25851   8.770   4.005   7.608  0.8270  0.5001 -0.8651
  933MOL0     C25852   8.839   3.901   7.664 -0.0753 -0.0638  0.6744
  933MOL0     C25853   8.902   3.921   7.783 -0.8417  0.3865 -0.1794
  933MOL0     C25854   8.962   3.824   7.849 -0.8454  0.1074  1.0144
  933MOL0     C25855   8.968   3.686   7.802 -0.5743 -1.2649  0.1389
  933MOL0     O25856   9.030   3.589   7.872  0.2965 -0.3998 -0.5270
  933MOL0     C25857   9.037   3.613   8.015  0.9691 -0.1603 -0.0908
  933MOL0     C25858   9.025   3.472   8.070  0.7279 -1.0182  0.3262
  933MOL0     C25859   8.880   3.427   8.071 -0.0977 -0.5190  0.4076
  933MOL0     C25860   8.888   3.285   8.112 -0.0719  0.8600  0.0364
  933MOL0     C25861   8.932   3.252   8.253 -0.4363 -0.1582  0.3293
  933MOL0     C25862   8.903   3.105   8.293  0.5576  0.5412 -0.5316
  933MOL0     C25863   8.983   3.067   8.419  0.7507  0.4915 -0.7110
  933MOL0     C25864   9.003   2.916   8.415 -0.7053 -0.0763 -0.6448
  933MOL0    Cl25865   8.838   2.837   8.399  0.1708 -0.1498  0.1486
  933MOL0     C25866   8.895   3.660   7.687  0.6010 -0.0934 -0.4738
  933MOL0     C25867   8.846   3.770   7.613  0.5024  0.3360  0.1271
  933MOL0     O25868   8.578   3.870   7.579  0.1412  0.2248 -0.3033
  933MOL0     C25869   8.515   4.155   7.482 -0.4282 -0.9228 -1.0233
  933MOL0     C25870   8.425   4.197   7.389 -0.0712 -0.4439 -0.1288
  933MOL0     N25871   8.091   4.598   7.038  0.1079  0.8127 -1.0592
  933MOL0     N25872   8.005   4.639   7.122 -0.1041 -0.6794  1.0054
  933MOL0     C25873   8.993   5.080   7.107 -0.3292 -0.8620  0.0274
  933MOL0     C25874   9.065   5.123   6.987  1.6789  0.7786 -1.2655
  933MOL0     C25875   9.373   5.148   6.672 -0.0981 -0.1589 -0.1085
  933MOL0     C25876   9.485   5.231   6.677 -0.5384 -0.2770 -0.8119
  933MOL0     C25877   9.564   5.250   6.557  0.1810  0.7176 -0.2176
  933MOL0     C25878   9.523   5.205   6.435 -0.6250  0.3120  0.1586
  933MOL0     O25879   9.607   5.208   6.328 -1.6306  0.1202 -0.1533
  933MOL0     C25880   9.736   5.265   6.329  0.2051  0.3549 -0.2883
  933MOL0     C25881   9.741   5.420   6.305  0.5169  0.5371  0.2926
  933MOL0     C25882   9.654   5.459   6.187  0.0846 -0.1699  0.3030
  933MOL0     C25883   9.697   5.394   6.054 -0.2086 -1.0721  1.0373
  933MOL0     C25884   9.605   5.443   5.945 -0.8756  0.7627 -0.2077
  933MOL0     C25885   9.537   5.489   5.854  0.6859  0.0896 -0.6246
  933MOL0     C25886   9.415   5.124   6.427  0.0905 -0.7407 -1.2459
  933MOL0     C25887   9.336   5.096   6.547  0.1027 -0.7287  0.5480
  933MOL0     H25888   9.058   4.839   6.818  3.0509  1.7494 -1.2147
  933MOL0     H25889   8.951   4.758   7.028 -2.2573  0.0972 -2.9932
  933MOL0     H25890   8.687   4.911   7.138 -0.2401  1.9222  1.9465
  933MOL0     H25891   8.760   4.754   7.188  1.3153 -0.6158  2.4246
  933MOL0     H25892   8.736   4.824   7.425 -1.4647 -1.2321  0.1030
  933MOL0     H25893   8.643   4.956   7.379 -2.7142 -0.5333 -0.3621
  933MOL0     H25894   8.479   4.825   7.264  1.1005  1.7880 -0.1514
  933MOL0     H25895   8.562   4.683   7.281 -1.1216  1.8922 -1.5857
  933MOL0     H25896   8.480   4.655   7.504 -4.1751 -0.6609 -1.7562
  933MOL0     H25897   8.532   4.816   7.551 -1.7578 -0.6364  1.7869
  933MOL0     H25898   8.283   4.780   7.572 -0.8654  0.4818 -1.3496
  933MOL0     H25899   8.304   4.888   7.434  2.5181  0.2245 -2.2469
  933MOL0     H25900   8.250   4.684   7.296 -1.1446  3.5409  0.7922
  933MOL0     H25901   8.250   4.593   7.450  0.1589 -0.6668 -1.0508
  933MOL0     H25902   8.068   4.723   7.535  2.7272  4.3897  0.4274
  933MOL0     H25903   8.050   4.808   7.379  1.9468 -0.1819 -2.1892
  933MOL0     H25904   7.889   4.669   7.359  0.5620  0.8543 -1.7604
  933MOL0     H25905   7.981   4.525   7.431  3.6503 -2.0482 -1.5192
  933MOL0     H25906   8.158   4.375   7.254 -1.0151  0.2522  0.0256
  933MOL0     H25907   8.298   4.482   6.916 -2.3491  0.1190 -1.2655
  933MOL0     H25908   8.351   4.378   7.043 -1.1856  1.9508  3.3251
  933MOL0     H25909   8.261   4.272   6.839 -0.0556  2.1478 -1.7238
  933MOL0     H25910   8.102   4.332   6.854 -2.0385 -0.5001  1.3848
  933MOL0     H25911   8.124   4.098   6.915 -2.1965 -1.0185  1.3686
  933MOL0     H25912   8.086   4.170   7.065 -0.0347  0.4419 -0.0845
  933MOL0     H25913   8.386   4.128   7.010  0.9673  0.1264  1.9215
  933MOL0     H25914   8.278   4.003   7.080  2.1972 -0.8374 -1.7490
  933MOL0     H25915   8.472   3.964   7.144  0.3131 -1.6868  0.7781
  933MOL0     H25916   8.756   3.841   7.277  0.2199 -0.9950 -1.9643
  933MOL0     H25917   8.607   3.763   7.356 -0.5563 -1.4625 -1.5478
  933MOL0     H25918   8.613   3.801   7.185  5.3009  2.4626 -2.7760
  933MOL0     H25919   8.895   4.021   7.823  3.0924  1.5000 -1.8913
  933MOL0     H25920   9.018   3.862   7.933 -1.3842  1.1417  0.9206
  933MOL0     H25921   9.131   3.656   8.052 -0.1434  2.3749 -0.0092
  933MOL0     H25922   8.955   3.681   8.039 -0.8388 -1.1447 -2.9972
  933MOL0     H25923   9.078   3.397   8.012  1.0541  1.0103 -2.1568
  933MOL0     H25924   9.064   3.482   8.172  2.9729  1.0417 -0.6458
  933MOL0     H25925   8.816   3.435   7.983 -0.1808  4.1421  0.6476
  933MOL0     H25926   8.817   3.486   8.138  0.7860  2.8844 -1.5291
  933MOL0     H25927   8.791   3.236   8.098  1.0625 -1.1614 -1.1986
  933MOL0     H25928   8.951   3.234   8.038 -0.0963 -1.5089  1.5378
  933MOL0     H25929   8.883   3.324   8.319  1.0006  2.6566 -1.4823
  933MOL0     H25930   9.040   3.269   8.261 -0.2348 -2.1503  3.4921
  933MOL0     H25931   8.796   3.100   8.318  0.6602 -1.1042 -0.3258
  933MOL0     H25932   8.937   3.042   8.211  0.3684  0.7872 -0.8001
  933MOL0     H25933   8.927   3.093   8.509 -1.0523 -2.5461 -0.8192
  933MOL0     H25934   9.084   3.109   8.421  1.8695 -1.7561  4.3918
  933MOL0     H25935   9.050   2.874   8.505 -1.5188  0.8865  0.2562
  933MOL0     H25936   9.075   2.888   8.337 -0.9575 -1.1820 -0.4952
  933MOL0     H25937   8.889   3.555   7.658 -0.8315 -0.6671  1.7067
  933MOL0     H25938   8.813   3.750   7.511  2.6033 -0.2339 -0.4913
  933MOL0     H25939   8.530   4.209   7.575 -1.6869 -1.2864 -0.5898
  933MOL0     H25940   8.365   4.276   7.432  2.6791  1.7371  0.0028
  933MOL0     H25941   8.989   5.154   7.186 -0.0144  2.4207 -2.8015
  933MOL0     H25942   9.073   5.230   6.970  0.3249  1.1463  0.1699
  933MOL0     H25943   9.533   5.264   6.769  1.5123 -1.9792 -1.1945
  933MOL0     H25944   9.646   5.321   6.555 -0.7442  1.8067 -1.8245
  933MOL0     H25945   9.794   5.246   6.420 -0.7348  0.0116  0.2484
  933MOL0     H25946   9.791   5.215   6.249  1.7542 -0.6309  1.3277
  933MOL0     H25947   9.841   5.453   6.275 -0.6111  2.6888 -1.4081
  933MOL0     H25948   9.716   5.475   6.396 -0.0616  1.1242 -0.2160
  933MOL0     H25949   9.664   5.565   6.163  1.2634 -0.2565  0.3232
  933MOL0     H25950   9.552   5.428   6.208 -0.1700  0.4974  0.0645
  933MOL0     H25951   9.697   5.285   6.052  1.6374 -1.1120  1.5186
  933MOL0     H25952   9.799   5.427   6.035 -0.4115 -1.1710 -0.3761
  933MOL0     H25953   9.460   5.512   5.784  1.6197  0.7656 -1.4581
  933MOL0     H25954   9.389   5.087   6.329  0.4440 -0.9832 -1.2487
  933MOL0     H25955   9.245   5.037   6.539 -0.5884  0.4259 -0.4849
  934MOL0     O25956   8.276  11.375   3.905 -0.5928 -0.1751 -0.8253
  934MOL0     C25957   8.179  11.423   3.965 -0.1992  0.7022 -0.1479
  934MOL0     O25958   8.052  11.364   3.965 -0.3298  0.5696  0.6020
  934MOL0     C25959   8.031  11.247   3.893 -0.0445 -0.6014 -0.0356
  934MOL0     C25960   8.079  11.123   3.932  0.6337 -0.1844 -0.2441
  934MOL0     C25961   8.036  10.998   3.870  0.3091  0.2595 -0.6223
  934MOL0     C25962   7.949  11.019   3.760  1.2054  0.3333  0.1570
  934MOL0     O25963   7.896  10.916   3.696 -0.3595 -0.4477  0.5168
  934MOL0     C25964   7.882  10.791   3.767  0.3560 -0.4617  1.1936
  934MOL0     C25965   7.772  10.701   3.708 -0.0800 -1.3954  0.4638
  934MOL0     C25966   7.698  10.611   3.805 -0.3528  0.0581 -0.5537
  934MOL0     C25967   7.649  10.683   3.932  0.3084 -0.4857 -0.0656
  934MOL0     C25968   7.531  10.609   4.011 -0.5292  0.0156 -0.0844
  934MOL0     C25969   7.590  10.488   4.074 -0.0554  0.4547 -0.7322
  934MOL0     C25970   7.476  10.407   4.141  0.0432 -0.0052 -0.2384
  934MOL0     C25971   7.519  10.253   4.162  0.0333 -0.8699 -0.5384
  934MOL0     N25972   7.423  10.188   4.258 -0.4327 -0.0372 -0.0311
  934MOL0     C25973   7.383  10.242   4.379  1.0327 -0.3066  0.0750
  934MOL0     C25974   7.302  10.149   4.431  0.0225  0.1477  0.0037
  934MOL0     C25975   7.231  10.150   4.555  0.0393  0.3368  0.0813
  934MOL0     C25976   7.302  10.204   4.675  0.0229 -0.3273  0.2612
  934MOL0     C25977   7.195  10.222   4.788 -0.4300  0.1972 -0.6449
  934MOL0     C25978   7.275  10.254   4.915 -0.3984 -0.0483 -0.1393
  934MOL0     O25979   7.198  10.252   5.043  0.1386 -0.4000  0.1457
  934MOL0     C25980   7.216  10.141   5.119  0.2037 -0.4593 -0.7147
  934MOL0     C25981   7.228  10.158   5.253 -0.2731 -0.5297 -1.0473
  934MOL0     C25982   7.231  10.051   5.344 -0.5068  0.4582 -0.5277
  934MOL0     C25983   7.226  10.092   5.488 -0.2070  0.2102  1.6335
  934MOL0     C25984   7.214   9.917   5.295  0.4504 -0.2536  0.0048
  934MOL0     C25985   7.207   9.791   5.381 -0.4354 -0.3928  0.3740
  934MOL0     O25986   7.225   9.815   5.513 -0.5237  0.0965  0.2206
  934MOL0     C25987   7.251   9.715   5.601  0.6522 -0.6714  0.5458
  934MOL0     C25988   7.159   9.621   5.635  0.7940 -0.8541  0.9934
  934MOL0     C25989   7.182   9.510   5.720  0.6326  0.0788  0.2299
  934MOL0     C25990   7.300   9.513   5.796 -0.8756  0.0945  0.4324
  934MOL0     O25991   7.320   9.404   5.882 -0.1072  0.1562  0.2684
  934MOL0     C25992   7.244   9.422   6.005  0.6450  0.0192 -0.7975
  934MOL0     C25993   7.288   9.320   6.102 -0.0125 -0.6081  0.3431
  934MOL0     C25994   7.216   9.328   6.235  0.5964  0.6903 -0.0602
  934MOL0     C25995   7.299   9.253   6.341 -0.8161 -0.8299  0.6722
  934MOL0     C25996   7.416   9.342   6.400 -0.0125 -0.4965  0.6566
  934MOL0     C25997   7.479   9.295   6.528  0.1369  0.6376  0.2483
  934MOL0     C25998   7.531   9.149   6.527  0.6202  0.2860  0.9815
  934MOL0     C25999   7.586   9.111   6.662  0.1566  0.0233 -0.1495
  934MOL0    Cl26000   7.749   9.169   6.687 -0.2917 -0.2335  0.8028
  934MOL0     C26001   7.398   9.608   5.767 -0.2341  0.4181  0.3210
  934MOL0     C26002   7.364   9.709   5.680 -0.6066  0.5678  0.2680
  934MOL0     O26003   7.159   9.686   5.332 -1.1245 -0.5000 -0.1404
  934MOL0     C26004   7.197   9.901   5.152 -0.0390  0.2467 -1.0393
  934MOL0     C26005   7.205  10.008   5.071  0.0675  0.7097  0.5541
  934MOL0     N26006   7.291  10.051   4.336 -0.2558  0.2994  0.2735
  934MOL0     N26007   7.370  10.070   4.240  0.7378  0.0583  0.9000
  934MOL0     C26008   7.908  11.142   3.715  0.0711  0.7488 -0.4281
  934MOL0     C26009   7.949  11.256   3.787  0.2457  0.3121 -0.7498
  934MOL0     C26010   8.199  11.532   4.062 -0.8002  0.8397 -1.0736
  934MOL0     C26011   8.081  11.573   4.138  0.4284  0.1723  0.2880
  934MOL0     C26012   8.105  11.687   4.226  0.5004  0.1764  0.1311
  934MOL0     C26013   8.234  11.753   4.230 -0.6935  0.7847  0.6805
  934MOL0     O26014   8.239  11.852   4.324 -0.6994  0.7694 -0.5705
  934MOL0     C26015   8.326  11.829   4.437 -0.0586 -0.0429  0.4965
  934MOL0     C26016   8.249  11.835   4.572  0.4296 -1.6816 -0.8339
  934MOL0     C26017   8.338  11.854   4.702 -0.3188  0.2539 -0.4957
  934MOL0     C26018   8.254  11.909   4.816 -1.1013 -0.0574 -0.0985
  934MOL0     C26019   8.122  11.855   4.839  0.8155 -0.5660  0.8177
  934MOL0     C26020   8.008  11.805   4.856  0.0135 -1.0814 -0.9877
  934MOL0     C26021   8.341  11.702   4.151  0.5319  0.0495  0.0627
  934MOL0     C26022   8.324  11.603   4.060  0.2612  0.2150 -0.6775
  934MOL0     H26023   8.148  11.110   4.016  2.7308 -3.0027 -2.2015
  934MOL0     H26024   8.076  10.902   3.901 -2.3620 -0.9761 -0.6682
  934MOL0     H26025   7.982  10.749   3.752  1.6237  0.3474  5.8868
  934MOL0     H26026   7.886  10.795   3.876  2.4464  0.1489  1.1305
  934MOL0     H26027   7.695  10.771   3.675  0.8492 -0.9095 -0.7687
  934MOL0     H26028   7.809  10.640   3.625  0.0465 -2.3934  1.2333
  934MOL0     H26029   7.614  10.563   3.752 -0.8210 -0.6441  0.7891
  934MOL0     H26030   7.766  10.529   3.831  0.5798 -0.2764 -3.6252
  934MOL0     H26031   7.738  10.690   3.995 -0.4177  3.0768  0.8106
  934MOL0     H26032   7.606  10.780   3.905 -0.9664 -1.1144 -0.4013
  934MOL0     H26033   7.484  10.678   4.081 -0.6123 -1.3269  1.2422
  934MOL0     H26034   7.458  10.569   3.939  0.4264 -2.3313  0.1569
  934MOL0     H26035   7.634  10.421   3.999  1.6851  1.6895 -0.8826
  934MOL0     H26036   7.669  10.516   4.144 -0.3650  1.9206 -0.9427
  934MOL0     H26037   7.460  10.449   4.241  1.4419 -0.8060  0.3484
  934MOL0     H26038   7.384  10.408   4.082 -0.8799  0.2582  1.1571
  934MOL0     H26039   7.618  10.252   4.208 -0.0761 -0.5908 -0.2923
  934MOL0     H26040   7.541  10.196   4.071  0.9721 -1.5521  0.0982
  934MOL0     H26041   7.422  10.332   4.426  1.9602  0.2897 -1.7483
  934MOL0     H26042   7.152  10.224   4.538 -0.9303 -0.8329 -0.6467
  934MOL0     H26043   7.184  10.054   4.577 -1.8838  1.5385  1.4672
  934MOL0     H26044   7.344  10.299   4.641 -0.0001 -0.1778  0.6373
  934MOL0     H26045   7.383  10.137   4.704 -0.6658 -1.4431 -0.3271
  934MOL0     H26046   7.132  10.136   4.810 -3.0116  1.8600 -1.0901
  934MOL0     H26047   7.121  10.301   4.769 -1.9753 -0.3289  2.5606
  934MOL0     H26048   7.312  10.355   4.894 -0.4725  0.1654  0.7055
  934MOL0     H26049   7.355  10.180   4.911  0.8211  1.0336  2.1724
  934MOL0     H26050   7.239  10.255   5.301  2.1803 -0.9453 -0.6502
  934MOL0     H26051   7.311  10.045   5.538  1.1310  0.7136 -0.0711
  934MOL0     H26052   7.239  10.200   5.498  3.4868  0.1613 -0.7102
  934MOL0     H26053   7.128  10.067   5.530 -1.0852 -0.5974 -0.7293
  934MOL0     H26054   7.069   9.614   5.575  1.5280  0.6690 -0.3729
  934MOL0     H26055   7.099   9.440   5.732 -0.6494  1.2960 -1.2014
  934MOL0     H26056   7.263   9.524   6.040 -0.9488  0.5606 -1.4081
  934MOL0     H26057   7.136   9.418   5.994  0.6853 -1.8830 -0.6995
  934MOL0     H26058   7.267   9.229   6.045  1.1053  0.7559 -2.4759
  934MOL0     H26059   7.394   9.348   6.112 -0.2621  1.1883 -1.2591
  934MOL0     H26060   7.116   9.282   6.233  1.1666 -0.6235  0.4389
  934MOL0     H26061   7.206   9.436   6.255 -0.5829  1.1959 -2.9041
  934MOL0     H26062   7.237   9.212   6.422  0.5697  2.1071  3.4909
  934MOL0     H26063   7.343   9.171   6.285  2.8511  0.2212  1.7632
  934MOL0     H26064   7.367   9.438   6.418 -3.0209 -1.9523  0.9970
  934MOL0     H26065   7.481   9.370   6.317  0.7004 -1.4814  0.8710
  934MOL0     H26066   7.559   9.366   6.551 -0.2066  0.5823  1.7118
  934MOL0     H26067   7.406   9.310   6.608  0.9249  1.0730  0.8992
  934MOL0     H26068   7.602   9.130   6.446 -1.6428  2.0902 -1.6662
  934MOL0     H26069   7.442   9.091   6.502  0.1163  1.6476 -0.6235
  934MOL0     H26070   7.587   9.001   6.668 -3.0915 -0.1742 -1.1157
  934MOL0     H26071   7.521   9.142   6.744  1.8730  0.8551  0.9626
  934MOL0     H26072   7.495   9.610   5.814  2.0103 -0.8975 -3.7425
  934MOL0     H26073   7.431   9.793   5.665 -1.5980  1.0457 -1.8979
  934MOL0     H26074   7.191   9.805   5.102  5.7446  0.1366 -2.1601
  934MOL0     H26075   7.196   9.971   4.969  1.8410 -3.3755  1.6659
  934MOL0     H26076   7.857  11.149   3.619  1.5124  3.1315 -1.1056
  934MOL0     H26077   7.900  11.352   3.775  0.7372  0.6442 -0.1510
  934MOL0     H26078   7.977  11.543   4.123  0.9232 -1.4250 -0.1291
  934MOL0     H26079   8.020  11.717   4.286 -0.3835  1.1566 -1.5298
  934MOL0     H26080   8.372  11.730   4.424  0.6983 -0.0612  2.8476
  934MOL0     H26081   8.408  11.901   4.435  1.1714 -1.2574 -3.8960
  934MOL0     H26082   8.189  11.744   4.587 -1.3587 -0.5183 -0.5417
  934MOL0     H26083   8.168  11.909   4.564  0.3617 -1.8730 -2.0668
  934MOL0     H26084   8.427  11.918   4.692 -0.9765  1.0873 -1.1523
  934MOL0     H26085   8.377  11.752   4.711 -1.9158 -0.2074  1.8921
  934MOL0     H26086   8.249  12.018   4.804  0.7703  0.2463  1.4190
  934MOL0     H26087   8.310  11.880   4.905 -3.5294 -2.8634  0.6448
  934MOL0     H26088   7.908  11.781   4.884 -0.2531  0.6842 -0.2643
  934MOL0     H26089   8.432  11.759   4.170 -0.1479  0.6751  1.6015
  934MOL0     H26090   8.400  11.587   3.984 -1.6881  0.4901 -2.8307
  935MOL0     O26091  10.831   2.156  10.853  0.3366 -0.3902  0.1052
  935MOL0     C26092  10.945   2.118  10.826  0.8846  0.9418 -0.6180
  935MOL0     O26093  11.002   2.001  10.869  0.2544 -1.2100 -0.5763
  935MOL0     C26094  10.953   1.911  10.957 -0.1298  0.7234 -1.2312
  935MOL0     C26095  11.022   1.783  10.951  1.4802 -0.3149  1.0155
  935MOL0     C26096  10.962   1.678  11.018  0.7332 -0.1138 -0.9964
  935MOL0     C26097  10.857   1.693  11.108  0.6580  0.2035 -0.4645
  935MOL0     O26098  10.808   1.580  11.175 -0.7819 -0.5679 -0.1669
  935MOL0     C26099  10.706   1.504  11.106 -0.1276 -0.3894 -0.4403
  935MOL0     C26100  10.769   1.386  11.033 -0.5484 -0.4070 -0.0193
  935MOL0     C26101  10.650   1.293  10.993 -0.1006  0.0613  0.2354
  935MOL0     C26102  10.702   1.166  10.918  0.8794 -0.3054  0.5386
  935MOL0     C26103  10.586   1.068  10.886 -0.5401 -0.1364 -1.3040
  935MOL0     C26104  10.642   0.935  10.846  0.8021 -0.9027 -0.0132
  935MOL0     C26105  10.527   0.843  10.787 -0.5681  0.3679  0.3661
  935MOL0     C26106  10.574   0.709  10.740 -0.1996  0.5220  0.4873
  935MOL0     N26107  10.469   0.623  10.677 -0.1256  0.1155 -0.0028
  935MOL0     C26108  10.407   0.516  10.739  0.3857  0.5483  0.1115
  935MOL0     C26109  10.331   0.452  10.645  0.1103 -0.6792  0.8714
  935MOL0     C26110  10.249   0.323  10.649  0.0597  0.9462  0.1619
  935MOL0     C26111  10.320   0.195  10.592  0.6215 -1.4490  0.2665
  935MOL0     C26112  10.347   0.203  10.452 -0.9147 -0.0281  0.4015
  935MOL0     C26113  10.245   0.254  10.340  0.1659 -0.4076  0.4481
  935MOL0     O26114  10.111   0.202  10.357 -0.5673 -0.5485 -0.0220
  935MOL0     C26115   9.996   0.281  10.383  0.0453  0.8718 -0.3051
  935MOL0     C26116   9.996   0.419  10.424 -0.0329  0.2823  0.1953
  935MOL0     C26117   9.880   0.478  10.478 -0.5842 -0.7310 -0.6267
  935MOL0     C26118   9.886   0.621  10.520 -0.6549  0.3825 -0.2537
  935MOL0     C26119   9.757   0.407  10.472  0.2953  0.7205  0.1259
  935MOL0     C26120   9.619   0.453  10.523  0.0105 -0.2131 -0.2640
  935MOL0     O26121   9.511   0.419  10.441 -0.0168 -0.0520 -0.2633
  935MOL0     C26122   9.379   0.431  10.482  0.2643  0.1692 -0.1277
  935MOL0     C26123   9.284   0.420  10.376  0.6450 -0.0534 -0.0768
  935MOL0     C26124   9.150   0.438  10.400  0.5064 -0.0303 -0.9417
  935MOL0     C26125   9.103   0.473  10.535  0.2879  0.4873 -0.7865
  935MOL0     O26126   8.966   0.491  10.549 -0.2060 -0.9005  0.0576
  935MOL0     C26127   8.921   0.571  10.654 -0.1671 -0.3581  0.1861
  935MOL0     C26128   8.776   0.593  10.636 -0.2417  0.4751 -0.0599
  935MOL0     C26129   8.701   0.633  10.766 -0.3754  1.7555 -0.8037
  935MOL0     C26130   8.758   0.749  10.841  0.3147  1.4236  0.0663
  935MOL0     C26131   8.760   0.879  10.758  0.7144 -0.0874 -0.2479
  935MOL0     C26132   8.824   1.003  10.834  0.3898 -0.3959  0.0012
  935MOL0     C26133   8.894   1.112  10.746 -1.1914 -0.4605  0.5690
  935MOL0     C26134   8.800   1.210  10.677  0.4332  0.6862  0.8721
  935MOL0    Cl26135   8.728   1.318  10.799  0.1945  0.1479 -0.0148
  935MOL0     C26136   9.189   0.474  10.646 -0.1183  0.3877  0.7552
  935MOL0     C26137   9.327   0.445  10.616  0.6531 -0.6776 -0.5863
  935MOL0     O26138   9.619   0.492  10.639  0.3994  0.0182  0.3099
  935MOL0     C26139   9.758   0.271  10.421  0.6224  0.1540  1.2569
  935MOL0     C26140   9.873   0.209  10.382 -0.3603  0.2959 -0.3107
  935MOL0     N26141  10.358   0.520  10.528 -0.2866  0.7166 -0.0799
  935MOL0     N26142  10.439   0.620  10.546 -0.0179  0.1194  0.1586
  935MOL0     C26143  10.796   1.817  11.122  0.7519  0.5931  0.6364
  935MOL0     C26144  10.840   1.927  11.041  0.4603  0.5261  0.2749
  935MOL0     C26145  11.012   2.178  10.713  0.3753 -0.5554  0.5722
  935MOL0     C26146  10.936   2.268  10.630 -0.6766 -0.0706  0.0863
  935MOL0     C26147  10.991   2.305  10.508  0.4695  0.0471 -0.1799
  935MOL0     C26148  11.115   2.274  10.462  0.2863  0.2208  0.7443
  935MOL0     O26149  11.169   2.334  10.344  0.5103 -0.2064  0.4204
  935MOL0     C26150  11.301   2.285  10.289  0.4144 -0.2899 -0.4853
  935MOL0     C26151  11.297   2.159  10.210 -0.4202 -0.6833 -0.5802
  935MOL0     C26152  11.185   2.157  10.108  1.0700 -0.2711 -0.6376
  935MOL0     C26153  11.146   2.028  10.040  0.5421  0.0492  0.6372
  935MOL0     C26154  11.262   1.981   9.959  0.4819 -0.3424  0.0043
  935MOL0     C26155  11.355   1.931   9.900 -0.3073 -0.5217 -0.3776
  935MOL0     C26156  11.192   2.187  10.541  0.3839 -0.0896 -0.5596
  935MOL0     C26157  11.142   2.149  10.669  0.7686 -0.6375  1.0222
  935MOL0     H26158  11.119   1.772  10.903  1.8378  2.1670  1.0624
  935MOL0     H26159  11.016   1.584  11.030 -2.7321 -1.9406  2.7988
  935MOL0     H26160  10.640   1.462  11.183 -0.7443 -1.5447 -1.5766
  935MOL0     H26161  10.647   1.542  11.022 -0.3673 -0.6329 -0.3829
  935MOL0     H26162  10.829   1.419  10.948  3.2063 -4.0522  0.8918
  935MOL0     H26163  10.840   1.337  11.100  0.7277  2.3101  0.7617
  935MOL0     H26164  10.591   1.255  11.077 -0.7363 -3.8476 -1.7661
  935MOL0     H26165  10.584   1.351  10.929 -2.6051 -0.1268  2.4739
  935MOL0     H26166  10.741   1.200  10.822 -0.1842 -0.5588 -0.0041
  935MOL0     H26167  10.780   1.112  10.971 -0.4349 -1.9698  0.8697
  935MOL0     H26168  10.532   1.043  10.978  2.2853 -0.7868  0.2941
  935MOL0     H26169  10.510   1.106  10.818 -1.7552 -1.9289 -1.0246
  935MOL0     H26170  10.710   0.956  10.764 -2.4496  2.2977 -2.1785
  935MOL0     H26171  10.698   0.891  10.929  0.2667 -0.9891  0.3127
  935MOL0     H26172  10.442   0.823  10.852 -0.8544  2.4967  0.7353
  935MOL0     H26173  10.483   0.903  10.707  0.3819  2.6588  1.4417
  935MOL0     H26174  10.621   0.660  10.825  4.9046 -0.0031 -2.2182
  935MOL0     H26175  10.654   0.714  10.666 -0.3073 -1.3464  0.1777
  935MOL0     H26176  10.410   0.487  10.843  2.1705 -2.6456 -0.7117
  935MOL0     H26177  10.235   0.296  10.754 -3.0294 -0.2424 -0.4272
  935MOL0     H26178  10.152   0.336  10.599  1.6844  0.6682 -3.3356
  935MOL0     H26179  10.260   0.108  10.620 -2.3164  0.4804  0.5122
  935MOL0     H26180  10.414   0.171  10.641  0.2839 -1.1451  1.0853
  935MOL0     H26181  10.376   0.100  10.431 -0.9788  0.1243 -0.4608
  935MOL0     H26182  10.435   0.267  10.436 -1.4758  0.3451 -1.3637
  935MOL0     H26183  10.288   0.222  10.244  1.7433 -2.7598  1.8474
  935MOL0     H26184  10.235   0.362  10.330  2.0702 -0.3454 -1.9316
  935MOL0     H26185  10.089   0.475  10.425  0.1361  0.1773 -2.3985
  935MOL0     H26186   9.816   0.688  10.468 -0.4466  0.0678 -0.9555
  935MOL0     H26187   9.867   0.625  10.627 -1.8215 -0.8847 -0.3958
  935MOL0     H26188   9.983   0.673  10.520 -1.4145  1.8707 -0.4069
  935MOL0     H26189   9.325   0.397  10.278 -3.0626 -5.7125 -0.8175
  935MOL0     H26190   9.087   0.430  10.311 -1.1521  1.2100  0.0699
  935MOL0     H26191   8.934   0.499  10.736 -0.8803  0.3495  0.9434
  935MOL0     H26192   8.988   0.656  10.672 -0.4933 -0.5443  2.6577
  935MOL0     H26193   8.761   0.677  10.567 -0.3873  0.6300  0.1611
  935MOL0     H26194   8.734   0.504  10.590 -2.1054  0.7549  1.0272
  935MOL0     H26195   8.703   0.553  10.840 -0.4869  1.8711 -0.6746
  935MOL0     H26196   8.594   0.649  10.750 -1.2264  4.2087  4.8443
  935MOL0     H26197   8.695   0.765  10.929 -0.4562 -2.4531  0.3900
  935MOL0     H26198   8.856   0.727  10.886  0.0216 -0.2933 -0.0674
  935MOL0     H26199   8.660   0.909  10.724 -0.1389 -1.2032  1.2064
  935MOL0     H26200   8.828   0.858  10.674  2.9013 -1.0689  1.6694
  935MOL0     H26201   8.750   1.047  10.901 -0.5554 -1.9733  0.0465
  935MOL0     H26202   8.903   0.956  10.893  1.0705  1.0701  0.3021
  935MOL0     H26203   8.955   1.070  10.665 -4.3882  0.2243 -2.3871
  935MOL0     H26204   8.966   1.168  10.807 -0.2427  2.2897 -2.7552
  935MOL0     H26205   8.725   1.150  10.625 -2.8534  3.0079  2.5355
  935MOL0     H26206   8.842   1.266  10.593 -0.6593 -2.9648 -2.3830
  935MOL0     H26207   9.164   0.483  10.751  0.8549  1.6078  0.9080
  935MOL0     H26208   9.396   0.425  10.697 -0.1375  3.2234  1.2855
  935MOL0     H26209   9.665   0.214  10.419  0.9747 -0.6475 -3.0977
  935MOL0     H26210   9.871   0.107  10.346 -1.1607  0.3539 -0.4415
  935MOL0     H26211  10.703   1.810  11.177 -0.8680  1.7623 -1.7591
  935MOL0     H26212  10.793   2.024  11.054 -2.9284 -0.8664 -0.3937
  935MOL0     H26213  10.835   2.307  10.641 -0.7823  0.5802 -2.6155
  935MOL0     H26214  10.942   2.380  10.447  0.4597 -0.4800 -0.8371
  935MOL0     H26215  11.337   2.355  10.213  4.6055 -2.6132 -0.9681
  935MOL0     H26216  11.381   2.277  10.363  3.0494 -1.4746 -3.2387
  935MOL0     H26217  11.267   2.075  10.274  2.7343 -3.3909 -2.3318
  935MOL0     H26218  11.389   2.132  10.158  1.2735 -0.3678  2.0385
  935MOL0     H26219  11.211   2.225  10.026  3.4888 -1.2961 -0.8031
  935MOL0     H26220  11.093   2.202  10.148  1.9100  3.0470 -2.0308
  935MOL0     H26221  11.059   2.047   9.977  1.5305  4.5908  0.2607
  935MOL0     H26222  11.119   1.956  10.118  3.2171 -1.5633  0.1909
  935MOL0     H26223  11.423   1.902   9.822 -1.7557 -1.8203 -1.2084
  935MOL0     H26224  11.295   2.157  10.524  1.1298  1.1228  1.4334
  935MOL0     H26225  11.206   2.086  10.730 -0.0191  0.5968  3.2657
  936MOL0     O26226  10.588   7.130   9.730 -0.3635  0.2459 -0.4406
  936MOL0     C26227  10.471   7.104   9.716  0.3022 -0.1437 -0.0724
  936MOL0     O26228  10.413   6.987   9.663 -0.6239  0.2765 -0.1326
  936MOL0     C26229  10.497   6.891   9.613 -1.0496 -0.0307 -0.4733
  936MOL0     C26230  10.613   6.829   9.675  0.9121 -0.6128  0.3310
  936MOL0     C26231  10.675   6.719   9.615  0.0908  0.2480 -0.3335
  936MOL0     C26232  10.635   6.672   9.499  1.0230 -0.4595 -0.9490
  936MOL0     O26233  10.700   6.566   9.440  0.0685 -0.2237  0.2439
  936MOL0     C26234  10.843   6.577   9.417  1.5869  0.1745 -0.4065
  936MOL0     C26235  10.881   6.496   9.294  0.0410 -1.1990  1.0973
  936MOL0     C26236  11.028   6.473   9.289 -0.3427  0.1531 -0.2786
  936MOL0     C26237  11.072   6.408   9.161  0.2237 -1.2525  0.1667
  936MOL0     C26238  10.992   6.288   9.113 -0.7254 -0.7658  1.1027
  936MOL0     C26239  11.048   6.216   8.988  0.2690 -1.0006  0.2345
  936MOL0     C26240  10.947   6.134   8.916 -0.6790  0.2571 -0.9353
  936MOL0     C26241  11.024   6.016   8.840  0.4273  0.3788  0.4624
  936MOL0     N26242  11.043   5.885   8.906  0.5271 -0.0062  0.8475
  936MOL0     C26243  11.065   5.760   8.841 -0.1961 -0.3845 -0.2705
  936MOL0     C26244  11.073   5.663   8.938  0.8149 -0.0802  0.1129
  936MOL0     C26245  11.086   5.518   8.916  0.6964 -0.0234 -0.3390
  936MOL0     C26246  10.947   5.452   8.919  0.0194  0.7080 -0.2041
  936MOL0     C26247  10.840   5.512   8.810 -0.3980 -1.2539 -0.2377
  936MOL0     C26248  10.734   5.409   8.780 -0.4518  0.1663 -0.3805
  936MOL0     O26249  10.606   5.472   8.744 -0.5579  0.4779 -0.6241
  936MOL0     C26250  10.499   5.392   8.778 -0.0715 -0.8918  0.0334
  936MOL0     C26251  10.462   5.368   8.911  0.6032 -0.4565 -0.3756
  936MOL0     C26252  10.342   5.298   8.926  0.1023 -0.3417 -0.1580
  936MOL0     C26253  10.311   5.272   9.068  0.4852 -0.1662 -1.9033
  936MOL0     C26254  10.272   5.241   8.816 -0.2746 -0.7743  0.9922
  936MOL0     C26255  10.139   5.164   8.830  0.1506  0.2468  0.4325
  936MOL0     O26256  10.048   5.157   8.723  0.6620 -0.5599  0.5490
  936MOL0     C26257   9.931   5.095   8.747  0.6994 -0.1249  0.0786
  936MOL0     C26258   9.827   5.182   8.763 -1.3756  0.5387  1.0149
  936MOL0     C26259   9.697   5.136   8.780 -0.3468  0.1503  0.2742
  936MOL0     C26260   9.673   5.000   8.767  0.1804  0.2006 -0.3534
  936MOL0     O26261   9.551   4.943   8.758  0.5983  0.8553 -0.1449
  936MOL0     C26262   9.437   5.025   8.799 -0.3240 -0.1182  0.0362
  936MOL0     C26263   9.319   4.932   8.844 -0.1440 -0.4890  0.4511
  936MOL0     C26264   9.271   4.865   8.712  0.2859  0.0183 -0.0157
  936MOL0     C26265   9.139   4.794   8.764 -0.3559  0.4474  0.3087
  936MOL0     C26266   9.105   4.673   8.683 -0.3864 -0.5133  0.5659
  936MOL0     C26267   8.957   4.634   8.682  0.0399  0.1311 -0.5059
  936MOL0     C26268   8.890   4.594   8.819  0.6926 -0.1320 -0.8490
  936MOL0     C26269   8.765   4.517   8.788  0.1107 -0.0204  0.7688
  936MOL0    Cl26270   8.696   4.508   8.959 -0.3179 -0.1372 -0.1426
  936MOL0     C26271   9.774   4.910   8.753 -0.0550  0.0268  0.1598
  936MOL0     C26272   9.907   4.959   8.741  0.1326  0.8273 -0.0025
  936MOL0     O26273  10.117   5.113   8.943  0.4999  0.1487  0.3945
  936MOL0     C26274  10.313   5.272   8.684  0.9621  0.1491 -0.2571
  936MOL0     C26275  10.427   5.347   8.668  0.3630  0.6655  0.3373
  936MOL0     N26276  11.049   5.727   9.053  0.1572  0.8509 -1.0838
  936MOL0     N26277  11.032   5.851   9.038 -0.6523 -0.4479 -0.3073
  936MOL0     C26278  10.528   6.725   9.434 -0.8161 -0.6869 -0.9630
  936MOL0     C26279  10.465   6.836   9.488  0.7850 -0.1393  0.3616
  936MOL0     C26280  10.363   7.195   9.771 -0.9045  1.0065  0.2237
  936MOL0     C26281  10.225   7.163   9.750  0.6519 -0.9231 -0.0864
  936MOL0     C26282  10.137   7.263   9.787 -0.1813  0.4027 -0.7275
  936MOL0     C26283  10.175   7.381   9.847 -0.4626 -0.1893 -1.0368
  936MOL0     O26284  10.076   7.470   9.891 -0.4507 -0.0902 -0.8502
  936MOL0     C26285  10.067   7.598   9.835 -0.4681 -0.5651 -0.2211
  936MOL0     C26286   9.926   7.638   9.827 -0.5064  0.7049  0.7827
  936MOL0     C26287   9.921   7.767   9.740  0.0164  0.3935  0.4103
  936MOL0     C26288   9.784   7.836   9.764  0.8159 -0.4743 -0.1793
  936MOL0     C26289   9.777   7.909   9.890  0.0428  0.6683 -0.2277
  936MOL0     C26290   9.771   7.972   9.996 -0.0544  0.3506  0.0449
  936MOL0     C26291  10.308   7.403   9.879 -0.4321  0.7567  0.0760
  936MOL0     C26292  10.403   7.304   9.844 -0.1348  0.3377 -0.8110
  936MOL0     H26293  10.650   6.869   9.769 -0.6229  2.1741 -0.1188
  936MOL0     H26294  10.755   6.677   9.675 -0.3067  1.3499  1.0273
  936MOL0     H26295  10.897   6.671   9.406  3.9764 -0.8057  1.8273
  936MOL0     H26296  10.892   6.527   9.501  0.0060  1.0818  1.1234
  936MOL0     H26297  10.824   6.403   9.293 -1.2334 -0.4310  0.8998
  936MOL0     H26298  10.838   6.550   9.209 -1.7392 -0.8860  2.1508
  936MOL0     H26299  11.083   6.568   9.286 -0.7462  0.4248  0.6604
  936MOL0     H26300  11.060   6.414   9.375  2.2966 -0.7708 -1.7723
  936MOL0     H26301  11.060   6.473   9.074 -0.5681  1.5368  2.1923
  936MOL0     H26302  11.179   6.384   9.164  0.1481 -1.7711 -0.8609
  936MOL0     H26303  10.991   6.214   9.194  1.7441 -1.7042  0.3610
  936MOL0     H26304  10.895   6.334   9.094 -1.4454 -2.1721  1.2831
  936MOL0     H26305  11.106   6.282   8.922 -0.5985 -0.7946 -0.3344
  936MOL0     H26306  11.126   6.150   9.027  2.9481  1.1925 -1.0351
  936MOL0     H26307  10.875   6.097   8.990  2.8206 -2.2583  1.5012
  936MOL0     H26308  10.890   6.196   8.845 -1.2159  0.1672 -0.5876
  936MOL0     H26309  11.119   6.054   8.800 -1.0218  3.1272 -0.6399
  936MOL0     H26310  10.956   5.987   8.759 -0.1863  2.6739  0.0806
  936MOL0     H26311  11.069   5.734   8.736  0.6998 -1.5307  0.0217
  936MOL0     H26312  11.142   5.500   8.824 -1.2792  1.5253 -1.9749
  936MOL0     H26313  11.151   5.477   8.993 -0.2745 -0.1328  0.4384
  936MOL0     H26314  10.911   5.440   9.021  1.2332 -1.7250  0.0064
  936MOL0     H26315  10.961   5.348   8.888 -1.0748  0.8945 -1.4360
  936MOL0     H26316  10.885   5.557   8.720  0.3376 -1.6135 -0.0603
  936MOL0     H26317  10.790   5.592   8.864 -0.2145 -1.3437  0.0687
  936MOL0     H26318  10.716   5.346   8.868  0.8363 -1.3913 -1.1570
  936MOL0     H26319  10.774   5.352   8.695  0.9293  3.3369 -2.0311
  936MOL0     H26320  10.527   5.412   8.986  0.9849 -0.4094 -0.7339
  936MOL0     H26321  10.369   5.342   9.129 -1.3306 -0.4715  0.3076
  936MOL0     H26322  10.204   5.282   9.086  0.6412  1.8426 -1.8786
  936MOL0     H26323  10.341   5.171   9.098  1.5436  0.2588 -1.4795
  936MOL0     H26324   9.827   5.290   8.751  0.6773  0.4461 -0.3281
  936MOL0     H26325   9.617   5.207   8.798  0.7609  1.3191  0.7519
  936MOL0     H26326   9.476   5.073   8.890 -1.2920  1.7658 -0.4894
  936MOL0     H26327   9.388   5.096   8.732  3.3685  0.7082 -2.0646
  936MOL0     H26328   9.353   4.865   8.923 -0.7050  3.2326  4.1887
  936MOL0     H26329   9.234   4.988   8.882 -1.9226 -3.5318  1.2195
  936MOL0     H26330   9.347   4.794   8.679  1.8355  2.7395 -2.7723
  936MOL0     H26331   9.246   4.945   8.643  0.2685  3.2786  3.4562
  936MOL0     H26332   9.140   4.759   8.867 -0.7204 -0.1625  0.1153
  936MOL0     H26333   9.050   4.858   8.763 -0.8108 -0.1414 -1.5951
  936MOL0     H26334   9.166   4.585   8.703 -1.0908 -1.4893 -1.3514
  936MOL0     H26335   9.140   4.698   8.583 -0.2912  0.2527  0.7834
  936MOL0     H26336   8.892   4.716   8.650  0.1136 -0.0356 -1.1110
  936MOL0     H26337   8.954   4.548   8.614 -0.7798 -1.0928  1.0160
  936MOL0     H26338   8.863   4.688   8.870 -0.0686  0.6095 -2.5541
  936MOL0     H26339   8.956   4.545   8.891  0.9371 -0.0361 -1.0061
  936MOL0     H26340   8.807   4.423   8.752 -0.2972  1.4475 -4.1960
  936MOL0     H26341   8.694   4.554   8.713  1.4215 -1.3552 -1.2270
  936MOL0     H26342   9.774   4.801   8.747  1.3302  0.0780 -3.8272
  936MOL0     H26343   9.988   4.886   8.735 -0.7448 -0.2255  0.5572
  936MOL0     H26344  10.252   5.241   8.599  0.3008  0.2809  0.1589
  936MOL0     H26345  10.449   5.386   8.569  0.5133 -0.1059  0.0607
  936MOL0     H26346  10.499   6.686   9.337 -1.6622 -1.0648 -0.5627
  936MOL0     H26347  10.379   6.880   9.439  0.2168 -2.8098 -1.2685
  936MOL0     H26348  10.181   7.073   9.709 -0.6865 -0.2170 -0.2452
  936MOL0     H26349  10.033   7.253   9.759  0.4736 -3.6687 -2.3042
  936MOL0     H26350  10.111   7.677   9.896 -2.7545 -0.1896  1.0784
  936MOL0     H26351  10.121   7.600   9.741 -0.2100  0.7192 -0.0624
  936MOL0     H26352   9.898   7.644   9.932  4.3840  1.4192  2.2855
  936MOL0     H26353   9.868   7.560   9.776  0.5379  0.0111  0.6147
  936MOL0     H26354   9.938   7.743   9.635  1.8985  0.0817  0.7487
  936MOL0     H26355  10.004   7.830   9.772  1.5249 -1.9986  1.5756
  936MOL0     H26356   9.702   7.769   9.739 -0.9633  1.7652 -0.6346
  936MOL0     H26357   9.776   7.904   9.679 -1.1181 -1.7718 -1.0995
  936MOL0     H26358   9.767   8.041  10.078 -0.5368 -3.1144  3.2080
  936MOL0     H26359  10.340   7.488   9.938 -1.9219  1.1722  0.3354
  936MOL0     H26360  10.510   7.320   9.856 -0.0703 -0.0110 -0.8960
  937MOL0     O26361   4.245   5.178   8.064 -0.4151  0.2099 -0.1595
  937MOL0     C26362   4.187   5.276   8.099  0.6076  0.6369 -0.5270
  937MOL0     O26363   4.227   5.356   8.202 -0.1938  0.2745  0.6068
  937MOL0     C26364   4.344   5.333   8.258 -0.3904  0.9721  0.3884
  937MOL0     C26365   4.359   5.344   8.393 -0.1493 -0.1683  0.8876
  937MOL0     C26366   4.481   5.335   8.451  0.1866  0.7884 -0.0931
  937MOL0     C26367   4.596   5.314   8.375 -0.1741 -0.5928 -0.1815
  937MOL0     O26368   4.723   5.293   8.433 -0.2484 -0.4154 -0.6156
  937MOL0     C26369   4.765   5.378   8.541  0.3866  0.1370  0.1032
  937MOL0     C26370   4.914   5.342   8.557 -0.2040 -0.5654  0.5095
  937MOL0     C26371   4.972   5.431   8.674 -0.7019 -1.4154  0.5776
  937MOL0     C26372   5.109   5.362   8.720 -0.2817  0.8010  0.2022
  937MOL0     C26373   5.091   5.254   8.823 -0.6647 -0.6561 -0.0240
  937MOL0     C26374   5.216   5.172   8.846  0.4034 -0.1319  0.5238
  937MOL0     C26375   5.201   5.044   8.934  0.5776  0.1241 -0.0184
  937MOL0     C26376   5.114   4.961   8.848  0.1218  0.9922  0.9823
  937MOL0     N26377   5.131   4.819   8.880  0.5912 -0.1958  0.2479
  937MOL0     C26378   5.062   4.757   8.985 -0.1694 -0.4658 -0.4311
  937MOL0     C26379   5.105   4.629   8.976  0.2043  0.3640  0.3763
  937MOL0     C26380   5.066   4.515   9.065  0.5888  0.1152  1.2251
  937MOL0     C26381   4.966   4.558   9.178  0.8426 -0.5391 -0.6809
  937MOL0     C26382   4.953   4.438   9.272 -0.8099  0.8697 -0.1484
  937MOL0     C26383   4.833   4.461   9.366  0.5498  0.3748 -0.0740
  937MOL0     O26384   4.864   4.557   9.470 -0.8315  0.1932 -0.4801
  937MOL0     C26385   4.759   4.588   9.555  0.1530  0.5179  0.5575
  937MOL0     C26386   4.794   4.687   9.645 -0.1885 -0.1749  0.8948
  937MOL0     C26387   4.704   4.729   9.745  0.0039 -0.2876  0.1249
  937MOL0     C26388   4.757   4.824   9.852  0.0321 -0.5377  0.0084
  937MOL0     C26389   4.570   4.683   9.738  0.2142  0.1921  0.6202
  937MOL0     C26390   4.458   4.737   9.826 -0.1640  0.1000  0.1781
  937MOL0     O26391   4.338   4.691   9.782  0.2445  0.2765  0.0533
  937MOL0     C26392   4.218   4.739   9.828  0.3558 -1.0782  0.9810
  937MOL0     C26393   4.189   4.880   9.839  0.6406 -0.0503  0.0076
  937MOL0     C26394   4.068   4.936   9.871  0.0068  0.0421 -0.0105
  937MOL0     C26395   3.968   4.855   9.912  0.8383  1.0362 -0.7654
  937MOL0     O26396   3.851   4.919   9.953 -0.7103  1.0491 -0.2185
  937MOL0     C26397   3.742   4.855  10.013 -1.2252  1.4039 -0.1559
  937MOL0     C26398   3.773   4.781  10.144  0.2098 -0.6594 -1.0123
  937MOL0     C26399   3.814   4.886  10.255  0.3416 -0.3559 -0.7860
  937MOL0     C26400   3.704   4.991  10.283 -1.8268 -0.1724  0.6394
  937MOL0     C26401   3.725   5.084  10.414 -0.1255  0.1940  0.1556
  937MOL0     C26402   3.630   5.203  10.403 -1.0339  0.4266  0.1193
  937MOL0     C26403   3.664   5.292  10.530 -0.1016  0.1458  0.0356
  937MOL0     C26404   3.578   5.418  10.549 -0.0263 -0.8704  0.5925
  937MOL0    Cl26405   3.650   5.492  10.704  0.5481  0.7731 -0.1492
  937MOL0     C26406   3.980   4.719   9.899 -0.8162 -0.5167 -0.5673
  937MOL0     C26407   4.115   4.659   9.861  0.7075 -0.1729  0.2000
  937MOL0     O26408   4.473   4.822   9.908  0.1633  0.2079 -0.6099
  937MOL0     C26409   4.534   4.592   9.637  0.6801  0.6777  0.2782
  937MOL0     C26410   4.623   4.540   9.549 -1.6724 -0.1436  1.5513
  937MOL0     N26411   5.207   4.628   8.883  0.0021  0.4002  0.2417
  937MOL0     N26412   5.216   4.735   8.818 -0.5047  0.0090 -0.6425
  937MOL0     C26413   4.585   5.297   8.239  0.1046 -0.5860  0.4190
  937MOL0     C26414   4.460   5.308   8.180  0.1679  0.0406  0.0244
  937MOL0     C26415   4.067   5.319   8.022  0.0109 -0.4575 -0.3940
  937MOL0     C26416   4.031   5.250   7.904  0.9480  0.3254  0.1461
  937MOL0     C26417   3.923   5.299   7.831 -0.4851 -0.5720  0.0004
  937MOL0     C26418   3.850   5.415   7.868 -0.9887  0.1822 -0.4055
  937MOL0     O26419   3.742   5.451   7.797 -0.7495  0.2824 -0.4282
  937MOL0     C26420   3.656   5.342   7.772 -0.3981 -0.1898  0.9442
  937MOL0     C26421   3.518   5.394   7.751  0.7948 -1.1923  0.5459
  937MOL0     C26422   3.419   5.275   7.717 -0.1597 -1.2065 -0.1198
  937MOL0     C26423   3.291   5.329   7.651 -0.0773  0.2209  0.1205
  937MOL0     C26424   3.211   5.373   7.760  0.5288 -1.4237  0.2290
  937MOL0     C26425   3.156   5.408   7.864  0.7567  0.1124 -0.4921
  937MOL0     C26426   3.881   5.474   7.983 -0.4854 -0.7108 -0.7512
  937MOL0     C26427   3.997   5.434   8.062  0.3924  0.2182  0.0460
  937MOL0     H26428   4.281   5.365   8.464  1.2302  2.0301  1.8551
  937MOL0     H26429   4.494   5.323   8.558  1.2242 -2.5497 -0.4552
  937MOL0     H26430   4.737   5.480   8.514  2.4294  1.2865  1.9799
  937MOL0     H26431   4.708   5.359   8.633 -3.3631  3.8849 -1.1434
  937MOL0     H26432   4.924   5.237   8.588 -2.1672 -1.1126 -0.5654
  937MOL0     H26433   4.961   5.365   8.461  0.8641  0.1444  1.1695
  937MOL0     H26434   4.990   5.528   8.626 -0.7189 -0.5218  2.2912
  937MOL0     H26435   4.900   5.439   8.756 -4.0278 -1.9856 -2.0554
  937MOL0     H26436   5.150   5.321   8.627 -2.0222  0.4185 -0.4357
  937MOL0     H26437   5.182   5.434   8.758  2.0373 -2.0523  1.6354
  937MOL0     H26438   5.088   5.305   8.920  0.7723  0.0580 -0.3244
  937MOL0     H26439   5.001   5.194   8.811 -0.5293 -0.8469 -0.1017
  937MOL0     H26440   5.261   5.156   8.747  0.9882  0.7126  0.6474
  937MOL0     H26441   5.286   5.234   8.903  0.4015  0.0261  0.3551
  937MOL0     H26442   5.291   4.987   8.960 -0.0605 -0.6440  0.5630
  937MOL0     H26443   5.143   5.070   9.023  0.0270 -2.4843  0.4505
  937MOL0     H26444   5.144   4.978   8.744  2.1445  1.6534  1.6291
  937MOL0     H26445   5.009   4.992   8.862  0.0260  0.4060  1.5854
  937MOL0     H26446   4.988   4.805   9.047  0.9099 -1.6794  1.9667
  937MOL0     H26447   5.025   4.444   8.993  1.0643 -0.5587  1.6168
  937MOL0     H26448   5.155   4.465   9.104 -0.6410 -2.3655  1.0328
  937MOL0     H26449   4.867   4.585   9.142  1.0711  0.2915 -0.6998
  937MOL0     H26450   4.992   4.655   9.220 -2.9090  0.2248  0.2625
  937MOL0     H26451   5.045   4.412   9.324 -1.3652 -3.0708 -0.8477
  937MOL0     H26452   4.940   4.352   9.206 -0.8252 -0.7238  1.8538
  937MOL0     H26453   4.802   4.362   9.400 -2.0141  2.0550  2.9660
  937MOL0     H26454   4.750   4.492   9.302 -0.3774  0.3180  1.0700
  937MOL0     H26455   4.899   4.717   9.646  0.6398 -2.7765  2.5873
  937MOL0     H26456   4.738   4.923   9.810 -3.4875 -1.2778 -0.5043
  937MOL0     H26457   4.712   4.821   9.952  1.8230 -0.6361  0.8532
  937MOL0     H26458   4.862   4.806   9.874 -0.7868 -1.9865  3.3729
  937MOL0     H26459   4.271   4.948   9.819 -1.7450  2.9119 -0.2459
  937MOL0     H26460   4.062   5.043   9.886  0.4413 -0.0393  0.7742
  937MOL0     H26461   3.664   4.928  10.033  0.1021  2.2284  2.4401
  937MOL0     H26462   3.709   4.776   9.944 -3.7133  2.0847  0.1576
  937MOL0     H26463   3.697   4.722  10.195  1.9511  0.3808  3.2783
  937MOL0     H26464   3.862   4.717  10.141  0.8467  0.0365  1.0433
  937MOL0     H26465   3.915   4.925  10.239  0.0841  1.6250  1.8659
  937MOL0     H26466   3.827   4.837  10.352  1.2291 -0.1938 -0.8158
  937MOL0     H26467   3.698   5.064  10.201  4.1041  0.2246  0.1517
  937MOL0     H26468   3.615   4.929  10.298 -1.7346 -0.1547  1.2863
  937MOL0     H26469   3.831   5.110  10.410  0.3864 -1.7434 -0.4295
  937MOL0     H26470   3.700   5.030  10.506 -0.8950  2.1650  1.1502
  937MOL0     H26471   3.652   5.264  10.315 -2.1537  1.1728  0.3315
  937MOL0     H26472   3.524   5.176  10.411 -1.2506  1.5509  1.4114
  937MOL0     H26473   3.771   5.312  10.543 -0.3410  1.6109 -0.0660
  937MOL0     H26474   3.633   5.237  10.619 -0.3863  1.0448  0.5049
  937MOL0     H26475   3.472   5.392  10.562 -0.1124 -0.5882  0.4769
  937MOL0     H26476   3.588   5.486  10.463  1.1146 -1.5847  0.1381
  937MOL0     H26477   3.901   4.651   9.930 -3.1116  2.6776  1.2089
  937MOL0     H26478   4.137   4.553   9.856 -2.5153 -0.9453  0.0380
  937MOL0     H26479   4.435   4.549   9.621  0.8403  0.1872  0.5937
  937MOL0     H26480   4.598   4.458   9.482  1.8008 -0.2646  0.2201
  937MOL0     H26481   4.682   5.281   8.193  1.5393 -0.5610  3.2069
  937MOL0     H26482   4.456   5.310   8.071 -0.7202  1.4884  0.0585
  937MOL0     H26483   4.074   5.159   7.863  0.8093  0.1438  0.3998
  937MOL0     H26484   3.882   5.246   7.746  1.7231 -1.4689 -0.5865
  937MOL0     H26485   3.693   5.291   7.683  0.9341 -3.3652  3.1385
  937MOL0     H26486   3.658   5.271   7.856  0.4391 -4.1442 -2.0990
  937MOL0     H26487   3.518   5.466   7.669  2.4076 -0.5488  1.0692
  937MOL0     H26488   3.479   5.435   7.845 -2.0100  0.1906 -1.0811
  937MOL0     H26489   3.393   5.227   7.812  0.0947 -0.3032  0.4086
  937MOL0     H26490   3.466   5.217   7.637  1.8717  2.1043 -1.5197
  937MOL0     H26491   3.236   5.248   7.602  0.7481 -0.7803  0.8006
  937MOL0     H26492   3.311   5.414   7.585  0.9043  0.1876  0.3666
  937MOL0     H26493   3.097   5.423   7.953  2.1922 -0.7671  0.6524
  937MOL0     H26494   3.839   5.572   8.005 -0.0864 -0.5956 -0.4979
  937MOL0     H26495   4.044   5.493   8.140  1.4248 -1.7642  1.0000
  938MOL0     O26496   4.392  11.159  11.383  0.2159 -0.2906  0.6177
  938MOL0     C26497   4.471  11.133  11.300 -0.6951 -0.3065  0.4464
  938MOL0     O26498   4.578  11.055  11.318 -0.8073 -0.2263  0.5912
  938MOL0     C26499   4.614  11.009  11.439  0.6188  0.5748  0.1735
  938MOL0     C26500   4.638  10.877  11.475 -0.0570  0.3518  0.3370
  938MOL0     C26501   4.658  10.833  11.609  0.0391 -0.3994 -0.2747
  938MOL0     C26502   4.684  10.935  11.705  0.1514 -0.0015  0.5841
  938MOL0     O26503   4.744  10.910  11.826 -0.4215  0.2236  0.0108
  938MOL0     C26504   4.792  10.776  11.864 -0.7131  0.0615 -0.2983
  938MOL0     C26505   4.828  10.759  12.011 -0.9390 -0.0871  0.2380
  938MOL0     C26506   4.942  10.866  12.055  0.5673 -0.3895 -0.3296
  938MOL0     C26507   4.992  10.846  12.201 -0.7262  0.1052 -0.2610
  938MOL0     C26508   4.882  10.845  12.306 -0.4652  0.5999 -0.4547
  938MOL0     C26509   4.837  10.991  12.328  0.7122  0.2767 -0.0763
  938MOL0     C26510   4.722  10.980  12.431  0.5046 -0.8590  0.9494
  938MOL0     C26511   4.696  11.109  12.507  0.0469  0.3059 -0.2834
  938MOL0     N26512   4.807  11.190  12.544 -0.2765  0.4122 -0.4307
  938MOL0     C26513   4.904  11.137  12.619 -0.4019 -0.8024 -0.0189
  938MOL0     C26514   5.018  11.224  12.600  1.2424 -0.4864 -0.8620
  938MOL0     C26515   5.153  11.231  12.654 -0.7644 -0.6960  1.1094
  938MOL0     C26516   5.216  11.086  12.681  0.0862 -0.1749  0.4102
  938MOL0     C26517   5.233  10.988  12.561 -0.5044 -0.1254 -0.5012
  938MOL0     C26518   5.285  11.052  12.434  0.3120  0.8234  0.5118
  938MOL0     O26519   5.410  11.120  12.459 -0.4350 -0.2168 -0.3675
  938MOL0     C26520   5.524  11.057  12.433  0.0760  0.5512  0.4350
  938MOL0     C26521   5.558  10.926  12.422  0.5193  0.6312 -0.1171
  938MOL0     C26522   5.680  10.873  12.390  0.1524 -0.3481 -0.8533
  938MOL0     C26523   5.697  10.724  12.409 -0.0761  0.3543 -1.0121
  938MOL0     C26524   5.784  10.972  12.361  0.3932  0.4927  0.1694
  938MOL0     C26525   5.924  10.937  12.313  0.0661  0.4178 -0.4811
  938MOL0     O26526   6.008  11.051  12.285 -0.2381 -0.1347 -0.0757
  938MOL0     C26527   6.128  11.023  12.217  0.8838  0.2226 -0.8416
  938MOL0     C26528   6.253  11.022  12.276 -0.0245  0.1099 -0.5545
  938MOL0     C26529   6.367  10.971  12.209  0.6060 -0.0524  0.5761
  938MOL0     C26530   6.353  10.921  12.071 -0.4544 -0.2736  0.3942
  938MOL0     O26531   6.463  10.864  12.007  0.2592  0.4522  0.1793
  938MOL0     C26532   6.505  10.938  11.888 -0.5545  0.0688 -1.3634
  938MOL0     C26533   6.551  11.083  11.909  1.2625  0.3037 -0.0046
  938MOL0     C26534   6.680  11.111  11.984  0.2252  0.5649  0.8519
  938MOL0     C26535   6.685  11.249  12.037 -0.6032  0.4204 -0.5078
  938MOL0     C26536   6.595  11.279  12.159 -0.5389 -0.3241  0.2813
  938MOL0     C26537   6.635  11.412  12.226 -0.9493  0.5437 -0.0848
  938MOL0     C26538   6.542  11.438  12.349  0.6697  0.7244  0.2284
  938MOL0     C26539   6.612  11.437  12.486  0.3878 -1.3148  0.5803
  938MOL0    Cl26540   6.666  11.280  12.557 -0.1886  0.2445  0.1337
  938MOL0     C26541   6.230  10.928  12.018  0.1552 -0.2488 -0.1358
  938MOL0     C26542   6.114  10.980  12.087  0.5643  0.1939  1.1524
  938MOL0     O26543   5.941  10.822  12.293 -0.8558  0.5961 -0.5986
  938MOL0     C26544   5.747  11.108  12.368 -0.8127 -0.3504 -0.5158
  938MOL0     C26545   5.624  11.154  12.416 -0.0968  0.6944 -1.3931
  938MOL0     N26546   4.972  11.314  12.506 -0.3877  0.0545  0.7838
  938MOL0     N26547   4.851  11.302  12.481 -0.1843 -0.0880 -0.5160
  938MOL0     C26548   4.675  11.063  11.660 -0.6876 -0.2316  0.5472
  938MOL0     C26549   4.626  11.104  11.539 -0.5589 -0.2446 -0.9962
  938MOL0     C26550   4.450  11.182  11.161  0.4054 -0.6364 -0.7049
  938MOL0     C26551   4.538  11.157  11.055 -1.2023 -0.7012 -0.4633
  938MOL0     C26552   4.531  11.222  10.931 -0.5575 -0.0239  0.3069
  938MOL0     C26553   4.414  11.292  10.909 -0.3768  0.1195  0.4174
  938MOL0     O26554   4.404  11.334  10.779 -0.1538 -0.5755 -0.2422
  938MOL0     C26555   4.386  11.236  10.676  0.2027  1.1756 -0.4923
  938MOL0     C26556   4.249  11.254  10.640  0.3617 -0.1549 -0.2942
  938MOL0     C26557   4.210  11.154  10.517  0.7052  0.1600 -0.6828
  938MOL0     C26558   4.200  11.208  10.377 -0.8622  0.2368 -0.0356
  938MOL0     C26559   4.167  11.104  10.277  0.3462 -0.6122 -0.3448
  938MOL0     C26560   4.131  11.010  10.214  0.5911 -0.7605  0.3388
  938MOL0     C26561   4.311  11.295  11.006  0.0093 -0.8098 -0.6942
  938MOL0     C26562   4.329  11.246  11.132  0.0610  0.8213  0.4365
  938MOL0     H26563   4.621  10.806  11.395  3.2950  0.2372 -0.4398
  938MOL0     H26564   4.676  10.730  11.637  3.0128 -1.1297 -4.0197
  938MOL0     H26565   4.716  10.699  11.850  1.1171 -1.5614 -1.9964
  938MOL0     H26566   4.884  10.771  11.805  0.7725  3.9143  1.3595
  938MOL0     H26567   4.743  10.754  12.080 -0.1816 -2.5077  1.1236
  938MOL0     H26568   4.873  10.660  12.025  2.0866  0.7615 -2.1971
  938MOL0     H26569   5.036  10.853  11.999  1.3875 -3.4998  1.4804
  938MOL0     H26570   4.920  10.970  12.030 -0.0462 -0.3852  0.2131
  938MOL0     H26571   5.034  10.745  12.204 -0.1201  0.2289 -2.6559
  938MOL0     H26572   5.082  10.906  12.218  1.9502 -3.3702 -0.8763
  938MOL0     H26573   4.801  10.779  12.275 -0.5684  0.5582 -0.1013
  938MOL0     H26574   4.925  10.808  12.399 -0.5584 -0.7574 -0.9262
  938MOL0     H26575   4.924  11.052  12.357  1.0196 -0.8960  1.6199
  938MOL0     H26576   4.802  11.029  12.232  0.5430  0.1962 -0.0463
  938MOL0     H26577   4.629  10.953  12.381  0.8496 -3.6419  1.5966
  938MOL0     H26578   4.728  10.901  12.507 -4.2126 -0.6934  1.8089
  938MOL0     H26579   4.655  11.069  12.600 -3.0103  2.2339 -0.6999
  938MOL0     H26580   4.629  11.176  12.454  1.9821  1.4582 -1.4132
  938MOL0     H26581   4.898  11.048  12.681  0.8197 -0.4757  0.6059
  938MOL0     H26582   5.212  11.279  12.576 -1.1837 -2.2457 -0.2226
  938MOL0     H26583   5.148  11.296  12.742 -1.0906  2.6948 -1.2480
  938MOL0     H26584   5.160  11.060  12.771 -2.0489  3.9034  0.4730
  938MOL0     H26585   5.310  11.097  12.736  1.1018 -1.6183 -0.9185
  938MOL0     H26586   5.134  10.950  12.534 -0.9879  1.7208 -1.4910
  938MOL0     H26587   5.294  10.904  12.594 -1.7281 -1.5366 -1.6883
  938MOL0     H26588   5.209  11.121  12.396  0.4845  1.1726  0.7898
  938MOL0     H26589   5.297  10.968  12.366 -2.2836  1.3521 -0.6910
  938MOL0     H26590   5.478  10.854  12.438 -0.9504  1.8668 -1.5978
  938MOL0     H26591   5.713  10.682  12.309  2.7582 -2.2860  0.3955
  938MOL0     H26592   5.780  10.698  12.475 -1.8075  0.0623  1.1516
  938MOL0     H26593   5.606  10.681  12.450  0.4229  0.4339  0.2201
  938MOL0     H26594   6.265  11.055  12.379  2.0930 -2.0490 -0.0194
  938MOL0     H26595   6.464  10.956  12.254  0.9600 -3.1429 -0.9326
  938MOL0     H26596   6.590  10.896  11.835  2.1205  2.6487  0.5722
  938MOL0     H26597   6.419  10.943  11.820 -1.6099  3.4102 -0.0289
  938MOL0     H26598   6.567  11.124  11.808 -0.1338 -0.5345 -0.6041
  938MOL0     H26599   6.474  11.153  11.943  0.7082 -0.1940 -0.2041
  938MOL0     H26600   6.762  11.101  11.914 -1.6734  0.2260 -1.4439
  938MOL0     H26601   6.695  11.037  12.064  2.0845 -1.7376 -1.4617
  938MOL0     H26602   6.790  11.261  12.066 -0.7446  0.3480  0.0618
  938MOL0     H26603   6.652  11.311  11.953  2.0956  4.0692  0.8526
  938MOL0     H26604   6.611  11.202  12.235  1.2842  0.9504  1.2709
  938MOL0     H26605   6.490  11.273  12.130 -0.2665  0.8669 -1.1356
  938MOL0     H26606   6.741  11.414  12.253 -1.2288  0.6184  1.0486
  938MOL0     H26607   6.642  11.491  12.151  0.5987 -1.2376 -1.9425
  938MOL0     H26608   6.461  11.364  12.350  0.5482  0.8325 -0.9797
  938MOL0     H26609   6.492  11.531  12.322  2.3928  1.7986  0.5383
  938MOL0     H26610   6.540  11.482  12.556 -0.3850  0.3529 -1.2050
  938MOL0     H26611   6.696  11.506  12.474 -1.0363  1.2824  3.7679
  938MOL0     H26612   6.220  10.905  11.912  0.1057 -1.9812  0.2159
  938MOL0     H26613   6.019  10.971  12.036  0.3755  0.6385  1.4277
  938MOL0     H26614   5.822  11.179  12.334 -0.6999 -0.8650 -1.3636
  938MOL0     H26615   5.608  11.257  12.445  1.4378  0.0542  2.3929
  938MOL0     H26616   4.694  11.141  11.733 -0.9559 -0.1785  0.5622
  938MOL0     H26617   4.627  11.206  11.501  1.3891 -0.1292 -0.7625
  938MOL0     H26618   4.632  11.105  11.070 -1.1448 -1.0360 -1.8421
  938MOL0     H26619   4.621  11.220  10.870 -0.1524 -1.4298  0.9027
  938MOL0     H26620   4.455  11.269  10.598 -1.9985 -0.4673 -3.2974
  938MOL0     H26621   4.424  11.135  10.692 -0.5626  0.6131 -2.0440
  938MOL0     H26622   4.233  11.359  10.612  0.1360 -0.2345 -0.4711
  938MOL0     H26623   4.190  11.237  10.730 -0.3586 -1.3534 -0.9646
  938MOL0     H26624   4.116  11.104  10.542  1.7714 -1.5116  0.1914
  938MOL0     H26625   4.275  11.067  10.519  1.4057  0.6284  2.4821
  938MOL0     H26626   4.305  11.232  10.357 -0.7680  0.5434  0.7636
  938MOL0     H26627   4.147  11.303  10.364  1.2552  1.5363  0.3524
  938MOL0     H26628   4.092  10.925  10.160  1.1861  0.3208 -1.9028
  938MOL0     H26629   4.216  11.341  10.982  0.5972  0.8736  0.0786
  938MOL0     H26630   4.258  11.257  11.213  2.8829 -3.2740  3.8764
  939MOL0     O26631   5.591   2.969   7.350  0.3003  0.1040 -0.8187
  939MOL0     C26632   5.608   2.864   7.413  0.3189 -0.6840  0.3021
  939MOL0     O26633   5.725   2.827   7.472  0.2160 -0.3774 -0.7638
  939MOL0     C26634   5.842   2.875   7.425 -0.0479 -0.0250  0.0343
  939MOL0     C26635   5.921   2.779   7.351  0.0547 -0.5469  0.2611
  939MOL0     C26636   6.044   2.799   7.288  0.5214  0.4653 -0.3587
  939MOL0     C26637   6.086   2.930   7.290 -0.4698  0.2501  0.0695
  939MOL0     O26638   6.189   2.970   7.218 -0.9642 -0.2682  0.2926
  939MOL0     C26639   6.307   2.898   7.175 -0.0652  0.8263  0.6107
  939MOL0     C26640   6.422   2.949   7.266  0.8253  0.3077 -0.7789
  939MOL0     C26641   6.420   3.103   7.312 -0.2071  0.0053  0.2629
  939MOL0     C26642   6.456   3.193   7.195  0.1368  0.6242 -0.2230
  939MOL0     C26643   6.510   3.322   7.251  0.8225 -0.0075  0.5258
  939MOL0     C26644   6.432   3.439   7.180 -0.4535 -0.6972  0.4134
  939MOL0     C26645   6.424   3.566   7.242 -0.1585  0.2825 -0.2149
  939MOL0     C26646   6.314   3.669   7.181  0.0076 -0.5079  0.3437
  939MOL0     N26647   6.287   3.658   7.039  0.7819 -0.1402  0.2918
  939MOL0     C26648   6.356   3.719   6.943 -0.6900  0.0659 -0.5819
  939MOL0     C26649   6.289   3.683   6.836  0.0782 -0.3225  0.0378
  939MOL0     C26650   6.343   3.730   6.700  0.6251 -0.5121 -0.5012
  939MOL0     C26651   6.349   3.883   6.689 -0.3008 -0.7051  0.3617
  939MOL0     C26652   6.348   3.919   6.538 -0.0072  0.5599  0.7105
  939MOL0     C26653   6.458   3.850   6.462 -0.4371  0.7082  0.8322
  939MOL0     O26654   6.474   3.906   6.327 -0.1583  0.0543  0.2177
  939MOL0     C26655   6.562   4.007   6.300 -0.5222 -0.3538 -0.3935
  939MOL0     C26656   6.560   4.059   6.178  0.6028  0.2891 -0.2899
  939MOL0     C26657   6.613   4.185   6.143  0.0009 -0.5453 -0.6234
  939MOL0     C26658   6.579   4.242   6.010 -0.1071 -0.3629 -0.1847
  939MOL0     C26659   6.697   4.252   6.238  0.1634  0.5284  0.6882
  939MOL0     C26660   6.786   4.370   6.213 -0.9345 -0.7924  0.5154
  939MOL0     O26661   6.870   4.401   6.316  0.5833  0.4762 -0.5738
  939MOL0     C26662   6.960   4.498   6.285 -0.1539  0.1033 -0.1583
  939MOL0     C26663   7.093   4.471   6.247  0.3558  0.0065  1.1382
  939MOL0     C26664   7.176   4.584   6.216  0.2408  1.0753 -0.8257
  939MOL0     C26665   7.129   4.715   6.240 -0.8477  0.0941  0.2706
  939MOL0     O26666   7.203   4.834   6.214 -0.5509  0.7115 -0.9135
  939MOL0     C26667   7.345   4.814   6.179  0.4416 -0.8452 -0.0285
  939MOL0     C26668   7.415   4.956   6.187 -0.0388  0.1847  0.1457
  939MOL0     C26669   7.549   4.960   6.116  0.3346 -0.3684  0.0269
  939MOL0     C26670   7.608   5.104   6.082  0.3546 -0.2656  0.0231
  939MOL0     C26671   7.723   5.116   5.982 -0.1169  0.7800  0.4784
  939MOL0     C26672   7.828   4.986   5.983  0.5320 -0.1789  1.3095
  939MOL0     C26673   7.937   5.014   5.878  0.0439  0.3982  0.0802
  939MOL0     C26674   7.897   5.007   5.733 -0.4029  0.8324 -1.3031
  939MOL0    Cl26675   8.024   5.035   5.616 -0.1564  0.2720  0.4403
  939MOL0     C26676   7.000   4.742   6.297 -1.1991 -0.8473  1.0426
  939MOL0     C26677   6.915   4.632   6.319  0.3001  0.5728  1.0181
  939MOL0     O26678   6.761   4.448   6.123  0.1372 -0.8184  0.3210
  939MOL0     C26679   6.702   4.200   6.365 -0.3992 -0.2841 -0.2282
  939MOL0     C26680   6.640   4.078   6.400 -0.1980 -0.2465 -0.4250
  939MOL0     N26681   6.178   3.615   6.854 -0.5869  0.1772 -0.3222
  939MOL0     N26682   6.179   3.592   6.981  0.6434  0.1365 -0.5322
  939MOL0     C26683   6.010   3.025   7.359 -0.3653 -0.7452 -0.1425
  939MOL0     C26684   5.892   3.001   7.432 -0.2118  0.3785  0.4641
  939MOL0     C26685   5.501   2.768   7.393  0.1155  0.0691 -0.4123
  939MOL0     C26686   5.523   2.633   7.413 -0.6572  0.3423  1.4653
  939MOL0     C26687   5.422   2.544   7.422  0.6023 -0.1021  0.3794
  939MOL0     C26688   5.290   2.580   7.389 -0.8046 -0.9995 -0.8818
  939MOL0     O26689   5.198   2.479   7.384  0.4825  0.2843 -0.5706
  939MOL0     C26690   5.133   2.460   7.261  0.4655  0.2826  0.1719
  939MOL0     C26691   5.125   2.302   7.252 -0.2801  0.5207 -0.9513
  939MOL0     C26692   4.998   2.258   7.336  0.0043 -0.1199  0.2810
  939MOL0     C26693   4.930   2.140   7.259  0.2119 -0.1052 -0.2537
  939MOL0     C26694   5.008   2.016   7.265  0.3807 -1.9456 -0.0900
  939MOL0     C26695   5.070   1.919   7.260  0.5564  0.3258  0.2646
  939MOL0     C26696   5.267   2.715   7.357  0.6719  0.1585  0.5456
  939MOL0     C26697   5.370   2.807   7.359 -1.0401  0.4452  0.7718
  939MOL0     H26698   5.880   2.680   7.333  0.1807 -0.6689  0.6427
  939MOL0     H26699   6.095   2.713   7.247 -0.0010  0.1880 -0.4192
  939MOL0     H26700   6.303   2.789   7.184  1.3594  0.5969 -1.0496
  939MOL0     H26701   6.327   2.922   7.071 -2.3338  0.3129 -0.0135
  939MOL0     H26702   6.391   2.895   7.356 -1.4751 -0.1230 -1.7385
  939MOL0     H26703   6.518   2.907   7.235  0.2813 -1.7836  0.1753
  939MOL0     H26704   6.328   3.131   7.365 -1.0663 -3.8110  1.0934
  939MOL0     H26705   6.504   3.097   7.382  0.8794 -1.2888 -1.0904
  939MOL0     H26706   6.533   3.143   7.137 -0.9346 -1.0081 -0.3077
  939MOL0     H26707   6.363   3.203   7.137  0.4249 -0.3307 -0.8642
  939MOL0     H26708   6.495   3.333   7.359  1.8694  0.1545  0.6613
  939MOL0     H26709   6.617   3.319   7.231  1.1258  2.2894  1.4290
  939MOL0     H26710   6.487   3.444   7.085 -3.4726 -0.0682 -1.4265
  939MOL0     H26711   6.327   3.415   7.163 -1.2659  1.3063  2.2583
  939MOL0     H26712   6.386   3.562   7.344  1.1439  0.4318  0.2929
  939MOL0     H26713   6.525   3.608   7.247 -1.1014  3.2696 -2.8548
  939MOL0     H26714   6.348   3.768   7.214  1.0360 -1.3242  1.8609
  939MOL0     H26715   6.227   3.652   7.244  0.1409  4.1272  2.1887
  939MOL0     H26716   6.444   3.782   6.945  1.0740 -2.0649 -3.5712
  939MOL0     H26717   6.444   3.690   6.690  0.5826 -0.3181 -1.8905
  939MOL0     H26718   6.285   3.689   6.617 -2.8731 -0.7475  1.8225
  939MOL0     H26719   6.439   3.924   6.736 -1.6584  1.0733  1.5547
  939MOL0     H26720   6.266   3.932   6.739  0.7858  0.8130  0.7597
  939MOL0     H26721   6.367   4.027   6.535 -0.4028  0.6191  0.3066
  939MOL0     H26722   6.252   3.911   6.487  0.9260 -1.0347 -0.9115
  939MOL0     H26723   6.448   3.743   6.441  1.2568  1.1927 -3.3735
  939MOL0     H26724   6.546   3.846   6.526 -0.6092 -0.3371  1.0245
  939MOL0     H26725   6.523   3.997   6.097  0.6963  0.5764 -0.5580
  939MOL0     H26726   6.566   4.155   5.944 -1.8199 -2.4731  2.6970
  939MOL0     H26727   6.491   4.308   6.009 -1.0976 -1.6427 -1.4915
  939MOL0     H26728   6.661   4.298   5.964  0.8538 -1.2404  0.4108
  939MOL0     H26729   7.112   4.364   6.242 -0.4884 -0.1094  0.3316
  939MOL0     H26730   7.281   4.575   6.189  1.4896  0.8329  3.2877
  939MOL0     H26731   7.386   4.743   6.252  2.9575 -0.4203 -0.9345
  939MOL0     H26732   7.359   4.765   6.082  0.6375 -0.6903 -0.0800
  939MOL0     H26733   7.350   5.016   6.123  2.1548  1.4663 -0.9923
  939MOL0     H26734   7.422   5.007   6.284 -0.3480 -0.4342  0.4944
  939MOL0     H26735   7.536   4.908   6.021 -0.0512 -3.0708  1.4778
  939MOL0     H26736   7.616   4.903   6.181  0.4351 -0.5403 -0.2265
  939MOL0     H26737   7.525   5.165   6.044  0.9435  0.8401  0.4773
  939MOL0     H26738   7.644   5.153   6.172 -1.7510 -0.3488  0.9652
  939MOL0     H26739   7.778   5.208   6.006  3.2191 -1.2860  1.4181
  939MOL0     H26740   7.682   5.127   5.881  1.2374  1.2534 -0.0345
  939MOL0     H26741   7.872   4.981   6.083  1.5573  1.7944  1.0180
  939MOL0     H26742   7.775   4.891   5.969  0.7216  0.1423 -3.2472
  939MOL0     H26743   8.024   4.947   5.879  0.2553  0.6477 -0.9751
  939MOL0     H26744   7.979   5.113   5.898 -0.6924  0.5974  0.6924
  939MOL0     H26745   7.827   5.089   5.716  0.7900  2.6741  1.9026
  939MOL0     H26746   7.859   4.906   5.715  1.5275 -0.3136  0.6170
  939MOL0     H26747   6.963   4.842   6.320  2.4830  1.1780 -0.8630
  939MOL0     H26748   6.817   4.665   6.351 -0.0710  1.2887 -0.7522
  939MOL0     H26749   6.762   4.242   6.445  2.2478  0.7143 -2.5594
  939MOL0     H26750   6.642   4.057   6.507 -3.7259 -0.5636 -0.2839
  939MOL0     H26751   6.050   3.126   7.358 -0.9676 -0.4517  1.6913
  939MOL0     H26752   5.852   3.090   7.479 -0.2948 -0.1841  1.5007
  939MOL0     H26753   5.620   2.587   7.426 -0.4183  0.0282 -1.0254
  939MOL0     H26754   5.448   2.442   7.449  0.0380 -0.1026  0.9360
  939MOL0     H26755   5.032   2.500   7.269  0.2509  0.5312 -2.8474
  939MOL0     H26756   5.186   2.491   7.171 -4.6870  2.0202 -2.6628
  939MOL0     H26757   5.212   2.242   7.280  0.6430  1.4962 -1.6674
  939MOL0     H26758   5.110   2.267   7.150  0.3262 -0.4255 -0.7268
  939MOL0     H26759   4.924   2.338   7.335 -0.6982 -0.7461 -1.0835
  939MOL0     H26760   5.026   2.218   7.434  0.4497 -1.9693 -0.5456
  939MOL0     H26761   4.909   2.183   7.161 -3.1683 -0.7963  0.0183
  939MOL0     H26762   4.830   2.126   7.303 -1.2973  1.7496 -2.8221
  939MOL0     H26763   5.136   1.835   7.249  1.8222  0.9999  2.2375
  939MOL0     H26764   5.168   2.741   7.321  0.5576  0.2803  0.9489
  939MOL0     H26765   5.345   2.908   7.330 -3.0356  1.2106  4.5690
  940MOL0     O26766   8.372  10.340  11.338  0.1119 -0.1376 -0.6359
  940MOL0     C26767   8.292  10.259  11.394  0.8024 -1.3215 -0.0616
  940MOL0     O26768   8.288  10.127  11.376  0.3474  0.5155 -0.2468
  940MOL0     C26769   8.399  10.068  11.308  0.5938 -0.1185 -0.5945
  940MOL0     C26770   8.436  10.099  11.183 -1.0831  0.3342  1.4313
  940MOL0     C26771   8.537  10.023  11.118  0.0246 -0.0637  0.8864
  940MOL0     C26772   8.587   9.907  11.177  0.5457 -0.0364  0.1459
  940MOL0     O26773   8.663   9.825  11.097  0.0357 -0.6234 -0.5321
  940MOL0     C26774   8.754   9.739  11.169  0.9821 -0.4105 -1.1255
  940MOL0     C26775   8.894   9.757  11.119  0.1465  0.3179  0.8964
  940MOL0     C26776   8.908   9.682  10.991 -0.0103 -0.9867  0.4066
  940MOL0     C26777   9.050   9.707  10.951  0.1314 -0.1576  0.7093
  940MOL0     C26778   9.071   9.647  10.807 -0.5455  0.2940 -0.8463
  940MOL0     C26779   9.218   9.644  10.764 -0.3927 -0.4099  0.2293
  940MOL0     C26780   9.217   9.586  10.626  0.4530 -1.2820  0.3075
  940MOL0     C26781   9.354   9.546  10.570  0.1723 -0.3846 -0.2328
  940MOL0     N26782   9.455   9.655  10.580 -0.1247 -0.3360 -0.0074
  940MOL0     C26783   9.481   9.740  10.475  0.0375  0.1884  0.2968
  940MOL0     C26784   9.590   9.821  10.525  0.0944 -0.1796  0.5852
  940MOL0     C26785   9.648   9.937  10.449 -0.5100  0.3577  0.0360
  940MOL0     C26786   9.533  10.029  10.394  0.6539 -0.3717 -0.4372
  940MOL0     C26787   9.599  10.166  10.386  0.1545  0.6017 -0.5485
  940MOL0     C26788   9.506  10.282  10.357  0.0593 -0.7825  0.4292
  940MOL0     O26789   9.524  10.400  10.441 -0.4147  0.3590 -0.4863
  940MOL0     C26790   9.602  10.504  10.401 -1.0329 -0.3746  0.6313
  940MOL0     C26791   9.597  10.629  10.454 -0.7492 -0.0304 -0.1397
  940MOL0     C26792   9.683  10.736  10.420  1.4154 -0.1121 -0.2157
  940MOL0     C26793   9.643  10.864  10.496 -0.0885  0.7862  0.2829
  940MOL0     C26794   9.772  10.719  10.316 -0.1282 -0.0897 -0.4237
  940MOL0     C26795   9.842  10.835  10.244 -0.9709 -0.9234  0.2854
  940MOL0     O26796   9.906  10.804  10.129 -0.2965  0.2451 -0.7227
  940MOL0     C26797   9.951  10.891  10.038 -0.0253 -1.1288  1.3863
  940MOL0     C26798   9.859  10.992   9.980 -0.4022 -0.7800  0.3003
  940MOL0     C26799   9.905  11.096   9.894  0.4288 -0.5538 -0.4714
  940MOL0     C26800  10.042  11.101   9.870 -0.3991 -0.3326  0.1113
  940MOL0     O26801  10.104  11.196   9.791 -0.0951 -0.0548 -0.3845
  940MOL0     C26802  10.073  11.185   9.653 -0.2761  0.5013 -0.8644
  940MOL0     C26803  10.012  11.316   9.604  0.0052 -0.1907 -1.1643
  940MOL0     C26804   9.936  11.284   9.476 -0.3006  0.3258  0.1667
  940MOL0     C26805  10.020  11.222   9.358  0.1503 -0.5529 -0.0749
  940MOL0     C26806   9.941  11.196   9.231 -0.1646 -0.3257 -0.3161
  940MOL0     C26807   9.824  11.105   9.248  0.0874  0.1611  0.5862
  940MOL0     C26808   9.754  11.079   9.112  0.5826  0.2580  0.2731
  940MOL0     C26809   9.604  11.083   9.142 -0.0472  0.7696 -0.0965
  940MOL0    Cl26810   9.525  11.060   8.989  0.1193 -0.1943 -0.0035
  940MOL0     C26811  10.128  11.007   9.933  0.3113  0.0568  0.4679
  940MOL0     C26812  10.093  10.901  10.015 -0.1676 -0.5031  0.1516
  940MOL0     O26813   9.840  10.947  10.292  0.1950 -0.2101  0.7452
  940MOL0     C26814   9.794  10.591  10.264 -0.7319  0.7010  0.2940
  940MOL0     C26815   9.717  10.484  10.312  0.9706  0.4986  0.3685
  940MOL0     N26816   9.598   9.794  10.659 -0.2080 -0.6260 -0.1760
  940MOL0     N26817   9.520   9.695  10.689 -1.0859  0.3969  0.8732
  940MOL0     C26818   8.544   9.877  11.306 -0.5861  0.0013 -0.1183
  940MOL0     C26819   8.459   9.962  11.375 -0.1540  0.5405  0.1124
  940MOL0     C26820   8.196  10.321  11.492 -0.6905 -0.1395  0.6721
  940MOL0     C26821   8.142  10.267  11.600  0.5427  0.1585 -0.9009
  940MOL0     C26822   8.051  10.332  11.686 -0.2486 -0.5333 -0.2015
  940MOL0     C26823   7.999  10.458  11.658  0.0672 -0.1518  0.7007
  940MOL0     O26824   7.912  10.528  11.738  0.0214 -0.9247  0.1376
  940MOL0     C26825   7.868  10.482  11.871 -0.6916 -0.2448 -0.3873
  940MOL0     C26826   7.791  10.576  11.953 -0.8514 -0.1381  0.6106
  940MOL0     C26827   7.662  10.626  11.879  0.6253  0.3171 -0.3476
  940MOL0     C26828   7.581  10.723  11.962  0.7897  0.6278  0.2623
  940MOL0     C26829   7.526  10.659  12.079  1.1442 -0.1277  0.2725
  940MOL0     C26830   7.472  10.602  12.170 -0.1999  0.3489 -0.7114
  940MOL0     C26831   8.049  10.520  11.541  0.7965  0.2803  0.2334
  940MOL0     C26832   8.141  10.453  11.458 -0.7551  0.7497 -0.4466
  940MOL0     H26833   8.392  10.184  11.132 -2.2997  0.8334  3.2271
  940MOL0     H26834   8.543  10.040  11.011 -2.7199 -1.2106  0.4675
  940MOL0     H26835   8.757   9.773  11.273  1.8497  2.6879 -2.0339
  940MOL0     H26836   8.720   9.636  11.178 -4.4768  1.2176  0.4233
  940MOL0     H26837   8.901   9.864  11.097 -0.6604 -0.1262 -1.8559
  940MOL0     H26838   8.969   9.725  11.192  1.4631  1.9900  0.3451
  940MOL0     H26839   8.896   9.574  11.000 -0.0512 -1.0244 -0.0833
  940MOL0     H26840   8.838   9.707  10.911 -1.8369 -0.7722  1.9957
  940MOL0     H26841   9.075   9.814  10.948  0.8539 -0.3394 -1.1498
  940MOL0     H26842   9.115   9.659  11.024  0.8854 -0.5726 -0.2055
  940MOL0     H26843   9.038   9.543  10.816  0.5601 -0.0591 -0.7465
  940MOL0     H26844   9.006   9.709  10.744 -0.0903  1.5063 -0.1565
  940MOL0     H26845   9.260   9.745  10.768  0.5163 -0.8184  1.5261
  940MOL0     H26846   9.273   9.579  10.833  1.1857 -0.4090 -0.9626
  940MOL0     H26847   9.156   9.495  10.624 -2.1701  0.3929  0.2529
  940MOL0     H26848   9.170   9.646  10.548  3.1809  1.2699  0.4410
  940MOL0     H26849   9.345   9.518  10.465 -3.1446  0.2914 -0.2689
  940MOL0     H26850   9.386   9.464  10.635 -2.7982 -2.3679 -1.0807
  940MOL0     H26851   9.428   9.740  10.380  0.9320 -3.9371 -0.4096
  940MOL0     H26852   9.706  10.001  10.516 -1.8396  1.6049  0.0443
  940MOL0     H26853   9.695   9.892  10.361  1.1545  1.7968  0.1377
  940MOL0     H26854   9.449  10.032  10.464  2.4141 -0.5116  1.8124
  940MOL0     H26855   9.503   9.999  10.293 -3.0181 -0.7098  0.6264
  940MOL0     H26856   9.677  10.166  10.309  0.7103  0.2696 -0.0013
  940MOL0     H26857   9.656  10.192  10.476  2.4454 -1.3000 -1.3489
  940MOL0     H26858   9.403  10.246  10.366  0.2592 -1.3856  0.2959
  940MOL0     H26859   9.519  10.308  10.252 -0.6691  2.8823  1.0957
  940MOL0     H26860   9.515  10.640  10.524 -0.5409  0.7056 -0.0013
  940MOL0     H26861   9.729  10.907  10.548  1.9361 -2.2433 -0.3202
  940MOL0     H26862   9.584  10.926  10.428  0.6201  0.3135 -0.7816
  940MOL0     H26863   9.574  10.834  10.576  0.3401 -0.4310  0.2158
  940MOL0     H26864   9.753  10.983  10.003 -0.6357  2.5713  1.0786
  940MOL0     H26865   9.840  11.169   9.847  0.9704 -0.2012 -0.6830
  940MOL0     H26866  10.171  11.179   9.605  0.5940  3.1923  0.4220
  940MOL0     H26867  10.014  11.094   9.640  1.6404 -1.3255  2.0577
  940MOL0     H26868   9.938  11.349   9.677  0.4802 -0.2833 -0.6310
  940MOL0     H26869  10.080  11.399   9.581  2.1451 -1.8311 -1.1115
  940MOL0     H26870   9.866  11.359   9.440 -0.2226 -0.4585 -1.7323
  940MOL0     H26871   9.875  11.200   9.511  0.2931 -0.2285 -0.1148
  940MOL0     H26872  10.086  11.305   9.330 -1.5265  1.0010  0.4318
  940MOL0     H26873  10.086  11.141   9.390 -0.4402 -1.5486 -1.3057
  940MOL0     H26874   9.997  11.156   9.146 -2.2878 -1.1256 -1.3935
  940MOL0     H26875   9.892  11.293   9.219  0.5310  0.6153  3.2406
  940MOL0     H26876   9.874  11.015   9.284  0.4125  0.4954  0.9830
  940MOL0     H26877   9.758  11.147   9.324  0.4492  0.4490  0.7453
  940MOL0     H26878   9.772  10.982   9.066 -2.1054  0.0970 -0.5989
  940MOL0     H26879   9.768  11.164   9.045 -0.5477  0.9280  0.8434
  940MOL0     H26880   9.588  11.174   9.200 -0.5169  1.1366 -0.7969
  940MOL0     H26881   9.580  11.000   9.210  2.6517 -0.7474 -0.8015
  940MOL0     H26882  10.236  11.018   9.923  0.1802  1.5880  0.5240
  940MOL0     H26883  10.164  10.836  10.063  0.9958 -0.6654 -1.6780
  940MOL0     H26884   9.871  10.566  10.191  0.2232 -1.2692  1.8567
  940MOL0     H26885   9.731  10.383  10.275  1.4530  0.6882  0.0262
  940MOL0     H26886   8.580   9.790  11.359 -1.2438 -1.0646 -1.3598
  940MOL0     H26887   8.442   9.937  11.480  0.1845 -5.3651 -0.8962
  940MOL0     H26888   8.158  10.165  11.633 -1.1270  0.4203  0.8778
  940MOL0     H26889   8.021  10.276  11.774 -1.4747 -2.3585 -1.6978
  940MOL0     H26890   7.800  10.397  11.856  1.4851 -2.2019  0.2439
  940MOL0     H26891   7.955  10.438  11.922  0.3289  0.6158 -1.3326
  940MOL0     H26892   7.857  10.656  11.989  2.0744 -2.3170  0.5062
  940MOL0     H26893   7.766  10.521  12.044  0.5041 -1.3453  0.2916
  940MOL0     H26894   7.604  10.548  11.829 -2.6111  2.8049 -0.7496
  940MOL0     H26895   7.687  10.699  11.801  3.3719  3.6486  3.2620
  940MOL0     H26896   7.497  10.764  11.906 -0.9415 -2.4161  0.3755
  940MOL0     H26897   7.645  10.806  11.993  1.2376 -0.2007  1.7108
  940MOL0     H26898   7.431  10.551  12.254 -0.0847 -1.0509 -1.4698
  940MOL0     H26899   7.997  10.611  11.512 -1.7559 -0.5505  1.8604
  940MOL0     H26900   8.158  10.501  11.363  0.7591 -1.7179 -1.5188
  941MOL0     O26901   8.272   2.501   7.121 -0.5569 -0.8672  0.0316
  941MOL0     C26902   8.366   2.588   7.129  1.2163 -0.2517  0.1212
  941MOL0     O26903   8.424   2.625   7.244  0.1077  0.6018 -0.0011
  941MOL0     C26904   8.417   2.548   7.356 -0.4064 -0.2580 -0.4612
  941MOL0     C26905   8.362   2.591   7.478 -1.6437  0.3464  0.3507
  941MOL0     C26906   8.381   2.521   7.595 -0.3212 -0.3253  0.8294
  941MOL0     C26907   8.456   2.405   7.598  0.5400 -0.0986  0.3270
  941MOL0     O26908   8.471   2.338   7.720  0.0150  0.1142 -0.2540
  941MOL0     C26909   8.343   2.316   7.794 -0.6607 -0.5327  0.5732
  941MOL0     C26910   8.379   2.230   7.915  0.0816  0.5108  0.0900
  941MOL0     C26911   8.260   2.220   8.010 -0.2356  0.1177  0.5286
  941MOL0     C26912   8.323   2.199   8.154 -0.2180 -0.6521  0.1044
  941MOL0     C26913   8.212   2.136   8.244 -0.1481  0.9483 -0.4264
  941MOL0     C26914   8.249   1.987   8.274 -0.6723 -0.1949  0.0285
  941MOL0     C26915   8.138   1.892   8.281  0.3056 -0.2794 -0.5695
  941MOL0     C26916   8.042   1.891   8.400  0.3434  0.4041  0.1067
  941MOL0     N26917   8.111   1.894   8.531 -0.4233  0.5826 -0.3410
  941MOL0     C26918   8.118   2.002   8.616 -0.6566  0.0958  1.0273
  941MOL0     C26919   8.175   1.950   8.729 -0.0125 -0.2322  0.9239
  941MOL0     C26920   8.230   2.041   8.842 -0.0556 -0.0394 -0.2649
  941MOL0     C26921   8.115   2.066   8.952 -0.3566 -0.5535  0.6286
  941MOL0     C26922   8.003   2.161   8.906 -0.1992 -0.6057 -0.0612
  941MOL0     C26923   7.905   2.181   9.017 -0.0037  0.4493  0.4368
  941MOL0     O26924   7.804   2.282   8.976 -0.5327  0.3385 -0.1946
  941MOL0     C26925   7.721   2.337   9.070  0.3635 -0.1362 -0.4219
  941MOL0     C26926   7.646   2.451   9.038  1.5495  0.2069  0.1159
  941MOL0     C26927   7.550   2.498   9.128  0.8331  1.0358  0.3557
  941MOL0     C26928   7.462   2.618   9.091 -0.3311 -0.5946 -0.1321
  941MOL0     C26929   7.540   2.440   9.251 -0.2488  0.0107 -0.2887
  941MOL0     C26930   7.430   2.488   9.352 -0.2475  0.6758  0.0080
  941MOL0     O26931   7.470   2.462   9.483 -0.5015 -0.5490  0.2564
  941MOL0     C26932   7.368   2.452   9.574 -0.3287 -0.7088  0.4271
  941MOL0     C26933   7.334   2.554   9.661  0.7700 -0.0220  0.0330
  941MOL0     C26934   7.237   2.539   9.761 -0.1638 -0.0708 -0.0430
  941MOL0     C26935   7.168   2.416   9.775 -0.6463 -1.0670  0.1661
  941MOL0     O26936   7.088   2.409   9.890 -0.0899 -0.3579  0.7558
  941MOL0     C26937   7.025   2.280   9.909 -0.0355  0.8855  0.0097
  941MOL0     C26938   6.922   2.284  10.030 -0.2792  0.6039  0.6489
  941MOL0     C26939   6.857   2.148  10.069 -0.3776  0.1885 -0.3692
  941MOL0     C26940   6.721   2.167  10.134  0.4228  0.4472 -0.2310
  941MOL0     C26941   6.742   2.154  10.281  0.3623 -0.0045 -0.9109
  941MOL0     C26942   6.600   2.169  10.348 -0.8165 -0.3089 -0.2245
  941MOL0     C26943   6.618   2.176  10.500  0.5914  0.0020  0.6835
  941MOL0     C26944   6.491   2.153  10.576 -0.2301  0.3384  0.2598
  941MOL0    Cl26945   6.417   1.993  10.570  0.0642 -0.0031 -0.2806
  941MOL0     C26946   7.195   2.313   9.683 -1.0818  0.4388 -0.1695
  941MOL0     C26947   7.302   2.324   9.592  0.5922  0.1874  0.4806
  941MOL0     O26948   7.332   2.549   9.317 -0.1802  0.2731 -0.1075
  941MOL0     C26949   7.620   2.326   9.288  0.1425 -0.1633 -0.1471
  941MOL0     C26950   7.711   2.277   9.196  0.3032  0.1295  0.5411
  941MOL0     N26951   8.199   1.817   8.709  0.3722  0.5821  0.4607
  941MOL0     N26952   8.166   1.784   8.587  0.2301  0.0642 -0.2411
  941MOL0     C26953   8.503   2.354   7.474 -0.4181  0.1305 -0.4358
  941MOL0     C26954   8.483   2.418   7.358  0.0783  0.0415  0.7858
  941MOL0     C26955   8.433   2.654   7.008  0.0751 -0.3150 -0.2980
  941MOL0     C26956   8.401   2.625   6.876  0.1400 -0.5550  0.2486
  941MOL0     C26957   8.467   2.674   6.761 -0.6713 -0.5355  0.3013
  941MOL0     C26958   8.575   2.755   6.786 -0.8003 -1.1521 -0.3141
  941MOL0     O26959   8.646   2.804   6.688  0.0253 -0.3156 -0.0091
  941MOL0     C26960   8.767   2.886   6.705 -0.5389  0.5800  0.1119
  941MOL0     C26961   8.813   2.915   6.567 -0.6564 -0.4103 -0.5469
  941MOL0     C26962   8.851   2.787   6.485  0.4332 -0.9644 -0.1786
  941MOL0     C26963   8.896   2.821   6.345 -0.4478  0.5551 -0.0411
  941MOL0     C26964   9.024   2.761   6.342  0.1081  0.0798 -0.0153
  941MOL0     C26965   9.128   2.705   6.344  0.3273  0.4605  0.1642
  941MOL0     C26966   8.606   2.798   6.919  0.1859  0.5745 -1.0356
  941MOL0     C26967   8.545   2.731   7.031  0.4233 -0.4615 -0.6575
  941MOL0     H26968   8.309   2.686   7.485  0.8530  1.8991 -0.3619
  941MOL0     H26969   8.341   2.559   7.688  0.1930  1.6737  0.2884
  941MOL0     H26970   8.305   2.407   7.841 -0.9421 -0.0378 -0.5814
  941MOL0     H26971   8.259   2.268   7.742  1.9069 -4.1348 -0.6345
  941MOL0     H26972   8.400   2.127   7.884  2.2567  0.4931  1.3784
  941MOL0     H26973   8.465   2.282   7.960  0.2524  0.2620  0.0566
  941MOL0     H26974   8.208   2.317   8.010  0.6243  0.6426  2.6009
  941MOL0     H26975   8.196   2.134   7.991 -0.2313 -0.3759  2.5239
  941MOL0     H26976   8.417   2.144   8.146 -0.2788 -0.5414 -1.9213
  941MOL0     H26977   8.343   2.298   8.196  0.1594 -0.4338 -0.5871
  941MOL0     H26978   8.226   2.185   8.341 -1.5744 -0.8407  0.7621
  941MOL0     H26979   8.115   2.163   8.202 -0.7316  4.3221  2.6487
  941MOL0     H26980   8.331   1.951   8.210  0.1842 -2.4908  2.2141
  941MOL0     H26981   8.302   1.990   8.370  0.7615  1.2227 -0.7658
  941MOL0     H26982   8.084   1.901   8.186  2.2018 -1.2061 -1.7787
  941MOL0     H26983   8.183   1.793   8.280  0.7146 -0.1038 -0.1357
  941MOL0     H26984   7.977   1.807   8.375  0.1824  1.1182 -2.0889
  941MOL0     H26985   7.964   1.968   8.400 -4.0417 -3.4969  2.5364
  941MOL0     H26986   8.094   2.107   8.599 -1.1652 -0.0191  1.0303
  941MOL0     H26987   8.316   1.995   8.893 -0.3156 -0.4153 -0.1630
  941MOL0     H26988   8.267   2.135   8.800 -0.9348  2.6645  4.3422
  941MOL0     H26989   8.169   2.102   9.040  0.5961 -0.5536  0.0525
  941MOL0     H26990   8.063   1.969   8.956 -0.8022 -0.3368  0.1354
  941MOL0     H26991   7.959   2.138   8.808 -1.3749  3.8013 -0.7471
  941MOL0     H26992   8.049   2.258   8.891  2.5374 -1.6702  0.8355
  941MOL0     H26993   7.962   2.224   9.100 -1.0356  0.1041  1.3484
  941MOL0     H26994   7.853   2.093   9.056  1.0111 -2.0884 -3.3800
  941MOL0     H26995   7.653   2.511   8.948 -2.9670  0.2157 -0.4302
  941MOL0     H26996   7.465   2.698   9.166  1.2927  0.2766 -1.0677
  941MOL0     H26997   7.479   2.663   8.992 -1.2877  1.8273  0.7156
  941MOL0     H26998   7.358   2.586   9.078  0.5184 -3.0392 -1.5007
  941MOL0     H26999   7.398   2.640   9.647  2.0589 -0.6396  1.6734
  941MOL0     H27000   7.224   2.611   9.842  0.6523 -0.6053  0.5769
  941MOL0     H27001   6.969   2.266   9.816 -3.8407 -1.7684  2.4052
  941MOL0     H27002   7.099   2.201   9.926 -0.6712  0.5354  1.2457
  941MOL0     H27003   6.946   2.334  10.125 -1.0465  0.6968  0.7969
  941MOL0     H27004   6.853   2.355   9.984 -2.0862 -0.5276  1.4847
  941MOL0     H27005   6.934   2.086  10.117  2.6038  2.4600 -1.8978
  941MOL0     H27006   6.829   2.097   9.976  2.1277 -1.6096 -0.2335
  941MOL0     H27007   6.657   2.252  10.110 -0.4033 -0.2029 -0.3933
  941MOL0     H27008   6.652   2.088  10.102  1.9123 -1.7980  1.7285
  941MOL0     H27009   6.812   2.227  10.323 -0.6595 -0.2934  1.4113
  941MOL0     H27010   6.783   2.058  10.312  0.6537  0.9328  1.8115
  941MOL0     H27011   6.557   2.265  10.320 -0.1823  0.0179 -0.1017
  941MOL0     H27012   6.531   2.091  10.316 -1.2382 -1.2909  2.7295
  941MOL0     H27013   6.660   2.265  10.549  0.3618  0.6540 -0.2732
  941MOL0     H27014   6.681   2.089  10.519 -0.7107 -1.2476 -0.5371
  941MOL0     H27015   6.417   2.221  10.533 -2.7166 -2.4716 -0.1808
  941MOL0     H27016   6.505   2.187  10.680  0.5093 -0.8903  0.5869
  941MOL0     H27017   7.141   2.220   9.675 -2.9399  1.5307 -0.8925
  941MOL0     H27018   7.319   2.232   9.537 -1.8047 -0.2666  0.4175
  941MOL0     H27019   7.621   2.280   9.386 -0.3002  1.2655  0.5498
  941MOL0     H27020   7.760   2.183   9.220  2.6532  1.1313 -0.0339
  941MOL0     H27021   8.565   2.267   7.489  0.0180  0.4058 -0.6326
  941MOL0     H27022   8.529   2.376   7.269 -0.4096  1.0208  0.0460
  941MOL0     H27023   8.320   2.553   6.875 -0.5899  0.2065 -2.2182
  941MOL0     H27024   8.439   2.642   6.661  0.8940  0.8189 -0.6147
  941MOL0     H27025   8.742   2.966   6.775 -0.1016  0.0743  0.8634
  941MOL0     H27026   8.842   2.821   6.751 -0.3408 -1.6416 -3.0303
  941MOL0     H27027   8.902   2.978   6.569 -1.5951  0.9485  0.2932
  941MOL0     H27028   8.735   2.970   6.515 -0.4046 -0.4952 -1.0182
  941MOL0     H27029   8.764   2.721   6.474 -1.5812  1.5116  0.1258
  941MOL0     H27030   8.929   2.734   6.539  2.8142  3.0203  0.6367
  941MOL0     H27031   8.900   2.929   6.330 -1.0604  0.6483  0.4029
  941MOL0     H27032   8.841   2.767   6.267  0.1247 -1.2236  0.7115
  941MOL0     H27033   9.220   2.649   6.343 -2.6044 -5.1092  0.2712
  941MOL0     H27034   8.697   2.850   6.946  0.2638 -1.7509  4.7430
  941MOL0     H27035   8.572   2.767   7.130  1.9552  0.0867 -1.2483
  942MOL0     O27036   5.602   8.594   8.357 -0.3174  0.0568  0.3112
  942MOL0     C27037   5.551   8.590   8.244 -0.1729  0.8316 -0.1727
  942MOL0     O27038   5.467   8.499   8.192 -0.8749 -0.5445 -0.7593
  942MOL0     C27039   5.427   8.395   8.264  0.6739  0.1397 -0.0419
  942MOL0     C27040   5.378   8.284   8.192  0.5420 -0.6254 -0.7668
  942MOL0     C27041   5.339   8.160   8.243  0.5334 -0.8959 -0.1906
  942MOL0     C27042   5.339   8.139   8.386  0.2692 -0.2959  0.1278
  942MOL0     O27043   5.309   8.022   8.453 -0.0687  0.1443  0.0914
  942MOL0     C27044   5.357   7.911   8.379  0.0459 -0.3982 -0.2584
  942MOL0     C27045   5.369   7.786   8.475  1.1911 -0.5021  0.2561
  942MOL0     C27046   5.226   7.725   8.501  0.7526  1.0396  0.4686
  942MOL0     C27047   5.233   7.614   8.612  0.0336 -0.4967  0.6360
  942MOL0     C27048   5.093   7.548   8.634  0.0057  0.6759  0.6169
  942MOL0     C27049   4.974   7.643   8.664  0.5320  0.4231 -0.5835
  942MOL0     C27050   4.844   7.564   8.689 -0.3234  0.6272  0.0515
  942MOL0     C27051   4.732   7.648   8.741  0.2178 -0.8967 -0.7974
  942MOL0     N27052   4.615   7.569   8.738  0.6476 -0.1182  0.0587
  942MOL0     C27053   4.553   7.520   8.854 -0.7353  0.3726  1.1357
  942MOL0     C27054   4.433   7.475   8.813 -0.4077  0.0291 -1.0975
  942MOL0     C27055   4.318   7.419   8.887 -0.4739  0.2375  0.3870
  942MOL0     C27056   4.243   7.529   8.961 -0.2827 -0.4062 -0.0418
  942MOL0     C27057   4.171   7.622   8.864 -0.1670  0.2098 -0.6442
  942MOL0     C27058   4.092   7.733   8.932  0.5789  0.2371 -0.5162
  942MOL0     O27059   4.178   7.832   8.995 -0.4839 -0.6251  0.9114
  942MOL0     C27060   4.246   7.917   8.914  0.1114  0.2839  1.0298
  942MOL0     C27061   4.180   8.024   8.836 -0.0986  0.2338 -1.0246
  942MOL0     C27062   4.254   8.093   8.736 -0.6470 -0.7473 -0.2898
  942MOL0     C27063   4.178   8.201   8.667 -0.1513  0.2704 -0.1007
  942MOL0     C27064   4.396   8.079   8.722 -0.6209  0.0670 -0.1806
  942MOL0     C27065   4.490   8.150   8.632  0.8070  0.2715 -0.2653
  942MOL0     O27066   4.614   8.095   8.615  0.6910  0.0783  0.0788
  942MOL0     C27067   4.710   8.165   8.544 -0.3746 -0.4274 -0.3495
  942MOL0     C27068   4.690   8.227   8.424 -0.5236  0.0996  0.5570
  942MOL0     C27069   4.792   8.298   8.375 -0.3770  0.5493 -0.4129
  942MOL0     C27070   4.910   8.326   8.438 -0.3480  0.1970 -0.0186
  942MOL0     O27071   4.999   8.416   8.383 -0.4971  1.1610  0.2432
  942MOL0     C27072   5.107   8.470   8.461  0.1599  0.4373  0.6722
  942MOL0     C27073   5.145   8.599   8.387 -0.5929 -0.4323  0.3563
  942MOL0     C27074   5.230   8.700   8.473  0.2738  0.3528 -0.4074
  942MOL0     C27075   5.323   8.803   8.399  0.1617  0.1605  0.2768
  942MOL0     C27076   5.288   8.947   8.418 -0.3895  0.4816 -0.2841
  942MOL0     C27077   5.383   9.044   8.349 -0.4351 -0.5517 -0.8936
  942MOL0     C27078   5.507   9.078   8.438 -0.5906  0.6146 -0.4390
  942MOL0     C27079   5.623   9.149   8.358  1.3335 -0.4124  1.1736
  942MOL0    Cl27080   5.706   9.233   8.473 -0.0861 -0.0839  0.5554
  942MOL0     C27081   4.925   8.270   8.572 -0.0819  0.9626  0.3538
  942MOL0     C27082   4.827   8.182   8.620 -0.4608  0.1373 -0.1723
  942MOL0     O27083   4.463   8.259   8.589  1.6343  0.3377 -0.5888
  942MOL0     C27084   4.455   7.981   8.805 -0.1360 -0.2117  0.4870
  942MOL0     C27085   4.389   7.904   8.895 -0.0762  0.3829  0.9320
  942MOL0     N27086   4.420   7.509   8.683  0.1895 -0.2174  0.0467
  942MOL0     N27087   4.518   7.576   8.641 -0.2464 -0.2177 -0.0321
  942MOL0     C27088   5.390   8.247   8.465 -0.5460 -0.1070  1.3894
  942MOL0     C27089   5.440   8.370   8.406  0.3041 -0.9502 -0.5852
  942MOL0     C27090   5.589   8.703   8.159 -0.8348 -0.2785 -0.1222
  942MOL0     C27091   5.677   8.802   8.199  0.7607  0.5365 -0.4215
  942MOL0     C27092   5.721   8.894   8.106  0.4836  0.1486 -0.4240
  942MOL0     C27093   5.666   8.899   7.973 -0.2802  0.3500  0.2300
  942MOL0     O27094   5.723   8.991   7.895  1.1283 -0.0969 -0.2698
  942MOL0     C27095   5.764   8.944   7.763 -0.3226 -0.6551 -0.5502
  942MOL0     C27096   5.750   9.064   7.675  0.4641 -0.5274  0.4190
  942MOL0     C27097   5.789   9.040   7.530  0.2281  0.2975  0.3916
  942MOL0     C27098   5.747   9.158   7.430  0.4425 -1.1081  0.3271
  942MOL0     C27099   5.765   9.291   7.489 -0.2710  0.2554 -0.2936
  942MOL0     C27100   5.771   9.408   7.531  1.0781  0.2145 -0.0202
  942MOL0     C27101   5.575   8.801   7.940  0.2222 -0.0616  0.3928
  942MOL0     C27102   5.537   8.703   8.031 -0.0643 -0.6322  0.8009
  942MOL0     H27103   5.361   8.309   8.088  0.1946  2.7834 -0.0091
  942MOL0     H27104   5.313   8.089   8.165  3.1315 -0.5604 -1.4554
  942MOL0     H27105   5.291   7.889   8.294 -1.4306 -1.8173  1.1858
  942MOL0     H27106   5.456   7.928   8.336  0.0795  0.8337  0.2454
  942MOL0     H27107   5.432   7.713   8.424 -2.0985 -3.1885 -0.2620
  942MOL0     H27108   5.412   7.826   8.568 -0.5485 -1.5983  1.6067
  942MOL0     H27109   5.155   7.804   8.526 -0.6264 -0.2921  0.9892
  942MOL0     H27110   5.193   7.663   8.417  0.5740 -0.9621  1.9284
  942MOL0     H27111   5.308   7.545   8.571 -0.9801 -0.4115 -1.4847
  942MOL0     H27112   5.270   7.654   8.707 -0.9948  3.9297 -0.6088
  942MOL0     H27113   5.061   7.491   8.546 -2.2839 -1.0159  2.4414
  942MOL0     H27114   5.107   7.477   8.715  2.2744 -1.0100 -1.1269
  942MOL0     H27115   5.003   7.695   8.756  2.4104 -3.9140  1.5244
  942MOL0     H27116   4.954   7.719   8.587 -5.5152  1.3634  1.3936
  942MOL0     H27117   4.810   7.518   8.596  1.0748  4.1455 -2.4621
  942MOL0     H27118   4.864   7.485   8.761 -0.1975 -1.3486 -2.0578
  942MOL0     H27119   4.718   7.726   8.666  0.4819 -0.4613 -0.3972
  942MOL0     H27120   4.747   7.684   8.843 -0.8626  0.1644 -0.9935
  942MOL0     H27121   4.589   7.498   8.954  0.2692 -0.0134  0.7124
  942MOL0     H27122   4.267   7.367   8.805 -3.2316  1.7895  0.9862
  942MOL0     H27123   4.349   7.343   8.960  1.4684 -0.5880 -1.2101
  942MOL0     H27124   4.311   7.592   9.018  1.2665  0.8590 -3.0572
  942MOL0     H27125   4.169   7.476   9.021  0.0781  0.0170  0.7816
  942MOL0     H27126   4.105   7.564   8.799  0.9625  0.6398 -2.2462
  942MOL0     H27127   4.252   7.654   8.798  2.0280 -2.2018  0.6793
  942MOL0     H27128   4.025   7.699   9.012 -1.1072  5.0783  0.5225
  942MOL0     H27129   4.030   7.783   8.857 -1.6797 -2.5385 -0.6731
  942MOL0     H27130   4.076   8.051   8.851 -0.5877  0.7910 -4.5083
  942MOL0     H27131   4.155   8.176   8.563 -1.6934 -3.6869  0.9776
  942MOL0     H27132   4.079   8.214   8.714 -0.3199 -0.7477 -0.1566
  942MOL0     H27133   4.225   8.299   8.680 -0.3213  0.7639 -2.6863
  942MOL0     H27134   4.607   8.225   8.354  0.9001  0.8456 -1.2522
  942MOL0     H27135   4.786   8.362   8.287  0.1040 -1.1494 -1.7275
  942MOL0     H27136   5.074   8.488   8.563 -2.5945 -0.3663  0.0093
  942MOL0     H27137   5.184   8.393   8.470 -1.9531 -2.6171 -3.5595
  942MOL0     H27138   5.206   8.570   8.301 -1.4871  0.9984 -0.8062
  942MOL0     H27139   5.062   8.661   8.352  1.4796  1.3517 -1.8178
  942MOL0     H27140   5.294   8.638   8.536 -2.7425  0.0815  2.6491
  942MOL0     H27141   5.159   8.754   8.536 -2.6348 -1.1556 -2.1826
  942MOL0     H27142   5.423   8.779   8.434 -0.0248 -1.4730 -0.2327
  942MOL0     H27143   5.314   8.784   8.292 -0.0267  1.0472  0.1251
  942MOL0     H27144   5.305   8.967   8.524  2.9261 -2.0413 -0.1726
  942MOL0     H27145   5.183   8.955   8.385 -0.6218  0.1377  0.3627
  942MOL0     H27146   5.408   9.008   8.249 -1.3239  0.3351 -1.4493
  942MOL0     H27147   5.327   9.136   8.328 -2.3060 -1.0185  1.5985
  942MOL0     H27148   5.550   8.981   8.464  1.1597  1.1662 -1.1144
  942MOL0     H27149   5.483   9.124   8.534 -0.3863 -0.7086  0.2657
  942MOL0     H27150   5.576   9.223   8.292 -1.4059 -2.4693  0.6241
  942MOL0     H27151   5.691   9.084   8.303  1.6772  2.3252 -1.9471
  942MOL0     H27152   5.013   8.279   8.635 -0.6496 -1.4068  1.6090
  942MOL0     H27153   4.847   8.135   8.716  2.3742 -1.4073 -1.3909
  942MOL0     H27154   4.562   7.965   8.811 -0.0638  0.1549  0.2329
  942MOL0     H27155   4.437   7.837   8.965  0.2862 -1.3725 -0.8849
  942MOL0     H27156   5.399   8.228   8.571 -4.1954  0.3235  1.9159
  942MOL0     H27157   5.480   8.444   8.475 -0.3352  0.1116 -1.3172
  942MOL0     H27158   5.697   8.804   8.306 -1.6708  1.5580  0.0712
  942MOL0     H27159   5.784   8.978   8.134  2.6733 -1.1511 -1.1204
  942MOL0     H27160   5.869   8.917   7.777 -1.0629 -1.9861  4.2043
  942MOL0     H27161   5.708   8.860   7.721  2.5239 -3.2305  0.4518
  942MOL0     H27162   5.819   9.140   7.713  1.3083 -0.7180 -0.7143
  942MOL0     H27163   5.645   9.095   7.671  0.9751  1.4004  0.8779
  942MOL0     H27164   5.750   8.945   7.495  1.1087 -1.3349  3.4348
  942MOL0     H27165   5.897   9.021   7.529 -0.3251 -3.9268  1.6825
  942MOL0     H27166   5.640   9.156   7.407  0.1267 -2.0683  1.7689
  942MOL0     H27167   5.818   9.148   7.348  1.8989 -0.6143  1.4761
  942MOL0     H27168   5.782   9.510   7.562  1.8933 -0.5304  2.2829
  942MOL0     H27169   5.535   8.795   7.839 -0.2760 -3.6924  0.6821
  942MOL0     H27170   5.459   8.632   8.004  0.4426 -1.4770  1.4924
  943MOL0     O27171   9.563   7.348   6.952 -0.7049 -1.4597 -0.1586
  943MOL0     C27172   9.498   7.355   6.842  0.3282 -0.7525  0.1417
  943MOL0     O27173   9.365   7.374   6.824 -0.7801 -0.5719 -0.1815
  943MOL0     C27174   9.286   7.423   6.923  0.1685  0.0316 -0.3163
  943MOL0     C27175   9.303   7.554   6.964  1.0647 -0.9724  0.0318
  943MOL0     C27176   9.206   7.626   7.038  0.0722 -0.1676  0.2061
  943MOL0     C27177   9.100   7.549   7.087  0.1569 -0.7654  0.0384
  943MOL0     O27178   9.009   7.598   7.168 -1.4849 -0.3169  0.2755
  943MOL0     C27179   9.066   7.650   7.295 -0.3171 -0.3409  0.8832
  943MOL0     C27180   8.963   7.650   7.407  0.3891  0.8935  0.5453
  943MOL0     C27181   9.023   7.687   7.543 -0.9545  0.0177 -0.0733
  943MOL0     C27182   8.915   7.674   7.645 -0.6069  0.3021 -0.4788
  943MOL0     C27183   8.857   7.536   7.683 -0.7499  0.2767 -0.2085
  943MOL0     C27184   8.782   7.542   7.812 -0.2576  1.1531  0.0337
  943MOL0     C27185   8.736   7.397   7.867 -0.0202  0.6058  0.5402
  943MOL0     C27186   8.722   7.411   8.022 -0.6819  0.1562  0.0603
  943MOL0     N27187   8.782   7.290   8.081  0.1922  0.2659 -0.4918
  943MOL0     C27188   8.871   7.274   8.178  0.6743  0.4672 -0.8382
  943MOL0     C27189   8.898   7.143   8.175 -0.5455  0.4705 -0.6706
  943MOL0     C27190   9.006   7.077   8.256 -0.9873 -0.2009  0.9329
  943MOL0     C27191   9.146   7.107   8.188  0.5514 -0.9758  0.0153
  943MOL0     C27192   9.255   7.008   8.248  0.1409  0.3176  0.4029
  943MOL0     C27193   9.241   6.989   8.405  0.3162 -0.3432 -0.4932
  943MOL0     O27194   9.342   6.897   8.460 -0.5131  0.1660 -0.7550
  943MOL0     C27195   9.479   6.925   8.487  0.7056 -1.1054  0.8223
  943MOL0     C27196   9.556   6.824   8.546 -0.3909  0.8203  0.5475
  943MOL0     C27197   9.692   6.848   8.565 -0.8656  0.4699 -0.2818
  943MOL0     C27198   9.775   6.756   8.655  1.0266  0.2849  0.0343
  943MOL0     C27199   9.763   6.946   8.488 -0.6363  0.3180  0.0307
  943MOL0     C27200   9.914   6.960   8.486 -0.5423  0.4715  0.4149
  943MOL0     O27201   9.960   7.055   8.398 -0.5812 -0.1477  0.7606
  943MOL0     C27202  10.096   7.053   8.370  0.1357 -0.0033 -0.2806
  943MOL0     C27203  10.175   6.937   8.341  0.2248 -0.3103  0.0239
  943MOL0     C27204  10.314   6.952   8.300 -0.2577 -0.1114 -0.1453
  943MOL0     C27205  10.366   7.081   8.302 -0.2371 -0.1416 -1.2060
  943MOL0     O27206  10.493   7.122   8.271 -0.1738  0.1272  0.1264
  943MOL0     C27207  10.568   7.033   8.180  0.9004 -0.8383 -0.0288
  943MOL0     C27208  10.699   7.110   8.151  0.4972  0.2495  0.0190
  943MOL0     C27209  10.784   7.116   8.270  0.2684  0.1788  0.3088
  943MOL0     C27210  10.919   7.163   8.227 -0.0210 -0.1562 -0.4538
  943MOL0     C27211  10.997   7.220   8.344  0.1654 -0.1180 -0.5085
  943MOL0     C27212  11.040   7.120   8.455 -0.2290  0.0730 -0.7035
  943MOL0     C27213  11.024   7.189   8.592 -0.5398  0.3799 -0.4738
  943MOL0     C27214  11.147   7.150   8.677  0.0841 -0.1647  0.2438
  943MOL0    Cl27215  11.137   7.228   8.839 -0.1754  0.0907  0.1990
  943MOL0     C27216  10.282   7.191   8.328 -0.6240  1.0836 -0.2038
  943MOL0     C27217  10.152   7.173   8.366 -0.3000 -0.1554 -0.5326
  943MOL0     O27218   9.986   6.887   8.548  0.1883 -0.4294  0.3992
  943MOL0     C27219   9.677   7.044   8.423  0.1432  0.2600  0.3268
  943MOL0     C27220   9.533   7.037   8.425 -1.1763 -0.0135 -0.5155
  943MOL0     N27221   8.816   7.069   8.087  0.3751 -1.1479 -0.2127
  943MOL0     N27222   8.749   7.162   8.032  0.0531 -0.1639 -0.5298
  943MOL0     C27223   9.083   7.417   7.059  1.0306  0.5822  0.1287
  943MOL0     C27224   9.180   7.347   6.981 -0.3606 -0.1838  0.6539
  943MOL0     C27225   9.557   7.334   6.714  0.0877  0.2053 -1.7000
  943MOL0     C27226   9.488   7.328   6.594 -0.4045  0.0094  0.7471
  943MOL0     C27227   9.563   7.313   6.477 -0.0770  1.4537  0.9828
  943MOL0     C27228   9.696   7.281   6.467  0.7583 -0.3458  0.0044
  943MOL0     O27229   9.763   7.242   6.354 -0.0632  0.7819  1.0731
  943MOL0     C27230   9.721   7.263   6.217  0.1964 -0.5837 -0.4500
  943MOL0     C27231   9.682   7.143   6.132  0.1716 -0.8758 -0.2418
  943MOL0     C27232   9.796   7.050   6.096  0.2826  1.0523  0.8673
  943MOL0     C27233   9.892   7.111   5.993 -0.9072  0.4419  0.3638
  943MOL0     C27234  10.000   7.008   5.960  0.3669 -0.7599  0.2326
  943MOL0     C27235  10.087   6.927   5.941  0.2390 -0.5143  0.2586
  943MOL0     C27236   9.764   7.274   6.589  0.0830 -0.1676 -0.5042
  943MOL0     C27237   9.701   7.308   6.710 -0.0361 -0.0182 -0.4140
  943MOL0     H27238   9.391   7.603   6.923  0.7934  0.1569  0.7645
  943MOL0     H27239   9.211   7.730   7.069  0.3051  0.1631 -0.8985
  943MOL0     H27240   9.146   7.591   7.339 -2.4945 -1.1274  4.0960
  943MOL0     H27241   9.126   7.741   7.285 -0.2556 -0.5810 -1.4524
  943MOL0     H27242   8.879   7.715   7.382  0.5775  1.2735  0.8771
  943MOL0     H27243   8.917   7.552   7.419  1.1116  0.5490  0.5764
  943MOL0     H27244   9.104   7.621   7.573 -2.4339 -1.2329  1.3500
  943MOL0     H27245   9.054   7.791   7.530 -3.1655  0.8515  0.7677
  943MOL0     H27246   8.958   7.718   7.736 -1.5749  4.2604 -1.7100
  943MOL0     H27247   8.826   7.732   7.618 -1.1174  0.1810  0.8754
  943MOL0     H27248   8.780   7.516   7.608 -4.6941  4.6292  2.2177
  943MOL0     H27249   8.936   7.460   7.685 -1.1095 -0.0998  2.1215
  943MOL0     H27250   8.857   7.574   7.885 -0.9852 -1.4732  2.1159
  943MOL0     H27251   8.686   7.592   7.799 -0.4737 -0.0027 -4.0799
  943MOL0     H27252   8.641   7.369   7.822  0.9563  0.7171 -1.7303
  943MOL0     H27253   8.803   7.315   7.839 -1.0562  0.4325 -1.6853
  943MOL0     H27254   8.613   7.407   8.033 -0.7884  0.2962 -0.8335
  943MOL0     H27255   8.762   7.503   8.066 -0.3516  0.1138 -0.1483
  943MOL0     H27256   8.915   7.339   8.253  1.0986 -1.2923  0.5307
  943MOL0     H27257   9.009   7.110   8.360 -0.1881 -1.8535  1.4817
  943MOL0     H27258   8.982   6.970   8.259 -1.4062 -0.0933  1.7179
  943MOL0     H27259   9.173   7.213   8.190  0.8908 -1.0664  0.2993
  943MOL0     H27260   9.144   7.068   8.085  0.3401 -2.7685  0.6513
  943MOL0     H27261   9.356   7.033   8.216 -0.4397  1.7678 -0.3608
  943MOL0     H27262   9.236   6.910   8.202  1.3481 -0.3377  1.2476
  943MOL0     H27263   9.145   6.947   8.436  0.2745 -0.2648 -0.5177
  943MOL0     H27264   9.246   7.082   8.461  0.4189 -1.4027  1.3174
  943MOL0     H27265   9.493   6.753   8.599  1.1701  0.1320  1.5599
  943MOL0     H27266   9.831   6.820   8.725  0.8536 -1.2624  1.6772
  943MOL0     H27267   9.715   6.681   8.708  1.2591  1.1388  1.5699
  943MOL0     H27268   9.845   6.693   8.598  1.9779 -0.2319  1.6777
  943MOL0     H27269  10.130   6.838   8.339  0.4418 -0.3930 -2.0136
  943MOL0     H27270  10.366   6.859   8.279 -2.3863 -1.4441  0.1670
  943MOL0     H27271  10.579   6.931   8.219 -1.0616 -2.3792 -3.1198
  943MOL0     H27272  10.509   7.015   8.090 -2.1401 -0.2416  1.6943
  943MOL0     H27273  10.734   7.071   8.055 -4.6777  1.6255 -2.7796
  943MOL0     H27274  10.685   7.218   8.135  4.5973  0.7669 -1.2451
  943MOL0     H27275  10.793   7.018   8.319 -0.1020  1.6028  3.4683
  943MOL0     H27276  10.741   7.173   8.352 -0.9096 -3.3471  2.3974
  943MOL0     H27277  10.970   7.076   8.184 -1.3108 -2.1707  1.8580
  943MOL0     H27278  10.910   7.245   8.156 -0.9109  0.9766  0.9084
  943MOL0     H27279  10.939   7.303   8.385 -1.1339  1.7569 -5.4027
  943MOL0     H27280  11.089   7.271   8.314  0.8799 -2.3035 -2.3007
  943MOL0     H27281  10.989   7.024   8.446  0.9351 -0.7956  1.2191
  943MOL0     H27282  11.144   7.086   8.450 -0.9267 -2.1433 -1.3603
  943MOL0     H27283  10.944   7.139   8.648  0.5082 -0.6094  0.1850
  943MOL0     H27284  11.006   7.297   8.584 -1.5296  0.2064 -0.8131
  943MOL0     H27285  11.239   7.186   8.628 -0.5352  1.0128 -0.0885
  943MOL0     H27286  11.163   7.042   8.676 -0.0870 -0.1957  0.6849
  943MOL0     H27287  10.332   7.287   8.336  3.5370 -0.9967  2.4557
  943MOL0     H27288  10.088   7.253   8.403 -2.3732 -2.1784  0.4946
  943MOL0     H27289   9.705   7.133   8.367  0.1592 -0.8575 -1.5179
  943MOL0     H27290   9.485   7.123   8.380 -1.5539  1.1430  1.9621
  943MOL0     H27291   9.008   7.350   7.099  2.3527  0.1277  2.0023
  943MOL0     H27292   9.170   7.245   6.946 -2.6087 -0.3648  1.6585
  943MOL0     H27293   9.382   7.337   6.577 -0.2146 -1.7585 -1.8067
  943MOL0     H27294   9.507   7.297   6.385  1.3654  0.9769  0.1500
  943MOL0     H27295   9.631   7.324   6.205  1.1251  0.3281 -3.9269
  943MOL0     H27296   9.801   7.315   6.165 -0.0384 -0.8531 -1.0909
  943MOL0     H27297   9.658   7.190   6.036  1.7832 -0.4626 -0.4664
  943MOL0     H27298   9.594   7.089   6.167  0.1905 -0.6628  0.1340
  943MOL0     H27299   9.751   6.955   6.066 -1.4957  1.7306  1.2415
  943MOL0     H27300   9.846   7.034   6.192 -0.6675 -1.8810  0.9654
  943MOL0     H27301   9.935   7.210   6.012 -0.4788  0.5836 -1.1948
  943MOL0     H27302   9.827   7.116   5.905  0.8038 -0.9928 -1.0852
  943MOL0     H27303  10.159   6.870   5.886  1.0460  0.6543  0.0624
  943MOL0     H27304   9.869   7.253   6.604 -0.1475 -0.1730  1.3847
  943MOL0     H27305   9.770   7.299   6.793 -1.5318 -2.2054  0.6941
  944MOL0     O27306   3.694   2.651   7.615  0.5160 -0.2361 -0.2557
  944MOL0     C27307   3.744   2.542   7.619 -0.4825  0.3920 -0.5395
  944MOL0     O27308   3.766   2.455   7.509 -0.7034  0.0053 -0.2775
  944MOL0     C27309   3.740   2.497   7.382 -0.5359  0.1055  0.4579
  944MOL0     C27310   3.763   2.623   7.341 -0.2894 -0.2838 -0.2500
  944MOL0     C27311   3.734   2.657   7.212 -0.8371 -0.3736  0.2919
  944MOL0     C27312   3.682   2.581   7.114 -0.5272  0.6982  0.7112
  944MOL0     O27313   3.653   2.642   6.991 -0.3419  0.5843 -0.8599
  944MOL0     C27314   3.634   2.560   6.873 -0.2087 -0.3613  0.3575
  944MOL0     C27315   3.757   2.503   6.805  0.1741 -0.3164 -0.4981
  944MOL0     C27316   3.860   2.595   6.739  1.0907  0.0723 -1.0068
  944MOL0     C27317   3.833   2.648   6.596 -0.3537  0.1349  0.0362
  944MOL0     C27318   3.923   2.769   6.589  0.2103  0.9736  1.2235
  944MOL0     C27319   3.900   2.857   6.472  0.2860 -0.1729 -0.7775
  944MOL0     C27320   3.896   2.798   6.329  0.5592 -0.3739  0.6425
  944MOL0     C27321   4.031   2.738   6.290 -0.5496 -0.3456  0.1325
  944MOL0     N27322   4.037   2.706   6.149 -0.0604 -0.8268 -0.0847
  944MOL0     C27323   3.998   2.585   6.088 -0.8274 -0.3924 -0.1945
  944MOL0     C27324   4.034   2.609   5.960 -0.0574  0.8713 -0.9810
  944MOL0     C27325   4.007   2.501   5.871 -0.5182  0.0691  0.7991
  944MOL0     C27326   4.101   2.383   5.875 -0.0130  0.2982  0.6257
  944MOL0     C27327   4.237   2.413   5.810 -0.0335  0.4745  0.2504
  944MOL0     C27328   4.338   2.491   5.888  0.5488  0.1216  0.1211
  944MOL0     O27329   4.385   2.404   5.995 -0.1564  0.5110 -0.6448
  944MOL0     C27330   4.460   2.481   6.089  0.6741  0.1580  0.9493
  944MOL0     C27331   4.405   2.595   6.153 -0.7252 -0.0646  0.6356
  944MOL0     C27332   4.485   2.678   6.236  0.9854 -0.0695 -0.7732
  944MOL0     C27333   4.417   2.810   6.276 -0.0280  0.4208  0.2268
  944MOL0     C27334   4.625   2.643   6.249  0.1743 -0.8791 -0.1407
  944MOL0     C27335   4.718   2.735   6.322 -0.7318  0.2598 -0.0854
  944MOL0     O27336   4.706   2.864   6.309 -0.4998 -0.1796  1.2488
  944MOL0     C27337   4.799   2.946   6.361  0.6273 -0.1207 -0.1401
  944MOL0     C27338   4.943   2.924   6.368  0.1572 -0.1947 -0.0677
  944MOL0     C27339   5.030   3.026   6.415 -0.2388  0.4979 -0.2504
  944MOL0     C27340   4.981   3.149   6.464 -1.0871 -1.0999 -0.0991
  944MOL0     O27341   5.069   3.239   6.520 -0.0581 -1.1248 -0.4964
  944MOL0     C27342   5.101   3.206   6.653 -0.5416 -0.2652 -0.5375
  944MOL0     C27343   5.209   3.303   6.695  0.0258 -0.3661 -0.8003
  944MOL0     C27344   5.336   3.232   6.753  0.4082  0.6952  0.0033
  944MOL0     C27345   5.430   3.322   6.840 -0.0311  0.1114  0.2661
  944MOL0     C27346   5.550   3.242   6.903  0.2264 -0.3229  1.3981
  944MOL0     C27347   5.649   3.339   6.957 -1.2776 -0.0090 -0.1716
  944MOL0     C27348   5.774   3.274   7.004 -0.4517  0.3665  0.3930
  944MOL0     C27349   5.898   3.368   6.996 -0.1991  0.1750  0.2903
  944MOL0    Cl27350   6.021   3.307   7.112  0.7354  0.6478  0.3540
  944MOL0     C27351   4.836   3.166   6.454 -0.1119 -0.0794  0.8905
  944MOL0     C27352   4.750   3.064   6.400 -1.1322  0.0175 -1.0760
  944MOL0     O27353   4.802   2.677   6.397  0.4820  0.4843 -0.0367
  944MOL0     C27354   4.675   2.529   6.193  0.0059 -1.1132  0.1461
  944MOL0     C27355   4.597   2.449   6.110 -0.2907 -0.0017 -0.5350
  944MOL0     N27356   4.069   2.743   5.948 -0.2673  0.1314 -0.2031
  944MOL0     N27357   4.070   2.804   6.060 -0.5844 -0.4295 -1.4001
  944MOL0     C27358   3.665   2.443   7.152 -0.6428  0.1956  0.3374
  944MOL0     C27359   3.699   2.403   7.284  0.4267 -0.0650  0.0964
  944MOL0     C27360   3.777   2.480   7.750  0.1858  0.1029  0.1968
  944MOL0     C27361   3.802   2.339   7.772  0.1552 -1.1260  0.1499
  944MOL0     C27362   3.846   2.296   7.898  0.8738  1.1857  0.2597
  944MOL0     C27363   3.850   2.383   8.008 -0.6546  0.7865 -0.2146
  944MOL0     O27364   3.892   2.346   8.133 -0.4848  0.7485 -0.0534
  944MOL0     C27365   3.902   2.208   8.161  0.0158  0.3551  1.1281
  944MOL0     C27366   3.941   2.167   8.311  0.0854  0.4368  0.0155
  944MOL0     C27367   4.044   2.262   8.365 -0.3726  0.0890 -0.4629
  944MOL0     C27368   4.132   2.201   8.465 -0.5872 -0.2320  0.3942
  944MOL0     C27369   4.241   2.290   8.521  0.3553  0.0554  0.7682
  944MOL0     C27370   4.321   2.370   8.565 -0.7164 -0.3722  0.5077
  944MOL0     C27371   3.815   2.518   7.990  0.5490  0.3864  0.2715
  944MOL0     C27372   3.790   2.568   7.862 -1.1908  0.7363 -0.2928
  944MOL0     H27373   3.810   2.698   7.405  0.1823 -0.3993 -0.4567
  944MOL0     H27374   3.753   2.760   7.185  0.5328 -1.3342 -2.9447
  944MOL0     H27375   3.549   2.499   6.903 -0.0951  0.3691  2.3423
  944MOL0     H27376   3.589   2.629   6.801 -4.2822 -1.9093  1.1990
  944MOL0     H27377   3.804   2.441   6.882  0.9059  2.8917  1.8391
  944MOL0     H27378   3.727   2.422   6.739 -0.3979 -1.5716  1.2297
  944MOL0     H27379   3.899   2.675   6.803  2.0533 -0.9148 -0.3283
  944MOL0     H27380   3.944   2.526   6.730 -0.4877 -1.9748 -0.7314
  944MOL0     H27381   3.855   2.576   6.516  1.7329 -1.1104  1.6524
  944MOL0     H27382   3.729   2.683   6.596 -0.3708  0.1058 -0.5070
  944MOL0     H27383   3.923   2.836   6.676  0.4198  2.5567  0.0617
  944MOL0     H27384   4.023   2.726   6.589  1.5380  3.8421  1.8147
  944MOL0     H27385   3.800   2.896   6.490  0.0255 -1.9808  2.5356
  944MOL0     H27386   3.968   2.942   6.486  2.4180 -2.0773  1.1906
  944MOL0     H27387   3.811   2.730   6.323 -2.4592  3.1988 -3.2563
  944MOL0     H27388   3.878   2.873   6.252  1.5645  1.9580  2.5332
  944MOL0     H27389   4.042   2.649   6.353 -0.1507  0.0846  0.6747
  944MOL0     H27390   4.109   2.810   6.315 -1.4094  1.2413 -1.5498
  944MOL0     H27391   3.943   2.501   6.130 -0.8072 -0.3462 -0.0752
  944MOL0     H27392   3.905   2.476   5.900 -1.3943 -0.5206 -2.3977
  944MOL0     H27393   4.001   2.535   5.768 -1.9299  1.2450  1.2359
  944MOL0     H27394   4.050   2.299   5.826 -1.0060 -0.2602  2.5324
  944MOL0     H27395   4.126   2.362   5.979 -1.7443 -0.7645  0.8598
  944MOL0     H27396   4.207   2.458   5.715 -0.3831  2.5056  1.2646
  944MOL0     H27397   4.294   2.328   5.772  3.5227  2.7014  0.0706
  944MOL0     H27398   4.302   2.589   5.918  1.9743  0.5879  0.3804
  944MOL0     H27399   4.425   2.521   5.829  0.2261  2.1785  0.6171
  944MOL0     H27400   4.307   2.633   6.127  1.6918  4.4306 -3.3691
  944MOL0     H27401   4.451   2.884   6.204 -1.7550 -0.3303 -1.4549
  944MOL0     H27402   4.308   2.800   6.266  0.3339 -1.0366 -4.2492
  944MOL0     H27403   4.461   2.841   6.371  1.2793  1.8498 -0.8034
  944MOL0     H27404   4.985   2.832   6.329 -1.4105 -0.6873 -0.6696
  944MOL0     H27405   5.139   3.026   6.420 -0.0916  3.0927 -1.6857
  944MOL0     H27406   5.018   3.208   6.723  1.7192  1.2280  2.3049
  944MOL0     H27407   5.134   3.102   6.661 -0.2209 -0.5081 -3.5940
  944MOL0     H27408   5.242   3.373   6.618 -1.4138 -0.0270 -1.1451
  944MOL0     H27409   5.179   3.362   6.783  2.2332  0.9242 -0.8515
  944MOL0     H27410   5.392   3.207   6.663 -2.1526  1.4048 -1.9283
  944MOL0     H27411   5.316   3.142   6.812  2.1494  0.8543  0.9073
  944MOL0     H27412   5.477   3.400   6.780  1.6536 -2.7820 -2.5087
  944MOL0     H27413   5.380   3.370   6.924 -1.4752 -1.6833  0.4978
  944MOL0     H27414   5.588   3.185   6.817 -2.4770  0.9482 -0.7748
  944MOL0     H27415   5.522   3.166   6.977  0.6175 -2.9225 -0.9577
  944MOL0     H27416   5.688   3.413   6.886 -0.1306 -0.0894  0.3533
  944MOL0     H27417   5.613   3.407   7.034 -1.5712 -0.7005  0.3065
  944MOL0     H27418   5.791   3.185   6.944  0.8996  1.6601 -1.2329
  944MOL0     H27419   5.756   3.258   7.111  2.4308  4.3070  1.7034
  944MOL0     H27420   5.860   3.460   7.040 -1.1327 -0.1268  0.1378
  944MOL0     H27421   5.943   3.386   6.898  3.4679 -0.8671  1.5851
  944MOL0     H27422   4.791   3.264   6.462 -2.4596 -1.1430  1.6138
  944MOL0     H27423   4.644   3.085   6.387 -1.4036  0.0111  0.7917
  944MOL0     H27424   4.781   2.510   6.209  0.0770  1.6303  4.8853
  944MOL0     H27425   4.627   2.350   6.078  0.3427  0.2603 -0.7614
  944MOL0     H27426   3.632   2.366   7.083  1.8407 -1.2444  0.6523
  944MOL0     H27427   3.680   2.299   7.310 -0.2827  0.3234  1.1862
  944MOL0     H27428   3.793   2.264   7.693 -1.2741  1.4318 -2.2705
  944MOL0     H27429   3.845   2.190   7.922  2.0229 -0.1998 -4.6772
  944MOL0     H27430   3.819   2.150   8.120 -2.0326  3.3968  0.6324
  944MOL0     H27431   3.993   2.176   8.109 -2.0560 -0.3495 -2.3634
  944MOL0     H27432   3.983   2.066   8.323 -0.8689  0.1257  0.9204
  944MOL0     H27433   3.858   2.180   8.380  0.8548 -0.3481  1.1469
  944MOL0     H27434   3.981   2.341   8.406 -0.5548  0.0814 -0.7259
  944MOL0     H27435   4.102   2.305   8.282 -0.0401 -1.1085 -0.8761
  944MOL0     H27436   4.177   2.106   8.435 -2.9157 -1.2230 -0.1544
  944MOL0     H27437   4.072   2.176   8.554  0.9633 -0.2038  1.4920
  944MOL0     H27438   4.394   2.429   8.616 -0.8715 -1.3985  1.9717
  944MOL0     H27439   3.815   2.580   8.078 -0.1057  1.8986 -0.7567
  944MOL0     H27440   3.762   2.672   7.850  0.7825  1.3664  0.2138
  945MOL0     O27441  11.185  10.911  10.156  0.0076  0.2285 -0.5173
  945MOL0     C27442  11.250  11.013  10.166 -1.1645 -0.5096 -0.0531
  945MOL0     O27443  11.215  11.130  10.106 -0.3577  0.5718 -0.0595
  945MOL0     C27444  11.142  11.108   9.993 -0.0907  0.7474 -0.7244
  945MOL0     C27445  11.004  11.094  10.006  0.4637  0.3163 -0.0230
  945MOL0     C27446  10.924  11.072   9.894  1.0602 -0.2783 -0.0671
  945MOL0     C27447  10.981  11.088   9.767 -0.0865 -0.0511 -1.0116
  945MOL0     O27448  10.903  11.083   9.651  0.0778 -0.4898 -0.4348
  945MOL0     C27449  10.889  11.208   9.572  0.2630 -0.3475  0.3301
  945MOL0     C27450  10.819  11.184   9.441  0.1611  1.0302 -0.2106
  945MOL0     C27451  10.830  11.317   9.365 -0.4046  0.7184  0.5295
  945MOL0     C27452  10.971  11.342   9.318 -0.0165 -0.0901  1.1309
  945MOL0     C27453  10.958  11.436   9.184 -0.2769 -0.5171  0.5834
  945MOL0     C27454  11.098  11.498   9.151 -0.6054 -0.2814 -0.5451
  945MOL0     C27455  11.193  11.399   9.083  0.7144 -1.1103 -0.9896
  945MOL0     C27456  11.332  11.448   9.063  0.5736 -1.0254 -0.7403
  945MOL0     N27457  11.429  11.348   9.025 -0.3389 -0.9067 -0.2537
  945MOL0     C27458  11.429  11.266   8.915 -0.4265  0.1316 -0.1047
  945MOL0     C27459  11.495  11.156   8.947 -0.1614  0.3449 -0.0738
  945MOL0     C27460  11.500  11.031   8.863 -0.9614 -0.9460  0.0333
  945MOL0     C27461  11.374  11.008   8.774  0.0357 -1.0089  0.5217
  945MOL0     C27462  11.248  10.967   8.844 -0.6699 -0.6943  0.4810
  945MOL0     C27463  11.137  10.926   8.748 -0.7759 -1.0045 -1.6753
  945MOL0     O27464  11.161  10.805   8.676 -0.7185  1.3648  0.7220
  945MOL0     C27465  11.073  10.775   8.573  0.7585  0.2964  1.3559
  945MOL0     C27466  10.944  10.826   8.565 -0.5013 -0.3773 -0.1894
  945MOL0     C27467  10.854  10.770   8.483  0.8196  0.9574  0.1369
  945MOL0     C27468  10.704  10.797   8.513  0.2174 -0.1065 -0.2140
  945MOL0     C27469  10.889  10.673   8.388  0.0913  0.4945  0.4248
  945MOL0     C27470  10.809  10.613   8.284 -0.5991  0.1222  0.5069
  945MOL0     O27471  10.821  10.482   8.263  0.4913 -0.3941 -0.2811
  945MOL0     C27472  10.756  10.418   8.160  0.1354  0.8801  0.3567
  945MOL0     C27473  10.628  10.423   8.102 -0.0121 -0.0024  0.6037
  945MOL0     C27474  10.596  10.348   7.991  0.6501 -0.5590  0.1934
  945MOL0     C27475  10.692  10.283   7.910  0.0563  0.3206 -1.1491
  945MOL0     O27476  10.670  10.205   7.795  0.5355  0.0480 -0.1002
  945MOL0     C27477  10.548  10.222   7.720 -0.0109  0.6891 -0.2543
  945MOL0     C27478  10.572  10.117   7.605  0.0094  0.7080 -0.1477
  945MOL0     C27479  10.478  10.145   7.484 -0.2421 -0.0030 -0.3618
  945MOL0     C27480  10.455  10.016   7.402  0.5613 -0.0236 -0.3328
  945MOL0     C27481  10.357  10.047   7.269 -0.4390  0.4015  0.5707
  945MOL0     C27482  10.324   9.923   7.174  0.2862 -0.8298  0.0950
  945MOL0     C27483  10.259   9.976   7.036 -1.0743  0.4110  0.1455
  945MOL0     C27484  10.281   9.867   6.927 -0.6577  0.1690 -0.1794
  945MOL0    Cl27485  10.132   9.770   6.901  0.0269 -0.3536 -0.1940
  945MOL0     C27486  10.819  10.277   7.959 -0.2545 -0.4681  0.1338
  945MOL0     C27487  10.842  10.337   8.085 -0.4755  0.0644 -0.4272
  945MOL0     O27488  10.740  10.697   8.218 -0.2956 -0.6511  0.2033
  945MOL0     C27489  11.026  10.631   8.387  0.4428 -0.7621  0.0339
  945MOL0     C27490  11.109  10.667   8.487  0.2542 -0.3810  0.9950
  945MOL0     N27491  11.533  11.174   9.081 -0.1972 -0.0038 -0.0070
  945MOL0     N27492  11.503  11.285   9.130  0.1899  0.8351  0.7391
  945MOL0     C27493  11.125  11.099   9.759 -0.5949 -0.8765 -1.2108
  945MOL0     C27494  11.206  11.112   9.868 -0.1754 -0.4591 -0.4324
  945MOL0     C27495  11.364  11.015  10.267  0.4521 -0.3175 -0.1700
  945MOL0     C27496  11.433  11.128  10.312  0.0704  0.8587 -0.7445
  945MOL0     C27497  11.527  11.109  10.415 -0.0178  0.0619 -0.2316
  945MOL0     C27498  11.546  10.986  10.480 -0.1075  0.2516 -0.2076
  945MOL0     O27499  11.622  10.970  10.592  0.1791 -0.4865 -0.9932
  945MOL0     C27500  11.722  11.073  10.615  0.6427  0.3988 -0.8850
  945MOL0     C27501  11.794  11.073  10.757  0.2367  0.0651  0.3991
  945MOL0     C27502  11.903  11.193  10.771 -0.1073  0.0742  0.4943
  945MOL0     C27503  11.866  11.335  10.734  0.6718  0.5079 -0.0647
  945MOL0     C27504  11.982  11.417  10.735  0.2765  0.2699 -0.2111
  945MOL0     C27505  12.070  11.501  10.728  0.1103 -0.1797  0.3759
  945MOL0     C27506  11.481  10.873  10.433 -1.0598  0.6814  0.3414
  945MOL0     C27507  11.397  10.888  10.329  0.1556  0.0486 -0.2085
  945MOL0     H27508  10.969  11.097  10.109  0.6226 -0.1081  0.0432
  945MOL0     H27509  10.817  11.059   9.891  0.7726  1.3908  1.4931
  945MOL0     H27510  10.828  11.283   9.624  0.4126  1.8149 -2.3929
  945MOL0     H27511  10.986  11.249   9.543 -0.7760  0.7722 -1.8824
  945MOL0     H27512  10.873  11.111   9.379 -1.0039  2.7818 -3.5793
  945MOL0     H27513  10.722  11.137   9.451  0.0694  0.4766 -2.8028
  945MOL0     H27514  10.763  11.315   9.278  1.1102 -0.3805 -0.6558
  945MOL0     H27515  10.788  11.392   9.433 -1.4936  0.8545 -0.2727
  945MOL0     H27516  11.020  11.402   9.395  0.3127  0.4282  0.5234
  945MOL0     H27517  11.019  11.248   9.289 -2.5698 -1.3736  0.8010
  945MOL0     H27518  10.915  11.385   9.097  0.5766  0.6618 -0.5694
  945MOL0     H27519  10.890  11.519   9.204 -3.3058 -2.6058 -0.3150
  945MOL0     H27520  11.079  11.588   9.092  0.0122  0.0680 -0.2274
  945MOL0     H27521  11.144  11.531   9.245 -2.6543  1.7251 -0.1445
  945MOL0     H27522  11.191  11.304   9.137  0.8203 -1.1469 -1.0491
  945MOL0     H27523  11.141  11.393   8.987 -3.7018 -0.9554  1.1368
  945MOL0     H27524  11.361  11.494   9.158 -0.7956 -0.0784 -0.7543
  945MOL0     H27525  11.327  11.519   8.981 -2.3208  1.8385  1.6444
  945MOL0     H27526  11.375  11.282   8.822  0.9680  1.7384 -0.6986
  945MOL0     H27527  11.594  11.036   8.807 -0.4329  1.8249  0.9847
  945MOL0     H27528  11.512  10.951   8.937  3.3749  1.2770  2.1385
  945MOL0     H27529  11.397  10.936   8.695 -0.8907 -1.0223  0.2491
  945MOL0     H27530  11.344  11.102   8.727  0.4172 -0.9757  0.3381
  945MOL0     H27531  11.220  11.053   8.906  0.9074  1.6344 -1.8009
  945MOL0     H27532  11.259  10.876   8.903 -0.7391 -1.3300 -0.4658
  945MOL0     H27533  11.130  11.007   8.675 -0.7365  1.2320  0.6844
  945MOL0     H27534  11.042  10.911   8.801 -1.1958  2.2404 -1.3067
  945MOL0     H27535  10.904  10.907   8.626  0.7169  0.4376 -0.4249
  945MOL0     H27536  10.665  10.882   8.457 -1.6712  1.0823  2.6899
  945MOL0     H27537  10.642  10.708   8.497 -1.0798  0.3336  1.9813
  945MOL0     H27538  10.688  10.812   8.620 -0.4656 -2.1688  0.0177
  945MOL0     H27539  10.558  10.488   8.153  1.9746 -0.0352  3.6232
  945MOL0     H27540  10.497  10.346   7.948  0.1165 -2.1708  1.4130
  945MOL0     H27541  10.472  10.184   7.789 -1.0823  2.3842 -0.4446
  945MOL0     H27542  10.515  10.317   7.677  1.7327 -0.5867 -5.0687
  945MOL0     H27543  10.676  10.119   7.571 -0.6505 -0.1794 -2.3677
  945MOL0     H27544  10.551  10.016   7.640  0.6613  0.0098 -1.6871
  945MOL0     H27545  10.533  10.219   7.425  2.0678 -1.2963  0.0600
  945MOL0     H27546  10.375  10.177   7.500 -0.4801 -1.6418  1.9503
  945MOL0     H27547  10.544   9.976   7.353 -0.4750 -2.1745 -0.6148
  945MOL0     H27548  10.410   9.936   7.461  1.7165 -0.4986 -0.0643
  945MOL0     H27549  10.409  10.120   7.206  0.7778 -2.1982 -1.6304
  945MOL0     H27550  10.265  10.091   7.310 -1.2379 -1.2320  0.6375
  945MOL0     H27551  10.423   9.882   7.153  1.6988  1.3590  2.0573
  945MOL0     H27552  10.248   9.862   7.225 -1.6042  2.0570  0.9241
  945MOL0     H27553  10.312  10.066   7.005  0.0936 -0.2913  0.0572
  945MOL0     H27554  10.153   9.999   7.049 -1.8327 -0.3636 -3.4736
  945MOL0     H27555  10.355   9.795   6.962 -0.9029  0.2873  0.6076
  945MOL0     H27556  10.313   9.912   6.833  0.6326 -2.3352 -1.0102
  945MOL0     H27557  10.896  10.216   7.912 -0.2157 -1.5834  1.5740
  945MOL0     H27558  10.944  10.333   8.122 -0.2933  4.3944  0.0345
  945MOL0     H27559  11.061  10.557   8.316  1.9236 -2.6572  2.5802
  945MOL0     H27560  11.206  10.619   8.494  0.5020  0.0442  0.5869
  945MOL0     H27561  11.177  11.091   9.663  1.5171 -0.3983 -0.1662
  945MOL0     H27562  11.313  11.124   9.854 -0.2698  0.4456 -0.4259
  945MOL0     H27563  11.412  11.230  10.280  2.3576  1.9120  0.8716
  945MOL0     H27564  11.570  11.202  10.452 -0.0759 -0.6471  1.7534
  945MOL0     H27565  11.798  11.064  10.537 -0.9120 -1.3684 -2.2934
  945MOL0     H27566  11.678  11.173  10.614 -0.5216  0.0131  1.9153
  945MOL0     H27567  11.846  10.977  10.765 -0.9806 -0.4579  3.3536
  945MOL0     H27568  11.713  11.085  10.830 -2.3967  1.0339 -2.4283
  945MOL0     H27569  11.975  11.168  10.692 -0.7713  0.0519 -0.1137
  945MOL0     H27570  11.956  11.185  10.866 -0.0356  0.6413  0.5031
  945MOL0     H27571  11.789  11.369  10.804 -2.5359  0.7373 -3.4234
  945MOL0     H27572  11.816  11.344  10.638 -0.9080 -5.4355 -0.1687
  945MOL0     H27573  12.144  11.578  10.733 -2.6265  2.6558 -0.1983
  945MOL0     H27574  11.499  10.773  10.469 -0.3018  0.3643 -0.8668
  945MOL0     H27575  11.338  10.799  10.308  1.6464 -1.5529  1.9692
  946MOL0     O27576   6.604   6.436   3.739 -0.2742  0.3872  0.0830
  946MOL0     C27577   6.677   6.533   3.746  0.0525  0.7507  0.9665
  946MOL0     O27578   6.796   6.549   3.681 -0.1950 -0.4171  0.4865
  946MOL0     C27579   6.842   6.445   3.597 -1.0602  0.8580 -1.0102
  946MOL0     C27580   6.976   6.392   3.620  0.6327 -0.6463 -0.8144
  946MOL0     C27581   7.013   6.287   3.533 -0.6156  0.0210 -0.2426
  946MOL0     C27582   6.937   6.264   3.411 -0.3921  0.3702  0.9800
  946MOL0     O27583   6.983   6.189   3.296  0.5746 -0.3458 -0.4577
  946MOL0     C27584   7.123   6.201   3.274  0.0068 -0.3825  0.8964
  946MOL0     C27585   7.141   6.308   3.171 -0.4484 -0.7379  0.1539
  946MOL0     C27586   7.088   6.445   3.218 -0.0078  1.2390  0.3627
  946MOL0     C27587   7.156   6.564   3.134  1.1606  0.7523  0.3850
  946MOL0     C27588   7.067   6.674   3.101 -0.7884  1.1139 -0.9457
  946MOL0     C27589   7.001   6.656   2.960 -0.8249 -0.3826  0.1590
  946MOL0     C27590   6.933   6.789   2.918  0.3583 -0.2974  0.3543
  946MOL0     C27591   6.885   6.782   2.775  0.6978 -0.6435  0.4761
  946MOL0     N27592   6.846   6.918   2.722 -0.0570  0.1601 -1.1780
  946MOL0     C27593   6.718   6.955   2.703 -0.5288  1.0513  0.9360
  946MOL0     C27594   6.730   7.079   2.647  0.7996 -0.0441  0.3480
  946MOL0     C27595   6.623   7.181   2.617 -0.2856 -0.4746 -0.1874
  946MOL0     C27596   6.486   7.114   2.568 -0.3764 -1.2341  0.1753
  946MOL0     C27597   6.369   7.225   2.587 -0.3967  0.9200 -0.3387
  946MOL0     C27598   6.384   7.361   2.518 -0.5261 -0.2418  0.1399
  946MOL0     O27599   6.418   7.344   2.381 -0.6640 -0.9350 -0.7980
  946MOL0     C27600   6.481   7.446   2.319 -0.0163  1.0571  0.1271
  946MOL0     C27601   6.590   7.416   2.238  0.2906 -0.2737 -1.1304
  946MOL0     C27602   6.662   7.520   2.189 -0.2633 -0.6264  0.2739
  946MOL0     C27603   6.792   7.478   2.115  0.0056  0.4493 -0.2255
  946MOL0     C27604   6.621   7.658   2.209 -1.0335  1.1434  0.4150
  946MOL0     C27605   6.686   7.770   2.138  0.3189  0.4188  0.2606
  946MOL0     O27606   6.615   7.889   2.132 -0.4057  0.6633  0.0639
  946MOL0     C27607   6.683   7.997   2.088 -0.4764 -1.4338  0.6108
  946MOL0     C27608   6.662   8.046   1.964  0.4546  0.1362  0.1702
  946MOL0     C27609   6.743   8.144   1.919 -0.7202 -0.1264 -0.3093
  946MOL0     C27610   6.847   8.195   1.992  0.0252 -0.4494  0.4753
  946MOL0     O27611   6.931   8.278   1.921  0.0020  0.5546  0.3722
  946MOL0     C27612   7.069   8.308   1.971 -0.0831  0.0812 -0.5821
  946MOL0     C27613   7.078   8.418   2.087  1.2964  0.7462  0.5286
  946MOL0     C27614   7.043   8.548   2.010  0.1446  0.2365  0.4075
  946MOL0     C27615   7.051   8.680   2.094 -0.4473 -0.4238 -0.1268
  946MOL0     C27616   6.950   8.690   2.208 -0.8946 -0.4920  0.1131
  946MOL0     C27617   6.928   8.828   2.277  0.3882  0.1379  0.0557
  946MOL0     C27618   7.038   8.933   2.305 -0.3484  0.3321 -0.3284
  946MOL0     C27619   7.079   8.953   2.448 -0.2722  0.0688 -0.2778
  946MOL0    Cl27620   6.956   9.037   2.549  0.2065 -0.3484 -0.2702
  946MOL0     C27621   6.870   8.155   2.123 -0.1980 -0.8591 -0.5187
  946MOL0     C27622   6.773   8.066   2.171  0.0770  0.4269 -0.4944
  946MOL0     O27623   6.804   7.762   2.097 -0.1107 -0.0527  0.6589
  946MOL0     C27624   6.504   7.681   2.288  0.1473 -0.8721  1.0719
  946MOL0     C27625   6.435   7.576   2.338 -0.6003 -0.5510  0.7947
  946MOL0     N27626   6.863   7.110   2.637  0.7758 -0.1814 -0.1789
  946MOL0     N27627   6.930   7.013   2.677  0.7547 -0.4224  0.3718
  946MOL0     C27628   6.812   6.315   3.398 -0.3841 -0.4526  0.1958
  946MOL0     C27629   6.758   6.401   3.494  0.3882  0.5553  0.0106
  946MOL0     C27630   6.621   6.651   3.816 -0.2735  0.5431 -0.1343
  946MOL0     C27631   6.509   6.635   3.903  0.4067  0.8770  0.8931
  946MOL0     C27632   6.444   6.748   3.959  0.5973  0.2496 -0.7110
  946MOL0     C27633   6.505   6.869   3.949  0.3788  0.3772 -0.2671
  946MOL0     O27634   6.433   6.974   3.999 -0.1950  0.8584  0.2542
  946MOL0     C27635   6.486   7.107   4.002  1.1691 -0.5613  0.1306
  946MOL0     C27636   6.458   7.187   3.869 -0.7143 -0.0066 -1.1916
  946MOL0     C27637   6.535   7.326   3.874  0.8792  0.4587  0.4020
  946MOL0     C27638   6.459   7.409   3.764 -0.4273  0.1121  0.2775
  946MOL0     C27639   6.345   7.483   3.821  0.5487  0.4732 -0.3057
  946MOL0     C27640   6.259   7.535   3.888  0.2885  0.3722 -0.1166
  946MOL0     C27641   6.631   6.876   3.886 -0.1558 -0.5716 -0.4755
  946MOL0     C27642   6.682   6.770   3.810 -0.3353 -0.3935 -0.6300
  946MOL0     H27643   7.036   6.431   3.702 -3.2463 -0.1098  2.0536
  946MOL0     H27644   7.109   6.237   3.547 -0.6022 -0.6856 -2.4868
  946MOL0     H27645   7.184   6.215   3.364  0.2154 -0.3681  0.7522
  946MOL0     H27646   7.158   6.108   3.228  1.0301 -0.0931  1.0641
  946MOL0     H27647   7.249   6.329   3.176 -1.0520  3.3565 -0.5273
  946MOL0     H27648   7.120   6.269   3.071 -0.6937  0.4112 -0.2514
  946MOL0     H27649   6.981   6.442   3.195 -0.7023 -0.9179  3.3125
  946MOL0     H27650   7.098   6.475   3.323 -1.1991 -1.0455  1.2087
  946MOL0     H27651   7.247   6.605   3.179  0.8593  1.5854  0.2509
  946MOL0     H27652   7.197   6.514   3.045  2.2364 -2.6944  2.5924
  946MOL0     H27653   6.993   6.681   3.181 -0.1907  0.6946 -0.3504
  946MOL0     H27654   7.111   6.774   3.111 -1.7200  1.6421 -1.8971
  946MOL0     H27655   7.081   6.636   2.888 -1.9719 -1.7498 -0.7826
  946MOL0     H27656   6.925   6.578   2.971 -3.4448  1.9575 -0.3645
  946MOL0     H27657   6.844   6.788   2.982  1.0387 -0.4206  1.3266
  946MOL0     H27658   7.001   6.875   2.930 -0.0134  0.3316 -1.7312
  946MOL0     H27659   6.795   6.720   2.772  0.4951 -0.3452  0.2518
  946MOL0     H27660   6.948   6.729   2.703  0.4667 -2.4456  1.5333
  946MOL0     H27661   6.626   6.911   2.741 -0.9770 -0.3214 -1.5018
  946MOL0     H27662   6.609   7.244   2.705  3.0522  0.1222  0.0662
  946MOL0     H27663   6.663   7.228   2.526 -2.1302 -0.9777 -1.3068
  946MOL0     H27664   6.454   7.031   2.631 -1.0924  0.8494  2.7551
  946MOL0     H27665   6.508   7.079   2.467  0.1580  0.8117 -0.4634
  946MOL0     H27666   6.354   7.246   2.693 -0.3396  1.2227 -0.3895
  946MOL0     H27667   6.264   7.202   2.563 -1.7471  1.4173  4.1327
  946MOL0     H27668   6.467   7.425   2.549 -1.1313  1.5446 -1.6541
  946MOL0     H27669   6.296   7.426   2.525  1.2232  2.6267 -1.9364
  946MOL0     H27670   6.627   7.314   2.230 -0.7657 -0.6571 -1.3625
  946MOL0     H27671   6.817   7.375   2.142  2.1600  0.7099 -1.0560
  946MOL0     H27672   6.783   7.480   2.006  2.2936 -1.5414 -0.5392
  946MOL0     H27673   6.876   7.544   2.137  0.9152 -0.3808 -1.1149
  946MOL0     H27674   6.580   8.003   1.908 -0.0278 -1.3398  1.9460
  946MOL0     H27675   6.719   8.180   1.819  1.1281 -0.5693 -0.9478
  946MOL0     H27676   7.122   8.222   2.013 -2.1760 -0.7976  0.4094
  946MOL0     H27677   7.121   8.336   1.879  1.1908  1.7310  0.5713
  946MOL0     H27678   7.011   8.397   2.171 -0.3624 -4.3716 -1.6188
  946MOL0     H27679   7.181   8.418   2.125  0.6828 -1.1772  2.3845
  946MOL0     H27680   6.948   8.535   1.957 -0.4593 -0.1002  1.5613
  946MOL0     H27681   7.116   8.562   1.929 -2.0980  1.1287 -1.6110
  946MOL0     H27682   7.149   8.691   2.141  0.2140  0.2901 -1.6166
  946MOL0     H27683   7.040   8.768   2.031  2.9180 -0.3432 -0.7937
  946MOL0     H27684   6.993   8.621   2.281  2.2213  1.6704  0.5607
  946MOL0     H27685   6.855   8.649   2.174 -0.0724 -0.4577 -2.4597
  946MOL0     H27686   6.848   8.863   2.211 -1.0543 -1.7571  0.6933
  946MOL0     H27687   6.873   8.789   2.363 -2.0087  1.3876 -0.8133
  946MOL0     H27688   7.008   9.031   2.265  2.3475 -0.2026 -4.1475
  946MOL0     H27689   7.125   8.893   2.253 -0.5569 -0.7475  0.1312
  946MOL0     H27690   7.172   9.012   2.447  2.1233 -3.3955 -0.5545
  946MOL0     H27691   7.096   8.854   2.492 -1.5064  0.9723  2.3889
  946MOL0     H27692   6.959   8.182   2.179  0.8244 -0.8451 -2.0906
  946MOL0     H27693   6.785   8.030   2.273  1.4872 -0.9248 -1.0898
  946MOL0     H27694   6.478   7.782   2.319  1.3576 -0.6071  1.2667
  946MOL0     H27695   6.357   7.618   2.400  0.0828  1.6725  0.2561
  946MOL0     H27696   6.759   6.273   3.312  0.9681 -2.0293  0.0787
  946MOL0     H27697   6.653   6.427   3.483 -0.1317  0.1800  3.0541
  946MOL0     H27698   6.460   6.539   3.919 -0.9396  1.4614  0.3901
  946MOL0     H27699   6.352   6.730   4.015  0.6848  1.5416 -0.1012
  946MOL0     H27700   6.427   7.160   4.077 -5.2927 -0.9082 -3.9770
  946MOL0     H27701   6.594   7.107   4.022  1.3621  1.8133 -0.6099
  946MOL0     H27702   6.349   7.199   3.860 -0.7045  0.3051 -0.8881
  946MOL0     H27703   6.492   7.126   3.785  5.6108  1.1482  0.0728
  946MOL0     H27704   6.644   7.318   3.863  0.8475  0.7503 -0.1088
  946MOL0     H27705   6.509   7.380   3.966  0.5997  0.5471  0.2698
  946MOL0     H27706   6.423   7.354   3.676 -2.8496  0.8972  0.7155
  946MOL0     H27707   6.538   7.470   3.718 -1.8671  0.4659 -1.8924
  946MOL0     H27708   6.185   7.583   3.948  0.1344  2.1664 -1.6603
  946MOL0     H27709   6.680   6.970   3.910 -1.9179  0.8382 -2.1096
  946MOL0     H27710   6.768   6.786   3.745 -1.0068 -2.0116 -1.9719
  947MOL0     O27711   8.783   3.275  11.280  0.4423  0.1781  0.0264
  947MOL0     C27712   8.792   3.160  11.329 -0.1344 -0.5802 -0.4805
  947MOL0     O27713   8.773   3.044  11.270  0.3031 -0.1579  0.2945
  947MOL0     C27714   8.741   3.039  11.139 -0.3119  0.9686 -0.0912
  947MOL0     C27715   8.816   2.963  11.049 -0.0515 -0.1471 -0.0332
  947MOL0     C27716   8.782   2.966  10.911 -0.8075 -0.0424 -0.0642
  947MOL0     C27717   8.664   3.022  10.866 -0.0465  0.7840 -0.5801
  947MOL0     O27718   8.628   3.013  10.735 -0.4933  0.2884 -0.4643
  947MOL0     C27719   8.507   2.944  10.719 -0.0624 -0.7382 -0.9504
  947MOL0     C27720   8.517   2.864  10.590  0.2979 -0.7443 -0.8834
  947MOL0     C27721   8.436   2.913  10.466 -0.5236  1.6505  0.4622
  947MOL0     C27722   8.293   2.913  10.488 -0.7881 -0.0447  0.8918
  947MOL0     C27723   8.200   2.958  10.371  0.4209  0.5519 -0.0926
  947MOL0     C27724   8.064   2.894  10.387 -0.3594 -0.0598 -1.1604
  947MOL0     C27725   7.967   2.949  10.274 -0.1569  0.4314 -0.1919
  947MOL0     C27726   7.904   3.078  10.315 -0.2673 -0.7770  0.1998
  947MOL0     N27727   7.794   3.076  10.413  0.2503  0.1125 -0.3598
  947MOL0     C27728   7.807   3.159  10.525  1.2056  0.6008 -0.2936
  947MOL0     C27729   7.681   3.167  10.574 -1.0601 -0.6824 -0.2177
  947MOL0     C27730   7.632   3.259  10.676 -0.8032 -1.0565  0.2915
  947MOL0     C27731   7.554   3.199  10.788  0.5863 -0.0714 -0.9868
  947MOL0     C27732   7.457   3.293  10.868  0.4523 -1.2016 -1.0420
  947MOL0     C27733   7.518   3.421  10.924 -0.8361  0.9792 -0.5038
  947MOL0     O27734   7.621   3.396  11.019 -0.3898  0.4986 -0.4665
  947MOL0     C27735   7.711   3.498  11.039 -0.0257 -0.4324 -0.8502
  947MOL0     C27736   7.819   3.474  11.122 -0.6468  0.0474 -0.9768
  947MOL0     C27737   7.915   3.587  11.152  0.1772  0.0704 -0.7192
  947MOL0     C27738   8.017   3.565  11.256  0.5632  0.2911  0.1322
  947MOL0     C27739   7.901   3.713  11.101 -0.3216  0.6047  0.7096
  947MOL0     C27740   7.990   3.832  11.121 -0.5233  0.5204 -0.7833
  947MOL0     O27741   8.049   3.847  11.251  0.5039  0.6308 -0.5800
  947MOL0     C27742   8.167   3.924  11.259  0.0102 -0.5994 -0.6690
  947MOL0     C27743   8.188   4.052  11.196 -0.7104 -1.4222  0.7924
  947MOL0     C27744   8.313   4.119  11.221 -0.3386  0.4817  0.9432
  947MOL0     C27745   8.414   4.073  11.309  0.3405  0.1189 -0.2870
  947MOL0     O27746   8.524   4.133  11.343 -0.2445  0.1822 -0.5977
  947MOL0     C27747   8.580   4.219  11.237 -0.1285 -0.3302  0.1596
  947MOL0     C27748   8.739   4.236  11.251  0.2727  0.3886  0.2658
  947MOL0     C27749   8.806   4.095  11.226  0.4730  0.6288  0.1970
  947MOL0     C27750   8.921   4.075  11.325  0.3360  0.7222 -0.0792
  947MOL0     C27751   8.848   4.033  11.458 -0.8484 -0.5077 -0.1149
  947MOL0     C27752   8.951   4.048  11.581 -0.3098  0.2003  1.2512
  947MOL0     C27753   8.889   4.012  11.717  0.2722 -0.3342  0.5214
  947MOL0     C27754   8.967   3.915  11.808 -0.4034  0.0701 -0.6822
  947MOL0    Cl27755   8.995   3.769  11.691 -0.0930  0.3762 -0.3848
  947MOL0     C27756   8.391   3.946  11.355 -0.5297 -0.2029  0.5452
  947MOL0     C27757   8.278   3.872  11.327 -0.6174  0.3054 -0.6860
  947MOL0     O27758   8.015   3.898  11.021 -0.3093 -0.2380 -0.7305
  947MOL0     C27759   7.780   3.735  11.026  0.1025  0.4078  0.3323
  947MOL0     C27760   7.688   3.634  10.997 -0.5525  0.5961  0.5002
  947MOL0     N27761   7.599   3.091  10.494 -0.0407 -0.2414 -0.7002
  947MOL0     N27762   7.670   3.024  10.402 -0.2875  0.2730 -0.6540
  947MOL0     C27763   8.584   3.098  10.959 -0.4968  0.3506  0.0287
  947MOL0     C27764   8.623   3.098  11.090 -0.3241  0.0891 -0.2278
  947MOL0     C27765   8.821   3.158  11.475  0.1413  0.7465  0.7001
  947MOL0     C27766   8.813   3.042  11.546  0.0710 -0.0444  0.3743
  947MOL0     C27767   8.841   3.030  11.678  0.3019 -0.1267 -0.3200
  947MOL0     C27768   8.880   3.143  11.741 -0.5886 -0.0172 -0.2497
  947MOL0     O27769   8.907   3.119  11.870 -0.1865 -0.2250  0.0856
  947MOL0     C27770   8.925   3.212  11.976 -0.3854 -0.2728  0.0011
  947MOL0     C27771   9.073   3.235  12.001 -0.0571 -0.1256 -0.0773
  947MOL0     C27772   9.097   3.329  12.126 -0.4238  0.2061  0.6454
  947MOL0     C27773   9.060   3.240  12.253 -0.3458  0.0736 -0.1911
  947MOL0     C27774   8.930   3.284  12.296 -0.2877 -0.2928 -0.0056
  947MOL0     C27775   8.815   3.333  12.317  0.5228  0.9977 -0.4946
  947MOL0     C27776   8.895   3.264  11.678  1.0880 -0.1197  0.3150
  947MOL0     C27777   8.847   3.275  11.544 -0.2885  0.3298 -0.4856
  947MOL0     H27778   8.917   2.932  11.077 -0.5092 -0.8113  0.9613
  947MOL0     H27779   8.848   2.907  10.849  0.2893 -0.3778  1.3684
  947MOL0     H27780   8.482   2.882  10.805 -2.9666 -0.3991 -1.4399
  947MOL0     H27781   8.422   3.012  10.715  0.4995 -0.0720 -2.6635
  947MOL0     H27782   8.622   2.859  10.562  0.7436 -2.0646  0.8025
  947MOL0     H27783   8.480   2.765  10.620 -0.1895 -0.4165 -0.3608
  947MOL0     H27784   8.460   3.014  10.431 -1.3740  2.3855  1.8857
  947MOL0     H27785   8.455   2.830  10.397  2.8909  1.0553  1.9197
  947MOL0     H27786   8.271   2.806  10.502 -2.0087 -0.0559 -0.7602
  947MOL0     H27787   8.262   2.968  10.578  2.6354  0.2751  2.0018
  947MOL0     H27788   8.205   3.067  10.357  2.6601  0.9876  3.0819
  947MOL0     H27789   8.241   2.915  10.279  0.0855 -2.6247  1.1186
  947MOL0     H27790   8.066   2.785  10.384 -0.5270 -0.0665 -1.0196
  947MOL0     H27791   8.036   2.906  10.492 -0.0445  0.0527 -1.0870
  947MOL0     H27792   8.032   2.965  10.187 -1.5467 -1.0900 -1.5697
  947MOL0     H27793   7.902   2.866  10.247  0.1617  0.7828 -2.1743
  947MOL0     H27794   7.865   3.124  10.223  0.8893 -0.4655 -0.1632
  947MOL0     H27795   7.979   3.151  10.346 -1.1290  0.4158 -0.4407
  947MOL0     H27796   7.899   3.209  10.553  0.6139  1.3309  0.3668
  947MOL0     H27797   7.720   3.309  10.717 -3.6917  4.3580  0.9055
  947MOL0     H27798   7.571   3.344  10.643 -4.4937 -3.3510  0.6668
  947MOL0     H27799   7.632   3.153  10.851  1.2727  1.7684 -0.4126
  947MOL0     H27800   7.490   3.122  10.746 -0.0557 -0.1172  0.0477
  947MOL0     H27801   7.429   3.225  10.948  1.6344 -1.8269 -1.1281
  947MOL0     H27802   7.374   3.323  10.804 -0.5089 -0.0068  0.6807
  947MOL0     H27803   7.456   3.496  10.974  1.9280  1.6091  2.3010
  947MOL0     H27804   7.566   3.468  10.837 -1.0743  1.6136 -0.3013
  947MOL0     H27805   7.838   3.372  11.154  2.9175  1.2607  1.4057
  947MOL0     H27806   8.036   3.457  11.253  0.6613  0.3233 -1.8875
  947MOL0     H27807   8.109   3.624  11.247  1.3119 -0.7000  1.0409
  947MOL0     H27808   7.985   3.585  11.358  4.2098 -2.5723  2.0691
  947MOL0     H27809   8.117   4.100  11.130  1.4467  0.3026 -0.4114
  947MOL0     H27810   8.326   4.214  11.170 -1.0794 -0.9906 -2.2297
  947MOL0     H27811   8.572   4.168  11.141 -0.5694  0.4912 -0.2595
  947MOL0     H27812   8.550   4.325  11.236 -1.0519 -0.5877  0.0957
  947MOL0     H27813   8.775   4.298  11.168  1.0962  2.0218  1.7731
  947MOL0     H27814   8.775   4.294  11.337 -2.6761 -3.5078  4.5652
  947MOL0     H27815   8.859   4.084  11.131 -2.1019  0.0725 -1.2552
  947MOL0     H27816   8.738   4.009  11.222 -0.9405  1.6639  1.0854
  947MOL0     H27817   8.987   3.995  11.289 -0.3025  0.5055 -0.7885
  947MOL0     H27818   8.985   4.161  11.347  0.4367  0.2018  1.8931
  947MOL0     H27819   8.804   3.934  11.440 -1.0668  0.0541 -3.2628
  947MOL0     H27820   8.767   4.104  11.477 -0.1268  0.2274  0.2760
  947MOL0     H27821   9.037   3.985  11.556  0.8744  2.9447 -2.4723
  947MOL0     H27822   8.983   4.152  11.583 -0.8789  0.3720  1.7524
  947MOL0     H27823   8.792   3.967  11.695 -0.0593 -0.4697  2.0930
  947MOL0     H27824   8.868   4.105  11.771 -4.6102 -1.6345  1.3378
  947MOL0     H27825   8.904   3.888  11.893 -1.4673  2.6516 -0.5695
  947MOL0     H27826   9.065   3.960  11.827  0.8160 -1.7329 -2.4133
  947MOL0     H27827   8.471   3.894  11.406  1.3711 -0.2697 -2.3253
  947MOL0     H27828   8.260   3.770  11.361 -2.4699 -0.9879 -4.9318
  947MOL0     H27829   7.751   3.831  10.985 -2.5194 -1.6233 -3.0827
  947MOL0     H27830   7.598   3.656  10.941  0.5571 -0.2365 -1.7305
  947MOL0     H27831   8.498   3.140  10.908  0.7889 -0.5004 -3.0759
  947MOL0     H27832   8.556   3.156  11.153 -0.0466  1.0051 -0.7688
  947MOL0     H27833   8.759   2.963  11.493 -1.6940 -0.1351  2.1877
  947MOL0     H27834   8.842   2.942  11.741  0.4859  0.3130  0.2937
  947MOL0     H27835   8.868   3.302  11.951 -3.4146 -2.2855 -0.8197
  947MOL0     H27836   8.887   3.168  12.069  3.2832 -2.4512  0.6711
  947MOL0     H27837   9.108   3.281  11.908  0.8230 -0.4388  0.0954
  947MOL0     H27838   9.118   3.135  11.997 -1.7190 -1.0763  2.5387
  947MOL0     H27839   9.035   3.418  12.119 -0.9257 -0.1319  0.7237
  947MOL0     H27840   9.205   3.346  12.130  0.0468 -2.4264  2.6088
  947MOL0     H27841   9.137   3.266  12.326  2.4148 -2.3164 -2.0432
  947MOL0     H27842   9.066   3.131  12.245 -0.4568 -0.0255  0.9197
  947MOL0     H27843   8.717   3.373  12.335 -0.5248 -1.1929 -1.0462
  947MOL0     H27844   8.910   3.348  11.745  2.3487 -0.8627  0.9838
  947MOL0     H27845   8.831   3.370  11.494 -3.1757  0.9123  1.2467
  948MOL0     O27846   3.685   2.806   8.938  0.0293  0.3112 -0.4280
  948MOL0     C27847   3.670   2.918   8.875 -0.1156  0.3820 -0.7678
  948MOL0     O27848   3.751   2.970   8.773 -0.5990  0.1116  0.0339
  948MOL0     C27849   3.868   2.902   8.755 -0.5594  1.0274  0.0130
  948MOL0     C27850   3.869   2.795   8.670 -0.6670  0.3189  0.2697
  948MOL0     C27851   3.989   2.726   8.655  0.3494 -0.7795 -0.6256
  948MOL0     C27852   4.107   2.761   8.722  0.9011 -0.1844 -0.0003
  948MOL0     O27853   4.225   2.693   8.717 -0.1729 -0.2484  0.2382
  948MOL0     C27854   4.338   2.773   8.668 -0.0566 -0.2674  0.2102
  948MOL0     C27855   4.457   2.747   8.766  0.2246  0.3881 -0.3401
  948MOL0     C27856   4.590   2.803   8.717  0.1119 -0.4696 -0.1484
  948MOL0     C27857   4.680   2.831   8.846  0.3590  1.0465  0.2429
  948MOL0     C27858   4.641   2.972   8.900  0.2494  0.1801  0.7507
  948MOL0     C27859   4.704   3.012   9.032  0.3015 -0.0215 -1.0839
  948MOL0     C27860   4.687   3.156   9.077  0.4478 -0.4670  0.8757
  948MOL0     C27861   4.816   3.243   9.085 -0.1182 -0.9305  0.1075
  948MOL0     N27862   4.881   3.271   8.954 -0.0515  0.4800 -0.3384
  948MOL0     C27863   5.015   3.259   8.916  0.2360 -0.0402  1.1197
  948MOL0     C27864   5.032   3.329   8.803 -0.7272  0.4858  0.7110
  948MOL0     C27865   5.162   3.335   8.717 -0.9744 -0.7030 -0.1644
  948MOL0     C27866   5.122   3.302   8.575 -0.9889  0.5065 -0.5811
  948MOL0     C27867   5.242   3.331   8.479  0.2864 -0.1668  0.4448
  948MOL0     C27868   5.208   3.311   8.333 -0.3924  0.1100  0.7681
  948MOL0     O27869   5.147   3.443   8.284 -0.3150 -0.1417 -0.2163
  948MOL0     C27870   5.157   3.481   8.154  0.6530  0.3242  0.2949
  948MOL0     C27871   5.126   3.618   8.137 -0.1128 -0.2648  0.4456
  948MOL0     C27872   5.141   3.681   8.010  0.7259 -0.1366 -0.0307
  948MOL0     C27873   5.126   3.828   7.999 -0.4659  0.5175 -0.1159
  948MOL0     C27874   5.186   3.605   7.898  0.1535 -0.6741 -0.3016
  948MOL0     C27875   5.198   3.657   7.754  0.2770 -0.7526 -0.0297
  948MOL0     O27876   5.302   3.606   7.675 -0.2722 -0.5571  0.3481
  948MOL0     C27877   5.303   3.621   7.536  0.2984  0.1271  0.5408
  948MOL0     C27878   5.201   3.582   7.448  0.5376  1.0063 -0.7797
  948MOL0     C27879   5.231   3.578   7.315  0.5869  0.4141  0.0735
  948MOL0     C27880   5.356   3.606   7.258  0.6416 -0.5689 -0.5506
  948MOL0     O27881   5.386   3.616   7.119  0.2068  0.1297 -0.4724
  948MOL0     C27882   5.280   3.608   7.019  0.2338 -0.7800 -0.2997
  948MOL0     C27883   5.205   3.744   7.007  0.1500  0.0168  1.1892
  948MOL0     C27884   5.297   3.846   6.940  0.6302 -0.2208  0.1831
  948MOL0     C27885   5.234   3.985   6.951  0.9104 -0.0025 -0.5178
  948MOL0     C27886   5.301   4.098   6.861  0.1241  0.3181 -0.3447
  948MOL0     C27887   5.261   4.090   6.711 -0.2446 -0.6359 -0.5511
  948MOL0     C27888   5.340   4.189   6.616  0.8341  1.1568 -0.7717
  948MOL0     C27889   5.265   4.329   6.628  0.4243 -0.6929  0.2390
  948MOL0    Cl27890   5.332   4.438   6.496 -0.1916 -0.5458  0.4640
  948MOL0     C27891   5.455   3.643   7.341  0.4359  0.0399  0.4621
  948MOL0     C27892   5.430   3.646   7.474  0.5043 -0.0913 -0.3407
  948MOL0     O27893   5.107   3.738   7.719 -0.1289  0.0524 -0.7993
  948MOL0     C27894   5.217   3.470   7.918  1.0733 -0.8567  0.5618
  948MOL0     C27895   5.214   3.411   8.047 -0.4525  0.5243  0.5560
  948MOL0     N27896   4.899   3.377   8.773  0.0104  0.6677 -0.2691
  948MOL0     N27897   4.815   3.337   8.859  0.8388  0.8689  0.5888
  948MOL0     C27898   4.101   2.866   8.812 -0.3085  0.1046 -0.8629
  948MOL0     C27899   3.981   2.936   8.817 -0.3656  0.5044 -1.1938
  948MOL0     C27900   3.565   3.012   8.913 -0.3139 -0.3013 -0.0056
  948MOL0     C27901   3.587   3.147   8.916  0.6056  0.0868  0.6212
  948MOL0     C27902   3.476   3.234   8.937 -0.0843  0.6712 -0.4498
  948MOL0     C27903   3.351   3.192   8.996  0.4124  0.7820  0.2078
  948MOL0     O27904   3.239   3.263   9.028 -0.1103 -0.0278  0.4358
  948MOL0     C27905   3.229   3.399   8.990 -0.6485 -0.0944  0.3695
  948MOL0     C27906   3.151   3.413   8.845 -0.7068  0.6521  0.4065
  948MOL0     C27907   3.250   3.425   8.729 -0.3963  0.3702  1.6284
  948MOL0     C27908   3.171   3.444   8.597  1.1556 -0.1988  0.2066
  948MOL0     C27909   3.265   3.402   8.488  0.7112 -0.7300 -0.3281
  948MOL0     C27910   3.342   3.364   8.403 -0.2340  0.3482 -0.3718
  948MOL0     C27911   3.338   3.046   9.017 -0.0682 -1.4304 -0.1412
  948MOL0     C27912   3.443   2.963   8.968  0.6335  0.2525 -0.3695
  948MOL0     H27913   3.781   2.778   8.609  0.7803  1.7372 -2.4053
  948MOL0     H27914   3.997   2.637   8.594 -0.3516 -1.2808 -0.0108
  948MOL0     H27915   4.379   2.749   8.569  3.0696  1.4940  0.9618
  948MOL0     H27916   4.314   2.879   8.675 -0.9485 -0.2563 -2.0109
  948MOL0     H27917   4.434   2.794   8.862  1.6215 -1.5061  1.0182
  948MOL0     H27918   4.470   2.641   8.791 -0.1226  0.4081 -0.0750
  948MOL0     H27919   4.638   2.725   8.656  2.4878 -0.0595  1.1118
  948MOL0     H27920   4.588   2.890   8.652  6.7093  0.0852 -0.2800
  948MOL0     H27921   4.658   2.752   8.918 -0.6333 -1.4564 -2.5944
  948MOL0     H27922   4.780   2.829   8.801 -0.0452  0.4632 -0.6376
  948MOL0     H27923   4.673   3.043   8.822 -0.0549 -2.7310 -2.2680
  948MOL0     H27924   4.533   2.981   8.914  0.2340 -1.3490  1.8805
  948MOL0     H27925   4.663   2.947   9.110 -2.2675  1.1503 -1.3593
  948MOL0     H27926   4.813   2.999   9.023  0.1372 -1.8542 -0.7500
  948MOL0     H27927   4.625   3.202   9.000  2.6316  0.0425 -0.6745
  948MOL0     H27928   4.651   3.157   9.180  3.5502  0.2392  2.0831
  948MOL0     H27929   4.888   3.188   9.146  0.8869  1.4791  1.1943
  948MOL0     H27930   4.806   3.341   9.131 -0.3377 -1.3403  0.9567
  948MOL0     H27931   5.092   3.189   8.947 -0.8386 -1.9912 -0.4369
  948MOL0     H27932   5.216   3.430   8.717 -0.6886 -0.8328 -1.6495
  948MOL0     H27933   5.231   3.258   8.751 -0.0328  0.3534  0.3795
  948MOL0     H27934   5.028   3.350   8.547 -2.3446 -1.8737 -0.4547
  948MOL0     H27935   5.083   3.199   8.579 -0.3379  0.2687 -0.2628
  948MOL0     H27936   5.332   3.270   8.494  0.0349  0.0039  3.1163
  948MOL0     H27937   5.273   3.436   8.473 -0.2568 -0.0598 -0.8160
  948MOL0     H27938   5.145   3.221   8.327  0.2807 -0.6050  3.3171
  948MOL0     H27939   5.302   3.296   8.279  0.4137  0.9076  1.9090
  948MOL0     H27940   5.084   3.674   8.220  1.6512 -1.2528  2.1091
  948MOL0     H27941   5.209   3.872   7.942  0.7362 -1.5621 -0.0717
  948MOL0     H27942   5.027   3.849   7.958 -0.0511 -2.3517 -3.0823
  948MOL0     H27943   5.149   3.872   8.096  1.0547  3.4555 -1.6820
  948MOL0     H27944   5.110   3.541   7.492 -0.1147  3.3974  0.3014
  948MOL0     H27945   5.143   3.544   7.262 -1.2443  3.5188  0.8675
  948MOL0     H27946   5.327   3.595   6.921  0.5690 -3.5027  0.1343
  948MOL0     H27947   5.215   3.523   7.039 -0.4651 -0.2423 -0.2525
  948MOL0     H27948   5.112   3.729   6.952 -0.2713  0.3638  1.7854
  948MOL0     H27949   5.157   3.783   7.098  0.6261  0.8490  1.0934
  948MOL0     H27950   5.324   3.818   6.838  0.9969  0.5096  0.0737
  948MOL0     H27951   5.386   3.855   7.003  2.4710  4.2969 -2.5870
  948MOL0     H27952   5.125   3.986   6.939  0.4987 -0.9039  2.2802
  948MOL0     H27953   5.239   4.026   7.052 -2.4092  2.6437 -1.2373
  948MOL0     H27954   5.410   4.091   6.869 -0.0697 -0.6240  3.5149
  948MOL0     H27955   5.267   4.191   6.906 -2.2651 -0.9291  0.6069
  948MOL0     H27956   5.279   3.986   6.683 -0.7103 -0.7740 -0.3425
  948MOL0     H27957   5.154   4.105   6.694 -0.4124  0.2631  1.0881
  948MOL0     H27958   5.331   4.152   6.513  0.2936 -0.9384 -0.0395
  948MOL0     H27959   5.442   4.207   6.651 -0.2599  2.2197  2.1849
  948MOL0     H27960   5.267   4.372   6.728 -1.5986 -1.0636  0.4849
  948MOL0     H27961   5.160   4.324   6.598  0.7414 -4.0574 -0.7153
  948MOL0     H27962   5.549   3.677   7.299 -0.1316 -0.4226 -1.2540
  948MOL0     H27963   5.516   3.659   7.538 -0.0018 -3.7804  1.3805
  948MOL0     H27964   5.235   3.404   7.833 -0.1250 -1.6822  0.9258
  948MOL0     H27965   5.238   3.306   8.056 -2.9178  0.0175  2.1633
  948MOL0     H27966   4.179   2.904   8.877 -1.6684 -0.1233  0.9844
  948MOL0     H27967   3.982   3.024   8.880  3.1783  0.0726 -0.4255
  948MOL0     H27968   3.688   3.181   8.895  2.0240 -3.4126  1.0180
  948MOL0     H27969   3.500   3.338   8.922 -0.6558  0.7535 -0.8377
  948MOL0     H27970   3.171   3.433   9.076 -0.1101 -0.9492  1.0866
  948MOL0     H27971   3.323   3.453   8.999 -0.5304 -0.2882  0.3234
  948MOL0     H27972   3.060   3.474   8.847 -1.6061 -0.6376  0.2148
  948MOL0     H27973   3.108   3.316   8.817  0.8128  0.8147 -2.9553
  948MOL0     H27974   3.307   3.331   8.727 -0.6669  0.2109  1.1685
  948MOL0     H27975   3.318   3.508   8.752 -0.5528  0.1075  3.1270
  948MOL0     H27976   3.135   3.546   8.581 -3.4299 -1.6542 -0.2389
  948MOL0     H27977   3.083   3.379   8.593  0.9751  0.1127 -1.3025
  948MOL0     H27978   3.409   3.312   8.338  2.1845  1.5136  1.0651
  948MOL0     H27979   3.253   3.001   9.066  0.7772 -1.2887  1.5204
  948MOL0     H27980   3.434   2.855   8.982 -0.3962  0.2875 -0.7098
  949MOL0     O27981   4.874   7.945   4.014 -0.3470 -0.2247  1.1555
  949MOL0     C27982   4.939   7.864   4.076  0.2206  0.6321  1.2624
  949MOL0     O27983   5.068   7.829   4.052  0.8827 -0.3516  0.7576
  949MOL0     C27984   5.132   7.858   3.926  0.5559 -0.2908 -0.0895
  949MOL0     C27985   5.196   7.982   3.902  0.1863  0.0440  0.0656
  949MOL0     C27986   5.275   8.001   3.788  0.5320 -0.7029 -0.3751
  949MOL0     C27987   5.285   7.910   3.691 -0.0814 -0.0863 -0.0820
  949MOL0     O27988   5.354   7.954   3.576 -0.3267 -0.4203 -0.1605
  949MOL0     C27989   5.339   7.863   3.458 -1.0084 -0.8185  0.4355
  949MOL0     C27990   5.387   7.946   3.341 -0.0762 -0.4248  0.5672
  949MOL0     C27991   5.293   8.069   3.320 -0.8186  0.8145 -0.9152
  949MOL0     C27992   5.324   8.148   3.188  0.6258  0.5184 -0.7543
  949MOL0     C27993   5.216   8.249   3.162  0.0153  0.5049 -0.0793
  949MOL0     C27994   5.214   8.355   3.263 -0.6710 -0.4237 -0.0287
  949MOL0     C27995   5.067   8.417   3.264  0.8695 -0.4900  1.0218
  949MOL0     C27996   5.034   8.474   3.119  0.6734 -0.1926 -0.3535
  949MOL0     N27997   4.905   8.538   3.097  0.1410  0.8917 -0.7233
  949MOL0     C27998   4.832   8.620   3.196  0.7664  0.5978 -0.0913
  949MOL0     C27999   4.724   8.659   3.123 -0.6833 -0.4936 -0.6018
  949MOL0     C28000   4.608   8.725   3.174  0.5813  0.1454 -0.2614
  949MOL0     C28001   4.491   8.636   3.178  0.6028  0.0781  0.3276
  949MOL0     C28002   4.506   8.507   3.271 -0.2602 -0.2331 -0.6555
  949MOL0     C28003   4.386   8.410   3.264 -0.2322  0.0403  0.5656
  949MOL0     O28004   4.259   8.468   3.243 -0.3807  0.6199  0.1955
  949MOL0     C28005   4.188   8.507   3.350  0.5575 -0.0734  0.8406
  949MOL0     C28006   4.222   8.542   3.480  0.0139 -0.1885  0.7496
  949MOL0     C28007   4.129   8.600   3.565  0.0856  0.1377  0.5145
  949MOL0     C28008   4.184   8.644   3.697 -0.4081 -0.6853 -0.5673
  949MOL0     C28009   3.999   8.620   3.529  0.1678  0.4691 -0.9974
  949MOL0     C28010   3.881   8.657   3.619 -0.4838  0.4644 -0.4871
  949MOL0     O28011   3.758   8.647   3.572 -0.7095 -0.7216  0.1627
  949MOL0     C28012   3.649   8.721   3.608 -1.2472 -0.1945 -1.2987
  949MOL0     C28013   3.654   8.847   3.683  0.5743  0.5915 -0.2148
  949MOL0     C28014   3.537   8.903   3.730 -0.7919 -1.0189  0.2047
  949MOL0     C28015   3.412   8.853   3.688  0.7203 -0.3236  0.3843
  949MOL0     O28016   3.297   8.916   3.729 -0.2359  0.2955  0.2515
  949MOL0     C28017   3.191   8.942   3.632 -1.1905 -0.6220 -0.3807
  949MOL0     C28018   3.052   8.902   3.690  0.4906 -0.4053  1.0319
  949MOL0     C28019   3.007   8.974   3.820  0.0626 -0.7360 -0.2183
  949MOL0     C28020   2.935   9.103   3.783  0.1391  0.1335  0.0856
  949MOL0     C28021   2.931   9.192   3.912  0.3265  0.2921 -0.7561
  949MOL0     C28022   2.856   9.321   3.917 -0.6067 -0.4252 -0.2076
  949MOL0     C28023   2.918   9.432   3.834 -0.2347 -0.5636  0.0564
  949MOL0     C28024   2.800   9.511   3.762 -0.3524  0.6989  0.0188
  949MOL0    Cl28025   2.869   9.676   3.724 -0.0141 -0.3583  0.0135
  949MOL0     C28026   3.412   8.740   3.612  0.1508 -0.7706  0.5401
  949MOL0     C28027   3.529   8.671   3.565  0.1600 -0.1094  0.1976
  949MOL0     O28028   3.910   8.688   3.736  0.0677 -0.8180  0.1463
  949MOL0     C28029   3.960   8.591   3.397  0.5735  0.7087 -0.3364
  949MOL0     C28030   4.049   8.528   3.306 -0.6805  0.1240 -0.1702
  949MOL0     N28031   4.723   8.613   3.001  0.1951  0.6231  0.4830
  949MOL0     N28032   4.834   8.538   2.979  0.1750 -0.2642 -0.3733
  949MOL0     C28033   5.224   7.790   3.711 -0.0059 -0.3789  0.4653
  949MOL0     C28034   5.145   7.761   3.823  0.2076  0.2204 -0.0464
  949MOL0     C28035   4.857   7.790   4.185  0.3763  0.6190  0.1375
  949MOL0     C28036   4.910   7.728   4.302 -0.8318 -0.1433 -0.5308
  949MOL0     C28037   4.834   7.688   4.405 -0.1935 -0.0592 -1.0184
  949MOL0     C28038   4.694   7.703   4.393  0.1413 -0.3582 -0.6814
  949MOL0     O28039   4.609   7.680   4.500 -0.5541  0.2870 -0.4865
  949MOL0     C28040   4.644   7.749   4.627  0.4330  0.1534  1.0523
  949MOL0     C28041   4.540   7.692   4.720  0.8075  0.4276  0.1164
  949MOL0     C28042   4.548   7.760   4.859  0.5667 -0.2023  0.3618
  949MOL0     C28043   4.492   7.666   4.965  0.5361 -0.6289  0.0836
  949MOL0     C28044   4.527   7.706   5.104 -0.7536  0.9229 -0.3733
  949MOL0     C28045   4.556   7.725   5.217 -0.5312 -0.3214  1.0706
  949MOL0     C28046   4.634   7.757   4.282  0.1596 -0.0102  0.7147
  949MOL0     C28047   4.712   7.807   4.177 -0.4805  0.2915 -0.6037
  949MOL0     H28048   5.194   8.050   3.987 -2.2699  1.1452 -0.7811
  949MOL0     H28049   5.325   8.097   3.780 -1.5486  0.3978 -1.1887
  949MOL0     H28050   5.400   7.774   3.476  3.0018  1.7310  0.7529
  949MOL0     H28051   5.234   7.841   3.435 -1.5311  3.1881 -2.0311
  949MOL0     H28052   5.493   7.963   3.361 -0.1494 -1.3365  1.8841
  949MOL0     H28053   5.392   7.892   3.246 -0.8845 -1.5079  1.1155
  949MOL0     H28054   5.189   8.035   3.319 -0.4988 -0.3667  0.9506
  949MOL0     H28055   5.301   8.130   3.410 -1.3357  1.5866 -1.3824
  949MOL0     H28056   5.419   8.198   3.210 -0.8988  3.4686 -0.3050
  949MOL0     H28057   5.327   8.086   3.098 -3.0664  0.4692 -1.0049
  949MOL0     H28058   5.228   8.286   3.059 -1.5496  2.3866  0.3607
  949MOL0     H28059   5.121   8.195   3.169  0.3211 -0.5114 -2.5796
  949MOL0     H28060   5.233   8.315   3.363  4.2928 -0.4073 -0.7287
  949MOL0     H28061   5.300   8.420   3.246 -0.7715 -0.1450  0.4926
  949MOL0     H28062   4.988   8.342   3.274  0.1171 -0.3079 -2.5162
  949MOL0     H28063   5.050   8.505   3.326 -0.3082 -0.7745  1.1341
  949MOL0     H28064   5.036   8.402   3.036 -2.5873  1.3758 -1.9480
  949MOL0     H28065   5.112   8.548   3.098  0.1530 -0.0122 -1.7910
  949MOL0     H28066   4.848   8.623   3.303 -0.6621 -2.4092  0.3138
  949MOL0     H28067   4.622   8.755   3.278  0.4611 -4.1449  1.1861
  949MOL0     H28068   4.592   8.819   3.121  0.0601  0.7224  0.8765
  949MOL0     H28069   4.470   8.600   3.077  0.8672  0.0091  0.2991
  949MOL0     H28070   4.410   8.694   3.225  0.8800  1.5457 -0.9507
  949MOL0     H28071   4.517   8.545   3.373 -2.8312  3.9430 -1.6841
  949MOL0     H28072   4.593   8.450   3.236 -0.0243  2.9371 -6.4936
  949MOL0     H28073   4.396   8.347   3.352 -0.5774 -1.5794 -0.5064
  949MOL0     H28074   4.393   8.348   3.174  0.5023  1.8190 -0.6628
  949MOL0     H28075   4.322   8.537   3.522  1.8763 -2.5105 -3.4408
  949MOL0     H28076   4.143   8.594   3.785 -0.2868  1.8476  1.0279
  949MOL0     H28077   4.293   8.638   3.698 -0.2275  1.5978 -0.6817
  949MOL0     H28078   4.149   8.747   3.711  1.0125 -0.4535  1.7379
  949MOL0     H28079   3.739   8.905   3.716 -1.4577  1.7673  3.5358
  949MOL0     H28080   3.530   8.985   3.802  0.7226 -1.6441  1.1077
  949MOL0     H28081   3.185   9.050   3.613 -6.2705 -0.3646  1.0905
  949MOL0     H28082   3.215   8.891   3.538  3.1580 -1.0164  0.7302
  949MOL0     H28083   2.971   8.907   3.617  0.5186  0.9668  1.0754
  949MOL0     H28084   3.068   8.800   3.727  4.5149 -0.7716 -1.1441
  949MOL0     H28085   3.094   9.006   3.878  1.4104  2.2279 -3.5218
  949MOL0     H28086   2.949   8.899   3.874  0.6261 -0.2678  1.0680
  949MOL0     H28087   2.987   9.153   3.700  2.5698 -0.3694  1.2440
  949MOL0     H28088   2.829   9.080   3.764 -0.1190  0.2170  1.3460
  949MOL0     H28089   3.032   9.221   3.944 -0.7616  3.6460  0.1245
  949MOL0     H28090   2.887   9.129   3.990 -0.7895  2.0012  0.0733
  949MOL0     H28091   2.750   9.330   3.891 -1.5680  2.5333  3.6894
  949MOL0     H28092   2.862   9.354   4.021 -3.4816  1.8733 -0.6236
  949MOL0     H28093   3.001   9.395   3.773 -1.9308 -2.1280 -1.4223
  949MOL0     H28094   2.971   9.501   3.900 -1.1459  1.2801 -1.0566
  949MOL0     H28095   2.708   9.517   3.820 -0.5630 -0.0431 -0.2257
  949MOL0     H28096   2.772   9.459   3.670  0.7498  1.1403 -0.5908
  949MOL0     H28097   3.312   8.702   3.589  1.0556 -1.7073 -2.2992
  949MOL0     H28098   3.538   8.573   3.519  1.6279 -1.0398  2.2744
  949MOL0     H28099   3.869   8.619   3.345  1.2430 -0.9362 -2.5791
  949MOL0     H28100   4.016   8.500   3.207  0.1753 -1.4741 -0.0530
  949MOL0     H28101   5.217   7.708   3.640 -0.0523  2.1501 -2.6953
  949MOL0     H28102   5.088   7.670   3.839  2.3170 -1.1582  0.1133
  949MOL0     H28103   5.017   7.722   4.315 -0.9624 -1.1687  0.1176
  949MOL0     H28104   4.875   7.636   4.492 -1.3622 -0.5432 -0.7432
  949MOL0     H28105   4.744   7.716   4.655  0.3588  0.4509  1.6793
  949MOL0     H28106   4.635   7.858   4.621  2.9283  0.3747  0.5269
  949MOL0     H28107   4.546   7.583   4.727 -1.8825  0.2909  5.0433
  949MOL0     H28108   4.441   7.700   4.676  1.0296 -4.6335 -1.8929
  949MOL0     H28109   4.492   7.854   4.851  2.3315  1.0833  1.9659
  949MOL0     H28110   4.653   7.768   4.889  0.0620  0.0096  2.2381
  949MOL0     H28111   4.525   7.563   4.949 -1.8824 -0.9282 -4.6740
  949MOL0     H28112   4.383   7.656   4.954  0.2225  1.8302  0.3101
  949MOL0     H28113   4.566   7.754   5.320 -2.6830 -0.7604  1.4503
  949MOL0     H28114   4.528   7.770   4.262 -0.0488 -2.0234  0.3065
  949MOL0     H28115   4.657   7.855   4.097 -2.0975 -0.1544  0.2104
  950MOL0     O28116  11.083   0.541  10.105 -0.2339  1.1095 -0.3974
  950MOL0     C28117  11.128   0.580  10.215  0.2936  0.7184  0.4471
  950MOL0     O28118  11.067   0.667  10.296 -0.4290 -0.0226 -0.2025
  950MOL0     C28119  10.939   0.710  10.257 -0.4275  0.4113  0.1819
  950MOL0     C28120  10.921   0.779  10.148  0.1187 -0.4726 -0.4591
  950MOL0     C28121  10.789   0.824  10.117  0.7771  0.0355 -0.2388
  950MOL0     C28122  10.679   0.783  10.188 -1.5077  0.0311 -0.4470
  950MOL0     O28123  10.553   0.828  10.167  0.6009 -0.3783  0.3177
  950MOL0     C28124  10.450   0.810  10.255  1.0156  0.4344  0.6307
  950MOL0     C28125  10.323   0.870  10.191 -0.8264  0.5252 -0.0639
  950MOL0     C28126  10.194   0.832  10.277  0.3331 -0.2560  0.3345
  950MOL0     C28127  10.112   0.953  10.302  1.2368  1.1673  0.2163
  950MOL0     C28128  10.180   1.030  10.417 -0.1478 -0.0593  0.5103
  950MOL0     C28129  10.108   1.161  10.435  0.5640 -0.7081  0.0637
  950MOL0     C28130  10.171   1.242  10.548 -0.0840  0.6988  0.7315
  950MOL0     C28131  10.169   1.394  10.536 -0.5591  0.3626 -0.5655
  950MOL0     N28132  10.038   1.465  10.526  0.8540  0.6228 -0.7332
  950MOL0     C28133   9.954   1.489  10.417  0.1500 -0.2987 -0.5295
  950MOL0     C28134   9.860   1.574  10.462  0.6389  0.3072  0.5885
  950MOL0     C28135   9.752   1.616  10.370 -0.3261 -0.4916  0.0577
  950MOL0     C28136   9.810   1.687  10.251  0.2969 -0.0660 -1.0345
  950MOL0     C28137   9.705   1.780  10.181  0.1862  0.4180  0.0269
  950MOL0     C28138   9.637   1.705  10.061 -0.8571  0.1191 -0.3803
  950MOL0     O28139   9.500   1.736  10.047  0.0122  0.4228 -0.3085
  950MOL0     C28140   9.423   1.664   9.954 -0.0956  0.3327  0.4524
  950MOL0     C28141   9.468   1.558   9.872 -0.5188 -0.0477 -0.7982
  950MOL0     C28142   9.384   1.490   9.780 -0.2863 -0.8290  0.1851
  950MOL0     C28143   9.439   1.386   9.702  0.3731  0.0692  0.6454
  950MOL0     C28144   9.253   1.535   9.759 -0.0148 -0.0547 -0.8732
  950MOL0     C28145   9.146   1.496   9.656  0.6546 -0.2146 -0.0993
  950MOL0     O28146   9.160   1.377   9.595  1.0673  0.1926  0.6282
  950MOL0     C28147   9.115   1.349   9.468 -0.2490 -0.1960  0.4585
  950MOL0     C28148   9.080   1.440   9.360  0.8304  0.1768 -0.5853
  950MOL0     C28149   9.041   1.387   9.235 -0.5290  0.1930  0.4067
  950MOL0     C28150   9.034   1.248   9.206 -0.6716 -0.2577  0.0752
  950MOL0     O28151   8.960   1.223   9.093 -0.0549 -0.2994 -0.3321
  950MOL0     C28152   8.954   1.095   9.033  1.1149  0.6485 -1.0828
  950MOL0     C28153   9.067   1.042   8.952  0.3767  0.0231  0.7646
  950MOL0     C28154   9.157   1.133   8.880 -0.8028  0.4400  0.4849
  950MOL0     C28155   9.295   1.059   8.854 -0.2386 -0.1819  0.1502
  950MOL0     C28156   9.373   1.109   8.740 -0.8174  0.0136 -0.0873
  950MOL0     C28157   9.508   1.031   8.709 -0.2695 -0.2395 -0.2898
  950MOL0     C28158   9.571   1.065   8.570 -0.0416 -0.2460 -0.0939
  950MOL0     C28159   9.614   0.945   8.498 -0.0055  0.7624  0.1213
  950MOL0    Cl28160   9.752   0.866   8.593  0.1045 -0.2424 -0.1652
  950MOL0     C28161   9.069   1.160   9.310  1.0069  0.0145 -0.4137
  950MOL0     C28162   9.109   1.204   9.435 -0.3448 -0.1063  0.8541
  950MOL0     O28163   9.068   1.586   9.620 -0.7165 -0.6680  0.3254
  950MOL0     C28164   9.207   1.632   9.846  0.4331 -0.0472  0.0879
  950MOL0     C28165   9.289   1.698   9.936 -0.2355  1.2394 -0.5158
  950MOL0     N28166   9.875   1.597  10.596  0.6184 -0.3642 -0.1097
  950MOL0     N28167   9.989   1.537  10.624  0.4485 -0.0535 -1.4740
  950MOL0     C28168  10.701   0.700  10.301  0.7359  0.0985 -0.3216
  950MOL0     C28169  10.829   0.674  10.339 -0.4288 -0.2062 -0.2155
  950MOL0     C28170  11.264   0.552  10.254 -0.5410  0.4882 -0.2381
  950MOL0     C28171  11.354   0.495  10.161  0.1262 -0.4209 -0.6873
  950MOL0     C28172  11.489   0.459  10.194 -0.3406  0.1839  0.1970
  950MOL0     C28173  11.525   0.483  10.330 -0.1931 -0.2697  0.4000
  950MOL0     O28174  11.652   0.463  10.374 -0.3503 -0.2442 -0.1350
  950MOL0     C28175  11.666   0.345  10.462  0.6457 -0.4380  0.2517
  950MOL0     C28176  11.709   0.218  10.392 -0.2471  0.4302  0.0760
  950MOL0     C28177  11.743   0.112  10.500  0.0776 -0.0791 -0.6041
  950MOL0     C28178  11.628   0.078  10.601  0.3168 -0.3281  0.1045
  950MOL0     C28179  11.506   0.019  10.544 -1.5006 -0.3645  0.7840
  950MOL0     C28180  11.400  -0.023  10.500  0.2549 -0.6180  1.0147
  950MOL0     C28181  11.428   0.531  10.420  0.5501  0.0841 -0.1217
  950MOL0     C28182  11.298   0.559  10.386 -1.1900 -0.0592 -1.4028
  950MOL0     H28183  11.011   0.799  10.091  0.2912 -2.0088 -0.7856
  950MOL0     H28184  10.763   0.886  10.032 -2.1105 -3.4554 -2.2058
  950MOL0     H28185  10.422   0.704  10.250  1.5492  0.3479 -0.7998
  950MOL0     H28186  10.460   0.852  10.356 -1.9680  4.3414 -0.4639
  950MOL0     H28187  10.328   0.976  10.166  1.2359 -0.3334 -4.3658
  950MOL0     H28188  10.312   0.830  10.090 -0.5990  1.8028 -0.6159
  950MOL0     H28189  10.129   0.767  10.217  2.3611 -2.6320  0.5136
  950MOL0     H28190  10.231   0.770  10.360  1.1223 -0.7731 -0.3848
  950MOL0     H28191  10.091   1.010  10.211 -2.0634 -1.0859 -0.5954
  950MOL0     H28192  10.005   0.933  10.316  0.9628  2.2400 -0.1844
  950MOL0     H28193  10.182   0.965  10.505  1.9504  1.9631  2.0893
  950MOL0     H28194  10.287   1.040  10.398 -0.1177 -0.7013  0.3120
  950MOL0     H28195  10.108   1.228  10.348 -0.6493  1.3843  1.5913
  950MOL0     H28196  10.002   1.139  10.449  0.7092 -1.4769 -0.0092
  950MOL0     H28197  10.127   1.212  10.643 -1.0225  0.2147  0.1544
  950MOL0     H28198  10.279   1.226  10.552  0.3722  2.6254 -1.5590
  950MOL0     H28199  10.237   1.423  10.456 -1.8225  4.5844 -0.3860
  950MOL0     H28200  10.218   1.423  10.630 -0.9610 -1.2821  0.1948
  950MOL0     H28201   9.962   1.451  10.315 -0.5868 -2.8033  0.2795
  950MOL0     H28202   9.701   1.528  10.329 -3.1655  0.7008  0.8622
  950MOL0     H28203   9.688   1.679  10.432 -0.3522 -0.2687 -0.1932
  950MOL0     H28204   9.856   1.615  10.183  0.4655 -0.6752 -0.2927
  950MOL0     H28205   9.892   1.743  10.296  0.9934 -3.0364  1.7646
  950MOL0     H28206   9.745   1.862  10.120 -0.3899  0.9652  0.3856
  950MOL0     H28207   9.642   1.821  10.260  3.1902  1.4889  2.0384
  950MOL0     H28208   9.641   1.598  10.081  0.1867 -0.0880 -1.5511
  950MOL0     H28209   9.681   1.724   9.962 -0.1189  0.0126 -0.0776
  950MOL0     H28210   9.574   1.536   9.884  0.0253  2.3929 -0.7371
  950MOL0     H28211   9.382   1.293   9.709 -2.1931  1.4208 -0.6436
  950MOL0     H28212   9.438   1.421   9.598 -0.2177  3.2878  1.6102
  950MOL0     H28213   9.546   1.375   9.720  1.2309  1.4593 -2.8626
  950MOL0     H28214   9.071   1.548   9.375 -4.6473 -0.0933  0.0160
  950MOL0     H28215   9.024   1.466   9.163  1.6819  1.1239  0.8162
  950MOL0     H28216   8.929   1.022   9.111 -1.6314 -1.3896 -3.6324
  950MOL0     H28217   8.876   1.100   8.956 -0.1285 -0.0250  0.0877
  950MOL0     H28218   9.118   0.974   9.021 -0.5543 -0.1431  1.2974
  950MOL0     H28219   9.035   0.971   8.876  1.4948  3.4239 -3.2365
  950MOL0     H28220   9.173   1.218   8.947 -4.2255 -0.7465  3.1398
  950MOL0     H28221   9.117   1.177   8.788 -0.6239 -0.5424 -0.0762
  950MOL0     H28222   9.357   1.065   8.944 -0.5594 -1.5966  0.4871
  950MOL0     H28223   9.274   0.953   8.836 -1.3681  0.0406  0.0712
  950MOL0     H28224   9.403   1.212   8.760  1.2284 -1.0145  2.7426
  950MOL0     H28225   9.316   1.103   8.646  2.1953 -2.8072 -1.9390
  950MOL0     H28226   9.578   1.057   8.789 -0.4200  0.1491 -0.2796
  950MOL0     H28227   9.486   0.925   8.726 -2.1247  0.1426 -0.1102
  950MOL0     H28228   9.664   1.121   8.589  0.7910 -2.3940  3.0512
  950MOL0     H28229   9.496   1.117   8.510 -0.2382 -0.2578  0.1400
  950MOL0     H28230   9.651   0.977   8.400  0.1711  1.2473  0.3491
  950MOL0     H28231   9.532   0.874   8.484 -0.4136  1.0423  1.0216
  950MOL0     H28232   9.063   1.051   9.311 -0.6241  0.0807 -0.1529
  950MOL0     H28233   9.125   1.136   9.517 -0.1145  0.5220  1.3384
  950MOL0     H28234   9.114   1.684   9.825  1.0780  2.3131  2.5361
  950MOL0     H28235   9.253   1.783   9.992  0.3667  0.5652  0.9513
  950MOL0     H28236  10.622   0.665  10.367  2.3112 -0.9451  1.0772
  950MOL0     H28237  10.843   0.605  10.422 -4.1422  0.1868  0.9287
  950MOL0     H28238  11.326   0.467  10.059  3.2150 -1.6679 -1.3227
  950MOL0     H28239  11.554   0.431  10.113  0.3301 -3.1757  1.6989
  950MOL0     H28240  11.740   0.369  10.539 -0.4634  0.5581  1.0416
  950MOL0     H28241  11.570   0.320  10.507 -0.7158  0.9489 -1.7133
  950MOL0     H28242  11.785   0.244  10.318  0.6756 -3.1781 -0.4217
  950MOL0     H28243  11.626   0.183  10.331 -1.3317  1.6812  0.7758
  950MOL0     H28244  11.836   0.145  10.546 -0.3126 -0.1506  0.2567
  950MOL0     H28245  11.745   0.028  10.430 -0.3324  1.8057 -3.0283
  950MOL0     H28246  11.600   0.161  10.667  1.1681  0.7994 -0.9077
  950MOL0     H28247  11.675   0.003  10.666  1.3321 -0.0371 -0.2825
  950MOL0     H28248  11.308  -0.065  10.463 -1.0731  2.9711 -0.1468
  950MOL0     H28249  11.459   0.537  10.524  0.2567 -0.5709  0.0121
  950MOL0     H28250  11.229   0.594  10.462  2.0956  1.7344  0.9989
  951MOL0     O28251  11.393   3.796   9.894 -0.4009 -0.3756  0.9497
  951MOL0     C28252  11.321   3.756   9.801 -0.4588  1.0748  0.4635
  951MOL0     O28253  11.359   3.668   9.707  0.3458 -0.0058  0.2048
  951MOL0     C28254  11.488   3.638   9.689 -0.6271 -0.2459 -0.1418
  951MOL0     C28255  11.585   3.628   9.796 -0.3971 -0.5430  0.2459
  951MOL0     C28256  11.722   3.616   9.764 -0.2823  0.6098  0.1752
  951MOL0     C28257  11.773   3.607   9.637  0.4013 -0.2952 -0.3520
  951MOL0     O28258  11.905   3.587   9.603  0.5404  0.4337 -0.2698
  951MOL0     C28259  12.008   3.685   9.644 -1.0647  0.5029 -0.6635
  951MOL0     C28260  12.001   3.814   9.567  1.0523 -0.4197 -0.0868
  951MOL0     C28261  12.065   3.787   9.431  0.4336  0.7592 -0.7024
  951MOL0     C28262  12.065   3.915   9.339 -0.4554 -0.4174 -0.4073
  951MOL0     C28263  11.918   3.939   9.304  0.0695  1.2260  0.9510
  951MOL0     C28264  11.880   4.046   9.207  1.0319  0.4953  0.4019
  951MOL0     C28265  11.735   4.013   9.155  0.0686  0.4411  0.9675
  951MOL0     C28266  11.713   3.885   9.073  0.1045  0.4357  0.2930
  951MOL0     N28267  11.569   3.865   9.039  0.3384  0.1556  0.2747
  951MOL0     C28268  11.487   3.918   8.940  0.4575 -0.1280 -1.5601
  951MOL0     C28269  11.362   3.858   8.957  0.1704  0.2200 -0.8698
  951MOL0     C28270  11.240   3.885   8.873 -0.5191 -0.6242  0.5395
  951MOL0     C28271  11.252   3.811   8.743  0.3252  0.6937  0.1431
  951MOL0     C28272  11.141   3.867   8.662 -0.4331  0.6479  0.0428
  951MOL0     C28273  11.120   3.808   8.532  0.1438 -0.3587  0.3325
  951MOL0     O28274  11.005   3.876   8.479 -0.0601  0.7520 -0.1802
  951MOL0     C28275  10.879   3.819   8.513  0.4580 -0.1314  0.4363
  951MOL0     C28276  10.769   3.897   8.567  0.2909 -0.3348  0.1252
  951MOL0     C28277  10.646   3.847   8.569  0.6369 -0.3971 -1.2113
  951MOL0     C28278  10.535   3.944   8.606  0.6380  0.8891  0.6653
  951MOL0     C28279  10.620   3.722   8.530  0.0696  0.2773 -0.3413
  951MOL0     C28280  10.491   3.657   8.531 -0.4656  0.5644  0.0560
  951MOL0     O28281  10.481   3.533   8.471  0.7631  0.6996 -0.2704
  951MOL0     C28282  10.363   3.487   8.417 -0.5312  0.5097 -1.3353
  951MOL0     C28283  10.294   3.571   8.336 -0.0976  0.2518 -0.5066
  951MOL0     C28284  10.178   3.523   8.276  1.8009  0.8911 -0.0154
  951MOL0     C28285  10.139   3.393   8.293 -0.0704  0.5704  0.0751
  951MOL0     O28286  10.032   3.327   8.227  0.3441 -0.4011 -1.3837
  951MOL0     C28287   9.960   3.397   8.131  1.4414 -0.7426  0.1482
  951MOL0     C28288   9.862   3.302   8.073  0.3180  0.2994  0.1281
  951MOL0     C28289   9.751   3.362   7.976 -0.9518 -0.4691  0.1932
  951MOL0     C28290   9.679   3.477   8.047  0.5411 -0.1779  0.1941
  951MOL0     C28291   9.552   3.536   7.968  0.4227  0.3591 -0.5777
  951MOL0     C28292   9.436   3.439   7.973  1.0153 -0.0391  1.1288
  951MOL0     C28293   9.366   3.448   8.099 -0.0158  0.4248  0.1681
  951MOL0     C28294   9.359   3.307   8.164 -0.3668 -0.6543  0.1918
  951MOL0    Cl28295   9.279   3.168   8.063  0.2564 -0.0079  0.0179
  951MOL0     C28296  10.205   3.305   8.385 -1.2968 -0.7577  0.2751
  951MOL0     C28297  10.325   3.358   8.447  0.1510 -0.2143  0.3954
  951MOL0     O28298  10.394   3.707   8.589 -0.2061 -0.2879 -0.2052
  951MOL0     C28299  10.728   3.643   8.494 -0.5272  0.1338  0.4745
  951MOL0     C28300  10.857   3.688   8.475 -0.5577 -0.5867  0.2416
  951MOL0     N28301  11.378   3.767   9.063  0.4807 -0.0879  0.0598
  951MOL0     N28302  11.500   3.772   9.107  0.7095  0.2730 -0.0712
  951MOL0     C28303  11.684   3.614   9.539  0.3041  0.6045 -0.6520
  951MOL0     C28304  11.537   3.630   9.557  0.0549  0.4980  0.0189
  951MOL0     C28305  11.190   3.824   9.786  0.5514  1.7260  0.1056
  951MOL0     C28306  11.149   3.914   9.887  0.1287 -0.9509  1.3796
  951MOL0     C28307  11.032   3.989   9.876  0.0903 -0.3225 -0.6596
  951MOL0     C28308  10.958   3.989   9.762 -0.8997 -0.1504 -0.6850
  951MOL0     O28309  10.845   4.073   9.763 -0.5926 -0.4312 -0.1286
  951MOL0     C28310  10.744   4.067   9.672  0.6043  0.2372 -0.3601
  951MOL0     C28311  10.763   4.151   9.550 -0.1251 -0.0101 -0.3423
  951MOL0     C28312  10.811   4.296   9.579 -0.5695 -0.6144 -0.0258
  951MOL0     C28313  10.947   4.317   9.649  0.7133  0.8733 -0.5869
  951MOL0     C28314  10.985   4.456   9.635  0.8524 -0.0407  1.9053
  951MOL0     C28315  11.035   4.566   9.630 -0.0456  0.0738  0.4509
  951MOL0     C28316  10.996   3.899   9.658 -0.5970 -0.4267 -0.4989
  951MOL0     C28317  11.106   3.818   9.676 -1.1365  0.2861  0.7794
  951MOL0     H28318  11.569   3.629   9.903  0.0874 -1.1774  0.3321
  951MOL0     H28319  11.799   3.613   9.840  0.7612 -0.6270 -0.8725
  951MOL0     H28320  12.000   3.715   9.749  2.9054  1.1429 -0.3761
  951MOL0     H28321  12.112   3.652   9.640 -0.4733  2.2715 -0.9175
  951MOL0     H28322  11.893   3.822   9.558  0.9384 -0.9231  0.7513
  951MOL0     H28323  12.041   3.902   9.620  0.4119  0.0314 -0.3434
  951MOL0     H28324  12.167   3.753   9.454  0.3828  1.5833  0.8543
  951MOL0     H28325  12.017   3.698   9.390 -0.1091 -0.1776  1.7869
  951MOL0     H28326  12.126   3.998   9.376  0.7979 -0.9063 -1.2723
  951MOL0     H28327  12.119   3.894   9.246 -0.9212  1.6158 -1.1910
  951MOL0     H28328  11.896   3.841   9.260 -1.5771  0.8131  2.5838
  951MOL0     H28329  11.850   3.931   9.389 -1.2324 -0.1928 -0.1720
  951MOL0     H28330  11.877   4.145   9.253 -1.3926  0.3207  0.7484
  951MOL0     H28331  11.939   4.052   9.115 -0.6108  1.3891 -0.6522
  951MOL0     H28332  11.672   4.012   9.244 -1.1898 -1.6440  0.1073
  951MOL0     H28333  11.718   4.099   9.090  2.3111  1.5433  1.7231
  951MOL0     H28334  11.747   3.799   9.131  2.7421 -0.9157 -2.9168
  951MOL0     H28335  11.772   3.894   8.981 -1.8335  1.9548 -0.8775
  951MOL0     H28336  11.494   4.003   8.873  0.3658 -1.1306 -2.8865
  951MOL0     H28337  11.148   3.866   8.928 -1.0622 -0.4355 -0.2861
  951MOL0     H28338  11.235   3.991   8.845 -0.8915 -0.3399  1.6587
  951MOL0     H28339  11.249   3.701   8.746 -0.7027  0.6452 -1.4230
  951MOL0     H28340  11.344   3.836   8.690  1.3781  0.2570  1.7080
  951MOL0     H28341  11.170   3.969   8.633  1.1055 -0.5846 -3.3066
  951MOL0     H28342  11.051   3.879   8.724 -1.0889  2.4026 -1.1652
  951MOL0     H28343  11.109   3.701   8.552 -2.3106 -0.2337 -0.0704
  951MOL0     H28344  11.208   3.836   8.475  0.7045 -0.5047  1.1022
  951MOL0     H28345  10.802   3.996   8.598  2.9386 -1.8316  2.6764
  951MOL0     H28346  10.567   4.047   8.624 -2.2880  2.2647 -1.2447
  951MOL0     H28347  10.463   3.953   8.525 -1.3178  4.2084  2.5577
  951MOL0     H28348  10.491   3.921   8.704 -0.4069  2.2484  0.5309
  951MOL0     H28349  10.324   3.670   8.304  0.8117 -1.3094 -5.4383
  951MOL0     H28350  10.118   3.593   8.219  0.3975 -1.7135 -1.9838
  951MOL0     H28351   9.898   3.471   8.180 -3.3185 -3.2638 -1.3642
  951MOL0     H28352  10.018   3.451   8.056  1.7458 -0.2891  0.7082
  951MOL0     H28353   9.918   3.224   8.022 -0.3296 -2.6450  3.5094
  951MOL0     H28354   9.826   3.250   8.162  2.2631 -0.9718  0.2271
  951MOL0     H28355   9.678   3.284   7.955 -2.7005  1.0214  0.5228
  951MOL0     H28356   9.791   3.391   7.878 -1.2325 -1.8367 -0.3405
  951MOL0     H28357   9.670   3.448   8.152  0.8418 -2.6274 -0.3959
  951MOL0     H28358   9.750   3.558   8.028  1.1543 -0.7125  0.1988
  951MOL0     H28359   9.567   3.556   7.862  1.9099  0.2003 -0.4085
  951MOL0     H28360   9.519   3.628   8.017  3.6900  0.5251  1.5893
  951MOL0     H28361   9.356   3.465   7.903 -0.9191 -2.5352  2.2427
  951MOL0     H28362   9.477   3.340   7.949  1.2246 -0.0367  1.4821
  951MOL0     H28363   9.266   3.486   8.080  0.7939  2.5861 -0.0812
  951MOL0     H28364   9.414   3.519   8.167  0.1277  1.0366 -0.5622
  951MOL0     H28365   9.308   3.324   8.259 -2.2292 -2.0613 -0.4998
  951MOL0     H28366   9.462   3.281   8.191 -0.5767  0.3788  2.2075
  951MOL0     H28367  10.171   3.205   8.411 -0.8136 -0.5787  1.7206
  951MOL0     H28368  10.367   3.301   8.529 -0.0524  1.4342  1.6797
  951MOL0     H28369  10.705   3.539   8.472 -1.2077  0.2061  0.8234
  951MOL0     H28370  10.934   3.623   8.436  0.2023  0.4398 -0.0081
  951MOL0     H28371  11.723   3.628   9.438  0.6204  0.8461 -0.4986
  951MOL0     H28372  11.472   3.652   9.474  2.3341  0.5255 -1.8668
  951MOL0     H28373  11.203   3.929   9.980  1.1016  1.6049  0.5136
  951MOL0     H28374  10.998   4.054   9.956  1.8168  0.2748 -0.3815
  951MOL0     H28375  10.737   3.964   9.636  1.1951  0.6281 -1.6661
  951MOL0     H28376  10.653   4.095   9.725  1.9316 -0.6750  2.6462
  951MOL0     H28377  10.668   4.162   9.497 -1.0380 -4.1795  0.1386
  951MOL0     H28378  10.840   4.109   9.484  1.4185  2.4373 -0.2587
  951MOL0     H28379  10.729   4.339   9.639 -1.4530  0.2179 -1.7457
  951MOL0     H28380  10.807   4.352   9.486 -2.5954  0.8708  0.8554
  951MOL0     H28381  11.014   4.248   9.599  0.0031  0.3864 -0.8889
  951MOL0     H28382  10.940   4.297   9.756  0.1194  0.3513 -0.7192
  951MOL0     H28383  11.094   4.654   9.618  0.5047 -0.2488  0.7863
  951MOL0     H28384  10.933   3.891   9.570 -1.7096 -2.2354  0.3943
  951MOL0     H28385  11.135   3.743   9.603 -1.7058 -1.1970  2.0206
  952MOL0     O28386  11.008  11.422   7.056  0.2892  0.7193 -0.2182
  952MOL0     C28387  10.954  11.495   6.971 -0.2453 -0.1411 -0.5048
  952MOL0     O28388  10.907  11.453   6.846  0.0601  0.2471 -0.0581
  952MOL0     C28389  10.902  11.320   6.813 -0.5482  1.1182  0.0440
  952MOL0     C28390  10.930  11.278   6.684 -0.1297  0.9420  0.6158
  952MOL0     C28391  10.934  11.139   6.646  0.0287  0.8941  0.0070
  952MOL0     C28392  10.883  11.042   6.735 -0.3311  0.0009 -0.4493
  952MOL0     O28393  10.886  10.906   6.699 -0.8298 -0.0577 -0.1806
  952MOL0     C28394  10.837  10.801   6.771  0.1761  0.0181  0.7011
  952MOL0     C28395  10.832  10.682   6.672 -0.6244 -0.2419 -0.2244
  952MOL0     C28396  10.687  10.605   6.660  0.4968  0.3256 -1.1501
  952MOL0     C28397  10.578  10.684   6.591  0.4421 -0.4507 -0.2557
  952MOL0     C28398  10.443  10.616   6.588  0.0457  0.4265 -0.5508
  952MOL0     C28399  10.344  10.715   6.523  0.1849 -0.8921  0.0987
  952MOL0     C28400  10.207  10.643   6.517 -0.3947  0.4372  0.1013
  952MOL0     C28401  10.096  10.714   6.438  0.5642 -0.3882  0.7559
  952MOL0     N28402   9.958  10.665   6.466 -1.0032  0.7766  0.0644
  952MOL0     C28403   9.880  10.626   6.366 -0.0862 -0.5710  1.5723
  952MOL0     C28404   9.763  10.606   6.429  0.0757  0.2067  0.3189
  952MOL0     C28405   9.636  10.566   6.356 -0.1363 -0.3904 -0.4512
  952MOL0     C28406   9.643  10.437   6.297 -0.0287  0.1729 -0.9101
  952MOL0     C28407   9.517  10.408   6.214 -0.5448  0.0907 -0.4552
  952MOL0     C28408   9.513  10.264   6.178  0.1632  0.2356 -0.2057
  952MOL0     O28409   9.389  10.226   6.113  0.1234  0.4632 -0.4994
  952MOL0     C28410   9.390  10.101   6.059  0.3196  0.0348 -0.0969
  952MOL0     C28411   9.391  10.088   5.924  0.1148  0.7236  0.1665
  952MOL0     C28412   9.371   9.974   5.854 -0.2030  0.8355  0.1085
  952MOL0     C28413   9.363   9.997   5.704  0.0627  0.1745  0.5112
  952MOL0     C28414   9.348   9.853   5.924  0.6836 -0.1065 -0.6262
  952MOL0     C28415   9.323   9.729   5.866  0.4175  0.3982 -0.3569
  952MOL0     O28416   9.367   9.620   5.938  0.1500 -0.1557 -0.1159
  952MOL0     C28417   9.331   9.500   5.887 -0.5031 -0.2610  0.5109
  952MOL0     C28418   9.210   9.439   5.908 -0.2059  0.9475 -0.1035
  952MOL0     C28419   9.173   9.335   5.833 -1.9176  1.4432 -0.2685
  952MOL0     C28420   9.267   9.267   5.746 -0.1690 -0.2216 -0.2149
  952MOL0     O28421   9.236   9.163   5.651 -0.3536 -0.5557 -0.8086
  952MOL0     C28422   9.116   9.085   5.674 -0.9220  0.4368  0.2488
  952MOL0     C28423   9.167   8.941   5.666 -0.2264 -0.1905  0.0517
  952MOL0     C28424   9.081   8.847   5.758  0.3744 -0.0936 -0.4965
  952MOL0     C28425   9.105   8.710   5.726  0.4867  0.4281 -0.8472
  952MOL0     C28426   9.022   8.597   5.800  0.6644  0.0789  0.5870
  952MOL0     C28427   9.042   8.609   5.953 -0.4426 -0.8621 -0.3474
  952MOL0     C28428   8.972   8.493   6.019 -0.3679 -0.6287  0.5994
  952MOL0     C28429   9.014   8.480   6.166 -0.6325 -1.1077 -0.1445
  952MOL0    Cl28430   8.944   8.342   6.246 -0.1421  0.7048 -0.4349
  952MOL0     C28431   9.399   9.322   5.730 -0.2422 -0.0425 -0.3604
  952MOL0     C28432   9.434   9.431   5.810  0.2527 -0.4107  0.2919
  952MOL0     O28433   9.262   9.731   5.761  0.0322  0.3541  0.0914
  952MOL0     C28434   9.346   9.864   6.067 -0.0027  0.1093  0.4659
  952MOL0     C28435   9.369   9.989   6.133 -0.0822  1.1436 -0.4719
  952MOL0     N28436   9.779  10.645   6.560  0.1149  0.1596 -0.0811
  952MOL0     N28437   9.893  10.688   6.578 -0.8102  0.3493 -0.0024
  952MOL0     C28438  10.849  11.084   6.862 -0.3623 -0.6777 -1.2121
  952MOL0     C28439  10.844  11.222   6.900  1.0800 -0.0835  0.0558
  952MOL0     C28440  10.941  11.639   7.008  0.3516  1.0867  1.2339
  952MOL0     C28441  11.001  11.697   7.121 -0.1576 -0.1556  0.4065
  952MOL0     C28442  10.984  11.831   7.146 -0.1049 -0.3526 -0.5098
  952MOL0     C28443  10.934  11.921   7.056  1.0020 -0.0200  0.8144
  952MOL0     O28444  10.958  12.050   7.054  0.1559 -0.3745  0.5223
  952MOL0     C28445  11.027  12.110   6.941 -0.0418  0.9721  0.4334
  952MOL0     C28446  11.109  12.233   6.954 -0.5535 -0.5928 -0.1460
  952MOL0     C28447  11.040  12.368   6.980  0.2618 -0.6536 -0.0620
  952MOL0     C28448  11.130  12.492   6.978 -0.1931 -0.6783 -0.4663
  952MOL0     C28449  11.222  12.500   7.089 -0.5681  0.0039 -0.2157
  952MOL0     C28450  11.287  12.523   7.194  1.3774 -0.3873  0.6812
  952MOL0     C28451  10.869  11.864   6.943 -0.9045  0.3196  0.0527
  952MOL0     C28452  10.859  11.722   6.923 -0.6403  0.3933 -0.5188
  952MOL0     H28453  10.957  11.349   6.608 -3.6355  1.2739 -0.5040
  952MOL0     H28454  10.961  11.114   6.544  0.4809  2.9905 -0.4492
  952MOL0     H28455  10.905  10.779   6.854 -1.3782 -1.1472  1.7386
  952MOL0     H28456  10.743  10.830   6.818  1.2079  0.1874  2.7704
  952MOL0     H28457  10.875  10.709   6.575  2.0410 -1.8812  0.3702
  952MOL0     H28458  10.903  10.616   6.722 -1.7013  1.6297  4.2526
  952MOL0     H28459  10.718  10.516   6.603  1.8268 -1.0796  1.5521
  952MOL0     H28460  10.649  10.565   6.755  1.3189  1.9728 -0.0832
  952MOL0     H28461  10.565  10.783   6.636 -1.0165 -0.8168  0.1781
  952MOL0     H28462  10.614  10.704   6.490 -0.0426 -0.7064 -0.4759
  952MOL0     H28463  10.445  10.522   6.531 -1.8187  0.6566 -1.0561
  952MOL0     H28464  10.411  10.580   6.686 -0.2839 -1.4572 -1.3126
  952MOL0     H28465  10.338  10.798   6.594 -3.1184 -0.4277 -0.5574
  952MOL0     H28466  10.370  10.737   6.419  0.2703  0.4420  0.3824
  952MOL0     H28467  10.212  10.547   6.466  2.1934 -0.2759  1.4604
  952MOL0     H28468  10.164  10.639   6.617 -2.6806 -0.3189 -0.8579
  952MOL0     H28469  10.121  10.709   6.332 -0.7268  0.3791  0.3994
  952MOL0     H28470  10.092  10.821   6.457 -2.4395 -0.5027  1.2804
  952MOL0     H28471   9.888  10.629   6.258 -1.1468  3.8329  1.4357
  952MOL0     H28472   9.558  10.570   6.433  0.1940 -0.0641 -0.1246
  952MOL0     H28473   9.607  10.648   6.289  0.6864  0.0736 -0.2600
  952MOL0     H28474   9.654  10.365   6.378 -1.3419  1.4093  0.4277
  952MOL0     H28475   9.726  10.437   6.226 -0.7375 -0.4330 -1.7592
  952MOL0     H28476   9.527  10.470   6.124 -0.7148  1.6551  0.5669
  952MOL0     H28477   9.426  10.430   6.270 -1.7121 -1.0572 -1.8065
  952MOL0     H28478   9.527  10.193   6.260  2.1011 -0.5639 -1.1719
  952MOL0     H28479   9.594  10.234   6.111 -3.2455 -1.9154 -3.7570
  952MOL0     H28480   9.423  10.177   5.870  3.1473 -1.8067 -2.6653
  952MOL0     H28481   9.460  10.002   5.655 -0.7883  3.4614 -1.0986
  952MOL0     H28482   9.313   9.919   5.644  0.8901 -1.4544  1.8523
  952MOL0     H28483   9.323  10.097   5.686  0.4930  0.4648  1.1638
  952MOL0     H28484   9.137   9.501   5.961  0.9781  1.9203  0.4353
  952MOL0     H28485   9.074   9.299   5.858 -0.6849 -0.6008  2.0740
  952MOL0     H28486   9.054   9.097   5.764 -0.0614 -1.4852  1.1535
  952MOL0     H28487   9.052   9.098   5.586 -1.7867  1.1390  0.9547
  952MOL0     H28488   9.174   8.910   5.562 -1.0620 -4.3103  1.0264
  952MOL0     H28489   9.265   8.934   5.715 -1.4070 -0.8905  2.4821
  952MOL0     H28490   8.977   8.881   5.749  1.4780  3.5485 -1.0286
  952MOL0     H28491   9.117   8.853   5.861  3.0587  0.6651 -1.4023
  952MOL0     H28492   9.083   8.690   5.621 -1.4006  1.8276 -0.7583
  952MOL0     H28493   9.207   8.683   5.756  0.3388 -2.0631 -2.2786
  952MOL0     H28494   9.058   8.501   5.761 -0.5253  0.4774 -1.6268
  952MOL0     H28495   8.917   8.606   5.769  0.9776 -1.2510 -0.9898
  952MOL0     H28496   9.146   8.616   5.989 -0.9269 -0.0026  0.9658
  952MOL0     H28497   9.001   8.700   5.998 -1.1186 -1.4983  0.3426
  952MOL0     H28498   8.991   8.405   5.956 -0.7187  1.4022 -2.5326
  952MOL0     H28499   8.863   8.498   6.007 -0.4109 -0.4916  1.0324
  952MOL0     H28500   8.990   8.569   6.224  2.0731  3.3940 -5.1361
  952MOL0     H28501   9.121   8.459   6.177 -0.9885 -2.9715  0.1996
  952MOL0     H28502   9.448   9.292   5.637 -0.9299  1.4056 -1.2353
  952MOL0     H28503   9.536   9.467   5.805 -0.4791  1.6058 -1.0153
  952MOL0     H28504   9.336   9.769   6.120  0.1396 -0.2221 -0.0852
  952MOL0     H28505   9.374   9.994   6.241  2.7843 -0.6730 -0.4419
  952MOL0     H28506  10.820  11.012   6.939  0.7936 -0.8256 -0.9037
  952MOL0     H28507  10.812  11.255   6.998  0.7896  1.0554 -0.4094
  952MOL0     H28508  11.054  11.650   7.203 -2.3333 -2.3017  0.7126
  952MOL0     H28509  11.013  11.880   7.238 -1.6346  1.1232 -0.7516
  952MOL0     H28510  11.105  12.039   6.914 -0.3118 -0.3698  2.8917
  952MOL0     H28511  10.952  12.136   6.864  1.5007  0.9635 -1.1303
  952MOL0     H28512  11.152  12.246   6.854 -0.7538 -0.1689 -0.1805
  952MOL0     H28513  11.176  12.212   7.037 -0.2672  0.6498 -0.0438
  952MOL0     H28514  10.985  12.365   7.075  0.1240  0.3804 -0.0978
  952MOL0     H28515  10.967  12.387   6.901  1.4246 -0.8861 -1.2355
  952MOL0     H28516  11.073  12.586   6.983  0.3585 -0.2165 -2.1715
  952MOL0     H28517  11.193  12.487   6.889  1.1231  1.6929  0.2482
  952MOL0     H28518  11.351  12.532   7.279  2.3513 -1.2369  0.0545
  952MOL0     H28519  10.814  11.933   6.879  0.4021  0.8831 -0.4976
  952MOL0     H28520  10.793  11.681   6.847 -0.5913 -3.7718  1.4409
  953MOL0     O28521   3.970   8.543   4.397 -0.7610 -0.7019 -0.1134
  953MOL0     C28522   3.926   8.546   4.507  0.8466  0.1683 -1.1563
  953MOL0     O28523   3.953   8.641   4.599 -0.2348  0.3598 -0.2433
  953MOL0     C28524   4.048   8.723   4.576 -1.0725  0.5594  0.7371
  953MOL0     C28525   4.038   8.813   4.465 -0.3034 -1.1050  0.1267
  953MOL0     C28526   4.132   8.914   4.460  0.7452 -0.5973 -0.1187
  953MOL0     C28527   4.227   8.942   4.563 -0.8592  1.1747 -0.5352
  953MOL0     O28528   4.298   9.060   4.583 -0.4460  0.0077 -0.4109
  953MOL0     C28529   4.284   9.169   4.479 -0.4269  0.2534 -0.4125
  953MOL0     C28530   4.357   9.289   4.546  0.1418 -0.0403 -0.1125
  953MOL0     C28531   4.290   9.413   4.503 -0.4286  0.4756 -0.2541
  953MOL0     C28532   4.319   9.460   4.356 -0.2845  1.2497 -0.4226
  953MOL0     C28533   4.300   9.608   4.348  0.4713 -0.7423  0.7130
  953MOL0     C28534   4.319   9.644   4.195 -0.0347 -0.4914 -0.2537
  953MOL0     C28535   4.472   9.669   4.178 -0.4635 -0.0087  0.6938
  953MOL0     C28536   4.503   9.762   4.061  0.6100 -0.0617  0.4664
  953MOL0     N28537   4.451   9.714   3.926 -0.5362 -0.9714 -0.1120
  953MOL0     C28538   4.340   9.774   3.869 -0.0377 -0.2088 -0.8483
  953MOL0     C28539   4.303   9.680   3.778 -0.3953 -0.0326 -0.8678
  953MOL0     C28540   4.179   9.683   3.687 -0.0926 -0.0865 -0.6687
  953MOL0     C28541   4.079   9.788   3.711  0.1938  0.0227  1.1881
  953MOL0     C28542   3.985   9.765   3.839  0.0205  0.5667  0.3117
  953MOL0     C28543   3.868   9.850   3.866  0.2620 -1.0206  0.5303
  953MOL0     O28544   3.784   9.794   3.974 -0.4887 -0.2388  0.0235
  953MOL0     C28545   3.852   9.771   4.089  0.4116  0.2470 -0.7486
  953MOL0     C28546   3.848   9.646   4.141  0.9432  0.3648 -0.6784
  953MOL0     C28547   3.895   9.624   4.269 -0.8580 -0.1717  0.8007
  953MOL0     C28548   3.888   9.479   4.318  0.0779 -1.1147 -0.8430
  953MOL0     C28549   3.936   9.735   4.356 -0.5830 -1.2819  0.1363
  953MOL0     C28550   3.993   9.728   4.500 -0.1924 -1.3600  0.1571
  953MOL0     O28551   4.048   9.845   4.550 -0.2789 -0.0832  0.3645
  953MOL0     C28552   4.148   9.828   4.647 -0.1964  0.1059 -0.6981
  953MOL0     C28553   4.276   9.875   4.631  0.3620  0.5700 -0.2574
  953MOL0     C28554   4.375   9.866   4.737 -0.6081  0.3931 -1.3447
  953MOL0     C28555   4.344   9.813   4.865  0.5171 -0.2825 -0.5536
  953MOL0     O28556   4.445   9.821   4.959 -0.0327 -0.4997 -0.3655
  953MOL0     C28557   4.422   9.831   5.105  0.6219 -0.0299 -0.0924
  953MOL0     C28558   4.560   9.889   5.155 -0.4888  0.6995  0.2697
  953MOL0     C28559   4.581   9.852   5.303  0.9732  0.7290 -0.2484
  953MOL0     C28560   4.721   9.892   5.351 -0.2467 -0.8793 -0.2449
  953MOL0     C28561   4.780   9.815   5.468 -0.0999  0.0759  0.3134
  953MOL0     C28562   4.918   9.855   5.514  0.4566 -0.0333  0.3306
  953MOL0     C28563   4.931   9.792   5.655 -0.6870  0.0372  0.1097
  953MOL0     C28564   5.067   9.833   5.724  0.2810 -0.7312 -1.1244
  953MOL0    Cl28565   5.066  10.007   5.784 -0.3977 -0.2317  0.5732
  953MOL0     C28566   4.207   9.771   4.890  0.7459  0.3687  0.1036
  953MOL0     C28567   4.115   9.773   4.773 -1.2237 -0.3657 -1.7003
  953MOL0     O28568   3.981   9.623   4.563  0.3529 -0.2299  0.6273
  953MOL0     C28569   3.930   9.862   4.301 -0.0689  0.7842 -0.1773
  953MOL0     C28570   3.898   9.881   4.168  0.4381 -0.2723  0.4728
  953MOL0     N28571   4.390   9.571   3.783  0.0247  0.9187 -0.5836
  953MOL0     N28572   4.481   9.602   3.863  0.1891  0.2884 -0.5941
  953MOL0     C28573   4.246   8.848   4.665  1.0799 -0.0469 -0.1320
  953MOL0     C28574   4.153   8.738   4.667  0.0450 -0.2950 -0.0164
  953MOL0     C28575   3.833   8.434   4.544 -1.6409 -0.8274  0.6111
  953MOL0     C28576   3.743   8.429   4.648 -0.2393 -0.7989 -0.5923
  953MOL0     C28577   3.651   8.326   4.682  0.2259 -0.1163  0.1083
  953MOL0     C28578   3.634   8.220   4.593  0.0009  0.4032  1.2347
  953MOL0     O28579   3.540   8.125   4.632 -0.4128 -0.5131 -0.6100
  953MOL0     C28580   3.492   8.030   4.538  0.0184  0.8110 -0.1158
  953MOL0     C28581   3.403   8.110   4.453 -0.1846 -0.0166 -0.3117
  953MOL0     C28582   3.285   8.033   4.389  0.3906 -0.3612 -0.5613
  953MOL0     C28583   3.197   8.126   4.289  0.6861 -0.9207  0.1446
  953MOL0     C28584   3.117   8.215   4.372  0.4169 -0.6833  0.1658
  953MOL0     C28585   3.061   8.302   4.439  0.4546 -0.7103  0.8244
  953MOL0     C28586   3.716   8.221   4.478 -0.2801  0.5266  0.5343
  953MOL0     C28587   3.813   8.320   4.456 -0.5279  0.2490 -0.3831
  953MOL0     H28588   3.962   8.802   4.389 -0.6610 -0.0941  0.3306
  953MOL0     H28589   4.119   8.961   4.364  2.0478 -0.2905 -0.1554
  953MOL0     H28590   4.317   9.125   4.385 -0.8147 -0.9233 -0.0154
  953MOL0     H28591   4.175   9.179   4.468 -0.7062 -1.5502  0.3523
  953MOL0     H28592   4.336   9.283   4.653  0.4234 -1.6038 -0.1302
  953MOL0     H28593   4.466   9.288   4.533  0.4686  0.7477  2.0764
  953MOL0     H28594   4.182   9.393   4.501 -0.6278  1.5049 -2.1603
  953MOL0     H28595   4.308   9.498   4.569 -0.6955  0.6824 -0.4465
  953MOL0     H28596   4.421   9.431   4.330 -0.6631  0.1233 -0.7008
  953MOL0     H28597   4.253   9.405   4.289 -1.4933  4.1318 -1.7756
  953MOL0     H28598   4.196   9.630   4.373 -0.3987 -2.8484 -0.7561
  953MOL0     H28599   4.364   9.668   4.413  0.7834 -1.4921  1.1059
  953MOL0     H28600   4.282   9.569   4.125 -0.7656 -1.3371  1.0005
  953MOL0     H28601   4.281   9.746   4.188 -1.3918 -1.0930 -3.0392
  953MOL0     H28602   4.516   9.712   4.269 -0.2850  1.2891  0.0089
  953MOL0     H28603   4.526   9.574   4.171  0.1487  0.2429  1.6937
  953MOL0     H28604   4.612   9.767   4.056  0.7192  0.4803  2.3534
  953MOL0     H28605   4.462   9.864   4.067  0.5001  0.4780 -5.0018
  953MOL0     H28606   4.279   9.858   3.899 -1.6937 -2.1045  1.5739
  953MOL0     H28607   4.208   9.705   3.584 -0.6884  1.0182 -0.6179
  953MOL0     H28608   4.130   9.586   3.682 -0.9843  0.1169  2.2918
  953MOL0     H28609   4.016   9.773   3.622  0.4231 -4.0738  1.5629
  953MOL0     H28610   4.117   9.890   3.715 -2.9879  1.4758 -0.9001
  953MOL0     H28611   4.055   9.778   3.922  0.7464  0.6594 -0.3136
  953MOL0     H28612   3.943   9.665   3.824 -1.5754  1.2552 -0.0851
  953MOL0     H28613   3.801   9.866   3.781  2.0105  2.6437 -0.3589
  953MOL0     H28614   3.907   9.948   3.892  2.9633 -1.7688 -0.4124
  953MOL0     H28615   3.807   9.568   4.078 -2.1070  2.2542 -1.2649
  953MOL0     H28616   3.975   9.458   4.380 -0.8591 -2.6501  0.0117
  953MOL0     H28617   3.793   9.464   4.370 -0.0133 -1.5615 -1.1343
  953MOL0     H28618   3.880   9.403   4.240 -6.0155 -1.7574 -0.1110
  953MOL0     H28619   4.289   9.930   4.539 -2.1387 -0.4310 -1.3297
  953MOL0     H28620   4.481   9.883   4.720 -0.8984  0.2812 -3.6420
  953MOL0     H28621   4.338   9.889   5.143  1.3311  0.4326  0.8080
  953MOL0     H28622   4.420   9.726   5.137  0.5615  0.1730  0.5764
  953MOL0     H28623   4.642   9.837   5.105 -0.7254  0.6848 -0.1059
  953MOL0     H28624   4.560   9.998   5.146 -0.1525  0.5162 -4.4881
  953MOL0     H28625   4.578   9.743   5.304 -0.2200  0.7376  1.3612
  953MOL0     H28626   4.509   9.911   5.360 -1.0038 -1.5190 -0.2767
  953MOL0     H28627   4.794   9.882   5.270  1.8532  3.3179  0.8505
  953MOL0     H28628   4.715   9.998   5.379 -2.3477 -1.2867  1.0951
  953MOL0     H28629   4.785   9.709   5.441 -2.8712  0.2613 -1.2653
  953MOL0     H28630   4.710   9.824   5.552  0.1115 -0.9035  0.6085
  953MOL0     H28631   4.991   9.808   5.448 -0.4822 -0.3736 -0.4964
  953MOL0     H28632   4.933   9.962   5.530  3.0082 -0.4739  1.4063
  953MOL0     H28633   4.924   9.683   5.654 -0.5334 -0.0177 -2.1471
  953MOL0     H28634   4.846   9.828   5.713 -1.1214  1.2896 -1.2321
  953MOL0     H28635   5.147   9.820   5.650  1.3150 -3.2260  0.3077
  953MOL0     H28636   5.078   9.768   5.811  0.4037  1.9416  0.9652
  953MOL0     H28637   4.172   9.727   4.983 -0.0328  2.3584  0.8160
  953MOL0     H28638   4.010   9.750   4.790 -0.6602 -0.9417  1.5795
  953MOL0     H28639   3.948   9.949   4.363  1.9017 -0.9226  1.7794
  953MOL0     H28640   3.879   9.984   4.137  1.5188 -0.0747  0.4026
  953MOL0     H28641   4.328   8.853   4.736  0.7778 -1.7207  0.3783
  953MOL0     H28642   4.170   8.668   4.748 -3.9090 -1.6083 -0.1355
  953MOL0     H28643   3.735   8.522   4.704 -3.5777 -1.1077 -0.3968
  953MOL0     H28644   3.598   8.339   4.776 -0.5923 -5.0996  0.5729
  953MOL0     H28645   3.569   7.984   4.477 -0.6417 -0.7610  0.1841
  953MOL0     H28646   3.441   7.945   4.584 -0.7267  1.2303 -0.1495
  953MOL0     H28647   3.468   8.140   4.371 -1.1038 -1.5692 -1.6751
  953MOL0     H28648   3.370   8.194   4.515  1.3250  0.5244 -0.1982
  953MOL0     H28649   3.223   7.979   4.461 -0.6233  2.2917  0.7123
  953MOL0     H28650   3.330   7.956   4.326  1.3080 -1.5670  1.4828
  953MOL0     H28651   3.128   8.069   4.226 -0.2992  1.3615 -0.9409
  953MOL0     H28652   3.264   8.193   4.234  1.4507 -0.6653  1.3474
  953MOL0     H28653   3.004   8.362   4.507  0.6896 -0.9893  1.2687
  953MOL0     H28654   3.725   8.140   4.406  3.2191  2.1369 -1.0922
  953MOL0     H28655   3.865   8.312   4.361 -1.6251 -2.2203 -0.8408
  954MOL0     O28656   6.356   5.510   1.972 -0.2730 -0.3622  0.0857
  954MOL0     C28657   6.371   5.390   1.952 -0.0854  0.4582  0.4409
  954MOL0     O28658   6.464   5.329   1.862 -0.1090 -0.0135 -0.3068
  954MOL0     C28659   6.560   5.411   1.814  0.4542 -0.8142  0.2732
  954MOL0     C28660   6.562   5.420   1.673  0.2388 -0.7215 -0.5923
  954MOL0     C28661   6.666   5.494   1.610 -0.0445  0.8412 -0.1150
  954MOL0     C28662   6.768   5.556   1.690  0.1215 -0.8760  0.4950
  954MOL0     O28663   6.872   5.626   1.624 -0.0242  0.8773 -0.4297
  954MOL0     C28664   6.983   5.671   1.695 -0.6462 -0.3104 -0.3454
  954MOL0     C28665   6.949   5.804   1.775 -1.2357 -0.5203 -0.8444
  954MOL0     C28666   6.861   5.900   1.690  0.0582 -0.3891  0.0581
  954MOL0     C28667   6.945   5.959   1.574 -0.8188  0.1073  0.5559
  954MOL0     C28668   6.865   6.083   1.529  0.0724 -0.0368  0.3811
  954MOL0     C28669   6.917   6.135   1.387  0.3472 -0.3106 -0.0783
  954MOL0     C28670   6.811   6.217   1.308  0.3383  0.2223 -0.3085
  954MOL0     C28671   6.870   6.256   1.171 -0.3197 -0.4024 -0.0691
  954MOL0     N28672   6.781   6.356   1.108  0.2636 -0.2262 -0.0514
  954MOL0     C28673   6.655   6.332   1.060  0.2474  0.2000 -0.8172
  954MOL0     C28674   6.639   6.429   0.971  0.1664  0.7403  0.2084
  954MOL0     C28675   6.506   6.450   0.901  0.8893  0.6121 -0.1701
  954MOL0     C28676   6.394   6.475   1.016 -0.0341  0.5589  0.8840
  954MOL0     C28677   6.264   6.464   0.939  0.4509 -0.8316 -0.0161
  954MOL0     C28678   6.187   6.338   0.966  0.9006  0.1555 -0.6489
  954MOL0     O28679   6.280   6.228   0.973 -0.3082  0.4661  0.7156
  954MOL0     C28680   6.237   6.108   1.000 -0.7080  0.5643  1.6372
  954MOL0     C28681   6.314   6.034   1.084  0.2801 -0.1436 -0.1614
  954MOL0     C28682   6.273   5.907   1.123 -0.1948  0.0198  0.8697
  954MOL0     C28683   6.353   5.823   1.228  0.1097 -1.3028  0.1935
  954MOL0     C28684   6.154   5.850   1.058 -0.6904  0.7637  0.4369
  954MOL0     C28685   6.094   5.708   1.096 -0.3153 -0.3676  0.7059
  954MOL0     O28686   6.031   5.647   0.993 -0.0783 -0.5968 -0.0217
  954MOL0     C28687   5.949   5.541   1.010 -0.7595 -0.6530 -0.5497
  954MOL0     C28688   5.880   5.517   1.131  0.1159  0.0041 -0.1888
  954MOL0     C28689   5.790   5.410   1.137  0.0150 -0.4766 -0.1322
  954MOL0     C28690   5.773   5.321   1.029  0.8158 -0.2667 -0.6149
  954MOL0     O28691   5.694   5.209   1.032  0.3872  0.4921 -0.2077
  954MOL0     C28692   5.668   5.147   1.158  0.0006 -0.9908 -0.3395
  954MOL0     C28693   5.636   5.001   1.121 -0.6429  0.4045  0.6462
  954MOL0     C28694   5.638   4.911   1.240 -0.7694 -0.3218 -0.4603
  954MOL0     C28695   5.574   4.977   1.362  0.1305 -0.3024  0.3486
  954MOL0     C28696   5.556   4.891   1.488 -0.0505 -0.1629 -0.0663
  954MOL0     C28697   5.433   4.802   1.475  0.1815  0.2196 -0.7049
  954MOL0     C28698   5.416   4.720   1.602  0.9510 -0.5820 -0.6893
  954MOL0     C28699   5.298   4.608   1.591 -2.0764 -1.5242 -0.2573
  954MOL0    Cl28700   5.153   4.716   1.561  0.2809  0.4448 -0.0432
  954MOL0     C28701   5.846   5.346   0.911 -1.1034  0.6748 -0.7189
  954MOL0     C28702   5.922   5.464   0.902  0.9572  0.1942 -0.2074
  954MOL0     O28703   6.136   5.651   1.195  0.0720 -0.4986 -0.3108
  954MOL0     C28704   6.082   5.923   0.971  0.2518  0.0416 -0.1721
  954MOL0     C28705   6.120   6.059   0.948 -1.1270  0.6000  0.1744
  954MOL0     N28706   6.748   6.510   0.961 -1.1746 -0.2327  0.1645
  954MOL0     N28707   6.832   6.468   1.050  0.2755  0.7463 -0.4065
  954MOL0     C28708   6.762   5.537   1.835 -0.0894 -0.6020 -0.3826
  954MOL0     C28709   6.662   5.462   1.892 -0.2015 -0.3379 -0.0839
  954MOL0     C28710   6.299   5.296   2.032  0.1619  0.5828  0.3466
  954MOL0     C28711   6.210   5.336   2.133  1.4731  0.1731 -0.7119
  954MOL0     C28712   6.147   5.241   2.201  0.8594  0.4801 -0.4802
  954MOL0     C28713   6.175   5.103   2.199 -0.0093  0.1378  0.0517
  954MOL0     O28714   6.138   5.029   2.312  0.5085 -0.3656 -0.4193
  954MOL0     C28715   6.252   5.006   2.399 -0.1457  1.1145  0.7662
  954MOL0     C28716   6.221   4.942   2.529 -0.0045  1.1612 -0.2766
  954MOL0     C28717   6.138   5.032   2.621  1.0582 -0.8284 -0.3374
  954MOL0     C28718   6.229   5.146   2.683  0.5172  1.0565  0.1199
  954MOL0     C28719   6.214   5.271   2.618 -0.9074  0.7394  0.2106
  954MOL0     C28720   6.187   5.356   2.540 -0.5609  0.3681 -0.7967
  954MOL0     C28721   6.271   5.069   2.109 -0.6213 -0.2294  0.3633
  954MOL0     C28722   6.331   5.156   2.020  0.3504 -0.1032 -0.0505
  954MOL0     H28723   6.476   5.374   1.626 -0.4766 -0.0400  0.0439
  954MOL0     H28724   6.684   5.505   1.503  2.3206  2.6038  0.3853
  954MOL0     H28725   7.014   5.585   1.755 -0.9817  0.8430  1.5772
  954MOL0     H28726   7.061   5.684   1.619  1.7940 -0.4684  1.9995
  954MOL0     H28727   6.894   5.793   1.869 -0.6321  3.0185  0.0789
  954MOL0     H28728   7.044   5.854   1.797 -1.3986 -0.2349 -0.7931
  954MOL0     H28729   6.764   5.868   1.650 -0.5319  1.5274 -0.1453
  954MOL0     H28730   6.843   5.982   1.760  2.0640  1.9859 -2.0343
  954MOL0     H28731   7.051   5.977   1.590 -0.8752  0.6778  0.2995
  954MOL0     H28732   6.938   5.874   1.506 -1.3217 -2.4743  3.5893
  954MOL0     H28733   6.761   6.049   1.522  0.5097 -1.2299 -0.5991
  954MOL0     H28734   6.863   6.164   1.604  0.5684  1.4707 -1.1661
  954MOL0     H28735   6.998   6.206   1.410 -0.8868  0.6288  1.5965
  954MOL0     H28736   6.950   6.045   1.334  1.3079 -0.7056  1.1211
  954MOL0     H28737   6.721   6.158   1.295  1.5048 -1.5823 -0.4775
  954MOL0     H28738   6.786   6.305   1.369  0.1359  0.2315 -0.4064
  954MOL0     H28739   6.904   6.173   1.108 -1.3290 -2.4690  1.9412
  954MOL0     H28740   6.956   6.318   1.198 -1.5268  1.4075 -0.2046
  954MOL0     H28741   6.575   6.267   1.094  0.8738 -1.2140 -1.9572
  954MOL0     H28742   6.515   6.523   0.821  2.4187  0.3155 -0.2887
  954MOL0     H28743   6.475   6.357   0.853  2.2815 -0.0075  0.0829
  954MOL0     H28744   6.409   6.577   1.053  0.9557  2.4986 -4.0085
  954MOL0     H28745   6.388   6.398   1.093  0.0264  0.4437  0.7731
  954MOL0     H28746   6.282   6.464   0.831  0.3862  0.7071 -0.0547
  954MOL0     H28747   6.207   6.555   0.960  0.9170 -0.9797  2.0598
  954MOL0     H28748   6.102   6.335   0.897  2.6932 -1.8645 -2.9464
  954MOL0     H28749   6.158   6.360   1.069  2.1121  0.8779 -0.4477
  954MOL0     H28750   6.405   6.075   1.127 -0.8464  1.3684  0.8991
  954MOL0     H28751   6.288   5.786   1.308 -2.6167  2.2641 -0.0841
  954MOL0     H28752   6.406   5.746   1.171 -1.3496 -0.8781 -1.8651
  954MOL0     H28753   6.424   5.881   1.287 -0.2218 -2.0893  1.4064
  954MOL0     H28754   5.897   5.575   1.221  3.6086 -1.4998  0.2783
  954MOL0     H28755   5.737   5.401   1.231  0.0790  0.3993 -0.0045
  954MOL0     H28756   5.744   5.162   1.235 -2.6485  2.4038  1.8783
  954MOL0     H28757   5.577   5.195   1.195  1.2178  1.4332 -0.2984
  954MOL0     H28758   5.546   4.990   1.060 -1.6995 -1.5840  2.4154
  954MOL0     H28759   5.722   4.979   1.057  0.0142  2.0011  0.9483
  954MOL0     H28760   5.743   4.884   1.255 -0.5603  1.0023  0.6952
  954MOL0     H28761   5.583   4.822   1.209  0.4540 -0.9227 -0.9800
  954MOL0     H28762   5.647   5.051   1.394  1.2828 -1.1555 -0.2343
  954MOL0     H28763   5.477   5.021   1.338 -1.5807 -2.6650  2.4101
  954MOL0     H28764   5.537   4.935   1.587 -1.0374  2.3385 -1.2876
  954MOL0     H28765   5.648   4.834   1.508  1.0209  1.6979  0.5474
  954MOL0     H28766   5.341   4.855   1.451 -0.9405 -1.2588  0.1082
  954MOL0     H28767   5.436   4.731   1.391 -2.2502  2.3224 -2.7318
  954MOL0     H28768   5.389   4.776   1.692  2.1337 -0.4109 -0.4169
  954MOL0     H28769   5.511   4.673   1.631  1.1400  1.7372  3.1292
  954MOL0     H28770   5.278   4.554   1.684 -1.1010 -0.0093  0.8866
  954MOL0     H28771   5.324   4.541   1.509 -2.3883  1.5430 -3.0811
  954MOL0     H28772   5.840   5.274   0.829 -1.5869  0.2650 -0.3317
  954MOL0     H28773   5.974   5.479   0.808  0.6422  0.0421 -0.4098
  954MOL0     H28774   5.987   5.898   0.925  0.5914  0.3170 -1.0451
  954MOL0     H28775   6.047   6.124   0.902 -0.4129  3.2363  2.5148
  954MOL0     H28776   6.844   5.585   1.889  0.1398 -0.6720 -0.6674
  954MOL0     H28777   6.650   5.470   1.999 -2.3953 -2.1653 -0.0991
  954MOL0     H28778   6.177   5.438   2.152 -1.0589 -1.1541  3.0947
  954MOL0     H28779   6.075   5.275   2.275  0.7136  1.2952 -0.9833
  954MOL0     H28780   6.336   4.956   2.349 -0.2011  1.6271  0.1499
  954MOL0     H28781   6.290   5.107   2.419  0.5071  1.5702 -2.2974
  954MOL0     H28782   6.312   4.912   2.582  0.5541 -1.1466 -2.3825
  954MOL0     H28783   6.175   4.846   2.506  0.4487  1.5557 -3.2207
  954MOL0     H28784   6.101   4.973   2.706 -1.4883 -0.2611 -0.9627
  954MOL0     H28785   6.055   5.073   2.564  1.3555  1.2317  0.6296
  954MOL0     H28786   6.330   5.105   2.672 -0.6332 -1.6712 -1.5157
  954MOL0     H28787   6.211   5.155   2.790  0.9442 -0.8950  0.3827
  954MOL0     H28788   6.168   5.428   2.463  0.0318  1.3745 -0.0312
  954MOL0     H28789   6.301   4.965   2.114  5.6937  1.1962  0.8081
  954MOL0     H28790   6.410   5.115   1.958  3.1033 -1.3237  3.8690
  955MOL0     O28791  11.472   4.348   0.850 -0.9958  0.0673 -0.2333
  955MOL0     C28792  11.405   4.430   0.913 -0.6651 -0.0969  1.4216
  955MOL0     O28793  11.299   4.509   0.866 -0.3145 -0.2202 -0.6827
  955MOL0     C28794  11.241   4.479   0.747  0.0144  0.0216  0.2475
  955MOL0     C28795  11.220   4.346   0.692 -0.2604 -0.8611 -0.1153
  955MOL0     C28796  11.140   4.333   0.580  0.3188  0.1278  0.5257
  955MOL0     C28797  11.072   4.439   0.514  0.3669 -0.7760  0.7735
  955MOL0     O28798  11.006   4.414   0.399  0.1310  0.4061 -0.2304
  955MOL0     C28799  10.872   4.358   0.402 -1.2969 -0.3042  0.4590
  955MOL0     C28800  10.788   4.430   0.283 -0.4644 -0.3283  0.1701
  955MOL0     C28801  10.841   4.573   0.253  0.6576  0.7474 -0.5071
  955MOL0     C28802  10.741   4.643   0.162  0.1065 -0.4715  0.2523
  955MOL0     C28803  10.763   4.595   0.015 -0.1742 -0.9483 -0.5720
  955MOL0     C28804  10.684   4.688  -0.087 -0.2688 -0.0310 -0.0659
  955MOL0     C28805  10.736   4.669  -0.233 -0.2963 -0.6955 -0.2766
  955MOL0     C28806  10.828   4.784  -0.274  0.4219  0.4391  0.3439
  955MOL0     N28807  10.850   4.762  -0.423 -0.1426  1.6241  1.1719
  955MOL0     C28808  10.959   4.686  -0.478 -0.6966 -0.4705  0.7105
  955MOL0     C28809  10.948   4.710  -0.608 -1.4903  1.1619 -0.5326
  955MOL0     C28810  11.052   4.629  -0.694 -0.0473 -1.5117 -0.3131
  955MOL0     C28811  11.149   4.732  -0.763 -0.2972  0.0448  0.1831
  955MOL0     C28812  11.226   4.669  -0.879 -0.2533  0.5258 -0.5165
  955MOL0     C28813  11.350   4.583  -0.844  0.0375  0.5431  0.8216
  955MOL0     O28814  11.304   4.461  -0.786 -0.5878  0.3816 -0.4664
  955MOL0     C28815  11.255   4.357  -0.864 -0.0436  0.5550  0.5583
  955MOL0     C28816  11.215   4.236  -0.807  0.1422  0.6163 -0.8644
  955MOL0     C28817  11.171   4.128  -0.874  0.2084  0.0672  0.6048
  955MOL0     C28818  11.124   4.005  -0.792  0.6434 -0.7754 -0.0679
  955MOL0     C28819  11.148   4.134  -1.006  0.4897 -0.2397  0.5472
  955MOL0     C28820  11.055   4.039  -1.080  0.2942  0.6624 -0.3562
  955MOL0     O28821  11.076   4.028  -1.214  0.9584 -0.7407  0.1774
  955MOL0     C28822  11.025   3.922  -1.271  0.3205  0.2956  0.1319
  955MOL0     C28823  10.909   3.936  -1.349 -0.1238  0.4896  0.2346
  955MOL0     C28824  10.853   3.832  -1.424 -0.4626  0.7707 -0.0308
  955MOL0     C28825  10.918   3.694  -1.417  0.7777 -0.3705  0.4548
  955MOL0     O28826  10.878   3.585  -1.489 -0.3232 -0.1159 -0.7987
  955MOL0     C28827  10.784   3.605  -1.592 -0.0855  0.4388 -0.1735
  955MOL0     C28828  10.743   3.464  -1.640 -0.9685 -0.4473 -0.3086
  955MOL0     C28829  10.661   3.393  -1.536  1.0983 -0.7895  0.1067
  955MOL0     C28830  10.593   3.271  -1.608  0.2774  0.4405 -0.1079
  955MOL0     C28831  10.553   3.157  -1.516  1.0315 -0.4028 -0.6247
  955MOL0     C28832  10.443   3.066  -1.572  0.2342 -1.3119 -0.6091
  955MOL0     C28833  10.489   3.005  -1.704  0.0888  0.7999  1.8916
  955MOL0     C28834  10.485   2.861  -1.696 -0.5267  0.2825  0.7561
  955MOL0    Cl28835  10.515   2.783  -1.864 -0.2552 -0.5357  0.2390
  955MOL0     C28836  11.032   3.682  -1.332 -0.3525 -0.3238  0.4131
  955MOL0     C28837  11.080   3.800  -1.260 -0.7062 -0.3971  0.3785
  955MOL0     O28838  10.952   4.013  -1.021 -0.1030  0.3653  0.3392
  955MOL0     C28839  11.203   4.247  -1.072 -0.1857  0.1612 -0.3190
  955MOL0     C28840  11.263   4.356  -1.004  0.2328 -0.6645 -0.2780
  955MOL0     N28841  10.852   4.809  -0.635  0.4185  0.1625 -0.4269
  955MOL0     N28842  10.786   4.829  -0.525  0.4387  1.0677 -0.4562
  955MOL0     C28843  11.096   4.566   0.561 -0.4119 -0.1705  0.3115
  955MOL0     C28844  11.176   4.582   0.680 -0.6752 -0.8837 -0.5173
  955MOL0     C28845  11.469   4.465   1.048 -0.4792 -0.1435  0.6063
  955MOL0     C28846  11.414   4.561   1.127  0.4088 -0.6060 -0.6265
  955MOL0     C28847  11.454   4.574   1.258 -0.5857 -0.8866 -0.2608
  955MOL0     C28848  11.563   4.506   1.308 -0.1023  0.6182  0.9244
  955MOL0     O28849  11.608   4.503   1.442  0.1917 -0.0979  0.1218
  955MOL0     C28850  11.636   4.629   1.509  0.2300 -0.1936 -0.5615
  955MOL0     C28851  11.665   4.605   1.658  0.1724  0.1207 -0.3052
  955MOL0     C28852  11.744   4.706   1.716 -0.2947  0.7831  0.0844
  955MOL0     C28853  11.713   4.852   1.686  1.1952 -0.9522 -0.5866
  955MOL0     C28854  11.589   4.897   1.759  0.0051  0.3519 -0.3016
  955MOL0     C28855  11.496   4.934   1.828  0.5462  1.7614 -0.2824
  955MOL0     C28856  11.632   4.422   1.219  0.1278  0.2374  0.0511
  955MOL0     C28857  11.590   4.400   1.089 -0.9937 -1.5196 -0.0730
  955MOL0     H28858  11.262   4.261   0.744 -0.0785 -0.1119  0.9907
  955MOL0     H28859  11.116   4.239   0.532  3.0057  0.0648 -0.8439
  955MOL0     H28860  10.873   4.250   0.384  0.8556 -0.2128 -0.2796
  955MOL0     H28861  10.822   4.370   0.498 -1.4543  0.2083  0.3159
  955MOL0     H28862  10.798   4.371   0.191 -1.8779 -2.4607  1.3042
  955MOL0     H28863  10.682   4.419   0.307 -1.1829 -1.2962 -2.9136
  955MOL0     H28864  10.832   4.628   0.347  0.0318  0.4104 -0.3668
  955MOL0     H28865  10.945   4.573   0.218  0.6572  2.6218 -0.6204
  955MOL0     H28866  10.636   4.616   0.182  0.1599 -3.6730 -2.8527
  955MOL0     H28867  10.758   4.751   0.173  0.0636 -0.6266  2.2361
  955MOL0     H28868  10.870   4.589  -0.007  0.2006 -2.5257  1.4139
  955MOL0     H28869  10.722   4.497  -0.008 -0.3703 -0.9878 -0.0605
  955MOL0     H28870  10.576   4.681  -0.079 -0.4958  2.3479 -0.1688
  955MOL0     H28871  10.702   4.793  -0.060 -4.7549  0.9117  0.0529
  955MOL0     H28872  10.785   4.571  -0.231  0.0827 -0.5145  1.6951
  955MOL0     H28873  10.655   4.666  -0.307 -1.9634  3.6810  0.9958
  955MOL0     H28874  10.920   4.777  -0.215  0.5878 -2.2026 -0.1053
  955MOL0     H28875  10.783   4.883  -0.259 -2.4340 -0.3538 -1.9786
  955MOL0     H28876  11.020   4.621  -0.416  1.3328  1.3153  0.7049
  955MOL0     H28877  11.132   4.569  -0.650  4.4378  2.4772 -2.1177
  955MOL0     H28878  10.995   4.560  -0.758  0.9751 -4.2753  1.5628
  955MOL0     H28879  11.221   4.756  -0.685  0.1397 -0.1634 -0.1515
  955MOL0     H28880  11.091   4.820  -0.794 -2.8883 -1.2428  1.0817
  955MOL0     H28881  11.260   4.747  -0.947 -0.3598  1.6078  0.6539
  955MOL0     H28882  11.154   4.601  -0.928 -0.0264 -0.1512  0.0730
  955MOL0     H28883  11.412   4.640  -0.775 -1.6314 -0.3019  3.1253
  955MOL0     H28884  11.410   4.552  -0.931  5.5619 -0.6181  4.5308
  955MOL0     H28885  11.225   4.222  -0.700 -0.7300 -0.8321 -0.9463
  955MOL0     H28886  11.146   4.016  -0.685 -0.3432 -1.1047  0.1705
  955MOL0     H28887  11.017   3.987  -0.795  0.8502 -1.9689 -2.2435
  955MOL0     H28888  11.170   3.909  -0.815  0.8394 -0.6277 -0.2982
  955MOL0     H28889  10.870   4.037  -1.356  0.7486  0.8586  0.4980
  955MOL0     H28890  10.767   3.846  -1.488 -0.8999 -0.7214  0.1786
  955MOL0     H28891  10.692   3.659  -1.568 -0.7863 -0.8537  0.1583
  955MOL0     H28892  10.833   3.651  -1.678 -1.3363  2.2366  0.0179
  955MOL0     H28893  10.687   3.471  -1.734  2.5184  1.6441 -2.4200
  955MOL0     H28894  10.832   3.407  -1.667 -1.3528  0.1250 -3.0801
  955MOL0     H28895  10.584   3.458  -1.494  0.3083 -1.1880 -0.6915
  955MOL0     H28896  10.742   3.367  -1.466  2.2602 -0.8312 -1.1942
  955MOL0     H28897  10.507   3.299  -1.670 -1.3451 -0.2835  1.7324
  955MOL0     H28898  10.665   3.225  -1.677  0.2519  1.4261 -0.8262
  955MOL0     H28899  10.529   3.206  -1.420  0.5561  0.0218 -0.9519
  955MOL0     H28900  10.633   3.086  -1.492 -0.0124 -0.8512  1.8134
  955MOL0     H28901  10.422   2.987  -1.500  2.7989 -1.0153  0.6015
  955MOL0     H28902  10.351   3.125  -1.578  0.4567 -0.2465  3.4701
  955MOL0     H28903  10.586   3.039  -1.743 -1.2594 -1.0698 -4.0812
  955MOL0     H28904  10.421   3.031  -1.785  1.9540 -1.6143 -0.6090
  955MOL0     H28905  10.402   2.826  -1.634 -0.1233  0.5470  1.4658
  955MOL0     H28906  10.575   2.842  -1.636  0.2600 -3.7340 -1.3552
  955MOL0     H28907  11.079   3.584  -1.330  0.5342 -0.0396 -2.1799
  955MOL0     H28908  11.162   3.790  -1.189  2.9654  3.4313 -2.8126
  955MOL0     H28909  11.162   4.258  -1.172 -1.9500 -0.3376  0.3060
  955MOL0     H28910  11.281   4.445  -1.063  0.0255 -0.6112 -0.2597
  955MOL0     H28911  11.067   4.663   0.523  1.9610  0.5545  0.2091
  955MOL0     H28912  11.208   4.681   0.713 -0.3648 -1.3905  0.7472
  955MOL0     H28913  11.331   4.619   1.089  0.7466 -0.1291 -0.6351
  955MOL0     H28914  11.402   4.638   1.329 -1.8057 -2.5805  0.4229
  955MOL0     H28915  11.731   4.663   1.467  2.0834 -1.2976  2.4675
  955MOL0     H28916  11.569   4.714   1.490 -0.2772 -0.8167 -1.6610
  955MOL0     H28917  11.707   4.506   1.679  1.2319  1.3181  4.1320
  955MOL0     H28918  11.571   4.601   1.714  1.3988  3.2514  2.2683
  955MOL0     H28919  11.850   4.694   1.694  0.0528  1.4008  1.3025
  955MOL0     H28920  11.733   4.679   1.822 -1.0072 -1.5650 -0.5300
  955MOL0     H28921  11.702   4.880   1.580  0.7605  0.9318 -0.0932
  955MOL0     H28922  11.801   4.911   1.716 -0.7974  0.4497  3.1907
  955MOL0     H28923  11.431   4.992   1.890  1.5422  1.4286  1.1501
  955MOL0     H28924  11.714   4.360   1.255 -0.3077  0.6290  1.8031
  955MOL0     H28925  11.652   4.336   1.028 -1.7229 -2.8610  0.5631
  956MOL0     O28926   9.891   9.084   5.926 -1.1975 -0.2624  0.7045
  956MOL0     C28927   9.828   9.175   5.979  0.1607 -1.0565 -1.6805
  956MOL0     O28928   9.747   9.269   5.916 -0.2659  0.9285 -0.0938
  956MOL0     C28929   9.791   9.295   5.787 -0.1361  0.9380 -0.0969
  956MOL0     C28930   9.917   9.347   5.767 -0.7007 -0.9658 -0.1204
  956MOL0     C28931   9.951   9.376   5.633 -0.0858 -0.4876 -0.7778
  956MOL0     C28932   9.872   9.346   5.524 -0.4095  0.1931 -0.6486
  956MOL0     O28933   9.904   9.353   5.385 -0.0391 -0.6700 -0.4645
  956MOL0     C28934  10.033   9.386   5.349 -1.2183  0.9876 -0.1822
  956MOL0     C28935  10.125   9.264   5.338  0.8473 -0.0100  0.2226
  956MOL0     C28936  10.268   9.293   5.269  0.3293 -0.4930 -0.3092
  956MOL0     C28937  10.338   9.168   5.234  0.4164 -0.5317 -0.7918
  956MOL0     C28938  10.486   9.195   5.216  0.3114 -0.3676  0.0074
  956MOL0     C28939  10.553   9.057   5.198  0.1943 -0.1929  0.3172
  956MOL0     C28940  10.691   9.089   5.146  0.1419  0.1673 -0.0795
  956MOL0     C28941  10.777   8.961   5.119 -0.1199  0.8921 -0.3698
  956MOL0     N28942  10.821   8.885   5.240 -0.1182  0.3611 -0.2630
  956MOL0     C28943  10.788   8.750   5.261 -0.5064 -0.6501  0.2175
  956MOL0     C28944  10.883   8.711   5.347 -0.0128  0.1288 -0.1415
  956MOL0     C28945  10.889   8.574   5.422  0.0721 -0.3093  0.5578
  956MOL0     C28946  10.751   8.550   5.480 -0.2496  0.1353 -0.5147
  956MOL0     C28947  10.729   8.405   5.513  0.2710 -0.4266 -0.2729
  956MOL0     C28948  10.625   8.340   5.415  0.5005  0.6424 -0.7601
  956MOL0     O28949  10.501   8.401   5.432  0.1668 -0.0133  0.1741
  956MOL0     C28950  10.394   8.408   5.346 -0.3760  0.1671  0.0543
  956MOL0     C28951  10.398   8.349   5.213 -0.0097 -0.9956  0.3241
  956MOL0     C28952  10.291   8.326   5.127  0.0163 -0.3400 -0.3689
  956MOL0     C28953  10.315   8.260   4.997 -0.6388 -0.3074  1.2282
  956MOL0     C28954  10.162   8.368   5.172  0.1257 -0.6445 -0.2333
  956MOL0     C28955  10.036   8.343   5.098  0.8278 -0.7042 -0.5553
  956MOL0     O28956   9.919   8.356   5.185 -0.3467 -0.6150  0.2490
  956MOL0     C28957   9.792   8.360   5.133 -1.0559 -0.5958  0.2650
  956MOL0     C28958   9.685   8.329   5.220  0.2291  0.0618  0.7965
  956MOL0     C28959   9.552   8.308   5.184 -0.1867  0.3771  0.2257
  956MOL0     C28960   9.521   8.347   5.052  0.4550 -0.6614  0.5489
  956MOL0     O28961   9.392   8.347   5.027  0.7204 -0.1370 -0.1165
  956MOL0     C28962   9.352   8.305   4.889  0.9055  0.6319  0.1532
  956MOL0     C28963   9.238   8.393   4.847 -0.2601 -0.1692 -0.7590
  956MOL0     C28964   9.212   8.404   4.702 -0.2244 -0.4509 -0.4013
  956MOL0     C28965   9.307   8.514   4.646 -0.4889 -0.6731 -0.8654
  956MOL0     C28966   9.249   8.584   4.523  1.1270 -0.3653  0.5578
  956MOL0     C28967   9.280   8.509   4.390 -0.1847 -0.7776 -0.8192
  956MOL0     C28968   9.203   8.577   4.274 -0.0248 -0.1264  0.9319
  956MOL0     C28969   9.231   8.513   4.136  0.7043 -0.2005 -0.6396
  956MOL0    Cl28970   9.379   8.585   4.074  0.1280  0.3592  0.4577
  956MOL0     C28971   9.617   8.402   4.965 -0.8216  0.5176  0.3803
  956MOL0     C28972   9.751   8.400   5.003 -0.8270  0.9996 -0.3162
  956MOL0     O28973  10.029   8.324   4.977  0.0212  0.6103  0.1294
  956MOL0     C28974  10.154   8.422   5.301  0.3970 -0.4522  0.7563
  956MOL0     C28975  10.264   8.449   5.382 -0.1696  0.8242 -0.1339
  956MOL0     N28976  10.981   8.803   5.356  0.0069  0.4050  0.3322
  956MOL0     N28977  10.942   8.918   5.300  0.5635  0.8691 -0.5962
  956MOL0     C28978   9.748   9.291   5.542  0.7610  0.1576 -0.4735
  956MOL0     C28979   9.708   9.268   5.675  1.1269 -0.2484  0.3788
  956MOL0     C28980   9.865   9.210   6.122  0.4767 -0.2278  0.7102
  956MOL0     C28981   9.869   9.343   6.167 -0.3579  0.2743 -1.0322
  956MOL0     C28982   9.889   9.375   6.306 -0.1508 -1.2842  0.1522
  956MOL0     C28983   9.914   9.282   6.401 -0.3627  0.8023  0.4262
  956MOL0     O28984   9.939   9.320   6.522  0.0005  0.4133 -0.9394
  956MOL0     C28985   9.903   9.453   6.572  0.5274 -0.2921  0.2464
  956MOL0     C28986   9.755   9.480   6.587  0.7930  0.6228 -0.4721
  956MOL0     C28987   9.727   9.628   6.635  0.0215  0.6992  0.8722
  956MOL0     C28988   9.786   9.653   6.777  0.1670  0.4826  0.0117
  956MOL0     C28989   9.823   9.789   6.763 -1.0123  0.5514 -0.6092
  956MOL0     C28990   9.852   9.904   6.756 -0.3127  0.2227  0.1383
  956MOL0     C28991   9.906   9.147   6.358 -0.0244  0.5162 -0.5330
  956MOL0     C28992   9.885   9.109   6.217  0.2809  0.7222 -0.2634
  956MOL0     H28993   9.985   9.375   5.847  1.0963  5.9898 -3.3059
  956MOL0     H28994  10.043   9.432   5.624 -0.6395  0.2986 -1.6870
  956MOL0     H28995  10.031   9.416   5.244  0.2675 -0.5945 -0.7094
  956MOL0     H28996  10.068   9.471   5.408  2.0134 -0.3046 -0.0132
  956MOL0     H28997  10.152   9.226   5.437  1.6229  2.0783  0.8689
  956MOL0     H28998  10.079   9.182   5.283 -0.1587  1.5930 -1.4701
  956MOL0     H28999  10.249   9.358   5.183 -0.5969  4.1918  3.0278
  956MOL0     H29000  10.322   9.354   5.343 -0.8099 -1.3280  1.2786
  956MOL0     H29001  10.326   9.100   5.319  1.0617 -0.1690 -0.4073
  956MOL0     H29002  10.294   9.108   5.153  1.4853 -0.0623 -1.7447
  956MOL0     H29003  10.510   9.270   5.139  0.2578  1.7029  1.8991
  956MOL0     H29004  10.526   9.240   5.307 -0.4514 -0.1063  0.2207
  956MOL0     H29005  10.576   8.997   5.287 -0.2588  0.1192  0.6522
  956MOL0     H29006  10.499   8.999   5.123  0.9930 -2.0366  1.1203
  956MOL0     H29007  10.682   9.136   5.048  1.3473  0.6423  0.0222
  956MOL0     H29008  10.742   9.171   5.197 -1.3341  1.5969 -0.8378
  956MOL0     H29009  10.866   8.996   5.066 -0.4371  3.2066  0.5219
  956MOL0     H29010  10.715   8.891   5.062 -0.7253  0.4421  0.8021
  956MOL0     H29011  10.702   8.702   5.216 -0.8716  1.6728 -1.7485
  956MOL0     H29012  10.917   8.503   5.344 -0.3468  0.6171 -0.4720
  956MOL0     H29013  10.963   8.584   5.502  1.2134  3.1955 -0.7310
  956MOL0     H29014  10.685   8.578   5.399  1.1394  1.3731 -1.2682
  956MOL0     H29015  10.726   8.620   5.561  1.5986  2.1927 -1.6136
  956MOL0     H29016  10.702   8.391   5.619 -0.9823  0.9694 -0.3795
  956MOL0     H29017  10.824   8.353   5.501 -0.9383 -2.3960 -2.1274
  956MOL0     H29018  10.611   8.236   5.447 -1.4895  1.9556  3.2750
  956MOL0     H29019  10.665   8.329   5.313  2.3668  1.7993 -0.2159
  956MOL0     H29020  10.489   8.325   5.159  0.7512  1.4111  0.4060
  956MOL0     H29021  10.260   8.317   4.921 -0.3441 -3.0694 -1.2548
  956MOL0     H29022  10.421   8.262   4.967 -1.1455  2.1573 -0.7459
  956MOL0     H29023  10.277   8.158   4.991 -0.9330 -0.1605  0.4817
  956MOL0     H29024   9.705   8.307   5.325 -0.3196 -0.4903  0.7921
  956MOL0     H29025   9.481   8.286   5.263  0.9356 -0.9560  0.9111
  956MOL0     H29026   9.436   8.323   4.822  0.1067 -1.1685 -1.4182
  956MOL0     H29027   9.316   8.202   4.879 -0.5578  1.2864 -2.0322
  956MOL0     H29028   9.157   8.330   4.887  0.3268 -1.0459 -0.9190
  956MOL0     H29029   9.228   8.487   4.901 -0.0076 -0.8149  0.4326
  956MOL0     H29030   9.105   8.427   4.691  0.1363  3.0939  2.0093
  956MOL0     H29031   9.221   8.309   4.649  0.5263 -1.6570  1.7693
  956MOL0     H29032   9.324   8.594   4.718 -0.1509 -0.1565 -1.5002
  956MOL0     H29033   9.411   8.481   4.634  0.8605  1.9251  2.3852
  956MOL0     H29034   9.282   8.688   4.510 -0.6205  0.2718  0.9721
  956MOL0     H29035   9.142   8.596   4.540  1.4358  2.7405  1.0028
  956MOL0     H29036   9.389   8.509   4.384 -0.2200  0.7756 -2.1897
  956MOL0     H29037   9.236   8.410   4.405  1.8746 -1.3354  2.8584
  956MOL0     H29038   9.225   8.684   4.268 -0.9704  0.0913  1.2178
  956MOL0     H29039   9.096   8.564   4.293 -0.4015 -1.7371 -1.8337
  956MOL0     H29040   9.145   8.519   4.068  1.2129 -0.0269 -1.2817
  956MOL0     H29041   9.241   8.404   4.140  0.2216 -0.2249  2.9543
  956MOL0     H29042   9.595   8.447   4.869 -0.0721  4.2399  1.8067
  956MOL0     H29043   9.817   8.428   4.921 -0.7276 -0.6261 -0.8251
  956MOL0     H29044  10.055   8.449   5.338 -0.8023  0.3214 -2.6976
  956MOL0     H29045  10.231   8.485   5.479  2.6070  4.2943 -0.2936
  956MOL0     H29046   9.686   9.254   5.461  0.9555 -1.2589  0.0053
  956MOL0     H29047   9.620   9.219   5.715 -0.3473  1.8817 -0.0934
  956MOL0     H29048   9.854   9.423   6.095 -2.1788  1.9901  1.1351
  956MOL0     H29049   9.889   9.483   6.318 -0.8441 -0.8457 -2.8724
  956MOL0     H29050   9.943   9.451   6.674  3.2731 -1.6609 -0.7788
  956MOL0     H29051   9.958   9.530   6.517  2.6513  0.4070  3.1122
  956MOL0     H29052   9.705   9.408   6.653  0.2220  0.0612 -1.4986
  956MOL0     H29053   9.718   9.471   6.485  1.3904  1.4642 -0.7761
  956MOL0     H29054   9.622   9.657   6.632  0.4316  2.2601  0.8684
  956MOL0     H29055   9.789   9.679   6.560  0.7141  2.6204  2.6532
  956MOL0     H29056   9.878   9.600   6.801  0.5443  1.2505  0.2784
  956MOL0     H29057   9.702   9.635   6.845  0.0021 -2.3911 -0.8045
  956MOL0     H29058   9.878  10.007   6.750 -0.8170  0.2567 -2.1386
  956MOL0     H29059   9.901   9.062   6.424 -1.2697  1.7278  1.0302
  956MOL0     H29060   9.877   9.004   6.194  1.4871 -0.1460  2.7371
  957MOL0     O29061   5.344   7.899   2.917  0.2945  1.3238  0.6609
  957MOL0     C29062   5.341   7.837   2.811 -0.6699  0.0009  0.5274
  957MOL0     O29063   5.239   7.835   2.726 -0.4473 -0.5501 -0.6870
  957MOL0     C29064   5.125   7.921   2.738 -0.3666 -0.1904  0.2218
  957MOL0     C29065   5.007   7.869   2.694 -0.9428 -0.2708 -1.1945
  957MOL0     C29066   4.888   7.937   2.710 -0.9244 -0.1345 -0.3015
  957MOL0     C29067   4.899   8.067   2.761  0.9005  0.6468  0.1835
  957MOL0     O29068   4.788   8.148   2.778  0.5301  0.2379  0.6829
  957MOL0     C29069   4.656   8.084   2.791 -0.8425  0.2494 -0.2117
  957MOL0     C29070   4.556   8.175   2.869  0.7640  0.3057  0.2053
  957MOL0     C29071   4.513   8.290   2.785  0.4290 -0.4833 -0.7676
  957MOL0     C29072   4.370   8.325   2.818  0.3552 -0.7574 -0.3392
  957MOL0     C29073   4.307   8.428   2.725  0.0525 -1.5239  0.5426
  957MOL0     C29074   4.159   8.449   2.757  0.0490 -0.1164 -0.2164
  957MOL0     C29075   4.099   8.565   2.678 -0.7296  0.4953 -0.0910
  957MOL0     C29076   3.964   8.597   2.728 -0.0212 -0.5414 -1.3943
  957MOL0     N29077   3.937   8.731   2.675  0.1963 -0.7400 -0.0429
  957MOL0     C29078   3.832   8.778   2.587 -0.7135 -0.3493  0.0237
  957MOL0     C29079   3.833   8.914   2.609  0.4621 -0.0164  0.3763
  957MOL0     C29080   3.751   9.016   2.531  0.4166 -0.6435 -0.2522
  957MOL0     C29081   3.611   9.032   2.589 -0.0990 -1.0909 -0.2942
  957MOL0     C29082   3.602   9.098   2.727  0.7351 -0.6651 -0.1327
  957MOL0     C29083   3.455   9.138   2.778 -1.3075  0.9038 -0.8425
  957MOL0     O29084   3.372   9.025   2.797  0.7503 -0.4495 -0.7822
  957MOL0     C29085   3.239   9.058   2.816 -0.0726  0.5548 -0.6807
  957MOL0     C29086   3.151   8.968   2.756  0.7148  0.0993  0.3064
  957MOL0     C29087   3.010   8.986   2.777  0.1498 -0.5382 -0.6174
  957MOL0     C29088   2.922   8.874   2.718 -0.1631  0.1630 -0.6175
  957MOL0     C29089   2.977   9.099   2.853  0.7538  0.3352  0.2885
  957MOL0     C29090   2.828   9.124   2.882  0.7493 -0.1372 -0.3367
  957MOL0     O29091   2.776   9.246   2.865  0.3670 -0.5969  0.6128
  957MOL0     C29092   2.642   9.254   2.888  0.5713  0.4169 -1.1431
  957MOL0     C29093   2.594   9.274   3.022  0.3336 -0.0785 -0.2340
  957MOL0     C29094   2.455   9.273   3.064  0.4425 -0.0607  0.5747
  957MOL0     C29095   2.361   9.259   2.964 -0.3297 -0.8070  0.3555
  957MOL0     O29096   2.228   9.276   2.998 -0.2560 -0.1221 -0.7109
  957MOL0     C29097   2.179   9.216   3.120  0.5712  0.1757 -0.5273
  957MOL0     C29098   2.027   9.242   3.136  0.5849  0.8366 -0.3210
  957MOL0     C29099   1.942   9.175   3.028 -0.0980 -0.4386 -0.6686
  957MOL0     C29100   1.989   9.057   2.943 -0.4227 -0.8991 -0.3811
  957MOL0     C29101   1.906   9.035   2.821 -0.2433  0.0511  0.2646
  957MOL0     C29102   1.955   8.917   2.748  0.1021  0.7734 -0.2837
  957MOL0     C29103   1.905   8.915   2.600  0.4804  0.3119  0.5149
  957MOL0     C29104   1.762   8.872   2.576 -0.1624 -0.1354  0.1592
  957MOL0    Cl29105   1.761   8.886   2.389  0.2356 -0.0634 -0.0491
  957MOL0     C29106   2.402   9.237   2.832 -0.4082  0.3092 -0.4483
  957MOL0     C29107   2.543   9.226   2.796  0.2595 -0.8062  0.3617
  957MOL0     O29108   2.767   9.024   2.922 -0.4486 -0.1713  0.7561
  957MOL0     C29109   3.065   9.183   2.909  0.5085  0.7283  0.3222
  957MOL0     C29110   3.200   9.162   2.896  0.2378  0.2349 -0.1785
  957MOL0     N29111   3.929   8.949   2.702 -0.2927  0.2034  0.2709
  957MOL0     N29112   3.983   8.847   2.743 -0.0233  0.4461  0.3469
  957MOL0     C29113   5.019   8.125   2.798 -0.9239 -0.2090  0.3639
  957MOL0     C29114   5.141   8.059   2.791  0.9674 -0.0641 -0.0294
  957MOL0     C29115   5.471   7.774   2.776  0.2276  0.2730  0.7039
  957MOL0     C29116   5.588   7.799   2.851  0.4768 -0.3646 -0.2544
  957MOL0     C29117   5.710   7.748   2.810  0.7025 -0.0756 -1.4800
  957MOL0     C29118   5.723   7.652   2.701 -0.1083 -0.5972 -0.5100
  957MOL0     O29119   5.848   7.598   2.662 -0.0677 -0.9136  0.0017
  957MOL0     C29120   5.860   7.460   2.659 -0.2530 -0.6131  0.3214
  957MOL0     C29121   5.885   7.403   2.805  0.2865  0.2088  0.3691
  957MOL0     C29122   6.004   7.474   2.875  1.2690  0.1393  0.9633
  957MOL0     C29123   6.148   7.484   2.800 -0.6065 -0.1079  0.9588
  957MOL0     C29124   6.258   7.534   2.889  0.0766 -0.2780 -0.1847
  957MOL0     C29125   6.338   7.581   2.969  0.6573 -0.5266  0.1788
  957MOL0     C29126   5.607   7.631   2.631  0.1049  0.3780  0.2404
  957MOL0     C29127   5.489   7.696   2.663 -0.2737  0.4050 -0.4408
  957MOL0     H29128   5.018   7.770   2.652 -0.8305 -0.8613  0.1591
  957MOL0     H29129   4.798   7.895   2.667 -1.4646  0.4809  0.1975
  957MOL0     H29130   4.625   8.044   2.693 -0.0633  0.0732 -0.3967
  957MOL0     H29131   4.681   7.998   2.854  2.7893  1.6288  0.4857
  957MOL0     H29132   4.474   8.107   2.896 -1.7031  1.8493 -2.7102
  957MOL0     H29133   4.601   8.206   2.963  2.4386 -1.5527  0.0884
  957MOL0     H29134   4.585   8.371   2.796 -2.0626  1.6471  1.3129
  957MOL0     H29135   4.517   8.262   2.680  1.3291 -2.7168 -0.1908
  957MOL0     H29136   4.308   8.236   2.828  1.6378 -1.6902 -0.5039
  957MOL0     H29137   4.356   8.376   2.914 -3.8921 -1.5437 -0.3507
  957MOL0     H29138   4.360   8.524   2.729 -1.5268 -0.5975  0.1931
  957MOL0     H29139   4.310   8.400   2.619 -0.2169  1.1608 -0.2446
  957MOL0     H29140   4.100   8.361   2.730 -2.4599  1.1678  0.7421
  957MOL0     H29141   4.148   8.462   2.865  3.1252  0.5877  0.1004
  957MOL0     H29142   4.169   8.645   2.703 -0.8166  0.3715  0.5656
  957MOL0     H29143   4.084   8.539   2.573 -0.0935 -2.3304  0.4578
  957MOL0     H29144   3.969   8.586   2.837  1.0448  1.6585 -1.1521
  957MOL0     H29145   3.885   8.537   2.681 -0.8874  0.2431 -0.9658
  957MOL0     H29146   3.778   8.713   2.519 -0.4251 -0.2696 -0.2838
  957MOL0     H29147   3.793   9.116   2.543  0.5804 -0.9115  1.7514
  957MOL0     H29148   3.751   8.988   2.425  2.4170  2.7091 -1.2918
  957MOL0     H29149   3.565   8.934   2.600 -2.0310 -0.5654 -2.6975
  957MOL0     H29150   3.545   9.076   2.514  0.4131  1.6762  0.7575
  957MOL0     H29151   3.643   9.199   2.729 -0.6948  0.0020 -1.7943
  957MOL0     H29152   3.658   9.036   2.798  2.4129 -1.1775 -1.7968
  957MOL0     H29153   3.401   9.202   2.708 -0.8312  2.2914  0.0315
  957MOL0     H29154   3.474   9.187   2.874  1.9293 -3.0272  0.8877
  957MOL0     H29155   3.191   8.878   2.709 -0.0775  1.9304 -4.4780
  957MOL0     H29156   2.819   8.911   2.709  0.1343  0.6030 -2.4790
  957MOL0     H29157   2.958   8.843   2.620  1.8564 -1.7730  0.6472
  957MOL0     H29158   2.928   8.785   2.782  0.2613  0.5998 -0.0469
  957MOL0     H29159   2.667   9.285   3.102 -0.5964 -0.4298  0.6976
  957MOL0     H29160   2.421   9.298   3.164  0.6588 -1.8967  1.1472
  957MOL0     H29161   2.212   9.112   3.122  1.6445  0.5158  0.4326
  957MOL0     H29162   2.223   9.264   3.208  0.5455  1.7125 -1.3161
  957MOL0     H29163   1.982   9.226   3.235 -0.4829  5.2855  0.0950
  957MOL0     H29164   2.017   9.347   3.108 -2.1257  0.1846 -2.2230
  957MOL0     H29165   1.922   9.258   2.961  0.3803  1.0591  0.9606
  957MOL0     H29166   1.851   9.147   3.081  3.0757 -2.2133  4.6629
  957MOL0     H29167   2.090   9.082   2.909 -0.2538 -0.9307  0.0928
  957MOL0     H29168   2.000   8.966   3.003 -1.2258 -0.8409 -0.1348
  957MOL0     H29169   1.926   9.122   2.758 -0.7139  0.5391  0.7817
  957MOL0     H29170   1.802   9.032   2.854 -1.2112  1.9831 -2.3144
  957MOL0     H29171   2.064   8.910   2.734  0.2457 -3.3525  1.5245
  957MOL0     H29172   1.914   8.825   2.790  1.0282 -0.1433 -1.3186
  957MOL0     H29173   1.982   8.876   2.532  0.4055 -1.2511  1.2799
  957MOL0     H29174   1.894   9.017   2.562  2.2775  1.6218  3.1763
  957MOL0     H29175   1.689   8.937   2.626 -1.3715 -1.3099 -0.0233
  957MOL0     H29176   1.738   8.769   2.604 -1.9000  0.3650  0.6132
  957MOL0     H29177   2.331   9.214   2.753 -0.3546 -2.9021  0.3236
  957MOL0     H29178   2.577   9.181   2.704  2.4659 -0.3714  0.8920
  957MOL0     H29179   3.032   9.264   2.973  0.8886  2.1621 -1.2362
  957MOL0     H29180   3.275   9.225   2.942 -1.7167  3.8365 -1.5674
  957MOL0     H29181   5.012   8.225   2.840  1.0352 -0.3250  1.0708
  957MOL0     H29182   5.233   8.098   2.835  0.6330  1.1481 -0.3554
  957MOL0     H29183   5.579   7.872   2.930 -1.0557 -0.3123 -0.4574
  957MOL0     H29184   5.793   7.770   2.876  0.2648 -3.7377  0.5638
  957MOL0     H29185   5.771   7.411   2.619 -1.3188  1.9716 -0.6722
  957MOL0     H29186   5.939   7.438   2.587 -0.7101  2.4737 -1.2695
  957MOL0     H29187   5.898   7.294   2.798 -1.4248 -0.0151  0.2822
  957MOL0     H29188   5.795   7.409   2.866  0.9645  0.8159  1.3406
  957MOL0     H29189   6.023   7.428   2.972  0.3518 -0.1048  1.0348
  957MOL0     H29190   5.972   7.579   2.874  0.9122  0.0497  2.0549
  957MOL0     H29191   6.136   7.541   2.708 -0.4921 -0.0088  1.0047
  957MOL0     H29192   6.176   7.381   2.778 -2.6198 -1.0477  2.4411
  957MOL0     H29193   6.430   7.601   3.020  0.4412 -2.4848  1.4461
  957MOL0     H29194   5.602   7.572   2.539 -3.8021 -1.0319  1.1408
  957MOL0     H29195   5.405   7.686   2.596  0.9662  2.1132 -2.3670
  958MOL0     O29196  11.213   4.980   5.262  0.1309  0.0901  0.1367
  958MOL0     C29197  11.145   5.033   5.351  0.3447  0.0208 -0.4826
  958MOL0     O29198  11.005   5.022   5.357  0.7115  0.0218 -0.1998
  958MOL0     C29199  10.932   4.921   5.294 -0.2446  0.5538 -0.1405
  958MOL0     C29200  10.992   4.804   5.242  0.3683 -0.4060 -0.0897
  958MOL0     C29201  10.913   4.716   5.170  0.0944 -0.1681  1.3028
  958MOL0     C29202  10.780   4.744   5.142  0.6830 -0.7346  0.3511
  958MOL0     O29203  10.719   4.665   5.050  0.4062 -0.4142  0.1246
  958MOL0     C29204  10.588   4.695   5.006 -0.3261  0.2400  0.3576
  958MOL0     C29205  10.484   4.660   5.121  0.2184  0.3436  0.0488
  958MOL0     C29206  10.340   4.668   5.060  0.0987 -0.7022 -0.0778
  958MOL0     C29207  10.249   4.594   5.157 -0.6375  0.1359 -0.1479
  958MOL0     C29208  10.119   4.556   5.094  0.4889  0.0873 -0.2789
  958MOL0     C29209  10.054   4.434   5.164  0.2277  0.1267  0.3542
  958MOL0     C29210  10.105   4.310   5.089  0.6732  0.2542  0.3675
  958MOL0     C29211  10.021   4.191   5.134 -0.7499  0.3465  0.7555
  958MOL0     N29212  10.092   4.073   5.079  0.6049 -0.7824 -0.3501
  958MOL0     C29213  10.049   4.013   4.966  0.0088  0.8766 -0.1426
  958MOL0     C29214  10.133   3.908   4.952  0.0084  0.6606 -0.4975
  958MOL0     C29215  10.123   3.816   4.839  0.7978 -0.5322  0.1971
  958MOL0     C29216  10.203   3.687   4.859  0.2986 -0.1427 -0.1585
  958MOL0     C29217  10.249   3.641   4.730  0.3152  0.7923  0.5622
  958MOL0     C29218  10.129   3.600   4.640  0.3529 -0.4736  0.6367
  958MOL0     O29219  10.054   3.706   4.573  0.5932  0.1974  0.3054
  958MOL0     C29220  10.099   3.735   4.447 -0.1392 -0.4776  0.8812
  958MOL0     C29221  10.163   3.862   4.429  0.7522  1.5294 -0.0106
  958MOL0     C29222  10.232   3.872   4.303  0.1626 -0.1111 -0.0923
  958MOL0     C29223  10.312   3.997   4.288  0.1025 -0.4194  0.5674
  958MOL0     C29224  10.215   3.779   4.201  0.6075  0.8594  0.0540
  958MOL0     C29225  10.264   3.795   4.069  0.2379  0.1021 -0.8886
  958MOL0     O29226  10.303   3.681   4.007  0.4162  0.8592 -0.2078
  958MOL0     C29227  10.360   3.695   3.882  0.6734 -0.6795  0.8172
  958MOL0     C29228  10.495   3.709   3.866  0.4057 -1.4893 -1.0215
  958MOL0     C29229  10.552   3.725   3.742 -1.0280 -1.0116  0.8543
  958MOL0     C29230  10.471   3.718   3.626 -0.5332  0.1738  0.3392
  958MOL0     O29231  10.519   3.735   3.500  0.4548  0.2602  0.1465
  958MOL0     C29232  10.660   3.721   3.466  0.0521  0.4052  0.4554
  958MOL0     C29233  10.665   3.684   3.317 -0.6100 -1.2207  0.2600
  958MOL0     C29234  10.748   3.783   3.229 -0.3975 -1.3136 -0.0621
  958MOL0     C29235  10.900   3.787   3.273  0.6597  0.0150 -0.0360
  958MOL0     C29236  10.960   3.905   3.207  0.4349 -0.5368 -0.1035
  958MOL0     C29237  11.105   3.909   3.203  0.4145  0.1700  0.7896
  958MOL0     C29238  11.146   4.005   3.090  0.2618 -0.5698 -0.7539
  958MOL0     C29239  11.294   4.007   3.085  0.3137  0.3214  0.6441
  958MOL0    Cl29240  11.358   4.160   3.023 -0.2692 -0.4623  0.7363
  958MOL0     C29241  10.331   3.708   3.644  0.4603 -0.7166  0.0565
  958MOL0     C29242  10.271   3.698   3.766  0.0067 -0.3108 -0.3593
  958MOL0     O29243  10.274   3.909   4.015 -0.3974 -0.1180 -0.2829
  958MOL0     C29244  10.135   3.673   4.223 -0.5280 -0.6058 -0.1425
  958MOL0     C29245  10.082   3.642   4.346  0.2408  0.1643  0.6269
  958MOL0     N29246  10.224   3.904   5.063 -0.0271  0.1259  0.0296
  958MOL0     N29247  10.197   4.008   5.141 -0.1260 -0.0924 -0.1663
  958MOL0     C29248  10.719   4.858   5.196  0.8056 -0.4551 -0.7239
  958MOL0     C29249  10.799   4.944   5.269 -0.4177  0.2182  0.2607
  958MOL0     C29250  11.219   5.109   5.449  0.1950  0.4833  0.8973
  958MOL0     C29251  11.347   5.159   5.416  0.0214  0.1788 -0.2151
  958MOL0     C29252  11.423   5.247   5.502 -0.2177  0.6963 -1.3761
  958MOL0     C29253  11.379   5.269   5.639  0.1805  1.7619  0.7404
  958MOL0     O29254  11.448   5.332   5.735 -0.2668  0.4941  0.7438
  958MOL0     C29255  11.573   5.375   5.703 -0.0392 -0.4728 -0.0804
  958MOL0     C29256  11.684   5.268   5.694  0.6344  0.7871 -0.7497
  958MOL0     C29257  11.686   5.174   5.818 -0.3781 -0.0137  0.1279
  958MOL0     C29258  11.792   5.059   5.812  0.0066  0.6294 -0.5698
  958MOL0     C29259  11.928   5.111   5.798  0.7154 -0.2546  0.3947
  958MOL0     C29260  12.042   5.150   5.781  0.2072  0.6798 -0.3331
  958MOL0     C29261  11.252   5.217   5.666 -0.1636 -0.0350 -0.3476
  958MOL0     C29262  11.171   5.155   5.571 -0.1195  0.6083  0.3656
  958MOL0     H29263  11.097   4.794   5.268  0.4304 -0.7176 -0.4540
  958MOL0     H29264  10.958   4.639   5.107 -0.0564  2.4367 -2.2827
  958MOL0     H29265  10.584   4.795   4.962  6.9292  0.1179 -1.9077
  958MOL0     H29266  10.560   4.624   4.927 -2.3802 -0.2811  1.4678
  958MOL0     H29267  10.501   4.556   5.150  5.3234  0.4422 -1.5767
  958MOL0     H29268  10.496   4.734   5.201 -0.4953  1.7173 -1.0606
  958MOL0     H29269  10.316   4.773   5.038  1.8810 -0.5101 -1.3884
  958MOL0     H29270  10.339   4.604   4.971 -0.5850  0.2621 -0.7754
  958MOL0     H29271  10.305   4.507   5.192 -0.6871 -1.0627 -2.8122
  958MOL0     H29272  10.230   4.652   5.248  3.7112  3.4472 -1.0267
  958MOL0     H29273  10.048   4.639   5.097 -2.3252 -2.1286 -0.5666
  958MOL0     H29274  10.137   4.534   4.988 -0.0849 -0.7240 -0.2218
  958MOL0     H29275  10.080   4.440   5.270 -0.5691 -0.0586  0.5629
  958MOL0     H29276   9.945   4.431   5.162  0.2560 -1.0288 -0.4615
  958MOL0     H29277  10.100   4.312   4.980  1.7319 -1.3956  0.2520
  958MOL0     H29278  10.208   4.287   5.118  0.1678 -2.2244  0.4341
  958MOL0     H29279   9.920   4.199   5.091 -2.3186 -0.5025  4.0058
  958MOL0     H29280   9.998   4.176   5.240 -1.1547 -4.4068  0.2124
  958MOL0     H29281   9.969   4.046   4.901  0.1158 -1.5390 -1.5973
  958MOL0     H29282  10.020   3.786   4.821  1.9937 -4.4621 -1.2464
  958MOL0     H29283  10.160   3.872   4.753  2.2164 -1.3030  0.2721
  958MOL0     H29284  10.137   3.609   4.900 -1.0259 -0.6135 -2.9435
  958MOL0     H29285  10.295   3.698   4.918  1.1385 -3.5712 -0.6040
  958MOL0     H29286  10.317   3.557   4.744  2.4522  2.0164 -1.6933
  958MOL0     H29287  10.305   3.719   4.677  0.6207 -0.2715 -0.7238
  958MOL0     H29288  10.061   3.539   4.699 -0.4053  1.2088  1.5869
  958MOL0     H29289  10.160   3.525   4.567 -2.2276 -0.6655 -0.3784
  958MOL0     H29290  10.160   3.946   4.498  0.4094  0.1147  1.7773
  958MOL0     H29291  10.410   3.976   4.244 -0.1402 -1.4627  0.4833
  958MOL0     H29292  10.257   4.060   4.218  1.2634 -2.8125 -2.7436
  958MOL0     H29293  10.331   4.053   4.380 -0.8154  1.1075 -0.1394
  958MOL0     H29294  10.560   3.712   3.953 -1.7917 -2.5019  0.7507
  958MOL0     H29295  10.659   3.741   3.749 -1.3550  2.1151  0.3567
  958MOL0     H29296  10.702   3.822   3.469  0.6887  0.2578 -1.6117
  958MOL0     H29297  10.718   3.655   3.532 -0.9413 -1.0856 -0.0886
  958MOL0     H29298  10.712   3.585   3.312  1.3229 -0.3985  1.2394
  958MOL0     H29299  10.564   3.693   3.275  0.8076 -0.3686 -3.3126
  958MOL0     H29300  10.704   3.883   3.242 -1.7803 -1.5337 -2.3905
  958MOL0     H29301  10.730   3.768   3.122 -0.0563 -1.9034 -0.0405
  958MOL0     H29302  10.902   3.798   3.381 -1.3263 -0.1361  0.0611
  958MOL0     H29303  10.958   3.704   3.232  1.8320  1.0305 -0.5153
  958MOL0     H29304  10.929   3.994   3.262 -1.4934 -1.0149 -0.3290
  958MOL0     H29305  10.923   3.922   3.105 -0.3741  0.8707  0.4005
  958MOL0     H29306  11.153   3.940   3.296 -0.3302  2.0865  0.5708
  958MOL0     H29307  11.144   3.809   3.181 -2.5634 -0.8190 -0.4679
  958MOL0     H29308  11.118   4.107   3.116  0.4685 -0.7584  0.2599
  958MOL0     H29309  11.100   3.984   2.993  0.2884 -0.8919 -0.6982
  958MOL0     H29310  11.322   3.923   3.020  1.9373  2.3398 -1.4159
  958MOL0     H29311  11.331   3.984   3.186 -1.8788 -0.1296  1.3885
  958MOL0     H29312  10.260   3.693   3.564  0.4557  2.0442 -0.5355
  958MOL0     H29313  10.166   3.681   3.785 -0.2914  1.3362 -0.3390
  958MOL0     H29314  10.107   3.615   4.136 -0.0472  0.4702 -1.0261
  958MOL0     H29315  10.018   3.558   4.370 -0.8899  0.2832 -1.7099
  958MOL0     H29316  10.627   4.904   5.162  0.3299 -1.2987 -0.5988
  958MOL0     H29317  10.756   5.038   5.303 -1.0745  0.6919 -1.7494
  958MOL0     H29318  11.402   5.141   5.324  0.1808 -0.2107 -0.0431
  958MOL0     H29319  11.526   5.258   5.471  0.2315 -0.5513 -0.4165
  958MOL0     H29320  11.573   5.444   5.618 -3.7455  1.2250  1.0650
  958MOL0     H29321  11.596   5.439   5.788  0.2110  0.4988 -0.8652
  958MOL0     H29322  11.774   5.325   5.670 -0.6544  3.2844 -0.0129
  958MOL0     H29323  11.669   5.201   5.609  0.4507 -2.6367  1.7699
  958MOL0     H29324  11.584   5.137   5.809 -0.4344 -0.2237  1.4252
  958MOL0     H29325  11.699   5.223   5.915  2.1684 -1.9029  0.8621
  958MOL0     H29326  11.762   4.982   5.740  2.1184 -1.3171  0.4964
  958MOL0     H29327  11.788   5.007   5.908  2.6893  2.3639  0.6172
  958MOL0     H29328  12.144   5.179   5.788  1.0028 -1.6974 -1.1856
  958MOL0     H29329  11.215   5.237   5.766  2.1467  0.8303  0.4196
  958MOL0     H29330  11.073   5.126   5.610  0.0959 -2.7618 -1.2627
  959MOL0     O29331   8.275   4.481   8.973 -0.0920 -0.4371  0.0578
  959MOL0     C29332   8.367   4.511   8.895 -0.4080 -0.5298 -0.6190
  959MOL0     O29333   8.397   4.636   8.851  0.5809  0.1565  0.5714
  959MOL0     C29334   8.369   4.736   8.932  0.1098  0.0062 -0.8852
  959MOL0     C29335   8.464   4.786   9.027 -0.5625 -0.6447 -0.1202
  959MOL0     C29336   8.421   4.893   9.110 -0.0132 -0.1629  0.3251
  959MOL0     C29337   8.290   4.950   9.102 -0.1673 -0.3004  0.5098
  959MOL0     O29338   8.237   5.057   9.172 -0.2366  0.7859  0.3683
  959MOL0     C29339   8.320   5.123   9.265 -1.1072 -0.6088 -0.0662
  959MOL0     C29340   8.306   5.276   9.252  0.0124  0.3357  0.0282
  959MOL0     C29341   8.435   5.354   9.274 -0.0673  0.3722 -0.3685
  959MOL0     C29342   8.416   5.506   9.265  0.6302  0.5213 -0.9961
  959MOL0     C29343   8.539   5.585   9.310  0.5986 -0.5286  0.4906
  959MOL0     C29344   8.649   5.587   9.211  0.1660  0.1606  0.8516
  959MOL0     C29345   8.779   5.656   9.272  0.6251  0.4093  0.0560
  959MOL0     C29346   8.796   5.808   9.263 -0.0712 -0.0825 -0.0492
  959MOL0     N29347   8.900   5.858   9.350 -0.6533 -0.0519  0.2756
  959MOL0     C29348   9.034   5.874   9.323  0.1372 -0.7167  0.3716
  959MOL0     C29349   9.073   5.941   9.441  0.0547 -0.4732  1.6760
  959MOL0     C29350   9.208   6.000   9.451 -0.5492  0.1394 -0.0643
  959MOL0     C29351   9.224   6.100   9.333 -0.6997  0.3251 -0.7047
  959MOL0     C29352   9.368   6.166   9.345 -1.4253  0.0287  0.5416
  959MOL0     C29353   9.365   6.308   9.393 -0.4273 -0.0630  0.6333
  959MOL0     O29354   9.335   6.308   9.535 -0.6897 -0.1342  0.6764
  959MOL0     C29355   9.429   6.289   9.634  0.4295  0.7422 -0.0362
  959MOL0     C29356   9.377   6.290   9.762 -0.5085  0.4378 -0.2415
  959MOL0     C29357   9.467   6.278   9.876 -0.0139 -0.5400  0.1561
  959MOL0     C29358   9.394   6.272  10.005  0.6319  0.5255 -0.8944
  959MOL0     C29359   9.612   6.265   9.851  0.0632 -0.0966  0.3792
  959MOL0     C29360   9.709   6.245   9.957 -0.2545 -0.1163 -0.5448
  959MOL0     O29361   9.833   6.206   9.910  1.1856 -0.2390  0.0424
  959MOL0     C29362   9.920   6.151   9.997 -0.0853  0.1146  0.1654
  959MOL0     C29363   9.971   6.022   9.991 -0.8099 -0.9044  0.4028
  959MOL0     C29364  10.060   5.977  10.091 -0.4551 -0.1546 -0.8545
  959MOL0     C29365  10.085   6.053  10.211  0.0645  0.3654  0.4192
  959MOL0     O29366  10.171   6.003  10.309 -0.1265 -0.7906  0.0784
  959MOL0     C29367  10.282   5.926  10.262 -0.5699 -0.3545 -0.8671
  959MOL0     C29368  10.391   5.939  10.376 -0.4439  1.1623 -0.0932
  959MOL0     C29369  10.534   5.899  10.316 -0.4385 -0.5547  0.3490
  959MOL0     C29370  10.648   6.001  10.329 -0.1402 -0.2337 -0.1308
  959MOL0     C29371  10.758   5.983  10.214 -0.0118  1.6007 -1.1991
  959MOL0     C29372  10.821   5.846  10.214 -0.4395  0.6742  0.0013
  959MOL0     C29373  10.965   5.848  10.141 -0.3514 -0.3576  0.5500
  959MOL0     C29374  10.994   5.921   9.997  0.5689  0.0629  0.3570
  959MOL0    Cl29375  10.851   5.886   9.890 -0.2360 -0.0104 -0.2421
  959MOL0     C29376  10.031   6.188  10.223 -0.3024  0.3426  0.7888
  959MOL0     C29377   9.954   6.233  10.112 -0.5372 -0.4299  0.0211
  959MOL0     O29378   9.671   6.239  10.077  0.5448 -0.6762  0.4491
  959MOL0     C29379   9.650   6.265   9.710 -0.9485  0.4306 -0.2867
  959MOL0     C29380   9.561   6.280   9.603 -0.2818  0.9408 -0.0225
  959MOL0     N29381   8.970   5.951   9.528 -0.0137 -0.9998  0.2215
  959MOL0     N29382   8.872   5.904   9.474 -0.7405  0.9480 -0.3933
  959MOL0     C29383   8.198   4.889   9.015 -0.5653 -0.1422 -0.3012
  959MOL0     C29384   8.236   4.790   8.918 -0.8995  0.5497 -1.7479
  959MOL0     C29385   8.435   4.393   8.833  0.4643  0.3746 -0.7523
  959MOL0     C29386   8.462   4.282   8.919 -0.5338 -1.0617 -0.0705
  959MOL0     C29387   8.507   4.159   8.851 -0.8176 -0.2337  0.6358
  959MOL0     C29388   8.534   4.154   8.715 -0.5546 -0.1198  0.7347
  959MOL0     O29389   8.612   4.051   8.649  0.1912  0.0937  0.9322
  959MOL0     C29390   8.672   3.956   8.736 -0.9141 -0.0934  0.5625
  959MOL0     C29391   8.767   3.879   8.646  0.7556  1.1141 -0.2634
  959MOL0     C29392   8.875   3.962   8.588 -0.4298  0.1704 -0.2352
  959MOL0     C29393   8.993   3.893   8.517 -0.9628 -0.4309 -0.5869
  959MOL0     C29394   8.938   3.795   8.420 -0.9396  0.5361  0.1646
  959MOL0     C29395   8.888   3.707   8.354 -1.0003 -0.7174  1.1606
  959MOL0     C29396   8.498   4.265   8.639  0.0900 -0.8724  0.1356
  959MOL0     C29397   8.453   4.392   8.691  0.2512 -0.4601 -0.4380
  959MOL0     H29398   8.562   4.744   9.043  0.4689  1.2841 -0.9752
  959MOL0     H29399   8.505   4.917   9.174 -0.6592  0.8055  0.8339
  959MOL0     H29400   8.282   5.103   9.366 -4.4369 -1.6828 -1.3862
  959MOL0     H29401   8.425   5.095   9.257 -1.8519 -3.8261  0.0497
  959MOL0     H29402   8.266   5.316   9.158 -1.8336  2.7801  1.7154
  959MOL0     H29403   8.232   5.306   9.327 -0.9443  0.5922 -0.9924
  959MOL0     H29404   8.474   5.336   9.375 -0.0382  2.3142  0.0139
  959MOL0     H29405   8.511   5.314   9.206 -1.5334 -1.1144 -1.1868
  959MOL0     H29406   8.389   5.538   9.164  2.6161  0.3459 -1.6214
  959MOL0     H29407   8.329   5.532   9.326 -0.5883 -0.8467 -2.0853
  959MOL0     H29408   8.511   5.689   9.327 -1.0690 -1.0214  1.0248
  959MOL0     H29409   8.582   5.538   9.400 -1.9718 -1.7091  1.1988
  959MOL0     H29410   8.672   5.487   9.173  0.6723  0.6123 -0.0666
  959MOL0     H29411   8.622   5.648   9.124  2.4516  0.1579  0.0796
  959MOL0     H29412   8.789   5.622   9.376  1.2763 -0.8075 -0.3864
  959MOL0     H29413   8.853   5.596   9.217 -1.5559 -0.7225 -1.7855
  959MOL0     H29414   8.705   5.847   9.310  0.0320  1.6137 -1.1963
  959MOL0     H29415   8.805   5.850   9.163 -0.8842  4.5567  1.6019
  959MOL0     H29416   9.091   5.859   9.232 -0.4670 -2.2547  0.2192
  959MOL0     H29417   9.202   6.042   9.552 -0.2806 -2.0341  0.9170
  959MOL0     H29418   9.284   5.923   9.440 -0.3738  0.1432  1.0215
  959MOL0     H29419   9.145   6.175   9.332 -0.1633  1.0100  1.4983
  959MOL0     H29420   9.228   6.055   9.234 -1.3698 -3.8013  0.9228
  959MOL0     H29421   9.411   6.166   9.244  0.5258  2.0133  1.2717
  959MOL0     H29422   9.443   6.111   9.404 -0.4340 -2.2016 -2.5138
  959MOL0     H29423   9.284   6.363   9.344 -1.7996 -1.3586  1.3663
  959MOL0     H29424   9.454   6.360   9.355  0.0178 -2.1568 -1.4804
  959MOL0     H29425   9.269   6.299   9.764 -0.7457 -1.8446  1.2714
  959MOL0     H29426   9.286   6.255   9.992  0.2870  2.8268 -1.4962
  959MOL0     H29427   9.425   6.180  10.055 -0.5448 -0.5432 -2.0500
  959MOL0     H29428   9.412   6.364  10.062  0.2691 -1.1022  2.0044
  959MOL0     H29429   9.949   5.967   9.901  0.9985 -1.1303  0.0546
  959MOL0     H29430  10.092   5.873  10.086  1.6205  0.3840  0.0645
  959MOL0     H29431  10.251   5.824  10.235 -3.4777  0.4036 -0.6991
  959MOL0     H29432  10.312   5.976  10.170 -0.4936 -1.0716 -1.2427
  959MOL0     H29433  10.391   6.045  10.404  6.1135  1.6461 -0.4316
  959MOL0     H29434  10.366   5.884  10.467 -1.9373 -3.0698 -2.7642
  959MOL0     H29435  10.514   5.883  10.210 -1.6458 -1.2732  0.6556
  959MOL0     H29436  10.559   5.805  10.366  0.3766 -0.5009  0.0577
  959MOL0     H29437  10.604   6.101  10.323  1.0049  0.2090 -1.7564
  959MOL0     H29438  10.694   6.001  10.428  0.5463  0.5005 -0.4457
  959MOL0     H29439  10.844   6.042  10.248  0.0271  0.2163  1.3644
  959MOL0     H29440  10.720   6.012  10.116 -0.4343  0.7920 -1.2870
  959MOL0     H29441  10.832   5.812  10.317 -4.7149  4.0534  1.9175
  959MOL0     H29442  10.760   5.768  10.167 -1.2256 -0.0846  2.1572
  959MOL0     H29443  10.998   5.746  10.118  0.5704  0.8896 -4.8552
  959MOL0     H29444  11.032   5.898  10.213 -2.0640  3.5689 -0.3391
  959MOL0     H29445  11.089   5.891   9.953  1.6338 -0.0771  2.6468
  959MOL0     H29446  11.016   6.027  10.008  2.0043 -0.4641  4.0190
  959MOL0     H29447  10.045   6.239  10.318 -2.9860 -0.2500  1.6049
  959MOL0     H29448   9.912   6.333  10.111 -5.5190 -2.1651  2.5653
  959MOL0     H29449   9.754   6.255   9.683 -1.0823  0.9627 -1.0119
  959MOL0     H29450   9.594   6.274   9.500 -1.2237 -0.2120 -0.2673
  959MOL0     H29451   8.095   4.923   9.021 -0.1302  0.9593  2.6567
  959MOL0     H29452   8.166   4.777   8.837  0.0136 -1.0906 -2.3164
  959MOL0     H29453   8.421   4.284   9.019 -0.6270 -0.2630 -0.1158
  959MOL0     H29454   8.512   4.070   8.914  0.1084 -1.1560 -0.6973
  959MOL0     H29455   8.728   4.010   8.813 -0.3612  0.4256 -0.1964
  959MOL0     H29456   8.599   3.881   8.769 -1.9723  0.5819 -0.2109
  959MOL0     H29457   8.717   3.828   8.563  2.3894 -1.0854  0.0173
  959MOL0     H29458   8.803   3.795   8.706  0.1325  0.9632 -0.0868
  959MOL0     H29459   8.905   4.037   8.661  1.6757  0.0382 -0.9181
  959MOL0     H29460   8.836   4.023   8.505 -3.9666  0.4341  1.4403
  959MOL0     H29461   9.053   3.838   8.589  1.4283  0.4169 -1.8120
  959MOL0     H29462   9.067   3.953   8.463 -3.3629  0.7117 -2.8598
  959MOL0     H29463   8.856   3.628   8.288  2.1301 -1.6720  0.6295
  959MOL0     H29464   8.504   4.250   8.532 -1.6217 -0.8903  0.0038
  959MOL0     H29465   8.434   4.482   8.634 -0.1224  0.8455  1.6368
  960MOL0     O29466  11.223   4.220   3.321 -0.2050 -0.1017  0.5578
  960MOL0     C29467  11.125   4.218   3.399 -1.0094 -1.6757 -0.2425
  960MOL0     O29468  11.001   4.280   3.369  0.6288  0.8506 -0.2147
  960MOL0     C29469  10.979   4.335   3.245 -0.7359 -0.1507  0.9239
  960MOL0     C29470  10.908   4.274   3.145  0.4311 -0.0940 -0.7029
  960MOL0     C29471  10.899   4.338   3.011  1.4505 -1.5995 -0.9334
  960MOL0     C29472  10.955   4.464   2.994  0.1039 -0.7969  0.9828
  960MOL0     O29473  10.942   4.525   2.868 -0.0942 -0.4162 -0.7342
  960MOL0     C29474  10.978   4.662   2.860 -0.5871 -0.1064 -0.0568
  960MOL0     C29475  10.905   4.715   2.742 -1.1198 -0.4314  0.5563
  960MOL0     C29476  10.974   4.674   2.607 -0.4063  0.0225  0.4017
  960MOL0     C29477  10.918   4.753   2.480 -0.3286  1.2398  0.4512
  960MOL0     C29478  10.773   4.720   2.441  1.2258 -0.3590  0.0546
  960MOL0     C29479  10.720   4.801   2.323 -0.1305  0.8203 -0.5710
  960MOL0     C29480  10.586   4.760   2.289  0.4652  0.6031  0.0801
  960MOL0     C29481  10.478   4.799   2.395 -0.5432 -0.0266 -0.7649
  960MOL0     N29482  10.341   4.779   2.345 -0.6740 -0.0048  0.3232
  960MOL0     C29483  10.240   4.873   2.345  0.2206  0.2108  0.1204
  960MOL0     C29484  10.124   4.821   2.304 -0.1726  0.6682  0.3756
  960MOL0     C29485   9.988   4.896   2.285 -0.0622 -0.1759 -1.6006
  960MOL0     C29486  10.011   4.987   2.172 -0.0996  0.2177  0.0938
  960MOL0     C29487   9.894   5.016   2.088  0.0450 -0.3705  0.7960
  960MOL0     C29488   9.903   5.119   1.978  0.5025 -0.3239 -0.0353
  960MOL0     O29489   9.946   5.242   2.026 -0.0614  0.1321  0.6188
  960MOL0     C29490   9.972   5.341   1.939 -0.2015 -0.0398  0.5650
  960MOL0     C29491   9.873   5.422   1.888 -0.5844  0.3369 -0.2041
  960MOL0     C29492   9.885   5.499   1.766  0.4914  0.3416 -0.2881
  960MOL0     C29493   9.751   5.555   1.713  0.0854 -0.1292  0.3243
  960MOL0     C29494  10.007   5.508   1.701 -0.2619 -0.5969  0.2764
  960MOL0     C29495  10.025   5.577   1.563 -0.1861 -0.3087 -0.0726
  960MOL0     O29496  10.134   5.554   1.491 -0.2582  0.5323  0.4678
  960MOL0     C29497  10.185   5.651   1.412  0.4111  0.8140 -0.6479
  960MOL0     C29498  10.232   5.769   1.472  0.0390  0.5033 -0.2823
  960MOL0     C29499  10.293   5.866   1.389  0.0993 -0.2538 -0.1986
  960MOL0     C29500  10.304   5.835   1.254  0.2749 -0.5214  0.6727
  960MOL0     O29501  10.362   5.929   1.165 -0.1236 -0.1051  0.4276
  960MOL0     C29502  10.440   5.883   1.049 -0.8251  0.0527 -0.5060
  960MOL0     C29503  10.592   5.929   1.069 -0.0612 -0.6049  0.5686
  960MOL0     C29504  10.687   5.881   0.965 -0.8540 -0.1353  0.0311
  960MOL0     C29505  10.646   5.898   0.818  0.0974 -0.1895 -0.4975
  960MOL0     C29506  10.593   6.037   0.784  0.2280  0.4413  0.5353
  960MOL0     C29507  10.556   6.041   0.634 -0.5913 -0.0049  0.4610
  960MOL0     C29508  10.555   6.190   0.586  0.0825 -0.2507 -0.9192
  960MOL0     C29509  10.689   6.256   0.549 -1.4020 -0.1852 -0.8774
  960MOL0    Cl29510  10.682   6.428   0.503 -0.3383 -0.1819  0.1050
  960MOL0     C29511  10.256   5.718   1.194  0.2378  0.1939 -0.1851
  960MOL0     C29512  10.201   5.621   1.272  0.8926 -0.9788 -0.5044
  960MOL0     O29513   9.934   5.654   1.540 -0.0943 -0.0574  0.2283
  960MOL0     C29514  10.119   5.436   1.758 -0.1519 -0.1555 -0.2654
  960MOL0     C29515  10.104   5.358   1.880  0.6296 -0.3906  0.2999
  960MOL0     N29516  10.151   4.691   2.261 -0.5328  0.3457  0.3609
  960MOL0     N29517  10.282   4.669   2.290  0.4282  0.2532 -0.0044
  960MOL0     C29518  11.045   4.514   3.098 -0.3429 -0.3279 -0.4686
  960MOL0     C29519  11.048   4.450   3.225  0.9580 -0.0887  0.0048
  960MOL0     C29520  11.146   4.167   3.542  0.1563 -0.0169 -0.4590
  960MOL0     C29521  11.264   4.175   3.614  0.0724 -0.3070 -0.1722
  960MOL0     C29522  11.269   4.113   3.744  0.0170 -0.0592  0.4918
  960MOL0     C29523  11.173   4.018   3.780  0.7095 -0.6174 -0.3604
  960MOL0     O29524  11.193   3.969   3.900  0.1207 -0.0641  0.3087
  960MOL0     C29525  11.087   3.937   3.991 -0.7907 -0.3816  0.2716
  960MOL0     C29526  11.044   3.795   3.958  0.6406 -0.0024 -0.5784
  960MOL0     C29527  10.937   3.745   4.071 -0.2543  0.2565  0.0207
  960MOL0     C29528  10.843   3.861   4.122  0.5254 -0.2273  0.4562
  960MOL0     C29529  10.721   3.817   4.202 -0.1095  0.6936 -0.1684
  960MOL0     C29530  10.615   3.798   4.263 -0.8822  0.1600  0.4402
  960MOL0     C29531  11.069   3.998   3.704 -1.3350 -0.2271 -0.1394
  960MOL0     C29532  11.044   4.079   3.588 -0.2775  0.2599  0.3098
  960MOL0     H29533  10.861   4.179   3.168 -0.7596  0.5461 -0.4314
  960MOL0     H29534  10.832   4.296   2.937 -0.3903 -0.1263 -0.1858
  960MOL0     H29535  10.936   4.711   2.949  0.3353  0.0692  0.2909
  960MOL0     H29536  11.083   4.684   2.842 -0.7127 -0.9213 -2.0588
  960MOL0     H29537  10.802   4.680   2.737 -1.4829  0.7635 -0.8539
  960MOL0     H29538  10.901   4.824   2.748  1.5565 -0.3373  2.5187
  960MOL0     H29539  11.083   4.686   2.609 -0.4423  1.0305 -1.3966
  960MOL0     H29540  10.963   4.567   2.588  0.5172  0.1444 -0.9575
  960MOL0     H29541  10.923   4.855   2.519  2.9570  1.8578 -1.2293
  960MOL0     H29542  10.979   4.738   2.390 -0.6819 -0.7932  0.5057
  960MOL0     H29543  10.766   4.614   2.417  2.7769 -0.2690 -0.9683
  960MOL0     H29544  10.705   4.727   2.527  0.2835 -0.5985 -0.6591
  960MOL0     H29545  10.723   4.908   2.346 -0.2702  0.5461  0.7882
  960MOL0     H29546  10.787   4.789   2.237 -0.5401 -0.6522 -0.7102
  960MOL0     H29547  10.566   4.807   2.193  0.6656 -2.0564 -1.3512
  960MOL0     H29548  10.554   4.656   2.278 -3.8501  1.6948  0.6094
  960MOL0     H29549  10.484   4.904   2.426 -0.8556 -0.0982 -0.4405
  960MOL0     H29550  10.492   4.743   2.488 -0.2379 -1.2979 -1.5624
  960MOL0     H29551  10.245   4.978   2.373  0.9325  0.0930  0.4676
  960MOL0     H29552   9.907   4.824   2.271 -0.3049 -0.2161 -0.1574
  960MOL0     H29553   9.967   4.953   2.376  0.3094  0.7124 -2.0534
  960MOL0     H29554  10.084   4.951   2.098 -1.2864  1.8222 -1.9577
  960MOL0     H29555  10.053   5.076   2.219 -0.8197  0.6399 -0.0457
  960MOL0     H29556   9.801   5.034   2.143 -0.7513 -0.0862 -0.5877
  960MOL0     H29557   9.873   4.922   2.035  0.9488 -0.2705  0.2535
  960MOL0     H29558   9.804   5.135   1.933  1.3854  1.1651 -1.5823
  960MOL0     H29559   9.968   5.074   1.902  0.4853  0.7389 -0.7036
  960MOL0     H29560   9.780   5.416   1.944  0.5838  0.6942  1.8895
  960MOL0     H29561   9.759   5.663   1.726  2.3146  0.0246 -1.5886
  960MOL0     H29562   9.736   5.529   1.607 -4.0651  0.6164  0.5440
  960MOL0     H29563   9.663   5.521   1.768  0.8018 -1.5874  0.6035
  960MOL0     H29564  10.223   5.771   1.580  0.6264  0.7700 -0.2357
  960MOL0     H29565  10.324   5.955   1.442 -1.2423  0.8146 -1.1263
  960MOL0     H29566  10.443   5.774   1.042 -1.5056 -0.1893  2.0174
  960MOL0     H29567  10.400   5.929   0.959 -4.1036  0.0773  0.8216
  960MOL0     H29568  10.605   6.037   1.058  1.2193 -0.8392 -0.4476
  960MOL0     H29569  10.628   5.896   1.167 -0.0236 -1.2191  0.3486
  960MOL0     H29570  10.695   5.773   0.953 -0.5425  0.1839 -4.0273
  960MOL0     H29571  10.788   5.921   0.976  0.3894 -2.4149 -2.1441
  960MOL0     H29572  10.730   5.867   0.756  0.1230  0.8684 -0.9965
  960MOL0     H29573  10.569   5.823   0.798  2.3588 -1.9557 -3.3151
  960MOL0     H29574  10.685   6.095   0.794  0.6128  0.1787 -1.1490
  960MOL0     H29575  10.510   6.068   0.848  0.5441  2.3041  0.1049
  960MOL0     H29576  10.624   5.987   0.567  1.2544  1.5331  1.0054
  960MOL0     H29577  10.454   6.008   0.615 -0.5893  0.9856 -1.5138
  960MOL0     H29578  10.512   6.249   0.666  0.5147 -2.1027  0.7620
  960MOL0     H29579  10.504   6.202   0.490 -2.8811 -3.0494  0.1347
  960MOL0     H29580  10.737   6.198   0.470 -1.4384  0.7820 -1.6331
  960MOL0     H29581  10.747   6.242   0.640 -0.6937 -3.2191 -1.6774
  960MOL0     H29582  10.257   5.695   1.088  0.5125  0.1259 -0.1694
  960MOL0     H29583  10.173   5.524   1.234 -1.4124 -1.7153  2.6147
  960MOL0     H29584  10.222   5.439   1.723  0.7384 -1.1846  2.0459
  960MOL0     H29585  10.187   5.302   1.923  0.9291 -0.5764 -0.5010
  960MOL0     H29586  11.114   4.596   3.083 -3.1875  1.9732 -1.9032
  960MOL0     H29587  11.114   4.483   3.305  0.1490  0.8236  0.3163
  960MOL0     H29588  11.338   4.245   3.576  0.3919 -0.4085  0.2490
  960MOL0     H29589  11.350   4.127   3.816  0.8478  2.0861 -0.7464
  960MOL0     H29590  11.135   3.931   4.089  3.0939 -1.7474 -1.4849
  960MOL0     H29591  11.007   4.009   3.972 -2.2849 -1.7328  1.1438
  960MOL0     H29592  11.124   3.722   3.947  2.2684  2.0197 -3.3081
  960MOL0     H29593  10.990   3.791   3.863  0.1034  0.8741 -0.3208
  960MOL0     H29594  11.004   3.718   4.154  2.1484  1.3097 -1.4734
  960MOL0     H29595  10.875   3.660   4.042  0.9194 -0.5191 -0.2825
  960MOL0     H29596  10.790   3.901   4.035 -3.3645  1.5940  3.3285
  960MOL0     H29597  10.903   3.945   4.158  1.4833  0.8372 -3.1928
  960MOL0     H29598  10.518   3.783   4.306 -0.4687 -1.0846  1.0129
  960MOL0     H29599  10.986   3.929   3.714  0.4012 -2.3223  0.5201
  960MOL0     H29600  10.960   4.059   3.523  0.5366 -0.4420 -0.5500
  961MOL0     O29601   5.118   2.821   5.326  0.1971  0.0198  0.5968
  961MOL0     C29602   5.095   2.785   5.212  0.2092  0.7266  0.0377
  961MOL0     O29603   4.988   2.717   5.174 -0.4541  0.8954  0.2445
  961MOL0     C29604   4.890   2.671   5.259  1.0466  0.1671  0.9218
  961MOL0     C29605   4.842   2.721   5.377  0.4482 -0.0441 -0.1498
  961MOL0     C29606   4.741   2.669   5.454  0.1210  0.4804 -0.6665
  961MOL0     C29607   4.682   2.541   5.416 -0.0680 -0.6935 -0.1120
  961MOL0     O29608   4.584   2.477   5.479  0.3067  0.1602  0.1832
  961MOL0     C29609   4.454   2.533   5.485 -0.1103 -1.0408  0.2544
  961MOL0     C29610   4.401   2.570   5.340 -0.1298 -0.3921 -0.8062
  961MOL0     C29611   4.359   2.445   5.261  0.2034  0.0356 -0.1967
  961MOL0     C29612   4.306   2.477   5.120 -0.2110  0.0164  0.5439
  961MOL0     C29613   4.326   2.371   5.010  0.1753 -0.2538  0.5104
  961MOL0     C29614   4.277   2.237   5.069 -0.4211 -0.7659  0.1778
  961MOL0     C29615   4.131   2.210   5.078 -0.4782  0.0190 -0.1807
  961MOL0     C29616   4.067   2.179   4.942  0.1488  0.6736 -0.1280
  961MOL0     N29617   3.942   2.098   4.935  0.3722 -0.6476  0.0838
  961MOL0     C29618   3.905   1.996   4.858 -0.1282 -0.1241 -0.2671
  961MOL0     C29619   3.778   1.968   4.889  0.6672  0.7199 -0.5227
  961MOL0     C29620   3.705   1.843   4.854 -0.7460  0.6567  0.2151
  961MOL0     C29621   3.662   1.849   4.711 -0.4068 -0.6135  0.7779
  961MOL0     C29622   3.562   1.755   4.656 -0.1625  0.3017 -0.4313
  961MOL0     C29623   3.519   1.775   4.509  0.0745  0.1584 -0.3885
  961MOL0     O29624   3.621   1.735   4.420  0.0966 -0.1822 -0.2239
  961MOL0     C29625   3.645   1.603   4.408 -0.0246 -0.0794 -0.0141
  961MOL0     C29626   3.551   1.496   4.389  0.0681  0.1708 -0.5199
  961MOL0     C29627   3.585   1.365   4.352 -1.3741 -1.9176 -0.7697
  961MOL0     C29628   3.474   1.267   4.352  0.2882  0.6479  0.1253
  961MOL0     C29629   3.720   1.325   4.349 -0.0418  0.2226  0.4114
  961MOL0     C29630   3.759   1.194   4.314 -0.7087  0.1577  0.2753
  961MOL0     O29631   3.859   1.190   4.225 -0.2185  0.4825 -0.3565
  961MOL0     C29632   3.899   1.072   4.170 -0.5696 -0.3158 -0.1496
  961MOL0     C29633   3.806   0.998   4.104  0.1807  0.0011  0.3086
  961MOL0     C29634   3.828   0.869   4.062  0.9222  0.4186 -0.1621
  961MOL0     C29635   3.947   0.813   4.081 -0.3692  0.1921 -1.2776
  961MOL0     O29636   3.976   0.699   4.017  0.3098 -0.0355  0.7777
  961MOL0     C29637   4.051   0.591   4.074  1.0182  0.2725  0.6938
  961MOL0     C29638   3.972   0.472   4.115 -0.1299 -0.2140  0.7153
  961MOL0     C29639   3.985   0.352   4.028  0.5895 -0.4650 -0.1164
  961MOL0     C29640   4.105   0.263   4.046 -0.3793  0.0307 -0.1891
  961MOL0     C29641   4.129   0.206   4.190  0.5247 -0.4999 -0.5738
  961MOL0     C29642   4.260   0.131   4.210  0.0742 -0.5611  1.1505
  961MOL0     C29643   4.284   0.069   4.357  0.7195 -1.3187 -0.1530
  961MOL0     C29644   4.183  -0.036   4.401 -0.2257 -0.2684  0.1852
  961MOL0    Cl29645   4.275  -0.141   4.520  1.0983  0.3200 -0.0669
  961MOL0     C29646   4.048   0.891   4.153 -0.0832  0.5269  0.9051
  961MOL0     C29647   4.027   1.026   4.191  0.2214  0.7722 -0.1170
  961MOL0     O29648   3.734   1.096   4.384  0.3088 -0.7814  0.0974
  961MOL0     C29649   3.815   1.431   4.362  0.8683  0.1398  0.2960
  961MOL0     C29650   3.779   1.565   4.401  0.3259  0.5567  1.0669
  961MOL0     N29651   3.728   2.069   4.968  0.0105 -0.3240 -0.6690
  961MOL0     N29652   3.828   2.156   4.986 -0.2179  0.1762  0.4030
  961MOL0     C29653   4.718   2.490   5.288  0.0240  0.0116 -0.6976
  961MOL0     C29654   4.814   2.557   5.214 -0.2335 -0.1947  0.5525
  961MOL0     C29655   5.178   2.816   5.091 -0.3761 -2.2086 -0.0497
  961MOL0     C29656   5.188   2.724   4.989 -0.0826 -0.5287  0.7079
  961MOL0     C29657   5.237   2.758   4.864 -0.4688  0.1314 -0.4962
  961MOL0     C29658   5.304   2.880   4.841  0.7664  1.0184  0.1363
  961MOL0     O29659   5.357   2.892   4.715  0.4818 -0.8253  0.1325
  961MOL0     C29660   5.373   3.024   4.666 -0.1709 -0.1194 -0.1554
  961MOL0     C29661   5.520   3.065   4.691  1.6830  0.4036 -0.4157
  961MOL0     C29662   5.610   2.973   4.615 -0.0361  1.3082  1.2900
  961MOL0     C29663   5.758   2.985   4.653  0.7761  0.0101 -0.1332
  961MOL0     C29664   5.855   2.907   4.576 -1.0477  0.6180 -0.6772
  961MOL0     C29665   5.914   2.831   4.506 -0.1445  0.7634  0.3758
  961MOL0     C29666   5.296   2.977   4.946 -0.1234 -0.0117 -0.7700
  961MOL0     C29667   5.230   2.947   5.065 -0.6324  0.1936  0.5637
  961MOL0     H29668   4.873   2.822   5.400 -2.7450  0.6494  1.7498
  961MOL0     H29669   4.705   2.726   5.539 -0.5695 -0.1727 -0.5099
  961MOL0     H29670   4.383   2.472   5.542  0.3798 -2.7955 -0.9058
  961MOL0     H29671   4.452   2.620   5.550 -1.9683 -0.3718 -0.6219
  961MOL0     H29672   4.311   2.631   5.346 -0.2145 -0.6009  0.0829
  961MOL0     H29673   4.475   2.625   5.281 -2.0191  0.7210 -2.2564
  961MOL0     H29674   4.456   2.394   5.253  0.5355 -0.0525  3.0226
  961MOL0     H29675   4.290   2.384   5.319  2.5403  0.2308  3.0387
  961MOL0     H29676   4.199   2.488   5.140 -0.1627 -1.6752  2.0358
  961MOL0     H29677   4.343   2.571   5.078 -2.2117 -0.4579 -2.6091
  961MOL0     H29678   4.276   2.403   4.918  1.5962  1.5110  0.2891
  961MOL0     H29679   4.434   2.362   4.995  0.2280  0.6433  0.3225
  961MOL0     H29680   4.326   2.157   5.012  0.6221 -0.3064  0.3955
  961MOL0     H29681   4.325   2.229   5.167  0.7701  3.5061  0.1644
  961MOL0     H29682   4.126   2.126   5.148 -2.4550  0.2572  0.0281
  961MOL0     H29683   4.077   2.291   5.127  1.4186  0.6439  0.9571
  961MOL0     H29684   4.143   2.129   4.882  1.3867  0.9937  1.1259
  961MOL0     H29685   4.033   2.276   4.904 -2.4635 -0.2267 -0.3147
  961MOL0     H29686   3.979   1.946   4.796  1.4703  1.3161  0.4180
  961MOL0     H29687   3.787   1.772   4.868 -2.5712 -1.1313  2.5359
  961MOL0     H29688   3.627   1.821   4.927 -0.9126  1.0551  0.1596
  961MOL0     H29689   3.745   1.824   4.643 -2.7342  0.1188 -2.5561
  961MOL0     H29690   3.631   1.950   4.682  0.3367 -0.4391  0.5680
  961MOL0     H29691   3.470   1.785   4.707 -0.3117  1.0041 -1.1026
  961MOL0     H29692   3.590   1.650   4.665  1.8583  0.5767 -2.6706
  961MOL0     H29693   3.489   1.878   4.487  0.8629  0.9540  1.8810
  961MOL0     H29694   3.430   1.712   4.502  0.8371 -0.9650 -0.2666
  961MOL0     H29695   3.443   1.501   4.383 -0.3208 -1.9540  2.5249
  961MOL0     H29696   3.504   1.188   4.420 -1.0875  1.0152  1.2028
  961MOL0     H29697   3.386   1.311   4.400  0.3926  0.5950  0.3667
  961MOL0     H29698   3.452   1.227   4.252  2.3574 -0.2457 -0.0227
  961MOL0     H29699   3.714   1.051   4.079  0.6944  0.6606 -0.2643
  961MOL0     H29700   3.749   0.814   4.010  1.0950 -0.4255  0.4488
  961MOL0     H29701   4.133   0.563   4.007 -0.9480 -0.7495 -1.3954
  961MOL0     H29702   4.104   0.635   4.159  2.3875  3.7176 -1.6890
  961MOL0     H29703   4.009   0.438   4.212 -0.3055 -1.2883  0.4181
  961MOL0     H29704   3.870   0.508   4.127  0.2209  2.4766 -2.8178
  961MOL0     H29705   3.991   0.384   3.923  1.1523 -0.1250  0.0132
  961MOL0     H29706   3.893   0.296   4.045 -0.0922 -0.5033 -3.1973
  961MOL0     H29707   4.096   0.181   3.973 -1.6835 -1.1539  1.2541
  961MOL0     H29708   4.195   0.318   4.016  0.9224 -0.7201  2.0722
  961MOL0     H29709   4.040   0.144   4.209 -0.6894  1.7347  1.6466
  961MOL0     H29710   4.133   0.291   4.259 -1.6834  0.2663 -1.3000
  961MOL0     H29711   4.263   0.049   4.139 -0.3545  3.4096 -4.0165
  961MOL0     H29712   4.344   0.198   4.190  0.0648 -0.8257  0.1912
  961MOL0     H29713   4.273   0.152   4.427 -0.3110 -1.5199 -0.0529
  961MOL0     H29714   4.384   0.027   4.368  1.2586  0.2454  1.3040
  961MOL0     H29715   4.165  -0.102   4.316  0.3892 -0.3489  0.1129
  961MOL0     H29716   4.096   0.016   4.443  0.7832  2.1796 -0.5999
  961MOL0     H29717   4.143   0.840   4.164 -1.1231 -1.7078 -0.0005
  961MOL0     H29718   4.095   1.100   4.232 -1.0345  1.8949  0.0276
  961MOL0     H29719   3.924   1.426   4.360  1.0487  2.6130 -1.7437
  961MOL0     H29720   3.853   1.642   4.420 -1.6952  2.6250  1.0004
  961MOL0     H29721   4.672   2.396   5.259 -1.1698  0.2810  0.2034
  961MOL0     H29722   4.837   2.510   5.119  0.2330  0.2981  0.4167
  961MOL0     H29723   5.138   2.628   4.996 -1.9451  0.2903 -0.3473
  961MOL0     H29724   5.228   2.684   4.786  0.4762 -1.1888  0.5978
  961MOL0     H29725   5.356   3.029   4.558 -2.1551 -0.8492  0.0784
  961MOL0     H29726   5.296   3.088   4.710 -0.6225 -1.3124  0.8290
  961MOL0     H29727   5.555   3.074   4.794  1.4013  2.9680 -0.4691
  961MOL0     H29728   5.533   3.165   4.649  0.4278 -1.1094 -4.9448
  961MOL0     H29729   5.608   3.012   4.513 -0.9758  0.1448  0.8276
  961MOL0     H29730   5.582   2.867   4.607  4.6812 -0.1410  1.4443
  961MOL0     H29731   5.753   2.954   4.758 -3.4619 -0.1366 -0.1815
  961MOL0     H29732   5.801   3.085   4.654  4.9221 -1.5785 -0.6118
  961MOL0     H29733   5.971   2.780   4.431 -0.0160  3.1677 -1.2800
  961MOL0     H29734   5.340   3.074   4.923  1.6828 -1.0100 -1.7792
  961MOL0     H29735   5.225   3.026   5.139 -0.1931  0.1953  0.5953
  962MOL0     O29736   6.533   9.947   1.077  0.4263 -0.7722  0.1917
  962MOL0     C29737   6.555   9.823   1.075 -0.3292  0.1194 -0.6128
  962MOL0     O29738   6.672   9.767   1.016 -0.9735  0.5482 -0.4034
  962MOL0     C29739   6.732   9.844   0.908 -0.1072 -0.3090 -0.0741
  962MOL0     C29740   6.655   9.884   0.798  0.3848  1.0482  1.5755
  962MOL0     C29741   6.711   9.924   0.681  0.2085  0.0992  0.8278
  962MOL0     C29742   6.850   9.939   0.682 -0.1777  0.0461 -0.1538
  962MOL0     O29743   6.929  10.000   0.577 -0.2088 -0.6461  0.2167
  962MOL0     C29744   6.862  10.031   0.460  0.2549 -0.9826  0.2920
  962MOL0     C29745   6.946  10.079   0.347  0.0269 -0.7179  1.0715
  962MOL0     C29746   7.029   9.964   0.278 -0.4604  0.8001  0.0045
  962MOL0     C29747   6.963   9.849   0.222  0.3979  0.2476 -0.9254
  962MOL0     C29748   6.841   9.868   0.134  0.2585 -0.3968 -0.4174
  962MOL0     C29749   6.793   9.731   0.078  0.6529  1.0157  0.4566
  962MOL0     C29750   6.645   9.709   0.075  0.2963  0.2860  0.7520
  962MOL0     C29751   6.583   9.709   0.219 -1.0804  0.1869  0.8174
  962MOL0     N29752   6.633   9.622   0.326 -0.5374  0.2526  0.6833
  962MOL0     C29753   6.561   9.524   0.387  0.1012 -0.1179  0.0458
  962MOL0     C29754   6.613   9.502   0.506 -0.4338  0.3911 -0.3910
  962MOL0     C29755   6.578   9.399   0.616  0.3934  0.8190  0.3618
  962MOL0     C29756   6.529   9.276   0.552  0.4906  0.1925  0.0881
  962MOL0     C29757   6.646   9.203   0.489  0.5560  0.7856 -0.0943
  962MOL0     C29758   6.609   9.054   0.442 -0.2770  0.4700  0.3047
  962MOL0     O29759   6.683   9.022   0.330  0.5477  0.2023 -0.5030
  962MOL0     C29760   6.814   9.002   0.349  0.4166  0.1137 -0.6728
  962MOL0     C29761   6.904   9.032   0.247 -0.1157 -0.6014 -0.1107
  962MOL0     C29762   7.046   9.030   0.269 -0.2572  0.1970 -0.4049
  962MOL0     C29763   7.130   9.084   0.159  0.0325  1.0231 -0.8024
  962MOL0     C29764   7.098   8.991   0.392  0.5859  0.0934 -1.3126
  962MOL0     C29765   7.240   8.998   0.444  0.0147  0.4374 -0.2565
  962MOL0     O29766   7.347   8.994   0.364 -0.7575  0.4096 -0.6425
  962MOL0     C29767   7.475   8.953   0.387 -0.0088 -0.4634 -0.3262
  962MOL0     C29768   7.505   8.854   0.477  0.3784 -0.3311 -0.7278
  962MOL0     C29769   7.638   8.811   0.502  0.6946 -0.5357 -0.7381
  962MOL0     C29770   7.746   8.885   0.445  0.3644  0.1943  0.3464
  962MOL0     O29771   7.881   8.862   0.468 -0.1878 -0.2615  0.4032
  962MOL0     C29772   7.906   8.784   0.589  0.5945 -0.4226  0.2760
  962MOL0     C29773   8.058   8.799   0.633  0.9750  0.6628 -0.3481
  962MOL0     C29774   8.104   8.945   0.631 -0.4983 -0.0360 -0.4452
  962MOL0     C29775   8.162   8.982   0.492  0.8495  0.4079 -0.8658
  962MOL0     C29776   8.215   9.122   0.475  0.0837 -0.4421 -0.2338
  962MOL0     C29777   8.272   9.149   0.337 -1.1018  0.8204  0.8216
  962MOL0     C29778   8.293   9.293   0.313  0.5428  0.6559 -0.6123
  962MOL0     C29779   8.347   9.335   0.175 -0.1052 -0.7685  0.2165
  962MOL0    Cl29780   8.516   9.283   0.145  0.2801  0.0864  0.0048
  962MOL0     C29781   7.714   8.985   0.350  0.5940 -0.4593  0.0176
  962MOL0     C29782   7.585   9.017   0.329  0.6576  0.1300 -0.3319
  962MOL0     O29783   7.248   8.998   0.571 -0.5226 -1.0198 -0.5277
  962MOL0     C29784   6.996   8.948   0.485 -1.2884  0.3813 -0.1554
  962MOL0     C29785   6.864   8.943   0.463 -0.7116 -0.4618  0.2773
  962MOL0     N29786   6.736   9.575   0.510  0.2063  0.2104  0.6954
  962MOL0     N29787   6.745   9.655   0.410  0.2552 -0.2934  0.6048
  962MOL0     C29788   6.924   9.894   0.787 -0.4041 -0.2336 -0.5300
  962MOL0     C29789   6.873   9.849   0.906 -0.0830  0.7009 -0.2944
  962MOL0     C29790   6.459   9.725   1.132  0.6329  0.0875 -0.1670
  962MOL0     C29791   6.344   9.769   1.203  0.5486 -0.8257 -0.2708
  962MOL0     C29792   6.260   9.681   1.260  0.1758  0.3097 -0.9594
  962MOL0     C29793   6.277   9.539   1.249 -0.0914  0.2386 -0.0094
  962MOL0     O29794   6.188   9.448   1.298  1.2700  0.0555 -0.2209
  962MOL0     C29795   6.078   9.508   1.365 -0.8082  0.2682  0.8080
  962MOL0     C29796   5.983   9.397   1.400 -0.2160  0.0587 -0.7954
  962MOL0     C29797   6.049   9.295   1.496 -0.2344  0.4517 -0.0782
  962MOL0     C29798   6.082   9.352   1.641  0.6952 -0.3117 -0.9439
  962MOL0     C29799   5.975   9.448   1.674 -0.6432 -0.4232 -0.3573
  962MOL0     C29800   5.873   9.512   1.695  0.9353  0.2630 -0.4155
  962MOL0     C29801   6.397   9.493   1.193  0.0055 -0.8453 -0.0944
  962MOL0     C29802   6.480   9.585   1.126 -0.3609  0.1492  0.9504
  962MOL0     H29803   6.547   9.890   0.798  0.2775  3.2756 -2.4843
  962MOL0     H29804   6.646   9.967   0.605 -0.8985 -0.4774  1.4201
  962MOL0     H29805   6.803   9.947   0.423  0.1171  0.3087 -2.6754
  962MOL0     H29806   6.790  10.109   0.486 -1.5284 -2.4920  0.0741
  962MOL0     H29807   6.883  10.129   0.273  0.7006  0.6131  1.3603
  962MOL0     H29808   7.017  10.153   0.386 -1.1041  0.1442  1.5431
  962MOL0     H29809   7.076  10.001   0.187 -0.1366  1.7707  0.5551
  962MOL0     H29810   7.112   9.930   0.341 -1.9357 -2.0946  0.5933
  962MOL0     H29811   7.026   9.777   0.171 -2.0031 -1.1362 -2.1146
  962MOL0     H29812   6.928   9.795   0.311  1.2008  0.3125 -0.5679
  962MOL0     H29813   6.766   9.924   0.191  2.9304  2.1657  0.8229
  962MOL0     H29814   6.875   9.934   0.055 -0.8409 -0.2423 -0.7794
  962MOL0     H29815   6.811   9.717  -0.029 -0.6636 -0.3096  0.3670
  962MOL0     H29816   6.845   9.650   0.130  0.4620 -1.1047 -2.4110
  962MOL0     H29817   6.598   9.789   0.017  0.7419  1.8665  2.4660
  962MOL0     H29818   6.630   9.612   0.027  1.9819  0.9133 -1.2079
  962MOL0     H29819   6.474   9.697   0.208 -0.8780 -1.1047  0.1388
  962MOL0     H29820   6.594   9.810   0.261 -0.7536  0.7508 -0.5506
  962MOL0     H29821   6.470   9.478   0.348  1.9043 -1.6717 -2.6112
  962MOL0     H29822   6.656   9.377   0.690  2.5509  3.4156 -1.0068
  962MOL0     H29823   6.490   9.436   0.670 -0.8142 -2.5865  1.0098
  962MOL0     H29824   6.452   9.294   0.477  0.1088 -2.4757 -0.2741
  962MOL0     H29825   6.488   9.203   0.623  1.3187 -0.4775 -0.1059
  962MOL0     H29826   6.732   9.186   0.554  1.8967 -1.0080 -2.2092
  962MOL0     H29827   6.679   9.266   0.406  1.4462  2.2277  1.3101
  962MOL0     H29828   6.506   9.045   0.407 -1.0530  0.0610  2.5359
  962MOL0     H29829   6.616   8.978   0.520 -1.6439 -0.7407 -0.6901
  962MOL0     H29830   6.860   9.087   0.165  1.3160 -0.0487 -0.5381
  962MOL0     H29831   7.064   9.149   0.099  0.4035  0.2865 -2.0451
  962MOL0     H29832   7.210   9.140   0.209 -2.1078  2.3263  1.4072
  962MOL0     H29833   7.165   8.999   0.100 -4.3727 -0.7615 -1.2216
  962MOL0     H29834   7.420   8.799   0.516  0.3531  0.0181 -0.2741
  962MOL0     H29835   7.638   8.737   0.581  1.2032  2.4765  2.3240
  962MOL0     H29836   7.848   8.832   0.669 -0.5497 -0.3222 -0.5890
  962MOL0     H29837   7.870   8.682   0.573 -1.0769  0.3720 -1.4582
  962MOL0     H29838   8.051   8.753   0.732 -3.2763 -0.9537 -1.1866
  962MOL0     H29839   8.110   8.734   0.562 -1.2454 -1.7312  0.1024
  962MOL0     H29840   8.193   8.961   0.692  0.3342  1.7251 -2.0116
  962MOL0     H29841   8.030   9.016   0.668  0.9199  0.8707  0.7638
  962MOL0     H29842   8.253   8.921   0.493  0.4694 -0.5946  4.2596
  962MOL0     H29843   8.094   8.951   0.412  2.7843  0.6784 -2.6949
  962MOL0     H29844   8.280   9.135   0.562  0.4473 -3.2421  0.0138
  962MOL0     H29845   8.140   9.198   0.498  2.6459  2.0271  0.4923
  962MOL0     H29846   8.368   9.098   0.326 -0.5389  2.2323 -1.4483
  962MOL0     H29847   8.200   9.108   0.266 -2.7633  0.2348  2.7554
  962MOL0     H29848   8.345   9.323   0.405 -3.2729 -1.4605  2.5727
  962MOL0     H29849   8.193   9.336   0.324  0.4305  0.4970 -1.0240
  962MOL0     H29850   8.341   9.444   0.176 -1.5090 -0.8378  0.4136
  962MOL0     H29851   8.285   9.290   0.098  1.6649 -2.6038 -0.2444
  962MOL0     H29852   7.787   9.054   0.309  1.0868 -0.5601  0.7124
  962MOL0     H29853   7.557   9.096   0.260 -2.2857  0.0512  0.6405
  962MOL0     H29854   7.027   8.912   0.583  3.9198 -1.7869 -2.2184
  962MOL0     H29855   6.803   8.920   0.550 -0.2098  0.0051  0.7610
  962MOL0     H29856   7.031   9.877   0.780 -0.7228 -1.8778 -2.2133
  962MOL0     H29857   6.947   9.815   0.977  0.0756 -0.2232 -0.8797
  962MOL0     H29858   6.337   9.877   1.214 -0.7400 -0.3705 -4.0154
  962MOL0     H29859   6.187   9.716   1.331  1.9423 -0.9131  1.6157
  962MOL0     H29860   6.085   9.568   1.456 -2.4204  3.0445 -0.7113
  962MOL0     H29861   6.040   9.575   1.286  0.2504 -1.4444 -1.2540
  962MOL0     H29862   5.958   9.345   1.306 -1.4338  3.2481 -2.3929
  962MOL0     H29863   5.895   9.448   1.439 -0.3536  1.3198 -2.5931
  962MOL0     H29864   6.140   9.242   1.468  0.1458  0.4437  1.1144
  962MOL0     H29865   5.976   9.214   1.503 -0.8176  0.9167 -0.6752
  962MOL0     H29866   6.172   9.412   1.624  0.0448  1.1181  0.4612
  962MOL0     H29867   6.102   9.281   1.722  3.1498  4.9878  3.8038
  962MOL0     H29868   5.786   9.563   1.733 -1.2917 -3.8424  0.5388
  962MOL0     H29869   6.414   9.386   1.205  0.0923 -0.6305  2.1246
  962MOL0     H29870   6.571   9.548   1.080 -1.5609 -1.6600 -0.1089
  963MOL0     O29871   8.090   8.546   3.035  0.4080  0.1440  0.2046
  963MOL0     C29872   8.112   8.560   3.153 -0.5592  0.8703  0.2105
  963MOL0     O29873   8.173   8.671   3.203 -0.2545  0.1853  1.0469
  963MOL0     C29874   8.227   8.768   3.119 -0.1946 -0.9265 -0.1349
  963MOL0     C29875   8.367   8.800   3.102  0.9192 -0.0064  0.2274
  963MOL0     C29876   8.405   8.905   3.022 -1.0469 -1.2520  0.8979
  963MOL0     C29877   8.310   8.978   2.952 -0.7276 -0.1643  0.1275
  963MOL0     O29878   8.351   9.084   2.883 -0.5115 -0.2382  0.4976
  963MOL0     C29879   8.277   9.199   2.922  0.5769  0.3339 -0.1936
  963MOL0     C29880   8.357   9.331   2.897 -0.1978 -0.9051  0.5358
  963MOL0     C29881   8.478   9.331   3.001  0.4375  0.6511 -0.2824
  963MOL0     C29882   8.573   9.452   2.999 -0.3757 -0.4398  0.9927
  963MOL0     C29883   8.502   9.587   3.019  0.8008  0.0075 -0.1472
  963MOL0     C29884   8.588   9.695   2.970  0.7780 -0.5376  0.9970
  963MOL0     C29885   8.538   9.831   3.016  0.0514 -0.3023 -0.8985
  963MOL0     C29886   8.627   9.939   3.056  0.2143  0.6690 -0.6551
  963MOL0     N29887   8.558  10.064   3.092 -0.3897 -0.0525 -0.0326
  963MOL0     C29888   8.585  10.140   3.200 -0.0012  0.3889 -1.0549
  963MOL0     C29889   8.500  10.243   3.191  1.5017  0.6803 -0.3050
  963MOL0     C29890   8.498  10.363   3.275  0.8010  0.4208 -0.5589
  963MOL0     C29891   8.472  10.501   3.198 -0.5397  0.0507 -0.6086
  963MOL0     C29892   8.456  10.619   3.294 -0.5968 -0.6009  0.2287
  963MOL0     C29893   8.455  10.754   3.236 -0.1597 -0.1401 -0.3663
  963MOL0     O29894   8.376  10.843   3.312 -0.5757 -0.2337 -0.4821
  963MOL0     C29895   8.349  10.969   3.271  0.1892  0.4801  0.0624
  963MOL0     C29896   8.259  11.044   3.357 -0.3638  0.9162  0.3745
  963MOL0     C29897   8.224  11.177   3.326  0.4275  0.0284 -0.3230
  963MOL0     C29898   8.130  11.243   3.424  0.5984  0.7557  0.2729
  963MOL0     C29899   8.265  11.235   3.217 -0.2963 -1.0878  0.4016
  963MOL0     C29900   8.239  11.377   3.186 -0.2559  0.5476 -1.1768
  963MOL0     O29901   8.230  11.411   3.052  0.5484  0.4371  0.5960
  963MOL0     C29902   8.201  11.546   3.036  0.5550 -0.1499  0.0505
  963MOL0     C29903   8.305  11.630   3.008 -0.3317 -0.2976  0.7829
  963MOL0     C29904   8.295  11.770   2.999  0.0132  0.9391  0.9714
  963MOL0     C29905   8.169  11.823   3.020  0.1458  0.5746 -0.5668
  963MOL0     O29906   8.146  11.950   2.995  0.4419 -0.6386  0.5560
  963MOL0     C29907   8.051  11.977   2.887 -1.0754 -0.1530 -0.6695
  963MOL0     C29908   8.080  12.114   2.813 -0.4716  0.6141  0.0803
  963MOL0     C29909   8.208  12.083   2.724  0.3140 -0.6924  0.4235
  963MOL0     C29910   8.231  12.189   2.618 -0.4419 -0.3431 -0.0559
  963MOL0     C29911   8.348  12.157   2.525 -0.1925  0.2454 -0.3261
  963MOL0     C29912   8.489  12.166   2.597 -0.4917  1.1231 -0.4033
  963MOL0     C29913   8.599  12.130   2.489 -0.3481 -0.5320  0.5976
  963MOL0     C29914   8.744  12.123   2.550 -0.9188 -0.8340  0.1561
  963MOL0    Cl29915   8.824  12.273   2.539  0.3119 -0.5091 -0.2839
  963MOL0     C29916   8.053  11.741   3.049  0.8519 -0.3488  0.3612
  963MOL0     C29917   8.077  11.602   3.059  0.1652 -0.8274  0.8344
  963MOL0     O29918   8.239  11.464   3.278 -0.3972 -0.2277  0.2645
  963MOL0     C29919   8.358  11.165   3.137  1.2427 -0.0589  0.7584
  963MOL0     C29920   8.400  11.032   3.164  0.6256 -0.4065  0.1677
  963MOL0     N29921   8.436  10.239   3.059  0.6021  0.8116 -1.1909
  963MOL0     N29922   8.466  10.124   3.018 -0.4760 -0.1053  0.2243
  963MOL0     C29923   8.178   8.946   2.956  0.7465 -0.7256 -0.1650
  963MOL0     C29924   8.133   8.848   3.045  0.0215  0.8787  0.5134
  963MOL0     C29925   8.063   8.444   3.237  0.2030 -0.1542 -0.6743
  963MOL0     C29926   8.087   8.431   3.379  0.2108 -0.5746  0.2620
  963MOL0     C29927   8.028   8.329   3.445  1.0540  0.5488 -0.5670
  963MOL0     C29928   7.955   8.229   3.378 -0.8185 -0.3405  0.1461
  963MOL0     O29929   7.904   8.124   3.448 -0.0033 -1.2982  0.2495
  963MOL0     C29930   7.769   8.138   3.488 -0.0094  0.9508 -1.0630
  963MOL0     C29931   7.720   8.010   3.561  1.1117 -0.5246  0.4593
  963MOL0     C29932   7.717   7.885   3.465  0.8457  0.6132 -0.3445
  963MOL0     C29933   7.605   7.783   3.505  0.8982  1.2267 -0.4396
  963MOL0     C29934   7.623   7.715   3.631 -0.0121  0.1082 -0.7876
  963MOL0     C29935   7.624   7.656   3.738  0.4524  0.0630  0.6007
  963MOL0     C29936   7.932   8.246   3.244  0.1554  0.1836 -0.8584
  963MOL0     C29937   7.976   8.349   3.175  0.1192 -0.1494  0.4378
  963MOL0     H29938   8.430   8.737   3.163 -2.4235 -2.8845  1.0665
  963MOL0     H29939   8.509   8.936   3.013 -1.8256  1.7594  1.1837
  963MOL0     H29940   8.188   9.198   2.857  1.4816 -4.8720 -1.8142
  963MOL0     H29941   8.252   9.184   3.027  3.0808  1.4784  0.6358
  963MOL0     H29942   8.400   9.331   2.797  2.5935 -2.0317  1.6459
  963MOL0     H29943   8.289   9.416   2.910  1.7506  1.3761 -2.6853
  963MOL0     H29944   8.441   9.323   3.103 -1.4664 -3.5236 -1.1079
  963MOL0     H29945   8.525   9.232   2.994 -0.3652 -0.3058  4.4761
  963MOL0     H29946   8.644   9.441   3.081  0.7382 -0.5297  0.0408
  963MOL0     H29947   8.621   9.460   2.901 -0.5229  0.8999  1.0119
  963MOL0     H29948   8.406   9.593   2.967 -0.5436 -1.1869  2.0141
  963MOL0     H29949   8.470   9.599   3.123 -0.0646 -1.4391 -0.2233
  963MOL0     H29950   8.684   9.668   3.014  0.0738  0.4560  3.2828
  963MOL0     H29951   8.591   9.685   2.861  2.1753 -4.5290  1.2562
  963MOL0     H29952   8.495   9.866   2.921 -0.2423 -0.7385 -0.9281
  963MOL0     H29953   8.455   9.831   3.086  0.1491 -0.7264 -0.7806
  963MOL0     H29954   8.702   9.963   2.980  1.6253 -0.5798  0.3001
  963MOL0     H29955   8.693   9.903   3.135  1.4930  3.4742 -0.3006
  963MOL0     H29956   8.652  10.121   3.283 -0.2168  2.8371 -0.2383
  963MOL0     H29957   8.425  10.363   3.357  2.0634  0.4041  0.5958
  963MOL0     H29958   8.594  10.368   3.327  1.2049 -0.1556 -1.2353
  963MOL0     H29959   8.381  10.502   3.137 -0.4679 -2.6030 -0.8649
  963MOL0     H29960   8.549  10.511   3.121 -0.8258  2.3908 -0.6547
  963MOL0     H29961   8.535  10.611   3.369  0.2393 -0.3067 -0.5937
  963MOL0     H29962   8.363  10.604   3.348 -0.6942  2.3417  1.0540
  963MOL0     H29963   8.421  10.759   3.132 -0.0238  0.1020 -0.3993
  963MOL0     H29964   8.556  10.796   3.233 -0.4514  0.5298 -2.2392
  963MOL0     H29965   8.224  10.987   3.442  3.6345 -0.0991  1.5298
  963MOL0     H29966   8.173  11.332   3.470  0.6451  0.8239  0.0931
  963MOL0     H29967   8.044  11.283   3.371  0.3072  0.6342  0.6469
  963MOL0     H29968   8.098  11.174   3.503  2.1977  2.4326  2.5388
  963MOL0     H29969   8.396  11.589   2.966 -1.4346  0.6797 -2.9162
  963MOL0     H29970   8.376  11.828   2.956  1.2132  0.4409  2.4427
  963MOL0     H29971   8.059  11.899   2.810  0.5337  3.1759 -4.2045
  963MOL0     H29972   7.955  11.982   2.939  1.0136 -0.6106  3.7021
  963MOL0     H29973   7.998  12.152   2.752  0.3275  2.2191 -0.0621
  963MOL0     H29974   8.113  12.178   2.896  0.2523 -0.4095  0.6070
  963MOL0     H29975   8.198  11.986   2.674  1.7547 -1.8398  2.1996
  963MOL0     H29976   8.292  12.073   2.795 -1.1408  0.9110  2.4752
  963MOL0     H29977   8.144  12.186   2.552 -0.3231 -1.8569 -0.1891
  963MOL0     H29978   8.240  12.289   2.660  1.1110  0.2784 -1.7318
  963MOL0     H29979   8.347  12.217   2.433 -3.6996 -0.4175 -0.8601
  963MOL0     H29980   8.325  12.054   2.495  1.9824 -0.5963  0.6730
  963MOL0     H29981   8.509  12.267   2.633  1.0013  1.1272 -1.1373
  963MOL0     H29982   8.491  12.093   2.679  0.8652 -1.3362 -2.4355
  963MOL0     H29983   8.599  12.207   2.411  1.1582  1.4116  2.3877
  963MOL0     H29984   8.586  12.031   2.444 -1.2392 -1.5270  2.8910
  963MOL0     H29985   8.802  12.056   2.486  0.1056  1.9146 -1.9890
  963MOL0     H29986   8.755  12.088   2.653 -0.0256  1.4377  0.8713
  963MOL0     H29987   7.960  11.792   3.068  1.3439  1.0290 -0.7529
  963MOL0     H29988   7.996  11.545   3.104 -2.0145  0.4465 -1.2208
  963MOL0     H29989   8.416  11.225   3.068  0.4050  0.0336  0.1346
  963MOL0     H29990   8.462  10.983   3.090  0.6068  2.6672 -2.0664
  963MOL0     H29991   8.108   8.996   2.889 -0.1903  0.6141  1.7412
  963MOL0     H29992   8.027   8.825   3.046  0.3545 -0.8632  2.6526
  963MOL0     H29993   8.158   8.504   3.417 -1.7729 -0.1380  3.4975
  963MOL0     H29994   8.038   8.318   3.552 -0.3330  3.0529 -0.0856
  963MOL0     H29995   7.751   8.231   3.543  0.1531  2.9921 -4.2184
  963MOL0     H29996   7.700   8.146   3.404  1.6900  0.2284 -2.5894
  963MOL0     H29997   7.628   8.031   3.616  1.2972  2.7081 -0.2272
  963MOL0     H29998   7.783   7.994   3.649  2.3220  2.9818  0.4031
  963MOL0     H29999   7.812   7.833   3.477  0.2604 -0.2403  0.8217
  963MOL0     H30000   7.708   7.911   3.359 -3.5006  0.4883 -0.1978
  963MOL0     H30001   7.611   7.702   3.431  0.0858  1.8176 -1.1710
  963MOL0     H30002   7.507   7.831   3.500 -1.4017 -2.8733  0.3505
  963MOL0     H30003   7.654   7.603   3.827 -4.6763 -0.5315  2.2893
  963MOL0     H30004   7.854   8.179   3.209  0.1092 -1.6575  2.3856
  963MOL0     H30005   7.940   8.368   3.075 -2.2381  2.3870  1.6161
  964MOL0     O30006   9.998   1.872   1.428  0.5103 -0.3742 -0.7512
  964MOL0     C30007   9.917   1.797   1.372 -0.8217 -0.0484  0.0987
  964MOL0     O30008   9.900   1.657   1.390 -0.6725 -0.5365 -0.4908
  964MOL0     C30009   9.969   1.589   1.494  0.3732  0.2644  0.5295
  964MOL0     C30010  10.062   1.647   1.589  0.2796 -0.3803  0.8335
  964MOL0     C30011  10.133   1.564   1.674 -0.1326  0.2776  0.0433
  964MOL0     C30012  10.118   1.428   1.660 -0.4084 -0.5420 -0.0722
  964MOL0     O30013  10.194   1.337   1.724  0.0803  0.1981  0.4747
  964MOL0     C30014  10.334   1.363   1.757 -0.1555 -1.1696 -0.1846
  964MOL0     C30015  10.404   1.411   1.625 -0.3320  0.1019  0.7833
  964MOL0     C30016  10.418   1.290   1.517  0.4931 -1.2304 -0.6021
  964MOL0     C30017  10.554   1.226   1.548  0.6530 -1.0762 -0.4890
  964MOL0     C30018  10.589   1.099   1.459 -0.0504 -0.8341 -0.9449
  964MOL0     C30019  10.578   1.129   1.303  0.2291 -1.5200  0.2094
  964MOL0     C30020  10.618   1.007   1.215 -0.0104  0.0736 -0.4692
  964MOL0     C30021  10.774   1.018   1.183  0.0231 -0.2487 -0.6894
  964MOL0     N30022  10.813   0.888   1.129  1.5269 -0.0786 -0.2079
  964MOL0     C30023  10.858   0.883   1.002  0.9163 -0.2072  0.1550
  964MOL0     C30024  10.891   0.748   0.994 -0.5923  0.6276 -0.8646
  964MOL0     C30025  10.940   0.679   0.868  1.4408  0.9087  0.8064
  964MOL0     C30026  10.945   0.521   0.884  0.6704  0.1254 -0.0896
  964MOL0     C30027  11.019   0.451   0.768 -0.7199  0.3861  0.6440
  964MOL0     C30028  11.009   0.301   0.767  0.6499 -0.2520  0.4386
  964MOL0     O30029  10.875   0.270   0.726  0.2191  0.2243 -0.2554
  964MOL0     C30030  10.873   0.163   0.641 -1.2413  0.3496 -0.2663
  964MOL0     C30031  10.884   0.030   0.692  0.1823  1.3320 -0.2874
  964MOL0     C30032  10.879  -0.082   0.599 -0.4816  0.6661 -0.1387
  964MOL0     C30033  10.910  -0.219   0.661  0.2589  0.3794 -0.6490
  964MOL0     C30034  10.839  -0.064   0.469 -0.7277  1.1226  0.0384
  964MOL0     C30035  10.835  -0.169   0.363  1.1926  0.8612 -0.6604
  964MOL0     O30036  10.757  -0.149   0.247 -0.1878  0.2706 -0.2643
  964MOL0     C30037  10.732  -0.238   0.145 -0.5654  0.0170 -0.0376
  964MOL0     C30038  10.763  -0.373   0.142  0.4403  0.8086  0.1426
  964MOL0     C30039  10.709  -0.451   0.039 -0.7366  0.7636  0.2820
  964MOL0     C30040  10.632  -0.398  -0.063  0.3441 -0.4488  0.4086
  964MOL0     O30041  10.576  -0.468  -0.159  0.0809 -1.0689 -0.4051
  964MOL0     C30042  10.569  -0.611  -0.155 -0.2158 -0.1073  0.1937
  964MOL0     C30043  10.441  -0.651  -0.231 -0.3971 -0.4409  0.1305
  964MOL0     C30044  10.440  -0.659  -0.394  0.1090  0.0633 -0.2327
  964MOL0     C30045  10.480  -0.532  -0.462 -0.1474  0.1059  0.0486
  964MOL0     C30046  10.373  -0.430  -0.458  0.0688  0.0559  0.6053
  964MOL0     C30047  10.419  -0.299  -0.532 -0.0813 -0.5218 -0.2437
  964MOL0     C30048  10.306  -0.184  -0.523  0.0516 -0.2514 -0.0223
  964MOL0     C30049  10.343  -0.066  -0.615 -0.7979  0.1628 -0.0546
  964MOL0    Cl30050  10.271   0.091  -0.570  0.1435  0.0563  0.0443
  964MOL0     C30051  10.608  -0.257  -0.063 -0.8964 -0.3231 -0.7184
  964MOL0     C30052  10.650  -0.178   0.044  0.2768  0.3122  0.5168
  964MOL0     O30053  10.898  -0.269   0.378  0.0233  1.0777 -0.5034
  964MOL0     C30054  10.820   0.066   0.423 -0.1519 -0.7655 -0.6608
  964MOL0     C30055  10.843   0.174   0.500 -0.8350 -0.2158 -0.0049
  964MOL0     N30056  10.872   0.689   1.119 -0.2806  0.1547  0.4258
  964MOL0     N30057  10.814   0.774   1.197  0.4464 -0.9097  0.8567
  964MOL0     C30058  10.017   1.371   1.580  0.2957  0.3101  0.9957
  964MOL0     C30059   9.942   1.448   1.496 -0.8961  0.2631 -0.2614
  964MOL0     C30060   9.824   1.860   1.271  0.1300 -0.5491 -0.4703
  964MOL0     C30061   9.804   1.997   1.247  0.2073  0.5866  0.1654
  964MOL0     C30062   9.711   2.045   1.155  0.5380  0.2861  0.9199
  964MOL0     C30063   9.644   1.950   1.074 -0.1744 -0.6227  1.1345
  964MOL0     O30064   9.554   1.977   0.977 -0.0259  0.4056  0.8061
  964MOL0     C30065   9.501   2.110   0.960 -0.6022  0.3465  0.3322
  964MOL0     C30066   9.377   2.096   0.874  0.1402 -0.1328  0.0591
  964MOL0     C30067   9.317   2.229   0.816 -0.0104 -0.2112  0.1577
  964MOL0     C30068   9.169   2.213   0.779 -0.5388 -0.3558  0.5388
  964MOL0     C30069   9.118   2.339   0.718 -0.3930  1.1692 -0.3021
  964MOL0     C30070   9.093   2.439   0.655 -0.0435  0.3360  0.7767
  964MOL0     C30071   9.678   1.822   1.085  0.9578  0.6008 -0.4568
  964MOL0     C30072   9.765   1.773   1.179 -0.5975 -0.8468 -0.0068
  964MOL0     H30073  10.087   1.751   1.608 -3.5807  0.5885  1.5366
  964MOL0     H30074  10.210   1.620   1.724  0.1153 -0.2616  0.2685
  964MOL0     H30075  10.341   1.427   1.846 -1.7936 -1.6052  0.2758
  964MOL0     H30076  10.361   1.266   1.799 -0.8363 -1.8205 -1.2255
  964MOL0     H30077  10.363   1.500   1.577  1.1498  0.1946 -0.3598
  964MOL0     H30078  10.500   1.448   1.661 -0.0600  0.5483 -0.3801
  964MOL0     H30079  10.334   1.222   1.530 -2.5963  2.4156  0.4950
  964MOL0     H30080  10.422   1.339   1.419 -1.4490  0.7234  0.2132
  964MOL0     H30081  10.638   1.295   1.536  1.7470 -2.2001  0.3576
  964MOL0     H30082  10.571   1.196   1.652  1.3606  0.2219 -0.2108
  964MOL0     H30083  10.688   1.060   1.486 -0.9963 -2.1373  0.7917
  964MOL0     H30084  10.523   1.014   1.481 -0.3722 -0.3243  0.0636
  964MOL0     H30085  10.474   1.156   1.280  1.5346  3.7892 -0.8416
  964MOL0     H30086  10.636   1.212   1.262 -1.6829  0.1638  0.7118
  964MOL0     H30087  10.588   0.912   1.259 -2.2703 -0.5880 -3.1902
  964MOL0     H30088  10.558   1.006   1.124 -3.1384 -0.9290  1.4640
  964MOL0     H30089  10.840   1.036   1.268  0.3298 -0.9428 -0.7695
  964MOL0     H30090  10.799   1.101   1.117 -2.0636  0.8415 -0.2142
  964MOL0     H30091  10.865   0.957   0.922 -0.9125  2.5177  2.3406
  964MOL0     H30092  10.872   0.709   0.789  0.4697  0.6327  1.5132
  964MOL0     H30093  11.038   0.717   0.839  0.9379  2.0929  0.6464
  964MOL0     H30094  10.854   0.466   0.911  1.9589 -1.4029  1.2918
  964MOL0     H30095  11.004   0.500   0.973  1.5950 -0.5915 -0.8590
  964MOL0     H30096  11.127   0.470   0.774 -0.1850 -1.5134 -1.5444
  964MOL0     H30097  10.986   0.488   0.670  0.2414  0.4597  0.3333
  964MOL0     H30098  11.056   0.245   0.848  4.3131 -0.5659 -1.6760
  964MOL0     H30099  11.069   0.262   0.685  0.0352 -0.6448  0.1692
  964MOL0     H30100  10.900   0.037   0.799 -2.5953 -0.9769  0.3942
  964MOL0     H30101  10.910  -0.220   0.770  2.6565 -1.1611 -0.5936
  964MOL0     H30102  10.831  -0.289   0.630 -1.3370  1.2408  1.2465
  964MOL0     H30103  11.012  -0.248   0.634  0.8889  1.4321  0.5232
  964MOL0     H30104  10.815  -0.420   0.225 -0.0712  1.9513  1.1448
  964MOL0     H30105  10.745  -0.552   0.020 -0.4181  1.4860 -3.6848
  964MOL0     H30106  10.650  -0.645  -0.220  0.9163  0.6413  1.1781
  964MOL0     H30107  10.579  -0.659  -0.057 -3.3543 -4.5314 -1.2872
  964MOL0     H30108  10.419  -0.747  -0.184  2.0107  0.8439  4.4108
  964MOL0     H30109  10.359  -0.585  -0.202 -0.2315  0.1172 -0.6316
  964MOL0     H30110  10.337  -0.681  -0.424  0.2947 -1.5023  0.1983
  964MOL0     H30111  10.509  -0.741  -0.420  0.4556  0.6201 -1.1333
  964MOL0     H30112  10.569  -0.490  -0.415  0.8238 -1.2032 -0.5711
  964MOL0     H30113  10.502  -0.560  -0.565 -1.8970  0.4147 -0.4391
  964MOL0     H30114  10.343  -0.411  -0.355 -2.8117 -3.9156  0.7255
  964MOL0     H30115  10.282  -0.456  -0.514 -0.4606  0.5492  1.2267
  964MOL0     H30116  10.515  -0.264  -0.493  0.5448 -2.5505  0.1830
  964MOL0     H30117  10.428  -0.312  -0.640 -2.1619  0.3509 -0.5537
  964MOL0     H30118  10.293  -0.152  -0.420  2.3452 -2.8043  1.2005
  964MOL0     H30119  10.211  -0.226  -0.556 -0.3831  0.1137  0.7449
  964MOL0     H30120  10.325  -0.097  -0.718  0.5135  1.5078 -0.7296
  964MOL0     H30121  10.452  -0.055  -0.613 -0.5029 -1.9092 -1.2847
  964MOL0     H30122  10.537  -0.208  -0.129  0.3531  0.7139 -1.3309
  964MOL0     H30123  10.622  -0.074   0.054 -2.0028 -0.1923 -0.0216
  964MOL0     H30124  10.804   0.077   0.316  1.0997 -1.4198 -0.9364
  964MOL0     H30125  10.839   0.273   0.456 -0.1443  0.4644  1.3977
  964MOL0     H30126  10.001   1.263   1.581 -2.0528  0.5972  0.1411
  964MOL0     H30127   9.866   1.429   1.422  0.8280  0.8877 -2.2897
  964MOL0     H30128   9.851   2.067   1.316 -0.5647 -0.6738  2.0567
  964MOL0     H30129   9.692   2.152   1.147 -1.1438  0.0167  0.7885
  964MOL0     H30130   9.475   2.166   1.050 -0.9641 -0.0201  0.4573
  964MOL0     H30131   9.568   2.176   0.904  1.0127 -1.0614  0.5403
  964MOL0     H30132   9.300   2.056   0.941 -1.5794  2.3269 -0.3026
  964MOL0     H30133   9.391   2.022   0.795  0.1603 -1.8374  1.5853
  964MOL0     H30134   9.380   2.261   0.733 -1.0128  0.3264 -0.4112
  964MOL0     H30135   9.323   2.303   0.896  1.0980 -1.3656  1.1901
  964MOL0     H30136   9.095   2.187   0.855 -0.7360  0.1371  0.5171
  964MOL0     H30137   9.156   2.132   0.707  0.8287 -0.3229  0.2278
  964MOL0     H30138   9.066   2.528   0.602 -0.8825 -0.2244  0.2430
  964MOL0     H30139   9.625   1.752   1.021  0.2878  1.3191 -0.7063
  964MOL0     H30140   9.795   1.670   1.192 -2.8111 -1.4923  0.3628
  965MOL0     O30141   9.687   2.885   1.039  0.4693 -0.4187 -0.0655
  965MOL0     C30142   9.651   2.999   1.058  0.7566 -1.2103  0.0490
  965MOL0     O30143   9.550   3.060   0.994  0.0314 -0.2037  0.0051
  965MOL0     C30144   9.475   2.986   0.913 -0.1737  0.0327 -0.2031
  965MOL0     C30145   9.369   2.905   0.965  0.1139  0.5804  0.2106
  965MOL0     C30146   9.267   2.862   0.877  0.1145  0.1136 -0.5262
  965MOL0     C30147   9.264   2.902   0.740 -0.0664  0.1754 -0.0290
  965MOL0     O30148   9.170   2.856   0.654 -0.6315 -0.3030  0.0999
  965MOL0     C30149   9.206   2.838   0.515  0.2893  0.1339 -0.4228
  965MOL0     C30150   9.326   2.735   0.497  0.0312  0.5486 -0.0669
  965MOL0     C30151   9.351   2.717   0.348  0.6299 -0.2230  0.6746
  965MOL0     C30152   9.461   2.628   0.316  0.0093  0.1635  0.7934
  965MOL0     C30153   9.481   2.608   0.162  0.5572 -0.4362  0.4371
  965MOL0     C30154   9.447   2.458   0.135 -0.3742 -0.6314  0.8252
  965MOL0     C30155   9.470   2.417  -0.007  0.8759  0.1648  0.0167
  965MOL0     C30156   9.355   2.453  -0.110  0.0876 -0.2551 -0.4508
  965MOL0     N30157   9.387   2.403  -0.242 -0.4663  0.0903 -0.2451
  965MOL0     C30158   9.355   2.281  -0.283  0.1060  0.2500  0.4086
  965MOL0     C30159   9.410   2.274  -0.409 -1.0118  1.3500 -0.4545
  965MOL0     C30160   9.403   2.157  -0.505  1.7214  0.1025 -0.1560
  965MOL0     C30161   9.359   2.173  -0.646 -0.9580 -0.3926  0.0704
  965MOL0     C30162   9.212   2.180  -0.672  0.5477 -0.8749 -0.2156
  965MOL0     C30163   9.168   2.186  -0.822  0.8163  0.0932  0.3557
  965MOL0     O30164   9.034   2.156  -0.819  0.0675  0.3793 -0.2635
  965MOL0     C30165   8.958   2.205  -0.925  0.3272  1.3902  0.2970
  965MOL0     C30166   8.856   2.302  -0.911 -0.9864 -0.0390 -0.2068
  965MOL0     C30167   8.778   2.343  -1.017  0.1519 -0.3819  0.5787
  965MOL0     C30168   8.649   2.429  -0.996  0.1819  0.1441 -0.5308
  965MOL0     C30169   8.804   2.282  -1.144  0.3664 -0.4186 -0.4989
  965MOL0     C30170   8.727   2.336  -1.263 -0.9591  0.0353  0.0209
  965MOL0     O30171   8.670   2.238  -1.340 -0.0751  0.0537  0.0366
  965MOL0     C30172   8.633   2.256  -1.468  1.2640  0.4163 -0.3972
  965MOL0     C30173   8.517   2.325  -1.490  0.4925  0.8197 -0.2136
  965MOL0     C30174   8.458   2.349  -1.615  1.0333  0.3428 -0.6903
  965MOL0     C30175   8.514   2.287  -1.723  0.8055 -1.2462 -0.7854
  965MOL0     O30176   8.441   2.304  -1.841 -1.0156  0.1378 -0.3638
  965MOL0     C30177   8.472   2.215  -1.950  0.3833  1.4561  0.4021
  965MOL0     C30178   8.365   2.241  -2.050  0.2090 -1.0084  0.6568
  965MOL0     C30179   8.220   2.207  -1.996  0.0772  1.1330 -0.3613
  965MOL0     C30180   8.143   2.327  -1.961  0.2690  0.5798  0.4200
  965MOL0     C30181   8.057   2.376  -2.081  0.7479 -0.2172 -0.4148
  965MOL0     C30182   7.985   2.501  -2.046  0.0002 -0.0307  1.2673
  965MOL0     C30183   7.894   2.549  -2.167  0.2457 -0.2250 -0.3154
  965MOL0     C30184   7.850   2.699  -2.147  0.2607  0.2622  0.4187
  965MOL0    Cl30185   7.998   2.799  -2.188 -0.3202 -0.2770 -0.0773
  965MOL0     C30186   8.626   2.212  -1.709  0.4546 -0.0664 -0.1205
  965MOL0     C30187   8.681   2.193  -1.584  0.5841  0.5826 -1.1633
  965MOL0     O30188   8.726   2.454  -1.289 -0.2137  0.3837  0.3715
  965MOL0     C30189   8.905   2.190  -1.164 -1.0743  0.8708 -0.7430
  965MOL0     C30190   8.983   2.146  -1.056  0.4430 -0.7945 -0.3843
  965MOL0     N30191   9.456   2.396  -0.446  0.3972 -0.8773 -1.0123
  965MOL0     N30192   9.426   2.480  -0.342  0.0638  0.1641  0.7769
  965MOL0     C30193   9.380   2.979   0.696  0.4707 -0.1883 -0.1270
  965MOL0     C30194   9.479   3.018   0.784 -0.3686 -0.7736 -0.6607
  965MOL0     C30195   9.713   3.071   1.171 -0.0911  0.0609 -0.4895
  965MOL0     C30196   9.700   3.210   1.194 -0.8129 -0.6105  0.3895
  965MOL0     C30197   9.777   3.278   1.294  0.2145  0.4398  0.3295
  965MOL0     C30198   9.852   3.207   1.386 -0.6552 -1.0878 -0.1993
  965MOL0     O30199   9.898   3.281   1.492 -0.4801 -0.2282  0.4130
  965MOL0     C30200   9.997   3.217   1.566 -0.2130  0.0168  0.1916
  965MOL0     C30201  10.072   3.321   1.658  0.2037  0.3696 -0.2562
  965MOL0     C30202  10.197   3.386   1.597 -0.2981 -0.9254  0.5405
  965MOL0     C30203  10.172   3.434   1.459  0.6930 -0.6484  0.4477
  965MOL0     C30204  10.087   3.550   1.436  0.0567  0.1698 -0.9080
  965MOL0     C30205  10.002   3.632   1.408  0.7867 -0.1278  0.5901
  965MOL0     C30206   9.865   3.065   1.368 -0.5188 -0.8239  0.0114
  965MOL0     C30207   9.795   3.003   1.261  0.3257  0.0070 -0.2565
  965MOL0     H30208   9.359   2.871   1.068  4.7890 -1.1899  0.3440
  965MOL0     H30209   9.179   2.811   0.915 -0.1511  0.4321 -0.7102
  965MOL0     H30210   9.111   2.798   0.479 -2.9291  3.2782  3.5455
  965MOL0     H30211   9.227   2.936   0.470 -2.1152  1.2332  0.6592
  965MOL0     H30212   9.418   2.766   0.547  0.6711 -1.4388  0.0900
  965MOL0     H30213   9.276   2.644   0.531  0.2238  0.1248 -0.8820
  965MOL0     H30214   9.263   2.688   0.289  1.0351  0.1642 -0.1395
  965MOL0     H30215   9.380   2.813   0.304  1.0457 -1.3212 -1.6220
  965MOL0     H30216   9.558   2.671   0.341  0.0409  1.4546 -1.2926
  965MOL0     H30217   9.444   2.537   0.374  0.9806 -3.5024 -4.0123
  965MOL0     H30218   9.411   2.661   0.096  1.9656  1.5616  0.4487
  965MOL0     H30219   9.576   2.655   0.134 -0.0283  1.2268  1.0951
  965MOL0     H30220   9.516   2.396   0.192  0.5773  1.7080  2.3730
  965MOL0     H30221   9.351   2.425   0.174 -0.7200 -0.3718  0.2164
  965MOL0     H30222   9.568   2.446  -0.045 -0.0875  1.1646 -1.8211
  965MOL0     H30223   9.472   2.308   0.002 -0.7635  0.2814  3.1884
  965MOL0     H30224   9.352   2.561  -0.124 -1.8021 -0.2427 -0.1984
  965MOL0     H30225   9.249   2.431  -0.092 -0.6648  0.8406 -3.0280
  965MOL0     H30226   9.298   2.215  -0.219  0.8037 -0.3137  0.4609
  965MOL0     H30227   9.497   2.100  -0.504  0.5561 -1.9358 -0.0128
  965MOL0     H30228   9.332   2.090  -0.456  3.1273 -2.5469 -1.5064
  965MOL0     H30229   9.397   2.087  -0.703  0.2662  0.6878 -0.7913
  965MOL0     H30230   9.413   2.262  -0.680 -1.1286  0.1971  1.2829
  965MOL0     H30231   9.164   2.261  -0.616 -0.5522 -2.1446  0.7380
  965MOL0     H30232   9.164   2.090  -0.632  1.6933 -0.8431  1.2844
  965MOL0     H30233   9.221   2.107  -0.877 -1.0579 -1.1444  0.2251
  965MOL0     H30234   9.186   2.282  -0.870  0.1863  0.7312  1.3682
  965MOL0     H30235   8.831   2.325  -0.808  1.0313 -1.8916  0.7775
  965MOL0     H30236   8.668   2.534  -0.975 -5.2437  1.6911 -1.8581
  965MOL0     H30237   8.576   2.433  -1.078 -1.2643  0.3588  0.7125
  965MOL0     H30238   8.599   2.386  -0.908 -2.3019  0.8780 -1.4890
  965MOL0     H30239   8.480   2.358  -1.394  0.6730 -1.9166  0.8690
  965MOL0     H30240   8.360   2.393  -1.602  1.6170  1.1799  1.5888
  965MOL0     H30241   8.573   2.239  -1.985  1.6610 -3.5761 -0.0822
  965MOL0     H30242   8.477   2.112  -1.914 -1.8750  1.6723  1.5415
  965MOL0     H30243   8.372   2.345  -2.083  0.1036 -1.1882  0.0541
  965MOL0     H30244   8.405   2.183  -2.134 -1.7473  0.6192 -1.5393
  965MOL0     H30245   8.232   2.141  -1.910  1.5214  2.0300  0.1824
  965MOL0     H30246   8.174   2.144  -2.072 -0.9498  3.1388 -1.4814
  965MOL0     H30247   8.075   2.301  -1.879 -0.9355  1.8869 -0.1259
  965MOL0     H30248   8.213   2.402  -1.922 -0.6385  1.2211  0.8538
  965MOL0     H30249   7.985   2.300  -2.113  1.8813 -0.0258 -3.7750
  965MOL0     H30250   8.115   2.385  -2.173  0.8777  3.1164 -0.1081
  965MOL0     H30251   7.924   2.483  -1.957 -2.6946 -1.8781 -0.8102
  965MOL0     H30252   8.054   2.581  -2.017 -2.4545  3.5819 -1.7477
  965MOL0     H30253   7.806   2.484  -2.170  0.3736 -0.4338  0.3736
  965MOL0     H30254   7.935   2.548  -2.269 -1.2545  5.3540 -1.3469
  965MOL0     H30255   7.826   2.709  -2.041 -1.2803  0.0082  0.1135
  965MOL0     H30256   7.765   2.723  -2.212  0.7102  0.9491  0.0662
  965MOL0     H30257   8.654   2.167  -1.803  0.2021  0.1615 -0.3091
  965MOL0     H30258   8.762   2.122  -1.573 -2.3245 -3.0876 -1.3988
  965MOL0     H30259   8.923   2.134  -1.256 -0.3752  0.0554 -0.1231
  965MOL0     H30260   9.068   2.080  -1.065  0.6405 -0.3737 -1.8040
  965MOL0     H30261   9.382   3.008   0.592  0.0370  0.9761  0.1804
  965MOL0     H30262   9.564   3.079   0.754  0.3833  0.7974  3.9378
  965MOL0     H30263   9.643   3.277   1.131  0.1335  3.4322  3.3875
  965MOL0     H30264   9.762   3.385   1.290 -0.1783  0.3529 -1.6065
  965MOL0     H30265   9.950   3.141   1.629  0.1151 -2.0973 -1.9752
  965MOL0     H30266  10.067   3.160   1.504  1.4484  0.3193  1.6904
  965MOL0     H30267  10.097   3.255   1.741  0.3028  0.6650 -0.0516
  965MOL0     H30268  10.007   3.397   1.703 -0.2501  0.1587 -0.5493
  965MOL0     H30269  10.277   3.313   1.582  2.0154  1.0226  2.4034
  965MOL0     H30270  10.225   3.470   1.661 -0.9457  0.7304 -1.2503
  965MOL0     H30271  10.139   3.352   1.395  0.9157 -0.5308  0.1780
  965MOL0     H30272  10.265   3.469   1.412 -0.2864 -1.8910 -2.6446
  965MOL0     H30273   9.922   3.700   1.391  0.3642 -1.1405 -1.8561
  965MOL0     H30274   9.923   3.002   1.434 -1.0895  0.9638  2.3719
  965MOL0     H30275   9.789   2.895   1.255  1.9384 -0.1659  0.6208
  966MOL0     O30276   7.107   4.757  11.162  0.1047  0.0287 -0.8498
  966MOL0     C30277   7.076   4.639  11.161  0.4813  0.5420  0.3425
  966MOL0     O30278   7.144   4.535  11.114  0.4413  0.2630  0.3424
  966MOL0     C30279   7.277   4.557  11.086 -0.2696  0.4209  0.9436
  966MOL0     C30280   7.333   4.666  11.019 -1.1738  0.0927  0.2749
  966MOL0     C30281   7.479   4.664  11.007 -0.2170  0.3638 -0.9693
  966MOL0     C30282   7.557   4.545  11.046 -0.9973 -0.2607  0.3937
  966MOL0     O30283   7.698   4.557  11.030 -0.4720 -0.0465  0.1131
  966MOL0     C30284   7.752   4.591  10.904  0.4782 -0.1440 -0.3700
  966MOL0     C30285   7.824   4.724  10.919 -1.2613  0.4103  0.9735
  966MOL0     C30286   7.861   4.798  10.787  0.0668  0.1409  0.0413
  966MOL0     C30287   7.984   4.757  10.720  0.2314 -0.2684 -0.2649
  966MOL0     C30288   8.038   4.869  10.621  0.5238 -0.5108 -0.4484
  966MOL0     C30289   8.165   4.826  10.536  0.7576  0.3328 -0.0683
  966MOL0     C30290   8.222   4.930  10.436 -0.2253 -0.0101 -0.5266
  966MOL0     C30291   8.245   5.060  10.511  0.0476 -0.9282 -0.2655
  966MOL0     N30292   8.271   5.161  10.417  0.1787  0.2994  0.3893
  966MOL0     C30293   8.357   5.168  10.309 -0.2850 -0.2594  0.1688
  966MOL0     C30294   8.351   5.291  10.262  0.1861 -0.2640  0.2241
  966MOL0     C30295   8.410   5.330  10.133  0.8062  0.3837 -0.4120
  966MOL0     C30296   8.555   5.347  10.157 -0.3976 -0.2302 -0.4503
  966MOL0     C30297   8.627   5.397  10.031  0.6133 -0.2979 -0.5031
  966MOL0     C30298   8.781   5.391  10.057 -0.3306 -0.3985 -0.2567
  966MOL0     O30299   8.850   5.461   9.954  0.0154 -0.2713 -0.2644
  966MOL0     C30300   8.984   5.501   9.960  0.5769  0.3438  0.6927
  966MOL0     C30301   9.019   5.608   9.875 -0.0321  1.0988 -0.3658
  966MOL0     C30302   9.126   5.686   9.901 -0.5967 -0.2320 -0.3668
  966MOL0     C30303   9.128   5.808   9.819  0.1133  1.2355  0.5751
  966MOL0     C30304   9.226   5.646   9.997 -0.5999  0.8106 -0.3212
  966MOL0     C30305   9.353   5.726  10.022  0.3985  0.5418 -0.2438
  966MOL0     O30306   9.420   5.673  10.127 -0.5359 -0.4894 -0.1969
  966MOL0     C30307   9.496   5.754  10.207  0.0076 -0.1235  0.6369
  966MOL0     C30308   9.585   5.855  10.159  0.6077  0.3386  0.4000
  966MOL0     C30309   9.630   5.960  10.235  0.5400 -0.3493 -0.1776
  966MOL0     C30310   9.592   5.961  10.372  0.5434 -0.9451  0.1714
  966MOL0     O30311   9.641   6.049  10.465  0.3440 -0.8106 -0.3086
  966MOL0     C30312   9.676   6.180  10.421 -0.8247  1.0408  0.2300
  966MOL0     C30313   9.753   6.251  10.525  0.1646 -0.1031 -0.6967
  966MOL0     C30314   9.684   6.384  10.562  0.5861  0.4391 -0.3156
  966MOL0     C30315   9.583   6.357  10.675  0.6187 -0.0265  0.0038
  966MOL0     C30316   9.529   6.482  10.745 -1.3127 -0.6525 -0.4753
  966MOL0     C30317   9.625   6.510  10.861 -0.5013 -0.4506 -0.1703
  966MOL0     C30318   9.573   6.639  10.915 -0.0034  0.2466 -0.3351
  966MOL0     C30319   9.669   6.713  11.010  0.4101 -0.5140 -0.0910
  966MOL0    Cl30320   9.800   6.799  10.917 -0.1269  0.2899  0.3070
  966MOL0     C30321   9.489   5.868  10.413  0.3241  0.3544  0.1121
  966MOL0     C30322   9.452   5.757  10.337 -0.4691 -0.2508 -0.1022
  966MOL0     O30323   9.371   5.832   9.967 -0.5993 -0.6948  0.0813
  966MOL0     C30324   9.199   5.524  10.061 -0.7618  1.1899 -0.2708
  966MOL0     C30325   9.077   5.458  10.049  0.1822 -0.1984 -0.0790
  966MOL0     N30326   8.282   5.366  10.357 -0.0389 -0.2601  0.0846
  966MOL0     N30327   8.229   5.291  10.449  0.3514  0.4796 -0.1393
  966MOL0     C30328   7.501   4.441  11.111  0.9091 -0.6191  0.0909
  966MOL0     C30329   7.361   4.444  11.124 -0.1775  0.3496  0.8479
  966MOL0     C30330   6.939   4.600  11.210 -0.5031 -0.2898  0.4693
  966MOL0     C30331   6.839   4.697  11.250 -0.1134 -0.7035  0.0593
  966MOL0     C30332   6.720   4.655  11.302 -0.5015  0.4451 -0.6662
  966MOL0     C30333   6.691   4.519  11.313  0.1441  0.8244 -0.0387
  966MOL0     O30334   6.568   4.477  11.369  0.4880  0.2269 -0.1773
  966MOL0     C30335   6.534   4.336  11.404  0.2989 -0.0923  0.4175
  966MOL0     C30336   6.499   4.239  11.294  0.0125 -0.7930  1.1618
  966MOL0     C30337   6.408   4.128  11.335  0.3198 -1.0480  0.1178
  966MOL0     C30338   6.459   4.047  11.456  0.3392  0.0262 -0.3389
  966MOL0     C30339   6.599   4.010  11.447 -0.5946  0.0939  0.0499
  966MOL0     C30340   6.712   3.967  11.443 -0.1839 -0.2199  0.7710
  966MOL0     C30341   6.781   4.426  11.280  0.5122  0.0256  0.1852
  966MOL0     C30342   6.901   4.466  11.226 -0.4628 -0.3567 -0.3533
  966MOL0     H30343   7.287   4.762  10.999 -0.1656 -0.0832 -3.8302
  966MOL0     H30344   7.524   4.760  10.987  0.1915 -0.0402 -2.1062
  966MOL0     H30345   7.824   4.512  10.880 -0.7378 -1.3579 -0.1497
  966MOL0     H30346   7.671   4.607  10.832 -0.8103 -3.8307  0.0442
  966MOL0     H30347   7.765   4.786  10.987 -0.5797 -0.1819  2.1358
  966MOL0     H30348   7.918   4.708  10.972 -0.2090 -0.2806 -1.0053
  966MOL0     H30349   7.779   4.797  10.716  0.5155  0.2453 -0.4815
  966MOL0     H30350   7.875   4.903  10.816 -0.3536  0.5451 -1.2014
  966MOL0     H30351   8.059   4.736  10.797  0.2348 -2.7593 -0.8826
  966MOL0     H30352   7.961   4.660  10.675 -0.0027  0.4430 -1.7206
  966MOL0     H30353   7.963   4.915  10.557  1.2004 -0.5872 -1.3069
  966MOL0     H30354   8.054   4.936  10.706 -3.3945 -2.3728  2.0708
  966MOL0     H30355   8.247   4.783  10.594 -0.8031 -2.8285  0.0207
  966MOL0     H30356   8.128   4.739  10.482  2.3467 -0.5954  0.2669
  966MOL0     H30357   8.317   4.898  10.391 -0.4966  1.6963 -2.4709
  966MOL0     H30358   8.137   4.937  10.368 -0.4053 -1.0963 -0.4367
  966MOL0     H30359   8.339   5.057  10.568  0.1700  2.0329 -0.1539
  966MOL0     H30360   8.160   5.076  10.578  0.1724 -1.1863 -0.0445
  966MOL0     H30361   8.406   5.090  10.253  1.4023  1.9645 -1.6602
  966MOL0     H30362   8.396   5.245  10.066 -0.3097 -0.1700  0.4913
  966MOL0     H30363   8.367   5.427  10.104  1.4302  0.1997 -2.0775
  966MOL0     H30364   8.586   5.245  10.184 -0.5877 -0.5705 -1.4966
  966MOL0     H30365   8.581   5.413  10.240  0.4486 -2.5989  1.2935
  966MOL0     H30366   8.601   5.499  10.003  1.5301 -0.0046 -0.3051
  966MOL0     H30367   8.601   5.335   9.945  0.2254  1.2115 -1.5135
  966MOL0     H30368   8.817   5.288  10.059  2.2008  0.3910 -1.0007
  966MOL0     H30369   8.774   5.442  10.154 -2.9330 -1.0688 -0.0183
  966MOL0     H30370   8.950   5.652   9.804 -0.3306  1.1436 -0.0565
  966MOL0     H30371   9.031   5.817   9.768  0.2858 -1.0862 -0.2971
  966MOL0     H30372   9.141   5.896   9.882  2.2953 -0.6771  2.9953
  966MOL0     H30373   9.216   5.809   9.754  0.2495 -1.3824  0.6059
  966MOL0     H30374   9.616   5.858  10.055  0.6008  2.0366  0.4144
  966MOL0     H30375   9.697   6.032  10.190 -0.1965  1.0445  0.8922
  966MOL0     H30376   9.737   6.186  10.330  0.6464 -0.5418  1.0300
  966MOL0     H30377   9.586   6.231  10.386 -0.5222  0.3786 -1.6326
  966MOL0     H30378   9.763   6.190  10.615 -2.0555  3.1217  1.9872
  966MOL0     H30379   9.856   6.277  10.499 -0.1019  1.9307  0.1055
  966MOL0     H30380   9.641   6.426  10.470  0.8141  2.4761  0.4435
  966MOL0     H30381   9.762   6.455  10.591 -0.5109  1.6917 -0.3070
  966MOL0     H30382   9.497   6.303  10.635  0.8181  0.1191 -0.6404
  966MOL0     H30383   9.635   6.294  10.748 -1.0683 -2.7642 -0.9907
  966MOL0     H30384   9.429   6.465  10.786 -1.3167  3.0075  1.4194
  966MOL0     H30385   9.526   6.561  10.669 -2.9145  2.9083  2.9792
  966MOL0     H30386   9.620   6.432  10.938  1.3591 -2.0260 -1.5579
  966MOL0     H30387   9.723   6.518  10.813  0.0561 -2.8137  0.4371
  966MOL0     H30388   9.483   6.626  10.977  0.2432  4.1864  1.1818
  966MOL0     H30389   9.530   6.699  10.834  2.8124 -0.2814 -2.3386
  966MOL0     H30390   9.718   6.633  11.068 -0.7647  0.2484  2.0514
  966MOL0     H30391   9.611   6.778  11.075 -0.8820 -1.1449 -0.5934
  966MOL0     H30392   9.444   5.867  10.511 -1.4787 -0.4528 -0.6772
  966MOL0     H30393   9.374   5.691  10.372 -1.2355 -0.8848 -2.7321
  966MOL0     H30394   9.264   5.492  10.142  1.0926  1.7550 -1.4648
  966MOL0     H30395   9.047   5.382  10.120  2.6885 -1.5331 -0.3441
  966MOL0     H30396   7.564   4.369  11.163  0.8197 -0.5910  0.2399
  966MOL0     H30397   7.319   4.352  11.163  0.9375 -1.5528 -2.0290
  966MOL0     H30398   6.865   4.803  11.243  0.7749 -0.9196 -0.0072
  966MOL0     H30399   6.660   4.738  11.340  1.0716  0.5042  1.8592
  966MOL0     H30400   6.613   4.286  11.462 -1.2842 -2.9918  0.2962
  966MOL0     H30401   6.442   4.342  11.464 -0.5863  0.7877 -0.9862
  966MOL0     H30402   6.591   4.200  11.248 -0.5266 -0.6311 -0.1123
  966MOL0     H30403   6.455   4.299  11.213  1.1481 -1.2823  0.1412
  966MOL0     H30404   6.393   4.071  11.243 -2.3167 -1.6166  0.8186
  966MOL0     H30405   6.310   4.172  11.352  0.9870  0.7072 -0.3344
  966MOL0     H30406   6.400   3.961  11.488  1.8902 -0.4702  1.3402
  966MOL0     H30407   6.454   4.114  11.542  3.6415 -0.4816  0.3682
  966MOL0     H30408   6.806   3.922  11.417 -0.3636  0.4355 -1.1713
  966MOL0     H30409   6.782   4.321  11.305 -0.1953 -0.8969 -3.1435
  966MOL0     H30410   6.968   4.389  11.191  2.7743  2.2696 -0.5345
  967MOL0     O30411   6.800  10.768   1.876 -0.6689 -1.0866 -0.5121
  967MOL0     C30412   6.775  10.716   1.987 -0.2040 -0.0221 -0.4200
  967MOL0     O30413   6.657  10.675   2.022  0.8009 -0.0860  0.0123
  967MOL0     C30414   6.558  10.670   1.924  0.7872 -1.0683 -0.2234
  967MOL0     C30415   6.491  10.545   1.897 -0.2297 -1.2293 -0.1594
  967MOL0     C30416   6.388  10.541   1.803  0.2169  0.0540  0.8751
  967MOL0     C30417   6.348  10.655   1.727 -0.3942  0.4253  0.3524
  967MOL0     O30418   6.254  10.659   1.632 -0.5001  1.0151 -0.1992
  967MOL0     C30419   6.186  10.539   1.600  0.0086 -0.0793  0.1907
  967MOL0     C30420   6.072  10.564   1.495 -0.6556  0.8378 -0.4665
  967MOL0     C30421   5.961  10.639   1.548  0.4455 -0.3342 -0.0620
  967MOL0     C30422   5.954  10.786   1.501 -0.0685  0.6757 -0.0485
  967MOL0     C30423   5.927  10.805   1.353  0.7118 -0.3161 -0.1110
  967MOL0     C30424   5.834  10.708   1.286 -0.0523  0.0773 -0.4529
  967MOL0     C30425   5.681  10.703   1.342 -0.2464  0.0703 -0.2545
  967MOL0     C30426   5.587  10.785   1.251 -0.0251 -0.5389 -0.0291
  967MOL0     N30427   5.443  10.788   1.292 -0.3754  0.3818  0.7759
  967MOL0     C30428   5.356  10.687   1.248  0.6530 -0.1440 -0.0003
  967MOL0     C30429   5.237  10.726   1.309 -0.0419  0.1410 -0.6331
  967MOL0     C30430   5.120  10.641   1.312 -0.7755  0.1288  0.6633
  967MOL0     C30431   4.998  10.716   1.250  0.2184 -0.5596 -0.4001
  967MOL0     C30432   4.879  10.624   1.266  0.0753 -0.3615  0.1882
  967MOL0     C30433   4.773  10.631   1.169 -0.1849 -0.1536  0.6117
  967MOL0     O30434   4.803  10.555   1.048  0.2171 -0.1736  0.0675
  967MOL0     C30435   4.724  10.570   0.937  0.2907 -0.2582 -0.1578
  967MOL0     C30436   4.604  10.644   0.934  0.3744  1.3571  0.4094
  967MOL0     C30437   4.515  10.662   0.819  0.3736 -0.6469  0.4057
  967MOL0     C30438   4.399  10.752   0.834  0.7715 -0.1449  0.1188
  967MOL0     C30439   4.549  10.582   0.707 -0.4219  0.1085 -0.3775
  967MOL0     C30440   4.471  10.579   0.579  0.4719 -0.8015 -0.4665
  967MOL0     O30441   4.514  10.494   0.480 -0.0980 -1.2130 -0.1888
  967MOL0     C30442   4.459  10.487   0.353 -1.1964 -0.5854 -0.5034
  967MOL0     C30443   4.527  10.410   0.262  0.4198  0.6484  0.3451
  967MOL0     C30444   4.477  10.402   0.126 -0.0257  0.2341 -0.2306
  967MOL0     C30445   4.352  10.453   0.077  0.0819 -0.3021  0.4354
  967MOL0     O30446   4.306  10.444  -0.050 -0.2507  0.1024 -0.1284
  967MOL0     C30447   4.304  10.569  -0.108  0.7774 -0.2204  0.4437
  967MOL0     C30448   4.350  10.563  -0.247  0.1719  0.6203 -0.5300
  967MOL0     C30449   4.328  10.686  -0.331  0.1813 -1.0084  0.2641
  967MOL0     C30450   4.193  10.774  -0.324 -0.8757 -0.8280  0.4108
  967MOL0     C30451   4.059  10.692  -0.375 -0.4302 -0.2160 -1.0875
  967MOL0     C30452   4.086  10.645  -0.524  0.4066 -0.1388 -0.4722
  967MOL0     C30453   3.960  10.621  -0.608 -0.5435 -0.6702 -1.0351
  967MOL0     C30454   3.963  10.480  -0.668 -0.0442  1.0617 -0.5437
  967MOL0    Cl30455   4.021  10.484  -0.825  0.3332 -0.0986 -0.1225
  967MOL0     C30456   4.287  10.531   0.173  0.6762  0.8118  0.2733
  967MOL0     C30457   4.339  10.550   0.307  0.2604  0.1577 -0.1510
  967MOL0     O30458   4.379  10.659   0.566 -0.0610 -0.9631  0.0397
  967MOL0     C30459   4.665  10.500   0.713  0.4610 -0.7905 -0.7619
  967MOL0     C30460   4.756  10.494   0.824  0.3018  0.2882  1.6229
  967MOL0     N30461   5.246  10.850   1.365  0.2413 -0.4863  0.2040
  967MOL0     N30462   5.366  10.885   1.353  0.4046  0.0704 -0.4011
  967MOL0     C30463   6.416  10.776   1.754 -0.6434  0.8070 -1.1508
  967MOL0     C30464   6.519  10.791   1.852 -0.5225 -0.7672 -0.5151
  967MOL0     C30465   6.887  10.686   2.087 -0.1434  0.0381  0.0690
  967MOL0     C30466   6.858  10.614   2.202 -0.2115 -0.6901 -0.2383
  967MOL0     C30467   6.964  10.566   2.276  0.3995  0.4164  0.4447
  967MOL0     C30468   7.093  10.605   2.260 -0.4562  0.5033  0.9811
  967MOL0     O30469   7.167  10.537   2.351 -0.6668 -0.1489  0.9933
  967MOL0     C30470   7.303  10.567   2.362  0.2583  0.5680 -0.6095
  967MOL0     C30471   7.354  10.536   2.503 -0.0309 -1.0417  0.0543
  967MOL0     C30472   7.322  10.640   2.616 -0.8474  0.6413  0.0080
  967MOL0     C30473   7.186  10.691   2.642  0.2803 -0.3437  0.0923
  967MOL0     C30474   7.183  10.804   2.735  0.3235 -1.0765  0.6835
  967MOL0     C30475   7.203  10.901   2.796  0.3638  0.6755  0.3975
  967MOL0     C30476   7.121  10.688   2.148 -0.9647 -0.9433 -0.7082
  967MOL0     C30477   7.015  10.726   2.062  0.4459  0.3772  0.2381
  967MOL0     H30478   6.514  10.455   1.953 -0.7417 -2.2568 -1.5544
  967MOL0     H30479   6.355  10.439   1.784  0.5879  0.7589 -5.6047
  967MOL0     H30480   6.260  10.478   1.547 -2.5721 -0.8155 -2.8772
  967MOL0     H30481   6.134  10.500   1.688  0.8739  1.7531  1.6010
  967MOL0     H30482   6.121  10.612   1.410  2.2045  2.7856  2.0534
  967MOL0     H30483   6.033  10.465   1.472  3.6793 -1.8140  2.2890
  967MOL0     H30484   5.869  10.584   1.524 -0.7855  1.7122 -0.2579
  967MOL0     H30485   5.955  10.648   1.656  1.3001  2.8054 -0.1817
  967MOL0     H30486   5.873  10.840   1.549 -1.5010  2.1376 -3.7205
  967MOL0     H30487   6.051  10.833   1.519  0.7660 -0.9471 -0.1047
  967MOL0     H30488   5.879  10.903   1.345  0.9406 -0.3052 -1.5355
  967MOL0     H30489   6.021  10.804   1.297  0.8102  0.8771  0.0112
  967MOL0     H30490   5.826  10.723   1.178 -1.5491  0.6632 -0.2864
  967MOL0     H30491   5.869  10.609   1.315 -1.4227  0.6839  4.1791
  967MOL0     H30492   5.641  10.601   1.338 -2.3097  0.8313 -0.7939
  967MOL0     H30493   5.675  10.730   1.448  0.8616  0.0256 -0.1708
  967MOL0     H30494   5.592  10.744   1.150  0.1076 -1.5203  0.3661
  967MOL0     H30495   5.620  10.889   1.243  3.0624 -1.3835  0.3239
  967MOL0     H30496   5.380  10.595   1.195 -0.4543  0.2444 -1.2535
  967MOL0     H30497   5.134  10.558   1.243 -2.0063  0.0579  0.4741
  967MOL0     H30498   5.101  10.604   1.413 -1.7373  1.7662  1.1215
  967MOL0     H30499   5.012  10.736   1.143  0.9716 -0.5764 -0.3140
  967MOL0     H30500   4.975  10.812   1.296 -0.8965 -0.2107 -1.6308
  967MOL0     H30501   4.831  10.646   1.362 -3.8225  2.4831 -2.1255
  967MOL0     H30502   4.921  10.523   1.261  0.3689 -0.2516  0.3836
  967MOL0     H30503   4.758  10.737   1.146 -1.3052 -0.1420  1.3327
  967MOL0     H30504   4.676  10.607   1.214 -1.8225  2.2396 -1.3454
  967MOL0     H30505   4.583  10.715   1.014  0.7585  2.3286 -0.3393
  967MOL0     H30506   4.398  10.789   0.936 -0.6923  3.6038 -1.0799
  967MOL0     H30507   4.410  10.843   0.773 -4.4352 -0.0187 -1.1317
  967MOL0     H30508   4.300  10.709   0.811 -0.1252  1.2109  1.2886
  967MOL0     H30509   4.611  10.348   0.290 -0.2532 -0.6387 -0.4082
  967MOL0     H30510   4.528  10.335   0.057 -1.7316 -0.9900 -0.3777
  967MOL0     H30511   4.197  10.592  -0.114  0.8816  0.1633  0.0357
  967MOL0     H30512   4.358  10.648  -0.055 -0.2918  1.4794 -0.9066
  967MOL0     H30513   4.457  10.539  -0.237  0.9602  3.9318  0.0179
  967MOL0     H30514   4.300  10.474  -0.286  1.5270 -0.6303  0.4617
  967MOL0     H30515   4.334  10.655  -0.436 -2.7278 -0.9909  0.0138
  967MOL0     H30516   4.418  10.747  -0.318  0.8967 -1.5127 -1.9168
  967MOL0     H30517   4.183  10.816  -0.224 -0.4635 -2.7583  1.3136
  967MOL0     H30518   4.195  10.860  -0.391  3.0355  0.3699  1.8203
  967MOL0     H30519   3.972  10.758  -0.365  0.8052  1.1892  2.0288
  967MOL0     H30520   4.037  10.607  -0.310  1.7397 -1.5515 -2.0003
  967MOL0     H30521   4.147  10.721  -0.574  1.1307 -2.2556 -3.0155
  967MOL0     H30522   4.139  10.550  -0.513 -2.6775 -1.7096  2.7131
  967MOL0     H30523   3.966  10.696  -0.687 -3.3695  0.7822  0.0131
  967MOL0     H30524   3.878  10.638  -0.537 -0.2310 -1.8461 -0.3705
  967MOL0     H30525   3.859  10.444  -0.664  1.1309 -2.6479  2.6950
  967MOL0     H30526   4.021  10.406  -0.613  0.1345  3.6909  3.1761
  967MOL0     H30527   4.192  10.567   0.134  0.7916  0.7758 -0.0419
  967MOL0     H30528   4.288  10.619   0.373 -1.0228 -2.9073  2.3116
  967MOL0     H30529   4.696  10.450   0.621  1.5904 -1.7306  0.0970
  967MOL0     H30530   4.851  10.443   0.822 -0.5184 -1.2516  0.3887
  967MOL0     H30531   6.377  10.868   1.711 -2.1328  1.5435  1.5073
  967MOL0     H30532   6.554  10.893   1.859 -2.8865  0.1031 -0.6609
  967MOL0     H30533   6.756  10.592   2.231  0.1080  1.6007  3.2862
  967MOL0     H30534   6.935  10.484   2.341  1.0666  1.0022  1.5097
  967MOL0     H30535   7.351  10.505   2.285  0.9522  1.2960 -0.7779
  967MOL0     H30536   7.316  10.669   2.324  0.0163  0.8451  0.0463
  967MOL0     H30537   7.461  10.520   2.490  0.0604 -1.3702  1.1247
  967MOL0     H30538   7.330  10.434   2.535  0.7847 -0.2034  3.8533
  967MOL0     H30539   7.386  10.728   2.604  0.7420 -0.1456  2.0551
  967MOL0     H30540   7.355  10.590   2.708  1.3639 -0.0145 -1.0769
  967MOL0     H30541   7.128  10.606   2.677 -1.7027  1.1549  0.5894
  967MOL0     H30542   7.131  10.724   2.553 -2.2727 -1.6405  1.1242
  967MOL0     H30543   7.221  10.988   2.855  1.8700 -1.1417  2.8171
  967MOL0     H30544   7.216  10.735   2.126 -0.8832 -0.6929  0.1600
  967MOL0     H30545   7.025  10.778   1.968 -3.8008  0.8857 -0.1547
  968MOL0     O30546   5.613   5.580   2.432 -0.0279 -0.0392  0.0943
  968MOL0     C30547   5.639   5.678   2.499 -0.3886 -0.8327  0.0063
  968MOL0     O30548   5.681   5.805   2.453 -0.2561 -0.5222 -0.4268
  968MOL0     C30549   5.658   5.848   2.323  0.5170 -0.6696  0.8426
  968MOL0     C30550   5.562   5.801   2.229  0.2401 -0.0612  0.4653
  968MOL0     C30551   5.543   5.865   2.100  0.0843 -0.1242 -0.5402
  968MOL0     C30552   5.633   5.962   2.050  0.0738 -0.2354 -0.5249
  968MOL0     O30553   5.639   6.020   1.925  0.5128  0.5642 -0.1580
  968MOL0     C30554   5.551   5.968   1.824  0.1838 -0.1001  0.8120
  968MOL0     C30555   5.560   6.065   1.702 -0.4942 -0.1182 -0.7379
  968MOL0     C30556   5.511   6.201   1.747  0.4925  0.1282 -0.3796
  968MOL0     C30557   5.545   6.305   1.649  0.2466  0.2470  0.2090
  968MOL0     C30558   5.541   6.445   1.702 -0.0653 -1.0913  0.4121
  968MOL0     C30559   5.415   6.490   1.770  0.6333  0.5201 -0.1976
  968MOL0     C30560   5.433   6.634   1.813 -0.5650 -0.3340 -0.9326
  968MOL0     C30561   5.493   6.733   1.709  0.3796 -0.6185  0.2098
  968MOL0     N30562   5.425   6.857   1.740  0.1288 -0.3637 -0.7655
  968MOL0     C30563   5.457   6.934   1.847  0.8220  0.1989  0.5894
  968MOL0     C30564   5.350   7.022   1.862  0.7918  0.7301  0.3536
  968MOL0     C30565   5.344   7.128   1.965  0.2823  0.0610  0.5678
  968MOL0     C30566   5.246   7.100   2.083  0.9152  0.1734 -0.0225
  968MOL0     C30567   5.255   6.965   2.152  0.0031 -0.0349  0.4117
  968MOL0     C30568   5.393   6.929   2.210 -0.2761  1.7005 -0.2403
  968MOL0     O30569   5.444   7.049   2.284 -0.3455  0.4776  0.0104
  968MOL0     C30570   5.550   7.032   2.379 -0.0318 -0.1889  0.1339
  968MOL0     C30571   5.643   6.934   2.359 -0.2533 -0.0244  0.0405
  968MOL0     C30572   5.757   6.927   2.432  0.6428 -0.1560 -0.1569
  968MOL0     C30573   5.858   6.823   2.385  0.2103 -0.6561  0.0664
  968MOL0     C30574   5.780   7.018   2.539 -0.1063 -0.4504  0.0250
  968MOL0     C30575   5.907   7.030   2.604 -0.3930  0.6124  0.1533
  968MOL0     O30576   5.909   7.040   2.742 -0.1877 -0.0639  0.3803
  968MOL0     C30577   6.023   7.020   2.813  0.3067  0.3198  0.1357
  968MOL0     C30578   5.992   7.008   2.950  0.6849  0.4079 -0.9931
  968MOL0     C30579   6.085   7.005   3.050 -0.0185 -0.2467  0.8861
  968MOL0     C30580   6.220   7.000   3.016  0.4765  0.0742 -0.0394
  968MOL0     O30581   6.318   6.994   3.112 -0.3338  0.7933 -0.7715
  968MOL0     C30582   6.413   7.094   3.124  0.5321 -0.9156 -0.7665
  968MOL0     C30583   6.552   7.044   3.081  0.6154  0.0897 -0.8538
  968MOL0     C30584   6.642   7.165   3.085 -1.3248 -0.6453 -0.7735
  968MOL0     C30585   6.782   7.099   3.075  0.4319 -0.4996 -0.9831
  968MOL0     C30586   6.884   7.206   3.118  0.8408  0.6431  0.0158
  968MOL0     C30587   7.026   7.160   3.111  0.1015  0.7540  0.6211
  968MOL0     C30588   7.085   7.216   2.976  0.0745 -0.7805  0.4375
  968MOL0     C30589   7.222   7.165   2.943 -0.1029  0.7534  0.4630
  968MOL0    Cl30590   7.224   6.997   2.884  0.0390 -0.0540 -0.5722
  968MOL0     C30591   6.257   7.013   2.882  0.5052 -0.5349 -0.0141
  968MOL0     C30592   6.159   7.018   2.779 -0.9901  0.3075 -1.0706
  968MOL0     O30593   6.006   7.024   2.529 -0.1107 -0.2959 -0.3163
  968MOL0     C30594   5.676   7.116   2.573  0.0674  0.6673 -0.2835
  968MOL0     C30595   5.555   7.121   2.491 -0.5369  0.4414 -0.9393
  968MOL0     N30596   5.260   6.995   1.763  0.2518  1.0231 -0.9250
  968MOL0     N30597   5.299   6.895   1.690  0.2168  0.4225 -0.8538
  968MOL0     C30598   5.726   6.008   2.145  0.6914  0.7190 -0.1652
  968MOL0     C30599   5.743   5.957   2.276 -0.4494  0.8395 -0.0095
  968MOL0     C30600   5.647   5.655   2.650 -0.3588  0.0076 -1.1044
  968MOL0     C30601   5.673   5.778   2.728  0.1169  0.5992 -0.1197
  968MOL0     C30602   5.684   5.766   2.865  0.1671  0.5749 -0.3039
  968MOL0     C30603   5.662   5.638   2.928 -0.8082  0.4099  0.5424
  968MOL0     O30604   5.689   5.629   3.064  0.0225 -0.1053 -0.1032
  968MOL0     C30605   5.590   5.557   3.151 -1.1950  0.7911 -0.3371
  968MOL0     C30606   5.544   5.648   3.271  0.8347 -0.8113  1.0995
  968MOL0     C30607   5.639   5.643   3.391  0.1376  0.7256 -0.3020
  968MOL0     C30608   5.777   5.712   3.373  0.2291  0.3226  0.1675
  968MOL0     C30609   5.763   5.844   3.310 -0.5651 -0.5967  0.1389
  968MOL0     C30610   5.755   5.946   3.253  1.2125 -0.4389 -1.1331
  968MOL0     C30611   5.625   5.522   2.855  0.1261 -0.5658  0.5632
  968MOL0     C30612   5.621   5.531   2.717 -0.3800 -0.3949  0.0400
  968MOL0     H30613   5.500   5.721   2.268  0.3670 -0.1793  0.4247
  968MOL0     H30614   5.472   5.838   2.022 -0.9399  0.5574  0.1246
  968MOL0     H30615   5.567   5.863   1.798  3.2143  0.1751  1.1836
  968MOL0     H30616   5.449   5.983   1.861 -0.8940 -1.6738 -1.3366
  968MOL0     H30617   5.662   6.066   1.664  0.4916  1.5891  1.7009
  968MOL0     H30618   5.490   6.025   1.628 -1.4130 -0.4953  0.3037
  968MOL0     H30619   5.403   6.184   1.752  0.9813 -3.6480  2.7286
  968MOL0     H30620   5.534   6.238   1.848  0.4498  0.2576 -0.4175
  968MOL0     H30621   5.647   6.285   1.615  0.7337  2.9878 -0.2093
  968MOL0     H30622   5.476   6.293   1.566 -0.1055  0.0511  0.5269
  968MOL0     H30623   5.621   6.464   1.774  0.5351 -0.0491 -0.5021
  968MOL0     H30624   5.547   6.508   1.613 -3.2595 -1.1760  0.0152
  968MOL0     H30625   5.341   6.483   1.690  2.7039 -2.2423 -2.0550
  968MOL0     H30626   5.388   6.437   1.861 -3.3736 -1.4868 -2.3195
  968MOL0     H30627   5.330   6.656   1.842  0.3561 -0.8761  3.4396
  968MOL0     H30628   5.491   6.644   1.905  0.0255  0.7402 -1.3951
  968MOL0     H30629   5.454   6.685   1.618  0.8953  0.1046 -0.4017
  968MOL0     H30630   5.602   6.729   1.703  0.2787 -3.3900 -2.2232
  968MOL0     H30631   5.544   6.926   1.911  2.3453  4.2935 -0.6480
  968MOL0     H30632   5.448   7.133   1.999  1.5592 -0.4750 -2.8196
  968MOL0     H30633   5.337   7.228   1.923 -0.0640  0.7994  2.3062
  968MOL0     H30634   5.142   7.095   2.049  0.8485 -0.8182  0.2836
  968MOL0     H30635   5.249   7.178   2.160  2.3417 -1.5588  1.7936
  968MOL0     H30636   5.219   6.889   2.083 -0.5277  0.4339  0.1672
  968MOL0     H30637   5.177   6.956   2.228  0.2144  1.4293  0.8359
  968MOL0     H30638   5.452   6.893   2.125 -1.7253 -0.6856 -0.3405
  968MOL0     H30639   5.372   6.841   2.272 -0.6585  1.7210 -0.3371
  968MOL0     H30640   5.632   6.881   2.265 -2.1749  2.2786 -1.1317
  968MOL0     H30641   5.814   6.747   2.319 -4.6487 -0.5845  2.7609
  968MOL0     H30642   5.936   6.873   2.327 -0.8348  1.1415  0.1439
  968MOL0     H30643   5.893   6.763   2.469 -0.2183 -0.6051  0.2853
  968MOL0     H30644   5.892   7.029   2.986  1.2536  3.3024 -0.8102
  968MOL0     H30645   6.062   7.009   3.156  1.9771  0.8453  1.3360
  968MOL0     H30646   6.386   7.183   3.067 -1.9649  0.9287  2.8512
  968MOL0     H30647   6.405   7.128   3.228 -3.5313  3.9854 -2.2676
  968MOL0     H30648   6.584   6.968   3.153  1.0632  1.4556  0.4448
  968MOL0     H30649   6.547   6.998   2.982 -0.6368  0.3708 -0.9432
  968MOL0     H30650   6.632   7.218   3.179  1.7837 -2.0193  0.4918
  968MOL0     H30651   6.637   7.232   2.998  1.0670 -1.4240 -1.6050
  968MOL0     H30652   6.789   7.020   3.151 -0.6981  1.8924  1.7826
  968MOL0     H30653   6.781   7.056   2.974 -0.8390  0.4811 -1.4158
  968MOL0     H30654   6.859   7.237   3.220 -0.7258 -1.3799  0.3052
  968MOL0     H30655   6.882   7.291   3.049  1.4254  0.6809  0.0375
  968MOL0     H30656   7.078   7.200   3.199 -1.4679 -2.3432  3.1321
  968MOL0     H30657   7.051   7.054   3.117  2.0478  1.1230  0.0243
  968MOL0     H30658   7.089   7.325   2.966 -2.4116 -0.8344 -2.3076
  968MOL0     H30659   7.011   7.184   2.902 -0.8512  1.4600  0.3042
  968MOL0     H30660   7.288   7.194   3.025 -1.9990 -0.2291  2.4276
  968MOL0     H30661   7.260   7.221   2.856  0.5353  0.4083  0.5136
  968MOL0     H30662   6.364   7.014   2.860  0.8197  4.2877  0.5612
  968MOL0     H30663   6.209   7.014   2.683  2.2869 -1.8046  0.5200
  968MOL0     H30664   5.688   7.188   2.654 -0.8118 -0.9339  1.3243
  968MOL0     H30665   5.488   7.203   2.515  2.3231  2.4611  0.8468
  968MOL0     H30666   5.780   6.096   2.112  0.3237 -0.2801 -3.8385
  968MOL0     H30667   5.820   6.013   2.328  0.1670 -0.9279  1.0492
  968MOL0     H30668   5.695   5.875   2.686  1.3466  1.1551  1.7140
  968MOL0     H30669   5.726   5.846   2.925 -1.9021  2.0552 -0.6860
  968MOL0     H30670   5.498   5.526   3.101 -0.4347 -1.9963 -0.1738
  968MOL0     H30671   5.628   5.462   3.189 -3.9494  0.7121  2.6617
  968MOL0     H30672   5.454   5.598   3.309 -0.6005 -0.0740 -1.1304
  968MOL0     H30673   5.519   5.747   3.231 -0.8460 -1.4892  0.3595
  968MOL0     H30674   5.661   5.541   3.423  1.2398  1.3114  0.9249
  968MOL0     H30675   5.585   5.696   3.470  3.2777  0.6811  2.0538
  968MOL0     H30676   5.841   5.650   3.309  2.3460  0.5203  2.0204
  968MOL0     H30677   5.827   5.710   3.470 -0.2071  2.0841  0.4564
  968MOL0     H30678   5.755   6.041   3.202  3.9001  1.1710  1.5416
  968MOL0     H30679   5.616   5.428   2.909 -1.7367  0.0914  1.4835
  968MOL0     H30680   5.600   5.438   2.667 -2.9856  1.4470 -2.6227
  969MOL0     O30681   6.016  10.789   4.174  0.3290  0.0880 -0.3317
  969MOL0     C30682   5.908  10.748   4.175  1.3869 -0.6748  0.8679
  969MOL0     O30683   5.794  10.819   4.145 -0.1008 -0.4368 -0.0060
  969MOL0     C30684   5.802  10.940   4.073  0.0947 -0.8085 -0.2902
  969MOL0     C30685   5.702  11.037   4.094  0.2268  0.1161 -0.9738
  969MOL0     C30686   5.708  11.150   4.020  0.1906 -0.4075  1.4404
  969MOL0     C30687   5.799  11.165   3.916  0.0104  0.5989 -0.7654
  969MOL0     O30688   5.808  11.278   3.834  0.2261  0.1150  0.5108
  969MOL0     C30689   5.709  11.385   3.861  0.3621  0.2670  0.6030
  969MOL0     C30690   5.737  11.507   3.772 -0.4059  0.0200 -0.3498
  969MOL0     C30691   5.708  11.494   3.624  0.2896  0.0792 -0.1252
  969MOL0     C30692   5.802  11.566   3.542 -0.2453  0.2036 -0.0079
  969MOL0     C30693   5.761  11.553   3.392 -0.7526 -0.3356  0.0793
  969MOL0     C30694   5.825  11.675   3.316  0.1583  0.9366  0.6676
  969MOL0     C30695   5.801  11.666   3.165  0.5765  0.0432  0.8910
  969MOL0     C30696   5.876  11.562   3.084 -0.7454  1.4648 -0.7662
  969MOL0     N30697   6.022  11.569   3.085 -0.6822 -0.4398  0.6736
  969MOL0     C30698   6.100  11.680   3.069  0.3095  0.0487  0.2440
  969MOL0     C30699   6.222  11.646   3.129 -0.1515  0.3340 -0.3765
  969MOL0     C30700   6.351  11.727   3.156  0.0858 -0.5253  0.5684
  969MOL0     C30701   6.335  11.828   3.266  0.9867 -0.2418  0.3654
  969MOL0     C30702   6.314  11.756   3.403  0.0748 -1.0709  0.8372
  969MOL0     C30703   6.214  11.831   3.492  0.5748 -0.5157 -0.6395
  969MOL0     O30704   6.227  11.978   3.479  0.5117 -0.6571 -0.5580
  969MOL0     C30705   6.142  12.053   3.566 -0.4485  0.0985  1.4572
  969MOL0     C30706   6.157  12.187   3.545  0.5934 -0.8116 -0.0769
  969MOL0     C30707   6.065  12.274   3.607 -0.0232 -1.0051  0.8733
  969MOL0     C30708   6.086  12.422   3.569 -0.3728 -0.2399  0.4182
  969MOL0     C30709   5.974  12.238   3.702  0.8889  0.0262 -0.3578
  969MOL0     C30710   5.883  12.321   3.782  0.2003  0.5846  0.6528
  969MOL0     O30711   5.800  12.255   3.873 -0.7240  0.4751  0.1727
  969MOL0     C30712   5.672  12.314   3.896  0.1011 -0.3779 -0.5942
  969MOL0     C30713   5.583  12.345   3.793  0.4979 -0.5158 -0.1316
  969MOL0     C30714   5.465  12.422   3.819 -1.3354  0.5363  0.3728
  969MOL0     C30715   5.423  12.442   3.950 -0.3471  0.0229 -0.4619
  969MOL0     O30716   5.303  12.506   3.975  0.2628 -0.6880 -1.0073
  969MOL0     C30717   5.290  12.567   4.105 -0.0051  0.0755  0.6355
  969MOL0     C30718   5.183  12.680   4.114  0.1840  1.3156  0.0997
  969MOL0     C30719   5.235  12.790   4.026 -0.1718  0.3822  0.1145
  969MOL0     C30720   5.124  12.892   4.027 -0.1214  0.9252 -0.2598
  969MOL0     C30721   5.151  12.992   3.920  0.3266  0.0395 -0.2840
  969MOL0     C30722   5.040  13.102   3.912  0.4771 -0.7536 -0.3876
  969MOL0     C30723   5.076  13.205   3.806  0.5994  0.4337 -0.1734
  969MOL0     C30724   4.980  13.323   3.809  0.3600  0.3330 -0.2984
  969MOL0    Cl30725   4.804  13.274   3.781 -0.1787  0.1043  0.3831
  969MOL0     C30726   5.500  12.386   4.052  0.6887  0.0727  0.1041
  969MOL0     C30727   5.622  12.328   4.026  0.0204 -0.1065 -0.1272
  969MOL0     O30728   5.880  12.439   3.761 -0.0046  0.5538 -0.3322
  969MOL0     C30729   5.977  12.099   3.725  0.3048  1.1093  0.2052
  969MOL0     C30730   6.050  12.006   3.655  0.3710  0.1785  0.8168
  969MOL0     N30731   6.210  11.514   3.170 -0.1398  0.0742  0.8590
  969MOL0     N30732   6.093  11.467   3.146  0.6394  0.0545 -0.5998
  969MOL0     C30733   5.899  11.065   3.891 -0.7065 -0.2586 -0.4541
  969MOL0     C30734   5.901  10.954   3.965  0.7016  0.3430  0.1448
  969MOL0     C30735   5.890  10.601   4.198 -1.0920 -0.5296  0.2156
  969MOL0     C30736   6.002  10.509   4.225 -0.5875 -0.1222  0.8825
  969MOL0     C30737   5.993  10.369   4.245  0.2551 -0.1343  0.0690
  969MOL0     C30738   5.866  10.316   4.252  0.9866  0.6967  0.8146
  969MOL0     O30739   5.862  10.184   4.274 -0.0329  0.4203  0.2588
  969MOL0     C30740   5.729  10.116   4.255  0.5560  0.3796  0.0852
  969MOL0     C30741   5.694  10.082   4.114 -0.6670 -0.1803  0.8487
  969MOL0     C30742   5.551  10.038   4.098  1.2053 -0.6767 -0.5435
  969MOL0     C30743   5.530   9.960   3.975  0.5128  0.3608  0.6585
  969MOL0     C30744   5.578   9.826   3.987 -0.3068  0.2932  0.1583
  969MOL0     C30745   5.625   9.705   3.989 -0.3440  0.0498 -0.3256
  969MOL0     C30746   5.756  10.408   4.221 -0.1377 -0.8335  0.1832
  969MOL0     C30747   5.761  10.542   4.197 -0.3549 -0.9524 -0.2908
  969MOL0     H30748   5.629  11.016   4.171  0.4466  0.8238 -0.5729
  969MOL0     H30749   5.627  11.222   4.028 -1.7621 -2.4236  0.6294
  969MOL0     H30750   5.605  11.360   3.841  0.5627  0.8313 -1.3979
  969MOL0     H30751   5.701  11.426   3.962 -0.4733  0.0305  0.6413
  969MOL0     H30752   5.672  11.587   3.809  0.7521  2.7620 -3.7234
  969MOL0     H30753   5.841  11.541   3.781  0.0863 -1.0046 -1.8589
  969MOL0     H30754   5.723  11.389   3.598 -1.0682 -0.0702 -0.3530
  969MOL0     H30755   5.604  11.523   3.610  0.4653  0.2031 -1.3259
  969MOL0     H30756   5.800  11.672   3.570 -0.9587 -0.2185  1.6021
  969MOL0     H30757   5.905  11.529   3.546 -0.3913 -0.2528 -0.3579
  969MOL0     H30758   5.803  11.463   3.344  1.8569  0.6179  0.4250
  969MOL0     H30759   5.652  11.547   3.377 -0.6494 -3.5382 -0.2495
  969MOL0     H30760   5.785  11.769   3.356 -4.6176 -0.6838  0.3295
  969MOL0     H30761   5.931  11.666   3.344  0.7042 -2.7151 -1.8332
  969MOL0     H30762   5.694  11.655   3.143  0.6711 -2.4017  1.3501
  969MOL0     H30763   5.840  11.759   3.124 -0.4971 -0.4953 -1.5171
  969MOL0     H30764   5.840  11.582   2.982 -0.2603  1.9659 -0.8435
  969MOL0     H30765   5.846  11.461   3.112 -1.1497  1.9796  0.7320
  969MOL0     H30766   6.070  11.776   3.028  2.1210  1.4365  1.9761
  969MOL0     H30767   6.429  11.654   3.179 -0.1056 -1.1679 -0.7351
  969MOL0     H30768   6.387  11.785   3.070  0.6866  0.3792  1.4105
  969MOL0     H30769   6.247  11.883   3.233  1.0393  0.1004  0.7714
  969MOL0     H30770   6.426  11.889   3.270 -0.1650  1.5407  1.1088
  969MOL0     H30771   6.411  11.744   3.453  1.3273  2.3487 -0.4727
  969MOL0     H30772   6.265  11.661   3.380 -3.9364  1.5246 -2.9921
  969MOL0     H30773   6.222  11.802   3.597  0.0146  0.8425 -0.2051
  969MOL0     H30774   6.112  11.804   3.462  0.8492 -1.5322 -0.7250
  969MOL0     H30775   6.220  12.223   3.464 -1.3042  2.5360 -0.2117
  969MOL0     H30776   5.999  12.462   3.517  2.3402  0.8659 -3.7767
  969MOL0     H30777   6.110  12.476   3.661 -3.3139  1.2011  0.4250
  969MOL0     H30778   6.169  12.429   3.498 -1.5201  0.3901 -0.8853
  969MOL0     H30779   5.607  12.334   3.688 -0.8684 -2.6207 -0.2810
  969MOL0     H30780   5.423  12.453   3.724  3.5706 -2.1215 -3.1547
  969MOL0     H30781   5.257  12.491   4.176 -3.7342  3.2957  2.7617
  969MOL0     H30782   5.385  12.612   4.133  0.3953  1.5496 -2.6609
  969MOL0     H30783   5.089  12.639   4.078 -0.9343  2.4432  1.5988
  969MOL0     H30784   5.176  12.716   4.217  2.2480 -0.2748  0.8792
  969MOL0     H30785   5.255  12.755   3.925 -0.7929  2.7939 -0.9129
  969MOL0     H30786   5.329  12.826   4.070  1.2948 -3.8329  0.9239
  969MOL0     H30787   5.039  12.828   4.002  0.1109 -1.4324  3.9393
  969MOL0     H30788   5.110  12.938   4.125 -1.1916  2.1115 -0.9415
  969MOL0     H30789   5.152  12.938   3.825  0.2337  0.3113 -0.4414
  969MOL0     H30790   5.247  13.037   3.946 -1.4330  3.1851  1.5118
  969MOL0     H30791   4.939  13.066   3.888 -0.6216 -0.3866  3.0834
  969MOL0     H30792   5.024  13.149   4.010  0.7008 -1.9910  0.2723
  969MOL0     H30793   5.085  13.165   3.705 -1.1640 -0.0391 -0.1886
  969MOL0     H30794   5.166  13.261   3.830  1.1197  0.4784 -2.0915
  969MOL0     H30795   5.012  13.387   3.726 -1.3838 -1.9542 -2.9174
  969MOL0     H30796   4.989  13.382   3.900 -2.6488 -0.1746  0.4286
  969MOL0     H30797   5.481  12.395   4.159 -1.4033  0.7962 -0.2849
  969MOL0     H30798   5.693  12.309   4.106  0.0266  0.0307 -0.0994
  969MOL0     H30799   5.916  12.059   3.805  1.5091  1.9677  1.6189
  969MOL0     H30800   6.049  11.900   3.678 -1.5226  0.1355  0.6267
  969MOL0     H30801   5.971  11.074   3.809 -1.2591 -0.8114 -1.0059
  969MOL0     H30802   5.976  10.876   3.950  2.1251  2.2219 -3.6698
  969MOL0     H30803   6.096  10.564   4.233 -0.3634 -0.2767 -0.4423
  969MOL0     H30804   6.084  10.312   4.259  0.7325 -0.0101 -2.0809
  969MOL0     H30805   5.723  10.022   4.310 -0.3625 -1.0817 -2.3647
  969MOL0     H30806   5.650  10.175   4.301 -0.6015 -0.9049 -0.2232
  969MOL0     H30807   5.770  10.011   4.079  0.4279  0.7394  1.2828
  969MOL0     H30808   5.715  10.165   4.046  0.6989 -1.5973 -0.5527
  969MOL0     H30809   5.488  10.128   4.092  1.5044 -0.4715 -0.5971
  969MOL0     H30810   5.506   9.985   4.182 -1.8019  2.5879  0.1503
  969MOL0     H30811   5.589   9.994   3.889  1.7247  0.9498  1.6884
  969MOL0     H30812   5.423   9.963   3.953  0.5719  2.7360  0.3722
  969MOL0     H30813   5.677   9.611   3.987 -0.1219  0.1843 -2.0806
  969MOL0     H30814   5.653  10.377   4.235 -0.7482  1.6293  2.0534
  969MOL0     H30815   5.677  10.609   4.182  1.4193  0.9077 -2.7670
  970MOL0     O30816   8.577   1.787   1.895  0.0219  0.3560  0.3579
  970MOL0     C30817   8.696   1.772   1.930 -0.4446  0.7156 -0.0147
  970MOL0     O30818   8.771   1.662   1.916  0.7794 -0.4486  0.1257
  970MOL0     C30819   8.725   1.540   1.873 -0.8452 -1.0841 -1.1263
  970MOL0     C30820   8.597   1.511   1.824  0.5850  0.7125 -0.1908
  970MOL0     C30821   8.567   1.374   1.784  0.5970 -0.1088 -0.3904
  970MOL0     C30822   8.656   1.269   1.798  0.0921  0.9667  0.2150
  970MOL0     O30823   8.601   1.137   1.774  0.5967 -0.3286 -0.5998
  970MOL0     C30824   8.701   1.038   1.805  0.3549 -0.3641 -0.8361
  970MOL0     C30825   8.669   0.901   1.738 -0.1483  0.0175 -0.7389
  970MOL0     C30826   8.691   0.929   1.593  0.7598  0.1061  0.6450
  970MOL0     C30827   8.636   0.815   1.512 -0.2270 -0.3172 -0.6784
  970MOL0     C30828   8.731   0.692   1.532  0.2623 -0.0224 -0.0525
  970MOL0     C30829   8.862   0.708   1.453 -0.2769 -0.2062  0.4201
  970MOL0     C30830   8.963   0.598   1.465 -0.1405 -0.2333 -0.0170
  970MOL0     C30831   9.067   0.606   1.570  0.6457  1.4591 -0.2434
  970MOL0     N30832   9.148   0.730   1.561 -0.2825 -0.2616 -0.8669
  970MOL0     C30833   9.258   0.754   1.482  0.0218 -1.0950 -0.0883
  970MOL0     C30834   9.298   0.880   1.501 -0.1493  0.7204  0.5454
  970MOL0     C30835   9.412   0.955   1.431 -0.0868  1.4731  0.5615
  970MOL0     C30836   9.535   0.917   1.507  1.1689 -0.3553 -0.6979
  970MOL0     C30837   9.652   0.987   1.444  0.4803 -0.4014 -0.2426
  970MOL0     C30838   9.776   0.992   1.528  0.1550 -0.9058  1.0264
  970MOL0     O30839   9.887   1.054   1.457 -0.3016 -0.3294  0.6224
  970MOL0     C30840   9.970   0.960   1.392  0.3561  0.5412  0.2857
  970MOL0     C30841   9.940   0.836   1.342 -0.4853  0.4559  0.3678
  970MOL0     C30842  10.037   0.754   1.284  0.0293 -0.2534 -0.8819
  970MOL0     C30843   9.998   0.604   1.263  0.4066  0.0927 -0.9695
  970MOL0     C30844  10.172   0.805   1.260  0.1079 -0.3089  0.2414
  970MOL0     C30845  10.285   0.723   1.212  0.3942  0.1635  0.6376
  970MOL0     O30846  10.285   0.591   1.237  0.4669 -0.4818  0.5403
  970MOL0     C30847  10.404   0.522   1.222  0.9396 -0.0659 -0.3820
  970MOL0     C30848  10.501   0.542   1.127  0.5362 -0.7136  0.3994
  970MOL0     C30849  10.620   0.466   1.137 -0.0243 -0.7155  0.4115
  970MOL0     C30850  10.634   0.365   1.227 -0.3993  0.0358  0.0451
  970MOL0     O30851  10.752   0.306   1.264  0.5333 -0.9844 -0.2925
  970MOL0     C30852  10.877   0.366   1.213  0.5645 -0.5689 -0.2207
  970MOL0     C30853  11.001   0.325   1.295 -0.9889 -0.1980  0.5059
  970MOL0     C30854  11.124   0.340   1.208  0.4653  0.1091 -0.3691
  970MOL0     C30855  11.168   0.207   1.161  0.0308 -0.2114  0.4858
  970MOL0     C30856  11.305   0.217   1.112 -1.0575 -0.2201  0.1020
  970MOL0     C30857  11.329   0.103   1.008 -0.0022 -0.5761 -0.4298
  970MOL0     C30858  11.287  -0.038   1.033  0.5960 -0.3509  0.4989
  970MOL0     C30859  11.155  -0.081   0.969 -0.5877 -0.7202 -0.5449
  970MOL0    Cl30860  11.109  -0.240   1.039 -0.0809  0.1420 -0.4236
  970MOL0     C30861  10.536   0.343   1.327  0.0908  0.1989 -0.6887
  970MOL0     C30862  10.428   0.432   1.331 -0.1508  0.2258  0.6935
  970MOL0     O30863  10.374   0.784   1.149 -0.3279  1.1107 -0.4419
  970MOL0     C30864  10.194   0.942   1.296 -0.4617 -0.1856 -0.6165
  970MOL0     C30865  10.095   1.009   1.369  0.5403 -0.4241 -1.2704
  970MOL0     N30866   9.198   0.940   1.582 -0.5232  0.4134 -0.4349
  970MOL0     N30867   9.114   0.846   1.616 -0.2321  0.0510 -0.3736
  970MOL0     C30868   8.777   1.307   1.857  0.6019  0.2226  0.6604
  970MOL0     C30869   8.814   1.434   1.892  0.6084 -0.0401  0.9530
  970MOL0     C30870   8.771   1.884   2.001  0.9497 -0.1581  0.7798
  970MOL0     C30871   8.728   2.018   1.981  0.6528  0.5152  1.3215
  970MOL0     C30872   8.791   2.137   2.031  0.1777  0.1868  0.2823
  970MOL0     C30873   8.909   2.118   2.099  0.3415  0.6656 -0.0271
  970MOL0     O30874   8.987   2.229   2.130  0.0708  0.2945 -0.3298
  970MOL0     C30875   8.930   2.355   2.146 -1.4300  1.6099  0.7232
  970MOL0     C30876   9.042   2.443   2.176  0.0335  0.9317 -1.4585
  970MOL0     C30877   9.156   2.468   2.075 -0.8872 -0.9811 -0.7652
  970MOL0     C30878   9.122   2.517   1.933  0.0042  0.6630  0.3708
  970MOL0     C30879   9.078   2.651   1.936 -0.1639 -0.6993 -0.7012
  970MOL0     C30880   9.043   2.766   1.934 -0.6425 -0.5231  0.3549
  970MOL0     C30881   8.959   1.989   2.124 -0.2427  0.6696  0.5810
  970MOL0     C30882   8.895   1.873   2.070 -0.1415 -0.0159 -0.1434
  970MOL0     H30883   8.519   1.582   1.798  0.4171  0.0922 -1.4779
  970MOL0     H30884   8.465   1.347   1.760  0.2375  2.3914 -2.0517
  970MOL0     H30885   8.804   1.065   1.783  0.0593  0.4043 -1.3515
  970MOL0     H30886   8.702   1.025   1.913  2.3585 -0.2573 -0.8081
  970MOL0     H30887   8.734   0.823   1.778 -3.6286 -3.4908 -1.3414
  970MOL0     H30888   8.564   0.879   1.759  0.1751  1.6016  3.4689
  970MOL0     H30889   8.637   1.022   1.571  1.3403  0.2836 -0.0531
  970MOL0     H30890   8.793   0.958   1.569 -0.4311  1.9246 -2.9207
  970MOL0     H30891   8.542   0.783   1.557  1.1444 -2.2572  0.9712
  970MOL0     H30892   8.627   0.846   1.407  0.6320  2.3972 -0.0258
  970MOL0     H30893   8.744   0.667   1.638  0.6365 -2.5217 -0.6263
  970MOL0     H30894   8.684   0.602   1.490 -0.5743  0.3060  0.1727
  970MOL0     H30895   8.831   0.717   1.348  1.2978  2.5132  0.0772
  970MOL0     H30896   8.900   0.800   1.498 -1.7376 -0.0779  1.4695
  970MOL0     H30897   8.915   0.499   1.470 -0.1652 -0.2692 -0.8035
  970MOL0     H30898   9.021   0.595   1.373 -3.7108  0.6919 -2.5289
  970MOL0     H30899   9.136   0.522   1.556  0.9160  1.2138  2.0614
  970MOL0     H30900   9.025   0.589   1.670  2.2636 -3.4096 -0.1490
  970MOL0     H30901   9.310   0.689   1.412 -0.1847 -1.0219 -0.3137
  970MOL0     H30902   9.416   0.917   1.328 -1.3474  0.7821  0.7491
  970MOL0     H30903   9.408   1.065   1.427 -0.0247  1.4538 -1.3378
  970MOL0     H30904   9.550   0.809   1.505 -0.9056 -0.6890 -3.5374
  970MOL0     H30905   9.521   0.952   1.610 -4.2128  0.9405 -1.5848
  970MOL0     H30906   9.635   1.090   1.410  1.8022  0.2311  0.8933
  970MOL0     H30907   9.670   0.928   1.354 -0.1104 -2.7411  1.1072
  970MOL0     H30908   9.808   0.893   1.562 -0.4095 -0.8978  1.6001
  970MOL0     H30909   9.738   1.039   1.619 -2.3935 -2.2258  0.7176
  970MOL0     H30910   9.842   0.789   1.349  1.3317 -3.6745  0.9386
  970MOL0     H30911   9.976   0.582   1.158  0.9805  0.3618 -1.1476
  970MOL0     H30912  10.070   0.531   1.300 -2.8812 -2.1241  1.7131
  970MOL0     H30913   9.905   0.582   1.317  1.7533  0.1473  1.5392
  970MOL0     H30914  10.505   0.606   1.039 -0.1447  0.3731  1.1295
  970MOL0     H30915  10.699   0.491   1.067  1.6429 -0.2261  2.3450
  970MOL0     H30916  10.894   0.341   1.107 -2.4227 -1.3833 -0.6195
  970MOL0     H30917  10.888   0.475   1.220  1.9436 -0.6672 -0.5610
  970MOL0     H30918  11.029   0.385   1.382  1.2367 -0.9857  0.3775
  970MOL0     H30919  10.977   0.225   1.331 -3.4511  0.0958 -0.0951
  970MOL0     H30920  11.208   0.382   1.265 -0.2294 -1.2064  1.7601
  970MOL0     H30921  11.105   0.416   1.133 -1.2706 -1.1102 -1.2167
  970MOL0     H30922  11.172   0.135   1.243 -1.2440  1.0689  1.7244
  970MOL0     H30923  11.100   0.183   1.079  0.0309  6.3698 -2.0413
  970MOL0     H30924  11.370   0.204   1.200  0.1177 -2.1922 -0.9895
  970MOL0     H30925  11.330   0.312   1.064  4.3341 -0.6498  1.3826
  970MOL0     H30926  11.294   0.129   0.908 -2.1413 -3.6548 -0.5876
  970MOL0     H30927  11.439   0.108   1.009  0.0900 -1.5494 -2.2847
  970MOL0     H30928  11.269  -0.045   1.140  0.4568 -2.9727  0.3856
  970MOL0     H30929  11.362  -0.109   0.995 -0.2430  0.4297 -2.9324
  970MOL0     H30930  11.163  -0.084   0.860  0.9866 -0.2874 -0.4573
  970MOL0     H30931  11.072  -0.014   0.993  0.5580 -0.1696  2.2136
  970MOL0     H30932  10.549   0.275   1.411 -1.9988  0.3174 -0.2172
  970MOL0     H30933  10.351   0.413   1.405 -1.9423  2.5752 -0.4392
  970MOL0     H30934  10.285   0.998   1.276  0.0953 -0.9131 -0.1429
  970MOL0     H30935  10.100   1.110   1.408 -0.5453 -0.9594  0.3426
  970MOL0     H30936   8.855   1.237   1.886  1.0641  0.7005  0.5788
  970MOL0     H30937   8.914   1.446   1.931  0.7315  0.0943  0.6029
  970MOL0     H30938   8.632   2.025   1.932  1.2714 -1.9564 -0.4432
  970MOL0     H30939   8.750   2.233   2.001 -0.3504 -0.4629 -1.1615
  970MOL0     H30940   8.876   2.393   2.059 -2.8239  3.2582  2.2226
  970MOL0     H30941   8.867   2.347   2.235 -0.7560  1.8429  1.2312
  970MOL0     H30942   9.086   2.413   2.272  2.4329  3.0612 -1.7819
  970MOL0     H30943   8.984   2.535   2.187  2.8899  2.9238 -1.7075
  970MOL0     H30944   9.218   2.380   2.054  1.3104  0.0765  0.9198
  970MOL0     H30945   9.223   2.541   2.119 -0.5609 -1.7229 -0.0004
  970MOL0     H30946   9.043   2.456   1.887  0.7753 -1.0990  1.2821
  970MOL0     H30947   9.209   2.519   1.867 -0.1158  2.9215  0.2196
  970MOL0     H30948   9.002   2.865   1.946 -2.5151 -0.7419 -3.0010
  970MOL0     H30949   9.046   1.976   2.187 -1.2845  0.3091  2.0149
  970MOL0     H30950   8.938   1.778   2.100 -2.3557 -0.0076  3.6131
  971MOL0     O30951  10.262   1.648  11.139  0.2688 -0.4752  0.2830
  971MOL0     C30952  10.199   1.584  11.217 -0.5662  0.5893 -0.4406
  971MOL0     O30953  10.254   1.534  11.328 -0.5979 -0.3770 -0.4077
  971MOL0     C30954  10.366   1.584  11.387 -0.4832 -0.7093  0.5653
  971MOL0     C30955  10.450   1.507  11.469  0.8320 -0.2007  0.4606
  971MOL0     C30956  10.549   1.563  11.537 -0.1861  0.1294  0.8721
  971MOL0     C30957  10.564   1.703  11.546  1.0550 -0.0562 -0.7222
  971MOL0     O30958  10.667   1.746  11.620  0.4076  0.0957 -0.0131
  971MOL0     C30959  10.640   1.868  11.688  0.2141 -0.7272 -0.9156
  971MOL0     C30960  10.519   1.849  11.793 -0.2427  0.2557  0.1519
  971MOL0     C30961  10.533   1.939  11.910  0.3907 -0.3028  0.9452
  971MOL0     C30962  10.617   1.885  12.025 -1.2571  0.8534  0.2437
  971MOL0     C30963  10.577   1.948  12.156  0.6288 -1.2619 -0.6535
  971MOL0     C30964  10.704   1.987  12.239  0.4062 -1.0231 -0.3887
  971MOL0     C30965  10.683   1.952  12.392  0.3410  0.2356  0.5477
  971MOL0     C30966  10.560   2.013  12.458  0.3582  1.2369  0.6083
  971MOL0     N30967  10.561   2.159  12.456 -0.1294  0.2685  0.1035
  971MOL0     C30968  10.468   2.241  12.392  0.3074 -0.0133 -0.6182
  971MOL0     C30969  10.502   2.363  12.435 -0.3571 -0.1021  0.5012
  971MOL0     C30970  10.434   2.495  12.395 -0.3959  1.0532 -0.5655
  971MOL0     C30971  10.344   2.495  12.270  0.5317 -0.6239 -0.2817
  971MOL0     C30972  10.420   2.459  12.142  0.7036 -0.1565 -0.6623
  971MOL0     C30973  10.342   2.497  12.026 -0.0426  0.1909  0.1482
  971MOL0     O30974  10.202   2.466  12.040  0.1724 -0.5477  0.0545
  971MOL0     C30975  10.134   2.447  11.922 -0.6298 -1.0437  0.7950
  971MOL0     C30976  10.048   2.338  11.895 -0.2872 -0.0446  0.9062
  971MOL0     C30977   9.987   2.320  11.771  1.1641 -0.1161  0.5304
  971MOL0     C30978   9.928   2.187  11.749  0.1771  1.5350  0.9791
  971MOL0     C30979  10.000   2.411  11.665 -0.2245 -0.9329  0.3427
  971MOL0     C30980   9.952   2.388  11.527  0.7318  0.1322  0.3811
  971MOL0     O30981  10.019   2.451  11.420  0.5269 -0.1036 -0.3016
  971MOL0     C30982   9.971   2.437  11.293  0.1651  1.4929 -0.5173
  971MOL0     C30983   9.837   2.458  11.248  0.6647 -0.2340 -0.4906
  971MOL0     C30984   9.807   2.437  11.116 -0.3134 -0.4176 -0.6460
  971MOL0     C30985   9.905   2.391  11.022  0.2697 -0.5941  0.4015
  971MOL0     O30986   9.883   2.390  10.886 -0.1760  0.2344  0.3687
  971MOL0     C30987   9.748   2.375  10.842 -0.8896  0.1389  0.3540
  971MOL0     C30988   9.754   2.334  10.697  0.2920  0.7730 -0.3200
  971MOL0     C30989   9.616   2.327  10.630 -0.5494  0.1440 -0.3775
  971MOL0     C30990   9.619   2.321  10.473  0.2635  0.0080 -1.1408
  971MOL0     C30991   9.657   2.189  10.411  0.2476  0.6409 -0.9289
  971MOL0     C30992   9.560   2.065  10.439  0.3040 -0.9183  0.1098
  971MOL0     C30993   9.453   2.056  10.338  0.2881  0.6733 -0.4317
  971MOL0     C30994   9.354   1.949  10.385 -0.2222 -0.6900  0.0155
  971MOL0    Cl30995   9.213   1.955  10.286  0.3042 -0.3528  0.1723
  971MOL0     C30996  10.034   2.371  11.066  0.7234  0.4764 -0.2522
  971MOL0     C30997  10.070   2.389  11.200 -0.6791 -0.3123 -0.1420
  971MOL0     O30998   9.846   2.335  11.520  0.1188  0.0765  0.3223
  971MOL0     C30999  10.092   2.520  11.689  0.1858 -0.6025  1.0414
  971MOL0     C31000  10.156   2.536  11.811  0.2928  0.0214 -0.2697
  971MOL0     N31001  10.613   2.351  12.505 -0.5646 -0.3195  0.2207
  971MOL0     N31002  10.653   2.237  12.522  0.5245  0.2994 -0.3989
  971MOL0     C31003  10.476   1.783  11.468  0.6826 -0.3449 -0.2188
  971MOL0     C31004  10.387   1.719  11.388 -0.1535 -0.3151 -0.4626
  971MOL0     C31005  10.062   1.549  11.170 -1.1448 -0.8591 -0.2803
  971MOL0     C31006  10.016   1.581  11.040  0.7824 -0.1008 -0.4390
  971MOL0     C31007   9.882   1.538  10.997  0.1602 -0.3665  0.8336
  971MOL0     C31008   9.809   1.474  11.089  0.5040  0.3048  0.4839
  971MOL0     O31009   9.684   1.418  11.060  0.7299 -0.2521 -0.1322
  971MOL0     C31010   9.691   1.310  10.973  0.6409 -0.3314  0.6402
  971MOL0     C31011   9.688   1.349  10.837  0.6389 -0.2272  0.1609
  971MOL0     C31012   9.683   1.232  10.735  0.3634 -0.8270  0.3096
  971MOL0     C31013   9.694   1.277  10.588  0.0401  0.8093  1.1146
  971MOL0     C31014   9.582   1.370  10.545 -0.9753 -0.0006 -0.7560
  971MOL0     C31015   9.498   1.456  10.522 -0.3322 -0.5222  0.0714
  971MOL0     C31016   9.852   1.452  11.216  0.4930  0.4254  0.1613
  971MOL0     C31017   9.984   1.481  11.258 -0.2992  0.2354 -0.2953
  971MOL0     H31018  10.454   1.398  11.474  0.0786 -0.1745  2.6310
  971MOL0     H31019  10.623   1.500  11.586  0.7873  0.6319  0.0807
  971MOL0     H31020  10.727   1.901  11.746  1.2484 -2.1860 -1.5605
  971MOL0     H31021  10.622   1.944  11.612  0.1765  1.0881  0.8304
  971MOL0     H31022  10.422   1.876  11.750 -0.5736  2.4296  2.0458
  971MOL0     H31023  10.511   1.744  11.822 -1.1701 -0.0309 -1.0186
  971MOL0     H31024  10.557   2.042  11.882  1.5597 -0.4447  1.3400
  971MOL0     H31025  10.429   1.948  11.941 -0.0228  0.6764 -0.6032
  971MOL0     H31026  10.608   1.776  12.027  3.9542  0.1845 -0.5264
  971MOL0     H31027  10.720   1.907  11.995 -1.2921  0.9682  0.2072
  971MOL0     H31028  10.508   2.033  12.160  3.3353  1.0380 -0.2850
  971MOL0     H31029  10.530   1.869  12.215  1.2073 -2.2372 -1.4721
  971MOL0     H31030  10.800   1.949  12.204  1.8921 -0.4225  2.7288
  971MOL0     H31031  10.727   2.094  12.237  6.3419 -1.8679  2.2173
  971MOL0     H31032  10.672   1.844  12.407 -0.4841 -0.1185 -2.1076
  971MOL0     H31033  10.775   1.994  12.434  2.5256 -1.4912 -2.1425
  971MOL0     H31034  10.545   1.994  12.565 -1.7926 -0.4184  0.0984
  971MOL0     H31035  10.471   1.973  12.408 -0.2668  2.7056  0.5110
  971MOL0     H31036  10.385   2.210  12.330  1.3447 -3.7310 -0.4349
  971MOL0     H31037  10.386   2.537  12.484  1.3809 -0.9265  1.4249
  971MOL0     H31038  10.525   2.554  12.377  1.0054 -0.5270  0.9261
  971MOL0     H31039  10.295   2.593  12.264  0.4456 -0.7551 -2.3307
  971MOL0     H31040  10.268   2.417  12.280  1.0762 -0.8465  4.0790
  971MOL0     H31041  10.432   2.354  12.115  3.5732 -0.6105  1.8761
  971MOL0     H31042  10.518   2.506  12.132  0.5341 -0.1003 -2.4465
  971MOL0     H31043  10.383   2.451  11.936  0.4091 -2.8757  1.7822
  971MOL0     H31044  10.355   2.605  12.022  1.5498  0.0167  0.2309
  971MOL0     H31045  10.042   2.269  11.979  5.7787 -2.7294 -0.3440
  971MOL0     H31046   9.976   2.150  11.658  0.5439  2.3313  0.8314
  971MOL0     H31047   9.935   2.117  11.832 -1.9359 -0.2462 -0.2623
  971MOL0     H31048   9.824   2.202  11.722 -0.4297 -0.6574  1.9516
  971MOL0     H31049   9.753   2.495  11.306  1.6410 -0.6531  1.2736
  971MOL0     H31050   9.706   2.454  11.080 -0.4411 -1.7216 -0.9878
  971MOL0     H31051   9.686   2.313  10.909 -0.0868  1.2942  2.2615
  971MOL0     H31052   9.703   2.474  10.854  2.0533  1.6242  0.0801
  971MOL0     H31053   9.833   2.398  10.656  2.3646 -1.4315  0.0052
  971MOL0     H31054   9.799   2.235  10.684 -2.1489 -0.5996  0.9126
  971MOL0     H31055   9.569   2.424  10.650 -1.9289 -1.0957  3.1490
  971MOL0     H31056   9.548   2.248  10.662  0.8408 -1.6488 -1.6455
  971MOL0     H31057   9.528   2.350  10.419  0.7603  2.6454 -0.6893
  971MOL0     H31058   9.695   2.393  10.441 -1.1887  1.8158 -0.7152
  971MOL0     H31059   9.757   2.168  10.450 -0.1460  0.7779  0.1986
  971MOL0     H31060   9.657   2.210  10.304  0.3782 -1.5080 -1.3960
  971MOL0     H31061   9.598   1.963  10.437 -2.3625 -2.0128 -2.8069
  971MOL0     H31062   9.511   2.081  10.536 -2.0321  1.0588 -1.2755
  971MOL0     H31063   9.480   2.031  10.235 -2.7151 -1.1993 -0.9054
  971MOL0     H31064   9.402   2.153  10.335  3.5472  2.5181 -3.7959
  971MOL0     H31065   9.330   1.975  10.488  2.6411 -1.0815  0.8530
  971MOL0     H31066   9.392   1.847  10.377  2.8574  0.3929 -0.2491
  971MOL0     H31067  10.115   2.343  10.999 -0.3568 -0.4563 -1.2239
  971MOL0     H31068  10.170   2.370  11.236  0.2285 -0.5394 -2.6177
  971MOL0     H31069  10.098   2.600  11.616 -1.9309 -1.1087  0.2494
  971MOL0     H31070  10.227   2.617  11.809 -0.2089  0.5001  0.5733
  971MOL0     H31071  10.477   1.889  11.444  2.7079 -0.1973  0.3550
  971MOL0     H31072  10.339   1.776  11.310 -2.2870 -1.7752 -0.3013
  971MOL0     H31073  10.085   1.617  10.964  2.2818 -3.3772 -0.7999
  971MOL0     H31074   9.852   1.566  10.897  1.8125  3.5514  1.2223
  971MOL0     H31075   9.779   1.247  10.987  0.9712 -0.3693 -1.3330
  971MOL0     H31076   9.608   1.239  10.986  0.5179 -0.7287 -1.7888
  971MOL0     H31077   9.769   1.416  10.806  4.1595 -3.8517  0.6779
  971MOL0     H31078   9.594   1.402  10.817  0.8287  1.1653  2.6369
  971MOL0     H31079   9.589   1.177  10.742  0.6207 -1.3042  0.0739
  971MOL0     H31080   9.758   1.154  10.752 -1.9680 -2.7851  2.4027
  971MOL0     H31081   9.675   1.190  10.525  0.5954  2.0736 -0.8950
  971MOL0     H31082   9.788   1.332  10.578 -0.2718  1.1852  0.1037
  971MOL0     H31083   9.426   1.533  10.504  1.9693  1.6292 -0.5780
  971MOL0     H31084   9.782   1.409  11.287 -0.2415 -1.2242 -1.5008
  971MOL0     H31085  10.005   1.443  11.357 -1.1370 -2.7346 -1.1519
  972MOL0     O31086   4.041   9.071  10.640 -0.6004  0.4377 -0.2515
  972MOL0     C31087   4.128   8.998  10.695  0.2985 -0.0584 -0.3811
  972MOL0     O31088   4.156   9.004  10.832 -0.4513 -0.1169 -0.8305
  972MOL0     C31089   4.118   9.100  10.928  0.0217 -0.0711 -0.1532
  972MOL0     C31090   4.111   9.235  10.906 -0.3355  0.3030  0.5955
  972MOL0     C31091   4.053   9.322  10.997  0.5736  0.2283 -0.1194
  972MOL0     C31092   4.006   9.281  11.123  0.1448  0.7277  0.3703
  972MOL0     O31093   3.961   9.387  11.202  0.3452  0.6540 -0.4866
  972MOL0     C31094   3.997   9.378  11.342  0.1664 -1.0088 -0.3697
  972MOL0     C31095   4.135   9.429  11.364  0.7931 -0.2294  0.7560
  972MOL0     C31096   4.148   9.585  11.356 -0.4968  0.9237 -0.8413
  972MOL0     C31097   4.281   9.627  11.303 -0.0620  0.2396  0.4200
  972MOL0     C31098   4.308   9.775  11.337 -0.5910  1.0699  0.2744
  972MOL0     C31099   4.449   9.823  11.310 -0.0382  0.2783 -0.6964
  972MOL0     C31100   4.549   9.776  11.409 -0.4930 -0.3992 -0.2011
  972MOL0     C31101   4.691   9.831  11.391 -0.6261  0.4029 -0.4370
  972MOL0     N31102   4.706   9.974  11.401  0.4218  0.2657  0.1450
  972MOL0     C31103   4.690  10.057  11.302 -0.2619 -0.3955 -0.5440
  972MOL0     C31104   4.650  10.175  11.357 -0.2058 -0.5691 -0.1429
  972MOL0     C31105   4.632  10.299  11.287  0.4497 -0.6324 -0.2049
  972MOL0     C31106   4.765  10.355  11.221  0.3703  0.1451  0.5841
  972MOL0     C31107   4.850  10.442  11.325  0.1083 -0.5548 -0.0006
  972MOL0     C31108   4.907  10.366  11.446  1.1732 -0.1199  0.0763
  972MOL0     O31109   4.999  10.445  11.514  0.2465  0.4475 -0.0569
  972MOL0     C31110   5.004  10.443  11.651  0.0965  0.2143 -0.4589
  972MOL0     C31111   4.956  10.332  11.733  0.9044 -0.9542  0.2227
  972MOL0     C31112   4.952  10.338  11.873  0.1045 -0.6939  0.3565
  972MOL0     C31113   4.868  10.230  11.937 -0.1412  0.3299  0.8853
  972MOL0     C31114   5.022  10.452  11.927 -0.7576  0.9864  0.3284
  972MOL0     C31115   5.058  10.444  12.071  0.3443 -0.0169 -0.5216
  972MOL0     O31116   5.158  10.528  12.108  0.5764  0.0445  0.4170
  972MOL0     C31117   5.226  10.515  12.226  1.1924 -1.1123 -1.1795
  972MOL0     C31118   5.166  10.486  12.356 -0.8440  0.4176  0.4317
  972MOL0     C31119   5.253  10.469  12.462 -0.6253  0.3240  0.4761
  972MOL0     C31120   5.396  10.474  12.439  0.1238 -0.4010  0.7492
  972MOL0     O31121   5.467  10.441  12.546 -0.1119  0.6588 -0.7449
  972MOL0     C31122   5.471  10.298  12.572  0.0219  0.2846  1.2000
  972MOL0     C31123   5.570  10.270  12.684 -0.4559 -0.0390  0.1606
  972MOL0     C31124   5.712  10.317  12.638 -0.5496 -0.8177 -0.2099
  972MOL0     C31125   5.816  10.301  12.746  0.3360  0.0484 -0.1730
  972MOL0     C31126   5.959  10.295  12.693 -0.8625  0.4344  0.4032
  972MOL0     C31127   6.010  10.405  12.593  0.8751  0.4279  0.0694
  972MOL0     C31128   6.158  10.417  12.567  0.4523 -0.2530  0.7361
  972MOL0     C31129   6.195  10.535  12.476 -0.4413  0.1999 -0.3095
  972MOL0    Cl31130   6.147  10.690  12.539 -0.3763  0.1972  0.2779
  972MOL0     C31131   5.451  10.491  12.312  0.4340  0.7168 -0.7573
  972MOL0     C31132   5.362  10.512  12.206  0.6386  0.3787 -0.6826
  972MOL0     O31133   4.988  10.383  12.147 -0.2411  0.4050 -1.3390
  972MOL0     C31134   5.080  10.549  11.843 -0.0192  0.1394 -0.3578
  972MOL0     C31135   5.072  10.546  11.710 -0.3463  0.5339  0.1292
  972MOL0     N31136   4.651  10.160  11.489  0.1891 -0.1547 -0.6296
  972MOL0     N31137   4.687  10.037  11.522 -0.4711 -0.1016 -0.3522
  972MOL0     C31138   4.023   9.144  11.158 -0.3061  0.2763  0.8421
  972MOL0     C31139   4.092   9.061  11.063  0.4439 -0.5215 -0.2344
  972MOL0     C31140   4.198   8.888  10.618  0.2206  0.1446  0.0646
  972MOL0     C31141   4.281   8.801  10.690 -0.5347  0.5595 -0.0565
  972MOL0     C31142   4.346   8.695  10.620 -0.0228  0.0076 -0.3687
  972MOL0     C31143   4.303   8.660  10.490 -0.2230 -0.0703  0.3120
  972MOL0     O31144   4.353   8.556  10.433  0.0317  0.5084 -0.9184
  972MOL0     C31145   4.268   8.457  10.366 -0.0811 -0.1579  0.3327
  972MOL0     C31146   4.255   8.322  10.448 -0.0832 -1.1870  0.5773
  972MOL0     C31147   4.145   8.331  10.560 -0.3841 -0.1500  0.0295
  972MOL0     C31148   4.098   8.196  10.620  0.6537  0.9100  0.2368
  972MOL0     C31149   4.051   8.101  10.511  0.4502 -0.6607  0.2433
  972MOL0     C31150   3.995   8.024  10.435  0.1020 -1.0195  0.2902
  972MOL0     C31151   4.223   8.757  10.420 -0.4606 -0.3219 -0.1332
  972MOL0     C31152   4.167   8.865  10.481 -0.4875 -0.2238 -1.1950
  972MOL0     H31153   4.136   9.270  10.806 -0.8845 -5.6681 -2.1192
  972MOL0     H31154   4.034   9.426  10.974  2.7247  0.4198 -1.2664
  972MOL0     H31155   3.926   9.443  11.395  0.6009 -0.2128 -0.7388
  972MOL0     H31156   3.976   9.281  11.388  0.8867 -1.0584 -0.1354
  972MOL0     H31157   4.177   9.395  11.459 -1.1673 -0.9943  1.4039
  972MOL0     H31158   4.193   9.379  11.286  0.8442 -1.2297  1.4210
  972MOL0     H31159   4.073   9.626  11.288 -0.9782  1.4887  0.0143
  972MOL0     H31160   4.128   9.632  11.452 -0.6893 -0.8491  0.0424
  972MOL0     H31161   4.369   9.569  11.332 -1.0068 -0.5517  1.8139
  972MOL0     H31162   4.271   9.607  11.196 -0.9266  1.0362  0.3409
  972MOL0     H31163   4.245   9.837  11.273 -0.6857  0.5816 -0.1184
  972MOL0     H31164   4.277   9.795  11.440 -3.6375 -1.4175 -0.0075
  972MOL0     H31165   4.478   9.795  11.208  1.3381  0.4389 -0.3593
  972MOL0     H31166   4.447   9.932  11.315  3.9288  0.6085 -2.3793
  972MOL0     H31167   4.517   9.816  11.505 -0.6008 -0.6199 -0.1461
  972MOL0     H31168   4.571   9.669  11.411  6.8565  0.4659  3.9779
  972MOL0     H31169   4.735   9.799  11.296  0.4934  0.2645  0.1039
  972MOL0     H31170   4.750   9.788  11.473 -0.1899  4.0077  1.3247
  972MOL0     H31171   4.693  10.041  11.195  1.2317 -0.1177 -0.5672
  972MOL0     H31172   4.546  10.294  11.219  2.2653 -1.4651 -2.5546
  972MOL0     H31173   4.606  10.377  11.360  2.6241 -0.3970  0.3770
  972MOL0     H31174   4.729  10.419  11.140 -1.0639 -3.6593 -2.0751
  972MOL0     H31175   4.816  10.270  11.174  2.0011  0.4751  1.6864
  972MOL0     H31176   4.792  10.525  11.366  2.0697 -0.2154  2.2726
  972MOL0     H31177   4.930  10.494  11.274  1.3351 -0.8721  1.5157
  972MOL0     H31178   4.952  10.268  11.429 -0.3189 -1.0900  1.4349
  972MOL0     H31179   4.816  10.348  11.504  1.5636 -2.2679  0.1056
  972MOL0     H31180   4.909  10.243  11.693  0.1748 -0.0952 -0.9153
  972MOL0     H31181   4.808  10.178  11.862  1.6549  2.2316 -2.0999
  972MOL0     H31182   4.936  10.148  11.965  3.2894  1.4033 -3.1233
  972MOL0     H31183   4.796  10.256  12.014  0.2018 -0.8996  1.6609
  972MOL0     H31184   5.059  10.481  12.372 -1.1460 -0.0953 -1.5742
  972MOL0     H31185   5.213  10.465  12.563  2.0794  1.6243  1.6927
  972MOL0     H31186   5.371  10.272  12.607 -0.2243  1.2416  1.2421
  972MOL0     H31187   5.495  10.244  12.480  2.0342  0.8516  1.3352
  972MOL0     H31188   5.533  10.324  12.772 -2.0138  2.2458 -1.7497
  972MOL0     H31189   5.573  10.162  12.699  2.5922 -0.1699 -0.7606
  972MOL0     H31190   5.709  10.422  12.607  1.1334 -0.1894  1.4806
  972MOL0     H31191   5.737  10.248  12.558 -1.6345 -2.4311  0.7975
  972MOL0     H31192   5.802  10.386  12.813 -2.0162  0.0247 -0.5406
  972MOL0     H31193   5.792  10.213  12.805 -0.2794 -1.5951 -2.6969
  972MOL0     H31194   5.976  10.199  12.644  1.1544  2.0345 -2.2975
  972MOL0     H31195   6.027  10.291  12.779  0.4106 -3.5464 -0.5703
  972MOL0     H31196   5.947  10.393  12.504  1.3510 -0.0111 -0.2097
  972MOL0     H31197   5.975  10.505  12.622  0.5625 -0.3142  2.4534
  972MOL0     H31198   6.194  10.319  12.535  0.0599  0.5091 -2.3199
  972MOL0     H31199   6.204  10.428  12.666 -0.5452  0.4449  1.1418
  972MOL0     H31200   6.152  10.513  12.378 -2.2098  0.7384  0.3172
  972MOL0     H31201   6.301  10.559  12.461  0.1448 -0.9781  1.6121
  972MOL0     H31202   5.557  10.476  12.300  0.8117  0.4673  2.0595
  972MOL0     H31203   5.394  10.529  12.104 -1.5549  2.5189 -1.1153
  972MOL0     H31204   5.126  10.637  11.886 -2.5414  0.6153  1.5946
  972MOL0     H31205   5.110  10.617  11.638  1.4220 -1.0635 -0.5842
  972MOL0     H31206   3.978   9.091  11.242 -1.1347  1.3381  1.0916
  972MOL0     H31207   4.116   8.957  11.086  0.1178 -0.4387  0.5367
  972MOL0     H31208   4.321   8.799  10.791  0.2719 -1.6672 -0.3541
  972MOL0     H31209   4.405   8.641  10.693  0.5187 -0.9172 -1.4593
  972MOL0     H31210   4.178   8.490  10.314  1.9649  1.5772 -2.3782
  972MOL0     H31211   4.328   8.436  10.276  0.4425  1.4509  0.2689
  972MOL0     H31212   4.345   8.274  10.486 -0.2639 -0.3971  2.0717
  972MOL0     H31213   4.211   8.247  10.381 -0.8622 -3.3803  3.3592
  972MOL0     H31214   4.057   8.380  10.517 -1.1535 -0.3888  1.2948
  972MOL0     H31215   4.163   8.396  10.646 -1.4486 -0.4170  0.4650
  972MOL0     H31216   4.019   8.220  10.692 -1.3430  2.1729 -2.2310
  972MOL0     H31217   4.176   8.148  10.680  0.8173 -0.2909 -0.8949
  972MOL0     H31218   3.949   7.982  10.347  1.3500 -0.5800 -0.6092
  972MOL0     H31219   4.188   8.757  10.317  0.1431 -1.3392 -0.3529
  972MOL0     H31220   4.106   8.933  10.422  2.9898  1.3550 -3.2893
  973MOL0     O31221  10.541   4.739   1.103 -0.3019  0.0322 -0.1144
  973MOL0     C31222  10.579   4.815   1.191  0.2371  0.1153 -0.1525
  973MOL0     O31223  10.693   4.889   1.202  0.8729 -0.3989  0.0581
  973MOL0     C31224  10.783   4.886   1.101 -0.3504  1.1051 -0.0096
  973MOL0     C31225  10.817   5.007   1.052  0.0728  0.0782  0.4068
  973MOL0     C31226  10.888   5.016   0.929 -0.4570 -0.3779  0.2816
  973MOL0     C31227  10.922   4.905   0.857  0.6577  1.2480  0.4993
  973MOL0     O31228  10.959   4.899   0.729  0.7768 -0.7396 -0.4913
  973MOL0     C31229  11.030   5.009   0.680 -1.4555 -0.1622  0.1857
  973MOL0     C31230  11.048   4.994   0.524 -1.1785  0.0409  0.4859
  973MOL0     C31231  11.142   5.116   0.478  0.6384 -0.2709  0.2423
  973MOL0     C31232  11.184   5.070   0.331 -0.6216 -0.7076 -0.3549
  973MOL0     C31233  11.303   5.150   0.266  1.0727 -1.6243  0.2863
  973MOL0     C31234  11.272   5.308   0.259 -0.5448 -0.2773 -0.1935
  973MOL0     C31235  11.161   5.348   0.153 -0.1923  0.2361  0.3060
  973MOL0     C31236  11.154   5.494   0.132  0.9535 -0.5095 -0.7329
  973MOL0     N31237  11.034   5.552   0.205  0.3492 -0.2864 -0.0376
  973MOL0     C31238  10.913   5.550   0.144 -0.0603 -0.3032 -0.3948
  973MOL0     C31239  10.836   5.604   0.243  0.5146 -0.7621 -0.2067
  973MOL0     C31240  10.685   5.621   0.248 -0.3821 -0.3951  0.0222
  973MOL0     C31241  10.632   5.760   0.226 -0.2286 -0.9649  0.1936
  973MOL0     C31242  10.596   5.788   0.077  0.3566 -0.4590  0.2225
  973MOL0     C31243  10.528   5.922   0.063 -0.3868  0.0151  0.3095
  973MOL0     O31244  10.600   6.029   0.144 -0.0139 -0.0452  0.0364
  973MOL0     C31245  10.570   6.162   0.133  0.8105 -0.1015 -0.7409
  973MOL0     C31246  10.664   6.253   0.176 -0.9678  0.0242  0.1868
  973MOL0     C31247  10.660   6.389   0.147  0.0060 -0.6447 -1.0736
  973MOL0     C31248  10.789   6.473   0.170  0.1710 -0.3280 -0.1244
  973MOL0     C31249  10.540   6.441   0.082 -0.1400 -0.7637 -1.2089
  973MOL0     C31250  10.521   6.588   0.069 -0.2985  0.7634  0.0951
  973MOL0     O31251  10.388   6.630   0.062  0.0047 -0.4470 -0.5976
  973MOL0     C31252  10.360   6.763   0.054  0.3830  0.0084  0.6854
  973MOL0     C31253  10.374   6.846  -0.059  0.2616  0.0464  0.6463
  973MOL0     C31254  10.325   6.977  -0.065 -0.5253  0.2353 -0.5772
  973MOL0     C31255  10.258   7.028   0.044 -0.3682 -1.4131  0.0892
  973MOL0     O31256  10.190   7.150   0.054 -0.2009 -0.1575  0.0686
  973MOL0     C31257  10.208   7.236  -0.062 -0.2443 -0.1881  0.9112
  973MOL0     C31258  10.148   7.382  -0.052 -0.4454  0.0977 -0.0058
  973MOL0     C31259  10.217   7.453   0.059 -0.1264  0.5299 -0.0459
  973MOL0     C31260  10.189   7.607   0.055 -0.6329  0.4374  0.6186
  973MOL0     C31261  10.065   7.656   0.139 -0.6201  0.5403 -0.7291
  973MOL0     C31262  10.082   7.638   0.294  0.5781  0.3875 -0.6670
  973MOL0     C31263  10.103   7.760   0.376 -0.2962 -0.4156  0.6308
  973MOL0     C31264   9.998   7.766   0.485  0.0518 -0.1145 -0.9121
  973MOL0    Cl31265   9.997   7.923   0.562 -0.3401 -0.2922  0.2539
  973MOL0     C31266  10.239   6.959   0.156  1.1688  0.5080  0.3045
  973MOL0     C31267  10.299   6.823   0.164  0.2898 -0.5512  0.4322
  973MOL0     O31268  10.618   6.665   0.063  0.8330  0.6028 -0.4391
  973MOL0     C31269  10.442   6.352   0.044 -0.1769 -0.1822 -0.7964
  973MOL0     C31270  10.468   6.213   0.068  0.4709  0.6192  0.2277
  973MOL0     N31271  10.919   5.639   0.351 -0.1793  0.3188 -0.5991
  973MOL0     N31272  11.044   5.610   0.323  0.4991 -0.7421  0.4377
  973MOL0     C31273  10.894   4.779   0.917  0.3044  0.1021 -0.2480
  973MOL0     C31274  10.831   4.765   1.042  0.2131 -0.8688 -0.8445
  973MOL0     C31275  10.493   4.830   1.313  0.3775  0.4517  0.6578
  973MOL0     C31276  10.389   4.729   1.345 -0.3104 -0.4849 -0.1790
  973MOL0     C31277  10.330   4.737   1.471 -0.4108 -1.0844  1.4115
  973MOL0     C31278  10.365   4.841   1.559 -0.3526 -0.9965  0.3407
  973MOL0     O31279  10.297   4.849   1.681 -0.1853  0.7972 -0.4927
  973MOL0     C31280  10.246   4.722   1.729  0.3794 -0.6366 -0.0369
  973MOL0     C31281  10.214   4.726   1.873  0.0218  0.7345 -0.3190
  973MOL0     C31282  10.135   4.601   1.914 -0.3748  1.1810 -0.9002
  973MOL0     C31283   9.988   4.615   1.879 -0.0911 -0.6206 -1.0535
  973MOL0     C31284   9.915   4.489   1.912 -0.0125 -0.6795  0.3650
  973MOL0     C31285   9.893   4.373   1.924  1.1232  0.0374 -0.0419
  973MOL0     C31286  10.470   4.932   1.529  0.1977  0.0966 -0.1559
  973MOL0     C31287  10.524   4.932   1.405 -0.4199 -0.7573 -0.5319
  973MOL0     H31288  10.762   5.089   1.098 -3.5454 -1.1326 -1.3705
  973MOL0     H31289  10.922   5.112   0.889 -0.7114 -2.0220 -4.6147
  973MOL0     H31290  10.995   5.111   0.697  5.3264  3.0376 -1.3822
  973MOL0     H31291  11.127   4.994   0.730 -1.1149 -0.5732 -0.5859
  973MOL0     H31292  11.095   4.899   0.497 -0.6031 -0.0086  1.6393
  973MOL0     H31293  10.953   5.011   0.473 -0.4491  1.6299 -0.4460
  973MOL0     H31294  11.073   5.198   0.455 -0.2041 -1.7406 -3.2459
  973MOL0     H31295  11.226   5.133   0.545 -0.3816 -0.6561  1.6710
  973MOL0     H31296  11.216   4.965   0.327 -1.2963 -0.9527  0.4199
  973MOL0     H31297  11.099   5.075   0.263  0.4728 -0.7520 -1.7898
  973MOL0     H31298  11.397   5.129   0.317  0.9368 -0.6547  0.9709
  973MOL0     H31299  11.308   5.122   0.160 -0.2978 -0.0159 -0.2675
  973MOL0     H31300  11.238   5.338   0.358  1.2625  4.5601 -0.7970
  973MOL0     H31301  11.362   5.364   0.235 -1.6363  0.6716 -2.3728
  973MOL0     H31302  11.178   5.293   0.060 -2.3319  0.0165 -0.0035
  973MOL0     H31303  11.075   5.303   0.203  0.9203  0.9462  3.0172
  973MOL0     H31304  11.155   5.510   0.024 -3.8631 -3.4149 -1.4646
  973MOL0     H31305  11.245   5.539   0.172  0.8952 -1.5703  0.6879
  973MOL0     H31306  10.883   5.504   0.050 -1.8938  0.2667 -0.1317
  973MOL0     H31307  10.633   5.551   0.182 -1.3320  0.6933 -0.4117
  973MOL0     H31308  10.652   5.595   0.349 -0.2344  0.9095  0.4305
  973MOL0     H31309  10.692   5.842   0.267 -0.0115 -0.0420 -1.8101
  973MOL0     H31310  10.542   5.779   0.285 -0.5891  1.1470 -0.9192
  973MOL0     H31311  10.530   5.709   0.041 -1.1229  1.4182 -1.4420
  973MOL0     H31312  10.683   5.782   0.010  0.7147 -1.4930  0.7516
  973MOL0     H31313  10.420   5.913   0.078 -0.4334  1.9495  1.5031
  973MOL0     H31314  10.546   5.949  -0.042  2.2969 -3.4500 -0.3063
  973MOL0     H31315  10.746   6.216   0.236  1.3377  3.3708 -0.6058
  973MOL0     H31316  10.875   6.411   0.195  1.2599  0.4735 -1.7557
  973MOL0     H31317  10.812   6.542   0.088  0.2911 -1.5115 -1.1165
  973MOL0     H31318  10.762   6.545   0.247 -1.7014  0.8056 -1.7347
  973MOL0     H31319  10.419   6.802  -0.148 -3.2798 -2.7491  0.0199
  973MOL0     H31320  10.325   7.030  -0.159  0.1519  0.3433 -0.5182
  973MOL0     H31321  10.312   7.247  -0.094 -1.1073  1.9278 -1.5706
  973MOL0     H31322  10.146   7.195  -0.143 -3.3833  1.5218  2.2363
  973MOL0     H31323  10.157   7.436  -0.147  2.7402 -1.2370 -0.6068
  973MOL0     H31324  10.045   7.377  -0.015 -0.0390  0.0438  1.1613
  973MOL0     H31325  10.323   7.431   0.042 -1.1546 -5.6392 -0.7303
  973MOL0     H31326  10.193   7.410   0.156  2.7980  0.9729  0.9704
  973MOL0     H31327  10.282   7.654   0.089 -0.5931 -0.1079  1.2733
  973MOL0     H31328  10.168   7.635  -0.049 -1.5775 -1.1033  0.3720
  973MOL0     H31329   9.974   7.597   0.122 -1.0910  1.6013 -2.0789
  973MOL0     H31330  10.037   7.759   0.114 -3.2035  0.3682  0.9792
  973MOL0     H31331  10.001   7.577   0.334 -0.6184  1.9873 -0.5567
  973MOL0     H31332  10.164   7.570   0.319  0.7713  1.0880  0.7099
  973MOL0     H31333  10.091   7.856   0.325 -1.2186  0.6584  2.7520
  973MOL0     H31334  10.200   7.775   0.424 -1.4001  3.6423  2.0198
  973MOL0     H31335  10.018   7.690   0.561  0.0165  1.1531  0.3994
  973MOL0     H31336   9.900   7.736   0.447 -0.0582 -3.2760  1.4728
  973MOL0     H31337  10.190   6.999   0.245  2.3812 -1.2789  1.8691
  973MOL0     H31338  10.288   6.764   0.255  1.8427  0.2631  1.1918
  973MOL0     H31339  10.357   6.375  -0.020  0.3465 -1.6773 -2.0991
  973MOL0     H31340  10.389   6.146   0.034 -0.8686  0.1860  3.8175
  973MOL0     H31341  10.916   4.695   0.852  3.0091  0.2064  0.4023
  973MOL0     H31342  10.792   4.672   1.083  1.3320 -1.0004 -0.0501
  973MOL0     H31343  10.373   4.649   1.274  1.0017 -3.1038  2.2568
  973MOL0     H31344  10.254   4.667   1.504 -0.7761 -1.3139  0.1352
  973MOL0     H31345  10.153   4.706   1.673  0.4239 -0.3497 -0.1942
  973MOL0     H31346  10.331   4.654   1.717  0.4554 -0.3849 -1.0461
  973MOL0     H31347  10.166   4.822   1.896 -0.3877  0.4265  0.1437
  973MOL0     H31348  10.312   4.717   1.921  0.4624  0.6961 -1.2160
  973MOL0     H31349  10.156   4.585   2.021  1.8487 -2.5891 -1.6923
  973MOL0     H31350  10.168   4.514   1.857  0.3923  0.2377  0.8769
  973MOL0     H31351   9.976   4.619   1.770 -0.6617 -3.3478 -1.1793
  973MOL0     H31352   9.953   4.710   1.919  2.2512 -0.2449  0.2410
  973MOL0     H31353   9.904   4.267   1.932  4.1973  0.2463 -0.3379
  973MOL0     H31354  10.514   5.001   1.600 -1.8123  1.6686 -0.3473
  973MOL0     H31355  10.601   5.005   1.379 -2.7172  2.5995  1.3413
  974MOL0     O31356   0.203   6.394   7.609 -0.0431  0.2286 -0.5778
  974MOL0     C31357   0.141   6.356   7.711 -0.0906  0.3147 -0.5238
  974MOL0     O31358   0.020   6.289   7.711  0.1118 -0.3830  0.3138
  974MOL0     C31359  -0.036   6.278   7.588 -0.1765 -0.4260  0.1176
  974MOL0     C31360  -0.091   6.150   7.544 -1.1439  0.9709 -0.2907
  974MOL0     C31361  -0.133   6.141   7.415 -0.2597  0.6005 -0.2132
  974MOL0     C31362  -0.138   6.244   7.323 -0.4322  0.3224 -0.5515
  974MOL0     O31363  -0.167   6.220   7.190 -0.6270  0.7381 -0.3309
  974MOL0     C31364  -0.263   6.113   7.151  0.7263 -1.5125 -0.8264
  974MOL0     C31365  -0.325   6.134   7.018  0.1795 -0.6442 -0.2236
  974MOL0     C31366  -0.206   6.137   6.923 -0.5596 -0.6374  0.8862
  974MOL0     C31367  -0.243   6.181   6.777 -0.4960  0.0996  0.4991
  974MOL0     C31368  -0.103   6.213   6.699  0.4063  0.2677 -0.1472
  974MOL0     C31369  -0.106   6.294   6.577 -0.0352  0.0154 -0.2005
  974MOL0     C31370   0.027   6.375   6.558 -0.4979  0.9194  0.4221
  974MOL0     C31371   0.057   6.459   6.439  1.4183  0.9479 -0.3294
  974MOL0     N31372   0.061   6.367   6.319  0.2630  0.4060 -0.3433
  974MOL0     C31373   0.163   6.281   6.304 -0.0089  0.1988 -0.0933
  974MOL0     C31374   0.136   6.224   6.183 -0.4800 -1.1077 -0.4018
  974MOL0     C31375   0.225   6.136   6.104 -0.9029  0.0568  0.2754
  974MOL0     C31376   0.269   6.197   5.977 -0.0430  0.3484  0.2676
  974MOL0     C31377   0.344   6.095   5.880  0.1287 -0.6803 -0.4833
  974MOL0     C31378   0.441   5.990   5.947 -0.0414  0.8147  0.1183
  974MOL0     O31379   0.547   6.050   6.019  0.4714  0.8881  0.0077
  974MOL0     C31380   0.672   6.074   5.967 -0.4990 -0.5926 -0.7198
  974MOL0     C31381   0.777   6.126   6.052 -0.1616 -0.2184  0.2487
  974MOL0     C31382   0.903   6.144   5.993 -0.5060  0.6774 -0.0976
  974MOL0     C31383   1.005   6.202   6.090 -0.3954 -0.2227 -1.0732
  974MOL0     C31384   0.938   6.101   5.861 -0.4434  0.6876  0.1821
  974MOL0     C31385   1.067   6.118   5.796  0.0366 -0.5807 -0.5690
  974MOL0     O31386   1.138   6.225   5.818 -0.9504  0.6163  0.4514
  974MOL0     C31387   1.268   6.235   5.779 -0.4924 -0.3436  0.0686
  974MOL0     C31388   1.375   6.219   5.870 -0.6377 -0.2910 -0.4518
  974MOL0     C31389   1.508   6.246   5.829  0.1887  0.9957  0.2602
  974MOL0     C31390   1.532   6.292   5.694 -0.1662  0.7936 -0.4921
  974MOL0     O31391   1.659   6.334   5.660 -0.8415 -0.8403  0.7883
  974MOL0     C31392   1.673   6.462   5.584 -0.7392  0.4191 -0.3961
  974MOL0     C31393   1.819   6.511   5.612  0.2331  0.6390 -0.7797
  974MOL0     C31394   1.848   6.654   5.562 -0.3366 -0.5114 -0.1843
  974MOL0     C31395   1.842   6.694   5.415 -0.4918  1.1950  0.4665
  974MOL0     C31396   1.925   6.812   5.375  0.2322 -0.5535  0.3976
  974MOL0     C31397   2.079   6.807   5.375  0.1836 -0.9961  0.0003
  974MOL0     C31398   2.143   6.735   5.265  0.0533  0.5355  0.5906
  974MOL0     C31399   2.271   6.670   5.309  0.5581  0.3079 -0.2504
  974MOL0    Cl31400   2.256   6.569   5.457 -0.3796 -0.5632  0.2229
  974MOL0     C31401   1.429   6.288   5.598 -0.0689 -0.4279 -0.1935
  974MOL0     C31402   1.296   6.259   5.645 -0.1949  0.1587 -0.5097
  974MOL0     O31403   1.097   6.036   5.718 -0.5858  0.7132 -0.0808
  974MOL0     C31404   0.830   6.053   5.787  0.0547 -0.4834  0.9282
  974MOL0     C31405   0.703   6.042   5.831  0.6744  0.4527  0.1971
  974MOL0     N31406   0.015   6.277   6.133  0.6124 -0.0318 -0.0428
  974MOL0     N31407  -0.028   6.358   6.221 -0.1003 -0.4371  0.2228
  974MOL0     C31408  -0.106   6.374   7.367 -0.0184 -0.1742 -0.4371
  974MOL0     C31409  -0.062   6.391   7.506  0.0981  0.1482  1.0471
  974MOL0     C31410   0.205   6.378   7.840 -0.7310  0.9866 -0.1185
  974MOL0     C31411   0.336   6.431   7.849  0.0647  0.2703  0.5054
  974MOL0     C31412   0.394   6.450   7.980 -0.3506  0.0344  1.4346
  974MOL0     C31413   0.330   6.399   8.090 -0.1770 -0.3781  0.5764
  974MOL0     O31414   0.372   6.430   8.214 -0.1538  0.2567 -0.6585
  974MOL0     C31415   0.516   6.453   8.245  0.2329  0.6011  0.0857
  974MOL0     C31416   0.562   6.402   8.383  0.3015 -0.3780  0.3071
  974MOL0     C31417   0.711   6.379   8.406 -1.3015  0.7093  0.1946
  974MOL0     C31418   0.728   6.341   8.557 -0.6211  0.3486  0.0621
  974MOL0     C31419   0.715   6.449   8.655  0.0316 -0.4412 -0.3262
  974MOL0     C31420   0.691   6.555   8.719 -0.2310  0.4234 -0.2679
  974MOL0     C31421   0.203   6.348   8.079 -0.2769 -0.0949  0.0945
  974MOL0     C31422   0.138   6.330   7.956 -0.5829 -0.0955 -1.0193
  974MOL0     H31423  -0.082   6.066   7.612 -0.3472 -0.1168 -1.6592
  974MOL0     H31424  -0.152   6.040   7.382 -0.3234  1.4039 -2.9013
  974MOL0     H31425  -0.213   6.016   7.160 -0.2670 -2.0754 -1.2761
  974MOL0     H31426  -0.340   6.130   7.227  0.2626  1.8650 -1.8734
  974MOL0     H31427  -0.402   6.060   6.995  1.4973 -1.5534 -1.9051
  974MOL0     H31428  -0.383   6.227   7.014  2.0691  0.6349  0.4769
  974MOL0     H31429  -0.121   6.194   6.961 -1.1761 -0.3860  1.9416
  974MOL0     H31430  -0.167   6.036   6.908  0.2671 -0.2988  0.7039
  974MOL0     H31431  -0.288   6.090   6.735  2.0004 -0.9991  0.0467
  974MOL0     H31432  -0.311   6.267   6.776 -0.0002  0.5122 -0.9408
  974MOL0     H31433  -0.036   6.270   6.764 -1.2396  1.4358  0.5886
  974MOL0     H31434  -0.054   6.119   6.674  0.2644 -0.0552  0.7696
  974MOL0     H31435  -0.129   6.229   6.493 -5.7863  0.2208  0.7981
  974MOL0     H31436  -0.185   6.367   6.600 -0.9911 -1.7846  2.9102
  974MOL0     H31437   0.043   6.441   6.644  2.9941 -1.6768  2.0591
  974MOL0     H31438   0.112   6.307   6.570 -2.1604 -1.1987  0.8533
  974MOL0     H31439   0.155   6.507   6.445  0.6031  3.0157 -2.0033
  974MOL0     H31440  -0.022   6.532   6.420  0.2656 -0.4240 -1.0713
  974MOL0     H31441   0.257   6.270   6.358  0.4305 -1.3387 -1.0950
  974MOL0     H31442   0.314   6.134   6.168 -0.5829 -2.7707 -0.1583
  974MOL0     H31443   0.186   6.034   6.107  0.3345 -0.4116  2.1185
  974MOL0     H31444   0.340   6.278   5.993  0.1333  0.9453 -2.9290
  974MOL0     H31445   0.178   6.230   5.927 -0.3585 -0.6229  0.1730
  974MOL0     H31446   0.396   6.164   5.813 -3.0314  0.5519 -1.8631
  974MOL0     H31447   0.268   6.044   5.821 -0.4797 -0.3898  0.0375
  974MOL0     H31448   0.481   5.925   5.869  2.1651  2.0921  0.0910
  974MOL0     H31449   0.396   5.919   6.017  1.1011  1.8848  2.0201
  974MOL0     H31450   0.767   6.160   6.154  0.7354  1.5083 -0.2003
  974MOL0     H31451   0.962   6.255   6.175  1.0297 -0.0403 -0.4436
  974MOL0     H31452   1.078   6.130   6.128  0.7674  2.2173  1.6155
  974MOL0     H31453   1.054   6.286   6.041 -1.5459 -0.4453 -2.7129
  974MOL0     H31454   1.361   6.197   5.975  0.1167 -0.9941 -0.4964
  974MOL0     H31455   1.589   6.243   5.901  1.8492  1.1170 -1.5294
  974MOL0     H31456   1.659   6.452   5.476  1.8778  1.4734 -0.9176
  974MOL0     H31457   1.606   6.537   5.628  1.7594  1.7923  1.2942
  974MOL0     H31458   1.820   6.523   5.721  0.3132 -1.5926 -0.5018
  974MOL0     H31459   1.897   6.441   5.580 -1.6890 -0.9286 -2.3092
  974MOL0     H31460   1.949   6.691   5.585  0.2247 -0.7460 -2.1036
  974MOL0     H31461   1.797   6.725   5.629 -0.3876 -1.4183  0.7524
  974MOL0     H31462   1.881   6.615   5.350  1.5332  3.4486 -1.2573
  974MOL0     H31463   1.736   6.707   5.395 -2.0211 -1.4292  5.4045
  974MOL0     H31464   1.893   6.903   5.427  0.2392  0.6086 -1.5110
  974MOL0     H31465   1.908   6.834   5.269 -1.3299  0.5319  0.8407
  974MOL0     H31466   2.114   6.910   5.362 -1.7376 -0.5775 -2.6122
  974MOL0     H31467   2.114   6.774   5.474  1.1273  1.3223  0.5132
  974MOL0     H31468   2.145   6.814   5.189 -1.3460 -2.3577 -2.7057
  974MOL0     H31469   2.084   6.653   5.222 -3.2273  1.9857  2.0115
  974MOL0     H31470   2.349   6.745   5.324  3.0155 -2.2532  0.8436
  974MOL0     H31471   2.316   6.611   5.229 -2.9653  0.3434 -2.4596
  974MOL0     H31472   1.441   6.306   5.492 -0.3177  0.5054 -0.0695
  974MOL0     H31473   1.215   6.284   5.577 -2.4750  0.6601  2.1998
  974MOL0     H31474   0.851   6.017   5.687 -1.0151 -4.0213  1.8545
  974MOL0     H31475   0.635   5.995   5.761  1.3823  2.3361 -1.8756
  974MOL0     H31476  -0.115   6.452   7.293 -0.1921 -0.2095 -0.4542
  974MOL0     H31477  -0.039   6.490   7.544  1.4519 -0.2948  1.4120
  974MOL0     H31478   0.396   6.471   7.768  0.6479 -2.3957 -0.4970
  974MOL0     H31479   0.488   6.504   7.984 -0.4130  0.3208 -0.1291
  974MOL0     H31480   0.577   6.387   8.183  2.5802  2.8572 -0.1985
  974MOL0     H31481   0.553   6.555   8.234  1.5926 -0.1008 -2.6073
  974MOL0     H31482   0.503   6.313   8.408  0.8903 -0.1266  2.8666
  974MOL0     H31483   0.523   6.481   8.447 -0.9222  1.8673 -2.9062
  974MOL0     H31484   0.774   6.463   8.376  3.1408 -1.1593  3.2328
  974MOL0     H31485   0.746   6.295   8.345  1.3600  1.1732  0.9477
  974MOL0     H31486   0.822   6.286   8.571 -2.8249 -3.5635  1.0496
  974MOL0     H31487   0.648   6.269   8.576 -2.5518  1.0810 -4.1501
  974MOL0     H31488   0.648   6.641   8.766 -0.6445  0.5842 -0.9198
  974MOL0     H31489   0.165   6.294   8.165  1.4045 -2.0029 -0.3013
  974MOL0     H31490   0.036   6.295   7.945 -1.2496  2.1063 -2.3424
  975MOL0     O31491   1.555   2.848  11.155 -0.0936 -0.5246 -0.1676
  975MOL0     C31492   1.582   2.736  11.205 -0.0409 -0.3190  0.6393
  975MOL0     O31493   1.618   2.703  11.334  0.2123 -0.1263  0.0454
  975MOL0     C31494   1.635   2.803  11.424  0.0453  0.0284 -0.0784
  975MOL0     C31495   1.711   2.914  11.402  0.2463 -0.5309 -0.4395
  975MOL0     C31496   1.739   3.001  11.518 -0.8157  0.2540  0.8787
  975MOL0     C31497   1.694   2.977  11.648 -0.1908  1.0375  0.0473
  975MOL0     O31498   1.731   3.064  11.741 -0.3298 -0.0721 -1.0542
  975MOL0     C31499   1.719   3.025  11.871  0.2070 -0.0280 -0.3377
  975MOL0     C31500   1.775   3.142  11.949 -0.2277  0.2001  0.0578
  975MOL0     C31501   1.920   3.171  11.904  0.3603 -0.5346  0.1647
  975MOL0     C31502   2.031   3.059  11.890 -0.9353  0.0409 -0.4939
  975MOL0     C31503   2.159   3.121  11.820  0.7024 -0.3734  0.2577
  975MOL0     C31504   2.229   3.226  11.899 -0.4724 -0.6176 -0.3874
  975MOL0     C31505   2.262   3.185  12.042 -0.3673 -0.0579  0.3811
  975MOL0     C31506   2.337   3.050  12.061 -0.6970 -0.0051  0.7660
  975MOL0     N31507   2.467   3.045  11.986 -0.5094  0.6964  1.3567
  975MOL0     C31508   2.558   3.149  11.984 -0.5284 -0.4519 -0.1080
  975MOL0     C31509   2.654   3.115  11.892  0.2898 -0.0923  0.3035
  975MOL0     C31510   2.773   3.201  11.868 -0.1158  0.0290  0.4892
  975MOL0     C31511   2.911   3.146  11.903  0.0741  0.3750 -0.4560
  975MOL0     C31512   2.940   3.145  12.056  0.0732  0.1148  0.3226
  975MOL0     C31513   3.029   3.272  12.095  0.4055  0.2504 -1.2729
  975MOL0     O31514   2.961   3.395  12.089  0.3866 -0.5724  0.0206
  975MOL0     C31515   3.003   3.484  11.996  0.7938 -0.0724  0.2128
  975MOL0     C31516   3.053   3.604  12.041 -0.2774 -0.9506 -0.2712
  975MOL0     C31517   3.102   3.713  11.967 -0.3931 -0.2132  0.2199
  975MOL0     C31518   3.157   3.832  12.044 -0.0743  0.1918  0.2456
  975MOL0     C31519   3.080   3.710  11.826  0.4391 -0.0328 -0.7124
  975MOL0     C31520   3.132   3.816  11.727  0.0978  0.4095 -0.7516
  975MOL0     O31521   3.216   3.921  11.778  0.7816  0.5125  0.3307
  975MOL0     C31522   3.275   4.016  11.696 -0.8510 -1.2261 -0.8109
  975MOL0     C31523   3.238   4.144  11.716 -0.0248 -0.2614  0.5230
  975MOL0     C31524   3.305   4.239  11.636  0.3493 -0.1150 -0.1748
  975MOL0     C31525   3.396   4.198  11.536  0.8752 -0.3104  0.0339
  975MOL0     O31526   3.458   4.289  11.459 -0.9635  0.3943 -0.0353
  975MOL0     C31527   3.383   4.360  11.366 -0.7656  0.2929  0.2780
  975MOL0     C31528   3.469   4.439  11.260  0.3380  1.3736 -0.5543
  975MOL0     C31529   3.381   4.502  11.154  1.3445 -0.2692  0.4162
  975MOL0     C31530   3.315   4.629  11.197 -0.1326 -0.1517  0.1620
  975MOL0     C31531   3.239   4.706  11.092  0.4041  0.1026 -0.1233
  975MOL0     C31532   3.335   4.792  11.005 -0.2125 -0.4084  1.0621
  975MOL0     C31533   3.242   4.886  10.909 -0.2734  0.7501 -1.1006
  975MOL0     C31534   3.307   4.999  10.833 -0.1279  0.5567 -0.5115
  975MOL0    Cl31535   3.185   5.113  10.797  0.5573 -0.4126  0.1217
  975MOL0     C31536   3.430   4.065  11.521  0.2265 -0.2286 -0.0308
  975MOL0     C31537   3.371   3.970  11.598 -1.0349  0.2445 -0.0519
  975MOL0     O31538   3.101   3.807  11.604  0.2970  0.2586 -0.2758
  975MOL0     C31539   3.036   3.588  11.776  0.5908  0.1299  0.3888
  975MOL0     C31540   2.987   3.482  11.859  0.1829 -0.3682  0.2498
  975MOL0     N31541   2.614   2.993  11.838  0.7252  0.4081 -0.4245
  975MOL0     N31542   2.510   2.949  11.898  0.7066 -0.6818  0.6492
  975MOL0     C31543   1.610   2.855  11.666  0.6422 -0.6983  0.5411
  975MOL0     C31544   1.588   2.777  11.551  0.1453  0.3630 -0.2864
  975MOL0     C31545   1.581   2.628  11.109 -0.5680 -0.1548  0.0567
  975MOL0     C31546   1.616   2.501  11.155  0.1051 -0.3754  0.3639
  975MOL0     C31547   1.606   2.395  11.060  0.0126  0.3086 -0.1307
  975MOL0     C31548   1.560   2.413  10.927  0.3903 -0.3804  0.4069
  975MOL0     O31549   1.548   2.310  10.839  1.0322 -0.5603  0.1362
  975MOL0     C31550   1.669   2.265  10.785 -0.0820  0.5955  0.3580
  975MOL0     C31551   1.657   2.125  10.723 -0.3290  0.1514  0.4440
  975MOL0     C31552   1.571   2.117  10.597  0.7608 -0.1754 -0.1581
  975MOL0     C31553   1.574   1.978  10.526 -1.5561  0.4188  0.1369
  975MOL0     C31554   1.475   1.991  10.419 -0.4439  0.8300  0.9442
  975MOL0     C31555   1.398   2.005  10.333  0.7764  0.5933 -0.2940
  975MOL0     C31556   1.504   2.537  10.893  0.2193 -0.0548  0.4835
  975MOL0     C31557   1.522   2.644  10.982  0.6002  0.7871 -0.2049
  975MOL0     H31558   1.752   2.928  11.303  0.8435 -1.4226 -0.3260
  975MOL0     H31559   1.800   3.086  11.489 -2.5823  0.8469 -1.3717
  975MOL0     H31560   1.615   3.008  11.901 -0.6310  2.4330 -1.5632
  975MOL0     H31561   1.785   2.939  11.878  2.3881  1.0753 -4.0774
  975MOL0     H31562   1.720   3.231  11.921  0.1351  1.8656  3.9219
  975MOL0     H31563   1.772   3.125  12.057 -0.9371 -0.6117 -0.0749
  975MOL0     H31564   1.907   3.217  11.806  1.1469  1.0136  0.7405
  975MOL0     H31565   1.960   3.254  11.963 -1.2048  0.1219  0.3404
  975MOL0     H31566   2.055   3.010  11.984  0.5092  1.7233  0.0655
  975MOL0     H31567   1.986   2.985  11.822 -1.0820  0.9222 -1.3752
  975MOL0     H31568   2.229   3.039  11.802 -0.0949 -1.2676  1.0979
  975MOL0     H31569   2.127   3.163  11.725 -1.1902  0.0655  1.0425
  975MOL0     H31570   2.320   3.259  11.847  0.4224 -0.1128  1.4165
  975MOL0     H31571   2.168   3.317  11.900 -0.7056 -0.7160 -2.2863
  975MOL0     H31572   2.326   3.264  12.082  3.8019 -2.4387 -0.9607
  975MOL0     H31573   2.162   3.182  12.087 -1.1991 -0.5462 -1.3856
  975MOL0     H31574   2.279   2.962  12.033  1.1209 -0.2670 -2.7917
  975MOL0     H31575   2.351   3.040  12.169  1.0320  1.3896  0.7261
  975MOL0     H31576   2.549   3.242  12.040 -1.2417 -1.8852  2.3411
  975MOL0     H31577   2.773   3.217  11.759  0.6631 -2.1371  0.1230
  975MOL0     H31578   2.761   3.296  11.920  0.7010  0.6138 -0.3452
  975MOL0     H31579   2.979   3.215  11.851  0.7783  0.2016  0.2057
  975MOL0     H31580   2.933   3.047  11.863  1.5129  1.2283 -1.8925
  975MOL0     H31581   2.980   3.048  12.088 -1.8657 -0.6016  0.7254
  975MOL0     H31582   2.846   3.145  12.112 -0.5515  2.2070 -0.6226
  975MOL0     H31583   3.126   3.271  12.045  2.1841 -1.9606  1.8857
  975MOL0     H31584   3.041   3.252  12.202 -2.1231 -3.5483 -1.4950
  975MOL0     H31585   3.057   3.605  12.150 -0.2894 -1.2937 -0.2667
  975MOL0     H31586   3.263   3.845  12.021 -0.3704  0.5512 -0.9591
  975MOL0     H31587   3.112   3.926  12.012 -0.8300 -0.1970  0.1338
  975MOL0     H31588   3.137   3.833  12.151 -0.1644  1.8333  0.2317
  975MOL0     H31589   3.161   4.179  11.784 -1.4938  2.6348 -2.3545
  975MOL0     H31590   3.271   4.341  11.652 -2.4295 -0.9224 -0.5387
  975MOL0     H31591   3.319   4.295  11.306 -2.0422  3.1797 -1.7642
  975MOL0     H31592   3.320   4.435  11.416  2.2707  4.4852 -1.6054
  975MOL0     H31593   3.527   4.513  11.316 -0.8561  0.7623  1.6108
  975MOL0     H31594   3.537   4.377  11.202  1.5708  1.2837  0.9302
  975MOL0     H31595   3.301   4.437  11.117  0.3957  1.9382 -1.6125
  975MOL0     H31596   3.445   4.519  11.067 -0.9270 -0.6704 -1.4603
  975MOL0     H31597   3.236   4.594  11.265 -0.1775 -4.0775 -1.5991
  975MOL0     H31598   3.386   4.694  11.248  1.9835 -3.1528  1.3647
  975MOL0     H31599   3.183   4.779  11.151 -0.8618 -0.5985 -0.4334
  975MOL0     H31600   3.184   4.643  11.022  3.0200 -0.7471 -1.5584
  975MOL0     H31601   3.394   4.866  11.061  3.4423 -0.6942 -2.0327
  975MOL0     H31602   3.405   4.732  10.946  0.9233  0.5773  1.3752
  975MOL0     H31603   3.161   4.923  10.973  0.3600 -0.2250  0.3168
  975MOL0     H31604   3.180   4.827  10.840  0.7634  2.1247 -3.3180
  975MOL0     H31605   3.355   4.951  10.747 -0.1423  1.0867 -0.8216
  975MOL0     H31606   3.391   5.045  10.885  0.4896 -1.9503  0.8997
  975MOL0     H31607   3.510   4.046  11.449 -0.1135  1.3016 -0.8561
  975MOL0     H31608   3.395   3.865  11.579  3.3259  1.1802 -0.8605
  975MOL0     H31609   3.015   3.582  11.670 -0.0177  0.1180  0.5086
  975MOL0     H31610   2.934   3.395  11.821 -1.7500  0.4939  0.8857
  975MOL0     H31611   1.561   2.823  11.757  0.6502  0.6243  1.0287
  975MOL0     H31612   1.534   2.685  11.573  2.0558 -0.1965  2.7002
  975MOL0     H31613   1.680   2.486  11.241  3.1030 -2.5657 -2.0285
  975MOL0     H31614   1.660   2.304  11.086  1.2039  0.6113 -1.4198
  975MOL0     H31615   1.681   2.336  10.703 -1.7062 -0.9658 -1.3341
  975MOL0     H31616   1.754   2.279  10.852  2.1797 -3.0494 -1.4606
  975MOL0     H31617   1.630   2.062  10.809 -2.4566  0.2982 -0.0497
  975MOL0     H31618   1.759   2.093  10.700 -1.2507 -3.4649  0.6951
  975MOL0     H31619   1.619   2.186  10.527  1.1951 -0.0153  0.2913
  975MOL0     H31620   1.474   2.157  10.625  2.3082  3.5707  0.4347
  975MOL0     H31621   1.551   1.894  10.591  0.0488  0.4287  0.7509
  975MOL0     H31622   1.676   1.958  10.492 -0.2008  2.5520  2.5826
  975MOL0     H31623   1.336   2.014  10.246  1.7685 -2.0253 -1.3801
  975MOL0     H31624   1.461   2.551  10.795  2.2721 -2.3040 -0.8584
  975MOL0     H31625   1.497   2.746  10.955  3.3742  1.5767 -0.0591
  976MOL0     O31626  10.611   2.021   7.202  0.0193  0.1821  0.1433
  976MOL0     C31627  10.633   1.926   7.273  0.7677 -0.3851  0.2273
  976MOL0     O31628  10.753   1.859   7.284  0.2285  0.0531  0.3301
  976MOL0     C31629  10.858   1.873   7.194  0.7143  0.1866 -0.0602
  976MOL0     C31630  10.837   1.854   7.057 -0.4089  0.7883 -0.1077
  976MOL0     C31631  10.943   1.864   6.967 -0.0430 -0.1004 -0.3354
  976MOL0     C31632  11.071   1.897   7.021  0.5443  0.8847 -0.6932
  976MOL0     O31633  11.177   1.891   6.942  0.3287 -0.6221  0.2953
  976MOL0     C31634  11.276   1.803   6.995  0.7365  0.5069 -0.3451
  976MOL0     C31635  11.377   1.754   6.885 -0.1130  0.7147  0.4885
  976MOL0     C31636  11.464   1.646   6.946 -0.6850  0.7648  0.1784
  976MOL0     C31637  11.586   1.685   7.045 -0.2350  0.0379  1.1163
  976MOL0     C31638  11.692   1.584   7.055 -0.3570  0.6350 -0.1219
  976MOL0     C31639  11.639   1.455   7.123 -0.0362  0.7271  0.2075
  976MOL0     C31640  11.725   1.333   7.098 -0.2231 -0.0214 -0.3223
  976MOL0     C31641  11.667   1.210   7.161 -0.2961  0.8628 -1.0987
  976MOL0     N31642  11.675   1.179   7.307  0.2838  0.4935  0.2033
  976MOL0     C31643  11.682   1.270   7.406 -0.3225 -0.5413  0.6154
  976MOL0     C31644  11.712   1.200   7.516 -0.6956  0.3318  0.5405
  976MOL0     C31645  11.777   1.248   7.641  0.3295  0.0401 -0.3747
  976MOL0     C31646  11.905   1.169   7.687 -0.4249  0.0967  0.1054
  976MOL0     C31647  11.965   1.215   7.817  0.3597 -0.5468  0.2049
  976MOL0     C31648  11.993   1.362   7.838 -0.7108 -0.7377  0.6025
  976MOL0     O31649  12.053   1.429   7.728  0.1143  0.4799  0.5459
  976MOL0     C31650  12.169   1.397   7.667 -0.7879 -0.2136 -0.8070
  976MOL0     C31651  12.270   1.317   7.727 -0.4340  0.7396  0.4899
  976MOL0     C31652  12.381   1.281   7.652 -0.5174  0.4478 -0.0254
  976MOL0     C31653  12.483   1.195   7.724 -0.2247 -0.4109  0.9284
  976MOL0     C31654  12.410   1.344   7.531  0.8185  1.1713  0.5017
  976MOL0     C31655  12.537   1.319   7.450  0.2510 -0.0879 -0.3954
  976MOL0     O31656  12.579   1.425   7.382 -0.8270  0.1900  0.0647
  976MOL0     C31657  12.609   1.537   7.449 -1.0012  0.3513  0.4685
  976MOL0     C31658  12.681   1.536   7.570 -0.9565 -0.0408 -0.3965
  976MOL0     C31659  12.724   1.663   7.626  0.8914  0.3819 -0.3999
  976MOL0     C31660  12.692   1.785   7.563  0.3594  0.1572 -0.5864
  976MOL0     O31661  12.718   1.905   7.618  0.8098 -0.9028  0.0566
  976MOL0     C31662  12.633   1.953   7.731  0.7406  0.9806 -0.2634
  976MOL0     C31663  12.667   2.106   7.750  0.2008 -0.0344  0.7266
  976MOL0     C31664  12.627   2.191   7.629  0.2425 -0.7372  0.6215
  976MOL0     C31665  12.718   2.305   7.618  0.7798 -0.3664 -0.7897
  976MOL0     C31666  12.685   2.419   7.717 -0.6214  0.3590  0.8312
  976MOL0     C31667  12.797   2.520   7.747  0.4052  0.5306  0.2217
  976MOL0     C31668  12.754   2.635   7.832  0.3931 -0.4485 -0.8887
  976MOL0     C31669  12.741   2.581   7.982 -0.2444  0.6607 -0.1151
  976MOL0    Cl31670  12.698   2.711   8.081  0.1168 -0.1461 -0.2282
  976MOL0     C31671  12.622   1.783   7.442 -0.0208 -0.1298  0.7122
  976MOL0     C31672  12.586   1.662   7.384  0.7939 -0.3109 -0.5543
  976MOL0     O31673  12.588   1.211   7.442 -0.7690  0.3701 -1.0616
  976MOL0     C31674  12.317   1.436   7.486 -0.2503  0.3139 -0.2790
  976MOL0     C31675  12.202   1.473   7.558 -0.2572  0.1363 -0.0481
  976MOL0     N31676  11.699   1.066   7.486 -0.3334 -0.9668  0.0044
  976MOL0     N31677  11.681   1.058   7.363  0.2071 -0.9367 -0.6453
  976MOL0     C31678  11.087   1.920   7.162 -0.1275 -0.4053  0.0157
  976MOL0     C31679  10.980   1.906   7.241 -0.5756  0.7720 -0.8201
  976MOL0     C31680  10.518   1.857   7.346 -0.8939 -0.2862  0.1343
  976MOL0     C31681  10.388   1.918   7.355 -0.3502  0.2246 -0.2974
  976MOL0     C31682  10.289   1.866   7.444 -0.8047  0.0480  0.0229
  976MOL0     C31683  10.313   1.762   7.523 -0.0861  0.6379 -0.5227
  976MOL0     O31684  10.225   1.712   7.619 -0.1371 -0.5042 -0.0582
  976MOL0     C31685  10.113   1.644   7.570 -0.3608  0.4834 -0.1521
  976MOL0     C31686  10.010   1.658   7.679  0.3306 -0.4993 -0.4422
  976MOL0     C31687   9.940   1.800   7.676  0.3441  0.2522  0.8582
  976MOL0     C31688   9.812   1.789   7.764 -0.1712 -0.3474 -0.6573
  976MOL0     C31689   9.741   1.921   7.780  0.6837 -0.1005  0.1030
  976MOL0     C31690   9.691   2.030   7.765  0.4736  0.5223 -0.0310
  976MOL0     C31691  10.446   1.707   7.520 -0.0686  0.1760  0.4727
  976MOL0     C31692  10.551   1.760   7.440  0.1610  0.6933 -0.4748
  976MOL0     H31693  10.736   1.841   7.021 -0.7133 -1.5373  1.3917
  976MOL0     H31694  10.928   1.859   6.860 -0.6162  1.3247 -0.3388
  976MOL0     H31695  11.341   1.849   7.070  1.6148  1.1763 -1.4848
  976MOL0     H31696  11.219   1.722   7.041 -0.4234  1.1102 -0.6814
  976MOL0     H31697  11.327   1.707   6.800 -1.6161  2.7569  0.1548
  976MOL0     H31698  11.440   1.837   6.853  1.2724 -0.1113  0.9643
  976MOL0     H31699  11.417   1.564   7.001 -0.4312  1.2842  1.1959
  976MOL0     H31700  11.515   1.612   6.855 -1.6941  0.7029 -0.3713
  976MOL0     H31701  11.624   1.785   7.021 -0.2042 -0.2195  0.0184
  976MOL0     H31702  11.543   1.704   7.144  0.6576 -0.6494  1.6469
  976MOL0     H31703  11.740   1.557   6.961 -1.9845 -0.8376 -0.5939
  976MOL0     H31704  11.774   1.628   7.112 -0.0940  1.4339 -1.1173
  976MOL0     H31705  11.625   1.472   7.230 -0.2576 -1.1076  0.4966
  976MOL0     H31706  11.545   1.425   7.076  1.0474 -2.1817 -0.3108
  976MOL0     H31707  11.741   1.328   6.990 -1.2679  2.6411 -0.6948
  976MOL0     H31708  11.821   1.359   7.144 -1.8700  1.8430  2.3838
  976MOL0     H31709  11.711   1.125   7.108 -0.5875 -0.0398  0.0717
  976MOL0     H31710  11.561   1.199   7.133 -1.0814  2.3543  1.0537
  976MOL0     H31711  11.702   1.376   7.398 -1.4151 -0.4416 -2.2646
  976MOL0     H31712  11.802   1.353   7.622 -1.9121  0.8365  0.6912
  976MOL0     H31713  11.710   1.232   7.726 -0.5461  0.4247 -0.9790
  976MOL0     H31714  11.981   1.165   7.609 -2.3878  1.5136 -1.9869
  976MOL0     H31715  11.891   1.062   7.700  1.0680 -0.0394  0.7436
  976MOL0     H31716  12.049   1.149   7.843 -1.2031 -2.6858  0.0436
  976MOL0     H31717  11.895   1.190   7.896 -0.2910 -0.3368 -0.2952
  976MOL0     H31718  12.050   1.366   7.931  2.9993  2.3964 -1.4845
  976MOL0     H31719  11.897   1.413   7.847  0.8283  2.6860 -0.6593
  976MOL0     H31720  12.239   1.271   7.821  2.0304 -1.1886  0.4773
  976MOL0     H31721  12.452   1.145   7.816 -0.4785 -2.2224 -0.0807
  976MOL0     H31722  12.505   1.105   7.665  1.2283 -1.9044  3.5719
  976MOL0     H31723  12.574   1.254   7.726 -1.0717  1.1671 -1.6918
  976MOL0     H31724  12.705   1.441   7.616 -0.4741  0.1519 -0.2467
  976MOL0     H31725  12.754   1.678   7.729 -1.6859  0.1914  0.4532
  976MOL0     H31726  12.525   1.940   7.714  1.0136  1.8149 -2.9770
  976MOL0     H31727  12.667   1.911   7.826 -0.3773 -2.3825 -1.1798
  976MOL0     H31728  12.636   2.146   7.847 -0.7327 -0.6073  0.6729
  976MOL0     H31729  12.774   2.110   7.771  0.2175 -0.4122  0.7125
  976MOL0     H31730  12.523   2.226   7.633  0.7874  0.9628  0.8931
  976MOL0     H31731  12.640   2.128   7.541 -1.4083 -0.6088  0.2509
  976MOL0     H31732  12.821   2.282   7.648  1.2987  0.4570 -1.8541
  976MOL0     H31733  12.727   2.341   7.515  0.4561 -1.6982 -1.3032
  976MOL0     H31734  12.644   2.369   7.805  1.0497 -3.1423 -0.2155
  976MOL0     H31735  12.601   2.479   7.680 -0.0083  1.2546  0.8764
  976MOL0     H31736  12.883   2.467   7.790 -1.0034 -3.6055 -1.5621
  976MOL0     H31737  12.824   2.565   7.651 -1.6239 -0.2990 -0.7914
  976MOL0     H31738  12.655   2.666   7.794  0.1437 -1.8787 -1.4768
  976MOL0     H31739  12.833   2.710   7.826  0.1940 -0.1314  0.2190
  976MOL0     H31740  12.839   2.541   8.012 -1.4315 -1.7086  0.8687
  976MOL0     H31741  12.682   2.494   8.012 -0.2675  1.4415  2.3087
  976MOL0     H31742  12.609   1.878   7.392  0.0996  1.3293  3.2751
  976MOL0     H31743  12.533   1.655   7.290  1.5072 -3.8194 -0.8415
  976MOL0     H31744  12.335   1.499   7.399 -0.3048 -1.7939 -1.9215
  976MOL0     H31745  12.122   1.529   7.511 -0.7248  0.5250  1.1780
  976MOL0     H31746  11.179   1.955   7.209 -1.0836  1.0639  0.8995
  976MOL0     H31747  10.989   1.921   7.349 -1.7056 -2.0717 -0.2333
  976MOL0     H31748  10.370   2.004   7.293  2.1521 -0.6887 -2.4502
  976MOL0     H31749  10.189   1.906   7.458 -2.2096 -3.8534  3.2258
  976MOL0     H31750  10.069   1.684   7.478 -2.9409  0.4965  0.9995
  976MOL0     H31751  10.146   1.542   7.546 -2.4535 -0.4369  0.6612
  976MOL0     H31752  10.066   1.646   7.772  0.4786  3.9243  0.2534
  976MOL0     H31753   9.931   1.582   7.668 -0.9369  0.3268  2.2647
  976MOL0     H31754   9.919   1.829   7.573 -0.2728 -4.8926 -0.7394
  976MOL0     H31755   9.995   1.884   7.721  0.8976 -1.1369  2.8948
  976MOL0     H31756   9.832   1.748   7.863  1.4897  0.2994 -0.7005
  976MOL0     H31757   9.740   1.724   7.713  1.0140 -0.8775 -1.7175
  976MOL0     H31758   9.652   2.130   7.761 -0.1956  0.2759  0.2376
  976MOL0     H31759  10.476   1.625   7.583 -0.9189  0.8467  1.7925
  976MOL0     H31760  10.648   1.711   7.446 -1.1260 -2.1005 -0.6583
  977MOL0     O31761   9.115   7.292   9.964  0.3542 -0.3984 -1.3616
  977MOL0     C31762   9.129   7.180   9.916  0.7406  0.4676  0.8885
  977MOL0     O31763   9.146   7.056   9.979 -0.3640  0.2143 -0.2476
  977MOL0     C31764   9.162   7.056  10.118  0.4694  0.0152  0.2226
  977MOL0     C31765   9.280   7.095  10.175  0.0071 -0.0760 -0.4699
  977MOL0     C31766   9.303   7.084  10.315  0.0816 -0.3015  0.6476
  977MOL0     C31767   9.203   7.052  10.401 -0.0356 -0.5079  0.9390
  977MOL0     O31768   9.214   7.041  10.537 -0.2160 -1.3318 -0.2926
  977MOL0     C31769   9.200   7.172  10.610 -0.4399  0.6747 -0.4988
  977MOL0     C31770   9.073   7.170  10.697 -0.7862  0.3488  0.8299
  977MOL0     C31771   9.075   7.056  10.796 -0.4227  0.8432 -0.4993
  977MOL0     C31772   9.155   7.094  10.923  0.2296  0.0880  0.6183
  977MOL0     C31773   9.155   6.990  11.033  0.2568  0.3492  0.0398
  977MOL0     C31774   9.242   6.856  10.991  0.5157  0.1117 -0.1254
  977MOL0     C31775   9.230   6.755  11.106 -0.6050 -0.8137 -0.6614
  977MOL0     C31776   9.340   6.773  11.218  0.2567  0.4086 -0.8774
  977MOL0     N31777   9.297   6.716  11.346  0.3269  0.1608  0.1535
  977MOL0     C31778   9.297   6.792  11.465  0.2856  0.8760 -0.2331
  977MOL0     C31779   9.252   6.699  11.561  0.7148 -0.2509 -0.7189
  977MOL0     C31780   9.218   6.732  11.708  0.2365  0.2504  0.2624
  977MOL0     C31781   9.271   6.857  11.772 -0.1263  0.2361  0.0619
  977MOL0     C31782   9.428   6.863  11.756 -0.0514 -0.4308  0.5345
  977MOL0     C31783   9.494   7.006  11.782 -0.1326 -0.1614  0.2546
  977MOL0     O31784   9.417   7.111  11.711 -0.3141  0.1668  0.7949
  977MOL0     C31785   9.319   7.179  11.777  0.3317  0.5076  0.4856
  977MOL0     C31786   9.250   7.149  11.890  0.2753 -0.1834 -0.8810
  977MOL0     C31787   9.164   7.242  11.953 -0.1240 -0.2729  0.5530
  977MOL0     C31788   9.095   7.193  12.083 -0.6601 -0.1423  0.8138
  977MOL0     C31789   9.114   7.348  11.876  0.1169  0.6482  0.0461
  977MOL0     C31790   9.023   7.454  11.911  1.0368  0.3461  1.6686
  977MOL0     O31791   9.069   7.581  11.884  0.9076 -0.8355 -0.7982
  977MOL0     C31792   9.036   7.688  11.967 -0.0212  0.8215  0.9623
  977MOL0     C31793   9.131   7.764  12.018  0.4860 -0.2161  0.0790
  977MOL0     C31794   9.102   7.875  12.099  0.1317 -0.6113 -0.0688
  977MOL0     C31795   8.973   7.896  12.135 -0.1703 -0.5943 -0.4931
  977MOL0     O31796   8.952   8.006  12.221  0.1744  0.3991 -0.0176
  977MOL0     C31797   8.830   8.030  12.281  0.2866 -0.3447  0.0822
  977MOL0     C31798   8.782   7.916  12.368  0.7779  0.7452 -0.7362
  977MOL0     C31799   8.859   7.900  12.500 -0.1512  0.2263 -0.0620
  977MOL0     C31800   8.832   7.754  12.569 -0.2241 -0.2300 -0.5612
  977MOL0     C31801   8.894   7.746  12.714  0.3974 -0.1118  0.1823
  977MOL0     C31802   8.900   7.600  12.762 -0.5987  0.8101  0.3293
  977MOL0     C31803   9.021   7.521  12.711  0.8047 -0.0937  0.3507
  977MOL0     C31804   9.014   7.374  12.740  0.5376 -0.6302 -0.6328
  977MOL0    Cl31805   8.882   7.290  12.652  0.4593  0.1205  0.1678
  977MOL0     C31806   8.863   7.831  12.079 -0.8904  0.0688  0.1477
  977MOL0     C31807   8.900   7.723  11.988  0.3542  0.0080 -0.2953
  977MOL0     O31808   8.915   7.425  11.954  0.3289  1.2036 -0.1334
  977MOL0     C31809   9.167   7.366  11.749  0.0587  0.2738 -0.2433
  977MOL0     C31810   9.269   7.282  11.701 -0.4542 -0.3715  0.2430
  977MOL0     N31811   9.226   6.579  11.504  0.3536  0.4794  0.1224
  977MOL0     N31812   9.247   6.591  11.374  0.3373  0.2532 -0.5721
  977MOL0     C31813   9.082   7.015  10.338 -0.4065  0.3574 -0.2771
  977MOL0     C31814   9.059   7.020  10.201 -0.0802  0.4144  0.4697
  977MOL0     C31815   9.087   7.165   9.775 -0.2778 -0.4304  0.9703
  977MOL0     C31816   9.066   7.044   9.718  0.2009 -0.1741  0.0442
  977MOL0     C31817   8.991   7.041   9.599 -0.0345  0.5235 -0.8480
  977MOL0     C31818   8.948   7.156   9.534  0.6957 -0.2174 -1.2912
  977MOL0     O31819   8.899   7.157   9.396 -0.6608  1.1744  0.2237
  977MOL0     C31820   8.891   7.023   9.334  0.6759 -0.3843 -0.3581
  977MOL0     C31821   8.839   7.039   9.194  0.6635  0.1854  0.2118
  977MOL0     C31822   8.692   7.088   9.199  0.0163 -0.4892  0.2923
  977MOL0     C31823   8.646   7.096   9.050  0.9701 -0.1612  0.4006
  977MOL0     C31824   8.624   6.956   9.008  0.1058 -0.0163 -0.6093
  977MOL0     C31825   8.614   6.831   8.998  0.1875  0.6710  0.5571
  977MOL0     C31826   8.984   7.285   9.588  0.2067  0.5650  0.1533
  977MOL0     C31827   9.049   7.292   9.709  0.6949  0.6978  0.2559
  977MOL0     H31828   9.352   7.118  10.097 -2.7929  1.2403 -2.8624
  977MOL0     H31829   9.399   7.113  10.357  1.1831 -0.5381 -1.5392
  977MOL0     H31830   9.291   7.189  10.668 -2.2464  2.2123  2.1013
  977MOL0     H31831   9.181   7.263  10.552 -0.4458  2.7940  2.6095
  977MOL0     H31832   9.054   7.267  10.745 -1.4277 -0.4962  2.3771
  977MOL0     H31833   9.001   7.152  10.617  2.5306  0.4958 -2.4501
  977MOL0     H31834   8.973   7.042  10.832  0.8009 -0.5933  2.7557
  977MOL0     H31835   9.118   6.963  10.757 -1.6927 -0.6041  1.3874
  977MOL0     H31836   9.253   7.114  10.880  0.3557  1.8957  1.6462
  977MOL0     H31837   9.112   7.186  10.963 -0.2752 -0.5192  1.5074
  977MOL0     H31838   9.199   7.027  11.126  0.0799 -2.0647  1.1579
  977MOL0     H31839   9.051   6.964  11.055  0.8427 -1.5445  0.8284
  977MOL0     H31840   9.194   6.815  10.901 -0.9168  1.3756  0.0180
  977MOL0     H31841   9.347   6.866  10.963  0.2257  2.7486 -0.4791
  977MOL0     H31842   9.128   6.761  11.146 -0.5684  0.9694 -0.7413
  977MOL0     H31843   9.249   6.650  11.084  1.3539 -1.5680  3.6503
  977MOL0     H31844   9.362   6.879  11.235 -0.1816  0.7633 -2.4203
  977MOL0     H31845   9.429   6.719  11.185  3.0223  1.5119  3.8205
  977MOL0     H31846   9.298   6.900  11.474 -1.7610  1.0800 -1.7134
  977MOL0     H31847   9.110   6.740  11.723  0.1130  0.1427 -0.5250
  977MOL0     H31848   9.256   6.655  11.776  0.4862  0.7853  0.7390
  977MOL0     H31849   9.245   6.847  11.878  0.8658  0.1092  0.3016
  977MOL0     H31850   9.219   6.944  11.730 -0.1673  0.0730 -0.2192
  977MOL0     H31851   9.457   6.828  11.656  0.1009 -3.0585  1.4076
  977MOL0     H31852   9.478   6.788  11.818 -0.3500 -3.2091 -2.2724
  977MOL0     H31853   9.594   7.007  11.738 -1.1844 -0.4639 -2.3231
  977MOL0     H31854   9.492   7.023  11.890 -1.1790  1.2248  0.0466
  977MOL0     H31855   9.278   7.065  11.953  0.5266 -1.2584 -2.3963
  977MOL0     H31856   9.039   7.101  12.062 -0.3970 -0.0512 -0.3588
  977MOL0     H31857   9.174   7.164  12.153  1.1183 -1.0895 -1.4563
  977MOL0     H31858   9.027   7.269  12.122  0.0618  1.1104 -0.2690
  977MOL0     H31859   9.231   7.732  11.990  1.2417  1.8147  0.2748
  977MOL0     H31860   9.184   7.940  12.129  0.6545 -1.1381 -0.3261
  977MOL0     H31861   8.839   8.121  12.341  3.1817 -0.3808 -0.1490
  977MOL0     H31862   8.762   8.044  12.197 -0.6238 -3.6194  0.1280
  977MOL0     H31863   8.683   7.952  12.396  1.6501  1.5038  1.6140
  977MOL0     H31864   8.764   7.821  12.317  0.5354  0.8589 -0.8650
  977MOL0     H31865   8.825   7.985  12.560 -3.3970  1.0088 -2.7221
  977MOL0     H31866   8.963   7.916  12.473 -0.3932  0.0155 -1.1545
  977MOL0     H31867   8.723   7.744  12.580 -0.2858 -1.1958 -1.8405
  977MOL0     H31868   8.877   7.676  12.508 -1.9372  0.0845 -2.3323
  977MOL0     H31869   8.825   7.811  12.770 -2.8283 -0.5644 -2.8756
  977MOL0     H31870   8.995   7.786  12.726 -0.6920  2.1878  2.4702
  977MOL0     H31871   8.912   7.587  12.870  2.5579  0.1843 -0.0004
  977MOL0     H31872   8.806   7.551  12.735  0.6369 -1.3142 -0.4021
  977MOL0     H31873   9.107   7.559  12.767  2.9586  2.1309 -3.9748
  977MOL0     H31874   9.052   7.551  12.611  2.7477  0.5889  1.1151
  977MOL0     H31875   9.010   7.353  12.848  0.2692  1.2351 -0.2595
  977MOL0     H31876   9.111   7.343  12.700  2.9528  4.4555  0.5393
  977MOL0     H31877   8.762   7.860  12.107 -0.2437  0.8043  1.8500
  977MOL0     H31878   8.821   7.661  11.947 -0.5796 -0.0205  1.4442
  977MOL0     H31879   9.144   7.459  11.698  1.5713  1.1120  0.5173
  977MOL0     H31880   9.301   7.301  11.599 -1.0871  1.5954  0.3504
  977MOL0     H31881   9.004   6.967  10.396 -2.5976  1.0154 -2.5204
  977MOL0     H31882   8.964   6.994  10.155 -0.1480  0.9471  0.2994
  977MOL0     H31883   9.084   6.953   9.774 -4.7082 -0.5172  1.5237
  977MOL0     H31884   8.955   6.943   9.568  1.2828  0.0810 -1.0190
  977MOL0     H31885   8.992   6.982   9.332  1.5151  1.4952  0.4315
  977MOL0     H31886   8.830   6.948   9.385  3.6073 -1.1712  2.3591
  977MOL0     H31887   8.833   6.943   9.143 -1.2892  0.3353  0.0510
  977MOL0     H31888   8.908   7.109   9.147 -0.5152  1.8459  0.8386
  977MOL0     H31889   8.697   7.192   9.232 -1.1972 -0.6300  0.9734
  977MOL0     H31890   8.620   7.037   9.264 -3.4844  0.2402 -2.6674
  977MOL0     H31891   8.703   7.167   8.989  0.5369  1.9508  2.3243
  977MOL0     H31892   8.549   7.146   9.054  0.0277 -1.8548 -0.2669
  977MOL0     H31893   8.596   6.725   9.000 -0.6254  0.7772  4.0393
  977MOL0     H31894   8.959   7.382   9.547 -0.9135  0.2080 -0.0531
  977MOL0     H31895   9.057   7.388   9.759  1.3517 -0.8866  3.4290
  978MOL0     O31896  10.641   4.987   3.658 -0.6042  0.4208  0.0451
  978MOL0     C31897  10.751   4.967   3.603 -0.1837 -0.8784  0.4298
  978MOL0     O31898  10.874   4.990   3.662 -0.6188  0.0788 -0.6274
  978MOL0     C31899  10.897   5.045   3.787  1.7530  0.1277 -0.4605
  978MOL0     C31900  10.982   4.976   3.864 -0.0910  0.8486  1.2399
  978MOL0     C31901  10.988   5.003   3.999  0.2773  0.2584 -0.6694
  978MOL0     C31902  10.920   5.104   4.066 -0.1152  0.8196  0.2165
  978MOL0     O31903  10.936   5.110   4.202 -0.2375 -0.5429 -0.1601
  978MOL0     C31904  10.828   5.109   4.298  0.0901 -0.4231  0.4699
  978MOL0     C31905  10.836   5.203   4.421  0.3596 -0.9456 -0.0152
  978MOL0     C31906  10.958   5.189   4.513  0.1992  0.3257 -0.5815
  978MOL0     C31907  11.083   5.257   4.442  1.1050 -0.2162  0.2199
  978MOL0     C31908  11.082   5.410   4.421 -0.4553  0.6682  0.5306
  978MOL0     C31909  11.070   5.497   4.548  0.3617  0.0410  0.7319
  978MOL0     C31910  11.071   5.640   4.523 -1.3597  0.0975 -0.4180
  978MOL0     C31911  10.963   5.706   4.435 -0.1331  0.0958  0.3152
  978MOL0     N31912  11.029   5.775   4.321 -0.9126 -1.1850  0.2877
  978MOL0     C31913  11.089   5.905   4.335  0.1437  0.1696  0.6718
  978MOL0     C31914  11.135   5.936   4.204 -0.1023 -0.4312 -0.8364
  978MOL0     C31915  11.200   6.060   4.172  0.5594 -0.0298 -0.0313
  978MOL0     C31916  11.332   6.065   4.241  0.0367 -0.2294  0.2656
  978MOL0     C31917  11.403   6.203   4.216 -1.1863  0.2180  0.5611
  978MOL0     C31918  11.321   6.313   4.284  0.5473  0.9186 -0.4816
  978MOL0     O31919  11.394   6.430   4.305  0.1165 -0.4163  0.0788
  978MOL0     C31920  11.341   6.514   4.405 -0.2163 -0.1491  0.2308
  978MOL0     C31921  11.203   6.522   4.433  0.0802  0.1554  0.1335
  978MOL0     C31922  11.152   6.578   4.552  0.2452 -0.9058 -1.0850
  978MOL0     C31923  11.005   6.556   4.593 -0.3567 -0.1476 -0.5888
  978MOL0     C31924  11.253   6.641   4.637  0.3221  0.3202  0.1703
  978MOL0     C31925  11.219   6.677   4.780 -0.8450  0.9960 -0.1143
  978MOL0     O31926  11.305   6.614   4.873 -0.5730  0.1144  0.8191
  978MOL0     C31927  11.281   6.610   5.013 -0.4991 -0.7945  0.1968
  978MOL0     C31928  11.356   6.683   5.111 -1.0837  0.0289 -0.4010
  978MOL0     C31929  11.332   6.682   5.246  0.9313 -0.4099  0.5556
  978MOL0     C31930  11.229   6.598   5.297  0.3448  0.3812  0.2099
  978MOL0     O31931  11.204   6.621   5.436  0.0162  0.1450  0.6090
  978MOL0     C31932  11.112   6.517   5.491 -0.0733 -0.2953  0.3192
  978MOL0     C31933  11.096   6.529   5.641  0.0363  0.5086  0.9076
  978MOL0     C31934  11.061   6.672   5.682  0.4753 -0.1375  0.0272
  978MOL0     C31935  10.996   6.674   5.816 -0.4654  0.0401  0.3468
  978MOL0     C31936  10.874   6.584   5.838  0.1197 -0.0553 -0.9731
  978MOL0     C31937  10.750   6.644   5.785  0.4804  0.4484  0.1247
  978MOL0     C31938  10.647   6.538   5.779 -0.4200 -0.2167 -0.5750
  978MOL0     C31939  10.522   6.579   5.700  0.3309 -1.4097 -0.2718
  978MOL0    Cl31940  10.407   6.694   5.794 -0.2475  0.1412 -0.7406
  978MOL0     C31941  11.155   6.518   5.212  0.2475 -0.2641  0.3994
  978MOL0     C31942  11.180   6.527   5.073  0.1824  0.3565  0.2200
  978MOL0     O31943  11.121   6.745   4.807  0.1290  0.1633 -1.0026
  978MOL0     C31944  11.383   6.642   4.595  0.0371 -0.8004 -0.6158
  978MOL0     C31945  11.429   6.579   4.482 -0.2429 -1.3836 -0.0336
  978MOL0     N31946  11.102   5.827   4.128 -0.3430 -1.1124 -0.4600
  978MOL0     N31947  11.045   5.743   4.193 -0.3053 -1.0250 -0.3519
  978MOL0     C31948  10.844   5.186   3.980  0.7288  0.2743 -0.2688
  978MOL0     C31949  10.830   5.161   3.846  0.4930  1.0121 -0.4866
  978MOL0     C31950  10.747   4.930   3.456  0.1787  0.2969  0.4799
  978MOL0     C31951  10.865   4.925   3.376  0.0897 -0.2503  0.3859
  978MOL0     C31952  10.844   4.889   3.243  0.9416 -0.0629 -0.4374
  978MOL0     C31953  10.730   4.870   3.177  0.7718  0.1110  0.2773
  978MOL0     O31954  10.735   4.832   3.046  0.6081 -0.1227 -0.2124
  978MOL0     C31955  10.634   4.751   2.994  0.7958 -1.2895 -0.1507
  978MOL0     C31956  10.530   4.841   2.923  0.2441 -0.0830  0.4808
  978MOL0     C31957  10.457   4.780   2.795 -1.2671  0.3774  1.2465
  978MOL0     C31958  10.366   4.668   2.824 -0.3700 -0.4478  0.7114
  978MOL0     C31959  10.328   4.604   2.696  0.6648 -0.7510  0.4209
  978MOL0     C31960  10.280   4.539   2.600  0.2497  0.3794 -0.4624
  978MOL0     C31961  10.608   4.869   3.251  0.5777 -1.0279  1.1626
  978MOL0     C31962  10.622   4.900   3.386 -0.2722 -0.3779  0.6869
  978MOL0     H31963  11.018   4.883   3.822 -3.5797 -0.4847  0.8833
  978MOL0     H31964  11.038   4.931   4.064 -0.2406 -0.4603 -1.0589
  978MOL0     H31965  10.736   5.130   4.241  1.1725  2.0301 -0.4875
  978MOL0     H31966  10.820   5.008   4.340 -0.4180 -1.4472 -1.9255
  978MOL0     H31967  10.832   5.307   4.388  3.8780 -0.8546 -0.5400
  978MOL0     H31968  10.756   5.183   4.492  0.9859  0.1375  1.0345
  978MOL0     H31969  10.940   5.249   4.603 -4.5956 -0.8385 -0.5266
  978MOL0     H31970  10.966   5.084   4.540 -1.6464  0.2931 -0.0573
  978MOL0     H31971  11.165   5.243   4.513  1.6386  0.4344 -0.2571
  978MOL0     H31972  11.113   5.209   4.348  0.2532 -1.5029  0.5728
  978MOL0     H31973  11.175   5.434   4.370 -0.8636 -1.2660 -1.2500
  978MOL0     H31974  11.009   5.439   4.344  0.9548  2.6543 -0.1542
  978MOL0     H31975  10.969   5.476   4.583 -0.1824 -0.5284 -1.0941
  978MOL0     H31976  11.148   5.461   4.617  0.4886 -0.4842  0.3239
  978MOL0     H31977  11.075   5.692   4.619 -2.7010 -0.1522 -0.2184
  978MOL0     H31978  11.165   5.671   4.475 -2.0009 -0.3260 -1.9958
  978MOL0     H31979  10.915   5.780   4.500  1.2072  2.2644 -1.0180
  978MOL0     H31980  10.886   5.639   4.396 -2.1622  2.4603 -0.0416
  978MOL0     H31981  11.101   5.960   4.428  0.7572 -3.1874  2.7751
  978MOL0     H31982  11.208   6.085   4.066  1.7815  2.4507  0.5615
  978MOL0     H31983  11.123   6.126   4.210 -0.9845 -0.0395 -2.8485
  978MOL0     H31984  11.384   5.978   4.200 -2.1721 -0.6121 -1.9622
  978MOL0     H31985  11.313   6.057   4.348  1.6543 -2.1658  0.4717
  978MOL0     H31986  11.422   6.217   4.110 -0.5807  1.1352  0.7790
  978MOL0     H31987  11.503   6.196   4.260  0.2839  0.1842 -2.5290
  978MOL0     H31988  11.285   6.281   4.382  2.4198 -3.0042 -0.8997
  978MOL0     H31989  11.235   6.336   4.220 -0.0634 -0.7310 -0.3059
  978MOL0     H31990  11.132   6.476   4.365 -3.0033  1.3181  2.3266
  978MOL0     H31991  10.930   6.577   4.516  0.2949  1.1316 -0.9001
  978MOL0     H31992  10.996   6.454   4.631  0.4742  0.7563  2.3108
  978MOL0     H31993  10.972   6.626   4.671  0.1793  0.3274 -0.7817
  978MOL0     H31994  11.436   6.746   5.074 -2.6209  1.9932 -0.5938
  978MOL0     H31995  11.383   6.753   5.310 -1.9201 -0.1437  2.7622
  978MOL0     H31996  11.020   6.505   5.432  0.5695  0.3559 -0.8604
  978MOL0     H31997  11.154   6.416   5.486 -1.1885 -0.7242 -1.1109
  978MOL0     H31998  11.016   6.455   5.644  0.0393  0.4681  0.1214
  978MOL0     H31999  11.189   6.499   5.690 -0.2121  2.3438  2.6396
  978MOL0     H32000  10.995   6.721   5.610  0.3306  0.2722  0.4285
  978MOL0     H32001  11.157   6.725   5.682  0.7888 -0.6850 -1.2039
  978MOL0     H32002  11.068   6.644   5.893  0.9425  4.1107  0.8790
  978MOL0     H32003  10.977   6.778   5.847  1.0496  0.6698 -0.6924
  978MOL0     H32004  10.862   6.573   5.946  1.6012 -1.8220 -0.9302
  978MOL0     H32005  10.884   6.484   5.794 -0.4380  0.5130 -2.4698
  978MOL0     H32006  10.731   6.728   5.852  0.8408 -0.9455  2.0675
  978MOL0     H32007  10.768   6.672   5.681  1.2152  2.3225  0.7208
  978MOL0     H32008  10.622   6.514   5.883 -0.1945  0.6147 -0.3215
  978MOL0     H32009  10.693   6.445   5.742  4.6999  1.4763  0.6407
  978MOL0     H32010  10.449   6.499   5.685  0.7717 -1.5618 -1.7126
  978MOL0     H32011  10.558   6.620   5.606 -0.6186  1.1742  0.3962
  978MOL0     H32012  11.106   6.430   5.251 -0.3209  0.1198  0.5539
  978MOL0     H32013  11.120   6.478   4.997  1.7520  1.1491 -1.6201
  978MOL0     H32014  11.453   6.698   4.657 -0.0242 -0.2533 -1.0363
  978MOL0     H32015  11.533   6.549   4.483  1.7211  4.0991  2.7669
  978MOL0     H32016  10.789   5.269   4.023  1.9528  2.5231 -2.7377
  978MOL0     H32017  10.761   5.212   3.779 -0.5727 -0.9370 -0.9513
  978MOL0     H32018  10.959   4.962   3.415  0.1685  4.4809 -3.3773
  978MOL0     H32019  10.940   4.884   3.192  2.7081  2.5637  2.2842
  978MOL0     H32020  10.684   4.686   2.921  0.8776 -0.9853 -0.3696
  978MOL0     H32021  10.594   4.683   3.070  1.4947  1.3192  2.7459
  978MOL0     H32022  10.576   4.935   2.890  2.6178 -0.0587  3.4955
  978MOL0     H32023  10.453   4.863   2.998 -0.5258 -2.5141  0.4760
  978MOL0     H32024  10.528   4.747   2.719 -0.1338  0.4379  2.2453
  978MOL0     H32025  10.400   4.848   2.732  1.8760  0.9644 -1.1966
  978MOL0     H32026  10.275   4.707   2.872 -0.0562  0.0432  0.9150
  978MOL0     H32027  10.416   4.600   2.894  0.0600 -0.3787  0.4742
  978MOL0     H32028  10.226   4.476   2.533 -0.1394  0.4079 -0.1796
  978MOL0     H32029  10.512   4.848   3.206  0.9156  2.7728 -1.9033
  978MOL0     H32030  10.531   4.913   3.444 -0.5260  2.9275 -0.2706
  979MOL0     O32031   0.083   8.525  10.023  0.7013 -0.1738 -0.6555
  979MOL0     C32032   0.008   8.578   9.942  0.6665 -0.8887 -0.7746
  979MOL0     O32033  -0.107   8.523   9.888  1.0180 -0.1971 -0.5220
  979MOL0     C32034  -0.163   8.419   9.956 -0.4670 -0.5081 -0.8532
  979MOL0     C32035  -0.186   8.414  10.089 -0.4845 -1.0681  0.4009
  979MOL0     C32036  -0.250   8.305  10.151 -0.8494  0.0839 -0.7163
  979MOL0     C32037  -0.285   8.200  10.085  0.7170 -0.5239  0.4389
  979MOL0     O32038  -0.373   8.100  10.136  0.5519 -0.2894  0.9590
  979MOL0     C32039  -0.309   8.021  10.243  0.1724 -0.4972  0.6107
  979MOL0     C32040  -0.334   7.868  10.226  0.3612  0.8339 -0.0326
  979MOL0     C32041  -0.470   7.809  10.212 -0.1450 -0.3153 -0.2602
  979MOL0     C32042  -0.469   7.651  10.209  0.2512 -0.2559 -0.4271
  979MOL0     C32043  -0.487   7.580  10.341 -0.3400 -0.1727  0.1310
  979MOL0     C32044  -0.371   7.570  10.434 -0.1568  0.0558 -0.4826
  979MOL0     C32045  -0.411   7.494  10.565  0.2001  0.0167  0.5800
  979MOL0     C32046  -0.377   7.342  10.548  0.3951  0.5425  0.7417
  979MOL0     N32047  -0.233   7.314  10.552 -0.4001 -0.4020  0.3833
  979MOL0     C32048  -0.139   7.376  10.634 -1.3401  0.4904 -0.4097
  979MOL0     C32049  -0.025   7.302  10.608  0.1109 -0.2702 -0.7620
  979MOL0     C32050   0.111   7.336  10.660  1.0628  0.2417  0.1850
  979MOL0     C32051   0.145   7.485  10.674  0.2064 -0.4581 -0.3950
  979MOL0     C32052   0.287   7.511  10.724 -1.0070 -0.6734 -0.1795
  979MOL0     C32053   0.317   7.663  10.713 -0.2990 -1.4820 -0.1410
  979MOL0     O32054   0.244   7.729  10.825 -0.4584  0.1650  0.2434
  979MOL0     C32055   0.255   7.861  10.853  0.1083 -0.2211 -0.7553
  979MOL0     C32056   0.366   7.936  10.820  0.8533 -0.5246 -0.0255
  979MOL0     C32057   0.371   8.070  10.855 -0.0373  0.3616 -0.0534
  979MOL0     C32058   0.501   8.138  10.819  0.3732 -0.2787 -0.1984
  979MOL0     C32059   0.282   8.125  10.938 -0.1229 -0.5449 -0.7895
  979MOL0     C32060   0.286   8.268  10.976 -0.6555  0.4427  0.1012
  979MOL0     O32061   0.164   8.331  10.965  0.0109 -0.7033 -0.3838
  979MOL0     C32062   0.142   8.447  11.037  0.6127 -1.1754 -0.2969
  979MOL0     C32063   0.103   8.456  11.169  0.7758 -0.1704 -0.8410
  979MOL0     C32064   0.097   8.575  11.240  0.3037  0.6804  1.5454
  979MOL0     C32065   0.142   8.693  11.177 -0.5568 -0.0803 -0.4432
  979MOL0     O32066   0.166   8.796  11.260 -0.3803  0.0239  0.8211
  979MOL0     C32067   0.260   8.912  11.225  0.2799  0.7470  0.1838
  979MOL0     C32068   0.233   9.021  11.324 -0.4892  0.0053  0.5082
  979MOL0     C32069   0.110   9.107  11.299  0.0070 -0.9776 -0.0226
  979MOL0     C32070   0.127   9.225  11.394 -0.1385  0.1889  0.6938
  979MOL0     C32071   0.018   9.331  11.387 -0.5716 -0.4003 -0.2067
  979MOL0     C32072  -0.119   9.264  11.419 -0.5599  0.0258 -0.6229
  979MOL0     C32073  -0.215   9.374  11.451  0.4008  0.2349  0.2465
  979MOL0     C32074  -0.345   9.342  11.523  1.0197 -0.7820 -0.2793
  979MOL0    Cl32075  -0.445   9.487  11.509 -0.3750  0.1630  0.3035
  979MOL0     C32076   0.164   8.682  11.038 -1.1039 -0.9613 -1.3148
  979MOL0     C32077   0.168   8.566  10.974 -0.6852 -0.0493 -0.1411
  979MOL0     O32078   0.385   8.309  11.035 -0.0624  0.3846  0.0315
  979MOL0     C32079   0.174   8.052  10.975  0.6389 -0.7334 -1.5468
  979MOL0     C32080   0.156   7.922  10.933 -0.2235 -0.2476  0.0292
  979MOL0     N32081  -0.051   7.190  10.530 -0.8909 -0.2812  0.4905
  979MOL0     N32082  -0.170   7.201  10.494 -0.0020  0.0110 -0.0685
  979MOL0     C32083  -0.279   8.203   9.946 -0.2090  0.0268  0.6428
  979MOL0     C32084  -0.216   8.317   9.880 -0.6860  0.7221 -0.4787
  979MOL0     C32085   0.047   8.703   9.877 -0.7736 -0.4289 -0.2657
  979MOL0     C32086   0.177   8.760   9.901  0.3122 -0.8689 -0.3939
  979MOL0     C32087   0.222   8.863   9.815 -0.6966 -0.0200 -0.7877
  979MOL0     C32088   0.138   8.910   9.714  0.7641 -0.5507 -0.6041
  979MOL0     O32089   0.185   8.994   9.619 -1.0188  0.4709  0.2224
  979MOL0     C32090   0.285   8.930   9.526  0.1671  0.4255 -0.6984
  979MOL0     C32091   0.314   8.995   9.385 -0.2223 -0.0484  0.0349
  979MOL0     C32092   0.347   9.147   9.403 -0.6885 -1.1199 -0.1855
  979MOL0     C32093   0.391   9.209   9.263 -0.8168 -0.3487  0.3997
  979MOL0     C32094   0.385   9.351   9.257 -0.2294 -0.4344  0.7114
  979MOL0     C32095   0.387   9.471   9.260  0.9262 -0.4623 -1.2346
  979MOL0     C32096   0.007   8.867   9.702 -0.4622  0.4729  0.1898
  979MOL0     C32097  -0.045   8.768   9.791 -0.5585  0.2634 -0.4734
  979MOL0     H32098  -0.160   8.492  10.159 -0.1924 -3.4100  3.0698
  979MOL0     H32099  -0.272   8.306  10.258  1.0989 -1.6021 -0.2211
  979MOL0     H32100  -0.203   8.047  10.245 -0.3927  2.3937  3.8929
  979MOL0     H32101  -0.342   8.050  10.343  4.7710 -0.1163  2.2373
  979MOL0     H32102  -0.272   7.830  10.145  2.0129 -0.8206  1.8901
  979MOL0     H32103  -0.293   7.808  10.308 -0.8527 -1.7427 -1.1948
  979MOL0     H32104  -0.544   7.829  10.290  0.6807 -0.9751  0.7019
  979MOL0     H32105  -0.514   7.835  10.115  1.4690 -1.5622 -1.3907
  979MOL0     H32106  -0.546   7.623  10.137  0.2385  3.4554 -2.0479
  979MOL0     H32107  -0.373   7.613  10.172  0.3276 -1.8877  1.2609
  979MOL0     H32108  -0.571   7.620  10.399 -1.3926 -0.1919 -1.3212
  979MOL0     H32109  -0.526   7.481  10.316  6.5865 -3.6364  0.5375
  979MOL0     H32110  -0.291   7.515  10.385 -0.6186 -0.3050 -0.8451
  979MOL0     H32111  -0.317   7.662  10.454  1.8806 -1.1231 -0.3128
  979MOL0     H32112  -0.354   7.536  10.649  1.4270 -0.8760  0.2189
  979MOL0     H32113  -0.517   7.504  10.587  0.6460  1.2593  2.3665
  979MOL0     H32114  -0.420   7.313  10.451  0.3785  1.0312  0.5992
  979MOL0     H32115  -0.431   7.273  10.613  1.7895 -3.3338 -1.8189
  979MOL0     H32116  -0.135   7.464  10.697 -0.7520  0.8456 -0.9348
  979MOL0     H32117   0.134   7.281  10.752  2.7891 -0.3236 -0.5505
  979MOL0     H32118   0.179   7.308  10.579 -1.1849 -0.9592 -1.3879
  979MOL0     H32119   0.084   7.547  10.739  0.6380  1.6983 -1.9284
  979MOL0     H32120   0.128   7.536  10.579  3.0751  0.9696 -0.2486
  979MOL0     H32121   0.360   7.460  10.661  4.0266  2.4469  2.5086
  979MOL0     H32122   0.296   7.480  10.828 -1.9996  1.1629  0.5142
  979MOL0     H32123   0.291   7.698  10.613 -1.4635  2.9116  1.5021
  979MOL0     H32124   0.426   7.674  10.715  0.1340 -4.0858 -2.5396
  979MOL0     H32125   0.450   7.897  10.764  1.5408  1.3204 -0.3617
  979MOL0     H32126   0.487   8.231  10.764  1.8245 -0.0095 -0.1463
  979MOL0     H32127   0.553   8.157  10.913  1.5695  0.1690 -0.9312
  979MOL0     H32128   0.562   8.072  10.756 -0.1490  0.5969 -1.6616
  979MOL0     H32129   0.081   8.363  11.222  0.1431  0.5968  0.2900
  979MOL0     H32130   0.055   8.592  11.339  0.1548  2.0695  1.2699
  979MOL0     H32131   0.368   8.897  11.236  0.7694  2.7429 -1.5028
  979MOL0     H32132   0.235   8.932  11.121  0.1043 -1.1771 -0.1798
  979MOL0     H32133   0.208   8.973  11.419 -1.3554  0.7177  0.6506
  979MOL0     H32134   0.320   9.084  11.347 -1.8064  1.2117  2.5816
  979MOL0     H32135   0.016   9.057  11.325 -1.4571  1.6475  0.0767
  979MOL0     H32136   0.093   9.139  11.196  0.1649 -2.7031 -0.6151
  979MOL0     H32137   0.144   9.187  11.495  4.8148  2.3042  0.9820
  979MOL0     H32138   0.218   9.276  11.359  1.4116 -3.6332 -1.4055
  979MOL0     H32139   0.019   9.378  11.289  0.1400 -0.3023 -0.1584
  979MOL0     H32140   0.042   9.402  11.467  3.4517 -1.9263  0.2068
  979MOL0     H32141  -0.144   9.185  11.348  2.3527 -2.8279  1.2194
  979MOL0     H32142  -0.112   9.208  11.513 -0.7532 -4.5436 -3.0200
  979MOL0     H32143  -0.255   9.414  11.358 -3.0004  1.0693  1.9122
  979MOL0     H32144  -0.170   9.456  11.506  0.9088 -0.9561  1.6892
  979MOL0     H32145  -0.320   9.326  11.628 -0.8170 -3.4293 -0.1525
  979MOL0     H32146  -0.391   9.246  11.498  2.1381 -2.1147  2.3978
  979MOL0     H32147   0.202   8.771  10.989 -2.1239 -0.1124 -0.6162
  979MOL0     H32148   0.199   8.559  10.870 -1.9144 -1.7605 -0.4528
  979MOL0     H32149   0.106   8.113  11.034  1.9109 -0.7283 -0.0186
  979MOL0     H32150   0.058   7.875  10.933 -1.1577  1.5972 -0.8879
  979MOL0     H32151  -0.336   8.132   9.887  1.8543  1.0738 -2.8804
  979MOL0     H32152  -0.206   8.327   9.772  1.2986 -1.1993 -0.5450
  979MOL0     H32153   0.244   8.720   9.976  1.0648 -2.6542 -1.9266
  979MOL0     H32154   0.325   8.895   9.819 -0.8295  0.3666 -0.2159
  979MOL0     H32155   0.385   8.933   9.568 -0.0142 -0.4721 -0.1952
  979MOL0     H32156   0.262   8.824   9.512 -0.4727  0.6914 -1.8629
  979MOL0     H32157   0.222   8.992   9.326 -1.6614  2.1148  1.9987
  979MOL0     H32158   0.403   8.944   9.348 -0.8190 -1.1565  0.0592
  979MOL0     H32159   0.422   9.190   9.471  0.7028  0.9408 -2.8126
  979MOL0     H32160   0.255   9.199   9.431  1.1259  1.4208  1.5627
  979MOL0     H32161   0.327   9.172   9.182  0.8408 -2.1302 -0.1536
  979MOL0     H32162   0.489   9.175   9.228 -1.0406 -0.3366 -0.2536
  979MOL0     H32163   0.401   9.576   9.250  0.4747 -0.0269  1.8434
  979MOL0     H32164  -0.055   8.898   9.619  1.3128  0.5628 -1.1645
  979MOL0     H32165  -0.139   8.722   9.762 -0.9193 -0.8437  2.1517
  980MOL0     O32166   1.359   4.564  10.663 -0.5312  0.2755 -0.2974
  980MOL0     C32167   1.296   4.675  10.664  0.5664  1.7249  0.5429
  980MOL0     O32168   1.247   4.743  10.776  0.0527 -0.5029 -0.1846
  980MOL0     C32169   1.227   4.677  10.895  0.6794  0.3029  0.2750
  980MOL0     C32170   1.244   4.739  11.012  0.6021 -0.2594 -0.6882
  980MOL0     C32171   1.199   4.676  11.130 -0.1861  0.3333  0.2746
  980MOL0     C32172   1.142   4.555  11.136 -0.8694  0.6538 -0.1582
  980MOL0     O32173   1.102   4.500  11.253 -0.2656 -0.5894  0.2018
  980MOL0     C32174   1.117   4.361  11.269  0.1386 -0.7655  1.2672
  980MOL0     C32175   1.136   4.352  11.417 -0.1004 -0.2809 -0.7841
  980MOL0     C32176   1.010   4.362  11.505  0.8753  0.7123  0.2639
  980MOL0     C32177   1.041   4.365  11.657  0.4388 -0.3251  0.6747
  980MOL0     C32178   0.930   4.318  11.753 -0.5165  0.1895 -0.8528
  980MOL0     C32179   0.967   4.347  11.894 -0.1379  0.4278 -0.3875
  980MOL0     C32180   1.101   4.298  11.959 -0.2345  0.5147 -0.6147
  980MOL0     C32181   1.110   4.302  12.108  0.2363  0.7996 -0.6270
  980MOL0     N32182   1.084   4.437  12.165  0.5848 -0.3084  0.4857
  980MOL0     C32183   1.152   4.553  12.128  1.2720 -0.5552  0.1830
  980MOL0     C32184   1.087   4.652  12.199  0.4040  0.8337 -0.8625
  980MOL0     C32185   1.115   4.797  12.204  0.0708 -0.3013 -0.6038
  980MOL0     C32186   1.190   4.830  12.336 -0.3759 -0.6395 -1.1308
  980MOL0     C32187   1.235   4.977  12.347  0.0945 -0.8909 -0.4526
  980MOL0     C32188   1.116   5.077  12.368 -0.1104 -0.5965 -0.4929
  980MOL0     O32189   1.175   5.176  12.449 -0.0503 -0.4528  0.1682
  980MOL0     C32190   1.116   5.302  12.452  1.2554  0.0960  0.4085
  980MOL0     C32191   0.989   5.321  12.399  0.4503 -0.2807 -0.0470
  980MOL0     C32192   0.929   5.449  12.399 -0.7542  0.2174 -0.1056
  980MOL0     C32193   0.791   5.461  12.336 -0.3149 -0.3837  0.0971
  980MOL0     C32194   1.000   5.559  12.457 -0.4238 -0.6395 -0.7703
  980MOL0     C32195   0.957   5.707  12.456  0.6320  0.6501  0.4959
  980MOL0     O32196   1.053   5.797  12.449 -0.5555 -0.0821 -0.4749
  980MOL0     C32197   1.015   5.932  12.451 -0.1584  0.6191  1.3320
  980MOL0     C32198   0.998   6.008  12.566 -0.3478 -0.5149 -0.1223
  980MOL0     C32199   0.966   6.146  12.560 -0.5962 -0.1788  0.0693
  980MOL0     C32200   0.922   6.200  12.443  0.5377  0.2738  0.2205
  980MOL0     O32201   0.861   6.319  12.437  0.2484 -0.6872 -0.1371
  980MOL0     C32202   0.951   6.427  12.446  0.9228 -1.1538 -0.2845
  980MOL0     C32203   0.873   6.569  12.443  0.0240  0.1408 -0.2385
  980MOL0     C32204   0.948   6.697  12.457 -0.7225 -0.1287  0.3041
  980MOL0     C32205   0.855   6.817  12.425 -0.2653 -0.2020 -0.8036
  980MOL0     C32206   0.760   6.841  12.540  1.1228  0.3661 -0.2190
  980MOL0     C32207   0.718   6.987  12.547 -1.5968 -0.5783 -0.0927
  980MOL0     C32208   0.601   7.020  12.644  0.4897 -0.6147  0.6528
  980MOL0     C32209   0.559   7.162  12.620 -0.3085 -1.1775 -0.0196
  980MOL0    Cl32210   0.679   7.276  12.713  0.3358 -0.1248  0.1362
  980MOL0     C32211   0.921   6.122  12.324 -0.0478 -0.1851  0.1930
  980MOL0     C32212   0.965   5.995  12.331 -0.1835  0.7801  1.1346
  980MOL0     O32213   0.843   5.723  12.488  1.1606  0.6604 -0.1436
  980MOL0     C32214   1.129   5.540  12.506 -0.2115  0.2331 -1.0840
  980MOL0     C32215   1.178   5.407  12.505  0.5491 -0.2223  0.1004
  980MOL0     N32216   1.005   4.590  12.284 -0.4465  0.4544  0.2600
  980MOL0     N32217   0.989   4.463  12.265  0.3679 -0.2901  0.2083
  980MOL0     C32218   1.126   4.492  11.008  0.5542  0.4863 -1.3124
  980MOL0     C32219   1.151   4.554  10.890 -0.7544 -1.6892 -0.7302
  980MOL0     C32220   1.282   4.742  10.537 -0.9500 -0.1531 -0.2542
  980MOL0     C32221   1.295   4.669  10.419  0.5133 -1.0134  0.1019
  980MOL0     C32222   1.279   4.729  10.293  0.0376  0.4264 -0.1256
  980MOL0     C32223   1.234   4.861  10.289  0.9860  0.3001 -0.3636
  980MOL0     O32224   1.225   4.944  10.179  0.1344 -0.2239  0.6913
  980MOL0     C32225   1.232   4.894  10.043  0.3442  0.4616 -0.6877
  980MOL0     C32226   1.152   4.978   9.946  0.4905  0.1184  0.5800
  980MOL0     C32227   1.137   4.894   9.808  0.0605  0.6506 -0.2742
  980MOL0     C32228   1.001   4.940   9.742  0.7620 -0.0267 -0.5761
  980MOL0     C32229   1.009   4.922   9.596 -0.2964  0.8718  0.7841
  980MOL0     C32230   1.023   4.909   9.481  0.1937 -0.5790  0.8309
  980MOL0     C32231   1.230   4.939  10.408 -0.2612  0.9033 -0.1168
  980MOL0     C32232   1.259   4.880  10.533 -0.4411  0.0288  0.0749
  980MOL0     H32233   1.288   4.838  11.009 -0.1280  0.0526 -1.3770
  980MOL0     H32234   1.203   4.718  11.230 -0.4659  0.1006  0.3832
  980MOL0     H32235   1.021   4.316  11.244  0.2280  1.2135 -4.0213
  980MOL0     H32236   1.195   4.313  11.209  1.0683 -2.6567  3.8027
  980MOL0     H32237   1.182   4.256  11.441 -1.1558 -0.4401  0.8242
  980MOL0     H32238   1.210   4.426  11.450  2.9439 -3.6294  0.6066
  980MOL0     H32239   0.949   4.449  11.479 -0.7463 -0.7241 -1.0121
  980MOL0     H32240   0.932   4.290  11.478 -0.0881  0.5969  3.0188
  980MOL0     H32241   1.127   4.298  11.670  0.2572 -1.1112 -1.7056
  980MOL0     H32242   1.068   4.468  11.681 -0.7564  0.2091 -0.1671
  980MOL0     H32243   0.852   4.388  11.723  0.3303  2.2112  1.3192
  980MOL0     H32244   0.905   4.214  11.729  1.3203 -1.3412  2.8921
  980MOL0     H32245   0.967   4.456  11.907  3.1648  0.3281  1.5091
  980MOL0     H32246   0.875   4.329  11.950 -0.4148  1.6901 -0.4017
  980MOL0     H32247   1.104   4.194  11.924 -0.1183 -0.0243  0.9422
  980MOL0     H32248   1.192   4.347  11.923  0.2421  0.7010  0.8049
  980MOL0     H32249   1.213   4.281  12.140  0.2316  0.3998 -0.8602
  980MOL0     H32250   1.042   4.229  12.153 -0.1678  0.7753 -1.2715
  980MOL0     H32251   1.234   4.570  12.059  0.6695  0.6334 -0.2666
  980MOL0     H32252   1.174   4.841  12.122  3.2511 -1.6081  0.8559
  980MOL0     H32253   1.018   4.845  12.221  0.8660 -0.1591  5.3817
  980MOL0     H32254   1.278   4.765  12.350  1.4785  2.3065  2.8593
  980MOL0     H32255   1.131   4.808  12.425  1.6037  1.4164  0.8236
  980MOL0     H32256   1.305   5.001  12.267  0.9989 -0.0411  0.5614
  980MOL0     H32257   1.283   4.983  12.445 -1.8594 -0.0142  0.5133
  980MOL0     H32258   1.029   5.037  12.422  0.2736  2.9395  3.2302
  980MOL0     H32259   1.097   5.127  12.272 -1.6479  0.6404  0.4149
  980MOL0     H32260   0.932   5.238  12.358 -1.7676  0.2372  1.7836
  980MOL0     H32261   0.723   5.505  12.409 -0.2258  0.4053 -0.2811
  980MOL0     H32262   0.810   5.547  12.271  1.0329  1.1848  2.4466
  980MOL0     H32263   0.744   5.369  12.299 -1.1117  0.5195 -1.2256
  980MOL0     H32264   1.032   5.966  12.660 -0.0366  4.1445  2.1257
  980MOL0     H32265   0.961   6.208  12.649  0.0423 -0.4923  0.3391
  980MOL0     H32266   1.008   6.435  12.539  2.1116 -2.7387 -0.8449
  980MOL0     H32267   1.019   6.430  12.360  0.7754  3.7914 -0.5380
  980MOL0     H32268   0.819   6.569  12.348 -1.9756 -1.1080  0.8352
  980MOL0     H32269   0.789   6.555  12.512 -2.8346 -0.6430 -3.5765
  980MOL0     H32270   1.031   6.711  12.387  0.9828  4.2009  2.7901
  980MOL0     H32271   1.003   6.710  12.550  0.6715  0.1972 -0.5296
  980MOL0     H32272   0.927   6.899  12.419 -0.7683  0.5380  1.9557
  980MOL0     H32273   0.806   6.808  12.327 -0.4204 -1.1766 -0.6483
  980MOL0     H32274   0.820   6.815  12.627 -0.0507 -2.3237 -0.1168
  980MOL0     H32275   0.673   6.775  12.532  1.2856  0.2369 -1.0102
  980MOL0     H32276   0.803   7.045  12.584 -1.5754  0.4722 -1.6903
  980MOL0     H32277   0.702   7.023  12.445  2.3280  0.3527 -0.5345
  980MOL0     H32278   0.639   7.009  12.746  3.8880 -2.6676 -0.6537
  980MOL0     H32279   0.518   6.952  12.622 -0.7918  1.4982 -1.4464
  980MOL0     H32280   0.457   7.176  12.658  0.0726  1.7638  0.1235
  980MOL0     H32281   0.572   7.181  12.514  4.7166  1.4652  0.7743
  980MOL0     H32282   0.885   6.168  12.232  0.6817  0.4405  0.2117
  980MOL0     H32283   0.971   5.921  12.251 -0.8583  0.5047  1.3359
  980MOL0     H32284   1.192   5.619  12.545  1.2497  0.1435 -3.1109
  980MOL0     H32285   1.282   5.396  12.536 -0.1996  0.7000  3.2444
  980MOL0     H32286   1.075   4.397  11.017 -3.4389  2.5694  0.6588
  980MOL0     H32287   1.131   4.497  10.800  2.1472 -0.9990 -1.8927
  980MOL0     H32288   1.340   4.571  10.423  1.4750 -0.6141 -0.5749
  980MOL0     H32289   1.295   4.679  10.198  1.3853  1.4345 -0.4536
  980MOL0     H32290   1.337   4.906  10.017  0.7829  3.1224  1.8141
  980MOL0     H32291   1.192   4.793  10.033 -0.1851  0.1080  3.3142
  980MOL0     H32292   1.215   5.063   9.916  1.2380 -0.9469 -1.0126
  980MOL0     H32293   1.053   5.005   9.983  0.4216 -0.6459  0.9614
  980MOL0     H32294   1.147   4.786   9.823  2.4711  0.7208 -0.9306
  980MOL0     H32295   1.227   4.909   9.748 -1.1875 -1.7228 -2.9282
  980MOL0     H32296   0.977   5.042   9.774  1.3488 -0.1823  0.4145
  980MOL0     H32297   0.930   4.870   9.786  2.5351 -1.3798  0.2771
  980MOL0     H32298   1.047   4.886   9.379  3.5830  1.2955  1.0501
  980MOL0     H32299   1.210   5.045  10.396  1.0260  1.0450 -1.1754
  980MOL0     H32300   1.233   4.936  10.623 -1.7396 -0.4478  0.0139
  981MOL0     O32301   0.287   8.348   6.116  0.1405  0.1315 -0.4854
  981MOL0     C32302   0.292   8.278   6.017 -0.0936 -0.1526 -0.1150
  981MOL0     O32303   0.193   8.257   5.931 -0.1432 -0.0933 -0.0548
  981MOL0     C32304   0.063   8.305   5.963 -0.4762 -0.1936  0.2924
  981MOL0     C32305   0.026   8.418   6.037 -0.0799 -0.2271 -0.3977
  981MOL0     C32306  -0.109   8.459   6.045  0.0083  1.4318 -0.5970
  981MOL0     C32307  -0.211   8.389   5.986  0.2950  0.1083  0.0403
  981MOL0     O32308  -0.339   8.423   6.012  0.7366 -0.5309 -0.5766
  981MOL0     C32309  -0.452   8.376   5.936  0.2767 -0.3688  0.3078
  981MOL0     C32310  -0.559   8.481   5.918  0.9644  0.4005 -0.4618
  981MOL0     C32311  -0.521   8.590   5.822  1.0704 -0.4589  0.3619
  981MOL0     C32312  -0.636   8.698   5.830  0.0619  0.1121  0.2744
  981MOL0     C32313  -0.592   8.820   5.750 -0.3841  0.3565  0.5797
  981MOL0     C32314  -0.697   8.929   5.758 -0.2604  0.1323 -0.0995
  981MOL0     C32315  -0.663   9.052   5.666 -0.5346  0.3111 -0.0472
  981MOL0     C32316  -0.793   9.140   5.684 -0.4217  0.4000 -0.1314
  981MOL0     N32317  -0.786   9.263   5.600  0.0108 -0.3876  0.3553
  981MOL0     C32318  -0.679   9.327   5.548 -0.2404  0.0724 -0.3877
  981MOL0     C32319  -0.739   9.424   5.476 -0.2133 -0.2344 -0.0487
  981MOL0     C32320  -0.670   9.526   5.393  0.0048  0.4735 -0.3552
  981MOL0     C32321  -0.672   9.499   5.256  0.5297 -0.2316  0.3417
  981MOL0     C32322  -0.796   9.541   5.185 -0.2659  0.3793 -0.4858
  981MOL0     C32323  -0.792   9.508   5.041 -0.0658 -0.2004  0.2561
  981MOL0     O32324  -0.911   9.553   4.973 -0.5597 -0.0370 -0.0589
  981MOL0     C32325  -0.930   9.500   4.847 -0.5809  0.6549  0.6057
  981MOL0     C32326  -1.012   9.388   4.835 -0.0701  0.6827 -0.7709
  981MOL0     C32327  -1.028   9.322   4.711  1.3142 -0.0523 -0.1700
  981MOL0     C32328  -1.133   9.221   4.702 -0.1370 -0.4354  0.5369
  981MOL0     C32329  -0.964   9.366   4.596 -0.3282  0.0815  0.4360
  981MOL0     C32330  -0.970   9.303   4.463 -0.4011 -0.1827  0.0711
  981MOL0     O32331  -0.863   9.321   4.379  0.2794 -0.5763 -0.3691
  981MOL0     C32332  -0.837   9.244   4.270  0.1614  0.0639  0.2761
  981MOL0     C32333  -0.916   9.263   4.156 -0.4186  0.2719  0.4257
  981MOL0     C32334  -0.912   9.190   4.042 -0.1157 -0.5550  0.4774
  981MOL0     C32335  -0.786   9.123   4.020  0.2266  1.3387  0.5174
  981MOL0     O32336  -0.751   9.056   3.898  0.6200  0.6322 -0.3200
  981MOL0     C32337  -0.846   9.073   3.795 -0.2662  0.2050  0.8061
  981MOL0     C32338  -0.830   9.212   3.729 -0.0524 -0.8709 -0.2036
  981MOL0     C32339  -0.952   9.238   3.629 -0.0741 -0.1676 -0.1867
  981MOL0     C32340  -0.930   9.355   3.529 -1.1970 -0.3917 -0.0697
  981MOL0     C32341  -1.033   9.360   3.416  0.4831 -0.2520 -0.0108
  981MOL0     C32342  -1.172   9.407   3.458  0.2643  1.1329 -0.6396
  981MOL0     C32343  -1.270   9.418   3.337 -0.7242  0.2132 -0.8621
  981MOL0     C32344  -1.408   9.489   3.373  0.1153  0.4342  0.5881
  981MOL0    Cl32345  -1.520   9.409   3.491  0.0434 -0.3270  0.1231
  981MOL0     C32346  -0.692   9.119   4.125 -0.0512  0.4016 -0.0101
  981MOL0     C32347  -0.721   9.174   4.252  0.7254  0.7917 -0.0703
  981MOL0     O32348  -1.056   9.221   4.443  0.4100 -0.7163  1.2855
  981MOL0     C32349  -0.880   9.486   4.612 -0.7208  0.8539  0.5718
  981MOL0     C32350  -0.871   9.555   4.730 -0.6646  0.1798 -0.1592
  981MOL0     N32351  -0.875   9.425   5.497 -0.0345  0.0439 -0.0770
  981MOL0     N32352  -0.902   9.335   5.570 -0.1979 -0.1723  0.1864
  981MOL0     C32353  -0.179   8.272   5.923 -0.2800 -0.0287 -0.1299
  981MOL0     C32354  -0.042   8.231   5.908 -0.5256  0.7681 -1.1987
  981MOL0     C32355   0.425   8.219   5.970  0.8745  0.2135 -1.2323
  981MOL0     C32356   0.430   8.152   5.855  0.1736  0.6963  1.1544
  981MOL0     C32357   0.546   8.100   5.797  0.7726  0.3815  0.4125
  981MOL0     C32358   0.663   8.106   5.871 -0.3929  0.1800 -0.6393
  981MOL0     O32359   0.790   8.065   5.836 -0.0438  0.5150  0.1827
  981MOL0     C32360   0.822   8.042   5.705  0.0206 -0.0892  0.9482
  981MOL0     C32361   0.967   8.003   5.700 -0.0418  0.2645 -0.1323
  981MOL0     C32362   0.998   7.950   5.550 -0.3562  0.2804 -1.0390
  981MOL0     C32363   1.154   7.959   5.520 -0.2123  0.6081 -0.7509
  981MOL0     C32364   1.236   7.858   5.594 -0.0238  0.0931 -0.0720
  981MOL0     C32365   1.310   7.769   5.638  1.1299 -0.8681  0.0023
  981MOL0     C32366   0.653   8.161   6.005  0.1940  0.0418  0.6703
  981MOL0     C32367   0.536   8.219   6.053 -0.1144 -0.5288 -0.2653
  981MOL0     H32368   0.102   8.466   6.098  1.9681 -3.2135 -0.3664
  981MOL0     H32369  -0.123   8.544   6.112  0.4286  1.5818 -0.6950
  981MOL0     H32370  -0.427   8.352   5.832 -1.4757 -1.0364  0.0176
  981MOL0     H32371  -0.486   8.285   5.986  2.0733 -1.5222 -0.4803
  981MOL0     H32372  -0.649   8.430   5.882  0.5696  1.3297 -0.8328
  981MOL0     H32373  -0.576   8.509   6.022  3.5914 -3.2616  1.1737
  981MOL0     H32374  -0.434   8.645   5.858  0.2727  0.7064  0.5728
  981MOL0     H32375  -0.510   8.553   5.720  3.7224 -0.3307  0.5378
  981MOL0     H32376  -0.730   8.673   5.778 -0.3052 -0.8386  1.3678
  981MOL0     H32377  -0.648   8.728   5.935 -0.7910 -2.2279  0.8985
  981MOL0     H32378  -0.493   8.835   5.792 -0.1949 -0.8200  0.5992
  981MOL0     H32379  -0.581   8.784   5.647 -3.7748 -1.6716  0.7548
  981MOL0     H32380  -0.799   8.900   5.733 -0.1809 -0.6868  0.5103
  981MOL0     H32381  -0.697   8.960   5.863 -3.0092  1.5126 -0.4176
  981MOL0     H32382  -0.576   9.107   5.704 -0.9730  0.3605  0.9148
  981MOL0     H32383  -0.658   9.026   5.560 -2.3951  1.5782 -0.4874
  981MOL0     H32384  -0.816   9.161   5.788  1.5486  1.3045  0.1867
  981MOL0     H32385  -0.878   9.085   5.644 -0.6551  1.3236 -0.9503
  981MOL0     H32386  -0.575   9.300   5.561 -0.1768  1.1759  1.8878
  981MOL0     H32387  -0.723   9.615   5.427  1.1429  0.6731  1.0196
  981MOL0     H32388  -0.567   9.543   5.426 -0.3337 -2.3841  2.7971
  981MOL0     H32389  -0.647   9.397   5.226  4.1288  1.0059 -1.4813
  981MOL0     H32390  -0.590   9.555   5.208 -1.3965  2.0451 -0.4796
  981MOL0     H32391  -0.807   9.650   5.192 -3.0155  0.1729 -0.5364
  981MOL0     H32392  -0.886   9.497   5.228 -1.3965  0.8761 -2.2021
  981MOL0     H32393  -0.766   9.404   5.020  1.6324  0.2622 -0.0514
  981MOL0     H32394  -0.704   9.562   5.006  1.0194 -0.9409  1.7335
  981MOL0     H32395  -1.054   9.339   4.922 -0.4209 -1.4163 -2.0475
  981MOL0     H32396  -1.220   9.265   4.652  1.2220  1.4056 -0.3549
  981MOL0     H32397  -1.109   9.127   4.651  0.1279  0.6470 -1.4519
  981MOL0     H32398  -1.178   9.208   4.801 -0.4934  1.1515  0.6186
  981MOL0     H32399  -0.999   9.330   4.179 -0.0953  0.1585  1.9576
  981MOL0     H32400  -0.983   9.217   3.965  1.7675  0.5413 -0.9773
  981MOL0     H32401  -0.829   8.998   3.717 -1.8448  0.6615 -0.0123
  981MOL0     H32402  -0.948   9.054   3.829 -0.5354  0.8677  0.3890
  981MOL0     H32403  -0.830   9.287   3.809  1.4235 -1.0735  0.0072
  981MOL0     H32404  -0.729   9.217   3.688  0.9858  0.8302  2.3389
  981MOL0     H32405  -1.045   9.260   3.681  1.7088  1.2708  2.6788
  981MOL0     H32406  -0.969   9.148   3.570 -5.7475  0.5305 -0.1643
  981MOL0     H32407  -0.930   9.449   3.585 -0.7922  0.0285 -0.7560
  981MOL0     H32408  -0.829   9.347   3.488 -0.7218  1.2252  0.6608
  981MOL0     H32409  -1.041   9.259   3.376 -0.4058  0.3820 -1.5327
  981MOL0     H32410  -0.997   9.417   3.330  0.9738 -1.1133 -0.3920
  981MOL0     H32411  -1.210   9.331   3.527  0.7125  1.9120  0.4915
  981MOL0     H32412  -1.167   9.504   3.508 -1.8142  0.7171  0.4688
  981MOL0     H32413  -1.302   9.321   3.299  1.0994 -1.0582  0.6649
  981MOL0     H32414  -1.227   9.478   3.257 -2.8221  2.1114 -0.6646
  981MOL0     H32415  -1.464   9.499   3.280 -0.8523 -0.5976  1.0388
  981MOL0     H32416  -1.377   9.590   3.404 -0.3046 -0.0896  2.9332
  981MOL0     H32417  -0.595   9.072   4.111 -0.7272 -1.6003  1.5195
  981MOL0     H32418  -0.648   9.175   4.333  0.5253 -2.0895  0.2579
  981MOL0     H32419  -0.825   9.523   4.527 -0.3478  0.8780  0.8189
  981MOL0     H32420  -0.812   9.645   4.737  0.5122 -0.6645  1.7182
  981MOL0     H32421  -0.248   8.191   5.900  1.2672 -1.6420  0.6976
  981MOL0     H32422  -0.013   8.139   5.858 -0.8210 -2.3736  3.7140
  981MOL0     H32423   0.337   8.131   5.803  0.7553  2.5061 -0.7513
  981MOL0     H32424   0.546   8.072   5.692  3.4304 -1.2262  0.7396
  981MOL0     H32425   0.751   7.972   5.661  0.1591  0.3457  0.0044
  981MOL0     H32426   0.811   8.133   5.646  4.8835 -0.9801 -1.8067
  981MOL0     H32427   0.991   7.915   5.761  1.4752 -2.0583 -3.7567
  981MOL0     H32428   1.029   8.086   5.736 -0.3941 -0.3589  2.0875
  981MOL0     H32429   0.958   8.029   5.486  1.4538  4.0023  1.9823
  981MOL0     H32430   0.950   7.855   5.527 -1.3890  0.1264  1.4111
  981MOL0     H32431   1.190   8.061   5.538  1.4422  0.2624 -1.8847
  981MOL0     H32432   1.168   7.946   5.412 -0.7100  0.6211 -0.8179
  981MOL0     H32433   1.368   7.684   5.666 -0.1248 -1.1574  1.9561
  981MOL0     H32434   0.737   8.155   6.072  0.5389  1.3447  0.3830
  981MOL0     H32435   0.531   8.271   6.148  0.9999  1.0770 -1.0349
  982MOL0     O32436  11.043   6.168   5.546 -0.1743 -0.3540  0.3149
  982MOL0     C32437  10.966   6.113   5.465 -0.8818 -0.0205 -0.4237
  982MOL0     O32438  11.011   6.039   5.354  0.8205 -0.0581 -0.4766
  982MOL0     C32439  11.137   6.071   5.296  0.4510 -1.0530 -1.2680
  982MOL0     C32440  11.251   5.997   5.334  0.2898  1.1951 -0.3957
  982MOL0     C32441  11.380   6.034   5.292  0.2482 -0.1338 -0.7573
  982MOL0     C32442  11.402   6.143   5.204  0.7467 -0.0252 -0.8026
  982MOL0     O32443  11.526   6.174   5.157 -0.5648 -0.3549 -0.1407
  982MOL0     C32444  11.570   6.309   5.185 -0.1039 -0.0156  0.3975
  982MOL0     C32445  11.604   6.394   5.063  0.6954  1.0138  0.7563
  982MOL0     C32446  11.732   6.334   4.992 -0.6726 -0.7027  0.6952
  982MOL0     C32447  11.717   6.350   4.841  0.0948 -0.3170  0.5005
  982MOL0     C32448  11.697   6.495   4.781  0.5128 -0.5369 -0.0214
  982MOL0     C32449  11.811   6.601   4.802 -0.4059  1.0120  0.1366
  982MOL0     C32450  11.786   6.723   4.715 -0.1871 -0.7544 -0.3455
  982MOL0     C32451  11.871   6.847   4.750 -0.8527 -0.1202 -0.3898
  982MOL0     N32452  11.810   6.926   4.860  0.4122 -0.1611  0.6854
  982MOL0     C32453  11.802   6.906   4.995 -0.1880 -0.7748 -0.0155
  982MOL0     C32454  11.746   7.022   5.044 -0.2433  0.3522 -0.7547
  982MOL0     C32455  11.705   7.057   5.188 -0.7598  1.5560  0.3544
  982MOL0     C32456  11.579   6.985   5.247  0.7436 -0.7559  0.2571
  982MOL0     C32457  11.517   7.071   5.364  0.3687  0.1910  0.7734
  982MOL0     C32458  11.574   7.059   5.508  0.6366  0.7543  0.0979
  982MOL0     O32459  11.511   7.157   5.590  0.3908  0.2318 -0.1210
  982MOL0     C32460  11.568   7.174   5.715  0.7734  0.4188 -0.5185
  982MOL0     C32461  11.685   7.112   5.757 -0.2656  0.2449 -0.6790
  982MOL0     C32462  11.747   7.138   5.880 -0.6384 -0.1363 -0.7891
  982MOL0     C32463  11.876   7.068   5.909  0.2860 -0.6489 -0.8759
  982MOL0     C32464  11.677   7.222   5.966  0.4907  0.3287  0.0958
  982MOL0     C32465  11.750   7.290   6.079  0.5485  0.4378  0.8494
  982MOL0     O32466  11.887   7.323   6.067 -0.5943  0.8602 -0.6348
  982MOL0     C32467  11.951   7.356   6.192 -0.5448 -0.8112 -0.1618
  982MOL0     C32468  11.924   7.480   6.246  0.1394  0.8004  0.2241
  982MOL0     C32469  12.019   7.534   6.346  1.0291  0.2971 -0.6997
  982MOL0     C32470  12.117   7.455   6.398 -0.3224 -0.0596 -0.0233
  982MOL0     O32471  12.183   7.502   6.511 -0.2741 -0.0639 -0.8198
  982MOL0     C32472  12.127   7.598   6.599  0.6023 -0.1326  1.0399
  982MOL0     C32473  11.993   7.549   6.665  0.7956  0.5036  0.0054
  982MOL0     C32474  11.950   7.635   6.788  0.2141  0.7833  0.0231
  982MOL0     C32475  12.043   7.601   6.910 -0.1222  0.2361 -0.1469
  982MOL0     C32476  11.981   7.655   7.039  0.9483  0.8610 -0.5145
  982MOL0     C32477  12.073   7.643   7.157 -0.5761 -0.3197 -0.5801
  982MOL0     C32478  12.014   7.736   7.264  0.9500 -0.2287  0.6557
  982MOL0     C32479  12.099   7.733   7.385 -0.8781  0.3154  0.3079
  982MOL0    Cl32480  12.088   7.908   7.450 -0.2351  0.0438 -0.1768
  982MOL0     C32481  12.147   7.333   6.339 -0.7459 -0.1253  0.5339
  982MOL0     C32482  12.065   7.277   6.237 -0.2631 -0.4035  0.7349
  982MOL0     O32483  11.684   7.296   6.180 -0.2797 -0.2707 -0.3042
  982MOL0     C32484  11.551   7.276   5.936  0.4726  0.5718 -0.4178
  982MOL0     C32485  11.502   7.259   5.806  0.6270  0.4088 -1.3537
  982MOL0     N32486  11.720   7.119   4.945  0.0301 -0.3331  0.6517
  982MOL0     N32487  11.764   7.054   4.840  0.5309 -0.1426 -0.2681
  982MOL0     C32488  11.288   6.212   5.159  0.6161 -0.2458  0.7023
  982MOL0     C32489  11.158   6.180   5.204 -0.0876  0.0125  0.2803
  982MOL0     C32490  10.817   6.121   5.494 -0.4842  0.4045 -0.0872
  982MOL0     C32491  10.785   6.196   5.602  0.3804  0.8020 -0.1774
  982MOL0     C32492  10.655   6.200   5.649 -0.3307 -0.1110  0.7256
  982MOL0     C32493  10.569   6.122   5.579 -0.2964  0.9870 -0.0969
  982MOL0     O32494  10.455   6.097   5.655  0.2929 -1.0483  0.4953
  982MOL0     C32495  10.331   6.076   5.577  0.0932  0.0662 -0.5019
  982MOL0     C32496  10.201   6.135   5.632  0.3731  0.3330 -0.1866
  982MOL0     C32497  10.217   6.291   5.651 -0.8866 -0.1096 -0.3754
  982MOL0     C32498  10.087   6.354   5.701 -0.6459 -0.0307 -0.1571
  982MOL0     C32499  10.056   6.332   5.843  0.4174 -1.3463 -0.3019
  982MOL0     C32500  10.014   6.327   5.949 -0.5288  0.3974  0.3225
  982MOL0     C32501  10.594   6.052   5.459  0.1731 -0.2297 -0.8161
  982MOL0     C32502  10.722   6.053   5.413 -1.0806 -0.2243 -0.4759
  982MOL0     H32503  11.232   5.910   5.395  1.2963  1.2090 -0.0542
  982MOL0     H32504  11.470   5.987   5.331  0.5300 -2.9009 -4.2027
  982MOL0     H32505  11.505   6.376   5.242  0.7155  0.7017  0.5220
  982MOL0     H32506  11.664   6.302   5.241  1.6605  1.5381 -2.1239
  982MOL0     H32507  11.514   6.390   5.001  1.0185  2.6840  0.1418
  982MOL0     H32508  11.625   6.495   5.098  0.6171  0.9160  1.0862
  982MOL0     H32509  11.819   6.391   5.027 -1.5231  0.6436  0.6609
  982MOL0     H32510  11.748   6.231   5.027 -1.5311 -0.4815  1.7781
  982MOL0     H32511  11.802   6.307   4.788 -0.6335  0.9498 -1.8433
  982MOL0     H32512  11.637   6.293   4.793  0.2971  0.2019 -0.4657
  982MOL0     H32513  11.670   6.485   4.675  0.8439  2.7260 -0.5113
  982MOL0     H32514  11.617   6.547   4.835  0.3953  0.4047 -1.0758
  982MOL0     H32515  11.807   6.622   4.909  1.7255 -3.4834  1.3542
  982MOL0     H32516  11.911   6.563   4.779 -0.5178  0.6941  0.1672
  982MOL0     H32517  11.798   6.699   4.609 -1.5600 -0.9889 -0.4766
  982MOL0     H32518  11.682   6.744   4.742  0.0537 -0.6773  0.5448
  982MOL0     H32519  11.902   6.915   4.670 -0.5009  1.3290  0.9303
  982MOL0     H32520  11.968   6.813   4.787 -0.0689  1.1886 -1.1461
  982MOL0     H32521  11.834   6.818   5.049  0.2880 -0.9939 -0.6429
  982MOL0     H32522  11.791   7.032   5.250 -2.5906 -4.0650  1.1610
  982MOL0     H32523  11.695   7.166   5.184  0.2603  1.6520  0.3006
  982MOL0     H32524  11.607   6.887   5.287  1.1646 -1.3717 -1.4609
  982MOL0     H32525  11.512   6.967   5.162  0.5496  2.5816 -0.4471
  982MOL0     H32526  11.415   7.034   5.370  0.1926  0.3839 -0.6616
  982MOL0     H32527  11.495   7.173   5.331 -5.0517 -1.2881 -1.1975
  982MOL0     H32528  11.679   7.083   5.488  1.0323  1.4486  2.6424
  982MOL0     H32529  11.571   6.959   5.551  0.2353  1.2191  1.1898
  982MOL0     H32530  11.745   7.049   5.692  0.2737  0.2804 -0.2202
  982MOL0     H32531  11.894   7.057   6.016 -1.0245  1.9771 -0.2887
  982MOL0     H32532  11.886   6.968   5.866 -0.6154 -1.0612 -0.1632
  982MOL0     H32533  11.951   7.131   5.861  1.7489 -2.1341 -0.6091
  982MOL0     H32534  11.848   7.540   6.198 -1.0711 -0.9912 -0.2012
  982MOL0     H32535  11.990   7.630   6.388 -2.9271 -0.8955 -0.3135
  982MOL0     H32536  12.204   7.595   6.677  4.0748  0.0377 -2.1165
  982MOL0     H32537  12.121   7.695   6.548 -2.8406 -1.0098 -0.4412
  982MOL0     H32538  11.906   7.554   6.598  0.4472 -1.3869  0.2733
  982MOL0     H32539  11.999   7.442   6.684  0.6873 -0.0615 -2.7417
  982MOL0     H32540  11.844   7.620   6.811  0.4903  1.4144  1.8832
  982MOL0     H32541  11.960   7.741   6.764  0.7452  1.5410  3.1936
  982MOL0     H32542  12.051   7.493   6.925  0.2597  0.1747 -0.7901
  982MOL0     H32543  12.141   7.646   6.891 -1.8151  3.7171 -1.4981
  982MOL0     H32544  11.890   7.597   7.058 -0.0399  1.3553 -3.2528
  982MOL0     H32545  11.952   7.760   7.035  0.0327  0.6613  0.3444
  982MOL0     H32546  12.081   7.539   7.188  3.2050 -0.1441 -0.4953
  982MOL0     H32547  12.176   7.677   7.141 -0.6823  0.9709  1.1279
  982MOL0     H32548  11.911   7.714   7.296  0.4419  1.3623  0.1996
  982MOL0     H32549  11.996   7.836   7.225  1.7867 -0.7013 -1.0087
  982MOL0     H32550  12.201   7.710   7.351 -1.1204  1.7655 -1.5401
  982MOL0     H32551  12.051   7.657   7.447 -1.5990 -0.0330 -0.6618
  982MOL0     H32552  12.223   7.268   6.382  1.8713  2.2766 -0.1261
  982MOL0     H32553  12.096   7.183   6.193  1.5803  0.3515  0.3131
  982MOL0     H32554  11.504   7.343   6.008 -1.5222 -1.4584  0.2696
  982MOL0     H32555  11.407   7.307   5.783  0.4481  0.4346 -0.6087
  982MOL0     H32556  11.300   6.294   5.090 -0.9229 -0.4537  0.1534
  982MOL0     H32557  11.068   6.234   5.177  1.4154  1.6876 -1.7223
  982MOL0     H32558  10.858   6.250   5.662 -0.0201 -0.7441  1.8234
  982MOL0     H32559  10.626   6.248   5.742 -1.4241  0.2397  0.2114
  982MOL0     H32560  10.332   6.113   5.475 -3.8498 -1.8585 -1.4187
  982MOL0     H32561  10.314   5.968   5.582 -1.2511  0.1242 -2.7634
  982MOL0     H32562  10.174   6.084   5.725 -3.5548  4.7731  1.5334
  982MOL0     H32563  10.113   6.104   5.575  1.8090  0.4219 -2.5922
  982MOL0     H32564  10.262   6.335   5.562 -2.1414  2.1933  0.0493
  982MOL0     H32565  10.286   6.312   5.734 -5.4071  1.3952  3.4704
  982MOL0     H32566  10.009   6.311   5.638 -1.2105  0.1151  0.4373
  982MOL0     H32567  10.082   6.462   5.682  1.2545  0.1305  0.0660
  982MOL0     H32568   9.977   6.325   6.050  1.6444 -0.0902  1.1670
  982MOL0     H32569  10.526   5.985   5.408  0.1847 -1.5050  0.7484
  982MOL0     H32570  10.741   5.996   5.323 -0.0430 -3.1729  1.4834
  983MOL0     O32571   9.720   1.164   9.524  0.1728  0.1765  0.7641
  983MOL0     C32572   9.607   1.114   9.551 -0.0910  0.4289 -0.5489
  983MOL0     O32573   9.500   1.110   9.461  0.1474 -0.4622  0.0469
  983MOL0     C32574   9.514   1.154   9.334 -0.8820  0.9799  0.5866
  983MOL0     C32575   9.602   1.094   9.239 -0.2830 -0.1127  0.2113
  983MOL0     C32576   9.632   1.154   9.111  0.4006  0.0420  0.5751
  983MOL0     C32577   9.563   1.268   9.068 -0.3672  0.0143 -0.3067
  983MOL0     O32578   9.583   1.327   8.951  0.0551  0.2968  0.5535
  983MOL0     C32579   9.720   1.336   8.896 -0.3169  0.3630  0.4975
  983MOL0     C32580   9.707   1.387   8.748  0.5748  0.1093 -0.5115
  983MOL0     C32581   9.832   1.356   8.650  0.3597 -0.2477 -0.3708
  983MOL0     C32582   9.819   1.422   8.511  0.0804 -0.6480 -0.6132
  983MOL0     C32583   9.958   1.442   8.455  0.2679  0.3853 -0.1157
  983MOL0     C32584   9.963   1.514   8.323  0.2841 -0.2830  0.1367
  983MOL0     C32585  10.096   1.479   8.249 -0.2475 -0.4390 -0.2799
  983MOL0     C32586  10.075   1.388   8.141  0.2552  0.7546  0.1541
  983MOL0     N32587  10.198   1.363   8.050  0.7502  0.1349 -1.2070
  983MOL0     C32588  10.203   1.359   7.910 -0.6111 -0.4873  0.4142
  983MOL0     C32589  10.328   1.318   7.875  0.1261 -0.0895 -0.2240
  983MOL0     C32590  10.387   1.338   7.741  0.7259  1.0950  0.0004
  983MOL0     C32591  10.431   1.206   7.682  0.4775 -0.4203 -0.5909
  983MOL0     C32592  10.312   1.119   7.623  0.4220 -0.7214 -0.1748
  983MOL0     C32593  10.242   1.016   7.723 -0.2754  0.0208 -0.2021
  983MOL0     O32594  10.121   0.977   7.649  0.1387 -0.5069  0.4710
  983MOL0     C32595  10.057   0.874   7.710  0.2475  1.3734 -0.6821
  983MOL0     C32596   9.942   0.884   7.780 -0.6252 -0.5410 -0.0942
  983MOL0     C32597   9.871   0.775   7.841 -0.0648  0.0977 -0.8778
  983MOL0     C32598   9.733   0.808   7.906  0.1958 -0.1903  0.5428
  983MOL0     C32599   9.924   0.651   7.834  0.0561  1.0256  1.2765
  983MOL0     C32600   9.864   0.537   7.900 -0.3044 -0.9477 -0.7806
  983MOL0     O32601   9.822   0.423   7.822 -1.1060  0.2760 -0.5573
  983MOL0     C32602   9.793   0.432   7.686 -0.1605 -0.0800  0.7086
  983MOL0     C32603   9.668   0.487   7.644 -0.1810 -1.0733  0.0585
  983MOL0     C32604   9.643   0.508   7.509 -1.3213 -0.4554  0.0367
  983MOL0     C32605   9.737   0.473   7.411 -0.3319  0.3428  0.8478
  983MOL0     O32606   9.702   0.472   7.275  0.3259 -0.6854  0.2724
  983MOL0     C32607   9.804   0.478   7.170  0.0622 -0.6536  0.3440
  983MOL0     C32608   9.881   0.348   7.143  0.6352 -0.5442  0.1818
  983MOL0     C32609   9.805   0.220   7.194  1.0387  0.0194 -0.3091
  983MOL0     C32610   9.888   0.098   7.163 -0.1957  0.0971 -0.5806
  983MOL0     C32611  10.012   0.071   7.256  0.5536 -0.2179  0.8637
  983MOL0     C32612  10.091  -0.049   7.204  0.2409 -0.6365  0.4616
  983MOL0     C32613  10.031  -0.193   7.210 -0.3814  0.0721 -0.7441
  983MOL0     C32614  10.026  -0.250   7.352  0.1663 -0.1771  0.6030
  983MOL0    Cl32615  10.187  -0.280   7.414  0.1746 -0.4780  0.2556
  983MOL0     C32616   9.855   0.418   7.454  0.2550 -0.0655  0.3664
  983MOL0     C32617   9.886   0.389   7.590 -0.6488 -1.0041 -0.5446
  983MOL0     O32618   9.856   0.547   8.020  0.0362 -0.6350 -0.8456
  983MOL0     C32619  10.049   0.637   7.769 -1.0723 -0.1298  0.4096
  983MOL0     C32620  10.122   0.743   7.715  0.3823 -0.4007 -0.2586
  983MOL0     N32621  10.401   1.288   7.985 -0.2980 -0.7541 -0.6717
  983MOL0     N32622  10.319   1.307   8.088 -0.6813 -0.2195 -0.7944
  983MOL0     C32623   9.482   1.326   9.167  0.5112 -0.7480 -0.0109
  983MOL0     C32624   9.449   1.267   9.285 -0.4735 -0.1704  0.1138
  983MOL0     C32625   9.582   1.049   9.685  0.1664 -0.5469  0.0634
  983MOL0     C32626   9.457   0.994   9.717  0.3123 -0.3102  1.4824
  983MOL0     C32627   9.435   0.913   9.829  0.3308  0.0355  0.5607
  983MOL0     C32628   9.536   0.890   9.916 -0.6358 -0.2834 -1.1871
  983MOL0     O32629   9.502   0.829  10.031 -0.5227  0.4902  0.1648
  983MOL0     C32630   9.605   0.814  10.127  0.5063 -0.9462  0.3823
  983MOL0     C32631   9.693   0.693  10.081 -0.2394 -0.1246  0.2634
  983MOL0     C32632   9.625   0.566  10.115  0.7730  1.1512 -0.6729
  983MOL0     C32633   9.703   0.436  10.103  0.1100 -0.6477  0.5834
  983MOL0     C32634   9.614   0.326  10.101  0.4168 -0.1090 -0.3248
  983MOL0     C32635   9.532   0.233  10.111  0.0063 -0.0756 -0.2706
  983MOL0     C32636   9.664   0.947   9.889  0.9849  0.2345  0.3713
  983MOL0     C32637   9.688   1.027   9.777 -0.6452  1.5081  0.4152
  983MOL0     H32638   9.670   1.013   9.262  1.3456  0.6843 -1.5139
  983MOL0     H32639   9.702   1.108   9.042  2.3559  3.7562 -0.2057
  983MOL0     H32640   9.775   1.402   8.964 -3.2678  1.7380  1.7275
  983MOL0     H32641   9.761   1.235   8.893  2.2125  1.2607  1.6673
  983MOL0     H32642   9.617   1.333   8.714 -0.1407 -0.2201  1.7228
  983MOL0     H32643   9.690   1.495   8.743  4.2957  0.8573  0.4710
  983MOL0     H32644   9.917   1.411   8.692  1.5318 -1.5874 -0.9421
  983MOL0     H32645   9.862   1.252   8.634  0.5376 -0.5196  1.5164
  983MOL0     H32646   9.744   1.365   8.457 -1.8909  0.6420  0.6492
  983MOL0     H32647   9.785   1.525   8.529  2.7080 -0.2442  3.7816
  983MOL0     H32648  10.020   1.497   8.526 -0.3106  2.8034 -1.3676
  983MOL0     H32649  10.003   1.345   8.432 -1.3407 -0.2472 -0.7582
  983MOL0     H32650   9.878   1.479   8.263 -1.1892 -1.0024  2.5322
  983MOL0     H32651   9.951   1.621   8.344 -2.2490 -0.5454  0.3453
  983MOL0     H32652  10.126   1.570   8.197  0.2588 -0.5324 -0.1653
  983MOL0     H32653  10.184   1.459   8.311  0.4828  1.5604 -0.5971
  983MOL0     H32654   9.998   1.437   8.081  0.3740 -0.2765 -0.8812
  983MOL0     H32655  10.041   1.291   8.179 -1.1363  1.0737 -0.2323
  983MOL0     H32656  10.124   1.388   7.842 -1.2107 -2.3059  0.2690
  983MOL0     H32657  10.317   1.395   7.680 -1.7524 -2.0016 -0.3270
  983MOL0     H32658  10.473   1.403   7.758 -0.2736  1.7813  3.0466
  983MOL0     H32659  10.494   1.147   7.749  2.3542  0.6817 -1.2843
  983MOL0     H32660  10.495   1.230   7.597  0.1708 -1.0122 -0.9969
  983MOL0     H32661  10.349   1.065   7.535  2.8067 -0.8428  0.8254
  983MOL0     H32662  10.234   1.191   7.596  0.2452  0.5731  3.2636
  983MOL0     H32663  10.209   1.060   7.817 -2.4252  0.2234 -0.9781
  983MOL0     H32664  10.312   0.936   7.747  0.8949  2.0284  4.0698
  983MOL0     H32665   9.906   0.985   7.789  3.5616  0.9694  3.0582
  983MOL0     H32666   9.732   0.868   7.997 -0.3684 -0.1907  0.5465
  983MOL0     H32667   9.689   0.874   7.831  1.1269 -3.6481 -3.3923
  983MOL0     H32668   9.673   0.718   7.921 -1.3742  0.7302  0.0404
  983MOL0     H32669   9.590   0.514   7.715  1.0897 -1.0821  1.5328
  983MOL0     H32670   9.549   0.542   7.468 -1.1388  0.5934  0.4679
  983MOL0     H32671   9.754   0.500   7.075 -0.1905  0.8218  0.7851
  983MOL0     H32672   9.877   0.556   7.195 -1.7004  0.7175  1.5161
  983MOL0     H32673   9.900   0.340   7.035  2.1497 -1.7280  0.5069
  983MOL0     H32674   9.980   0.366   7.187  0.1913  1.8374  0.3557
  983MOL0     H32675   9.712   0.215   7.136  0.2614  1.5866  0.7187
  983MOL0     H32676   9.776   0.233   7.299  2.4130 -0.9482  0.2195
  983MOL0     H32677   9.827   0.010   7.185 -0.2482  0.6411  1.6603
  983MOL0     H32678   9.927   0.099   7.060 -0.1702  0.9787 -0.5734
  983MOL0     H32679   9.977   0.060   7.360 -0.2978 -0.2796  0.5790
  983MOL0     H32680  10.077   0.157   7.242 -1.5637  0.9363 -4.2298
  983MOL0     H32681  10.112  -0.030   7.099 -0.3788  2.0021  0.7553
  983MOL0     H32682  10.187  -0.045   7.256 -0.1566 -1.3936  1.2794
  983MOL0     H32683  10.100  -0.254   7.152 -2.0243 -2.8422  0.1843
  983MOL0     H32684   9.935  -0.201   7.158 -0.6023  1.5976 -0.6333
  983MOL0     H32685   9.984  -0.351   7.356  2.7606 -1.2824  2.6628
  983MOL0     H32686   9.968  -0.188   7.420  3.4156  2.6805  1.0465
  983MOL0     H32687   9.932   0.384   7.385  0.7058 -1.3633  1.4711
  983MOL0     H32688   9.974   0.340   7.630 -0.5187  0.5392  1.1738
  983MOL0     H32689  10.093   0.541   7.746  1.6642  0.9613  0.7803
  983MOL0     H32690  10.221   0.740   7.670  0.4049 -3.0358 -0.1526
  983MOL0     H32691   9.425   1.417   9.146  0.8618 -0.2492  1.1457
  983MOL0     H32692   9.386   1.312   9.361  3.1703  1.4874  2.4434
  983MOL0     H32693   9.379   1.007   9.642  1.3817 -2.5940 -0.1723
  983MOL0     H32694   9.334   0.877   9.847 -0.1933  1.6658  1.0984
  983MOL0     H32695   9.668   0.902  10.143  1.3301 -1.4532  0.0202
  983MOL0     H32696   9.553   0.781  10.217  1.8138 -0.8220  1.2104
  983MOL0     H32697   9.794   0.696  10.123  0.0708 -0.4557 -0.4440
  983MOL0     H32698   9.714   0.701   9.974  1.5618 -4.5138  0.0935
  983MOL0     H32699   9.538   0.564  10.048  0.4755  3.1124 -0.4125
  983MOL0     H32700   9.586   0.566  10.218 -1.8045  1.4841 -1.5567
  983MOL0     H32701   9.774   0.422  10.186  1.7652 -2.2916 -1.0115
  983MOL0     H32702   9.762   0.443  10.011  2.5266  2.0194  2.1578
  983MOL0     H32703   9.457   0.160  10.132 -1.5890  1.7251  0.6656
  983MOL0     H32704   9.750   0.929   9.952  3.1957  1.7081 -2.0114
  983MOL0     H32705   9.785   1.070   9.756  0.2287 -1.3596 -2.1685
  984MOL0     O32706   3.846   7.004   3.058 -1.1127  0.2987  0.2667
  984MOL0     C32707   3.935   6.934   3.007 -0.0281 -0.3781 -0.7220
  984MOL0     O32708   3.958   6.904   2.884 -0.7391 -0.2251 -0.3491
  984MOL0     C32709   3.894   6.958   2.777 -0.0369 -0.4060  0.5274
  984MOL0     C32710   3.907   6.882   2.655  0.3484 -0.2389  0.0578
  984MOL0     C32711   3.869   6.920   2.530 -0.7687 -0.2559 -0.3190
  984MOL0     C32712   3.797   7.036   2.526  0.7587 -0.5846 -0.1065
  984MOL0     O32713   3.736   7.065   2.412  0.3472 -0.4893 -0.7575
  984MOL0     C32714   3.726   7.199   2.370  0.2281 -1.1162  0.1211
  984MOL0     C32715   3.678   7.195   2.228  0.3445  0.7716  0.5615
  984MOL0     C32716   3.650   7.340   2.177 -0.5347 -0.7532 -0.7474
  984MOL0     C32717   3.667   7.341   2.032  0.0922  0.0250  1.0159
  984MOL0     C32718   3.639   7.479   1.972  0.2073  0.6262  0.3945
  984MOL0     C32719   3.499   7.493   1.926  0.1661 -0.1516  0.3584
  984MOL0     C32720   3.471   7.632   1.859  0.0148  0.4769  0.6762
  984MOL0     C32721   3.556   7.655   1.728 -0.1270  0.6880  0.3631
  984MOL0     N32722   3.513   7.776   1.651  0.0002  0.0042 -0.4723
  984MOL0     C32723   3.466   7.896   1.698 -0.8674  0.7040 -0.2956
  984MOL0     C32724   3.442   7.970   1.591  0.3569 -0.2742 -0.1771
  984MOL0     C32725   3.411   8.120   1.592 -0.0399  0.1789  0.0844
  984MOL0     C32726   3.370   8.200   1.720 -0.4846  0.0267  0.2914
  984MOL0     C32727   3.220   8.205   1.734 -0.6933 -0.1126 -0.6262
  984MOL0     C32728   3.190   8.207   1.884  0.0299 -0.8377  0.4227
  984MOL0     O32729   3.041   8.202   1.901 -0.1901  0.3850  0.3682
  984MOL0     C32730   2.991   8.140   2.011  0.2788  0.3623  0.2614
  984MOL0     C32731   2.872   8.066   2.003  0.1992 -0.1785 -0.2261
  984MOL0     C32732   2.819   7.993   2.112  1.1188 -1.2379 -0.3858
  984MOL0     C32733   2.691   7.924   2.079 -0.6241 -0.7307 -0.5594
  984MOL0     C32734   2.883   7.995   2.231 -0.4840 -0.5127  0.3143
  984MOL0     C32735   2.834   7.934   2.357 -0.3235 -0.0646  0.1384
  984MOL0     O32736   2.714   7.873   2.352 -0.1610 -0.2110 -0.2777
  984MOL0     C32737   2.663   7.826   2.469 -0.3047  0.2962  0.7653
  984MOL0     C32738   2.725   7.720   2.534  0.2352 -0.7000 -0.2208
  984MOL0     C32739   2.680   7.686   2.664  0.3197  1.1605 -0.3371
  984MOL0     C32740   2.588   7.763   2.738 -0.1374 -0.6983 -0.7229
  984MOL0     O32741   2.571   7.720   2.867  0.6355 -0.2055 -0.6662
  984MOL0     C32742   2.464   7.787   2.944 -0.2475  0.4019 -1.2235
  984MOL0     C32743   2.526   7.905   3.031  0.2583 -0.5927 -0.0827
  984MOL0     C32744   2.500   7.881   3.185  0.6408  0.0132 -0.6318
  984MOL0     C32745   2.606   7.960   3.262 -0.1246  0.1622  0.4496
  984MOL0     C32746   2.746   7.896   3.255 -0.8529  1.3817  0.0791
  984MOL0     C32747   2.841   7.949   3.363  0.0229 -0.9035  0.3517
  984MOL0     C32748   2.983   7.901   3.359  0.0282  0.7195  0.6623
  984MOL0     C32749   3.086   7.949   3.464  0.0331  0.7759  0.4091
  984MOL0    Cl32750   3.016   8.025   3.612  0.0857  0.1948 -0.0478
  984MOL0     C32751   2.524   7.863   2.672 -0.3250  0.2326  0.1236
  984MOL0     C32752   2.558   7.895   2.533 -0.0864 -0.4647 -0.2347
  984MOL0     O32753   2.900   7.944   2.464  0.2773  0.6391  1.0600
  984MOL0     C32754   3.006   8.070   2.236  0.0789 -0.8889 -1.1816
  984MOL0     C32755   3.060   8.132   2.125 -0.0942  0.7034  0.0248
  984MOL0     N32756   3.467   7.906   1.472 -0.5124  1.2302 -0.7708
  984MOL0     N32757   3.507   7.784   1.509 -0.0952  0.6848 -0.3629
  984MOL0     C32758   3.774   7.115   2.643 -0.0549  0.1782  0.3295
  984MOL0     C32759   3.824   7.080   2.762  0.2368  0.3213  0.1289
  984MOL0     C32760   4.052   6.895   3.093  0.1245 -0.1165  0.3486
  984MOL0     C32761   4.160   6.813   3.037 -0.4633  0.5309  0.6066
  984MOL0     C32762   4.262   6.775   3.121  0.1067  0.7776  0.1244
  984MOL0     C32763   4.268   6.809   3.254 -0.9556  0.2754  0.2503
  984MOL0     O32764   4.360   6.742   3.326 -0.3852 -0.3009 -0.7678
  984MOL0     C32765   4.368   6.724   3.469  0.4679  0.1569  0.7217
  984MOL0     C32766   4.426   6.841   3.539  0.0467  1.4082 -0.8740
  984MOL0     C32767   4.426   6.806   3.692 -0.1031 -1.1828 -0.0763
  984MOL0     C32768   4.466   6.931   3.767  0.4129  0.0767 -0.3255
  984MOL0     C32769   4.600   7.001   3.735 -0.6224  1.1256 -0.2535
  984MOL0     C32770   4.705   7.046   3.739  0.3093 -0.3161  0.5026
  984MOL0     C32771   4.182   6.906   3.305 -0.1053  0.1748 -0.0191
  984MOL0     C32772   4.076   6.943   3.222 -0.2105  0.3012 -0.3363
  984MOL0     H32773   3.955   6.785   2.656 -1.9467 -1.5164 -1.7829
  984MOL0     H32774   3.884   6.856   2.443  2.7125  2.1418 -1.7161
  984MOL0     H32775   3.652   7.255   2.427  1.2627  0.2771  0.1645
  984MOL0     H32776   3.824   7.248   2.381  0.4205 -1.3975 -0.3101
  984MOL0     H32777   3.754   7.143   2.170  0.4586  1.3382  0.1918
  984MOL0     H32778   3.589   7.131   2.222  1.8310 -1.3530 -0.0205
  984MOL0     H32779   3.554   7.368   2.223 -0.1439 -1.1850  0.3692
  984MOL0     H32780   3.719   7.411   2.223  0.4504 -3.6298  2.7478
  984MOL0     H32781   3.770   7.317   2.005 -0.3908  0.1520 -1.1735
  984MOL0     H32782   3.605   7.266   1.981  0.6706  0.3702 -0.2237
  984MOL0     H32783   3.650   7.559   2.046 -0.8660  0.4225  0.7863
  984MOL0     H32784   3.696   7.498   1.881  0.7264  0.8566  0.7623
  984MOL0     H32785   3.470   7.408   1.863 -1.7970 -0.2452  1.2974
  984MOL0     H32786   3.431   7.500   2.012  1.5287 -2.6077  1.7433
  984MOL0     H32787   3.371   7.636   1.816  1.5197 -2.5171 -3.8796
  984MOL0     H32788   3.482   7.711   1.934 -3.3703 -0.1202  1.9517
  984MOL0     H32789   3.537   7.568   1.664 -1.4563 -0.9914  2.8796
  984MOL0     H32790   3.663   7.653   1.749 -0.5505 -0.1590  2.7719
  984MOL0     H32791   3.448   7.927   1.800 -1.7964  0.9833 -0.5316
  984MOL0     H32792   3.509   8.158   1.560  1.9726 -4.2521  0.1757
  984MOL0     H32793   3.336   8.142   1.516  3.5291  0.3144 -3.7986
  984MOL0     H32794   3.414   8.299   1.706  1.4877 -0.7917  0.2618
  984MOL0     H32795   3.418   8.160   1.810 -0.8906  1.0509  0.9812
  984MOL0     H32796   3.187   8.113   1.684  0.3267  0.0292 -1.6025
  984MOL0     H32797   3.175   8.292   1.686  0.4000 -0.2944 -2.0435
  984MOL0     H32798   3.233   8.292   1.938 -1.6803 -1.3054  2.6664
  984MOL0     H32799   3.237   8.113   1.914 -0.7728 -1.7949 -1.1850
  984MOL0     H32800   2.823   8.085   1.908 -0.3352  1.3689  0.3325
  984MOL0     H32801   2.724   7.821   2.066  2.2447  0.1935 -1.4896
  984MOL0     H32802   2.608   7.931   2.150 -2.3931 -3.2629 -2.2251
  984MOL0     H32803   2.671   7.960   1.978  0.7994  1.8930 -0.0128
  984MOL0     H32804   2.804   7.661   2.489  1.2310  0.3305  0.1241
  984MOL0     H32805   2.739   7.604   2.704  1.8996  1.7970 -1.2645
  984MOL0     H32806   2.373   7.815   2.890 -0.4960  0.0485 -0.9924
  984MOL0     H32807   2.425   7.715   3.017  1.3730  1.8855  1.2477
  984MOL0     H32808   2.630   7.927   3.004 -0.5623 -2.1285 -6.0375
  984MOL0     H32809   2.470   7.996   3.008 -2.2788 -2.7816 -3.5830
  984MOL0     H32810   2.514   7.775   3.209  0.5023 -0.0241 -0.7155
  984MOL0     H32811   2.403   7.925   3.212  0.2502  0.6212 -2.8344
  984MOL0     H32812   2.617   8.059   3.217 -0.1885  1.0190  2.2265
  984MOL0     H32813   2.566   7.967   3.364 -2.0563  0.7057 -0.2823
  984MOL0     H32814   2.792   7.918   3.159  0.3619 -0.5888  0.1553
  984MOL0     H32815   2.740   7.787   3.259 -0.9243  1.3481 -0.8198
  984MOL0     H32816   2.830   8.058   3.359 -1.3571 -1.0477 -2.4919
  984MOL0     H32817   2.802   7.916   3.460 -2.6143 -1.4373 -0.8105
  984MOL0     H32818   3.038   7.929   3.269 -0.1252  1.0959  0.6859
  984MOL0     H32819   2.985   7.792   3.365  0.4742  0.6001 -1.2377
  984MOL0     H32820   3.145   8.031   3.424 -2.4835  3.4764  1.8214
  984MOL0     H32821   3.143   7.862   3.498 -1.1731 -0.5341 -0.8141
  984MOL0     H32822   2.455   7.930   2.722  1.6377  2.2040  0.3145
  984MOL0     H32823   2.502   7.978   2.492  1.3191  0.7330  0.1808
  984MOL0     H32824   3.070   8.079   2.323  0.5464 -0.4250 -1.5646
  984MOL0     H32825   3.159   8.172   2.145  0.4385 -1.5409  2.5609
  984MOL0     H32826   3.710   7.203   2.633 -0.4482 -0.2536 -1.1872
  984MOL0     H32827   3.796   7.152   2.838 -0.8162  2.8338 -2.4798
  984MOL0     H32828   4.158   6.769   2.938  0.3341 -0.1003  0.8638
  984MOL0     H32829   4.332   6.700   3.086 -0.6592 -0.2746  0.7908
  984MOL0     H32830   4.272   6.702   3.517 -0.8468  1.0939 -1.3080
  984MOL0     H32831   4.428   6.634   3.484  1.4455  0.8943  1.3620
  984MOL0     H32832   4.354   6.922   3.527 -1.7226  0.6085  2.7989
  984MOL0     H32833   4.523   6.870   3.499  1.4661 -1.0800  0.5242
  984MOL0     H32834   4.499   6.731   3.723  2.6209 -0.1284 -3.3252
  984MOL0     H32835   4.325   6.782   3.726 -0.0591  2.9654  3.8153
  984MOL0     H32836   4.457   6.909   3.874 -1.1094 -0.6852 -0.5833
  984MOL0     H32837   4.389   7.005   3.746  0.7665  0.5522  0.0446
  984MOL0     H32838   4.804   7.088   3.742 -0.0948  0.6322  0.9947
  984MOL0     H32839   4.205   6.952   3.400  0.3819  1.6489 -0.8169
  984MOL0     H32840   4.004   7.013   3.261 -0.4277 -0.6086  0.9800
  985MOL0     O32841   1.090   4.537   4.909  0.0497  0.7245  0.0757
  985MOL0     C32842   1.160   4.463   4.842  0.3582 -0.0022  0.1809
  985MOL0     O32843   1.131   4.331   4.818 -0.1398 -0.5081 -0.4411
  985MOL0     C32844   1.029   4.266   4.874  0.1876  0.0876  0.4018
  985MOL0     C32845   1.053   4.168   4.974  0.5872 -0.6375 -0.2951
  985MOL0     C32846   0.936   4.104   5.031 -0.3463 -0.5331  0.1547
  985MOL0     C32847   0.809   4.136   4.978  0.5064  0.0275 -1.8930
  985MOL0     O32848   0.699   4.070   5.014  0.2262  0.5500  0.4080
  985MOL0     C32849   0.676   3.928   5.006 -0.4110 -0.8506 -0.1525
  985MOL0     C32850   0.737   3.862   4.870  0.0231 -0.1027 -0.2051
  985MOL0     C32851   0.661   3.724   4.860  0.7798 -0.2787 -0.2900
  985MOL0     C32852   0.740   3.628   4.956  0.7608 -0.6700  0.2760
  985MOL0     C32853   0.696   3.488   4.947 -0.3588 -0.3143  0.0962
  985MOL0     C32854   0.550   3.464   4.964 -0.4457  0.0377  0.3244
  985MOL0     C32855   0.515   3.312   4.926 -0.0876  0.0635  0.8213
  985MOL0     C32856   0.489   3.293   4.778 -1.1287 -0.5642  0.0686
  985MOL0     N32857   0.509   3.154   4.739  0.5180  0.4427 -0.1149
  985MOL0     C32858   0.618   3.098   4.674  0.1903  0.8014 -0.5002
  985MOL0     C32859   0.578   2.978   4.624  0.5990  0.1417  0.3398
  985MOL0     C32860   0.664   2.876   4.548 -0.4452 -0.0190 -0.1136
  985MOL0     C32861   0.802   2.854   4.611  0.0951  0.2071  0.7199
  985MOL0     C32862   0.846   2.705   4.595 -0.8986  0.0122 -0.4175
  985MOL0     C32863   0.856   2.638   4.446 -0.2774 -0.1306 -1.0414
  985MOL0     O32864   0.849   2.494   4.467  0.2528 -0.6032 -0.1374
  985MOL0     C32865   0.811   2.411   4.365  0.8438  0.5324 -0.0633
  985MOL0     C32866   0.789   2.279   4.394 -0.9547 -0.2287  0.4724
  985MOL0     C32867   0.772   2.186   4.289  0.6773 -0.2822  0.8438
  985MOL0     C32868   0.783   2.043   4.334  0.0423 -0.8061  0.0083
  985MOL0     C32869   0.738   2.236   4.155  0.1117  0.4049 -0.1815
  985MOL0     C32870   0.693   2.149   4.035 -0.0233 -0.2745 -0.0433
  985MOL0     O32871   0.709   2.205   3.908 -0.5966  0.8030 -0.1666
  985MOL0     C32872   0.651   2.131   3.810 -0.2986  0.2037 -0.4827
  985MOL0     C32873   0.732   2.038   3.747  1.4176  0.0844  0.4353
  985MOL0     C32874   0.676   1.968   3.631 -1.0460 -0.0339 -0.2715
  985MOL0     C32875   0.536   1.984   3.591  0.5844  0.1404 -0.5135
  985MOL0     O32876   0.468   1.916   3.498  0.8252  1.2231  0.6797
  985MOL0     C32877   0.538   1.878   3.374  0.8644  0.8249  0.6580
  985MOL0     C32878   0.592   1.739   3.396  0.0209  0.1447  0.1822
  985MOL0     C32879   0.696   1.685   3.293 -0.2134 -0.3710 -0.1176
  985MOL0     C32880   0.831   1.758   3.289 -0.0059  0.5147  0.4519
  985MOL0     C32881   0.911   1.707   3.166  0.1252 -0.2494 -0.7365
  985MOL0     C32882   1.050   1.783   3.135  0.0836  0.9964  0.3527
  985MOL0     C32883   1.036   1.924   3.070 -0.2718 -0.3500  0.0765
  985MOL0     C32884   0.933   1.945   2.962 -0.2175  0.6112  0.6467
  985MOL0    Cl32885   0.995   1.848   2.818  0.1278 -0.2135 -0.4389
  985MOL0     C32886   0.459   2.082   3.661 -0.0633 -0.3900 -0.0653
  985MOL0     C32887   0.521   2.153   3.764 -0.2339  0.5110  1.1244
  985MOL0     O32888   0.653   2.039   4.060  0.5431 -0.1343  0.7417
  985MOL0     C32889   0.749   2.380   4.135 -0.1689  0.2542 -0.3166
  985MOL0     C32890   0.785   2.462   4.240 -1.0752  0.2481  0.4917
  985MOL0     N32891   0.441   2.969   4.659 -0.4985  0.2919  0.9129
  985MOL0     N32892   0.404   3.072   4.731 -0.1782 -0.3027  0.4527
  985MOL0     C32893   0.786   4.237   4.885  0.2646  0.0501  1.0195
  985MOL0     C32894   0.900   4.304   4.822 -0.2161  0.5291  0.0493
  985MOL0     C32895   1.271   4.537   4.776  0.1843 -0.1055  0.0928
  985MOL0     C32896   1.388   4.472   4.735 -1.7057  0.0842  0.5475
  985MOL0     C32897   1.481   4.548   4.657  0.2655 -1.0818 -0.0163
  985MOL0     C32898   1.470   4.689   4.652  0.3309  0.2416  0.1064
  985MOL0     O32899   1.570   4.780   4.616 -0.5126 -0.2873 -0.7401
  985MOL0     C32900   1.672   4.777   4.715 -0.4177  0.9652  0.0500
  985MOL0     C32901   1.646   4.842   4.845  0.1636 -0.3739 -0.5999
  985MOL0     C32902   1.659   4.989   4.851 -0.6076  0.0476  0.2738
  985MOL0     C32903   1.541   5.071   4.796  0.3796  0.0546 -0.1560
  985MOL0     C32904   1.567   5.212   4.780  0.0297 -0.4831 -1.3754
  985MOL0     C32905   1.591   5.332   4.774 -1.3788  0.6120  1.0651
  985MOL0     C32906   1.353   4.748   4.709  0.0204  0.5446 -0.5776
  985MOL0     C32907   1.254   4.674   4.763 -0.0851 -0.0154 -0.0977
  985MOL0     H32908   1.156   4.144   5.000  0.2245 -0.5864  1.2840
  985MOL0     H32909   0.956   4.024   5.102  0.2723 -0.6346 -0.1281
  985MOL0     H32910   0.714   3.875   5.094 -2.1739 -0.5801  0.8089
  985MOL0     H32911   0.570   3.907   5.024 -0.5611 -1.8012 -1.8713
  985MOL0     H32912   0.693   3.929   4.795 -4.9795 -3.0856 -0.3496
  985MOL0     H32913   0.845   3.847   4.858 -0.3114 -2.3014 -0.8254
  985MOL0     H32914   0.554   3.737   4.880  0.6439 -1.0172 -0.4987
  985MOL0     H32915   0.674   3.686   4.758 -2.4775  0.6321 -1.1665
  985MOL0     H32916   0.846   3.648   4.938  0.2411  1.0866 -1.1764
  985MOL0     H32917   0.714   3.670   5.054 -0.7931  2.8947 -1.4707
  985MOL0     H32918   0.737   3.457   4.850  0.0905  2.4684 -0.6930
  985MOL0     H32919   0.744   3.429   5.026  1.9148  1.1793 -0.0641
  985MOL0     H32920   0.533   3.484   5.070  0.1470  0.4608  0.3465
  985MOL0     H32921   0.498   3.546   4.912  0.8552 -0.9723 -2.8550
  985MOL0     H32922   0.588   3.240   4.965  0.7829  0.5602  0.1516
  985MOL0     H32923   0.423   3.286   4.979  1.7943  0.1687  4.5322
  985MOL0     H32924   0.575   3.339   4.729 -0.4163 -1.0016  0.8658
  985MOL0     H32925   0.396   3.338   4.745 -1.8813 -2.5541 -0.6819
  985MOL0     H32926   0.720   3.134   4.664  0.1197  1.4488  0.8602
  985MOL0     H32927   0.602   2.786   4.554 -0.2690 -0.1399 -0.0804
  985MOL0     H32928   0.670   2.896   4.441  1.4857 -1.4444 -0.3181
  985MOL0     H32929   0.794   2.871   4.719  1.0359  2.9102  0.4403
  985MOL0     H32930   0.873   2.922   4.564 -0.6205 -1.1086 -2.5236
  985MOL0     H32931   0.782   2.645   4.660  2.1624 -0.6321  2.3025
  985MOL0     H32932   0.944   2.686   4.640 -1.0901  2.0721  1.0409
  985MOL0     H32933   0.948   2.682   4.407  1.2302 -0.5594  1.7887
  985MOL0     H32934   0.771   2.683   4.394 -0.9145 -0.5506 -0.3735
  985MOL0     H32935   0.800   2.230   4.490 -0.2402  0.3892  0.7111
  985MOL0     H32936   0.753   1.972   4.257 -3.7671 -0.0582  0.5909
  985MOL0     H32937   0.885   2.020   4.368  0.7042 -2.0732 -2.6436
  985MOL0     H32938   0.719   2.029   4.422 -0.2931  0.1750 -0.0701
  985MOL0     H32939   0.833   2.021   3.781  0.8014 -0.7574  1.9728
  985MOL0     H32940   0.734   1.894   3.577 -1.4087 -0.1129 -0.5521
  985MOL0     H32941   0.458   1.877   3.300 -0.0749 -0.1373  1.6415
  985MOL0     H32942   0.607   1.960   3.356 -0.5557  1.8241 -0.4415
  985MOL0     H32943   0.642   1.732   3.493  1.0446 -2.6234 -0.4454
  985MOL0     H32944   0.515   1.661   3.396  2.5527 -2.5662  0.0318
  985MOL0     H32945   0.657   1.702   3.192  1.0342  2.4237 -0.1955
  985MOL0     H32946   0.712   1.579   3.316 -1.4456  0.0556  3.2307
  985MOL0     H32947   0.815   1.866   3.274  1.5426  0.6109 -0.6604
  985MOL0     H32948   0.896   1.725   3.369  0.5518 -3.4133 -1.3723
  985MOL0     H32949   0.848   1.701   3.076  0.5336 -3.5841 -0.9250
  985MOL0     H32950   0.936   1.602   3.183  2.7678  0.1640 -1.6389
  985MOL0     H32951   1.102   1.806   3.228  1.1146  3.1995 -0.7107
  985MOL0     H32952   1.111   1.711   3.079 -0.0112  2.3151 -1.5300
  985MOL0     H32953   1.131   1.941   3.018 -1.8252  1.0772 -2.4963
  985MOL0     H32954   1.031   1.999   3.150  2.7328 -0.7363  0.7455
  985MOL0     H32955   0.931   2.051   2.939 -2.0007 -0.1800 -3.9957
  985MOL0     H32956   0.829   1.922   2.989 -0.3376 -0.3205 -0.4944
  985MOL0     H32957   0.352   2.092   3.643 -1.1059 -2.4931  3.8565
  985MOL0     H32958   0.462   2.234   3.807 -3.2025 -1.6244  1.3825
  985MOL0     H32959   0.718   2.427   4.042 -1.5907  0.0969  0.0522
  985MOL0     H32960   0.811   2.564   4.214  0.2681 -0.5418 -1.4073
  985MOL0     H32961   0.682   4.252   4.856  1.4480  1.4201 -3.2992
  985MOL0     H32962   0.889   4.370   4.736 -1.0526 -0.3440 -0.5367
  985MOL0     H32963   1.394   4.365   4.756 -1.2150  0.2085  1.0635
  985MOL0     H32964   1.570   4.502   4.615 -0.4005 -1.8562 -0.6148
  985MOL0     H32965   1.703   4.676   4.743  0.7278  0.5496 -2.4506
  985MOL0     H32966   1.758   4.820   4.663  1.8036 -2.3938  0.6872
  985MOL0     H32967   1.721   4.812   4.919 -0.6425  3.2617  1.9645
  985MOL0     H32968   1.555   4.822   4.902 -0.2703  0.1546 -1.0991
  985MOL0     H32969   1.747   5.020   4.794 -1.7254  0.3805 -1.3195
  985MOL0     H32970   1.673   5.015   4.957 -0.5707  0.0287  0.2737
  985MOL0     H32971   1.462   5.049   4.868  1.4334 -3.2343  0.1736
  985MOL0     H32972   1.511   5.033   4.697  2.4573 -1.2522 -0.3407
  985MOL0     H32973   1.599   5.439   4.780 -1.6548  0.7301 -0.3580
  985MOL0     H32974   1.337   4.854   4.722 -1.3288  0.3296 -0.2982
  985MOL0     H32975   1.174   4.738   4.798 -0.5141  0.1399 -1.3156
  986MOL0     O32976   2.450   1.793   2.698 -0.5148 -0.2612  0.3092
  986MOL0     C32977   2.477   1.818   2.815  0.2196  0.4540  0.0713
  986MOL0     O32978   2.389   1.826   2.916  0.5664  0.5711  0.5376
  986MOL0     C32979   2.256   1.813   2.875  0.5565  0.0527  0.4388
  986MOL0     C32980   2.183   1.693   2.902 -0.1852 -0.9496  0.1441
  986MOL0     C32981   2.050   1.689   2.851 -0.0904 -1.1754 -1.4604
  986MOL0     C32982   1.995   1.789   2.768 -0.6944 -0.2027  0.1266
  986MOL0     O32983   1.879   1.778   2.708  0.2291 -0.2601  0.0146
  986MOL0     C32984   1.800   1.658   2.716  0.1888  0.5921 -0.2640
  986MOL0     C32985   1.669   1.680   2.651  0.5552 -0.1171  0.3394
  986MOL0     C32986   1.590   1.545   2.637  0.0441  0.5765 -0.9588
  986MOL0     C32987   1.460   1.549   2.556  0.2552 -0.1561 -0.2884
  986MOL0     C32988   1.497   1.505   2.411  0.2181 -0.2868 -0.7070
  986MOL0     C32989   1.378   1.492   2.323  1.3472 -0.1841  1.0115
  986MOL0     C32990   1.427   1.470   2.174 -0.3689 -0.4987  0.2275
  986MOL0     C32991   1.310   1.429   2.078 -0.5107  0.1092 -0.0136
  986MOL0     N32992   1.255   1.294   2.115 -0.1375 -0.1741 -0.1241
  986MOL0     C32993   1.313   1.167   2.137 -0.1373 -0.4714  0.0475
  986MOL0     C32994   1.210   1.086   2.184 -0.2118  0.4785  0.3273
  986MOL0     C32995   1.206   0.938   2.219 -0.5927 -0.1861 -0.2087
  986MOL0     C32996   1.157   0.842   2.107 -0.0083 -0.8742  0.4167
  986MOL0     C32997   1.151   0.699   2.169 -1.1995  0.1776  0.5270
  986MOL0     C32998   1.108   0.585   2.076 -0.6312  0.3209 -0.7602
  986MOL0     O32999   1.043   0.476   2.144 -0.2199 -0.1691  0.5884
  986MOL0     C33000   1.114   0.378   2.218 -0.2616  0.6042 -0.8337
  986MOL0     C33001   1.028   0.270   2.257 -0.4647 -0.6586 -0.0311
  986MOL0     C33002   1.079   0.157   2.323  1.2539 -0.2361 -0.2784
  986MOL0     C33003   1.000   0.033   2.338 -1.0195  0.1909 -0.2604
  986MOL0     C33004   1.211   0.176   2.373  1.5816 -0.4636 -0.6894
  986MOL0     C33005   1.264   0.081   2.469 -1.3895  0.7845  0.0174
  986MOL0     O33006   1.375   0.012   2.421 -0.6468  0.0597 -0.3917
  986MOL0     C33007   1.473  -0.031   2.510 -0.8605  0.1781  0.2169
  986MOL0     C33008   1.527   0.061   2.602  0.7569 -0.1138 -0.0303
  986MOL0     C33009   1.663   0.039   2.644 -0.0571  0.4558  0.4507
  986MOL0     C33010   1.747  -0.066   2.607  0.4657  0.1513 -1.2262
  986MOL0     O33011   1.874  -0.087   2.657  0.6836 -0.7335  0.2131
  986MOL0     C33012   1.890  -0.052   2.791  0.8155 -0.2399  0.5051
  986MOL0     C33013   1.986  -0.153   2.854  0.5291  0.2483 -0.5398
  986MOL0     C33014   2.008  -0.109   2.998  0.0818 -0.8279 -0.7984
  986MOL0     C33015   2.099  -0.204   3.070 -0.5723  0.4780 -0.3487
  986MOL0     C33016   2.123  -0.158   3.218 -0.1667  0.5348 -0.2904
  986MOL0     C33017   2.211  -0.266   3.292  0.2807  0.2402 -0.6929
  986MOL0     C33018   2.242  -0.207   3.433 -0.8430  0.4581 -0.2557
  986MOL0     C33019   2.337  -0.288   3.523  0.7659  0.3568  0.5792
  986MOL0    Cl33020   2.392  -0.193   3.662  0.2475  0.0360  0.3078
  986MOL0     C33021   1.685  -0.153   2.519  0.4044 -0.5180 -0.3050
  986MOL0     C33022   1.555  -0.138   2.473  1.0762 -0.4488  0.5332
  986MOL0     O33023   1.222   0.075   2.583  0.1517  0.0139 -0.4455
  986MOL0     C33024   1.295   0.282   2.341  0.3934  0.1323  0.2280
  986MOL0     C33025   1.246   0.380   2.257 -0.0973 -0.1950  0.0867
  986MOL0     N33026   1.090   1.159   2.190 -0.1632 -0.1932  0.3853
  986MOL0     N33027   1.126   1.277   2.149 -0.2069 -0.2961  0.2219
  986MOL0     C33028   2.069   1.901   2.750 -0.3934  0.0046  0.8907
  986MOL0     C33029   2.193   1.920   2.811  0.0468 -0.2580  0.4473
  986MOL0     C33030   2.611   1.857   2.849 -0.8805  0.2785 -0.2987
  986MOL0     C33031   2.653   1.895   2.977 -0.4831 -0.1043 -0.0155
  986MOL0     C33032   2.789   1.924   2.995 -0.5630 -0.0831 -0.0805
  986MOL0     C33033   2.883   1.912   2.886  0.5728 -0.0190 -0.8427
  986MOL0     O33034   3.015   1.929   2.876 -0.4688 -0.3782  0.6019
  986MOL0     C33035   3.087   1.918   2.999 -0.3995 -0.4547  0.3883
  986MOL0     C33036   3.225   1.901   2.944  0.3807  0.0214  0.8342
  986MOL0     C33037   3.285   2.022   2.869 -0.3961 -0.6117 -0.1460
  986MOL0     C33038   3.362   1.991   2.743 -0.3635  0.4036 -0.2866
  986MOL0     C33039   3.412   2.114   2.669 -0.6878  0.1774 -0.7572
  986MOL0     C33040   3.445   2.215   2.610  0.1725 -0.9314  0.7816
  986MOL0     C33041   2.823   1.895   2.758  0.0758 -0.2602  0.6551
  986MOL0     C33042   2.693   1.862   2.735 -0.5000 -0.8522 -0.3517
  986MOL0     H33043   2.240   1.616   2.953 -2.6287 -1.9539  1.5431
  986MOL0     H33044   1.990   1.602   2.877 -0.6246 -0.4964 -0.3660
  986MOL0     H33045   1.849   1.579   2.658 -1.0120  0.4346 -1.1055
  986MOL0     H33046   1.789   1.612   2.815 -0.3760  2.3474  0.5192
  986MOL0     H33047   1.608   1.762   2.690  1.8699  2.0706 -1.9013
  986MOL0     H33048   1.695   1.718   2.551  1.8339  2.3297  1.5033
  986MOL0     H33049   1.647   1.452   2.628  0.3114  0.0950  3.4384
  986MOL0     H33050   1.552   1.534   2.739 -0.1946  0.2575 -1.0788
  986MOL0     H33051   1.386   1.479   2.595 -0.6917  1.6175  1.2312
  986MOL0     H33052   1.413   1.648   2.556  0.7310  0.1538  2.6978
  986MOL0     H33053   1.557   1.591   2.379  1.9998 -1.4642 -0.6657
  986MOL0     H33054   1.551   1.410   2.414 -1.7413 -1.4516 -0.4058
  986MOL0     H33055   1.323   1.407   2.363 -1.2832 -0.0934 -1.9374
  986MOL0     H33056   1.311   1.576   2.345  1.2621 -0.7652  3.2044
  986MOL0     H33057   1.459   1.561   2.121  2.4805 -2.4055 -1.5588
  986MOL0     H33058   1.500   1.391   2.163 -0.5131 -0.5342 -0.5409
  986MOL0     H33059   1.353   1.434   1.977  0.3175  0.6244  0.3486
  986MOL0     H33060   1.235   1.509   2.074  1.5041  2.1202  0.1306
  986MOL0     H33061   1.417   1.137   2.140  0.4393  0.6708 -3.6546
  986MOL0     H33062   1.308   0.916   2.252 -0.3807  0.0685 -0.6906
  986MOL0     H33063   1.143   0.937   2.308 -1.1845  0.7057 -0.6081
  986MOL0     H33064   1.225   0.842   2.021 -1.5996 -1.9226 -0.9183
  986MOL0     H33065   1.059   0.881   2.077  0.2530 -1.4083 -1.2322
  986MOL0     H33066   1.081   0.696   2.253 -3.0886 -3.1619 -0.9800
  986MOL0     H33067   1.251   0.669   2.200 -0.0619  2.7315 -0.3750
  986MOL0     H33068   1.205   0.560   2.034 -0.5955 -0.3010 -0.3274
  986MOL0     H33069   1.038   0.601   1.993 -2.5581 -2.5719  0.1308
  986MOL0     H33070   0.936   0.260   2.201  0.1561 -1.8963 -0.8838
  986MOL0     H33071   0.946   0.028   2.433  0.1425 -1.3894  0.3437
  986MOL0     H33072   0.932   0.020   2.253 -0.5415  1.0317 -0.7914
  986MOL0     H33073   1.075  -0.046   2.337 -0.9838  0.2207 -0.0153
  986MOL0     H33074   1.476   0.146   2.644  1.0197 -0.5995  1.3222
  986MOL0     H33075   1.706   0.122   2.699  2.3914  1.9619 -3.3057
  986MOL0     H33076   1.930   0.049   2.800  3.2279 -1.0717 -0.2496
  986MOL0     H33077   1.797  -0.071   2.846  0.9664  0.7106  1.1166
  986MOL0     H33078   1.948  -0.256   2.853 -1.6786  0.9544  1.2678
  986MOL0     H33079   2.076  -0.147   2.793 -0.3488  0.5811 -1.8420
  986MOL0     H33080   1.912  -0.103   3.050  0.2918 -0.6083 -0.4300
  986MOL0     H33081   2.059  -0.012   3.004 -0.1968 -0.7791  1.9389
  986MOL0     H33082   2.046  -0.300   3.071 -0.2792  0.3091  0.3600
  986MOL0     H33083   2.195  -0.209   3.017  0.1494  0.6321  0.8964
  986MOL0     H33084   2.030  -0.159   3.277 -0.0857  0.7471 -0.1571
  986MOL0     H33085   2.165  -0.058   3.231 -1.0095  0.7355  1.1155
  986MOL0     H33086   2.144  -0.350   3.312  1.0464 -0.2266  0.0005
  986MOL0     H33087   2.300  -0.293   3.234  0.1996 -1.6497 -0.0047
  986MOL0     H33088   2.154  -0.191   3.496 -0.0155  2.5865  0.4771
  986MOL0     H33089   2.286  -0.109   3.410 -2.0727  0.3209 -3.8112
  986MOL0     H33090   2.419  -0.339   3.471  0.8581 -1.3754  2.3240
  986MOL0     H33091   2.285  -0.374   3.566  5.8248 -1.2027  4.6533
  986MOL0     H33092   1.742  -0.234   2.475  0.1672 -0.0327 -1.5417
  986MOL0     H33093   1.513  -0.216   2.410 -0.5476  0.1266  0.8670
  986MOL0     H33094   1.397   0.295   2.377  1.2358  0.0496 -2.0095
  986MOL0     H33095   1.309   0.465   2.233  3.4679 -2.7731 -0.5991
  986MOL0     H33096   2.040   1.981   2.682 -0.6814 -1.1422 -0.3866
  986MOL0     H33097   2.229   2.020   2.791 -1.7051  0.6497  1.5392
  986MOL0     H33098   2.581   1.898   3.058 -4.1735  2.5254 -3.0159
  986MOL0     H33099   2.838   1.973   3.079  1.0945 -2.1640  0.2427
  986MOL0     H33100   3.074   2.005   3.065 -2.7108 -0.0014 -0.5445
  986MOL0     H33101   3.046   1.831   3.052 -1.7072  0.6069  1.1951
  986MOL0     H33102   3.233   1.814   2.879 -2.9483  0.9572 -1.0468
  986MOL0     H33103   3.295   1.891   3.028  0.9129  0.8494  0.5118
  986MOL0     H33104   3.341   2.087   2.937 -2.6814  0.2769  0.9760
  986MOL0     H33105   3.216   2.103   2.843  1.8450  1.2784 -0.6134
  986MOL0     H33106   3.298   1.946   2.668  0.7691 -0.2712 -0.8827
  986MOL0     H33107   3.445   1.922   2.764 -0.8750 -0.4100 -0.9075
  986MOL0     H33108   3.465   2.301   2.550 -3.0429 -1.5932 -1.5108
  986MOL0     H33109   2.888   1.904   2.671  1.2369  1.7373  1.6544
  986MOL0     H33110   2.651   1.845   2.637 -1.6503  2.2280 -0.4872
  987MOL0     O33111   5.019   4.074   3.747  0.5363 -0.5799 -0.0813
  987MOL0     C33112   4.944   4.001   3.687 -0.2652 -0.0418  0.5697
  987MOL0     O33113   4.957   3.959   3.559 -0.2971 -0.7875 -0.4542
  987MOL0     C33114   5.055   4.003   3.476 -0.0378 -0.5208 -0.2891
  987MOL0     C33115   5.022   4.039   3.344  0.2998 -0.6722  0.6881
  987MOL0     C33116   5.115   4.096   3.266 -0.7042 -0.3930  0.0600
  987MOL0     C33117   5.249   4.100   3.298  0.1131 -0.4902  0.2768
  987MOL0     O33118   5.358   4.139   3.226 -0.0614 -0.3656 -0.3918
  987MOL0     C33119   5.317   4.208   3.104  0.3118  0.1345  0.0683
  987MOL0     C33120   5.447   4.264   3.041  0.1010  0.4007 -0.0242
  987MOL0     C33121   5.496   4.181   2.921  0.4996 -0.8925  1.0391
  987MOL0     C33122   5.597   4.072   2.949  0.4927  0.1415  0.4957
  987MOL0     C33123   5.645   3.986   2.832  0.0197  0.3315  0.1413
  987MOL0     C33124   5.744   3.876   2.875  0.1060 -0.9729 -1.0018
  987MOL0     C33125   5.785   3.787   2.761 -0.1925  0.3964 -0.1980
  987MOL0     C33126   5.683   3.682   2.710  0.3028  0.2794  0.0448
  987MOL0     N33127   5.693   3.681   2.562  1.7401 -0.3377  0.2735
  987MOL0     C33128   5.650   3.778   2.473 -0.1996 -0.2489  1.1542
  987MOL0     C33129   5.664   3.714   2.354 -0.0045 -0.4055  0.8869
  987MOL0     C33130   5.651   3.763   2.209  1.1605 -1.6866  0.2412
  987MOL0     C33131   5.608   3.915   2.185  0.6347  0.1210 -0.2125
  987MOL0     C33132   5.635   3.981   2.045  0.0116 -1.4090  0.3437
  987MOL0     C33133   5.787   3.989   2.029 -0.6581 -0.3338 -0.2895
  987MOL0     O33134   5.815   4.077   1.923  0.3404 -0.7707 -0.2019
  987MOL0     C33135   5.935   4.110   1.878 -0.5182  0.2028  0.3735
  987MOL0     C33136   6.058   4.069   1.944  0.4056  0.4913  0.5130
  987MOL0     C33137   6.191   4.114   1.894  0.2894  0.1730 -0.3117
  987MOL0     C33138   6.307   4.077   1.979 -0.3813 -0.5471  0.1563
  987MOL0     C33139   6.197   4.185   1.770  0.5462  0.0093 -0.1113
  987MOL0     C33140   6.322   4.249   1.714 -0.0541  0.8249 -0.3522
  987MOL0     O33141   6.301   4.310   1.592 -0.0181 -0.2945  0.3176
  987MOL0     C33142   6.408   4.372   1.533  0.6261  0.6147 -0.3682
  987MOL0     C33143   6.426   4.512   1.539  0.2775  0.7043 -0.4610
  987MOL0     C33144   6.545   4.574   1.490 -0.2578 -0.1976 -0.2398
  987MOL0     C33145   6.643   4.498   1.430  0.2293  0.1077  0.2464
  987MOL0     O33146   6.763   4.555   1.405  0.3580 -0.4076 -0.4282
  987MOL0     C33147   6.768   4.638   1.284  0.0519 -0.0518  0.2250
  987MOL0     C33148   6.875   4.586   1.188  0.2798 -0.4771 -0.2953
  987MOL0     C33149   7.018   4.600   1.237  0.1982 -0.2278  0.0466
  987MOL0     C33150   7.077   4.741   1.226 -1.1720  1.1550  0.2993
  987MOL0     C33151   7.224   4.735   1.240 -0.0726  0.6250 -0.8412
  987MOL0     C33152   7.281   4.874   1.194 -0.3469  0.6176  0.4690
  987MOL0     C33153   7.429   4.890   1.247  0.7162 -0.6265  1.0365
  987MOL0     C33154   7.521   5.002   1.179 -1.2650  0.4086  0.2979
  987MOL0    Cl33155   7.698   4.960   1.231  0.2924  0.0147 -0.1361
  987MOL0     C33156   6.630   4.366   1.424  0.8678  1.5314  0.1226
  987MOL0     C33157   6.514   4.296   1.482  0.1636  0.1761  0.0379
  987MOL0     O33158   6.428   4.239   1.778 -0.0930 -0.1843  0.1455
  987MOL0     C33159   6.074   4.214   1.711  0.5262 -0.6685 -0.2703
  987MOL0     C33160   5.941   4.183   1.758 -1.0997  0.8488  0.4671
  987MOL0     N33161   5.719   3.592   2.372 -0.6031  0.0222 -0.9976
  987MOL0     N33162   5.738   3.574   2.495  0.0344 -0.6162  0.5375
  987MOL0     C33163   5.290   4.054   3.427 -0.8488 -0.2108  0.0075
  987MOL0     C33164   5.188   4.007   3.512  0.5476  0.3048 -0.0233
  987MOL0     C33165   4.834   3.941   3.766  0.0886  0.5023 -0.0431
  987MOL0     C33166   4.764   4.013   3.861  0.2234 -0.2021  0.2639
  987MOL0     C33167   4.650   3.954   3.912 -0.3246  0.3307  0.4853
  987MOL0     C33168   4.595   3.828   3.875 -1.1196  0.2495 -0.5450
  987MOL0     O33169   4.485   3.785   3.935 -0.7569  0.3022  0.6602
  987MOL0     C33170   4.431   3.656   3.913 -0.4257  0.3464 -0.2508
  987MOL0     C33171   4.407   3.627   3.765  0.1452 -0.2138 -0.7698
  987MOL0     C33172   4.274   3.536   3.751  0.2125  0.5279 -0.2509
  987MOL0     C33173   4.292   3.394   3.810 -0.4849 -0.9884  0.2467
  987MOL0     C33174   4.210   3.284   3.737  0.1966  0.3362  0.2592
  987MOL0     C33175   4.127   3.207   3.694 -1.0672  0.4331  0.3469
  987MOL0     C33176   4.683   3.750   3.793 -0.1695 -0.9476  0.2446
  987MOL0     C33177   4.800   3.811   3.735  1.4154 -0.4021 -0.0623
  987MOL0     H33178   4.925   4.028   3.296  1.4784 -1.2191 -1.7058
  987MOL0     H33179   5.089   4.126   3.164 -0.4740 -0.3625  0.0103
  987MOL0     H33180   5.268   4.140   3.032  1.8588 -0.3835 -0.5351
  987MOL0     H33181   5.253   4.293   3.131  0.3600  0.2693 -0.2366
  987MOL0     H33182   5.421   4.364   3.002  0.2937  0.0388 -1.1111
  987MOL0     H33183   5.520   4.292   3.117 -0.6989  0.7378  0.6490
  987MOL0     H33184   5.419   4.133   2.860  1.7662  1.0178 -2.2922
  987MOL0     H33185   5.546   4.251   2.853  0.2470 -0.5413  1.2115
  987MOL0     H33186   5.688   4.103   3.000  0.7218 -2.9325  2.1888
  987MOL0     H33187   5.544   4.019   3.029  1.1885  1.9885  2.2494
  987MOL0     H33188   5.557   3.941   2.784  1.3025 -2.8586  0.5440
  987MOL0     H33189   5.695   4.037   2.748  1.3326 -0.2716  0.5366
  987MOL0     H33190   5.828   3.923   2.928 -1.5272  1.0843 -0.0456
  987MOL0     H33191   5.679   3.825   2.948  1.1525 -1.3508 -0.3176
  987MOL0     H33192   5.820   3.842   2.674  3.7047 -2.1955 -0.5282
  987MOL0     H33193   5.877   3.734   2.788  0.8437  2.4096  0.3767
  987MOL0     H33194   5.584   3.716   2.740  0.6899  0.8435  0.7023
  987MOL0     H33195   5.701   3.577   2.738  2.2894  0.1359 -1.5287
  987MOL0     H33196   5.611   3.879   2.488  1.0471  0.2832  0.9211
  987MOL0     H33197   5.750   3.764   2.162 -0.1329  1.8923 -2.8963
  987MOL0     H33198   5.578   3.706   2.151  0.9398 -2.0973  0.9115
  987MOL0     H33199   5.661   3.973   2.260 -0.6656  0.8144  0.2053
  987MOL0     H33200   5.502   3.929   2.207  1.1990  1.2269  2.1284
  987MOL0     H33201   5.588   4.079   2.033  1.0463 -0.7958  1.1404
  987MOL0     H33202   5.595   3.909   1.972  2.2723 -2.1429 -0.2565
  987MOL0     H33203   5.821   3.888   2.004 -1.1991 -0.5491 -0.1646
  987MOL0     H33204   5.837   4.031   2.116  2.8451 -1.1174 -1.7530
  987MOL0     H33205   6.064   4.009   2.035  3.3405 -1.9272 -1.0836
  987MOL0     H33206   6.268   4.042   2.075 -0.8144 -1.8119 -0.4579
  987MOL0     H33207   6.365   3.999   1.929  0.8957  0.4292  0.0662
  987MOL0     H33208   6.366   4.167   1.995 -0.9676  0.4287 -2.5839
  987MOL0     H33209   6.357   4.576   1.593  1.1540 -0.3825  2.1073
  987MOL0     H33210   6.559   4.679   1.510 -1.2211 -0.1559  0.2621
  987MOL0     H33211   6.672   4.638   1.231 -0.5234 -0.6241  1.2391
  987MOL0     H33212   6.800   4.740   1.308  1.0716 -1.0949  3.8408
  987MOL0     H33213   6.852   4.479   1.178 -0.5352 -0.4822  1.2554
  987MOL0     H33214   6.868   4.633   1.090  0.7376 -0.2722 -0.2261
  987MOL0     H33215   7.083   4.534   1.178 -3.0262 -3.0705 -0.6020
  987MOL0     H33216   7.012   4.554   1.335 -1.7640 -0.1213  0.0061
  987MOL0     H33217   7.049   4.776   1.126  0.9071  1.4862 -0.2039
  987MOL0     H33218   7.029   4.807   1.299 -0.1306  2.0796  0.1744
  987MOL0     H33219   7.270   4.658   1.177 -0.5185 -1.8861  1.6944
  987MOL0     H33220   7.249   4.724   1.345  4.3992 -3.9315 -2.0050
  987MOL0     H33221   7.259   4.882   1.087 -2.4893  1.3134  0.9059
  987MOL0     H33222   7.221   4.953   1.239  0.7508  0.4142  2.3687
  987MOL0     H33223   7.485   4.800   1.220  0.6348 -0.1494 -0.8491
  987MOL0     H33224   7.438   4.873   1.355  0.3357 -2.2849  0.8302
  987MOL0     H33225   7.493   5.103   1.211  0.0785  0.2376  2.1583
  987MOL0     H33226   7.525   4.992   1.070 -2.2682 -2.1329  0.4008
  987MOL0     H33227   6.712   4.312   1.380  1.6189  1.7119  1.2737
  987MOL0     H33228   6.501   4.189   1.493 -2.4601  0.5168  0.9465
  987MOL0     H33229   6.078   4.274   1.620  0.9181 -0.5853 -0.2000
  987MOL0     H33230   5.852   4.233   1.722 -0.3266  1.9018 -0.0381
  987MOL0     H33231   5.396   4.062   3.447 -0.7180 -0.5331 -0.5439
  987MOL0     H33232   5.226   3.992   3.612  2.3916  1.5325 -0.4797
  987MOL0     H33233   4.802   4.113   3.881 -0.2790  0.1120 -0.3430
  987MOL0     H33234   4.591   4.014   3.981 -1.6849 -0.2515 -0.1310
  987MOL0     H33235   4.490   3.574   3.954 -0.0048 -0.0119 -1.5466
  987MOL0     H33236   4.332   3.665   3.961  0.4552  1.5606  1.4602
  987MOL0     H33237   4.492   3.578   3.717  2.7992  1.3659  1.9327
  987MOL0     H33238   4.372   3.718   3.714  0.4248  0.3968  0.1036
  987MOL0     H33239   4.251   3.531   3.645  2.2326 -1.0974 -0.6883
  987MOL0     H33240   4.188   3.581   3.802  0.7332 -0.0998  1.2458
  987MOL0     H33241   4.262   3.400   3.915  0.2053 -0.2992  0.4139
  987MOL0     H33242   4.397   3.365   3.799  0.3361  1.5477  0.7597
  987MOL0     H33243   4.045   3.149   3.656 -1.1931 -0.4240  1.8257
  987MOL0     H33244   4.667   3.644   3.778 -0.1837 -0.9446  0.2381
  987MOL0     H33245   4.870   3.748   3.679 -2.3655 -0.3186 -5.6859
  988MOL0     O33246   5.574   9.465   3.245  0.3255  0.2842  1.0061
  988MOL0     C33247   5.614   9.350   3.250 -0.7352  0.3687  0.3531
  988MOL0     O33248   5.565   9.251   3.176 -0.1710 -0.2177  0.8900
  988MOL0     C33249   5.462   9.287   3.094 -0.7644  0.3098  0.0905
  988MOL0     C33250   5.478   9.255   2.964  0.3891 -0.8110 -0.2763
  988MOL0     C33251   5.364   9.273   2.881 -1.3253 -0.1359  0.5093
  988MOL0     C33252   5.242   9.316   2.927  0.3315 -0.7326 -0.1797
  988MOL0     O33253   5.130   9.316   2.847 -0.0199  0.1717  0.1596
  988MOL0     C33254   5.129   9.336   2.709 -0.7006 -0.1486 -0.5616
  988MOL0     C33255   4.997   9.393   2.659 -0.0786 -0.4565  0.8978
  988MOL0     C33256   4.948   9.391   2.513 -0.4189  0.3384 -0.3160
  988MOL0     C33257   4.911   9.259   2.455  0.1912  0.3796  0.4583
  988MOL0     C33258   4.858   9.260   2.316 -0.5128  0.5573  0.8074
  988MOL0     C33259   4.801   9.125   2.260  0.9434 -0.4507  0.1442
  988MOL0     C33260   4.814   9.091   2.115  0.9405 -0.0403  1.2927
  988MOL0     C33261   4.703   9.166   2.017 -0.4602  0.2770 -0.1843
  988MOL0     N33262   4.774   9.261   1.944  1.2601 -0.0963  0.4737
  988MOL0     C33263   4.845   9.235   1.823  0.1936 -0.4261  0.1148
  988MOL0     C33264   4.889   9.357   1.792  0.0376  0.1426  0.7471
  988MOL0     C33265   4.980   9.380   1.681 -0.0646  0.4692 -0.8524
  988MOL0     C33266   5.129   9.382   1.724 -0.0762 -0.3077  0.0760
  988MOL0     C33267   5.223   9.370   1.601  0.5437 -0.0035 -0.0848
  988MOL0     C33268   5.368   9.407   1.636  0.5031  0.2839 -0.0606
  988MOL0     O33269   5.446   9.369   1.518 -0.1617 -0.1857 -0.6432
  988MOL0     C33270   5.515   9.469   1.462  0.6694  0.1055  0.3758
  988MOL0     C33271   5.574   9.580   1.533  0.4369 -0.0242 -0.0720
  988MOL0     C33272   5.658   9.662   1.458  0.9182  0.0362  0.2909
  988MOL0     C33273   5.708   9.780   1.527 -1.5002 -0.5816 -0.4364
  988MOL0     C33274   5.695   9.641   1.318 -0.2159 -0.1886 -0.2966
  988MOL0     C33275   5.779   9.736   1.236 -0.1686  0.1356 -0.5826
  988MOL0     O33276   5.812   9.687   1.114 -0.4698 -0.7244 -0.2294
  988MOL0     C33277   5.882   9.774   1.032 -0.2743 -0.6377 -0.0738
  988MOL0     C33278   6.016   9.757   0.998  0.0697  0.0611  0.2318
  988MOL0     C33279   6.066   9.848   0.910  0.0263  1.0607 -0.5483
  988MOL0     C33280   6.011   9.967   0.872  0.1163 -0.5436  0.3551
  988MOL0     O33281   6.079  10.046   0.778  0.0556  0.7176 -0.8307
  988MOL0     C33282   6.035  10.180   0.753 -0.4859 -0.5070  0.3423
  988MOL0     C33283   5.972  10.205   0.621 -0.0598 -0.2125 -0.1200
  988MOL0     C33284   6.058  10.170   0.502  0.3838  0.0222 -0.0945
  988MOL0     C33285   5.970  10.209   0.383  0.2437 -0.5998  0.5229
  988MOL0     C33286   6.055  10.213   0.259  0.5343  0.3147  0.4571
  988MOL0     C33287   6.133  10.081   0.229 -0.6713  0.0575  0.8496
  988MOL0     C33288   6.155  10.070   0.074  0.0854  0.4405  0.6014
  988MOL0     C33289   6.263   9.972   0.033  0.4949  1.0932 -0.1400
  988MOL0    Cl33290   6.409   9.997   0.123 -0.0327  0.3072  0.1354
  988MOL0     C33291   5.875   9.985   0.897 -0.4353 -0.2439 -0.0936
  988MOL0     C33292   5.814   9.883   0.976 -0.3080 -0.5146 -0.4996
  988MOL0     O33293   5.832   9.836   1.281 -0.2138  0.4175 -0.6684
  988MOL0     C33294   5.628   9.532   1.262 -0.8968  0.0452 -0.1158
  988MOL0     C33295   5.556   9.433   1.333  0.9352 -0.6866  0.6500
  988MOL0     N33296   4.847   9.452   1.888 -0.4578  0.7410  0.3267
  988MOL0     N33297   4.775   9.392   1.975 -0.1732 -0.3016  0.7965
  988MOL0     C33298   5.234   9.349   3.063 -0.3768 -0.0769 -0.4753
  988MOL0     C33299   5.351   9.353   3.145 -0.1254 -0.4307 -0.7771
  988MOL0     C33300   5.716   9.319   3.353  0.1442  0.3428 -0.3101
  988MOL0     C33301   5.775   9.189   3.359  0.2376  0.2672  0.4797
  988MOL0     C33302   5.881   9.165   3.453 -0.2495  0.2748  0.4110
  988MOL0     C33303   5.913   9.255   3.549 -0.8172 -0.4367  0.2053
  988MOL0     O33304   6.008   9.224   3.647 -0.2876  0.4569  0.2388
  988MOL0     C33305   6.138   9.220   3.600 -0.4101 -0.5280 -0.5711
  988MOL0     C33306   6.213   9.181   3.725 -0.2518  0.3929 -0.4202
  988MOL0     C33307   6.354   9.142   3.691 -0.4270 -1.0142  0.0945
  988MOL0     C33308   6.364   8.995   3.664  0.0008  0.7390 -0.1582
  988MOL0     C33309   6.428   8.942   3.781  0.6391 -0.0046 -0.0066
  988MOL0     C33310   6.488   8.891   3.878  0.2408 -0.0698  1.0400
  988MOL0     C33311   5.860   9.381   3.542  0.8544 -0.0991 -0.8360
  988MOL0     C33312   5.770   9.420   3.445 -0.1053 -0.0190  1.0251
  988MOL0     H33313   5.579   9.242   2.928  0.0546 -0.3905 -1.4285
  988MOL0     H33314   5.372   9.249   2.775  1.0106  0.3818  0.5168
  988MOL0     H33315   5.198   9.416   2.681  0.3428 -1.8666 -3.3608
  988MOL0     H33316   5.149   9.240   2.660 -1.7604 -1.1947  0.9280
  988MOL0     H33317   4.916   9.346   2.714  0.9487 -1.0721  1.9378
  988MOL0     H33318   4.994   9.497   2.695 -0.3111 -0.6031  1.3061
  988MOL0     H33319   4.864   9.459   2.505 -1.0638  0.1129  3.0085
  988MOL0     H33320   5.022   9.445   2.453  2.3448  0.2811  2.7469
  988MOL0     H33321   5.001   9.197   2.448 -0.3140 -0.7266  2.7622
  988MOL0     H33322   4.852   9.204   2.529  0.6863 -0.4088  0.2778
  988MOL0     H33323   4.777   9.333   2.322 -1.0046  0.1696 -0.6868
  988MOL0     H33324   4.928   9.301   2.243 -3.8375 -0.1487 -3.1824
  988MOL0     H33325   4.866   9.056   2.315 -1.0884 -1.0379  1.9540
  988MOL0     H33326   4.699   9.115   2.297  0.1889  1.5735 -1.2308
  988MOL0     H33327   4.914   9.124   2.088  0.9575 -0.9039  0.2627
  988MOL0     H33328   4.816   8.986   2.087 -2.4261  0.6638 -2.4281
  988MOL0     H33329   4.628   9.211   2.082  0.0236 -2.1003  2.1634
  988MOL0     H33330   4.659   9.100   1.942 -1.0480 -1.2124  1.4344
  988MOL0     H33331   4.857   9.138   1.777 -1.1703  0.3434 -2.0080
  988MOL0     H33332   4.972   9.304   1.602 -2.8786  1.4919 -1.6657
  988MOL0     H33333   4.951   9.474   1.635  0.8967  1.2880  0.1658
  988MOL0     H33334   5.135   9.287   1.777 -1.2822  0.9613  2.6589
  988MOL0     H33335   5.152   9.477   1.773  2.8267 -1.7459  1.8028
  988MOL0     H33336   5.203   9.441   1.521  1.6258  0.4955  0.0626
  988MOL0     H33337   5.225   9.270   1.559 -1.1051 -0.3789  0.6579
  988MOL0     H33338   5.412   9.354   1.721 -0.1430  0.0343  0.1251
  988MOL0     H33339   5.361   9.513   1.659  0.4571  0.4595 -0.8695
  988MOL0     H33340   5.550   9.594   1.637  2.7719 -4.1538  1.2969
  988MOL0     H33341   5.657   9.783   1.623 -2.8733  0.2818 -1.1596
  988MOL0     H33342   5.815   9.764   1.542 -1.5237 -1.0878 -0.7676
  988MOL0     H33343   5.692   9.879   1.482 -1.4025 -0.3763 -0.0154
  988MOL0     H33344   6.070   9.674   1.041 -0.5075  0.1127  1.0700
  988MOL0     H33345   6.163   9.830   0.865 -1.2372 -0.1582 -2.9697
  988MOL0     H33346   5.979  10.216   0.840  0.2941  2.4901 -0.2961
  988MOL0     H33347   6.125  10.242   0.747  0.1860 -1.2722  1.8799
  988MOL0     H33348   5.880  10.147   0.618 -2.5098  3.2844  0.4956
  988MOL0     H33349   5.944  10.311   0.628  3.4725  0.8477 -0.0612
  988MOL0     H33350   6.086  10.065   0.489  1.2541  0.4692 -2.2809
  988MOL0     H33351   6.147  10.232   0.517  2.1188 -2.3665 -0.0332
  988MOL0     H33352   5.888  10.141   0.358  1.1306 -1.1865 -0.8812
  988MOL0     H33353   5.919  10.304   0.399 -0.5634 -0.6177 -1.6298
  988MOL0     H33354   6.135  10.284   0.280 -1.1572  2.1944  0.8107
  988MOL0     H33355   5.997  10.261   0.180  1.9919  4.2794  1.5514
  988MOL0     H33356   6.218  10.061   0.294 -2.6617  0.2282  3.6803
  988MOL0     H33357   6.062  10.002   0.257  0.6523 -0.9537  1.4781
  988MOL0     H33358   6.187  10.166   0.033 -2.5304  0.9177 -0.5470
  988MOL0     H33359   6.061  10.045   0.023  0.4291 -0.3009  0.3325
  988MOL0     H33360   6.293   9.982  -0.072  0.3341  0.7865 -0.2148
  988MOL0     H33361   6.216   9.875   0.051 -1.5814  1.7265 -1.7521
  988MOL0     H33362   5.818  10.071   0.863  2.0730  0.5769 -2.5632
  988MOL0     H33363   5.707   9.896   0.984 -0.0320  1.6323  0.6193
  988MOL0     H33364   5.645   9.523   1.155  0.5364  2.9370 -0.2261
  988MOL0     H33365   5.513   9.350   1.277 -0.9380  0.7098 -0.0670
  988MOL0     H33366   5.142   9.399   3.094 -1.2100  1.0027 -4.2327
  988MOL0     H33367   5.337   9.393   3.245 -2.1952  0.6378 -1.4179
  988MOL0     H33368   5.758   9.097   3.304 -0.4828  1.0030 -0.5840
  988MOL0     H33369   5.903   9.059   3.455  0.3443  0.2866 -1.9487
  988MOL0     H33370   6.139   9.139   3.526  0.2829 -0.1889 -0.9407
  988MOL0     H33371   6.176   9.316   3.565 -2.5502  2.5532  4.3970
  988MOL0     H33372   6.158   9.105   3.781 -0.7283  1.4199  0.5529
  988MOL0     H33373   6.220   9.272   3.786 -0.8142  1.3732 -1.7579
  988MOL0     H33374   6.412   9.169   3.780 -1.5513 -0.5942  0.7155
  988MOL0     H33375   6.400   9.192   3.606  1.3531 -3.4019 -0.4697
  988MOL0     H33376   6.435   8.970   3.585  0.9301 -0.3750  0.9775
  988MOL0     H33377   6.267   8.948   3.647  1.0626 -0.8967 -2.0418
  988MOL0     H33378   6.529   8.851   3.969  2.4254  3.6862  1.9533
  988MOL0     H33379   5.882   9.444   3.627 -3.8790  0.2593  0.4410
  988MOL0     H33380   5.722   9.517   3.451 -2.0715 -1.0021  2.6298
  989MOL0     O33381   2.372   4.268   7.349  0.2473 -0.0013  0.4551
  989MOL0     C33382   2.334   4.158   7.314 -0.6592  0.5022  0.0361
  989MOL0     O33383   2.221   4.129   7.253 -1.1492  0.2954  0.7612
  989MOL0     C33384   2.133   4.235   7.231  0.9385  0.3704  0.2220
  989MOL0     C33385   2.021   4.245   7.310  0.3722  0.3928 -0.3523
  989MOL0     C33386   1.928   4.353   7.288 -1.1046  0.8004  0.1931
  989MOL0     C33387   1.952   4.448   7.188 -0.2673  0.7546  0.4249
  989MOL0     O33388   1.870   4.548   7.151  0.1877 -1.1487  0.3190
  989MOL0     C33389   1.755   4.581   7.238 -0.0314  0.6062  0.7654
  989MOL0     C33390   1.623   4.505   7.198 -0.7462  0.9738 -0.6344
  989MOL0     C33391   1.552   4.565   7.075 -0.2120 -0.1299  0.0677
  989MOL0     C33392   1.578   4.476   6.948 -0.3449 -0.4024 -0.3896
  989MOL0     C33393   1.506   4.538   6.825  0.1333 -0.1082  0.3074
  989MOL0     C33394   1.543   4.447   6.695 -0.3624 -0.2670 -0.4485
  989MOL0     C33395   1.687   4.448   6.659 -0.8643 -0.0182 -0.3969
  989MOL0     C33396   1.710   4.392   6.526 -0.3537  0.2579 -0.5713
  989MOL0     N33397   1.634   4.446   6.411  0.1231 -0.1879  1.1312
  989MOL0     C33398   1.574   4.575   6.403 -0.6594  0.0554  0.2272
  989MOL0     C33399   1.508   4.574   6.284 -0.9671 -1.0109 -0.2357
  989MOL0     C33400   1.451   4.711   6.226  0.0047  0.9113  0.6613
  989MOL0     C33401   1.311   4.667   6.181 -2.1548 -0.0827 -1.1319
  989MOL0     C33402   1.253   4.788   6.110  1.4892  0.3104  0.6386
  989MOL0     C33403   1.113   4.747   6.046 -0.2584 -0.1738 -0.8682
  989MOL0     O33404   1.013   4.716   6.147  0.2101  0.1651 -0.5240
  989MOL0     C33405   0.982   4.812   6.241 -0.1729  0.7906  0.8536
  989MOL0     C33406   0.967   4.949   6.223  0.3638  0.1970  0.2433
  989MOL0     C33407   0.968   5.043   6.336  0.1200 -0.2943 -0.7683
  989MOL0     C33408   0.970   5.191   6.297 -0.4859 -0.1986 -0.1391
  989MOL0     C33409   0.964   4.996   6.463 -0.1806 -0.4317  0.1363
  989MOL0     C33410   0.944   5.080   6.582 -0.8112 -0.4387  0.5958
  989MOL0     O33411   0.966   5.025   6.705  0.5562  0.2980  0.3334
  989MOL0     C33412   0.953   5.084   6.827 -0.3620 -0.4935 -0.8269
  989MOL0     C33413   0.976   5.221   6.854 -1.1594  0.0370  0.2519
  989MOL0     C33414   0.962   5.264   6.983  0.4853  0.2852 -0.4664
  989MOL0     C33415   0.909   5.183   7.092  0.5991 -0.4190 -0.2675
  989MOL0     O33416   0.868   5.246   7.205 -0.0751  0.1676  0.7037
  989MOL0     C33417   0.890   5.179   7.331 -0.2014  0.9221 -0.8897
  989MOL0     C33418   0.772   5.204   7.428 -0.2518 -0.4913  0.0875
  989MOL0     C33419   0.778   5.104   7.541 -0.8854 -0.6289 -0.4487
  989MOL0     C33420   0.641   5.087   7.606  0.2966 -0.4137 -0.4052
  989MOL0     C33421   0.658   4.954   7.689  0.2866  0.1099  0.3017
  989MOL0     C33422   0.548   4.923   7.784  0.1730 -0.4929  0.4953
  989MOL0     C33423   0.584   4.788   7.859 -0.9719 -0.5014  1.1416
  989MOL0     C33424   0.459   4.739   7.939  0.6411 -0.3607 -0.6731
  989MOL0    Cl33425   0.356   4.624   7.844  0.5678  0.0321 -0.1271
  989MOL0     C33426   0.875   5.062   7.071  0.1751  0.8548  0.2202
  989MOL0     C33427   0.897   5.005   6.943 -0.4943 -0.3460  1.0895
  989MOL0     O33428   0.902   5.195   6.564 -1.2745  0.5221  0.3143
  989MOL0     C33429   0.961   4.859   6.480 -0.2490  0.5311  0.2544
  989MOL0     C33430   0.973   4.770   6.376 -1.5032  0.7109  0.0233
  989MOL0     N33431   1.539   4.455   6.215  0.1454 -0.4127  0.1066
  989MOL0     N33432   1.605   4.372   6.298  0.1781  0.0414  0.8757
  989MOL0     C33433   2.066   4.433   7.108 -0.1959 -0.2150 -0.4390
  989MOL0     C33434   2.163   4.328   7.131 -0.2560  0.3576  0.5636
  989MOL0     C33435   2.441   4.049   7.301 -0.4108  0.7456  0.4373
  989MOL0     C33436   2.576   4.082   7.310  0.2379 -0.6881 -0.2640
  989MOL0     C33437   2.673   3.991   7.255  0.2000 -0.5748 -0.4509
  989MOL0     C33438   2.633   3.874   7.195 -0.8618 -0.0168 -0.9485
  989MOL0     O33439   2.731   3.805   7.126  0.5159 -0.6164 -0.0135
  989MOL0     C33440   2.702   3.676   7.063 -0.1317 -0.3862 -0.5036
  989MOL0     C33441   2.835   3.604   7.030 -0.1808 -0.1491 -0.1090
  989MOL0     C33442   2.917   3.680   6.934 -0.1120 -0.2973 -0.4341
  989MOL0     C33443   3.057   3.619   6.913 -0.2962 -0.1829  0.6945
  989MOL0     C33444   3.052   3.519   6.811  0.0427  1.5725 -0.1573
  989MOL0     C33445   3.050   3.417   6.733  0.2691 -0.2237  0.1755
  989MOL0     C33446   2.500   3.844   7.205 -0.0514 -0.1912 -0.4176
  989MOL0     C33447   2.403   3.925   7.249  0.7420  0.8474 -0.1608
  989MOL0     H33448   2.000   4.166   7.382  0.5823  2.5100  2.1803
  989MOL0     H33449   1.847   4.366   7.359 -0.6631  1.9963  0.5027
  989MOL0     H33450   1.773   4.564   7.344 -3.9504  0.2656  1.5359
  989MOL0     H33451   1.737   4.686   7.214 -2.7338 -0.1511 -1.0314
  989MOL0     H33452   1.649   4.399   7.193  0.0119  1.0889  0.6630
  989MOL0     H33453   1.552   4.513   7.281  2.9345  3.9107  2.5897
  989MOL0     H33454   1.444   4.569   7.093 -0.7830 -3.8246 -1.4593
  989MOL0     H33455   1.591   4.663   7.046 -1.2566 -0.0937 -1.3123
  989MOL0     H33456   1.686   4.467   6.935  0.2715 -0.2464  3.4742
  989MOL0     H33457   1.537   4.376   6.965  0.1482 -0.4573  0.4971
  989MOL0     H33458   1.398   4.545   6.840  0.3400 -0.6050  2.4032
  989MOL0     H33459   1.551   4.635   6.803 -1.3945  0.4541 -0.4997
  989MOL0     H33460   1.515   4.344   6.719  2.6382 -1.0547  0.1619
  989MOL0     H33461   1.479   4.467   6.609 -0.7134 -2.4485 -0.7569
  989MOL0     H33462   1.724   4.551   6.661 -1.4816  0.2458 -1.5606
  989MOL0     H33463   1.751   4.387   6.724 -0.1359 -2.9636 -3.5931
  989MOL0     H33464   1.713   4.282   6.522  1.1732  0.1244  2.0209
  989MOL0     H33465   1.813   4.417   6.500  0.7603 -2.2100  1.1472
  989MOL0     H33466   1.578   4.658   6.472  1.0023  3.1644 -3.2899
  989MOL0     H33467   1.447   4.796   6.294 -1.9003  0.8572  0.6783
  989MOL0     H33468   1.516   4.739   6.142 -3.4089  2.2525 -1.7873
  989MOL0     H33469   1.258   4.644   6.275  2.1707 -1.3832  1.2604
  989MOL0     H33470   1.312   4.587   6.106 -1.3182 -1.1926  0.0068
  989MOL0     H33471   1.320   4.830   6.034  0.6390  1.8232  0.6843
  989MOL0     H33472   1.230   4.878   6.167  0.1751  1.0147 -0.9085
  989MOL0     H33473   1.132   4.656   5.989 -0.4768  2.0701 -4.9200
  989MOL0     H33474   1.074   4.820   5.974 -1.1036  0.0772 -0.1756
  989MOL0     H33475   0.966   4.979   6.119  0.3586  3.3089  1.0528
  989MOL0     H33476   1.050   5.243   6.349 -1.5560  0.3593  0.9905
  989MOL0     H33477   0.983   5.198   6.188 -3.7088  0.8419 -0.5732
  989MOL0     H33478   0.875   5.243   6.313  0.8681  1.5587  2.9701
  989MOL0     H33479   0.997   5.300   6.782 -1.2213  0.0289  0.2248
  989MOL0     H33480   0.978   5.369   7.006 -1.6047 -0.1253  3.7831
  989MOL0     H33481   0.911   5.072   7.318 -2.2126  0.6131 -1.9475
  989MOL0     H33482   0.983   5.202   7.384 -0.6056 -2.2960  1.4794
  989MOL0     H33483   0.785   5.309   7.455  0.1962 -1.0797  2.3458
  989MOL0     H33484   0.674   5.190   7.383 -0.1701  0.1255 -0.2911
  989MOL0     H33485   0.847   5.141   7.617 -0.0199 -3.8807  0.5084
  989MOL0     H33486   0.810   5.007   7.502  1.8799  0.3292 -0.8170
  989MOL0     H33487   0.615   5.169   7.673 -0.9381  0.7352 -2.1983
  989MOL0     H33488   0.553   5.074   7.542 -0.0602  2.6053 -0.6414
  989MOL0     H33489   0.740   4.973   7.759 -0.0964 -0.8419  1.0405
  989MOL0     H33490   0.661   4.866   7.623 -2.9562 -0.5040  0.7924
  989MOL0     H33491   0.523   5.009   7.847 -0.4657 -1.1651  1.1684
  989MOL0     H33492   0.469   4.898   7.712  0.7081  0.5305 -0.4926
  989MOL0     H33493   0.662   4.804   7.935  0.1523  1.3433 -0.3212
  989MOL0     H33494   0.611   4.703   7.796 -2.0094 -1.5595  2.0842
  989MOL0     H33495   0.400   4.827   7.966 -0.4715 -0.0771 -3.6190
  989MOL0     H33496   0.496   4.691   8.030  2.8859  3.2315  0.5604
  989MOL0     H33497   0.832   4.988   7.138  2.5794  1.5425  2.7251
  989MOL0     H33498   0.869   4.901   6.934  0.8220 -0.6576  0.1012
  989MOL0     H33499   0.958   4.807   6.575 -2.7171  2.6509  1.4774
  989MOL0     H33500   1.000   4.665   6.387 -1.5158  0.6794 -0.2240
  989MOL0     H33501   2.067   4.494   7.019 -4.1545  1.1248  0.2227
  989MOL0     H33502   2.249   4.331   7.066  0.1263  2.3910  1.1021
  989MOL0     H33503   2.593   4.181   7.353  0.1753 -0.8004  0.0257
  989MOL0     H33504   2.780   4.008   7.252  1.2628 -5.1587  1.8986
  989MOL0     H33505   2.673   3.606   7.142 -1.1664 -1.3464 -1.7099
  989MOL0     H33506   2.635   3.674   6.977 -1.8254  1.5551  0.6778
  989MOL0     H33507   2.820   3.506   6.983  4.0241 -1.2846  0.4610
  989MOL0     H33508   2.893   3.604   7.123 -0.6203 -0.0836  0.1697
  989MOL0     H33509   2.917   3.784   6.967 -1.0921 -0.6475  0.7301
  989MOL0     H33510   2.874   3.689   6.833 -0.6184  0.6310 -0.1551
  989MOL0     H33511   3.102   3.581   7.005  0.2359  2.3814  1.5663
  989MOL0     H33512   3.122   3.701   6.881  1.5147 -0.7018  2.8012
  989MOL0     H33513   3.049   3.343   6.656 -0.5314 -0.7977  0.7268
  989MOL0     H33514   2.461   3.751   7.164 -1.9281  0.2941  0.1551
  989MOL0     H33515   2.298   3.897   7.252 -0.1015  3.6218 -1.0661
  990MOL0     O33516   3.675   2.979   0.697 -0.5542 -0.5118 -0.3742
  990MOL0     C33517   3.781   3.042   0.712 -0.9612  0.7344  1.0391
  990MOL0     O33518   3.807   3.121   0.813  0.3940  0.2238  0.1649
  990MOL0     C33519   3.713   3.148   0.918  0.2400  0.8069  0.0731
  990MOL0     C33520   3.659   3.034   0.986 -0.2507 -0.1582  0.6123
  990MOL0     C33521   3.589   3.060   1.108  1.0636 -1.2079  0.2305
  990MOL0     C33522   3.580   3.187   1.164 -0.1621  0.0044 -0.2845
  990MOL0     O33523   3.516   3.219   1.287 -0.4494  0.4099 -0.6409
  990MOL0     C33524   3.427   3.118   1.355 -0.7435 -0.2446 -0.2826
  990MOL0     C33525   3.499   3.021   1.442 -0.0610  0.2985 -0.2205
  990MOL0     C33526   3.410   2.954   1.551 -0.7116 -0.5055  0.1865
  990MOL0     C33527   3.508   2.864   1.637  0.7992  0.1840 -0.5251
  990MOL0     C33528   3.432   2.807   1.753 -1.3995 -0.5040  0.1109
  990MOL0     C33529   3.536   2.733   1.854  0.4403  0.5036 -0.2488
  990MOL0     C33530   3.481   2.622   1.953  0.0855  0.1796 -0.5957
  990MOL0     C33531   3.585   2.577   2.048 -0.1890 -0.9055 -0.1575
  990MOL0     N33532   3.532   2.548   2.177 -0.1026 -0.2700 -0.5336
  990MOL0     C33533   3.453   2.639   2.243 -0.0041  0.1739 -0.4561
  990MOL0     C33534   3.398   2.577   2.347  0.2064  0.2883  0.3411
  990MOL0     C33535   3.314   2.640   2.451 -0.3568 -0.1762  0.0561
  990MOL0     C33536   3.375   2.614   2.593 -0.2334 -0.3155  0.3103
  990MOL0     C33537   3.273   2.682   2.699  0.2602 -0.2039 -0.6665
  990MOL0     C33538   3.335   2.710   2.841  0.9422 -0.8529  0.7085
  990MOL0     O33539   3.387   2.602   2.900 -0.7365 -0.2015  0.0142
  990MOL0     C33540   3.456   2.639   3.012  0.2602 -0.1099 -0.5384
  990MOL0     C33541   3.453   2.764   3.073  0.2396  0.7303  0.6600
  990MOL0     C33542   3.519   2.780   3.195  0.1017  0.2964 -0.2249
  990MOL0     C33543   3.506   2.922   3.253 -0.2801  0.8903 -0.1512
  990MOL0     C33544   3.594   2.678   3.253 -0.1830  0.3189  1.9327
  990MOL0     C33545   3.678   2.695   3.375  0.0289 -0.5184  0.2052
  990MOL0     O33546   3.723   2.815   3.408  0.8981  0.6995  1.0715
  990MOL0     C33547   3.766   2.839   3.535  0.1838  0.1215 -0.3158
  990MOL0     C33548   3.677   2.918   3.605  0.1186  0.1820  0.1608
  990MOL0     C33549   3.707   2.963   3.731  0.5787  0.7139  0.4591
  990MOL0     C33550   3.843   2.943   3.767  0.0625  0.2132  0.2228
  990MOL0     O33551   3.888   3.007   3.879  0.6781 -1.0288  0.3825
  990MOL0     C33552   3.804   3.088   3.965 -0.2773  0.5996  0.2241
  990MOL0     C33553   3.885   3.132   4.078 -0.2088 -0.2216 -0.8579
  990MOL0     C33554   3.985   3.245   4.059 -0.4249  0.5840  0.1548
  990MOL0     C33555   4.002   3.308   4.193 -1.5418 -0.3042  0.3328
  990MOL0     C33556   4.101   3.429   4.194  0.3293 -0.6551 -0.6478
  990MOL0     C33557   4.173   3.437   4.322 -0.9112  0.0589 -0.2494
  990MOL0     C33558   4.078   3.490   4.438  0.7756  0.4287  0.6113
  990MOL0     C33559   4.138   3.468   4.576 -0.2282  0.9335 -0.3181
  990MOL0    Cl33560   4.020   3.516   4.690 -0.0758 -0.1453 -0.1498
  990MOL0     C33561   3.932   2.864   3.701  0.0247  0.0500  0.9746
  990MOL0     C33562   3.894   2.815   3.576  0.3517  0.7705  0.0435
  990MOL0     O33563   3.691   2.595   3.450 -0.1344 -0.3901 -0.3531
  990MOL0     C33564   3.599   2.556   3.188  0.2681  1.1604 -0.5319
  990MOL0     C33565   3.527   2.532   3.073  0.6341  0.0339  0.5078
  990MOL0     N33566   3.440   2.448   2.340 -0.4511  0.0733 -0.3737
  990MOL0     N33567   3.514   2.425   2.235  0.1968 -0.5051 -0.1565
  990MOL0     C33568   3.627   3.297   1.094  0.0644 -0.5680  0.3876
  990MOL0     C33569   3.695   3.275   0.970 -0.4598  1.2827 -0.6975
  990MOL0     C33570   3.890   3.028   0.615 -1.0556  0.9833 -0.6562
  990MOL0     C33571   4.020   3.068   0.646 -0.2965  0.2523  0.3258
  990MOL0     C33572   4.122   3.032   0.564  0.9289 -0.7710  0.4495
  990MOL0     C33573   4.103   2.970   0.438 -0.1752 -0.0756  0.3582
  990MOL0     O33574   4.204   2.915   0.356  0.0816 -0.3037 -0.5014
  990MOL0     C33575   4.332   2.953   0.381 -0.7117  0.3155  0.6171
  990MOL0     C33576   4.366   3.099   0.387  1.5046 -1.1252 -0.9319
  990MOL0     C33577   4.427   3.148   0.263  0.0007 -0.7109 -0.4850
  990MOL0     C33578   4.576   3.123   0.248  0.2616 -0.3772 -0.6765
  990MOL0     C33579   4.604   3.113   0.107 -0.6071 -0.5536 -0.1803
  990MOL0     C33580   4.626   3.086  -0.011  0.4840  0.6694 -0.3233
  990MOL0     C33581   3.968   2.941   0.402 -0.5530  0.9205  0.0730
  990MOL0     C33582   3.864   2.967   0.493 -0.4812  0.7907 -0.0962
  990MOL0     H33583   3.697   2.939   0.950  1.5205  0.0970  1.6824
  990MOL0     H33584   3.546   2.976   1.161  1.3191 -1.1820  0.4797
  990MOL0     H33585   3.364   3.177   1.422 -0.9013 -0.8861  0.1333
  990MOL0     H33586   3.359   3.059   1.293 -0.5118 -4.5358  3.1463
  990MOL0     H33587   3.554   2.948   1.382  2.1008  1.7571 -0.1354
  990MOL0     H33588   3.574   3.074   1.501  0.2070  1.3177 -1.4317
  990MOL0     H33589   3.378   3.037   1.616 -1.2622 -1.4386  1.1381
  990MOL0     H33590   3.317   2.909   1.516 -0.8904  0.4294 -0.6121
  990MOL0     H33591   3.531   2.786   1.564 -1.4791 -1.2868  0.2057
  990MOL0     H33592   3.594   2.922   1.671 -0.2103  0.8841  0.9118
  990MOL0     H33593   3.391   2.888   1.814 -1.4211 -0.0724 -0.4729
  990MOL0     H33594   3.351   2.741   1.723 -2.8684  0.5774  1.4978
  990MOL0     H33595   3.613   2.689   1.789  0.2818  0.5558 -0.4755
  990MOL0     H33596   3.588   2.807   1.915  1.0499  0.5092 -0.7600
  990MOL0     H33597   3.397   2.668   2.004  1.4355  0.3645  1.5665
  990MOL0     H33598   3.434   2.539   1.899  0.3557 -1.4273  1.5201
  990MOL0     H33599   3.658   2.657   2.063 -3.1236  1.5605  2.2500
  990MOL0     H33600   3.617   2.485   1.998 -1.3768 -0.3799 -1.9807
  990MOL0     H33601   3.434   2.743   2.217 -0.6626  0.2981  0.4769
  990MOL0     H33602   3.304   2.746   2.427  5.7305  1.0774  1.4894
  990MOL0     H33603   3.221   2.582   2.449  0.6598 -1.9686  1.6595
  990MOL0     H33604   3.466   2.675   2.603 -0.4856  0.0291  0.5562
  990MOL0     H33605   3.391   2.509   2.616  2.6936  0.1272  0.6055
  990MOL0     H33606   3.184   2.621   2.722  1.4069 -2.1226 -1.1317
  990MOL0     H33607   3.237   2.780   2.665 -2.3135 -0.5052  0.8536
  990MOL0     H33608   3.248   2.745   2.898 -1.8632 -2.8397 -2.0209
  990MOL0     H33609   3.403   2.795   2.831  1.7470 -1.2574  2.4527
  990MOL0     H33610   3.412   2.851   3.022 -0.2528 -0.4337 -1.0569
  990MOL0     H33611   3.612   2.951   3.252  0.6636 -2.0068 -2.8361
  990MOL0     H33612   3.449   3.001   3.203 -0.7156  0.6690 -0.0087
  990MOL0     H33613   3.469   2.924   3.356 -1.7024  0.0866 -0.6239
  990MOL0     H33614   3.577   2.932   3.565 -0.6298 -0.6749  1.6343
  990MOL0     H33615   3.644   3.020   3.798  0.7334  1.3582  0.0681
  990MOL0     H33616   3.762   3.170   3.906  1.3655  0.6236 -0.9952
  990MOL0     H33617   3.718   3.033   4.004  0.6380 -0.2292  1.1372
  990MOL0     H33618   3.814   3.155   4.158 -2.4519 -0.0180 -2.8009
  990MOL0     H33619   3.943   3.051   4.125 -2.8448 -1.7177  0.0054
  990MOL0     H33620   3.946   3.317   3.987 -1.0014  0.1965  0.0736
  990MOL0     H33621   4.079   3.200   4.025 -0.3408 -0.6466  1.8461
  990MOL0     H33622   3.905   3.343   4.229 -1.7774  1.5574 -1.9081
  990MOL0     H33623   4.033   3.219   4.249 -2.5459 -2.6906 -2.6166
  990MOL0     H33624   4.055   3.524   4.166  1.0736 -0.4500 -1.2057
  990MOL0     H33625   4.165   3.429   4.106  1.2142 -0.3996 -0.0182
  990MOL0     H33626   4.216   3.341   4.353  3.2830  2.3453  1.7991
  990MOL0     H33627   4.249   3.512   4.303 -0.5603 -0.1807  0.1825
  990MOL0     H33628   3.977   3.448   4.435  0.0638  2.1154 -0.7100
  990MOL0     H33629   4.054   3.595   4.419 -1.1537  0.4659  2.8526
  990MOL0     H33630   4.234   3.521   4.578  0.0663  0.4106  1.1560
  990MOL0     H33631   4.147   3.361   4.597  0.4914  1.2279  0.9890
  990MOL0     H33632   4.022   2.840   3.756 -0.6577 -5.3125  0.3111
  990MOL0     H33633   3.961   2.753   3.518  1.2354  0.3817  1.4191
  990MOL0     H33634   3.655   2.479   3.241 -2.1374 -0.4481 -0.1439
  990MOL0     H33635   3.508   2.441   3.017 -0.1798  2.1449 -2.9441
  990MOL0     H33636   3.618   3.393   1.146 -1.6333 -1.8345  2.6335
  990MOL0     H33637   3.752   3.357   0.927 -0.7668  0.9704 -1.7196
  990MOL0     H33638   4.036   3.109   0.746 -1.8696 -0.1228  0.7612
  990MOL0     H33639   4.221   3.063   0.596  0.1068  3.1762 -0.3469
  990MOL0     H33640   4.351   2.909   0.480 -2.3171  0.3931  0.9944
  990MOL0     H33641   4.395   2.904   0.306 -1.0040  0.9631 -0.0582
  990MOL0     H33642   4.424   3.118   0.478 -1.2263  2.1744  0.3203
  990MOL0     H33643   4.275   3.151   0.416  2.9831  0.2466  1.5883
  990MOL0     H33644   4.402   3.254   0.255  1.6380 -0.2579  0.0466
  990MOL0     H33645   4.366   3.095   0.188 -3.9215  0.8996  1.2759
  990MOL0     H33646   4.602   3.029   0.296 -1.5051 -0.5759 -0.0625
  990MOL0     H33647   4.642   3.198   0.294  0.8197  0.7130 -3.0272
  990MOL0     H33648   4.659   3.056  -0.108 -0.1511 -0.0712 -0.3144
  990MOL0     H33649   3.946   2.901   0.304  0.1301  0.1808  0.2081
  990MOL0     H33650   3.764   2.937   0.463  0.4236 -2.0913 -0.4455
  991MOL0     O33651   3.069   8.223  11.029 -0.2828  0.1478  0.0322
  991MOL0     C33652   3.088   8.300  10.934 -0.9540 -0.1924  0.6753
  991MOL0     O33653   3.110   8.431  10.948 -0.0655 -0.0799 -0.1417
  991MOL0     C33654   3.034   8.517  11.030 -0.0095 -0.2128  0.0144
  991MOL0     C33655   2.923   8.472  11.105 -0.7757  0.3328  1.0111
  991MOL0     C33656   2.843   8.559  11.179  0.1121 -0.0449 -0.1722
  991MOL0     C33657   2.875   8.694  11.179 -0.5858 -0.1942 -0.6882
  991MOL0     O33658   2.804   8.795  11.240 -0.1225 -1.0214 -0.4151
  991MOL0     C33659   2.672   8.807  11.185 -0.7658 -0.0519 -0.6537
  991MOL0     C33660   2.619   8.948  11.212  1.5502  0.5424 -0.6254
  991MOL0     C33661   2.668   9.067  11.127 -1.3520  0.0808  0.0162
  991MOL0     C33662   2.819   9.083  11.143 -0.7544  0.2150 -0.4498
  991MOL0     C33663   2.855   9.221  11.116 -0.2802 -0.7977 -0.3632
  991MOL0     C33664   2.842   9.259  10.971 -0.5419  0.0364  0.7938
  991MOL0     C33665   2.975   9.262  10.902 -0.3177  0.0897  0.2486
  991MOL0     C33666   2.985   9.161  10.784 -0.2867 -0.3997  0.4475
  991MOL0     N33667   3.120   9.141  10.743 -0.5089 -0.6376 -0.9474
  991MOL0     C33668   3.217   9.059  10.798  0.6353 -0.3439 -0.6830
  991MOL0     C33669   3.326   9.089  10.723  0.2970 -0.2148  0.4651
  991MOL0     C33670   3.465   9.037  10.742  0.1459  0.6583 -0.6763
  991MOL0     C33671   3.521   9.070  10.880 -0.5849  0.0610 -0.6571
  991MOL0     C33672   3.673   9.101  10.879  0.5422  0.3167 -0.4087
  991MOL0     C33673   3.761   8.983  10.842 -0.2551  0.0719  0.4950
  991MOL0     O33674   3.758   8.874  10.937 -0.8636  0.3123 -0.1635
  991MOL0     C33675   3.860   8.779  10.941  0.3098 -0.2488 -0.4638
  991MOL0     C33676   3.922   8.764  11.066  0.3613 -0.1792  0.0121
  991MOL0     C33677   4.030   8.681  11.088  0.5051  0.0099  0.3457
  991MOL0     C33678   4.068   8.658  11.229 -0.1120  0.0776  0.2053
  991MOL0     C33679   4.092   8.615  10.980  0.0920 -0.4490  0.1182
  991MOL0     C33680   4.194   8.506  10.985  0.2340  0.4965  1.1668
  991MOL0     O33681   4.194   8.422  11.083 -0.1517 -0.2816 -0.1289
  991MOL0     C33682   4.261   8.302  11.097 -0.1268  0.2585  0.6549
  991MOL0     C33683   4.262   8.269  11.234 -0.5373 -0.0845 -0.1351
  991MOL0     C33684   4.283   8.136  11.270 -0.9263  0.1388  0.5517
  991MOL0     C33685   4.326   8.042  11.182  0.5159  0.1549 -0.5192
  991MOL0     O33686   4.367   7.920  11.231  0.9359 -0.2978  0.2447
  991MOL0     C33687   4.328   7.808  11.147 -0.2105  0.5860 -0.4751
  991MOL0     C33688   4.362   7.683  11.218  0.2168 -0.3704  0.2611
  991MOL0     C33689   4.260   7.639  11.313  0.6387 -0.0980 -0.6714
  991MOL0     C33690   4.128   7.586  11.260 -1.1735  0.4543  0.5528
  991MOL0     C33691   4.024   7.537  11.360 -0.1548 -0.0848  0.1485
  991MOL0     C33692   3.894   7.500  11.295 -0.4670  0.5394 -0.6676
  991MOL0     C33693   3.778   7.490  11.401  0.4637  0.3709 -0.4111
  991MOL0     C33694   3.682   7.379  11.366  0.2694 -0.5633 -0.6622
  991MOL0    Cl33695   3.614   7.407  11.203  0.4898 -0.8675  0.5253
  991MOL0     C33696   4.363   8.083  11.054  0.0437  0.1576  0.6810
  991MOL0     C33697   4.319   8.210  11.004  0.4945  0.2335 -0.1160
  991MOL0     O33698   4.283   8.514  10.900  0.0509 -0.4687  0.7749
  991MOL0     C33699   4.024   8.633  10.851 -0.8471  0.1515 -0.6366
  991MOL0     C33700   3.914   8.713  10.832 -0.8114 -0.0238 -0.2429
  991MOL0     N33701   3.299   9.170  10.613  0.2527  0.0615 -0.2120
  991MOL0     N33702   3.174   9.197  10.630  0.4816 -0.6206  0.2047
  991MOL0     C33703   2.985   8.745  11.121  0.6520  0.0210  0.0748
  991MOL0     C33704   3.063   8.651  11.046  1.3370  0.9708  0.0287
  991MOL0     C33705   3.066   8.243  10.801  0.0603 -0.2671  0.6827
  991MOL0     C33706   3.025   8.112  10.767 -0.1046 -0.9711  0.9086
  991MOL0     C33707   3.000   8.082  10.625  0.5428 -0.1386 -0.1940
  991MOL0     C33708   3.035   8.164  10.526  0.1985 -1.8261  0.6136
  991MOL0     O33709   2.995   8.125  10.398 -0.2985  0.2648 -0.8798
  991MOL0     C33710   2.986   8.220  10.298 -0.2122 -0.3271  0.1137
  991MOL0     C33711   2.863   8.312  10.293 -0.0388  0.4530  0.1381
  991MOL0     C33712   2.831   8.343  10.137 -0.3377  0.3336  0.6642
  991MOL0     C33713   2.766   8.218  10.065  0.4377  0.3065  0.0186
  991MOL0     C33714   2.806   8.193   9.925  0.7879  0.2132  1.1857
  991MOL0     C33715   2.827   8.175   9.806 -0.0689 -0.1771 -0.1212
  991MOL0     C33716   3.080   8.296  10.565 -1.3719  0.1829  0.3433
  991MOL0     C33717   3.097   8.330  10.691  0.0829 -0.1637 -1.1112
  991MOL0     H33718   2.904   8.365  11.096  5.6447 -1.1743  1.1469
  991MOL0     H33719   2.756   8.519  11.229 -1.2062  1.6016 -1.0647
  991MOL0     H33720   2.687   8.800  11.077 -0.0037  2.6440 -0.8038
  991MOL0     H33721   2.611   8.730  11.233 -0.5502  2.3924  4.2087
  991MOL0     H33722   2.510   8.943  11.202  1.4919  0.2477  0.0881
  991MOL0     H33723   2.624   8.966  11.320 -5.1711  1.0218  0.0415
  991MOL0     H33724   2.651   9.033  11.025  0.7915 -3.0526  0.5552
  991MOL0     H33725   2.618   9.163  11.142 -1.4219 -0.1129  1.0982
  991MOL0     H33726   2.852   9.060  11.245 -0.4566  0.5671 -0.4649
  991MOL0     H33727   2.885   9.029  11.074  3.6782  2.2422  1.7352
  991MOL0     H33728   2.797   9.284  11.185  0.7360 -0.4314  0.1870
  991MOL0     H33729   2.955   9.247  11.152  0.9690 -1.9762 -2.7879
  991MOL0     H33730   2.787   9.182  10.917  3.2535  0.7996 -5.0448
  991MOL0     H33731   2.803   9.361  10.956  1.8865  0.6389 -2.4905
  991MOL0     H33732   2.995   9.360  10.858  1.6459 -0.6453 -0.6717
  991MOL0     H33733   3.062   9.228  10.960  0.2918 -0.2084 -0.8095
  991MOL0     H33734   2.930   9.203  10.700  0.4016  0.8919  0.6213
  991MOL0     H33735   2.938   9.067  10.816 -3.3261  1.2851  1.3047
  991MOL0     H33736   3.210   8.990  10.882 -1.7749  2.0754  1.2891
  991MOL0     H33737   3.461   8.928  10.739 -0.3961  0.5836  1.4990
  991MOL0     H33738   3.526   9.083  10.663  1.9104  0.0119  0.2672
  991MOL0     H33739   3.496   8.986  10.947 -0.5416  0.8039  0.3094
  991MOL0     H33740   3.475   9.164  10.911  1.1521  0.9383 -0.6120
  991MOL0     H33741   3.715   9.135  10.974  0.5352 -2.5879  0.7430
  991MOL0     H33742   3.682   9.178  10.803 -0.1182  0.8034  0.0010
  991MOL0     H33743   3.861   9.027  10.838  1.0231 -2.4866  1.5737
  991MOL0     H33744   3.732   8.935  10.748 -0.4414  1.0842  0.0221
  991MOL0     H33745   3.873   8.802  11.155  0.5525 -1.8405  0.8691
  991MOL0     H33746   4.169   8.697  11.248  0.8932 -2.1442 -0.2395
  991MOL0     H33747   3.993   8.705  11.293 -2.9396 -0.5689 -2.3904
  991MOL0     H33748   4.091   8.552  11.239  2.2583  0.2903 -1.8335
  991MOL0     H33749   4.233   8.334  11.316 -1.2022 -1.1268  0.4741
  991MOL0     H33750   4.262   8.111  11.374  0.9775 -0.4658  0.8348
  991MOL0     H33751   4.228   7.824  11.105 -1.1631  0.0789  1.4769
  991MOL0     H33752   4.396   7.814  11.062 -0.0969 -0.5793 -0.4793
  991MOL0     H33753   4.368   7.596  11.151  1.0538 -1.3657  1.5664
  991MOL0     H33754   4.461   7.709  11.255 -0.8318  0.5654  2.6297
  991MOL0     H33755   4.237   7.711  11.391  3.0583 -0.0454  0.0861
  991MOL0     H33756   4.304   7.559  11.374 -1.3306 -0.5631  0.2261
  991MOL0     H33757   4.076   7.672  11.217  0.5861  1.7382  0.8726
  991MOL0     H33758   4.141   7.502  11.192 -0.2400  0.3841  0.8060
  991MOL0     H33759   3.997   7.617  11.430 -0.1482 -1.0380  1.2653
  991MOL0     H33760   4.058   7.448  11.414 -4.2041 -1.7232  0.3369
  991MOL0     H33761   3.861   7.567  11.215 -1.2384 -2.0709 -2.6526
  991MOL0     H33762   3.910   7.398  11.260  1.3875  1.5739 -3.1018
  991MOL0     H33763   3.728   7.586  11.414  0.3644  0.0419  2.3951
  991MOL0     H33764   3.819   7.464  11.500 -2.9093  0.5283  1.1559
  991MOL0     H33765   3.604   7.382  11.443  0.1980 -0.5915 -0.7345
  991MOL0     H33766   3.743   7.289  11.380 -1.2959 -1.6251 -0.3855
  991MOL0     H33767   4.417   8.013  10.992  0.5487  1.3007 -0.2227
  991MOL0     H33768   4.327   8.220  10.896  1.9400  1.5191  0.0609
  991MOL0     H33769   4.052   8.570  10.768 -0.2533  2.9171 -2.6889
  991MOL0     H33770   3.856   8.703  10.741 -0.2053 -1.1267 -0.5243
  991MOL0     H33771   3.019   8.845  11.143 -1.3170  0.4374  1.5112
  991MOL0     H33772   3.150   8.686  10.990  2.6167  0.2194  1.4703
  991MOL0     H33773   2.993   8.033  10.834 -2.5899 -1.6353 -0.9325
  991MOL0     H33774   2.961   7.988  10.589  0.9283 -1.3204  2.2791
  991MOL0     H33775   3.084   8.269  10.302 -0.0489 -0.6676  0.3291
  991MOL0     H33776   2.980   8.156  10.209  2.3519 -0.4665 -0.0347
  991MOL0     H33777   2.870   8.404  10.352 -1.8762  2.6075 -2.7029
  991MOL0     H33778   2.779   8.263  10.342  0.0792  1.9808  1.9711
  991MOL0     H33779   2.923   8.366  10.082 -1.6638  1.7049 -1.1352
  991MOL0     H33780   2.768   8.431  10.118  1.4008  1.5892  0.4899
  991MOL0     H33781   2.658   8.235  10.069  0.5762  1.4751 -0.9102
  991MOL0     H33782   2.780   8.122  10.116 -0.5966 -0.4036 -0.9909
  991MOL0     H33783   2.857   8.167   9.703 -1.1917  0.6173 -0.5237
  991MOL0     H33784   3.096   8.368  10.486 -2.8495 -2.4592 -2.6041
  991MOL0     H33785   3.139   8.427  10.714  0.5492 -0.6533  0.2141
  992MOL0     O33786   3.406   0.650   9.705 -0.0993  0.2213 -0.1106
  992MOL0     C33787   3.428   0.765   9.741 -1.2455  0.7134 -0.5894
  992MOL0     O33788   3.492   0.854   9.658  0.5690 -0.6065 -0.3175
  992MOL0     C33789   3.508   0.820   9.527 -1.0329 -0.4540 -0.0641
  992MOL0     C33790   3.591   0.717   9.479 -0.6191  0.1773  1.5351
  992MOL0     C33791   3.593   0.680   9.342  0.7520  0.1739 -0.2720
  992MOL0     C33792   3.496   0.729   9.255 -0.0759  0.0120  0.3371
  992MOL0     O33793   3.459   0.660   9.148  0.0964  0.1666  0.5132
  992MOL0     C33794   3.491   0.756   9.034 -0.5020  0.4600  0.1425
  992MOL0     C33795   3.444   0.698   8.896 -0.2033  0.7838 -0.0972
  992MOL0     C33796   3.487   0.802   8.787  0.1316 -0.0449  0.0875
  992MOL0     C33797   3.464   0.741   8.648  0.8364  1.1005  0.7514
  992MOL0     C33798   3.323   0.772   8.593  0.2568  0.4011  0.9866
  992MOL0     C33799   3.324   0.927   8.556 -0.3435 -0.8658  0.7703
  992MOL0     C33800   3.181   0.969   8.520  0.5824  0.3580  1.2401
  992MOL0     C33801   3.134   0.943   8.379  0.2553 -1.0578  0.0615
  992MOL0     N33802   3.013   1.026   8.365 -0.3290  0.0395  0.2409
  992MOL0     C33803   2.906   1.039   8.452  0.3720 -0.1858  0.0466
  992MOL0     C33804   2.839   1.145   8.399 -0.4200 -0.0039  0.2151
  992MOL0     C33805   2.719   1.218   8.466 -0.1734 -0.0954  0.2430
  992MOL0     C33806   2.767   1.366   8.492  0.5506 -0.1476  0.2640
  992MOL0     C33807   2.830   1.386   8.636  0.9064  0.1518  0.4466
  992MOL0     C33808   2.846   1.536   8.663  0.6116 -0.2110 -0.0610
  992MOL0     O33809   2.938   1.582   8.569  0.1440  0.3031  0.1444
  992MOL0     C33810   3.034   1.687   8.592 -0.3873 -0.4286 -0.1941
  992MOL0     C33811   3.019   1.771   8.700  0.0389  0.2724 -0.6539
  992MOL0     C33812   3.106   1.878   8.728 -0.6842 -0.0826  0.0804
  992MOL0     C33813   3.066   1.964   8.840 -1.2597  0.1682 -0.3610
  992MOL0     C33814   3.225   1.883   8.663  0.3826  0.0974  0.1078
  992MOL0     C33815   3.323   1.991   8.688 -0.5453 -0.3688  0.6412
  992MOL0     O33816   3.452   1.941   8.691  0.6500 -0.9514  0.7346
  992MOL0     C33817   3.554   2.028   8.696 -0.3413  0.0337 -0.6942
  992MOL0     C33818   3.629   2.030   8.822  0.6421 -0.2955  0.5951
  992MOL0     C33819   3.719   2.136   8.842  0.4277  0.0915 -0.8513
  992MOL0     C33820   3.745   2.232   8.738  0.6758 -0.2155 -0.1866
  992MOL0     O33821   3.805   2.351   8.749  0.0832  0.2346 -0.2465
  992MOL0     C33822   3.800   2.419   8.878 -0.8894 -0.4725 -0.3516
  992MOL0     C33823   3.934   2.388   8.963  0.2221  0.2240  0.7049
  992MOL0     C33824   4.065   2.402   8.889 -0.0149 -0.2051  0.6613
  992MOL0     C33825   4.169   2.397   8.998  1.1160  0.1720 -0.1554
  992MOL0     C33826   4.315   2.385   8.947  0.0990  0.3557 -0.8473
  992MOL0     C33827   4.404   2.376   9.073  0.3975 -0.9012 -0.8658
  992MOL0     C33828   4.552   2.391   9.018  0.0285  0.4906 -1.1448
  992MOL0     C33829   4.617   2.249   8.985  1.1151  0.4738  0.4649
  992MOL0    Cl33830   4.668   2.246   8.813 -0.0762  0.2751 -0.3220
  992MOL0     C33831   3.700   2.201   8.611 -0.2053  0.2444 -0.1846
  992MOL0     C33832   3.599   2.107   8.595  0.4881  0.0449 -0.2907
  992MOL0     O33833   3.293   2.106   8.675  0.3606  0.3383  0.1030
  992MOL0     C33834   3.246   1.804   8.550  0.7505 -0.4459 -0.3671
  992MOL0     C33835   3.151   1.713   8.513 -0.4839  0.0309 -0.4084
  992MOL0     N33836   2.897   1.191   8.276  0.3033 -0.0940  0.1175
  992MOL0     N33837   2.994   1.110   8.254 -0.7225 -1.0695  0.8863
  992MOL0     C33838   3.418   0.841   9.300  0.2241 -0.7859  0.3142
  992MOL0     C33839   3.425   0.885   9.435  0.6944  0.8136  0.5322
  992MOL0     C33840   3.401   0.800   9.887 -0.0754  1.1064 -0.1612
  992MOL0     C33841   3.397   0.698   9.979  0.2657  0.7038  0.4979
  992MOL0     C33842   3.383   0.724  10.111  0.0914  0.4330 -0.3549
  992MOL0     C33843   3.356   0.852  10.164  0.3319 -0.1461  0.5197
  992MOL0     O33844   3.321   0.874  10.290  0.2724  0.1791  0.4650
  992MOL0     C33845   3.358   0.786  10.397 -0.4704  0.2467  0.1681
  992MOL0     C33846   3.365   0.870  10.525 -0.8424 -0.6773 -0.2698
  992MOL0     C33847   3.479   0.970  10.518 -0.1618 -0.1373  0.0584
  992MOL0     C33848   3.527   1.027  10.648 -0.0696 -0.2972 -1.1604
  992MOL0     C33849   3.416   1.102  10.711 -0.0512  0.0434  1.1136
  992MOL0     C33850   3.313   1.152  10.742 -0.1435 -0.5685 -0.7998
  992MOL0     C33851   3.338   0.954  10.069 -0.6997  0.0980  0.1752
  992MOL0     C33852   3.375   0.929   9.932 -0.8503 -0.0704 -0.5245
  992MOL0     H33853   3.659   0.668   9.548  1.9992 -1.8364 -2.1229
  992MOL0     H33854   3.661   0.600   9.314 -1.6197 -2.4627  1.0001
  992MOL0     H33855   3.461   0.860   9.051  0.5192  0.4023  2.7363
  992MOL0     H33856   3.601   0.760   9.036 -0.3639 -1.5987 -0.8816
  992MOL0     H33857   3.477   0.597   8.869 -3.8586 -0.0653 -2.1713
  992MOL0     H33858   3.334   0.700   8.898 -0.2922 -0.6548 -1.4679
  992MOL0     H33859   3.429   0.892   8.807 -0.2687 -0.1817 -0.4410
  992MOL0     H33860   3.591   0.836   8.787 -0.7469  3.4478 -3.6801
  992MOL0     H33861   3.539   0.775   8.576  1.3679  1.1003  1.2953
  992MOL0     H33862   3.477   0.633   8.650  2.2207  1.2273 -0.0703
  992MOL0     H33863   3.305   0.715   8.501  1.6515  0.5012  0.6215
  992MOL0     H33864   3.241   0.731   8.651 -1.7822  1.8607 -0.7223
  992MOL0     H33865   3.351   0.997   8.635 -0.0170 -1.3216  1.0629
  992MOL0     H33866   3.382   0.943   8.465 -0.3698  4.3862  1.4169
  992MOL0     H33867   3.114   0.917   8.590 -0.9412  1.4598  0.6357
  992MOL0     H33868   3.152   1.072   8.537 -1.5594 -0.0930  0.5645
  992MOL0     H33869   3.117   0.836   8.369 -5.7752 -0.3358 -0.7560
  992MOL0     H33870   3.212   0.983   8.312 -2.2579  5.0330  0.0696
  992MOL0     H33871   2.897   1.004   8.555 -1.8327  1.1897  0.3821
  992MOL0     H33872   2.626   1.218   8.408 -0.1054 -1.1026  0.1113
  992MOL0     H33873   2.690   1.169   8.559  1.9300  2.0889  2.1806
  992MOL0     H33874   2.684   1.436   8.501  1.4944  1.0846 -0.3794
  992MOL0     H33875   2.832   1.402   8.412  2.1458 -0.1553  1.4801
  992MOL0     H33876   2.922   1.329   8.623  1.8929  2.1636 -2.6127
  992MOL0     H33877   2.764   1.344   8.712  0.1596  0.5188  0.0176
  992MOL0     H33878   2.877   1.550   8.767  1.7576 -1.6176 -0.1774
  992MOL0     H33879   2.749   1.583   8.645  2.0419  2.2755 -1.8820
  992MOL0     H33880   2.930   1.776   8.762 -2.2735 -1.5815 -3.5436
  992MOL0     H33881   2.985   1.926   8.902  0.7865 -2.3143  0.9967
  992MOL0     H33882   3.154   1.986   8.901 -1.1222 -0.7870 -0.2018
  992MOL0     H33883   3.038   2.059   8.793  1.3467  1.2550  0.0826
  992MOL0     H33884   3.615   1.964   8.906 -0.9190  0.2774  0.8191
  992MOL0     H33885   3.763   2.155   8.939 -0.3439 -0.4833 -0.3727
  992MOL0     H33886   3.799   2.527   8.860  0.9176  0.2685  3.1895
  992MOL0     H33887   3.705   2.395   8.925 -0.9500  1.5235  0.6622
  992MOL0     H33888   3.937   2.440   9.059 -1.8313  0.0537  0.9063
  992MOL0     H33889   3.926   2.283   8.995 -0.6311 -0.6467 -2.0465
  992MOL0     H33890   4.078   2.497   8.835 -0.2303 -0.4482  0.1810
  992MOL0     H33891   4.070   2.321   8.816 -1.1764 -2.2499  2.7023
  992MOL0     H33892   4.151   2.487   9.058 -2.6236  0.6800 -1.7491
  992MOL0     H33893   4.142   2.307   9.055  1.7421 -0.1178 -0.3063
  992MOL0     H33894   4.335   2.470   8.880  0.9617  1.3588  0.6064
  992MOL0     H33895   4.329   2.289   8.897 -1.9643 -0.5997  0.2865
  992MOL0     H33896   4.371   2.455   9.141 -0.8393 -1.9501 -0.2106
  992MOL0     H33897   4.393   2.282   9.127  3.3770 -0.3917  0.8654
  992MOL0     H33898   4.610   2.443   9.095 -0.1076  0.6348 -1.1402
  992MOL0     H33899   4.563   2.456   8.931 -0.8243  4.6669  1.5696
  992MOL0     H33900   4.537   2.176   8.999 -0.2069  2.1529  2.2018
  992MOL0     H33901   4.697   2.225   9.056  0.5234  1.7543  1.6129
  992MOL0     H33902   3.716   2.270   8.528  1.2563  1.2126  0.8498
  992MOL0     H33903   3.557   2.087   8.497  0.0774  0.9077 -0.3070
  992MOL0     H33904   3.338   1.819   8.494  0.6266 -0.5599 -0.6025
  992MOL0     H33905   3.169   1.654   8.424  0.5697 -0.7058  0.2778
  992MOL0     H33906   3.348   0.895   9.237  0.8562 -0.7235 -0.3497
  992MOL0     H33907   3.358   0.958   9.480  0.8252  1.0177  0.3959
  992MOL0     H33908   3.431   0.599   9.951 -1.1061  1.5322 -5.4266
  992MOL0     H33909   3.400   0.630  10.162 -3.5360  0.3679  0.9774
  992MOL0     H33910   3.288   0.702  10.402 -1.1402  0.7823  0.0437
  992MOL0     H33911   3.455   0.743  10.373 -1.1562 -1.1263 -0.2679
  992MOL0     H33912   3.380   0.813  10.618 -1.8611  1.9785  1.6592
  992MOL0     H33913   3.283   0.942  10.536  1.7689  2.9391 -2.2990
  992MOL0     H33914   3.448   1.052  10.452  0.5931 -0.5947 -0.8972
  992MOL0     H33915   3.565   0.922  10.469  2.0586  0.3301  3.2182
  992MOL0     H33916   3.617   1.088  10.633  0.2437 -0.3702  0.2619
  992MOL0     H33917   3.572   0.953  10.716  0.4178 -0.0417 -1.1972
  992MOL0     H33918   3.212   1.186  10.753  0.0443 -0.3201  0.3904
  992MOL0     H33919   3.307   1.056  10.090 -2.6540 -0.6449  1.1562
  992MOL0     H33920   3.376   1.014   9.864 -3.2849  1.6266  1.3807
  993MOL0     O33921   9.381   6.068   6.336 -0.0550  0.4857 -0.2113
  993MOL0     C33922   9.421   5.948   6.308  0.1770  0.2009 -0.2342
  993MOL0     O33923   9.542   5.892   6.338 -0.9808 -0.0274 -0.5164
  993MOL0     C33924   9.638   5.970   6.413 -0.1183  0.1070  0.6482
  993MOL0     C33925   9.730   5.890   6.472  0.0961  0.0156  0.6604
  993MOL0     C33926   9.835   5.952   6.534  0.5047 -0.0518  0.7232
  993MOL0     C33927   9.824   6.087   6.568 -0.2880  0.4500 -0.1483
  993MOL0     O33928   9.929   6.132   6.644 -0.6858  0.3300  0.7712
  993MOL0     C33929   9.915   6.252   6.708 -0.4371  0.4856 -0.4172
  993MOL0     C33930  10.040   6.271   6.789  0.6394 -0.4510 -0.0781
  993MOL0     C33931  10.168   6.300   6.703 -1.5814 -0.3487  0.0063
  993MOL0     C33932  10.285   6.213   6.746 -0.1732 -0.6855 -0.1961
  993MOL0     C33933  10.314   6.198   6.901  0.0032  0.5342  0.2461
  993MOL0     C33934  10.351   6.327   6.978  1.5334 -0.5831 -0.0009
  993MOL0     C33935  10.408   6.292   7.114 -0.1838  0.1266 -0.2065
  993MOL0     C33936  10.551   6.247   7.112  0.3053  0.1495 -0.1926
  993MOL0     N33937  10.573   6.150   7.228  0.2103  0.1634  0.3002
  993MOL0     C33938  10.611   6.015   7.219 -0.0096  1.0527 -0.0474
  993MOL0     C33939  10.677   5.986   7.332  0.9908  0.6708 -0.7991
  993MOL0     C33940  10.755   5.857   7.354  1.4360  0.8131  0.7436
  993MOL0     C33941  10.906   5.897   7.342 -0.7160 -0.0960 -0.2472
  993MOL0     C33942  11.013   5.789   7.354  0.4314  0.1018  1.1463
  993MOL0     C33943  11.147   5.832   7.407  0.4646  0.0919  0.7887
  993MOL0     O33944  11.237   5.720   7.410 -0.3184  0.2407  0.4491
  993MOL0     C33945  11.355   5.746   7.471  0.5157 -1.2753 -0.5763
  993MOL0     C33946  11.363   5.797   7.595  0.0900 -0.0494  0.6318
  993MOL0     C33947  11.491   5.809   7.651  0.6114 -1.1592 -0.7860
  993MOL0     C33948  11.502   5.869   7.789  1.1482 -0.5995  0.5139
  993MOL0     C33949  11.609   5.763   7.592 -0.0607 -0.3613 -0.0280
  993MOL0     C33950  11.754   5.794   7.633 -0.1016  1.0357  0.8148
  993MOL0     O33951  11.762   5.834   7.754 -0.4922  0.3636  0.4763
  993MOL0     C33952  11.879   5.875   7.803 -0.1543 -0.3122  0.2713
  993MOL0     C33953  11.994   5.791   7.815 -0.4227 -0.8210 -0.2222
  993MOL0     C33954  12.109   5.827   7.885  1.0416  0.7369  1.1475
  993MOL0     C33955  12.110   5.945   7.950 -0.4365  0.3954 -0.4990
  993MOL0     O33956  12.206   5.971   8.045 -0.5510  0.9494 -0.3576
  993MOL0     C33957  12.169   5.922   8.174  0.2262 -1.2232  0.1776
  993MOL0     C33958  12.274   5.946   8.274 -0.8242  0.0198 -0.5603
  993MOL0     C33959  12.407   5.860   8.273 -0.7454  0.1685 -0.0184
  993MOL0     C33960  12.448   5.802   8.134  0.3728 -0.2074  0.0678
  993MOL0     C33961  12.537   5.687   8.155 -1.0050 -0.1192  0.4126
  993MOL0     C33962  12.609   5.636   8.027 -0.2799  0.1161  0.7880
  993MOL0     C33963  12.610   5.487   8.004 -0.1066  0.5822 -0.2239
  993MOL0     C33964  12.703   5.417   8.107 -0.2094  0.4938 -0.3353
  993MOL0    Cl33965  12.864   5.471   8.109  0.0183  0.4737 -0.1594
  993MOL0     C33966  12.009   6.039   7.937  0.6363 -0.8435 -0.3928
  993MOL0     C33967  11.896   6.011   7.853 -1.1805  0.1326 -0.1316
  993MOL0     O33968  11.844   5.746   7.566 -0.0279 -0.0643 -0.4510
  993MOL0     C33969  11.592   5.693   7.465 -0.7868 -0.9533  0.6853
  993MOL0     C33970  11.466   5.681   7.414  1.1626 -0.0448  0.2104
  993MOL0     N33971  10.680   6.108   7.420  0.2240 -0.2819 -0.1197
  993MOL0     N33972  10.614   6.200   7.353 -0.3440  0.4664 -0.0927
  993MOL0     C33973   9.739   6.170   6.493  0.8664 -0.0043  1.3791
  993MOL0     C33974   9.646   6.105   6.414 -0.3203 -0.1927  1.5169
  993MOL0     C33975   9.345   5.875   6.203  0.3259 -0.7742 -0.8986
  993MOL0     C33976   9.382   5.743   6.163 -1.2787  0.1321  0.1308
  993MOL0     C33977   9.309   5.681   6.061 -0.7735 -0.3863  0.4082
  993MOL0     C33978   9.198   5.740   6.003 -0.3807  0.3581 -0.0190
  993MOL0     O33979   9.150   5.673   5.889 -0.0834  0.8710  0.0292
  993MOL0     C33980   9.011   5.644   5.903 -0.2179  0.5274 -0.0923
  993MOL0     C33981   8.969   5.597   5.762 -0.0009  0.4137 -0.4810
  993MOL0     C33982   9.006   5.456   5.722 -0.8169 -0.0990 -0.0144
  993MOL0     C33983   9.153   5.425   5.717 -0.3361 -0.2369 -0.2869
  993MOL0     C33984   9.168   5.294   5.647  1.2081 -2.0198 -0.9302
  993MOL0     C33985   9.206   5.185   5.609  0.1929 -0.0803 -0.3607
  993MOL0     C33986   9.168   5.875   6.036  0.2750 -0.0718 -1.0252
  993MOL0     C33987   9.229   5.931   6.145 -0.7683 -0.1370 -0.4605
  993MOL0     H33988   9.730   5.782   6.468 -0.1401  0.0407 -0.0480
  993MOL0     H33989   9.928   5.913   6.574  1.4610  2.1193  0.7465
  993MOL0     H33990   9.904   6.334   6.636  0.3624 -0.5729 -1.7875
  993MOL0     H33991   9.829   6.248   6.776  0.2500  3.5068  0.7711
  993MOL0     H33992  10.016   6.359   6.849  1.9834 -0.8342  1.0731
  993MOL0     H33993  10.050   6.200   6.872  0.3205  0.4167  0.7055
  993MOL0     H33994  10.166   6.305   6.593  0.6362  0.4436 -0.0466
  993MOL0     H33995  10.195   6.404   6.722 -1.5983 -0.0227 -1.6085
  993MOL0     H33996  10.256   6.117   6.704  0.0822 -0.6749 -0.3935
  993MOL0     H33997  10.378   6.246   6.698  1.6609 -1.4752  2.5489
  993MOL0     H33998  10.231   6.143   6.946 -0.1273  0.5235 -0.0078
  993MOL0     H33999  10.402   6.132   6.902  0.1446  0.7206  0.0961
  993MOL0     H34000  10.416   6.391   6.917 -1.2044 -0.3722 -2.9869
  993MOL0     H34001  10.259   6.383   6.998  2.7649  2.1862 -1.4275
  993MOL0     H34002  10.391   6.387   7.166 -1.5059  2.5147 -4.4235
  993MOL0     H34003  10.351   6.209   7.156  2.2739 -1.8418 -0.5570
  993MOL0     H34004  10.604   6.337   7.141  0.6211  0.3450 -1.3101
  993MOL0     H34005  10.573   6.207   7.012 -3.3075  0.8179 -1.3973
  993MOL0     H34006  10.598   5.949   7.134  3.0676  1.0342 -0.6525
  993MOL0     H34007  10.720   5.814   7.448 -0.2952 -0.5363 -0.4464
  993MOL0     H34008  10.733   5.779   7.280  1.1909 -0.9473  2.5959
  993MOL0     H34009  10.915   5.970   7.422  6.1705 -2.2399  1.6287
  993MOL0     H34010  10.933   5.934   7.242  1.3214 -3.6665 -1.2111
  993MOL0     H34011  11.019   5.732   7.261 -0.2723  2.2710 -0.3133
  993MOL0     H34012  10.965   5.716   7.420 -4.3719  1.6754 -0.1559
  993MOL0     H34013  11.127   5.882   7.502  0.3782  2.4425 -0.4050
  993MOL0     H34014  11.199   5.908   7.349  2.5197 -2.7937 -1.5032
  993MOL0     H34015  11.269   5.828   7.638  0.3946  0.3800  0.9983
  993MOL0     H34016  11.542   5.800   7.864  0.4456  0.0310  1.4966
  993MOL0     H34017  11.537   5.971   7.804  0.7002  0.1157 -2.7011
  993MOL0     H34018  11.403   5.892   7.829 -0.0463 -3.0033 -0.8121
  993MOL0     H34019  11.977   5.685   7.794  0.2339 -0.7636 -1.0931
  993MOL0     H34020  12.190   5.758   7.907  0.9867  1.3321  3.5545
  993MOL0     H34021  12.084   5.986   8.202 -1.3996 -1.7482 -3.0347
  993MOL0     H34022  12.145   5.816   8.165  1.2314 -1.4134 -0.3768
  993MOL0     H34023  12.307   6.050   8.269 -0.6401  0.0262  0.5582
  993MOL0     H34024  12.238   5.927   8.376 -0.0818 -1.1991 -0.5004
  993MOL0     H34025  12.386   5.773   8.336 -1.9581  3.0269  3.9351
  993MOL0     H34026  12.488   5.915   8.321  1.3661 -1.9959 -0.9282
  993MOL0     H34027  12.361   5.764   8.080  0.6540 -2.3101  0.9708
  993MOL0     H34028  12.496   5.882   8.077 -1.1314  0.8228  0.1775
  993MOL0     H34029  12.477   5.600   8.183  2.1279 -2.5066  0.2522
  993MOL0     H34030  12.611   5.715   8.230 -1.2467  3.3135 -0.4335
  993MOL0     H34031  12.555   5.671   7.938  1.4852  1.7396  0.2798
  993MOL0     H34032  12.708   5.684   8.026 -0.0052 -0.3170 -2.4759
  993MOL0     H34033  12.650   5.463   7.905 -2.6790  1.8672 -1.6845
  993MOL0     H34034  12.506   5.453   8.016 -0.5256  1.7867 -0.3331
  993MOL0     H34035  12.714   5.309   8.093  0.4861  0.8932 -3.5015
  993MOL0     H34036  12.668   5.438   8.209  1.3674  0.4544  0.2484
  993MOL0     H34037  12.011   6.131   7.994 -0.8714  1.7262 -4.1054
  993MOL0     H34038  11.814   6.081   7.862 -1.0428  0.7969 -3.1252
  993MOL0     H34039  11.673   5.654   7.404 -0.4218 -1.5199  1.5112
  993MOL0     H34040  11.450   5.633   7.318 -0.8537 -1.3805  1.1525
  993MOL0     H34041   9.733   6.278   6.504 -0.4497  0.2638 -1.1563
  993MOL0     H34042   9.595   6.155   6.332  1.3934 -0.5097  0.2026
  993MOL0     H34043   9.471   5.699   6.206 -0.9107  1.1745  0.4912
  993MOL0     H34044   9.335   5.579   6.032 -2.2745 -0.6957  0.0781
  993MOL0     H34045   8.997   5.556   5.967 -2.6321  2.4933  2.3160
  993MOL0     H34046   8.942   5.719   5.941 -2.0186  0.0078 -2.1137
  993MOL0     H34047   8.999   5.670   5.686  1.6799  2.1691  1.7222
  993MOL0     H34048   8.860   5.596   5.756 -0.2724  0.3278  2.9288
  993MOL0     H34049   8.961   5.461   5.622 -1.4482  1.7295  0.3248
  993MOL0     H34050   8.946   5.377   5.768 -1.5626 -0.1270 -0.9997
  993MOL0     H34051   9.207   5.406   5.810 -1.8347 -1.4343  0.3878
  993MOL0     H34052   9.207   5.508   5.670 -0.5001 -1.0858 -2.0511
  993MOL0     H34053   9.227   5.082   5.590 -1.1577 -0.9881  2.5012
  993MOL0     H34054   9.095   5.934   5.982 -1.0495  0.8461  1.6249
  993MOL0     H34055   9.187   6.022   6.187 -2.5096 -0.8768 -0.5236
  994MOL0     O34056   5.067   1.726   4.461 -1.0946  0.0905 -0.1253
  994MOL0     C34057   5.013   1.703   4.562  0.3382  0.5139 -0.9127
  994MOL0     O34058   4.874   1.691   4.577  0.2958  0.3118 -0.1617
  994MOL0     C34059   4.791   1.722   4.471  0.5085 -0.8385  0.0339
  994MOL0     C34060   4.811   1.678   4.342 -0.5930  0.9648 -0.4450
  994MOL0     C34061   4.733   1.734   4.243 -0.3785 -0.5204  0.2123
  994MOL0     C34062   4.630   1.823   4.271 -0.3620  0.0374 -0.1376
  994MOL0     O34063   4.540   1.861   4.170  0.0815  0.2448  0.3242
  994MOL0     C34064   4.596   1.944   4.065 -0.6149 -0.0150 -0.3618
  994MOL0     C34065   4.533   1.908   3.935  0.5071  0.6130 -0.5400
  994MOL0     C34066   4.386   1.966   3.931 -0.3379  0.6761 -0.5642
  994MOL0     C34067   4.328   1.917   3.798  0.6306 -0.3264 -0.1323
  994MOL0     C34068   4.176   1.890   3.821 -0.4831 -0.2421  0.2326
  994MOL0     C34069   4.119   1.825   3.693  0.2445  0.5990  0.5103
  994MOL0     C34070   3.997   1.729   3.731 -1.2294 -0.4314 -0.4368
  994MOL0     C34071   3.908   1.687   3.610 -0.0653  0.3865 -0.6347
  994MOL0     N34072   3.770   1.669   3.638  0.6276 -0.3055  0.3410
  994MOL0     C34073   3.730   1.561   3.705 -0.4094 -0.1376  0.0337
  994MOL0     C34074   3.603   1.582   3.725 -0.1144 -0.9387  0.0143
  994MOL0     C34075   3.514   1.495   3.803 -0.6058 -0.4410  0.1201
  994MOL0     C34076   3.518   1.514   3.946 -0.3300  0.6910  0.0045
  994MOL0     C34077   3.454   1.393   4.013 -0.1711  0.9781 -0.0160
  994MOL0     C34078   3.326   1.343   3.946  0.1095 -0.6412 -0.1080
  994MOL0     O34079   3.238   1.456   3.950 -0.1135 -0.4074  0.2274
  994MOL0     C34080   3.109   1.434   3.914 -0.4837 -0.5416  0.8989
  994MOL0     C34081   3.078   1.346   3.808  0.3426 -1.5486  0.2523
  994MOL0     C34082   2.945   1.337   3.767 -0.2977 -0.2590 -0.1881
  994MOL0     C34083   2.921   1.229   3.663 -0.0687 -0.4781 -0.1030
  994MOL0     C34084   2.845   1.416   3.831  0.1078 -1.4316  0.9295
  994MOL0     C34085   2.707   1.419   3.771 -0.1307  0.0441 -0.6106
  994MOL0     O34086   2.608   1.445   3.866  0.1256  0.1472  0.0402
  994MOL0     C34087   2.504   1.516   3.814  0.5123  0.8117 -0.1527
  994MOL0     C34088   2.378   1.452   3.793 -0.3448 -0.3827 -0.4550
  994MOL0     C34089   2.276   1.523   3.745  0.4191 -0.0928  0.4684
  994MOL0     C34090   2.270   1.661   3.724 -0.6022 -0.2213  0.6746
  994MOL0     O34091   2.156   1.730   3.688  0.4685 -0.5207  0.0850
  994MOL0     C34092   2.165   1.876   3.673  0.6155  0.2961 -0.5845
  994MOL0     C34093   2.018   1.927   3.628 -0.5787  1.0156 -0.2875
  994MOL0     C34094   1.907   1.873   3.719 -0.4161  0.1094  1.2212
  994MOL0     C34095   1.797   1.967   3.687 -0.5496 -0.3499 -0.1739
  994MOL0     C34096   1.720   1.911   3.567 -0.7748 -0.7502 -0.4151
  994MOL0     C34097   1.584   1.980   3.534 -0.0628  0.2944  0.3253
  994MOL0     C34098   1.486   1.889   3.456  0.2038  0.6984 -0.3963
  994MOL0     C34099   1.341   1.945   3.474  0.4412  0.6107  0.2102
  994MOL0    Cl34100   1.332   2.119   3.430 -0.1551 -0.8007  0.0511
  994MOL0     C34101   2.398   1.719   3.735 -0.0697 -0.0606  0.9110
  994MOL0     C34102   2.513   1.644   3.777 -0.4321  0.0967  0.3221
  994MOL0     O34103   2.695   1.406   3.649 -0.5916  0.7081  0.5276
  994MOL0     C34104   2.875   1.511   3.933 -0.9530  0.7815  0.0942
  994MOL0     C34105   3.011   1.516   3.962 -0.5595 -0.7296 -0.9879
  994MOL0     N34106   3.562   1.696   3.652 -0.1049  0.9385 -0.2836
  994MOL0     N34107   3.662   1.749   3.607 -0.2144 -0.6195  0.1394
  994MOL0     C34108   4.620   1.878   4.402  0.8616 -0.2513 -0.1094
  994MOL0     C34109   4.699   1.823   4.507 -0.0503  1.1670 -0.1560
  994MOL0     C34110   5.091   1.668   4.678  0.1261  0.5978  0.3503
  994MOL0     C34111   5.226   1.687   4.687  0.4308  0.3684 -0.0606
  994MOL0     C34112   5.299   1.688   4.806 -1.0018 -0.4885  0.1145
  994MOL0     C34113   5.234   1.658   4.933  1.1232  0.4894  0.3292
  994MOL0     O34114   5.277   1.643   5.060  0.2484 -0.4202 -0.5433
  994MOL0     C34115   5.415   1.591   5.056  0.9696 -0.3959 -0.0035
  994MOL0     C34116   5.452   1.560   5.192  0.2197 -0.4457 -0.2574
  994MOL0     C34117   5.606   1.565   5.222  0.7295 -0.6751 -0.6743
  994MOL0     C34118   5.683   1.475   5.132 -0.8538 -0.3311  0.8457
  994MOL0     C34119   5.727   1.533   5.005  0.4519 -0.8212 -0.2228
  994MOL0     C34120   5.754   1.582   4.898  1.0741  0.2909 -0.3926
  994MOL0     C34121   5.100   1.616   4.919 -0.0107  0.2965  0.4295
  994MOL0     C34122   5.027   1.622   4.796 -0.5866  0.3295  0.4463
  994MOL0     H34123   4.884   1.606   4.308 -2.8568 -2.2243  0.9846
  994MOL0     H34124   4.734   1.705   4.139 -0.1436 -0.7591  0.2782
  994MOL0     H34125   4.589   2.054   4.068 -3.5740 -0.0071 -2.3808
  994MOL0     H34126   4.703   1.924   4.069 -0.4972  0.7447  1.2159
  994MOL0     H34127   4.583   1.957   3.851  0.6534 -1.2096 -1.5581
  994MOL0     H34128   4.536   1.800   3.918 -0.0130  1.0190 -4.0403
  994MOL0     H34129   4.334   1.924   4.018  1.9417 -3.3787 -0.8883
  994MOL0     H34130   4.384   2.073   3.949  0.2286  0.5559  0.2796
  994MOL0     H34131   4.350   1.990   3.719  2.3661 -1.1767 -0.4910
  994MOL0     H34132   4.372   1.819   3.778 -0.6560 -0.4744 -2.5644
  994MOL0     H34133   4.170   1.816   3.901 -0.8278 -1.3778 -0.7986
  994MOL0     H34134   4.128   1.985   3.845  1.6223  2.0825 -3.6755
  994MOL0     H34135   4.099   1.908   3.624  2.8020  2.9733  2.4276
  994MOL0     H34136   4.188   1.753   3.648 -1.4481 -1.2125  0.6846
  994MOL0     H34137   4.056   1.646   3.772 -0.3122  1.0431  1.3795
  994MOL0     H34138   3.932   1.766   3.811  1.5280 -1.9364  2.7748
  994MOL0     H34139   3.951   1.598   3.563  0.9263  1.8525 -2.6909
  994MOL0     H34140   3.907   1.760   3.528  0.0549 -1.0806 -1.9841
  994MOL0     H34141   3.791   1.476   3.733 -1.8388 -1.3793 -0.5013
  994MOL0     H34142   3.415   1.517   3.763 -0.7239  0.3288  0.8120
  994MOL0     H34143   3.544   1.394   3.772 -0.4854  0.0150 -1.3325
  994MOL0     H34144   3.472   1.610   3.971 -0.4344  0.6859 -0.1687
  994MOL0     H34145   3.619   1.507   3.988 -1.4997 -3.2973  2.6536
  994MOL0     H34146   3.422   1.421   4.114 -0.3381  3.1297 -0.6026
  994MOL0     H34147   3.524   1.309   4.016 -1.2911  0.0428  1.5612
  994MOL0     H34148   3.278   1.265   4.005  1.0131  1.5671  3.9249
  994MOL0     H34149   3.341   1.310   3.843  1.4346 -0.5107  0.0156
  994MOL0     H34150   3.162   1.297   3.760  1.6505  2.2479 -1.7897
  994MOL0     H34151   2.901   1.280   3.567  1.3080  0.0464 -0.1320
  994MOL0     H34152   3.014   1.174   3.652  1.6036  2.3384 -1.3069
  994MOL0     H34153   2.835   1.166   3.686 -0.1205 -1.5286 -2.7491
  994MOL0     H34154   2.351   1.352   3.826 -0.8490 -0.8370 -2.1374
  994MOL0     H34155   2.179   1.475   3.735  0.8453 -0.8648 -0.0831
  994MOL0     H34156   2.178   1.919   3.772 -1.7864 -1.5793  0.6714
  994MOL0     H34157   2.247   1.912   3.610  0.8695 -0.1815 -0.5296
  994MOL0     H34158   2.030   2.036   3.625 -1.5768  1.1196 -1.0535
  994MOL0     H34159   1.995   1.877   3.533 -0.9385 -1.5788  1.0909
  994MOL0     H34160   1.933   1.886   3.825 -0.4443 -0.2428  1.2737
  994MOL0     H34161   1.880   1.768   3.706  0.8836 -0.1120  0.0235
  994MOL0     H34162   1.718   1.970   3.763  0.8019  1.8947  1.2634
  994MOL0     H34163   1.838   2.068   3.683 -0.6156 -0.3641 -1.4117
  994MOL0     H34164   1.707   1.803   3.582 -2.2393 -0.3414  1.8313
  994MOL0     H34165   1.777   1.935   3.476 -2.1930 -0.5167 -1.2823
  994MOL0     H34166   1.541   2.011   3.630 -0.8889  2.6654 -0.7507
  994MOL0     H34167   1.598   2.077   3.486  0.7975 -0.1240 -0.3028
  994MOL0     H34168   1.500   1.784   3.483  1.8719  0.9324 -0.2193
  994MOL0     H34169   1.511   1.907   3.351 -2.5188  1.4557 -0.9741
  994MOL0     H34170   1.321   1.922   3.579 -0.9284 -3.8372 -0.8204
  994MOL0     H34171   1.274   1.897   3.403 -1.4697  2.4650  0.6351
  994MOL0     H34172   2.417   1.826   3.728  1.7528 -0.1682  2.9177
  994MOL0     H34173   2.603   1.702   3.793 -0.2353  0.0309 -0.5052
  994MOL0     H34174   2.807   1.586   3.972 -0.6602  1.6123 -0.9519
  994MOL0     H34175   3.057   1.588   4.029  2.8928 -6.3533  3.6414
  994MOL0     H34176   4.560   1.967   4.417  0.7920  0.1889 -2.5574
  994MOL0     H34177   4.674   1.861   4.605 -0.6904  1.2393 -0.3455
  994MOL0     H34178   5.282   1.727   4.603 -2.7115  3.2647 -1.0181
  994MOL0     H34179   5.402   1.721   4.816 -1.3740  0.2728  2.0543
  994MOL0     H34180   5.448   1.503   5.000  2.8309 -1.8913  3.1673
  994MOL0     H34181   5.487   1.668   5.026  1.0601 -0.9764 -1.3715
  994MOL0     H34182   5.415   1.458   5.210 -0.5910  0.2424  2.5584
  994MOL0     H34183   5.395   1.610   5.271  1.6161 -3.0179  2.6193
  994MOL0     H34184   5.622   1.531   5.325 -4.5510 -0.1940  0.5993
  994MOL0     H34185   5.648   1.666   5.223 -0.5963 -0.0336  2.3423
  994MOL0     H34186   5.618   1.390   5.108  0.0377 -0.7015 -0.3392
  994MOL0     H34187   5.773   1.441   5.184  0.5998  3.8633  1.4477
  994MOL0     H34188   5.752   1.620   4.798 -1.1858  0.6153 -0.2724
  994MOL0     H34189   5.046   1.580   5.007  1.3408  0.3014  1.2981
  994MOL0     H34190   4.923   1.592   4.791 -0.0822 -1.3715 -3.2445
  995MOL0     O34191   0.260  10.812   3.106 -0.0636 -0.2295  0.3756
  995MOL0     C34192   0.235  10.694   3.099 -0.9320 -0.6154  1.3150
  995MOL0     O34193   0.243  10.610   3.211 -0.6036 -0.6585 -0.6105
  995MOL0     C34194   0.276  10.652   3.341 -1.0569  0.1891  0.0913
  995MOL0     C34195   0.334  10.771   3.392  0.2195  1.0196  0.0410
  995MOL0     C34196   0.355  10.776   3.527 -0.7028 -0.9375 -1.7858
  995MOL0     C34197   0.322  10.671   3.616 -0.4555 -1.1909  0.8849
  995MOL0     O34198   0.354  10.669   3.749 -0.4393  0.1503 -0.8139
  995MOL0     C34199   0.362  10.792   3.814  1.3538  0.4349 -0.0953
  995MOL0     C34200   0.381  10.747   3.959  0.3179 -0.3015 -0.2878
  995MOL0     C34201   0.262  10.668   4.015 -0.6198 -0.4345 -0.0780
  995MOL0     C34202   0.294  10.637   4.160  0.0934  0.3204  0.5274
  995MOL0     C34203   0.169  10.577   4.234 -1.1114 -0.7469  0.5535
  995MOL0     C34204   0.170  10.570   4.380  0.3451 -0.1832  0.5979
  995MOL0     C34205   0.283  10.474   4.418  0.4670 -0.4097  0.5308
  995MOL0     C34206   0.303  10.456   4.568  0.4449 -0.0821  0.1185
  995MOL0     N34207   0.421  10.372   4.586 -0.0449 -0.2809  0.4007
  995MOL0     C34208   0.419  10.230   4.609  0.4320 -0.6216  0.2201
  995MOL0     C34209   0.550  10.207   4.647 -0.3807  1.1128  0.4746
  995MOL0     C34210   0.608  10.083   4.704  0.0255 -0.2037 -0.2890
  995MOL0     C34211   0.759  10.060   4.664  0.5085  0.3939 -0.2511
  995MOL0     C34212   0.809   9.935   4.745 -0.6908 -0.1677 -0.4606
  995MOL0     C34213   0.913   9.855   4.658  0.0735 -0.4073  0.1980
  995MOL0     O34214   0.855   9.749   4.577 -0.3816 -0.5633 -0.0833
  995MOL0     C34215   0.944   9.671   4.508 -0.4253 -0.0655  0.3013
  995MOL0     C34216   0.890   9.556   4.448  0.3965  0.0159 -0.7925
  995MOL0     C34217   0.964   9.484   4.354  0.4092 -0.2408 -0.2665
  995MOL0     C34218   0.887   9.390   4.267  0.9179 -0.2658 -0.1255
  995MOL0     C34219   1.095   9.513   4.308  0.1135 -0.0270  0.2862
  995MOL0     C34220   1.179   9.450   4.202 -0.2670  0.1488 -0.1583
  995MOL0     O34221   1.295   9.510   4.168 -0.8622  0.9401  0.6063
  995MOL0     C34222   1.395   9.440   4.098  0.5416 -0.2999 -0.7374
  995MOL0     C34223   1.473   9.513   4.012 -0.1512 -0.1329 -0.0021
  995MOL0     C34224   1.563   9.450   3.925 -0.4473  0.3858 -0.4839
  995MOL0     C34225   1.598   9.323   3.940 -0.0582  0.0151  0.4065
  995MOL0     O34226   1.686   9.274   3.848 -0.5766  0.0722 -0.4871
  995MOL0     C34227   1.650   9.146   3.791  0.2688 -0.7042  0.0847
  995MOL0     C34228   1.718   9.027   3.857 -0.4664 -0.0536 -0.1455
  995MOL0     C34229   1.774   8.909   3.774 -0.8119 -0.1502 -0.0520
  995MOL0     C34230   1.864   8.806   3.847  0.0349 -0.0034  0.3807
  995MOL0     C34231   1.894   8.686   3.761 -0.7504 -0.2859  0.9277
  995MOL0     C34232   2.001   8.596   3.813 -0.9630  0.2635 -0.3818
  995MOL0     C34233   1.995   8.460   3.726  0.9705  0.1082 -0.0716
  995MOL0     C34234   2.075   8.351   3.820  1.0763 -0.7148  0.0863
  995MOL0    Cl34235   2.104   8.222   3.700  0.3435 -0.4791  0.0951
  995MOL0     C34236   1.545   9.253   4.045  0.7006 -0.2673 -0.6702
  995MOL0     C34237   1.441   9.305   4.117 -0.0943 -0.7263 -0.5541
  995MOL0     O34238   1.137   9.352   4.151 -0.3056 -0.1386 -0.1143
  995MOL0     C34239   1.141   9.624   4.382 -0.8289  0.0846  0.2523
  995MOL0     C34240   1.084   9.702   4.479  1.3518  0.2081 -0.5929
  995MOL0     N34241   0.614  10.322   4.640  0.7271 -0.2618 -0.1045
  995MOL0     N34242   0.542  10.420   4.612  0.4075 -0.7701  0.0114
  995MOL0     C34243   0.278  10.551   3.564  0.2313  1.0000 -1.6114
  995MOL0     C34244   0.253  10.539   3.428  0.1933 -0.0268  0.7435
  995MOL0     C34245   0.179  10.642   2.970  0.7121  0.6500 -0.2412
  995MOL0     C34246   0.159  10.725   2.860  0.8983 -0.1162  0.9206
  995MOL0     C34247   0.110  10.681   2.732  0.6830 -0.2048 -0.3449
  995MOL0     C34248   0.089  10.543   2.706 -0.7078  0.4241  0.8414
  995MOL0     O34249   0.027  10.492   2.597 -0.1202  0.9652  0.0838
  995MOL0     C34250  -0.035  10.580   2.501 -0.0472 -0.0109 -0.4763
  995MOL0     C34251  -0.063  10.502   2.365 -0.6173 -0.6203  0.6067
  995MOL0     C34252  -0.167  10.389   2.388  0.2347 -0.1105 -0.9727
  995MOL0     C34253  -0.314  10.437   2.385  0.0147  0.8410 -1.2175
  995MOL0     C34254  -0.389  10.321   2.436  0.5211 -0.1841 -0.1208
  995MOL0     C34255  -0.450  10.217   2.460  0.1930  1.1965 -0.2821
  995MOL0     C34256   0.116  10.455   2.817  0.6201  0.1370 -0.4235
  995MOL0     C34257   0.158  10.508   2.947 -0.4499 -0.5198  1.2227
  995MOL0     H34258   0.349  10.854   3.324  1.5468 -1.3834 -2.8334
  995MOL0     H34259   0.375  10.874   3.567 -4.6045 -0.5788 -0.3799
  995MOL0     H34260   0.443  10.859   3.783  1.1435  1.0924  0.7127
  995MOL0     H34261   0.272  10.854   3.811  0.6303 -0.6379 -1.4483
  995MOL0     H34262   0.472  10.686   3.959  0.8655  0.4357 -2.6500
  995MOL0     H34263   0.399  10.833   4.024 -3.2994 -1.3374  2.4472
  995MOL0     H34264   0.174  10.733   4.008  0.0517  0.4862 -0.2562
  995MOL0     H34265   0.249  10.583   3.947  4.5392 -2.8746  1.4626
  995MOL0     H34266   0.387  10.579   4.170  0.0527  0.5758  2.8457
  995MOL0     H34267   0.308  10.736   4.203 -0.3914  0.7955 -0.3649
  995MOL0     H34268   0.086  10.643   4.206 -0.2788 -0.5426 -1.6360
  995MOL0     H34269   0.145  10.480   4.190  0.9854 -0.8954 -0.4057
  995MOL0     H34270   0.179  10.673   4.415 -0.8379  0.3428 -0.5151
  995MOL0     H34271   0.069  10.542   4.411  0.4323 -1.8823 -0.5221
  995MOL0     H34272   0.280  10.381   4.360 -0.5005  1.3174 -2.4329
  995MOL0     H34273   0.379  10.512   4.381  0.5890 -0.9278  0.3069
  995MOL0     H34274   0.214  10.407   4.610 -4.1712  3.8729 -3.8613
  995MOL0     H34275   0.304  10.550   4.623 -0.7700 -1.0587  1.9350
  995MOL0     H34276   0.336  10.161   4.596  0.8224 -0.8583 -1.2402
  995MOL0     H34277   0.612  10.093   4.813  0.8263  0.5994 -0.3777
  995MOL0     H34278   0.550   9.995   4.676 -0.1630  0.1137 -0.9054
  995MOL0     H34279   0.816  10.144   4.706 -0.7886  0.3696  1.6514
  995MOL0     H34280   0.765  10.050   4.555  1.5161 -0.0906 -0.1639
  995MOL0     H34281   0.723   9.868   4.759 -0.2665 -0.5685  0.2638
  995MOL0     H34282   0.857   9.959   4.840 -1.1624 -3.5831  0.7949
  995MOL0     H34283   0.981   9.807   4.729  0.0910  0.7003  0.9506
  995MOL0     H34284   0.971   9.917   4.590 -1.5848 -0.5954 -1.4488
  995MOL0     H34285   0.788   9.543   4.483  1.2674  0.5244  2.1793
  995MOL0     H34286   0.917   9.285   4.270  1.3206 -0.2039 -1.3293
  995MOL0     H34287   0.780   9.393   4.291  0.7542 -0.6485 -0.7857
  995MOL0     H34288   0.885   9.429   4.164 -0.6768 -0.6696 -0.2734
  995MOL0     H34289   1.445   9.615   3.991 -0.3978 -0.5897 -2.1084
  995MOL0     H34290   1.595   9.520   3.849 -0.3919 -1.9037 -2.6797
  995MOL0     H34291   1.542   9.138   3.774  0.4383 -1.2071 -0.8534
  995MOL0     H34292   1.694   9.149   3.691 -0.5688  1.1690 -0.2703
  995MOL0     H34293   1.805   9.064   3.913  0.8816 -2.7080 -0.2977
  995MOL0     H34294   1.645   8.988   3.929  0.0115 -1.7751 -0.5276
  995MOL0     H34295   1.838   8.947   3.695 -2.6312  1.0491 -1.0241
  995MOL0     H34296   1.693   8.851   3.729 -0.9485 -1.2751  1.5457
  995MOL0     H34297   1.955   8.847   3.890  1.4572 -2.1187 -0.4338
  995MOL0     H34298   1.810   8.773   3.936  0.6214 -1.8243  0.1040
  995MOL0     H34299   1.921   8.710   3.657 -0.8759  0.1756  0.9993
  995MOL0     H34300   1.796   8.640   3.769 -1.3089  1.1313  2.7118
  995MOL0     H34301   2.103   8.630   3.794  1.3890 -4.3219  2.3210
  995MOL0     H34302   1.976   8.578   3.918 -0.1418  0.6732 -0.1068
  995MOL0     H34303   2.052   8.486   3.637  1.8425  0.1774  0.4880
  995MOL0     H34304   1.897   8.424   3.694  1.5579 -0.6875 -1.0224
  995MOL0     H34305   2.013   8.312   3.900  2.2266 -1.1611  0.7848
  995MOL0     H34306   2.165   8.395   3.865  1.4717 -3.8397  2.7194
  995MOL0     H34307   1.594   9.157   4.061  1.9140  0.2127 -1.3483
  995MOL0     H34308   1.401   9.248   4.200  2.7359 -1.2225  0.5899
  995MOL0     H34309   1.243   9.660   4.376 -0.9461  0.9212  2.3367
  995MOL0     H34310   1.147   9.782   4.517 -0.4357  0.8466  1.1637
  995MOL0     H34311   0.248  10.479   3.639  2.6940  0.2298 -1.2595
  995MOL0     H34312   0.218  10.447   3.383 -0.5278  1.0540 -1.0067
  995MOL0     H34313   0.182  10.828   2.881  4.9936 -0.0031 -2.7417
  995MOL0     H34314   0.088  10.757   2.657 -0.3524  0.5891  0.7255
  995MOL0     H34315  -0.128  10.625   2.537  0.3331 -0.2667  0.8936
  995MOL0     H34316   0.034  10.657   2.468 -1.0859  0.3588 -1.8749
  995MOL0     H34317   0.027  10.461   2.320 -0.1333  3.6322 -2.8955
  995MOL0     H34318  -0.106  10.561   2.284  0.3035 -1.0083 -0.1781
  995MOL0     H34319  -0.154  10.366   2.494 -2.2119  5.4588  0.9268
  995MOL0     H34320  -0.149  10.302   2.324 -4.4446 -1.1125 -1.2855
  995MOL0     H34321  -0.341  10.457   2.281  0.8506  3.1540 -1.0480
  995MOL0     H34322  -0.341  10.520   2.450  2.9204  1.1347 -0.2381
  995MOL0     H34323  -0.494  10.119   2.462 -1.1537  1.7931 -0.1164
  995MOL0     H34324   0.083  10.352   2.805 -0.9427  0.7751 -2.0942
  995MOL0     H34325   0.159  10.435   3.027 -1.8276 -1.8475  0.0940
  996MOL0     O34326   2.708   0.948   1.456 -0.2405  0.1975  0.5363
  996MOL0     C34327   2.810   0.978   1.386  0.7768 -0.4202  0.3982
  996MOL0     O34328   2.940   1.015   1.438  0.6789 -0.0333 -0.0524
  996MOL0     C34329   2.968   0.978   1.570  0.1539 -0.4456  0.5597
  996MOL0     C34330   2.990   0.846   1.597  0.2113 -0.3325 -0.3493
  996MOL0     C34331   3.002   0.805   1.730 -0.3232  0.1035 -0.1697
  996MOL0     C34332   3.010   0.904   1.831  0.0915  0.1639 -1.1212
  996MOL0     O34333   3.025   0.874   1.961 -0.6034 -0.5218 -0.4502
  996MOL0     C34334   3.161   0.872   1.991 -0.6542  0.8758 -0.1770
  996MOL0     C34335   3.183   0.824   2.134  0.8094 -0.1151  0.1423
  996MOL0     C34336   3.326   0.764   2.138 -0.3082  0.5064 -1.2449
  996MOL0     C34337   3.345   0.686   2.270 -0.0562 -0.4151 -0.3555
  996MOL0     C34338   3.493   0.649   2.285  0.7555  0.1628 -0.0088
  996MOL0     C34339   3.591   0.756   2.340  0.3966  1.0642 -0.3203
  996MOL0     C34340   3.568   0.802   2.477  0.5910  0.0651 -0.3051
  996MOL0     C34341   3.646   0.723   2.584 -0.1314 -0.4864  0.0568
  996MOL0     N34342   3.785   0.771   2.598  0.6156 -0.2820  0.0341
  996MOL0     C34343   3.877   0.766   2.498 -0.0681 -0.7834 -0.0567
  996MOL0     C34344   3.995   0.799   2.551 -0.5181  0.0107  0.4712
  996MOL0     C34345   4.121   0.796   2.470 -0.6021 -0.3017  0.1684
  996MOL0     C34346   4.169   0.650   2.468 -0.9394  1.4247  0.1703
  996MOL0     C34347   4.179   0.599   2.331 -0.6967 -0.4708 -0.7719
  996MOL0     C34348   4.252   0.467   2.303 -0.2765  0.3205 -0.5481
  996MOL0     O34349   4.385   0.479   2.364 -0.2134 -0.1558  0.1939
  996MOL0     C34350   4.495   0.505   2.279  0.4241 -0.1707  0.1166
  996MOL0     C34351   4.497   0.550   2.147 -0.3227  0.3592  0.4655
  996MOL0     C34352   4.623   0.580   2.087  0.7022  0.6952  0.3392
  996MOL0     C34353   4.625   0.606   1.938 -0.7274 -0.3747  0.5131
  996MOL0     C34354   4.744   0.574   2.162 -0.3094  0.9798 -0.6757
  996MOL0     C34355   4.885   0.591   2.094 -0.6316 -0.4624  0.1357
  996MOL0     O34356   4.992   0.621   2.180  0.2349 -0.0855 -0.4938
  996MOL0     C34357   5.125   0.618   2.127  0.5231  0.7123 -0.6163
  996MOL0     C34358   5.172   0.593   1.996  0.6581  0.2292  0.8099
  996MOL0     C34359   5.304   0.613   1.960  0.6495 -0.0891 -0.4052
  996MOL0     C34360   5.401   0.661   2.057  0.2648 -0.5449  0.4789
  996MOL0     O34361   5.531   0.683   2.015  0.1391 -0.2052  0.1671
  996MOL0     C34362   5.605   0.775   2.100 -0.7951 -1.0275 -0.2834
  996MOL0     C34363   5.723   0.825   2.018  1.3723  0.1606  0.7145
  996MOL0     C34364   5.688   0.958   1.951 -0.5102  0.5056  0.1669
  996MOL0     C34365   5.793   0.984   1.841 -0.3041 -0.2590  0.2328
  996MOL0     C34366   5.749   1.089   1.736  0.7069 -1.2972 -0.1094
  996MOL0     C34367   5.774   1.235   1.780 -0.1385 -1.0094 -1.3676
  996MOL0     C34368   5.746   1.346   1.679 -0.5864  0.8461 -0.4570
  996MOL0     C34369   5.628   1.434   1.711 -0.1363  0.5618 -1.4947
  996MOL0    Cl34370   5.667   1.519   1.862  0.0137 -0.0061 -0.3825
  996MOL0     C34371   5.352   0.679   2.189  0.1800 -0.0169 -0.6427
  996MOL0     C34372   5.221   0.664   2.218  1.2464  0.1343 -1.0151
  996MOL0     O34373   4.888   0.565   1.976  0.7545  0.1609 -0.3627
  996MOL0     C34374   4.736   0.532   2.291  0.1684  0.1942 -0.4654
  996MOL0     C34375   4.612   0.506   2.349  0.3389  0.0548 -0.4363
  996MOL0     N34376   3.970   0.820   2.680  0.3569 -0.9944 -0.1222
  996MOL0     N34377   3.845   0.802   2.708  0.2315 -0.0163  0.5628
  996MOL0     C34378   2.986   1.033   1.799  0.3672 -0.2238 -0.2842
  996MOL0     C34379   2.976   1.075   1.666  0.0245 -0.1470 -0.8213
  996MOL0     C34380   2.797   0.981   1.240 -0.4563 -0.3126  0.8823
  996MOL0     C34381   2.747   0.866   1.175 -0.1437  0.2501  0.5297
  996MOL0     C34382   2.757   0.848   1.035  0.5093 -0.5386  0.2312
  996MOL0     C34383   2.804   0.957   0.955 -0.4468  0.4781  0.0252
  996MOL0     O34384   2.827   0.936   0.818  0.0573 -0.0945  0.0983
  996MOL0     C34385   2.724   0.973   0.727 -0.3190  0.2090 -0.6064
  996MOL0     C34386   2.749   0.930   0.586  0.2663  0.1406  0.5560
  996MOL0     C34387   2.893   0.979   0.536  0.3135 -0.0931 -0.3053
  996MOL0     C34388   2.921   0.934   0.396 -0.5141  0.1913 -0.2077
  996MOL0     C34389   2.818   0.977   0.304 -0.1341  0.2958 -0.7751
  996MOL0     C34390   2.725   1.011   0.232  0.4260 -0.7125 -0.4694
  996MOL0     C34391   2.867   1.064   1.021 -0.9541  0.5787  0.3707
  996MOL0     C34392   2.848   1.085   1.160  0.4671 -0.3194  0.2502
  996MOL0     H34393   3.005   0.790   1.505  1.4837  0.5929 -0.7334
  996MOL0     H34394   3.025   0.703   1.758  2.7641  0.8769  0.4081
  996MOL0     H34395   3.227   0.815   1.924  0.8183 -0.8258  2.5175
  996MOL0     H34396   3.199   0.974   1.994  2.0676 -0.0892  1.2082
  996MOL0     H34397   3.168   0.909   2.202 -2.7179 -2.3379  2.4227
  996MOL0     H34398   3.103   0.757   2.165 -0.8818  1.2275 -1.1215
  996MOL0     H34399   3.336   0.699   2.051 -2.2729 -1.1749 -0.3300
  996MOL0     H34400   3.397   0.846   2.124 -0.8651  1.1232 -0.5454
  996MOL0     H34401   3.315   0.749   2.354  0.1893 -1.4862  0.5451
  996MOL0     H34402   3.281   0.598   2.274 -0.2000 -0.3473 -0.9975
  996MOL0     H34403   3.510   0.572   2.361 -1.9226 -2.8388 -2.1490
  996MOL0     H34404   3.533   0.606   2.192  0.0450 -0.2451 -0.1295
  996MOL0     H34405   3.688   0.706   2.335 -0.5426 -0.7279 -2.4513
  996MOL0     H34406   3.585   0.838   2.267  1.1487 -0.6842 -2.4612
  996MOL0     H34407   3.593   0.908   2.483 -2.5360  0.8089  1.6116
  996MOL0     H34408   3.465   0.790   2.510 -0.0333  0.2768 -2.0997
  996MOL0     H34409   3.639   0.617   2.558 -0.3081 -1.1463  2.5298
  996MOL0     H34410   3.612   0.745   2.686  1.7820  3.3272  0.0543
  996MOL0     H34411   3.862   0.744   2.393 -1.9046 -0.6591  0.1432
  996MOL0     H34412   4.101   0.841   2.372  2.3899  0.5032 -0.1812
  996MOL0     H34413   4.200   0.851   2.521 -0.9627  0.4752 -0.0981
  996MOL0     H34414   4.119   0.576   2.530  3.6481  0.4537  3.2284
  996MOL0     H34415   4.275   0.651   2.494 -1.3177 -0.6085  2.0012
  996MOL0     H34416   4.232   0.666   2.263  1.7291 -0.1869  1.2121
  996MOL0     H34417   4.080   0.588   2.287  0.4805 -1.4119 -3.3639
  996MOL0     H34418   4.253   0.453   2.194 -1.8765 -2.7140 -0.2985
  996MOL0     H34419   4.203   0.382   2.352  2.1503  1.1981  3.9641
  996MOL0     H34420   4.409   0.550   2.083 -2.4983  0.3623  3.2587
  996MOL0     H34421   4.635   0.514   1.879  3.7268  1.7736 -2.6661
  996MOL0     H34422   4.541   0.662   1.898 -0.7194 -0.0438  0.9544
  996MOL0     H34423   4.707   0.669   1.903 -1.0197 -0.8689 -1.1553
  996MOL0     H34424   5.103   0.555   1.921  0.0063 -1.3196  2.1574
  996MOL0     H34425   5.336   0.589   1.859  1.8674  3.3062 -0.9595
  996MOL0     H34426   5.552   0.863   2.139  1.4495  0.0780  0.4421
  996MOL0     H34427   5.660   0.719   2.176  1.6013  1.6768  0.1284
  996MOL0     H34428   5.800   0.840   2.094 -0.0608 -0.0532  2.2762
  996MOL0     H34429   5.754   0.755   1.941  2.1436  3.0280 -1.7972
  996MOL0     H34430   5.687   1.032   2.032  2.6471 -1.8617  2.6003
  996MOL0     H34431   5.595   0.955   1.894  1.3889 -1.3066 -3.1353
  996MOL0     H34432   5.882   1.019   1.894 -0.6043  0.5597  0.2130
  996MOL0     H34433   5.838   0.892   1.802  1.6011  0.1010  1.4510
  996MOL0     H34434   5.644   1.072   1.712  0.7089 -3.7906  1.3098
  996MOL0     H34435   5.807   1.084   1.643  1.5678  1.7215  0.1835
  996MOL0     H34436   5.705   1.249   1.865  1.1437 -1.5970 -0.1882
  996MOL0     H34437   5.875   1.254   1.818 -0.1653 -2.7439 -0.3187
  996MOL0     H34438   5.716   1.294   1.588  0.3362  1.6149 -1.2175
  996MOL0     H34439   5.838   1.397   1.648  0.6063 -3.0923 -4.4593
  996MOL0     H34440   5.550   1.363   1.740  1.6075 -0.7835  0.1571
  996MOL0     H34441   5.613   1.504   1.628  0.9737  0.6180 -1.6602
  996MOL0     H34442   5.418   0.709   2.269 -1.4158 -3.1824  2.0879
  996MOL0     H34443   5.175   0.676   2.315  2.7837 -2.0228  0.0686
  996MOL0     H34444   4.824   0.508   2.351 -0.0174 -2.5107 -1.1408
  996MOL0     H34445   4.603   0.478   2.454 -1.7188  1.8728 -0.0460
  996MOL0     H34446   2.966   1.117   1.865  1.4673  1.0899 -1.5538
  996MOL0     H34447   2.959   1.181   1.647 -1.8320 -0.2280  0.1344
  996MOL0     H34448   2.717   0.778   1.229 -2.3165  0.9209  0.4906
  996MOL0     H34449   2.724   0.755   0.990  0.3638 -0.4521  0.1593
  996MOL0     H34450   2.635   0.923   0.767 -1.0086  1.2258 -0.8227
  996MOL0     H34451   2.719   1.082   0.727  2.1756  0.3896 -0.0631
  996MOL0     H34452   2.658   0.963   0.535 -2.1926 -3.0452  2.4715
  996MOL0     H34453   2.738   0.821   0.585 -1.5603  0.2244  2.6518
  996MOL0     H34454   2.959   0.922   0.602 -0.5548  2.0853  2.6249
  996MOL0     H34455   2.907   1.086   0.552  0.0348  0.1490 -1.5704
  996MOL0     H34456   2.920   0.825   0.389  1.1197  0.2233 -1.5794
  996MOL0     H34457   3.019   0.973   0.366 -0.2010 -1.6834 -1.8166
  996MOL0     H34458   2.663   1.057   0.158  1.2060  1.7392  0.2818
  996MOL0     H34459   2.901   1.145   0.957 -1.4033  0.3839 -0.1176
  996MOL0     H34460   2.899   1.168   1.208 -1.0800  1.3216 -0.7955
  997MOL0     O34461   1.067   2.434   4.782 -0.1346 -0.0381  0.5385
  997MOL0     C34462   1.171   2.420   4.721 -1.2327  0.6391 -0.3608
  997MOL0     O34463   1.270   2.515   4.702  0.4317  0.1688  0.4232
  997MOL0     C34464   1.280   2.624   4.781  0.1932 -0.3549  0.0897
  997MOL0     C34465   1.283   2.614   4.919  0.3954  0.0975  0.1234
  997MOL0     C34466   1.299   2.729   4.998  1.1579  0.3286 -0.6064
  997MOL0     C34467   1.342   2.847   4.938 -0.2669 -0.7354  0.1153
  997MOL0     O34468   1.370   2.958   5.007 -0.8429  0.6158 -0.1162
  997MOL0     C34469   1.319   2.990   5.132 -0.0259 -0.3688  0.3697
  997MOL0     C34470   1.367   3.136   5.175  0.2502  0.4075 -0.5302
  997MOL0     C34471   1.504   3.119   5.239 -0.7737  0.3681 -0.0099
  997MOL0     C34472   1.576   3.243   5.284  0.1848 -0.7887 -0.5676
  997MOL0     C34473   1.732   3.245   5.245  0.0330 -0.2040 -0.5336
  997MOL0     C34474   1.827   3.354   5.312  0.2086 -0.0315 -0.6630
  997MOL0     C34475   1.770   3.504   5.318  0.4340  1.3939  0.4361
  997MOL0     C34476   1.890   3.596   5.350  0.2169  0.1702  0.1473
  997MOL0     N34477   1.943   3.557   5.483  0.3549 -0.6211 -0.1629
  997MOL0     C34478   2.069   3.586   5.524 -0.7693 -0.2611 -0.2640
  997MOL0     C34479   2.052   3.575   5.661 -0.0086  0.4566  1.3421
  997MOL0     C34480   2.153   3.599   5.761  0.6784  0.3967  0.2591
  997MOL0     C34481   2.287   3.565   5.712 -0.4203 -0.5794 -0.5013
  997MOL0     C34482   2.387   3.567   5.827 -0.4109 -0.0934  0.0701
  997MOL0     C34483   2.398   3.419   5.883  0.0777 -1.1311 -0.5073
  997MOL0     O34484   2.502   3.369   5.813  0.3450 -0.1954  0.2457
  997MOL0     C34485   2.498   3.257   5.751  0.3468  0.5083  0.3932
  997MOL0     C34486   2.493   3.136   5.825 -0.9838 -0.5260  0.9900
  997MOL0     C34487   2.492   3.009   5.749 -0.9472  0.0595 -0.5214
  997MOL0     C34488   2.493   2.881   5.826 -0.6437  0.4484  0.0345
  997MOL0     C34489   2.510   3.008   5.605  0.3103 -0.5152 -0.3144
  997MOL0     C34490   2.523   2.883   5.515  0.2446 -0.3777  0.1331
  997MOL0     O34491   2.551   2.913   5.381 -0.0581  0.1113 -0.5352
  997MOL0     C34492   2.594   2.809   5.302  0.3932 -0.9159  0.2867
  997MOL0     C34493   2.565   2.812   5.167  0.1276 -0.1719 -0.1234
  997MOL0     C34494   2.600   2.707   5.081 -0.1165  0.3042 -0.0541
  997MOL0     C34495   2.665   2.588   5.132 -0.3990  0.5207 -0.1647
  997MOL0     O34496   2.691   2.483   5.044 -0.2358  0.7808 -0.3505
  997MOL0     C34497   2.824   2.433   5.049  0.0296  0.8740  0.5521
  997MOL0     C34498   2.845   2.330   4.932  0.0214 -0.7173  0.0586
  997MOL0     C34499   2.812   2.406   4.801  0.9001 -0.3800 -0.0675
  997MOL0     C34500   2.862   2.331   4.674 -0.1674 -0.5678 -0.8956
  997MOL0     C34501   2.761   2.307   4.569  0.8721  0.7033  0.2535
  997MOL0     C34502   2.828   2.236   4.444 -0.6231 -0.1858  0.3810
  997MOL0     C34503   2.722   2.226   4.332 -0.7727 -0.5842  0.1540
  997MOL0     C34504   2.775   2.288   4.207 -0.2642  0.2697 -0.8908
  997MOL0    Cl34505   2.911   2.179   4.147  0.3368  0.6468  0.0262
  997MOL0     C34506   2.686   2.583   5.276 -0.6864  0.5298 -0.1515
  997MOL0     C34507   2.661   2.695   5.355 -0.2306  0.0129 -0.2165
  997MOL0     O34508   2.470   2.773   5.549  0.2057 -0.0482 -0.3733
  997MOL0     C34509   2.510   3.136   5.542  0.0618  0.7353 -0.2258
  997MOL0     C34510   2.512   3.257   5.616  0.1696  0.0587  0.4172
  997MOL0     N34511   1.921   3.550   5.696  0.4642  1.4186 -0.1289
  997MOL0     N34512   1.857   3.541   5.585 -0.3649  0.0981  1.1391
  997MOL0     C34513   1.338   2.861   4.800 -0.4216 -0.8276 -0.6065
  997MOL0     C34514   1.299   2.751   4.723 -0.0459 -0.4165  0.1820
  997MOL0     C34515   1.199   2.290   4.662 -0.6731  1.0043  0.7745
  997MOL0     C34516   1.335   2.256   4.653 -0.3149  0.2391  0.3922
  997MOL0     C34517   1.372   2.132   4.603  0.0270 -0.1547  1.0286
  997MOL0     C34518   1.279   2.029   4.572 -0.3345  0.3256 -0.4302
  997MOL0     O34519   1.326   1.909   4.518 -0.2092 -0.1577  0.3366
  997MOL0     C34520   1.244   1.832   4.426 -0.9406  0.2779 -0.2529
  997MOL0     C34521   1.232   1.917   4.293  0.2867 -0.1324 -0.2970
  997MOL0     C34522   1.126   1.856   4.201  0.0082 -0.9631 -0.0414
  997MOL0     C34523   1.107   1.920   4.061 -1.0097 -0.4270 -0.4587
  997MOL0     C34524   1.229   1.915   3.977 -0.8828  0.0102  0.2516
  997MOL0     C34525   1.312   1.918   3.897 -0.3704 -1.0426 -0.2568
  997MOL0     C34526   1.146   2.060   4.596  0.2560  1.4153 -0.1656
  997MOL0     C34527   1.108   2.190   4.634 -0.3806  0.8660 -0.5115
  997MOL0     H34528   1.260   2.521   4.970 -0.9749 -0.6078 -1.6704
  997MOL0     H34529   1.290   2.717   5.106 -2.8485  3.2191 -0.3781
  997MOL0     H34530   1.211   3.006   5.138 -0.4839 -2.5502 -1.0893
  997MOL0     H34531   1.345   2.914   5.206  0.6331 -0.1044  0.4193
  997MOL0     H34532   1.367   3.211   5.095 -0.7376  1.3695  0.3520
  997MOL0     H34533   1.303   3.169   5.256  1.3598 -1.7043  1.3044
  997MOL0     H34534   1.498   3.057   5.329  0.4362 -2.9758 -2.0233
  997MOL0     H34535   1.569   3.066   5.169  1.0907  1.6254  0.6792
  997MOL0     H34536   1.527   3.337   5.254  1.2352  0.1392  0.5208
  997MOL0     H34537   1.580   3.247   5.393 -1.4116  1.0103 -0.5088
  997MOL0     H34538   1.774   3.147   5.268 -0.8784 -0.4333  0.2239
  997MOL0     H34539   1.738   3.265   5.138  1.4787  0.6468 -0.3177
  997MOL0     H34540   1.860   3.323   5.411  0.4411  2.3638  0.0648
  997MOL0     H34541   1.912   3.356   5.243  1.1203 -1.6685  0.3555
  997MOL0     H34542   1.716   3.527   5.226 -0.0668 -1.4759 -0.0831
  997MOL0     H34543   1.700   3.489   5.400  1.1288 -3.3057  0.4630
  997MOL0     H34544   1.846   3.696   5.354  1.6376  0.8359  0.0146
  997MOL0     H34545   1.969   3.602   5.274 -1.2695  4.1746 -1.3147
  997MOL0     H34546   2.158   3.601   5.463 -0.5522  0.7567  0.2859
  997MOL0     H34547   2.153   3.705   5.790  0.3070  1.2101 -2.4533
  997MOL0     H34548   2.113   3.542   5.845 -0.0289  1.1887  0.4786
  997MOL0     H34549   2.316   3.650   5.650 -2.6207  1.1541  0.7279
  997MOL0     H34550   2.293   3.471   5.656  1.3301  1.3459 -3.8518
  997MOL0     H34551   2.349   3.649   5.890 -1.1942  2.0173 -2.9119
  997MOL0     H34552   2.487   3.598   5.795  0.5998 -0.9720  2.1788
  997MOL0     H34553   2.295   3.384   5.878 -1.3544  2.2036  2.0797
  997MOL0     H34554   2.413   3.428   5.991 -0.9541  2.8062 -0.5389
  997MOL0     H34555   2.486   3.135   5.933  1.2158 -0.8809  1.1743
  997MOL0     H34556   2.513   2.892   5.933  0.0905  0.1055 -0.0659
  997MOL0     H34557   2.398   2.829   5.807  0.0559 -0.2140 -1.8238
  997MOL0     H34558   2.565   2.812   5.781 -1.3655 -0.8729  0.8510
  997MOL0     H34559   2.496   2.892   5.140 -0.9300 -1.4860 -1.4713
  997MOL0     H34560   2.594   2.716   4.973  1.5874  0.3878 -0.1757
  997MOL0     H34561   2.893   2.518   5.047 -1.7004  2.3215 -0.3052
  997MOL0     H34562   2.845   2.387   5.146  5.0794 -0.5630 -0.9064
  997MOL0     H34563   2.949   2.301   4.945  0.4057  0.2046 -0.8707
  997MOL0     H34564   2.772   2.253   4.959 -2.3957  0.8735 -1.4636
  997MOL0     H34565   2.849   2.509   4.810  2.0582 -0.8314  0.4188
  997MOL0     H34566   2.704   2.422   4.791  0.8922  1.5626  2.0721
  997MOL0     H34567   2.950   2.384   4.638 -0.8198  0.7862 -0.5380
  997MOL0     H34568   2.901   2.236   4.713  2.2854  1.6138  2.4672
  997MOL0     H34569   2.725   2.407   4.540 -0.5362 -0.3959 -2.0684
  997MOL0     H34570   2.684   2.241   4.608  2.0412  0.2066  1.8037
  997MOL0     H34571   2.904   2.312   4.423 -3.8531  3.3391  0.4238
  997MOL0     H34572   2.876   2.141   4.467  0.1243 -0.4368 -1.9469
  997MOL0     H34573   2.630   2.271   4.369  0.5140  3.0774 -0.6678
  997MOL0     H34574   2.720   2.119   4.312  2.0620 -1.2262  2.6520
  997MOL0     H34575   2.807   2.388   4.235  0.9324  0.1822 -1.8803
  997MOL0     H34576   2.696   2.302   4.132 -0.4250  1.9396 -0.4340
  997MOL0     H34577   2.729   2.493   5.319 -1.1708  0.2553 -0.2447
  997MOL0     H34578   2.671   2.680   5.462  1.9132 -0.2923 -0.4118
  997MOL0     H34579   2.509   3.140   5.433 -1.1958  1.9242 -0.1849
  997MOL0     H34580   2.525   3.353   5.566  2.6896 -0.9560 -1.1020
  997MOL0     H34581   1.361   2.954   4.747 -4.9287  0.0909 -1.3432
  997MOL0     H34582   1.282   2.762   4.616  1.9152 -0.1960 -0.1377
  997MOL0     H34583   1.416   2.320   4.688 -1.3137  1.4971  0.5049
  997MOL0     H34584   1.477   2.105   4.592  0.3684  1.3330  0.3836
  997MOL0     H34585   1.288   1.740   4.386  1.1366  1.5712 -1.1035
  997MOL0     H34586   1.148   1.813   4.475 -2.0876  0.3550 -2.3744
  997MOL0     H34587   1.328   1.947   4.250  0.2292 -0.1848 -0.4589
  997MOL0     H34588   1.191   2.015   4.321 -2.4511 -1.1405 -0.5186
  997MOL0     H34589   1.031   1.877   4.251  0.4253  0.0315  0.3608
  997MOL0     H34590   1.157   1.752   4.187  0.4555 -0.9902  1.0384
  997MOL0     H34591   1.072   2.021   4.083 -1.5041 -0.7880  0.4628
  997MOL0     H34592   1.041   1.857   4.000  0.1556  0.7170 -3.0634
  997MOL0     H34593   1.386   1.922   3.819  1.0225  1.8693  1.0592
  997MOL0     H34594   1.076   1.979   4.575  2.7557 -0.5096 -1.5819
  997MOL0     H34595   1.003   2.214   4.649 -0.4677 -0.1844  0.7735
  998MOL0     O34596   5.049   5.228   9.994 -0.6573 -0.2715 -0.5475
  998MOL0     C34597   5.007   5.301   9.902 -0.7274 -0.1005 -0.9226
  998MOL0     O34598   4.989   5.434   9.916  0.2130 -0.0559 -0.7516
  998MOL0     C34599   4.993   5.481  10.044  0.2265  0.8250 -1.0533
  998MOL0     C34600   5.115   5.523  10.108 -0.1539 -0.3554  0.4494
  998MOL0     C34601   5.114   5.569  10.241  0.0838  1.1469 -0.6272
  998MOL0     C34602   5.005   5.562  10.327  0.0982 -0.0715 -0.0082
  998MOL0     O34603   5.009   5.606  10.456  0.0646  0.3668  0.1229
  998MOL0     C34604   4.947   5.524  10.561  0.2699 -0.6310 -0.5197
  998MOL0     C34605   4.989   5.579  10.707 -0.6147  0.5874  0.8057
  998MOL0     C34606   5.139   5.614  10.732 -0.0943  0.4856  0.0156
  998MOL0     C34607   5.146   5.689  10.865 -1.0663  0.1593  0.0370
  998MOL0     C34608   5.277   5.733  10.915  0.2659 -1.2217  0.0716
  998MOL0     C34609   5.344   5.839  10.836  0.5268 -0.9490 -0.2553
  998MOL0     C34610   5.484   5.871  10.891  0.3489 -0.0348  0.8126
  998MOL0     C34611   5.579   5.954  10.786 -0.2556  0.8142  0.3945
  998MOL0     N34612   5.523   6.093  10.764 -0.3674  0.0470 -0.1061
  998MOL0     C34613   5.587   6.205  10.808  0.1963 -0.5440  0.2043
  998MOL0     C34614   5.506   6.307  10.761 -0.0825  0.9169 -0.6435
  998MOL0     C34615   5.536   6.448  10.797 -0.2273 -0.4211 -0.3328
  998MOL0     C34616   5.482   6.503  10.927 -0.3681  0.2964  0.3864
  998MOL0     C34617   5.334   6.463  10.958 -0.5481 -0.5387  0.5872
  998MOL0     C34618   5.321   6.323  11.028 -0.3315  0.6833  0.0153
  998MOL0     O34619   5.186   6.313  11.074  0.6074  0.4627  0.1744
  998MOL0     C34620   5.094   6.247  11.005 -0.3290 -0.0117 -0.0768
  998MOL0     C34621   4.975   6.234  11.075 -0.0201 -0.7414 -0.2031
  998MOL0     C34622   4.866   6.164  11.032 -0.1319 -0.1103  1.0664
  998MOL0     C34623   4.740   6.160  11.102 -0.3778 -0.6989 -0.8225
  998MOL0     C34624   4.884   6.086  10.915  1.0689  0.6804 -0.9218
  998MOL0     C34625   4.781   5.992  10.866  0.2265  0.5347  0.0839
  998MOL0     O34626   4.674   6.047  10.815 -0.1508 -0.1732  0.2399
  998MOL0     C34627   4.579   5.958  10.777  0.8458  0.1493 -1.3537
  998MOL0     C34628   4.454   5.956  10.844  0.1008  0.2880 -1.1351
  998MOL0     C34629   4.361   5.862  10.829 -0.3537  0.2041 -0.7508
  998MOL0     C34630   4.368   5.761  10.731 -0.4915 -0.6779 -0.0292
  998MOL0     O34631   4.262   5.672  10.708 -0.3894  0.3411 -0.9908
  998MOL0     C34632   4.142   5.748  10.676 -0.4085  0.0721  0.4700
  998MOL0     C34633   4.021   5.668  10.678  0.8728  0.4245 -0.4025
  998MOL0     C34634   3.970   5.616  10.542  0.0024 -0.2419 -0.3274
  998MOL0     C34635   4.080   5.551  10.456  1.4352  0.2280 -0.0303
  998MOL0     C34636   4.015   5.469  10.340 -0.2632 -0.7954  0.8330
  998MOL0     C34637   4.107   5.396  10.254  0.2858  0.5247  0.0925
  998MOL0     C34638   4.035   5.353  10.124 -0.0227  1.5559  0.4204
  998MOL0     C34639   4.135   5.315  10.013  0.6249  0.1111 -0.3896
  998MOL0    Cl34640   4.030   5.294   9.870 -0.0705  0.3842  0.0206
  998MOL0     C34641   4.481   5.766  10.652 -0.7179  0.2189 -0.2525
  998MOL0     C34642   4.588   5.855  10.679 -0.1638  0.6349 -0.1589
  998MOL0     O34643   4.814   5.874  10.875 -0.7318 -0.1700  0.9817
  998MOL0     C34644   5.006   6.077  10.849  0.0384 -1.1305  0.1638
  998MOL0     C34645   5.108   6.171  10.884 -0.4409 -0.1961 -0.5610
  998MOL0     N34646   5.402   6.257  10.693 -0.4394 -0.5577  0.1997
  998MOL0     N34647   5.420   6.128  10.684 -0.0986  0.1590 -0.2617
  998MOL0     C34648   4.882   5.520  10.270 -0.8755 -0.9134 -0.8143
  998MOL0     C34649   4.877   5.472  10.130  0.2179 -0.1286  0.0165
  998MOL0     C34650   5.008   5.254   9.762 -1.4002 -0.9513 -0.5294
  998MOL0     C34651   5.073   5.319   9.657  0.0664 -0.0358  0.0991
  998MOL0     C34652   5.099   5.262   9.532 -0.1993 -0.6746 -0.5039
  998MOL0     C34653   5.029   5.144   9.505 -1.3463  0.9817  1.3647
  998MOL0     O34654   5.048   5.070   9.389 -1.0538  0.2517  0.8233
  998MOL0     C34655   5.177   5.066   9.328 -0.1337  1.2273  0.2959
  998MOL0     C34656   5.278   4.983   9.390  0.2870 -0.6331 -0.4217
  998MOL0     C34657   5.247   4.835   9.390 -0.7241 -0.0277 -0.3089
  998MOL0     C34658   5.330   4.759   9.489  0.6324 -0.6087 -1.1567
  998MOL0     C34659   5.285   4.793   9.627 -0.3824  0.5985  0.1890
  998MOL0     C34660   5.271   4.806   9.746  0.6135  0.0075  0.2113
  998MOL0     C34661   4.962   5.079   9.607 -0.3504 -0.6758 -0.1237
  998MOL0     C34662   4.945   5.137   9.732  0.6799  0.5925  0.2837
  998MOL0     H34663   5.194   5.552  10.038 -1.1310 -1.9036 -1.4034
  998MOL0     H34664   5.196   5.630  10.277 -1.6951  2.2076  1.9214
  998MOL0     H34665   4.839   5.533  10.547  0.1777  0.8019  0.8658
  998MOL0     H34666   4.993   5.425  10.559  3.0058  0.3800  2.7413
  998MOL0     H34667   4.928   5.666  10.733 -1.1218  0.0992  1.2903
  998MOL0     H34668   4.969   5.499  10.779  0.3144 -0.8711 -0.5107
  998MOL0     H34669   5.206   5.531  10.708 -2.8404 -2.1112  0.6666
  998MOL0     H34670   5.156   5.698  10.664 -2.1705  1.5371  0.6955
  998MOL0     H34671   5.086   5.780  10.855  2.0742  2.5589  1.4846
  998MOL0     H34672   5.115   5.616  10.942  2.5138 -0.3635  1.1898
  998MOL0     H34673   5.266   5.777  11.014  3.2712  2.1857 -0.8828
  998MOL0     H34674   5.343   5.646  10.922 -2.0301 -3.0639  0.0956
  998MOL0     H34675   5.342   5.809  10.730  0.8651 -0.4520 -0.4046
  998MOL0     H34676   5.293   5.936  10.831  0.8385 -0.8177 -1.0448
  998MOL0     H34677   5.473   5.924  10.987 -5.3057 -3.5170  2.5544
  998MOL0     H34678   5.530   5.778  10.924 -1.1951 -0.7738  0.9452
  998MOL0     H34679   5.602   5.905  10.691 -0.9491  1.0444  0.0976
  998MOL0     H34680   5.678   5.955  10.833 -0.8745  3.2603  1.8265
  998MOL0     H34681   5.678   6.200  10.866  1.1824  0.7573 -1.1509
  998MOL0     H34682   5.646   6.449  10.796 -0.1807  0.8539  1.0780
  998MOL0     H34683   5.502   6.505  10.710  1.8000 -3.5747 -3.4300
  998MOL0     H34684   5.500   6.611  10.924  0.2594  0.2008  0.4789
  998MOL0     H34685   5.539   6.459  11.010 -2.5962 -0.5028  1.5953
  998MOL0     H34686   5.279   6.463  10.863  0.9233  1.7306 -0.3362
  998MOL0     H34687   5.281   6.523  11.033 -0.1306  0.8123 -0.1701
  998MOL0     H34688   5.385   6.320  11.117 -0.8810  0.0158  0.4033
  998MOL0     H34689   5.340   6.231  10.971 -3.4963 -1.0622  1.4941
  998MOL0     H34690   4.982   6.290  11.168  1.2509  2.0277 -1.8466
  998MOL0     H34691   4.728   6.062  11.148 -1.9660  0.2249  0.8865
  998MOL0     H34692   4.733   6.242  11.175  2.8991 -0.8840 -0.1403
  998MOL0     H34693   4.658   6.160  11.029 -0.5148 -1.4633 -0.6717
  998MOL0     H34694   4.451   6.031  10.922 -0.4159  0.6870 -1.5239
  998MOL0     H34695   4.268   5.886  10.879  0.3158  1.9474 -0.2672
  998MOL0     H34696   4.124   5.831  10.745 -0.3073  0.1975  0.3453
  998MOL0     H34697   4.167   5.798  10.582  2.8099 -0.2573  1.0479
  998MOL0     H34698   4.038   5.574  10.731  0.6186 -1.4542 -3.3945
  998MOL0     H34699   3.932   5.716  10.718  2.4968  1.8758  1.6538
  998MOL0     H34700   3.930   5.703  10.489  0.7620  1.0271  1.0870
  998MOL0     H34701   3.887   5.545  10.552 -1.7365  1.8606  1.1042
  998MOL0     H34702   4.140   5.635  10.421  0.4029  0.8821 -0.2605
  998MOL0     H34703   4.143   5.486  10.518  0.7619 -0.1496  0.2746
  998MOL0     H34704   3.963   5.539  10.274  4.1763  1.1374 -1.0054
  998MOL0     H34705   3.943   5.399  10.382 -0.3825 -2.8261 -2.4602
  998MOL0     H34706   4.188   5.469  10.238  1.5833 -0.9448 -0.2473
  998MOL0     H34707   4.150   5.314  10.312 -0.4796 -1.9084 -2.5536
  998MOL0     H34708   3.986   5.445  10.093 -1.5094  1.2838  1.7909
  998MOL0     H34709   3.962   5.274  10.146 -2.1283  2.4304 -2.8276
  998MOL0     H34710   4.187   5.226  10.050 -0.0245  0.6355  1.9107
  998MOL0     H34711   4.196   5.401   9.985 -1.0936  0.6898 -2.6764
  998MOL0     H34712   4.497   5.695  10.572 -1.2660  0.6657 -0.7604
  998MOL0     H34713   4.677   5.851  10.617  1.1176 -1.9500  1.6886
  998MOL0     H34714   5.011   6.010  10.764 -0.1325  0.1876 -0.9179
  998MOL0     H34715   5.195   6.179  10.821 -0.8956 -1.7059 -1.4286
  998MOL0     H34716   4.797   5.510  10.336 -1.3126  3.1244 -0.5175
  998MOL0     H34717   4.783   5.433  10.092 -0.4907  0.4502  1.1191
  998MOL0     H34718   5.129   5.408   9.681  1.1761 -1.5598  4.0675
  998MOL0     H34719   5.147   5.321   9.455 -1.1330  0.4890 -0.2239
  998MOL0     H34720   5.157   5.009   9.236 -0.8737  1.8151  0.0827
  998MOL0     H34721   5.206   5.166   9.297  2.4487  0.2231 -0.8630
  998MOL0     H34722   5.267   5.017   9.493 -3.1337  0.5480 -1.0489
  998MOL0     H34723   5.376   5.010   9.350  0.4655 -1.5079 -0.6091
  998MOL0     H34724   5.274   4.802   9.289  0.2629 -1.3249  0.3467
  998MOL0     H34725   5.145   4.807   9.419 -1.0765  0.5202 -0.9811
  998MOL0     H34726   5.436   4.780   9.472  0.4069  0.2869 -1.5187
  998MOL0     H34727   5.295   4.657   9.473  2.3965 -1.8268  1.9670
  998MOL0     H34728   5.271   4.821   9.852  1.2682 -2.1519  0.5712
  998MOL0     H34729   4.920   4.982   9.581 -0.5091 -0.9923  1.2493
  998MOL0     H34730   4.883   5.087   9.805  0.5966 -1.6026 -1.1970
  999MOL0     O34731   2.796   5.449   8.070  0.1101 -0.3026 -0.2376
  999MOL0     C34732   2.747   5.440   7.953  0.0145  0.7486 -0.0887
  999MOL0     O34733   2.787   5.352   7.861  0.5184  0.3803  0.2857
  999MOL0     C34734   2.866   5.248   7.896 -0.7110  0.6210 -0.8307
  999MOL0     C34735   2.892   5.186   8.025  0.7953  0.0511 -1.2246
  999MOL0     C34736   2.985   5.087   8.042 -0.0701 -0.0652  1.3491
  999MOL0     C34737   3.041   5.025   7.926  0.4548 -0.5186 -0.1474
  999MOL0     O34738   3.126   4.917   7.931 -0.3426 -0.0260 -0.1325
  999MOL0     C34739   3.252   4.914   8.005 -0.0417 -0.1752  0.2422
  999MOL0     C34740   3.288   4.781   8.063  0.8644  0.5130 -0.0049
  999MOL0     C34741   3.200   4.765   8.190 -0.5035  0.5320  0.0375
  999MOL0     C34742   3.064   4.700   8.166  0.1840  0.1738  0.8363
  999MOL0     C34743   2.980   4.685   8.287  1.5203 -0.5933  0.1842
  999MOL0     C34744   2.854   4.595   8.279 -0.3010  0.2214 -1.5729
  999MOL0     C34745   2.859   4.443   8.326 -0.3649 -0.3768  0.0925
  999MOL0     C34746   2.791   4.356   8.216  0.6885 -0.8944  0.7780
  999MOL0     N34747   2.791   4.212   8.244 -0.6483  0.6311  0.2665
  999MOL0     C34748   2.702   4.151   8.325  0.1017  1.0080 -0.0270
  999MOL0     C34749   2.737   4.017   8.308 -0.0279 -0.1088  0.2854
  999MOL0     C34750   2.666   3.906   8.381  0.0286  0.1229 -0.4412
  999MOL0     C34751   2.514   3.903   8.360 -0.3340 -0.9625  0.1755
  999MOL0     C34752   2.470   3.925   8.216  0.6959 -0.2006 -0.0768
  999MOL0     C34753   2.512   3.820   8.124  0.0857 -0.0376 -0.1605
  999MOL0     O34754   2.466   3.692   8.167  0.9401  0.1554 -0.0585
  999MOL0     C34755   2.539   3.587   8.117  0.5413  0.6621 -0.2253
  999MOL0     C34756   2.558   3.578   7.978 -0.1788  0.0472 -0.2132
  999MOL0     C34757   2.620   3.469   7.921  0.6650 -0.4902 -0.4364
  999MOL0     C34758   2.623   3.466   7.770 -0.4399 -0.0429  1.8207
  999MOL0     C34759   2.677   3.366   7.990  1.2822  0.1488  0.3162
  999MOL0     C34760   2.748   3.254   7.935  0.0111  0.4927  0.4788
  999MOL0     O34761   2.815   3.270   7.821  0.6543  0.4140  0.6153
  999MOL0     C34762   2.867   3.156   7.762 -0.4957 -0.2539  0.2751
  999MOL0     C34763   2.969   3.087   7.823 -0.8116  0.3374 -0.2224
  999MOL0     C34764   3.014   2.971   7.776  0.7373  0.1902  0.7752
  999MOL0     C34765   2.976   2.923   7.646 -0.2827 -0.8095 -0.6298
  999MOL0     O34766   3.012   2.802   7.601  0.1929  0.1315 -0.3831
  999MOL0     C34767   2.991   2.743   7.470 -0.1335  0.5205  0.2898
  999MOL0     C34768   2.857   2.670   7.468  0.6931 -0.1999 -1.1326
  999MOL0     C34769   2.802   2.617   7.339  0.1046 -0.1237  0.0263
  999MOL0     C34770   2.789   2.733   7.237 -0.3952 -0.6557  0.6531
  999MOL0     C34771   2.677   2.712   7.131 -1.0209 -0.2483  0.2178
  999MOL0     C34772   2.738   2.637   7.012  0.5314 -0.7832 -0.7255
  999MOL0     C34773   2.653   2.613   6.889 -0.0462 -0.6100 -0.0991
  999MOL0     C34774   2.613   2.742   6.818  0.4419 -0.6579 -0.9220
  999MOL0    Cl34775   2.553   2.701   6.658 -0.2333 -0.0740 -0.1428
  999MOL0     C34776   2.893   3.013   7.568 -1.0012 -0.2284  0.0824
  999MOL0     C34777   2.841   3.133   7.623 -0.1531  0.5478  0.2677
  999MOL0     O34778   2.756   3.152   8.008 -0.3722  0.1614 -0.0369
  999MOL0     C34779   2.661   3.376   8.131 -1.3640  0.3177  0.8597
  999MOL0     C34780   2.609   3.495   8.197  0.6649 -0.3661  0.1167
  999MOL0     N34781   2.844   3.998   8.224  0.3232 -0.8620 -0.7400
  999MOL0     N34782   2.877   4.119   8.185  0.0545 -0.3689  0.4438
  999MOL0     C34783   3.008   5.081   7.799  0.0896 -0.2807  0.4077
  999MOL0     C34784   2.927   5.189   7.783 -0.7072  0.9312  0.6165
  999MOL0     C34785   2.644   5.540   7.909 -0.5751  0.4912 -0.4553
  999MOL0     C34786   2.604   5.562   7.773 -0.0010  0.0823  0.9320
  999MOL0     C34787   2.514   5.660   7.737  0.4545 -0.7216  0.1174
  999MOL0     C34788   2.449   5.737   7.836 -0.1255 -1.0915 -0.7663
  999MOL0     O34789   2.355   5.828   7.787  0.2088 -0.5630  0.6280
  999MOL0     C34790   2.253   5.869   7.878 -0.2228 -0.9336  0.7170
  999MOL0     C34791   2.298   6.010   7.945 -0.1057  0.4664 -0.0421
  999MOL0     C34792   2.361   6.102   7.846  0.5529  0.1743  0.0876
  999MOL0     C34793   2.277   6.227   7.816  0.0119  0.5621  0.8537
  999MOL0     C34794   2.171   6.196   7.714 -0.4921  0.0495  0.7400
  999MOL0     C34795   2.093   6.184   7.621  0.6364  0.3993  0.5928
  999MOL0     C34796   2.488   5.717   7.973 -0.6106 -0.5471  0.6833
  999MOL0     C34797   2.576   5.610   8.009  0.2278  0.3224  0.8460
  999MOL0     H34798   2.847   5.223   8.116  0.0872  0.2181 -1.6297
  999MOL0     H34799   3.004   5.041   8.138  3.5664 -5.0606 -1.2845
  999MOL0     H34800   3.323   4.946   7.928  1.0319 -1.7305  0.5483
  999MOL0     H34801   3.249   4.988   8.086  1.1751 -1.4974  1.5348
  999MOL0     H34802   3.258   4.700   7.997  1.5185  1.5583 -1.6487
  999MOL0     H34803   3.396   4.775   8.076  0.7569  1.4786  1.7879
  999MOL0     H34804   3.261   4.725   8.272 -1.7515 -1.1590  0.1980
  999MOL0     H34805   3.182   4.861   8.239 -1.7059 -0.4195  1.5714
  999MOL0     H34806   3.015   4.746   8.080  2.0455  1.1089  0.2216
  999MOL0     H34807   3.089   4.596   8.141  3.2006  1.1888 -0.9985
  999MOL0     H34808   3.043   4.659   8.372 -1.1545  2.7124  3.5122
  999MOL0     H34809   2.944   4.780   8.327 -1.0613 -1.1296 -0.6415
  999MOL0     H34810   2.781   4.630   8.353 -0.1719 -1.4867 -0.5641
  999MOL0     H34811   2.803   4.611   8.184 -3.1607 -0.1716 -0.2279
  999MOL0     H34812   2.961   4.404   8.323  0.0275  0.6026 -3.1268
  999MOL0     H34813   2.828   4.431   8.430  2.3820  0.0459  1.0560
  999MOL0     H34814   2.839   4.368   8.118 -0.3932  0.5011  0.3907
  999MOL0     H34815   2.687   4.385   8.203  0.7451  0.7305  3.2569
  999MOL0     H34816   2.634   4.204   8.390 -0.1797  1.0314 -0.3347
  999MOL0     H34817   2.711   3.810   8.352 -0.5534 -0.9096  1.8359
  999MOL0     H34818   2.687   3.905   8.488 -0.1113 -0.7498 -0.4094
  999MOL0     H34819   2.473   3.986   8.418 -2.5702 -0.7979 -1.4873
  999MOL0     H34820   2.462   3.815   8.398 -1.2745 -0.1344  0.8543
  999MOL0     H34821   2.504   4.023   8.182 -0.8860 -0.7091 -3.4577
  999MOL0     H34822   2.362   3.920   8.201  0.8804 -1.7702 -1.0932
  999MOL0     H34823   2.621   3.834   8.123 -0.1920  2.6981  0.2582
  999MOL0     H34824   2.476   3.846   8.025  1.0941  0.3250 -0.4507
  999MOL0     H34825   2.519   3.648   7.906 -0.3257 -2.1388 -2.3793
  999MOL0     H34826   2.609   3.364   7.734 -3.3354  0.3965  1.4822
  999MOL0     H34827   2.547   3.525   7.719 -0.3529 -0.0159  1.7215
  999MOL0     H34828   2.724   3.495   7.738  0.8402 -5.7098 -0.3019
  999MOL0     H34829   3.011   3.123   7.916  1.8109 -5.5099  1.3031
  999MOL0     H34830   3.070   2.906   7.842 -0.6099  0.3166  2.0841
  999MOL0     H34831   3.003   2.828   7.402 -0.9028  1.1529  0.9214
  999MOL0     H34832   3.066   2.670   7.439 -0.0247  0.3596  0.9247
  999MOL0     H34833   2.863   2.587   7.540  0.6271 -1.2701 -2.3350
  999MOL0     H34834   2.782   2.740   7.505 -0.5119 -0.9496 -2.0866
  999MOL0     H34835   2.703   2.575   7.355 -0.2428 -0.3570 -2.3458
  999MOL0     H34836   2.874   2.542   7.307 -0.0544 -0.5378  0.6266
  999MOL0     H34837   2.777   2.832   7.281  1.4634 -0.2648  0.3713
  999MOL0     H34838   2.889   2.726   7.192 -0.4004  0.8569  0.3668
  999MOL0     H34839   2.638   2.805   7.089  0.0070 -0.3344 -0.9795
  999MOL0     H34840   2.594   2.650   7.164  0.9316 -1.4185  3.3306
  999MOL0     H34841   2.817   2.702   6.973 -0.6087  1.8957  1.0757
  999MOL0     H34842   2.773   2.539   7.045 -1.5975 -1.6190 -0.8267
  999MOL0     H34843   2.559   2.561   6.910 -2.5017  2.5305 -2.4254
  999MOL0     H34844   2.720   2.548   6.831  2.1248 -2.8568  4.3689
  999MOL0     H34845   2.703   2.803   6.811 -0.7119  1.0270 -1.9758
  999MOL0     H34846   2.547   2.802   6.882  2.5705 -2.8275  3.7245
  999MOL0     H34847   2.868   2.982   7.467  2.6188 -3.8159  0.0268
  999MOL0     H34848   2.762   3.195   7.583  0.2665  0.4787 -0.6992
  999MOL0     H34849   2.703   3.296   8.190  2.0140 -0.3345 -2.0746
  999MOL0     H34850   2.623   3.507   8.304  0.3269 -1.0189  0.2381
  999MOL0     H34851   3.067   5.044   7.715  2.7050 -0.1583  2.0948
  999MOL0     H34852   2.900   5.210   7.680 -0.0304  1.8412  0.6174
  999MOL0     H34853   2.648   5.499   7.696  0.0069  1.7706 -0.4940
  999MOL0     H34854   2.489   5.691   7.636 -0.4023 -2.6813 -0.3256
  999MOL0     H34855   2.166   5.878   7.813  0.1720 -0.6429  0.2122
  999MOL0     H34856   2.238   5.789   7.950  0.0773 -2.6818 -1.0739
  999MOL0     H34857   2.378   5.992   8.018  0.9702 -3.7564 -1.9423
  999MOL0     H34858   2.227   6.058   8.012 -0.9448  2.9921 -2.5643
  999MOL0     H34859   2.389   6.049   7.754 -0.8721 -2.3582  1.0269
  999MOL0     H34860   2.450   6.143   7.896 -0.1957 -0.7483  2.2644
  999MOL0     H34861   2.344   6.307   7.783 -1.0017  1.8296  1.7561
  999MOL0     H34862   2.216   6.265   7.898 -1.6550  2.8438 -1.3010
  999MOL0     H34863   2.034   6.178   7.532 -1.9461 -0.4332  2.2291
  999MOL0     H34864   2.451   5.773   8.058  2.8748  0.2223  1.8585
  999MOL0     H34865   2.586   5.593   8.116 -1.4394 -1.3226  0.8054
 1000MOL0     O34866   4.559   3.591   5.961  0.1982  0.3648 -0.8451
 1000MOL0     C34867   4.489   3.494   5.916  0.3137 -0.3860 -0.3307
 1000MOL0     O34868   4.529   3.366   5.907 -0.2454  0.5761 -0.4126
 1000MOL0     C34869   4.665   3.334   5.921  0.5683  0.3788  0.1031
 1000MOL0     C34870   4.762   3.403   5.846 -0.0756  1.0868 -0.1171
 1000MOL0     C34871   4.897   3.365   5.863 -0.0055 -0.2922 -0.2165
 1000MOL0     C34872   4.931   3.256   5.936 -0.0305 -0.2221 -1.4772
 1000MOL0     O34873   5.064   3.224   5.935 -0.0708 -0.0459 -0.0002
 1000MOL0     C34874   5.086   3.081   5.904 -0.3737  0.5934  1.1857
 1000MOL0     C34875   5.230   3.051   5.866 -0.7668  0.5646 -0.5804
 1000MOL0     C34876   5.334   3.115   5.974 -0.4677 -0.6630  0.9827
 1000MOL0     C34877   5.473   3.136   5.902  0.7275  0.0209 -0.9967
 1000MOL0     C34878   5.577   3.166   6.007  0.4971  0.2638 -0.5072
 1000MOL0     C34879   5.686   3.273   5.978  0.3685  1.1255  0.1977
 1000MOL0     C34880   5.803   3.284   6.069 -0.0498 -0.2932 -0.0801
 1000MOL0     C34881   5.890   3.402   6.021 -0.4176 -0.5033 -0.0140
 1000MOL0     N34882   5.990   3.438   6.120 -0.6745 -0.2593  0.6270
 1000MOL0     C34883   5.980   3.500   6.240  0.8362  0.0614  0.2377
 1000MOL0     C34884   6.078   3.452   6.314  0.1849  0.0422 -0.2095
 1000MOL0     C34885   6.102   3.486   6.466  1.1419 -0.6682  0.0240
 1000MOL0     C34886   5.997   3.428   6.556 -0.5708 -0.0101 -0.0127
 1000MOL0     C34887   6.015   3.279   6.606  0.1440  0.5043  0.6256
 1000MOL0     C34888   5.971   3.175   6.501  0.4008 -0.3760 -0.1991
 1000MOL0     O34889   5.833   3.197   6.465 -0.0758  0.0560 -1.0261
 1000MOL0     C34890   5.757   3.089   6.438  1.1340  0.4215  0.4645
 1000MOL0     C34891   5.619   3.118   6.425 -0.8725 -0.1414  0.2327
 1000MOL0     C34892   5.528   3.004   6.405 -0.0343  0.8290 -0.6359
 1000MOL0     C34893   5.388   3.050   6.386  0.4992 -0.3075  0.2515
 1000MOL0     C34894   5.573   2.872   6.391 -0.1151  0.7692 -0.1719
 1000MOL0     C34895   5.481   2.764   6.367 -0.0629 -0.2003  0.8448
 1000MOL0     O34896   5.349   2.768   6.399  0.0921 -0.2932  0.8666
 1000MOL0     C34897   5.261   2.662   6.365  0.9028  0.3552  0.6191
 1000MOL0     C34898   5.149   2.631   6.445 -0.1324 -0.3136  0.4557
 1000MOL0     C34899   5.073   2.516   6.411 -1.2797  0.6321 -0.5596
 1000MOL0     C34900   5.096   2.439   6.297 -0.9877  1.1441  0.5062
 1000MOL0     O34901   5.010   2.334   6.273  0.6862 -0.1962 -0.4805
 1000MOL0     C34902   4.999   2.267   6.147 -0.2021  1.0138  0.7631
 1000MOL0     C34903   4.950   2.356   6.033 -1.4373 -0.1507 -0.8585
 1000MOL0     C34904   4.967   2.297   5.897 -0.1920  0.6118  0.1188
 1000MOL0     C34905   4.891   2.360   5.791  0.1079 -0.0490  1.4652
 1000MOL0     C34906   4.928   2.301   5.659  1.1132  0.1032  0.0677
 1000MOL0     C34907   5.031   2.389   5.577  1.4985  0.0979  0.1574
 1000MOL0     C34908   5.053   2.348   5.438  0.0714  0.2777  0.6466
 1000MOL0     C34909   5.153   2.422   5.355 -0.3330  0.4525  1.0366
 1000MOL0    Cl34910   5.108   2.412   5.189 -0.3038 -0.2202  0.8140
 1000MOL0     C34911   5.197   2.476   6.209 -0.2203  0.4740  0.1347
 1000MOL0     C34912   5.280   2.592   6.245  0.1186 -0.1883  0.7880
 1000MOL0     O34913   5.544   2.664   6.347 -0.6135  0.6259 -0.2254
 1000MOL0     C34914   5.713   2.847   6.382 -0.3864 -1.0812  0.4851
 1000MOL0     C34915   5.801   2.950   6.413 -0.5244 -0.3510  0.4876
 1000MOL0     N34916   6.159   3.385   6.237  1.0502  0.4842  1.3205
 1000MOL0     N34917   6.095   3.361   6.128  0.1167  0.4628  0.3821
 1000MOL0     C34918   4.829   3.185   5.999 -1.2032 -0.3261 -1.2114
 1000MOL0     C34919   4.698   3.226   5.999 -0.0711  0.4397  0.1095
 1000MOL0     C34920   4.350   3.523   5.876 -0.5003 -0.4791 -0.7185
 1000MOL0     C34921   4.283   3.431   5.796 -0.5802 -0.4374  0.8290
 1000MOL0     C34922   4.153   3.444   5.766  0.0799  0.3128  0.0945
 1000MOL0     C34923   4.075   3.551   5.818 -0.1382  0.2388  0.2411
 1000MOL0     O34924   3.948   3.546   5.780  0.6873 -0.0166  0.3270
 1000MOL0     C34925   3.845   3.641   5.822 -0.5032 -0.5019  0.2776
 1000MOL0     C34926   3.774   3.705   5.702  0.5825 -0.3939 -0.3016
 1000MOL0     C34927   3.709   3.599   5.617 -0.1942  0.1642  0.2387
 1000MOL0     C34928   3.653   3.661   5.484  0.0724 -0.1483  0.4045
 1000MOL0     C34929   3.547   3.761   5.512 -0.4102 -0.7755 -0.3143
 1000MOL0     C34930   3.457   3.844   5.530 -0.1505 -1.7322  0.8032
 1000MOL0     C34931   4.148   3.655   5.876  0.5430 -0.0076  0.1655
 1000MOL0     C34932   4.286   3.649   5.907 -0.4469  0.2274 -0.0390
 1000MOL0     H34933   4.740   3.488   5.782 -2.1717  2.9599  2.7980
 1000MOL0     H34934   4.972   3.433   5.823 -0.9385  1.8726  1.5022
 1000MOL0     H34935   5.041   3.014   5.978 -4.5021  0.1119 -1.4014
 1000MOL0     H34936   5.027   3.049   5.817  0.5093 -0.9845  1.1231
 1000MOL0     H34937   5.244   2.943   5.874 -0.6573  0.4660 -1.8822
 1000MOL0     H34938   5.243   3.080   5.761  0.5098  0.9163 -0.3432
 1000MOL0     H34939   5.315   3.215   6.014  0.3140 -0.0738 -0.0737
 1000MOL0     H34940   5.334   3.042   6.055 -1.0816 -1.9637 -0.1411
 1000MOL0     H34941   5.496   3.036   5.865 -0.0348  0.4945 -2.8642
 1000MOL0     H34942   5.465   3.207   5.819 -0.1741  2.3676  0.9846
 1000MOL0     H34943   5.526   3.188   6.101 -1.8405 -0.6092 -1.5134
 1000MOL0     H34944   5.643   3.083   6.031  1.7436  1.7142  1.4030
 1000MOL0     H34945   5.724   3.247   5.879 -1.5711  0.0948 -0.3208
 1000MOL0     H34946   5.637   3.371   5.974 -0.9180  0.4584 -1.5350
 1000MOL0     H34947   5.760   3.301   6.168 -0.3820 -0.3490 -0.2145
 1000MOL0     H34948   5.860   3.191   6.074  0.0931 -0.2176 -0.3225
 1000MOL0     H34949   5.822   3.483   5.995 -3.5787 -2.2543  2.0402
 1000MOL0     H34950   5.945   3.381   5.929 -2.0933  1.6751 -1.5826
 1000MOL0     H34951   5.908   3.571   6.280  0.5049  0.7423 -1.4458
 1000MOL0     H34952   6.203   3.447   6.485  0.7647 -1.4341  0.4805
 1000MOL0     H34953   6.098   3.596   6.467 -0.0788 -0.7004  0.3423
 1000MOL0     H34954   5.902   3.425   6.502 -1.2102 -2.0067  1.1147
 1000MOL0     H34955   5.994   3.490   6.646 -1.3704  1.1974 -0.8318
 1000MOL0     H34956   5.956   3.264   6.697 -1.9626  2.4637 -0.3139
 1000MOL0     H34957   6.122   3.279   6.628  0.3474 -1.2594 -0.2505
 1000MOL0     H34958   5.988   3.082   6.555  0.5169  0.8040  1.8840
 1000MOL0     H34959   6.038   3.170   6.415  0.8146 -0.0198  0.1015
 1000MOL0     H34960   5.586   3.220   6.440 -1.8446 -0.5200  0.6878
 1000MOL0     H34961   5.323   3.047   6.475  1.7270  0.6948  1.2075
 1000MOL0     H34962   5.392   3.158   6.373  1.9031 -0.2554  0.9699
 1000MOL0     H34963   5.341   3.001   6.300 -0.3337  3.3707 -1.6026
 1000MOL0     H34964   5.134   2.679   6.541  0.7159  2.5056 -0.7074
 1000MOL0     H34965   4.985   2.504   6.475 -0.3564 -2.4608  0.3067
 1000MOL0     H34966   5.095   2.223   6.117 -1.2402 -0.9563  0.1934
 1000MOL0     H34967   4.921   2.198   6.180 -0.1068  1.1370  1.2668
 1000MOL0     H34968   4.846   2.377   6.056 -0.5093  3.2761  0.9286
 1000MOL0     H34969   5.012   2.446   6.037  0.4323 -1.3818 -0.9050
 1000MOL0     H34970   4.938   2.192   5.890 -0.6937  0.8288 -1.7143
 1000MOL0     H34971   5.072   2.305   5.868 -1.0248  4.7918 -2.7343
 1000MOL0     H34972   4.790   2.326   5.814 -0.0372  2.1416  4.7969
 1000MOL0     H34973   4.918   2.466   5.788  2.5252 -0.5912 -2.0403
 1000MOL0     H34974   4.841   2.283   5.595  0.1017 -1.8609  1.8671
 1000MOL0     H34975   4.969   2.201   5.673  1.3282  0.5393  3.2027
 1000MOL0     H34976   4.985   2.489   5.580  0.5852 -0.2724 -0.8974
 1000MOL0     H34977   5.119   2.398   5.641 -0.6961  0.0039  3.4533
 1000MOL0     H34978   4.956   2.347   5.387  0.4552  1.9005 -0.1548
 1000MOL0     H34979   5.088   2.244   5.432  0.6898  0.5764 -2.5590
 1000MOL0     H34980   5.255   2.393   5.381 -0.9552 -1.5308  1.4688
 1000MOL0     H34981   5.139   2.525   5.388 -1.5750  1.2065 -1.6192
 1000MOL0     H34982   5.227   2.404   6.133  0.1478  0.6587  0.1028
 1000MOL0     H34983   5.360   2.625   6.179  0.0522 -0.6424  0.4747
 1000MOL0     H34984   5.746   2.747   6.352 -1.9111 -1.8981  1.4066
 1000MOL0     H34985   5.908   2.932   6.411 -0.3400  0.7470  0.0020
 1000MOL0     H34986   4.859   3.091   6.044 -1.3139  0.4018  0.4606
 1000MOL0     H34987   4.621   3.172   6.052 -1.2064 -0.2124 -2.0999
 1000MOL0     H34988   4.335   3.342   5.763  1.8027  0.4104  2.0510
 1000MOL0     H34989   4.112   3.355   5.720 -1.6588  0.0327  2.0496
 1000MOL0     H34990   3.767   3.588   5.876 -2.4672  1.6342 -0.2865
 1000MOL0     H34991   3.882   3.721   5.887 -3.2738  0.1734  1.1367
 1000MOL0     H34992   3.853   3.757   5.647  1.0127  2.5009  2.6997
 1000MOL0     H34993   3.699   3.775   5.741  0.6443 -1.7767  2.5306
 1000MOL0     H34994   3.633   3.537   5.665 -2.6543  0.1389 -3.2374
 1000MOL0     H34995   3.776   3.516   5.592 -1.8875 -1.2766  0.3104
 1000MOL0     H34996   3.614   3.583   5.418 -0.1623  1.0724 -0.9464
 1000MOL0     H34997   3.733   3.711   5.428  0.7952 -2.1096 -0.3891
 1000MOL0     H34998   3.378   3.910   5.561  1.1637 -0.3987  1.4722
 1000MOL0     H34999   4.096   3.746   5.902 -1.1505  0.1229 -3.1697
 1000MOL0     H35000   4.349   3.724   5.953  2.6663 -1.4284 -1.3081
 1001MOL0     O35001   9.182   5.748   5.518  0.1896 -0.4913 -0.1269
 1001MOL0     C35002   9.217   5.837   5.441  0.6960 -0.9878  1.0158
 1001MOL0     O35003   9.328   5.908   5.442  0.2716  0.4910  0.1826
 1001MOL0     C35004   9.420   5.900   5.544 -0.1061 -0.2743  0.1501
 1001MOL0     C35005   9.555   5.921   5.515 -0.5057 -0.0993  0.6343
 1001MOL0     C35006   9.659   5.907   5.614  0.3331  0.2796 -0.0071
 1001MOL0     C35007   9.617   5.899   5.750  0.0248 -0.0935  0.3136
 1001MOL0     O35008   9.713   5.902   5.850 -0.0660  0.0495  0.2688
 1001MOL0     C35009   9.681   5.975   5.975 -0.2422  1.2457 -0.2389
 1001MOL0     C35010   9.807   6.044   6.024  0.3194 -0.5336 -0.1277
 1001MOL0     C35011   9.904   5.941   6.074  0.0424  0.3317  0.3875
 1001MOL0     C35012  10.016   6.005   6.155  0.9322  1.1196 -0.0478
 1001MOL0     C35013  10.082   5.889   6.250 -1.0099 -0.3268  0.1613
 1001MOL0     C35014  10.189   5.956   6.343  0.8267  0.5714  0.0895
 1001MOL0     C35015  10.243   5.849   6.446  0.7616  0.7745 -0.1680
 1001MOL0     C35016  10.310   5.735   6.387  0.5945 -0.3477 -0.7623
 1001MOL0     N35017  10.440   5.798   6.359  0.3904 -0.8740  0.4140
 1001MOL0     C35018  10.500   5.782   6.238 -1.0141 -0.8711  0.4923
 1001MOL0     C35019  10.632   5.814   6.259 -0.4495  0.7977 -0.2151
 1001MOL0     C35020  10.742   5.779   6.163  1.3637 -0.1217 -0.6302
 1001MOL0     C35021  10.739   5.631   6.145 -0.3939  0.0692 -0.5179
 1001MOL0     C35022  10.769   5.537   6.263  0.5452  0.6951  0.1699
 1001MOL0     C35023  10.769   5.389   6.219  0.0349  0.1535  0.1631
 1001MOL0     O35024  10.653   5.359   6.140 -0.0881 -0.0743  0.1496
 1001MOL0     C35025  10.537   5.340   6.208 -0.4388  0.6736 -0.2991
 1001MOL0     C35026  10.421   5.399   6.151  0.1836  0.5331  0.1188
 1001MOL0     C35027  10.296   5.403   6.208 -0.2831 -0.3345  0.5149
 1001MOL0     C35028  10.172   5.464   6.132 -0.2512 -0.3683 -0.3397
 1001MOL0     C35029  10.287   5.341   6.333 -1.0312  0.0684 -0.4356
 1001MOL0     C35030  10.165   5.329   6.413 -0.1368 -0.5342 -0.6089
 1001MOL0     O35031  10.159   5.232   6.510  0.3809 -0.6775  0.1257
 1001MOL0     C35032  10.051   5.148   6.512 -0.0424  0.7135  0.3244
 1001MOL0     C35033   9.967   5.131   6.619 -0.4972 -0.0746 -0.2459
 1001MOL0     C35034   9.856   5.041   6.613 -1.0763  0.6180  0.3137
 1001MOL0     C35035   9.839   4.960   6.501 -0.0082  0.7130  0.0804
 1001MOL0     O35036   9.741   4.864   6.508 -0.3711 -0.0227 -0.0696
 1001MOL0     C35037   9.658   4.831   6.398  0.1303 -0.1357  1.3495
 1001MOL0     C35038   9.562   4.712   6.432  0.0472  0.3770  0.4535
 1001MOL0     C35039   9.495   4.766   6.562 -0.0075  0.0622  0.2076
 1001MOL0     C35040   9.382   4.667   6.589  0.7895  0.0822  0.3600
 1001MOL0     C35041   9.241   4.732   6.582  0.1432  0.3347 -0.3461
 1001MOL0     C35042   9.122   4.636   6.553  0.7803  0.2631 -0.0868
 1001MOL0     C35043   8.988   4.700   6.525  0.7944  0.0497  0.2372
 1001MOL0     C35044   8.880   4.604   6.469 -0.9918 -0.0737 -0.6507
 1001MOL0    Cl35045   8.748   4.722   6.453  0.1110  0.3782 -0.4154
 1001MOL0     C35046   9.924   4.977   6.396 -0.0357 -0.3359 -0.3968
 1001MOL0     C35047  10.023   5.072   6.396 -0.3396 -0.1170 -0.6659
 1001MOL0     O35048  10.069   5.404   6.394 -0.4594  0.3129  0.6341
 1001MOL0     C35049  10.400   5.267   6.385  0.0909 -0.2633 -0.5784
 1001MOL0     C35050  10.520   5.279   6.329 -0.4403  0.3347 -0.1481
 1001MOL0     N35051  10.646   5.846   6.394  0.0736 -0.5561  0.9966
 1001MOL0     N35052  10.535   5.838   6.449  0.6455  0.0555 -0.0533
 1001MOL0     C35053   9.489   5.892   5.786  0.5747 -0.1192 -0.2261
 1001MOL0     C35054   9.384   5.895   5.682  0.1009  0.4252  0.1251
 1001MOL0     C35055   9.121   5.859   5.328 -0.2282  0.3455 -0.1155
 1001MOL0     C35056   9.162   5.907   5.206 -0.1396 -0.6153 -0.0947
 1001MOL0     C35057   9.064   5.932   5.113  0.1588  0.1229 -0.4895
 1001MOL0     C35058   8.932   5.886   5.126  0.8319 -0.8999 -0.1822
 1001MOL0     O35059   8.843   5.897   5.018 -0.6897 -0.4267  0.6827
 1001MOL0     C35060   8.701   5.880   5.024  0.2948  0.0425  1.0280
 1001MOL0     C35061   8.646   5.892   4.878  0.3304 -0.3972 -0.3589
 1001MOL0     C35062   8.641   6.039   4.844  0.4320  0.4284  0.2056
 1001MOL0     C35063   8.538   6.069   4.726  0.1645  0.5414  0.0562
 1001MOL0     C35064   8.400   6.033   4.767 -0.6364 -0.0757 -0.4859
 1001MOL0     C35065   8.287   6.000   4.808 -0.1150  0.8270  0.1775
 1001MOL0     C35066   8.890   5.841   5.252 -0.6615  0.2339  0.0650
 1001MOL0     C35067   8.982   5.838   5.353 -0.0339  0.5495 -0.6525
 1001MOL0     H35068   9.586   5.935   5.412  0.3792 -2.4337  0.5276
 1001MOL0     H35069   9.765   5.916   5.596  0.4766 -0.4199  0.4560
 1001MOL0     H35070   9.599   6.047   5.966 -1.5703 -0.3618 -1.6512
 1001MOL0     H35071   9.647   5.913   6.059  0.0278 -0.0995 -1.1040
 1001MOL0     H35072   9.847   6.110   5.946  1.4681 -0.9645  0.0895
 1001MOL0     H35073   9.784   6.110   6.108  0.1543 -2.6422  1.5441
 1001MOL0     H35074   9.854   5.874   6.144  0.5555  1.3927  1.8273
 1001MOL0     H35075   9.944   5.887   5.987  0.2129  0.5118  0.3512
 1001MOL0     H35076  10.086   6.044   6.080  3.1454 -0.2655  1.1743
 1001MOL0     H35077   9.980   6.083   6.223 -0.8899  1.2436 -1.1020
 1001MOL0     H35078  10.002   5.845   6.311 -1.7230  2.4255  1.3457
 1001MOL0     H35079  10.135   5.813   6.192  0.2137 -0.0159  0.8426
 1001MOL0     H35080  10.260   6.012   6.282 -0.4878  2.3689  0.1684
 1001MOL0     H35081  10.138   6.038   6.394  0.5309  1.9173 -2.2257
 1001MOL0     H35082  10.303   5.900   6.521  1.4501  1.1794 -0.9846
 1001MOL0     H35083  10.160   5.803   6.502  1.9885 -1.2656  0.0975
 1001MOL0     H35084  10.261   5.689   6.300 -0.0353 -2.0762  0.4485
 1001MOL0     H35085  10.313   5.654   6.460 -0.7580 -0.6746 -1.0421
 1001MOL0     H35086  10.445   5.746   6.152  0.0351  0.4355 -0.7700
 1001MOL0     H35087  10.715   5.806   6.061  0.1676 -0.7669 -0.5004
 1001MOL0     H35088  10.838   5.823   6.194  0.1365  3.9428 -2.0131
 1001MOL0     H35089  10.811   5.596   6.070 -1.5053 -0.1822 -1.5100
 1001MOL0     H35090  10.639   5.600   6.113 -0.2944  0.8933 -1.7271
 1001MOL0     H35091  10.699   5.553   6.346  0.1785 -0.3209  0.0745
 1001MOL0     H35092  10.875   5.550   6.289  1.7341 -1.1488 -3.1031
 1001MOL0     H35093  10.785   5.322   6.305  2.7599 -1.1056 -1.1951
 1001MOL0     H35094  10.866   5.366   6.174 -1.2902 -0.1374 -2.7820
 1001MOL0     H35095  10.441   5.444   6.054 -2.3847 -0.0691 -0.7907
 1001MOL0     H35096  10.085   5.400   6.149  0.7831 -2.6306 -2.7842
 1001MOL0     H35097  10.142   5.562   6.171 -0.6910 -0.0555 -1.4068
 1001MOL0     H35098  10.192   5.475   6.025 -0.8545  1.7592 -0.2914
 1001MOL0     H35099   9.979   5.201   6.701 -1.4754 -0.8958  0.6320
 1001MOL0     H35100   9.783   5.039   6.694 -3.4327 -0.8521 -1.6763
 1001MOL0     H35101   9.603   4.919   6.364 -0.2383 -1.6715 -2.5008
 1001MOL0     H35102   9.719   4.796   6.314 -3.5474 -2.9529 -0.4380
 1001MOL0     H35103   9.489   4.694   6.354  1.8751  2.9549 -2.0480
 1001MOL0     H35104   9.617   4.621   6.457 -2.2778 -1.1872  0.1439
 1001MOL0     H35105   9.463   4.869   6.541  3.0107  1.5209  2.0843
 1001MOL0     H35106   9.562   4.768   6.649 -0.3592 -5.0739  0.8926
 1001MOL0     H35107   9.381   4.582   6.522 -0.1131  0.2040  0.2163
 1001MOL0     H35108   9.403   4.634   6.691 -2.1662  4.4433  2.7244
 1001MOL0     H35109   9.232   4.819   6.517 -0.3778 -0.0459 -0.7908
 1001MOL0     H35110   9.223   4.764   6.685  0.4380 -1.0431  0.1571
 1001MOL0     H35111   9.152   4.587   6.459  0.4310 -0.1143 -0.0086
 1001MOL0     H35112   9.112   4.564   6.635 -0.3668  0.7595  0.2320
 1001MOL0     H35113   9.011   4.781   6.455 -1.1760  0.9128  0.4935
 1001MOL0     H35114   8.965   4.754   6.618  3.1627  1.8373 -0.1253
 1001MOL0     H35115   8.852   4.524   6.539  0.7389  0.4724  0.7337
 1001MOL0     H35116   8.905   4.566   6.370  1.9262  3.7321 -1.6042
 1001MOL0     H35117   9.912   4.921   6.304 -0.1230 -1.8051  0.4897
 1001MOL0     H35118  10.092   5.058   6.313 -0.1758  0.4775 -0.6362
 1001MOL0     H35119  10.399   5.207   6.475  2.9693 -2.3017 -1.7420
 1001MOL0     H35120  10.610   5.242   6.377 -0.9687 -0.2514  0.4137
 1001MOL0     H35121   9.454   5.899   5.888 -0.3654  2.2543 -0.6598
 1001MOL0     H35122   9.290   5.858   5.722  0.1234  1.1861  0.9155
 1001MOL0     H35123   9.266   5.902   5.177 -0.2473 -4.0138 -0.2410
 1001MOL0     H35124   9.104   5.968   5.018 -0.2598  0.9063 -0.3779
 1001MOL0     H35125   8.664   5.785   5.064 -2.0633  1.1678  1.6932
 1001MOL0     H35126   8.652   5.955   5.086  0.9299  1.0857  0.2993
 1001MOL0     H35127   8.556   5.830   4.875  0.0695 -0.0483  0.1911
 1001MOL0     H35128   8.719   5.840   4.815  1.9490  1.1517  0.1442
 1001MOL0     H35129   8.743   6.062   4.814  0.6962  0.4365  1.0803
 1001MOL0     H35130   8.602   6.104   4.923 -2.5788 -1.1311  0.1646
 1001MOL0     H35131   8.564   6.029   4.627 -2.5987  0.9742 -0.9648
 1001MOL0     H35132   8.543   6.178   4.717 -0.9741  0.9156  3.0484
 1001MOL0     H35133   8.191   5.972   4.846 -0.1564  3.2662  2.0851
 1001MOL0     H35134   8.787   5.812   5.268 -0.3007  0.5350  3.9064
 1001MOL0     H35135   8.945   5.793   5.445 -4.3723 -2.9053 -3.6028
 1002MOL0     O35136   7.531   5.158   5.544  0.2104 -0.4756 -0.1242
 1002MOL0     C35137   7.461   5.248   5.589  0.5250  0.6682  0.2214
 1002MOL0     O35138   7.340   5.277   5.541  0.7195  0.1294 -0.4175
 1002MOL0     C35139   7.278   5.191   5.451  0.6839 -0.9645  0.1985
 1002MOL0     C35140   7.306   5.052   5.426  0.4272 -0.5294 -1.4172
 1002MOL0     C35141   7.234   4.989   5.320  0.0842 -0.3390  0.2168
 1002MOL0     C35142   7.132   5.055   5.253  0.4651 -0.3531  0.9068
 1002MOL0     O35143   7.061   4.998   5.153  0.3318  0.6209 -0.0974
 1002MOL0     C35144   7.130   4.928   5.047  0.3976 -0.1249  0.9507
 1002MOL0     C35145   7.216   5.033   4.963 -0.2422 -0.3671 -0.1077
 1002MOL0     C35146   7.241   4.983   4.816 -0.7004 -0.3861  0.2463
 1002MOL0     C35147   7.337   4.858   4.827  0.7617  0.4731  0.6487
 1002MOL0     C35148   7.336   4.776   4.688 -0.1256 -0.0071  0.6359
 1002MOL0     C35149   7.439   4.659   4.694 -0.5003  0.3630  0.5286
 1002MOL0     C35150   7.462   4.619   4.540 -0.8580 -0.1254 -0.2242
 1002MOL0     C35151   7.366   4.503   4.503  0.1606  0.5135 -0.3529
 1002MOL0     N35152   7.373   4.475   4.352  0.1627 -0.8513 -0.0688
 1002MOL0     C35153   7.329   4.569   4.257  0.7225 -0.5490 -0.6193
 1002MOL0     C35154   7.319   4.487   4.152 -0.3357 -0.7365 -0.6852
 1002MOL0     C35155   7.279   4.532   4.021 -0.0799 -0.3004  0.2081
 1002MOL0     C35156   7.401   4.517   3.930 -0.8470  0.3066  0.2847
 1002MOL0     C35157   7.393   4.619   3.813 -0.2997  0.7986 -0.4869
 1002MOL0     C35158   7.516   4.603   3.715  0.0034  0.5770 -0.0315
 1002MOL0     O35159   7.492   4.702   3.612  0.2995 -0.1317 -0.0069
 1002MOL0     C35160   7.424   4.658   3.497  0.6411  0.2772 -0.5584
 1002MOL0     C35161   7.398   4.747   3.392 -0.6720  0.4547 -0.0307
 1002MOL0     C35162   7.332   4.716   3.275 -0.6703 -0.3022 -0.9764
 1002MOL0     C35163   7.351   4.806   3.160  0.1593  0.2376 -0.3868
 1002MOL0     C35164   7.265   4.592   3.273 -2.0725  0.0370  0.1815
 1002MOL0     C35165   7.189   4.545   3.164 -0.1134  0.0922  0.0312
 1002MOL0     O35166   7.066   4.486   3.198  0.7994 -0.1804 -0.3701
 1002MOL0     C35167   6.983   4.432   3.100 -0.7209  0.2896  0.1152
 1002MOL0     C35168   6.854   4.489   3.067 -1.1324  0.0969  0.1522
 1002MOL0     C35169   6.764   4.433   2.977 -0.4465  0.6100  0.5820
 1002MOL0     C35170   6.810   4.318   2.895  0.4791 -0.5749 -0.2571
 1002MOL0     O35171   6.742   4.241   2.800  0.3254  0.4438  0.2641
 1002MOL0     C35172   6.604   4.281   2.785  0.7361  0.4141 -1.1918
 1002MOL0     C35173   6.572   4.388   2.677 -0.2299  0.0484  0.1661
 1002MOL0     C35174   6.420   4.420   2.684 -0.8591 -0.0500 -0.7255
 1002MOL0     C35175   6.382   4.514   2.805 -0.5391 -0.4626  1.2087
 1002MOL0     C35176   6.284   4.459   2.915  0.5507  0.0204  0.2655
 1002MOL0     C35177   6.148   4.418   2.864  0.5477  0.1616 -0.1944
 1002MOL0     C35178   6.070   4.542   2.816  0.4884 -0.4762 -0.5014
 1002MOL0     C35179   5.954   4.501   2.728 -0.0117 -0.4236  0.1763
 1002MOL0    Cl35180   6.009   4.413   2.582  0.5216 -0.1630  0.5833
 1002MOL0     C35181   6.933   4.262   2.928 -0.3600  0.6121  0.5898
 1002MOL0     C35182   7.021   4.316   3.025  0.9187  0.1091 -0.2464
 1002MOL0     O35183   7.220   4.567   3.045 -0.2842 -0.3548  0.4797
 1002MOL0     C35184   7.284   4.492   3.373  0.8740 -0.2794  0.1508
 1002MOL0     C35185   7.360   4.522   3.485 -0.1906 -0.3340 -0.0081
 1002MOL0     N35186   7.366   4.362   4.168  0.5166 -0.7047 -0.3731
 1002MOL0     N35187   7.395   4.351   4.289 -0.3055 -0.6728  0.9090
 1002MOL0     C35188   7.098   5.186   5.276 -1.0714 -0.9668  0.2216
 1002MOL0     C35189   7.168   5.261   5.372 -0.0407 -0.4136 -0.2212
 1002MOL0     C35190   7.516   5.322   5.703  0.0606 -0.3914  0.5249
 1002MOL0     C35191   7.650   5.358   5.719 -0.7044  0.2084  0.1029
 1002MOL0     C35192   7.702   5.444   5.815  0.4747  0.5799  0.1745
 1002MOL0     C35193   7.607   5.516   5.890  0.3675 -1.2059  0.0169
 1002MOL0     O35194   7.626   5.608   5.982  0.2880  0.3689 -0.2198
 1002MOL0     C35195   7.738   5.706   5.974 -0.0113 -0.0219  0.2328
 1002MOL0     C35196   7.714   5.836   6.044  1.2877  0.1467  0.2303
 1002MOL0     C35197   7.817   5.943   6.013  0.5884 -0.4376 -0.0632
 1002MOL0     C35198   7.799   6.077   6.093  0.3532  0.3724  0.3517
 1002MOL0     C35199   7.681   6.143   6.038  0.3418  0.5132 -0.6912
 1002MOL0     C35200   7.583   6.205   5.995 -0.5735  0.2854 -0.3438
 1002MOL0     C35201   7.470   5.485   5.867  0.5387 -0.8956 -0.0833
 1002MOL0     C35202   7.428   5.399   5.773  0.8785 -0.0858  0.0102
 1002MOL0     H35203   7.393   5.001   5.466  1.5044  2.3873  0.2258
 1002MOL0     H35204   7.252   4.889   5.282  0.7269 -0.1863  0.1024
 1002MOL0     H35205   7.174   4.834   5.083 -0.2635  0.5426  3.7362
 1002MOL0     H35206   7.053   4.890   4.979  2.4530 -1.5544 -0.7061
 1002MOL0     H35207   7.161   5.126   4.948  1.5095  0.6534 -0.5317
 1002MOL0     H35208   7.308   5.055   5.019 -1.1353  1.0876  0.8732
 1002MOL0     H35209   7.151   4.942   4.769 -1.0763  0.3840  0.2664
 1002MOL0     H35210   7.301   5.062   4.771  0.2811 -0.8309  0.7419
 1002MOL0     H35211   7.441   4.879   4.851  0.5664 -1.3890  3.6714
 1002MOL0     H35212   7.284   4.789   4.894 -0.8759  1.0788  0.0310
 1002MOL0     H35213   7.234   4.740   4.674 -0.2119 -0.0657  1.3699
 1002MOL0     H35214   7.360   4.841   4.603  1.3088 -1.1003  0.1500
 1002MOL0     H35215   7.535   4.699   4.727  2.3064 -0.5060 -5.1918
 1002MOL0     H35216   7.392   4.578   4.751 -0.1057  0.4257  0.9410
 1002MOL0     H35217   7.452   4.701   4.469 -0.9913  0.7166  0.7349
 1002MOL0     H35218   7.567   4.594   4.528  0.0036  2.8330  0.4408
 1002MOL0     H35219   7.263   4.529   4.531 -1.1573  0.6670 -4.5605
 1002MOL0     H35220   7.403   4.422   4.565  0.0394  0.3089 -0.5453
 1002MOL0     H35221   7.303   4.673   4.268  4.5994  0.5638 -0.3596
 1002MOL0     H35222   7.195   4.470   3.988 -2.6101  2.1589  1.5982
 1002MOL0     H35223   7.245   4.636   4.025  0.2517 -0.0418 -2.0916
 1002MOL0     H35224   7.401   4.415   3.891  2.4706  1.3260 -2.9175
 1002MOL0     H35225   7.491   4.543   3.986 -0.0008 -1.5074 -0.1742
 1002MOL0     H35226   7.395   4.722   3.849  1.5571  1.0270 -1.1437
 1002MOL0     H35227   7.302   4.603   3.754 -1.8609 -0.4217  2.0846
 1002MOL0     H35228   7.539   4.503   3.676  0.7497  0.8984 -0.4363
 1002MOL0     H35229   7.607   4.631   3.769  0.4903 -0.3227 -0.3541
 1002MOL0     H35230   7.449   4.842   3.402  2.4982 -0.8828 -2.0257
 1002MOL0     H35231   7.418   4.756   3.089  0.4685  0.3235 -0.1573
 1002MOL0     H35232   7.253   4.824   3.115  0.8810 -1.6666 -2.9378
 1002MOL0     H35233   7.401   4.896   3.196  1.8494 -2.3472  4.7377
 1002MOL0     H35234   6.822   4.582   3.113 -1.4724  1.2198 -2.1859
 1002MOL0     H35235   6.677   4.491   2.948  2.6610  5.9486  0.5423
 1002MOL0     H35236   6.533   4.203   2.755 -1.5582  1.8265  0.2770
 1002MOL0     H35237   6.563   4.317   2.879  1.1329  1.3490 -1.3663
 1002MOL0     H35238   6.628   4.479   2.695 -0.2748  0.4295 -1.4239
 1002MOL0     H35239   6.598   4.363   2.574 -0.1953  1.4024 -0.1635
 1002MOL0     H35240   6.358   4.330   2.684  0.1025 -0.7576 -2.5066
 1002MOL0     H35241   6.396   4.473   2.592  1.9786  2.6206 -0.1214
 1002MOL0     H35242   6.473   4.552   2.854 -0.2658  1.4618 -0.6120
 1002MOL0     H35243   6.335   4.607   2.771 -0.3942 -0.9507 -0.3912
 1002MOL0     H35244   6.271   4.528   2.999 -3.8954  1.1221 -1.0382
 1002MOL0     H35245   6.327   4.368   2.957  1.5117 -0.3939 -1.5156
 1002MOL0     H35246   6.161   4.345   2.784  0.7172  0.8117 -0.7722
 1002MOL0     H35247   6.077   4.377   2.936 -0.9748  3.6605  0.5122
 1002MOL0     H35248   6.119   4.615   2.750 -2.4631  0.3187 -1.9702
 1002MOL0     H35249   6.040   4.592   2.909  1.6212 -1.1158  0.2427
 1002MOL0     H35250   5.898   4.591   2.702  0.5266  0.0267  0.5626
 1002MOL0     H35251   5.900   4.432   2.793  1.9382 -0.6696  1.6266
 1002MOL0     H35252   6.973   4.177   2.874  0.4561  2.0807 -1.2167
 1002MOL0     H35253   7.123   4.281   3.027  0.8867 -0.2133 -2.2079
 1002MOL0     H35254   7.235   4.396   3.363  0.3810  0.0861 -1.0424
 1002MOL0     H35255   7.354   4.443   3.559 -1.2071 -1.9490 -1.7421
 1002MOL0     H35256   7.022   5.236   5.216 -0.3219 -0.6338 -0.4704
 1002MOL0     H35257   7.152   5.369   5.375 -0.1661 -0.4441  2.0195
 1002MOL0     H35258   7.720   5.315   5.648  1.7367  2.6874  0.8159
 1002MOL0     H35259   7.809   5.462   5.813  0.4582  1.2437  2.4645
 1002MOL0     H35260   7.825   5.662   6.023 -1.9368 -3.0265  1.2444
 1002MOL0     H35261   7.755   5.733   5.870 -0.2618  0.6422  0.3539
 1002MOL0     H35262   7.701   5.805   6.148  0.7687 -0.4478 -0.0135
 1002MOL0     H35263   7.618   5.872   6.006 -0.1450 -3.6012 -0.0443
 1002MOL0     H35264   7.822   5.963   5.906 -4.6503  1.3614 -0.2681
 1002MOL0     H35265   7.907   5.906   6.063 -1.3892 -1.6011  2.9593
 1002MOL0     H35266   7.871   6.160   6.089 -0.5192  1.3268  2.6299
 1002MOL0     H35267   7.790   6.050   6.199  0.5838 -1.3076 -0.0343
 1002MOL0     H35268   7.498   6.261   5.962  0.6731  2.5412  0.0446
 1002MOL0     H35269   7.389   5.539   5.916  0.9809  1.5685 -1.8173
 1002MOL0     H35270   7.323   5.404   5.745  1.7506  0.6221 -3.7679
 1003MOL0     O35271   2.416   1.506  11.055 -0.2824 -0.2396 -0.1278
 1003MOL0     C35272   2.363   1.601  11.016 -0.5328 -0.2972 -0.3288
 1003MOL0     O35273   2.379   1.647  10.889  0.1993 -0.4163 -0.3756
 1003MOL0     C35274   2.485   1.613  10.806  0.1488  0.3908  0.6233
 1003MOL0     C35275   2.575   1.510  10.806  0.1149 -1.2787 -0.0239
 1003MOL0     C35276   2.668   1.504  10.695  0.3545 -0.1326  0.8195
 1003MOL0     C35277   2.672   1.600  10.590 -0.1665  0.4918 -0.5445
 1003MOL0     O35278   2.796   1.602  10.515 -0.5884  0.6650  0.3412
 1003MOL0     C35279   2.802   1.675  10.382  0.7740  0.0655 -0.6507
 1003MOL0     C35280   2.943   1.715  10.369  0.4853 -0.1373  0.0311
 1003MOL0     C35281   2.980   1.806  10.261 -0.8514 -0.7256  0.2484
 1003MOL0     C35282   2.971   1.741  10.123  0.7493  0.5324  0.2740
 1003MOL0     C35283   3.027   1.826  10.014 -0.6437 -0.4857 -0.2172
 1003MOL0     C35284   2.956   1.964   9.986 -0.0422 -0.1207 -0.7272
 1003MOL0     C35285   2.813   1.950   9.941 -0.2801 -0.7359 -0.0528
 1003MOL0     C35286   2.741   2.079   9.889 -0.2247  1.2053  0.4130
 1003MOL0     N35287   2.727   2.179  10.000 -0.3790  0.2978  0.5876
 1003MOL0     C35288   2.659   2.140  10.110 -0.2547  0.7858  0.4206
 1003MOL0     C35289   2.717   2.211  10.208  0.2874  0.9080 -0.1924
 1003MOL0     C35290   2.684   2.205  10.357 -0.8400  0.0256 -0.0355
 1003MOL0     C35291   2.759   2.082  10.420  0.0945 -0.2994  0.9734
 1003MOL0     C35292   2.723   2.075  10.569  0.4139 -1.4186  0.8621
 1003MOL0     C35293   2.791   1.962  10.641 -0.2578 -0.4053 -0.2546
 1003MOL0     O35294   2.945   1.976  10.629  0.2415 -0.1351 -0.1844
 1003MOL0     C35295   3.025   1.907  10.713 -0.7405  0.0560 -0.2796
 1003MOL0     C35296   3.135   1.969  10.781  0.8458  0.7753  0.0800
 1003MOL0     C35297   3.206   1.898  10.877 -0.5829 -0.2984  0.0256
 1003MOL0     C35298   3.311   1.976  10.956  0.7584 -0.4455 -0.4807
 1003MOL0     C35299   3.167   1.767  10.919  0.7526  0.3895  0.1153
 1003MOL0     C35300   3.203   1.699  11.042  0.6327 -0.2832 -0.0015
 1003MOL0     O35301   3.182   1.568  11.057  0.1171  0.2168  0.1957
 1003MOL0     C35302   3.236   1.513  11.165  0.2509  0.1166 -0.0898
 1003MOL0     C35303   3.347   1.433  11.159  0.0369 -0.8114 -0.1812
 1003MOL0     C35304   3.412   1.376  11.273  0.3270 -0.1041  0.7072
 1003MOL0     C35305   3.366   1.401  11.398  0.7510 -0.8359 -1.0328
 1003MOL0     O35306   3.431   1.361  11.508 -0.1290  0.1276 -0.0220
 1003MOL0     C35307   3.447   1.449  11.615 -0.8885  0.1651  0.2470
 1003MOL0     C35308   3.547   1.391  11.709  0.3831  0.2206 -0.7034
 1003MOL0     C35309   3.564   1.481  11.835  0.4940  0.0699  0.6205
 1003MOL0     C35310   3.650   1.409  11.945 -0.4677 -0.5648 -0.3767
 1003MOL0     C35311   3.710   1.508  12.051  0.6056  0.1346  0.0938
 1003MOL0     C35312   3.815   1.438  12.128 -0.8596 -0.3949 -0.2027
 1003MOL0     C35313   3.845   1.512  12.259 -0.5972 -0.4851  1.0776
 1003MOL0     C35314   3.995   1.523  12.284  0.4497 -0.2498 -1.3197
 1003MOL0    Cl35315   4.063   1.372  12.343 -0.0236  0.5560 -0.4382
 1003MOL0     C35316   3.251   1.475  11.408 -0.1112  0.5475  0.2044
 1003MOL0     C35317   3.184   1.526  11.294  0.8124  0.4696  0.0848
 1003MOL0     O35318   3.242   1.774  11.135  0.1237  0.4376 -0.1202
 1003MOL0     C35319   3.058   1.700  10.839 -0.3553  0.3313 -0.5741
 1003MOL0     C35320   2.993   1.774  10.743 -0.3116 -1.0616  1.1349
 1003MOL0     N35321   2.822   2.281  10.166 -0.5124 -0.4256  0.2312
 1003MOL0     N35322   2.833   2.260  10.031 -0.0376 -0.5098 -0.5260
 1003MOL0     C35323   2.572   1.697  10.580 -0.9369  0.6620 -0.3570
 1003MOL0     C35324   2.484   1.700  10.693  0.4375 -0.4887 -0.8847
 1003MOL0     C35325   2.263   1.669  11.090  0.6882 -0.0299  0.0174
 1003MOL0     C35326   2.288   1.717  11.224 -0.3106 -0.3226 -0.4096
 1003MOL0     C35327   2.175   1.772  11.289 -0.3096 -0.6037 -0.3132
 1003MOL0     C35328   2.049   1.800  11.216 -0.0583  0.6617  0.0386
 1003MOL0     O35329   1.946   1.870  11.259 -0.1847  0.9006 -0.0979
 1003MOL0     C35330   1.921   1.887  11.400 -0.3862  0.3745  0.3053
 1003MOL0     C35331   1.886   1.757  11.479  0.4056  0.3428  0.8559
 1003MOL0     C35332   1.829   1.794  11.616  0.4708 -0.2387 -0.6122
 1003MOL0     C35333   1.685   1.839  11.609 -0.1241 -0.2950  0.1277
 1003MOL0     C35334   1.586   1.736  11.580 -0.4703 -0.2225 -0.5188
 1003MOL0     C35335   1.497   1.654  11.586 -0.9367 -0.0542  0.3500
 1003MOL0     C35336   2.035   1.751  11.093  0.3459 -1.4286  0.5661
 1003MOL0     C35337   2.138   1.686  11.033 -0.9234  0.5395  0.3463
 1003MOL0     H35338   2.574   1.434  10.883  2.2532  1.6238  3.1400
 1003MOL0     H35339   2.746   1.429  10.703  1.9164  1.2098 -0.9152
 1003MOL0     H35340   2.759   1.624  10.295 -1.7347  0.2816  0.3711
 1003MOL0     H35341   2.741   1.765  10.374 -0.4170 -0.5616  0.7297
 1003MOL0     H35342   2.973   1.764  10.461  0.6592 -0.7699  0.3163
 1003MOL0     H35343   3.011   1.630  10.360  0.7023  0.0522 -0.0997
 1003MOL0     H35344   2.921   1.897  10.262  0.8503  0.4233  1.7015
 1003MOL0     H35345   3.082   1.840  10.279 -0.7441  1.2679 -3.2303
 1003MOL0     H35346   3.024   1.645  10.123 -0.2493 -0.0709 -1.3383
 1003MOL0     H35347   2.866   1.715  10.105  1.5503 -1.3928 -2.0515
 1003MOL0     H35348   3.132   1.842  10.040  0.2297 -2.6982 -2.0126
 1003MOL0     H35349   3.032   1.773   9.919 -2.2239 -1.2251  0.0856
 1003MOL0     H35350   2.959   2.039  10.065  0.3967 -0.2382 -0.6276
 1003MOL0     H35351   3.009   2.014   9.904  1.2133  0.2826  0.2924
 1003MOL0     H35352   2.814   1.884   9.853  0.3669 -0.4857 -0.2422
 1003MOL0     H35353   2.759   1.909  10.027  0.5445  1.1849  1.4603
 1003MOL0     H35354   2.640   2.053   9.856  0.1972 -1.5534  1.0605
 1003MOL0     H35355   2.801   2.128   9.811  0.0293 -2.3087 -1.8342
 1003MOL0     H35356   2.570   2.078  10.111  1.6067 -2.0859  2.2904
 1003MOL0     H35357   2.749   2.284  10.396  0.0309 -0.3316 -0.7154
 1003MOL0     H35358   2.578   2.219  10.378 -0.2453  1.2274  2.5828
 1003MOL0     H35359   2.867   2.082  10.403 -0.1648 -2.4222 -1.2076
 1003MOL0     H35360   2.718   1.992  10.372 -1.2834  1.4373 -1.3542
 1003MOL0     H35361   2.614   2.065  10.575  0.4160 -1.5176  0.7299
 1003MOL0     H35362   2.741   2.174  10.611 -1.5828  0.3381 -2.1182
 1003MOL0     H35363   2.763   1.862  10.608  1.5054 -1.0117 -0.0078
 1003MOL0     H35364   2.755   1.969  10.744 -0.3392  2.4171 -0.3951
 1003MOL0     H35365   3.161   2.075  10.776 -3.1885  1.8684 -1.6356
 1003MOL0     H35366   3.353   2.053  10.890 -1.1289  0.9291 -0.1718
 1003MOL0     H35367   3.250   2.028  11.030  0.4685 -1.9457  0.3701
 1003MOL0     H35368   3.394   1.924  11.003 -0.5873 -1.1262  1.2220
 1003MOL0     H35369   3.377   1.428  11.055 -0.8804  0.2663 -0.5158
 1003MOL0     H35370   3.487   1.301  11.248  1.2605  1.1014 -0.2469
 1003MOL0     H35371   3.479   1.547  11.578  2.4957  0.3350  3.1463
 1003MOL0     H35372   3.349   1.464  11.662 -0.7691  2.2232 -0.0717
 1003MOL0     H35373   3.515   1.291  11.739  1.8317  0.2225  0.9568
 1003MOL0     H35374   3.641   1.382  11.655 -0.5505 -1.2948 -2.1775
 1003MOL0     H35375   3.465   1.501  11.878  2.8106  1.1718  6.2071
 1003MOL0     H35376   3.607   1.574  11.797  0.7436  0.4250  1.7379
 1003MOL0     H35377   3.599   1.324  11.991 -5.2560  1.0134 -2.1158
 1003MOL0     H35378   3.740   1.364  11.903  1.4702  1.9658  0.7777
 1003MOL0     H35379   3.633   1.532  12.124 -0.4403 -2.9922  0.1561
 1003MOL0     H35380   3.767   1.584  11.996  1.7289 -2.0492 -1.9618
 1003MOL0     H35381   3.798   1.332  12.149  0.6968 -0.5263  0.5600
 1003MOL0     H35382   3.906   1.451  12.069 -0.2151 -1.0679  0.5997
 1003MOL0     H35383   3.794   1.461  12.341 -0.3792 -3.7796 -0.6562
 1003MOL0     H35384   3.828   1.618  12.239 -2.1701 -1.1937 -1.8898
 1003MOL0     H35385   3.993   1.586  12.374 -2.0884 -0.2677 -1.2957
 1003MOL0     H35386   4.051   1.565  12.200  1.5843 -1.6919 -1.3447
 1003MOL0     H35387   3.205   1.484  11.506 -0.0751 -2.1281  0.5232
 1003MOL0     H35388   3.089   1.578  11.304  0.0986 -0.4334 -1.6248
 1003MOL0     H35389   3.012   1.604  10.861  1.5462 -1.4664 -3.6619
 1003MOL0     H35390   2.908   1.734  10.689 -1.9078  3.2981 -0.0151
 1003MOL0     H35391   2.575   1.773  10.502  1.7920  0.9182 -0.0890
 1003MOL0     H35392   2.406   1.775  10.691  1.0838  0.2115 -0.6610
 1003MOL0     H35393   2.379   1.693  11.278 -0.2944 -2.6855 -1.3730
 1003MOL0     H35394   2.171   1.806  11.392 -1.1153  0.4030 -0.6659
 1003MOL0     H35395   1.994   1.953  11.447 -0.8921  1.3162 -0.2172
 1003MOL0     H35396   1.827   1.942  11.398 -1.0120 -0.6101  1.1966
 1003MOL0     H35397   1.975   1.692  11.473 -2.1308 -3.3055 -2.8130
 1003MOL0     H35398   1.811   1.697  11.427  2.4545 -0.1146 -1.8093
 1003MOL0     H35399   1.893   1.869  11.664 -0.5273  0.8896 -0.9876
 1003MOL0     H35400   1.821   1.705  11.680  2.5877 -0.7091 -0.9592
 1003MOL0     H35401   1.670   1.918  11.535 -0.4487 -0.1514  0.3445
 1003MOL0     H35402   1.660   1.879  11.708  0.3694 -0.6044  0.3835
 1003MOL0     H35403   1.422   1.578  11.593 -0.4437 -1.1419 -3.7328
 1003MOL0     H35404   1.938   1.770  11.049  1.7701 -1.6396 -3.0079
 1003MOL0     H35405   2.119   1.653  10.932 -1.8669  0.0470  0.6721
 1004MOL0     O35406   3.353   4.148  11.058  0.8733  0.6029  0.5575
 1004MOL0     C35407   3.412   4.047  11.083 -0.0823 -0.5153 -0.3021
 1004MOL0     O35408   3.350   3.925  11.087 -0.6510 -0.0855  0.8914
 1004MOL0     C35409   3.217   3.912  11.111  0.4887  0.3737 -0.0536
 1004MOL0     C35410   3.128   3.835  11.029  1.1520 -1.2088 -0.6577
 1004MOL0     C35411   2.996   3.821  11.082  0.7401  0.0213  0.0420
 1004MOL0     C35412   2.958   3.874  11.206  0.2855 -0.2752 -0.3212
 1004MOL0     O35413   2.835   3.862  11.264 -0.7367 -0.2948 -0.4754
 1004MOL0     C35414   2.739   3.790  11.187  0.3519 -0.4837 -0.0241
 1004MOL0     C35415   2.605   3.802  11.256 -0.7502 -0.0319 -0.4062
 1004MOL0     C35416   2.553   3.951  11.240 -0.1543 -0.5427 -0.3820
 1004MOL0     C35417   2.486   3.966  11.104 -0.2875  0.0108  0.1530
 1004MOL0     C35418   2.417   4.101  11.088  0.0368 -0.8903 -0.0565
 1004MOL0     C35419   2.335   4.126  10.948 -0.0158  0.7035 -0.2660
 1004MOL0     C35420   2.204   4.053  10.943 -1.0281  1.0883 -0.3243
 1004MOL0     C35421   2.124   4.061  10.810 -1.3496 -0.3471 -0.1502
 1004MOL0     N35422   2.001   3.976  10.826 -0.6192 -0.1978  0.4390
 1004MOL0     C35423   1.876   4.026  10.859 -0.2418  0.5784 -0.1704
 1004MOL0     C35424   1.798   3.914  10.847 -0.8324 -0.2055 -0.0203
 1004MOL0     C35425   1.644   3.903  10.867 -1.3833 -0.5358 -0.0377
 1004MOL0     C35426   1.588   3.996  10.761 -0.3088  0.4337 -0.4172
 1004MOL0     C35427   1.427   3.999  10.785 -0.2821  0.0705  0.7313
 1004MOL0     C35428   1.360   4.066  10.667 -0.1747  0.1357  0.5854
 1004MOL0     O35429   1.415   4.040  10.533 -0.9015  0.8060  0.0140
 1004MOL0     C35430   1.365   4.098  10.425 -0.5059  0.9530  0.0627
 1004MOL0     C35431   1.238   4.159  10.423  0.3015  0.1191 -0.0700
 1004MOL0     C35432   1.192   4.214  10.299 -0.9087 -1.3628  0.0965
 1004MOL0     C35433   1.057   4.274  10.297  0.0130 -0.0560 -0.4585
 1004MOL0     C35434   1.275   4.209  10.182  0.4506 -0.2718 -0.2885
 1004MOL0     C35435   1.225   4.281  10.062 -0.5162  0.5929  0.4699
 1004MOL0     O35436   1.213   4.217   9.946 -0.2543  0.2534 -0.6327
 1004MOL0     C35437   1.223   4.292   9.837 -0.0087  0.7881 -0.1577
 1004MOL0     C35438   1.288   4.413   9.815  0.7326  0.5220  0.0535
 1004MOL0     C35439   1.299   4.468   9.688 -0.2846 -0.1563 -0.1244
 1004MOL0     C35440   1.247   4.402   9.573  0.3185 -0.3415  0.6960
 1004MOL0     O35441   1.257   4.446   9.443  0.8751 -0.6257 -0.4770
 1004MOL0     C35442   1.356   4.548   9.425  0.5148  0.2579  1.1456
 1004MOL0     C35443   1.343   4.599   9.278 -1.1289  0.2949 -0.2322
 1004MOL0     C35444   1.226   4.690   9.264 -1.3044 -0.0768 -0.3645
 1004MOL0     C35445   1.249   4.817   9.185  0.0310 -0.5302  0.3364
 1004MOL0     C35446   1.159   4.820   9.075  0.4122  0.0771  0.6095
 1004MOL0     C35447   1.205   4.945   8.986 -0.1055 -0.6216 -0.2728
 1004MOL0     C35448   1.099   4.993   8.884  0.8560 -0.5674  1.1783
 1004MOL0     C35449   1.089   4.895   8.757  0.4711 -0.0799 -0.0090
 1004MOL0    Cl35450   1.246   4.885   8.677  0.3936  0.3721  0.1532
 1004MOL0     C35451   1.161   4.293   9.600  0.0840  0.0640 -0.0898
 1004MOL0     C35452   1.165   4.228   9.729  0.4242 -0.6836  0.1442
 1004MOL0     O35453   1.205   4.398  10.082  0.5304  0.4867  0.1703
 1004MOL0     C35454   1.391   4.128  10.187 -0.2054 -0.8520 -0.4854
 1004MOL0     C35455   1.437   4.084  10.302 -0.5051  0.2417 -0.3314
 1004MOL0     N35456   1.864   3.810  10.787  0.0822 -0.5657  1.0266
 1004MOL0     N35457   1.991   3.846  10.783  0.3796  0.1121 -0.5244
 1004MOL0     C35458   3.053   3.932  11.286  0.1868  0.8685  0.0956
 1004MOL0     C35459   3.179   3.944  11.243 -0.9533 -0.0262  0.3520
 1004MOL0     C35460   3.560   4.046  11.091  0.6121  0.2850  0.8667
 1004MOL0     C35461   3.628   3.933  11.119 -0.6781  0.4567  0.4127
 1004MOL0     C35462   3.765   3.916  11.106  0.4823  0.2343  0.3721
 1004MOL0     C35463   3.838   4.025  11.064  0.2275 -0.5534 -0.5685
 1004MOL0     O35464   3.970   4.016  11.040  0.5920 -0.1258  0.4374
 1004MOL0     C35465   4.060   3.905  11.047 -0.0259 -0.2993  0.6643
 1004MOL0     C35466   4.150   3.908  10.927  0.7681  0.2057 -0.0718
 1004MOL0     C35467   4.082   3.848  10.808 -0.7974 -0.1498 -0.0954
 1004MOL0     C35468   4.147   3.877  10.672 -0.1102  1.0590  0.3812
 1004MOL0     C35469   4.269   3.809  10.635  0.5172  0.2466 -1.0053
 1004MOL0     C35470   4.376   3.779  10.589  0.7070 -0.1890 -0.6748
 1004MOL0     C35471   3.775   4.147  11.040 -0.7595 -0.2641  0.6942
 1004MOL0     C35472   3.639   4.152  11.047 -0.8891  0.5363 -0.0014
 1004MOL0     H35473   3.151   3.807  10.926 -2.5298  2.8062 -2.9418
 1004MOL0     H35474   2.920   3.774  11.020 -1.6397  1.8466  1.4173
 1004MOL0     H35475   2.741   3.821  11.082  0.3341  0.7328  0.3239
 1004MOL0     H35476   2.755   3.682  11.194  0.7869 -0.4397 -0.2849
 1004MOL0     H35477   2.539   3.727  11.211  1.1683  0.6205 -4.7830
 1004MOL0     H35478   2.621   3.781  11.363 -0.4518  0.7721 -0.2863
 1004MOL0     H35479   2.477   3.975  11.316  0.4044  0.8072 -0.2162
 1004MOL0     H35480   2.633   4.024  11.256  0.4489 -1.3968  0.6945
 1004MOL0     H35481   2.572   3.982  11.038  1.0118 -0.4356  1.6848
 1004MOL0     H35482   2.419   3.881  11.086 -3.7002  2.2599  1.3881
 1004MOL0     H35483   2.341   4.104  11.167  0.4021  0.1551  0.2815
 1004MOL0     H35484   2.490   4.181  11.103  0.2439 -1.1350  0.2605
 1004MOL0     H35485   2.312   4.229  10.919  3.5983  1.8400  0.4516
 1004MOL0     H35486   2.408   4.092  10.875 -0.1883 -1.0212  0.3054
 1004MOL0     H35487   2.228   3.951  10.973  3.4738  1.4635 -1.9051
 1004MOL0     H35488   2.139   4.094  11.021  0.3258 -1.2780  2.1654
 1004MOL0     H35489   2.191   4.035  10.728  0.7758  0.5200  1.2007
 1004MOL0     H35490   2.093   4.165  10.800  1.0226  0.5473  0.9432
 1004MOL0     H35491   1.857   4.122  10.904 -1.9579  0.1806  0.0463
 1004MOL0     H35492   1.607   3.804  10.839 -0.4544 -1.0608  0.5280
 1004MOL0     H35493   1.611   3.927  10.968 -3.6865 -3.4107  0.0222
 1004MOL0     H35494   1.614   3.962  10.661  0.7423  0.6076 -0.2173
 1004MOL0     H35495   1.621   4.101  10.762 -1.0498  0.6753  0.3567
 1004MOL0     H35496   1.407   4.055  10.877 -1.8780  1.6023 -0.4837
 1004MOL0     H35497   1.399   3.893  10.786  2.2647 -0.7647 -1.8892
 1004MOL0     H35498   1.357   4.176  10.666  2.9377  0.3212 -0.8818
 1004MOL0     H35499   1.254   4.038  10.672 -0.1573 -0.0162  0.1956
 1004MOL0     H35500   1.180   4.156  10.515  0.5801 -1.3388  0.0857
 1004MOL0     H35501   1.055   4.365  10.357  4.0274 -0.3780  0.5164
 1004MOL0     H35502   1.005   4.296  10.204  1.2265 -0.2434 -1.2083
 1004MOL0     H35503   0.993   4.199  10.345  3.0563 -2.3395  0.3692
 1004MOL0     H35504   1.337   4.464   9.897 -1.2876  1.2599  0.8668
 1004MOL0     H35505   1.366   4.553   9.681 -0.4192  0.2869  2.6923
 1004MOL0     H35506   1.353   4.646   9.474  0.5689  1.2977 -0.8460
 1004MOL0     H35507   1.455   4.502   9.419  0.1066 -0.8062  2.2061
 1004MOL0     H35508   1.434   4.657   9.262  0.8123 -2.5144 -0.0559
 1004MOL0     H35509   1.359   4.520   9.204  0.8328  2.5229 -2.3765
 1004MOL0     H35510   1.195   4.715   9.366  2.0145 -0.2117  0.7935
 1004MOL0     H35511   1.142   4.630   9.227 -2.7197  0.5317  1.6961
 1004MOL0     H35512   1.243   4.891   9.265  1.9339 -0.3584  0.3627
 1004MOL0     H35513   1.349   4.822   9.141 -0.6161  2.0067 -1.0741
 1004MOL0     H35514   1.057   4.834   9.111  0.5747  0.6078  0.8651
 1004MOL0     H35515   1.174   4.727   9.018  3.0870 -1.1217  3.0221
 1004MOL0     H35516   1.210   5.032   9.052  2.3630 -0.5802 -0.4068
 1004MOL0     H35517   1.305   4.930   8.944  1.0876  2.9099  0.9734
 1004MOL0     H35518   1.132   5.084   8.834 -4.0221 -0.0727 -1.7033
 1004MOL0     H35519   1.003   4.999   8.936  1.6335  0.9249  2.5184
 1004MOL0     H35520   1.020   4.927   8.678  0.9008 -1.9480 -1.2079
 1004MOL0     H35521   1.053   4.802   8.803  2.8338 -0.4436  1.2354
 1004MOL0     H35522   1.102   4.255   9.518  1.7532 -0.4943 -1.0718
 1004MOL0     H35523   1.111   4.135   9.742 -1.1767  0.2811  0.6551
 1004MOL0     H35524   1.438   4.101  10.093 -0.4204  2.8361 -1.8168
 1004MOL0     H35525   1.534   4.035  10.301 -0.6861 -0.1861  1.2672
 1004MOL0     H35526   3.024   3.954  11.388  1.2911  0.3268  0.5478
 1004MOL0     H35527   3.241   3.980  11.324  0.3270  3.3666 -1.9272
 1004MOL0     H35528   3.583   3.842  11.157  1.4379 -0.5700  0.6699
 1004MOL0     H35529   3.815   3.826  11.140 -1.4443 -1.1839 -0.3918
 1004MOL0     H35530   4.116   3.916  11.141 -2.2955  0.3959  2.0083
 1004MOL0     H35531   4.005   3.810  11.048  0.5364 -0.6903 -1.4818
 1004MOL0     H35532   4.241   3.848  10.940  0.4306 -0.0721  1.1703
 1004MOL0     H35533   4.183   4.011  10.916  2.4790 -0.3349 -0.2000
 1004MOL0     H35534   3.979   3.884  10.818 -0.7387 -0.5656  3.7283
 1004MOL0     H35535   4.076   3.741  10.829  1.6203 -0.5473 -1.0560
 1004MOL0     H35536   4.171   3.982  10.649 -1.0645  0.5557 -3.7336
 1004MOL0     H35537   4.074   3.841  10.599 -3.0839  1.0170  3.1675
 1004MOL0     H35538   4.468   3.752  10.542 -0.1587 -0.8628 -2.0373
 1004MOL0     H35539   3.834   4.232  11.006  1.3456 -1.8146  0.2508
 1004MOL0     H35540   3.592   4.244  11.015 -0.3652  1.0482  0.6750
 1005MOL0     O35541   3.777   9.998   1.721  0.8510 -0.6003  1.1653
 1005MOL0     C35542   3.671   9.932   1.733  1.1659  0.2472  0.2015
 1005MOL0     O35543   3.632   9.877   1.857 -0.4708 -0.0440 -0.1942
 1005MOL0     C35544   3.723   9.871   1.960  0.1219 -0.1335  0.1614
 1005MOL0     C35545   3.783   9.760   1.999 -0.7439  0.4590 -0.3847
 1005MOL0     C35546   3.838   9.736   2.128 -0.6833  0.0526 -0.7676
 1005MOL0     C35547   3.839   9.846   2.208 -0.1712 -0.6733 -0.1831
 1005MOL0     O35548   3.881   9.835   2.334  0.0314 -0.4112 -0.4759
 1005MOL0     C35549   3.766   9.771   2.404  0.1140  0.0996 -0.2411
 1005MOL0     C35550   3.776   9.838   2.534 -0.8949 -0.9119 -0.2144
 1005MOL0     C35551   3.660   9.779   2.621 -0.3383  0.9172  0.1320
 1005MOL0     C35552   3.704   9.789   2.763 -0.4388  0.3721 -0.3930
 1005MOL0     C35553   3.591   9.742   2.866  0.2245  0.9720 -0.1896
 1005MOL0     C35554   3.466   9.840   2.865 -0.9131  0.3583  0.2155
 1005MOL0     C35555   3.352   9.808   2.965 -0.4794  0.5454  0.5337
 1005MOL0     C35556   3.399   9.790   3.111 -0.2715  0.0520 -1.1174
 1005MOL0     N35557   3.295   9.758   3.216  0.1944  0.5393  0.4401
 1005MOL0     C35558   3.162   9.808   3.209  0.1649 -0.4173 -0.2299
 1005MOL0     C35559   3.115   9.796   3.338  0.4102 -0.0208  0.2489
 1005MOL0     C35560   2.975   9.842   3.377  0.5553 -0.8318 -0.2227
 1005MOL0     C35561   2.982   9.978   3.458  0.6821  0.7128  0.8760
 1005MOL0     C35562   3.037   9.983   3.605  0.5587 -0.7884  0.4030
 1005MOL0     C35563   3.090  10.127   3.633 -0.2106 -0.9017  0.9998
 1005MOL0     O35564   3.139  10.141   3.764 -0.1390 -0.5416  0.3380
 1005MOL0     C35565   3.141  10.264   3.831  0.4059 -0.3927 -0.4157
 1005MOL0     C35566   3.175  10.270   3.970 -0.3895 -0.3178 -0.8892
 1005MOL0     C35567   3.167  10.391   4.038  0.5565 -0.2358 -0.8831
 1005MOL0     C35568   3.189  10.392   4.180  0.2502  1.1516  0.5679
 1005MOL0     C35569   3.161  10.515   3.967  0.4730 -0.5260 -0.3019
 1005MOL0     C35570   3.186  10.652   4.017  0.3467 -0.7101  0.0841
 1005MOL0     O35571   3.125  10.760   3.958 -0.5319 -1.0239 -0.2638
 1005MOL0     C35572   3.161  10.896   3.976  0.3063  0.5555 -0.0273
 1005MOL0     C35573   3.293  10.914   4.014 -0.0104 -0.4410 -0.7041
 1005MOL0     C35574   3.345  11.044   4.028  0.4052  1.2313 -0.2429
 1005MOL0     C35575   3.264  11.162   4.008 -0.1556  0.2933 -0.5046
 1005MOL0     O35576   3.318  11.279   4.023  0.0091  0.0579  0.1315
 1005MOL0     C35577   3.313  11.368   3.908 -0.6171 -0.0869  0.3993
 1005MOL0     C35578   3.318  11.518   3.942  0.0526 -0.5123 -0.3870
 1005MOL0     C35579   3.185  11.549   4.018  0.0098 -0.0164 -0.1198
 1005MOL0     C35580   3.187  11.691   4.083 -0.5664 -0.0752 -0.1499
 1005MOL0     C35581   3.061  11.724   4.160  0.9416 -0.1796  0.2272
 1005MOL0     C35582   3.051  11.678   4.305 -0.1430 -0.0930 -0.7328
 1005MOL0     C35583   3.153  11.713   4.409 -0.3918  0.2855 -0.2352
 1005MOL0     C35584   3.119  11.652   4.542 -0.1489  0.5366 -0.5251
 1005MOL0    Cl35585   2.970  11.726   4.605  0.3761 -0.1868 -0.1567
 1005MOL0     C35586   3.130  11.137   3.970 -1.0224  0.1859 -0.7426
 1005MOL0     C35587   3.077  11.006   3.955 -0.2357 -0.3816  0.4011
 1005MOL0     O35588   3.249  10.661   4.125  0.3207  0.0028  0.0843
 1005MOL0     C35589   3.131  10.501   3.827 -0.0028  0.7209 -0.1535
 1005MOL0     C35590   3.115  10.380   3.765 -0.7152  0.1680  0.3383
 1005MOL0     N35591   3.210   9.732   3.416  0.2155  0.3353 -0.6865
 1005MOL0     N35592   3.316   9.711   3.343  0.2636 -0.7867  0.5608
 1005MOL0     C35593   3.778   9.966   2.171 -0.4792 -0.3102  0.2844
 1005MOL0     C35594   3.727   9.980   2.047 -0.0439 -0.6373 -0.3254
 1005MOL0     C35595   3.575   9.945   1.624  1.1252  0.5716 -0.0863
 1005MOL0     C35596   3.627   9.980   1.495  0.3421 -0.1976 -0.6622
 1005MOL0     C35597   3.542  10.006   1.389  0.2215 -1.1663 -0.3270
 1005MOL0     C35598   3.410   9.979   1.395  0.0447  0.9626 -1.1522
 1005MOL0     O35599   3.321   9.992   1.287 -0.3343 -0.2061  0.0989
 1005MOL0     C35600   3.331   9.890   1.188 -0.5691  0.6401 -0.4856
 1005MOL0     C35601   3.323   9.738   1.247 -0.1532 -0.0467  0.0338
 1005MOL0     C35602   3.322   9.631   1.155  0.3181 -0.4910  0.3337
 1005MOL0     C35603   3.464   9.611   1.088  0.4865 -0.4477  0.4112
 1005MOL0     C35604   3.480   9.486   1.005 -0.4117  0.2412 -0.2571
 1005MOL0     C35605   3.516   9.401   0.926 -0.2403  0.0587  0.7868
 1005MOL0     C35606   3.355   9.938   1.519  0.0483 -0.1953 -0.3404
 1005MOL0     C35607   3.437   9.917   1.633 -0.3525  0.2725 -0.3301
 1005MOL0     H35608   3.764   9.687   1.921 -0.2555  0.3306 -0.3877
 1005MOL0     H35609   3.862   9.636   2.162  2.4778  1.2145  0.7617
 1005MOL0     H35610   3.665   9.785   2.363  0.9812  5.0085 -1.4104
 1005MOL0     H35611   3.796   9.666   2.410  0.4213  0.0574 -1.9556
 1005MOL0     H35612   3.874   9.824   2.580 -0.8460  2.9851  1.3006
 1005MOL0     H35613   3.760   9.945   2.513  1.7921 -0.6257 -1.1819
 1005MOL0     H35614   3.568   9.838   2.614 -1.6535 -0.6011  2.9547
 1005MOL0     H35615   3.633   9.674   2.606 -1.8481  1.3714 -0.5679
 1005MOL0     H35616   3.782   9.714   2.778 -2.6311 -2.1163 -0.7497
 1005MOL0     H35617   3.748   9.888   2.781 -0.5406  1.0332 -3.2518
 1005MOL0     H35618   3.564   9.639   2.842 -3.1789  1.7378 -0.1698
 1005MOL0     H35619   3.642   9.742   2.963 -1.8490  0.0522  0.9804
 1005MOL0     H35620   3.505   9.937   2.896 -0.9334 -0.2948  2.4951
 1005MOL0     H35621   3.427   9.843   2.763  1.8455 -0.7415 -0.9405
 1005MOL0     H35622   3.266   9.875   2.966 -1.5902 -0.8028 -0.6697
 1005MOL0     H35623   3.317   9.711   2.928  1.4286  0.3482 -0.8511
 1005MOL0     H35624   3.444   9.882   3.150 -1.1645 -1.6049  4.7657
 1005MOL0     H35625   3.483   9.722   3.095 -0.1814  0.5727 -3.3129
 1005MOL0     H35626   3.107   9.843   3.123 -2.4408 -1.6858  0.8258
 1005MOL0     H35627   2.907   9.851   3.292  0.0103 -3.9405 -0.2559
 1005MOL0     H35628   2.934   9.772   3.451 -0.0592  0.0131  0.2496
 1005MOL0     H35629   2.881  10.019   3.467  0.2751  0.3179 -1.2968
 1005MOL0     H35630   3.044  10.047   3.399  0.2059  2.8338  2.7383
 1005MOL0     H35631   3.117   9.909   3.617  0.1645 -1.6695 -1.8858
 1005MOL0     H35632   2.958   9.961   3.677  0.0498 -0.4509 -0.0467
 1005MOL0     H35633   3.000  10.188   3.622 -0.8064 -1.9264  0.0726
 1005MOL0     H35634   3.160  10.164   3.557  1.0473 -0.5728  2.2650
 1005MOL0     H35635   3.195  10.179   4.025 -3.5285  1.3122  3.5318
 1005MOL0     H35636   3.294  10.388   4.211  0.0116  0.9016  1.3457
 1005MOL0     H35637   3.136  10.479   4.219 -0.0530  2.2806 -2.1070
 1005MOL0     H35638   3.135  10.309   4.226 -0.4808 -0.4048 -2.7335
 1005MOL0     H35639   3.372  10.840   4.013  3.7730  3.2242 -1.4952
 1005MOL0     H35640   3.450  11.057   4.051 -0.0651  2.7852  1.3057
 1005MOL0     H35641   3.405  11.346   3.853  0.1101  2.5324  0.4190
 1005MOL0     H35642   3.226  11.355   3.843  0.0112 -0.8546 -0.3063
 1005MOL0     H35643   3.404  11.546   4.003 -0.6751  2.6196 -0.6192
 1005MOL0     H35644   3.326  11.582   3.853 -1.5723  1.1096  0.5605
 1005MOL0     H35645   3.171  11.478   4.100  0.6997  0.9739  0.8787
 1005MOL0     H35646   3.102  11.540   3.948  0.4488  2.0127 -0.9561
 1005MOL0     H35647   3.271  11.703   4.152  2.6706  1.8794 -4.0081
 1005MOL0     H35648   3.211  11.768   4.009  1.7358  1.1460  1.7325
 1005MOL0     H35649   2.979  11.674   4.107 -0.2448  0.5342  1.3040
 1005MOL0     H35650   3.040  11.831   4.174  1.7474 -0.2412  2.2496
 1005MOL0     H35651   2.955  11.720   4.334  0.1359 -0.0647  0.2039
 1005MOL0     H35652   3.042  11.569   4.301 -1.5521  0.0376 -4.1565
 1005MOL0     H35653   3.159  11.820   4.428 -0.8215  0.2795 -0.0626
 1005MOL0     H35654   3.254  11.675   4.388  1.0497  2.8729  1.4240
 1005MOL0     H35655   3.202  11.682   4.608  0.2122 -1.0319 -0.2136
 1005MOL0     H35656   3.121  11.543   4.554  2.0960  0.4930 -0.8121
 1005MOL0     H35657   3.069  11.225   3.950 -4.9912 -2.0113  0.6801
 1005MOL0     H35658   2.976  10.996   3.915  0.9643  1.5865 -3.6608
 1005MOL0     H35659   3.103  10.588   3.768 -1.9057  1.1280  1.2513
 1005MOL0     H35660   3.104  10.388   3.657  2.6860  0.5652 -0.0832
 1005MOL0     H35661   3.778  10.042   2.248 -0.2862 -2.1441  2.1813
 1005MOL0     H35662   3.670  10.067   2.016 -2.7597 -1.5725  1.6666
 1005MOL0     H35663   3.731  10.009   1.480 -0.0571  3.1252  1.9819
 1005MOL0     H35664   3.590  10.035   1.296 -0.7645  0.3886 -0.3819
 1005MOL0     H35665   3.246   9.895   1.120 -2.3263 -1.5194  1.3695
 1005MOL0     H35666   3.430   9.903   1.145 -0.3800  1.8449  0.2422
 1005MOL0     H35667   3.233   9.725   1.307 -0.8040  0.3843 -0.8158
 1005MOL0     H35668   3.409   9.723   1.312  1.1973  0.6321 -1.4978
 1005MOL0     H35669   3.240   9.650   1.085  0.7203 -1.3895 -0.3951
 1005MOL0     H35670   3.301   9.533   1.201  0.0325  0.3093  1.9857
 1005MOL0     H35671   3.525   9.598   1.177 -0.4438  1.7592  1.4497
 1005MOL0     H35672   3.503   9.702   1.041 -1.4906 -0.1238 -0.7341
 1005MOL0     H35673   3.540   9.320   0.859 -0.6069 -2.2362  3.2856
 1005MOL0     H35674   3.249   9.916   1.534  0.2759 -2.0310 -1.2521
 1005MOL0     H35675   3.392   9.890   1.728 -2.2934  0.4511 -1.1482
 1006MOL0     O35676   4.942  10.812   3.947  0.6667  1.0866 -0.1619
 1006MOL0     C35677   5.005  10.793   3.847 -0.9893 -0.1043  0.1185
 1006MOL0     O35678   5.142  10.832   3.834  0.1572  0.2292  0.1920
 1006MOL0     C35679   5.225  10.845   3.943  0.2225  1.0646 -0.2376
 1006MOL0     C35680   5.352  10.807   3.920  0.3942  0.8890  0.0146
 1006MOL0     C35681   5.452  10.800   4.014  0.9277 -0.5392  0.2131
 1006MOL0     C35682   5.415  10.824   4.147  0.2649  0.3343  0.7932
 1006MOL0     O35683   5.520  10.827   4.238 -1.3650 -0.0635  0.0452
 1006MOL0     C35684   5.490  10.866   4.379  0.5695  0.8402  0.3969
 1006MOL0     C35685   5.612  10.874   4.470  0.3465  0.5953 -0.1242
 1006MOL0     C35686   5.685  11.013   4.462 -0.9162 -0.3428 -0.8217
 1006MOL0     C35687   5.610  11.146   4.484  0.3749 -0.4009 -0.9219
 1006MOL0     C35688   5.701  11.262   4.487 -0.2783  0.0726  0.0640
 1006MOL0     C35689   5.649  11.396   4.542 -0.4232  0.8629  0.6032
 1006MOL0     C35690   5.540  11.450   4.454  0.1408 -0.1174 -0.4352
 1006MOL0     C35691   5.460  11.554   4.532  0.2132 -0.0218 -0.9103
 1006MOL0     N35692   5.529  11.681   4.567  0.0318  1.1201 -0.4787
 1006MOL0     C35693   5.617  11.699   4.670  1.6157  0.0288 -0.4128
 1006MOL0     C35694   5.641  11.825   4.677 -0.0206  0.1547  0.2446
 1006MOL0     C35695   5.748  11.891   4.765  0.3572  0.2243  0.4806
 1006MOL0     C35696   5.702  11.903   4.917 -0.3719 -1.1179 -1.0952
 1006MOL0     C35697   5.793  11.966   5.016 -0.7227 -0.5227 -0.6429
 1006MOL0     C35698   5.722  12.064   5.125  0.1265  0.8869  0.3603
 1006MOL0     O35699   5.656  12.184   5.059  0.0783  0.2927 -0.9830
 1006MOL0     C35700   5.522  12.212   5.063 -0.4085  0.6092  0.4129
 1006MOL0     C35701   5.447  12.214   4.947 -0.6736  0.0059 -0.3289
 1006MOL0     C35702   5.315  12.247   4.938 -0.2404 -0.3926  0.7833
 1006MOL0     C35703   5.241  12.236   4.796  0.4713  0.0621 -0.3660
 1006MOL0     C35704   5.247  12.278   5.055  0.4657 -0.2865 -0.1461
 1006MOL0     C35705   5.102  12.303   5.055 -0.3311  0.0597 -0.5782
 1006MOL0     O35706   5.054  12.427   5.040  0.7157  0.3026  0.1517
 1006MOL0     C35707   4.914  12.441   5.018  0.5742 -0.3646  0.3080
 1006MOL0     C35708   4.866  12.548   5.095  0.4670  0.4196  0.1247
 1006MOL0     C35709   4.736  12.587   5.086  0.0669  0.2055  0.2959
 1006MOL0     C35710   4.650  12.534   4.990 -0.8336  0.0371 -0.6457
 1006MOL0     O35711   4.519  12.573   4.995  0.4748 -0.4543 -0.3557
 1006MOL0     C35712   4.420  12.486   4.930  0.1686  0.1387 -0.0939
 1006MOL0     C35713   4.272  12.537   4.961  0.8848  0.3470 -0.1730
 1006MOL0     C35714   4.193  12.497   5.085 -0.0286  0.1553  0.0418
 1006MOL0     C35715   4.272  12.521   5.205 -0.5378 -0.1028 -0.4118
 1006MOL0     C35716   4.203  12.482   5.340  0.7974 -0.3599 -1.6456
 1006MOL0     C35717   4.267  12.537   5.463  0.3689  0.0042 -0.2550
 1006MOL0     C35718   4.397  12.448   5.498 -0.5192 -0.0447  1.0011
 1006MOL0     C35719   4.531  12.502   5.446 -0.8125  0.0572 -0.0581
 1006MOL0    Cl35720   4.551  12.687   5.464 -0.3316 -0.0886 -0.1148
 1006MOL0     C35721   4.704  12.444   4.894  0.0228  0.4641  0.7830
 1006MOL0     C35722   4.834  12.395   4.914  0.6882 -0.6074  0.1396
 1006MOL0     O35723   5.036  12.201   5.069  0.6823 -0.9846  0.6866
 1006MOL0     C35724   5.315  12.288   5.173  0.1028  0.0785 -0.9771
 1006MOL0     C35725   5.453  12.251   5.181  0.1568  1.3426 -0.2885
 1006MOL0     N35726   5.550  11.888   4.581 -0.4220  0.0882  0.3361
 1006MOL0     N35727   5.493  11.792   4.510  0.1280 -0.0776 -0.2338
 1006MOL0     C35728   5.280  10.859   4.175 -1.1620  0.2957 -1.2611
 1006MOL0     C35729   5.189  10.882   4.072 -0.6123 -0.3520  0.1087
 1006MOL0     C35730   4.938  10.757   3.721  0.4311  0.2253  0.8130
 1006MOL0     C35731   5.009  10.716   3.600 -0.9056  0.4900 -0.3534
 1006MOL0     C35732   4.939  10.672   3.488 -0.4052 -0.4059 -1.1325
 1006MOL0     C35733   4.802  10.655   3.492 -0.4450 -0.8108  0.1725
 1006MOL0     O35734   4.721  10.607   3.387 -0.9193  0.0485  0.3564
 1006MOL0     C35735   4.782  10.589   3.263 -0.6046  0.9453  0.1336
 1006MOL0     C35736   4.687  10.522   3.171 -0.9844  0.2586 -0.0005
 1006MOL0     C35737   4.734  10.477   3.027  0.9685 -0.1917  0.0396
 1006MOL0     C35738   4.622  10.409   2.947 -0.4022 -0.1136 -1.3516
 1006MOL0     C35739   4.528  10.498   2.881 -0.8751  0.0164 -0.6849
 1006MOL0     C35740   4.435  10.558   2.822  0.4732 -0.1520 -1.0706
 1006MOL0     C35741   4.728  10.699   3.603 -0.5513 -0.3182 -0.2278
 1006MOL0     C35742   4.796  10.751   3.716  0.5955 -0.2011 -0.1188
 1006MOL0     H35743   5.383  10.775   3.821  1.0712 -1.0643  0.8168
 1006MOL0     H35744   5.557  10.794   3.988  0.4745  0.2367 -1.9475
 1006MOL0     H35745   5.432  10.959   4.373 -0.9353 -0.0878 -0.1848
 1006MOL0     H35746   5.423  10.786   4.413  0.9593 -1.0272 -2.8626
 1006MOL0     H35747   5.578  10.841   4.568  1.7853 -2.7684 -0.5955
 1006MOL0     H35748   5.687  10.796   4.449  2.6218  2.3454  1.0660
 1006MOL0     H35749   5.763  11.017   4.538 -1.5473 -2.6236  0.0087
 1006MOL0     H35750   5.730  11.017   4.363  0.0335 -3.7160 -0.6419
 1006MOL0     H35751   5.526  11.163   4.415 -0.1219  0.9085 -0.0345
 1006MOL0     H35752   5.555  11.136   4.578 -1.2632 -1.0072 -1.8805
 1006MOL0     H35753   5.772  11.229   4.564 -1.9082 -1.3585  1.0180
 1006MOL0     H35754   5.744  11.266   4.387  0.5518 -3.2857  0.1560
 1006MOL0     H35755   5.604  11.374   4.638 -4.7149 -0.2383 -1.4385
 1006MOL0     H35756   5.732  11.467   4.545 -0.3882  0.8381  0.2555
 1006MOL0     H35757   5.587  11.491   4.364  0.3584 -2.5539 -1.5072
 1006MOL0     H35758   5.461  11.380   4.427 -1.8092  0.6133  2.8306
 1006MOL0     H35759   5.428  11.510   4.627  0.1536 -1.5332 -1.6045
 1006MOL0     H35760   5.369  11.568   4.474 -0.7766 -1.9859  0.0862
 1006MOL0     H35761   5.664  11.630   4.739 -1.5035  0.6068  2.5842
 1006MOL0     H35762   5.832  11.822   4.752 -0.4235 -0.4478 -1.2902
 1006MOL0     H35763   5.770  11.983   4.711 -3.4460  1.1267  0.2239
 1006MOL0     H35764   5.661  11.808   4.953 -1.3433 -1.9779 -4.1310
 1006MOL0     H35765   5.623  11.978   4.924  3.0179  2.6303  1.6531
 1006MOL0     H35766   5.870  12.022   4.962  1.6571 -1.8585  1.1577
 1006MOL0     H35767   5.845  11.886   5.068 -2.0756 -2.2246 -1.7708
 1006MOL0     H35768   5.786  12.108   5.202  1.7422  0.5954 -0.7586
 1006MOL0     H35769   5.648  12.007   5.182 -0.2526  0.7342 -0.2819
 1006MOL0     H35770   5.510  12.195   4.861 -3.3970  2.5488 -3.1436
 1006MOL0     H35771   5.312  12.223   4.714  0.8201  1.5141 -0.3229
 1006MOL0     H35772   5.158  12.165   4.789  2.1843 -1.8530 -2.8311
 1006MOL0     H35773   5.198  12.336   4.787  0.3316 -0.0796 -1.2970
 1006MOL0     H35774   4.930  12.587   5.174  0.3413  0.9693 -0.0461
 1006MOL0     H35775   4.681  12.640   5.163 -2.3288  1.8033 -2.2937
 1006MOL0     H35776   4.439  12.478   4.822  1.7264  1.7895  0.0031
 1006MOL0     H35777   4.426  12.383   4.967  2.6141  0.1317 -0.3461
 1006MOL0     H35778   4.276  12.646   4.950  1.9962  0.4695  1.2069
 1006MOL0     H35779   4.217  12.484   4.882  0.9887 -0.2209  0.1373
 1006MOL0     H35780   4.171  12.390   5.077 -1.2210  0.2056  2.0340
 1006MOL0     H35781   4.092  12.538   5.095 -0.1675 -0.0365 -0.5033
 1006MOL0     H35782   4.356  12.453   5.185 -0.4831 -0.2796  0.4034
 1006MOL0     H35783   4.321  12.617   5.224  1.3010 -1.6593  3.9020
 1006MOL0     H35784   4.201  12.373   5.352  0.9646 -0.1252  1.5142
 1006MOL0     H35785   4.103  12.525   5.333 -0.2858 -1.9430  1.8424
 1006MOL0     H35786   4.288  12.642   5.443 -3.1885  0.5748 -1.5672
 1006MOL0     H35787   4.190  12.519   5.538 -1.1222 -1.4286 -2.0327
 1006MOL0     H35788   4.383  12.341   5.486 -2.9915  0.0974  2.1239
 1006MOL0     H35789   4.407  12.464   5.606 -0.6289  0.2238  0.9722
 1006MOL0     H35790   4.560  12.480   5.342  0.6615 -2.9020  0.8677
 1006MOL0     H35791   4.607  12.460   5.513 -3.4464 -0.8037  2.5699
 1006MOL0     H35792   4.641  12.396   4.820  1.6923  0.7480 -0.9112
 1006MOL0     H35793   4.860  12.316   4.844 -1.2315  0.8393 -2.3481
 1006MOL0     H35794   5.269  12.331   5.261  3.7773  0.8782  0.7661
 1006MOL0     H35795   5.503  12.257   5.277  2.7464  0.8227 -1.5138
 1006MOL0     H35796   5.241  10.884   4.273  0.5070 -1.3453 -0.1204
 1006MOL0     H35797   5.092  10.915   4.108 -1.0384 -3.2917  1.9457
 1006MOL0     H35798   5.117  10.710   3.606 -1.0070 -0.3199  1.0405
 1006MOL0     H35799   4.995  10.648   3.399  0.8443 -0.2639 -0.4135
 1006MOL0     H35800   4.810  10.685   3.219  0.9616 -0.6328 -2.5748
 1006MOL0     H35801   4.863  10.516   3.273 -0.0473  0.9695 -3.0751
 1006MOL0     H35802   4.602  10.590   3.162 -0.3166  0.8257 -2.8409
 1006MOL0     H35803   4.637  10.440   3.223  0.1705  0.6686  1.8653
 1006MOL0     H35804   4.809  10.399   3.040  0.5360 -1.1012 -2.4061
 1006MOL0     H35805   4.784  10.560   2.975  2.4565 -0.8147  0.4313
 1006MOL0     H35806   4.576  10.337   3.016  2.7076  1.1833  2.3890
 1006MOL0     H35807   4.665  10.340   2.872 -0.3660 -1.4594 -0.1372
 1006MOL0     H35808   4.352  10.615   2.783 -1.6775 -2.4475 -0.1085
 1006MOL0     H35809   4.620  10.693   3.611 -0.6524  1.7287  0.3319
 1006MOL0     H35810   4.742  10.778   3.806 -0.2781 -2.1168 -0.0295
 1007MOL0     O35811   9.303   5.668   7.325  0.0771  0.4528 -0.0318
 1007MOL0     C35812   9.271   5.667   7.211  0.3900  0.1292  0.5176
 1007MOL0     O35813   9.337   5.598   7.114  0.7241 -0.9509 -0.2572
 1007MOL0     C35814   9.456   5.544   7.126 -0.0229 -0.4685 -0.0050
 1007MOL0     C35815   9.487   5.413   7.104  1.0864  0.5578  0.3549
 1007MOL0     C35816   9.619   5.386   7.091 -0.4566  0.5192 -0.6967
 1007MOL0     C35817   9.723   5.471   7.117  0.0696 -0.1056  0.8390
 1007MOL0     O35818   9.849   5.416   7.120  0.7765 -0.7598 -0.1461
 1007MOL0     C35819   9.954   5.476   7.201  1.1671 -0.0651  0.7294
 1007MOL0     C35820  10.084   5.401   7.187 -0.9757 -0.2443 -0.7711
 1007MOL0     C35821  10.200   5.502   7.211 -0.2960  0.0438  1.4509
 1007MOL0     C35822  10.331   5.430   7.240 -0.0408  0.3265 -0.0481
 1007MOL0     C35823  10.450   5.518   7.263 -1.7407  0.1846  0.7289
 1007MOL0     C35824  10.582   5.437   7.246  0.1627  0.1273  0.3399
 1007MOL0     C35825  10.609   5.355   7.374  0.3428  0.7949  0.2236
 1007MOL0     C35826  10.728   5.254   7.376  1.1218 -1.2584 -0.1875
 1007MOL0     N35827  10.687   5.126   7.329 -0.5958 -0.2171  0.7025
 1007MOL0     C35828  10.743   5.006   7.367 -0.3920  1.1381 -0.1762
 1007MOL0     C35829  10.714   4.912   7.282  0.5967  0.0868  0.1465
 1007MOL0     C35830  10.753   4.765   7.275  0.1645  0.8268  0.4172
 1007MOL0     C35831  10.814   4.720   7.142 -0.5162 -0.5879 -0.8669
 1007MOL0     C35832  10.834   4.564   7.159 -0.1262  0.1947 -0.1478
 1007MOL0     C35833  10.941   4.509   7.063  0.4880  0.0395 -0.7268
 1007MOL0     O35834  11.074   4.515   7.110 -0.4025 -0.0797  0.5920
 1007MOL0     C35835  11.141   4.627   7.151 -1.2800  1.0114  0.1085
 1007MOL0     C35836  11.123   4.680   7.275  0.0696  1.1236  0.5199
 1007MOL0     C35837  11.189   4.795   7.322  0.9933 -0.5168 -0.5331
 1007MOL0     C35838  11.121   4.860   7.450 -0.2020  0.9165  0.0675
 1007MOL0     C35839  11.280   4.857   7.239 -0.0060 -0.7738 -0.6412
 1007MOL0     C35840  11.359   4.974   7.274  0.0662 -0.6547 -0.2809
 1007MOL0     O35841  11.443   5.028   7.182  0.5836 -0.6000 -1.2733
 1007MOL0     C35842  11.529   5.118   7.233 -0.1278 -0.1922  0.0947
 1007MOL0     C35843  11.494   5.254   7.216  0.2331  0.4647  0.2471
 1007MOL0     C35844  11.579   5.358   7.258  0.1398 -0.0488 -0.3979
 1007MOL0     C35845  11.702   5.325   7.311 -0.3558  0.2160  0.2955
 1007MOL0     O35846  11.788   5.430   7.333 -0.0700 -0.7911 -1.0486
 1007MOL0     C35847  11.928   5.410   7.318 -0.5238 -0.2794 -0.2392
 1007MOL0     C35848  11.996   5.531   7.253  0.0441  0.1593 -0.6911
 1007MOL0     C35849  12.149   5.506   7.220  0.5716 -0.8827  0.2247
 1007MOL0     C35850  12.204   5.628   7.147 -0.3675 -0.1515  1.2061
 1007MOL0     C35851  12.342   5.590   7.083 -0.3286  0.6985 -0.2133
 1007MOL0     C35852  12.404   5.709   7.024 -0.5672  0.1121  0.7468
 1007MOL0     C35853  12.543   5.672   6.937  0.6648 -0.5288  0.7435
 1007MOL0     C35854  12.486   5.605   6.812 -0.5300 -0.5184  0.3106
 1007MOL0    Cl35855  12.597   5.593   6.673 -0.4264  0.1378 -0.2591
 1007MOL0     C35856  11.743   5.193   7.337  0.1809  0.0960 -0.7039
 1007MOL0     C35857  11.653   5.087   7.293  0.4973  0.5592 -0.4735
 1007MOL0     O35858  11.343   5.029   7.385 -0.0093 -0.3016 -0.4303
 1007MOL0     C35859  11.305   4.801   7.115  0.6464 -0.0120  0.3523
 1007MOL0     C35860  11.237   4.682   7.077  0.2611 -0.5565  0.6357
 1007MOL0     N35861  10.640   4.973   7.190 -0.3316  0.4365 -0.2134
 1007MOL0     N35862  10.623   5.095   7.207  0.4799 -0.3936 -1.1796
 1007MOL0     C35863   9.689   5.595   7.161  0.0237 -0.4092  0.1612
 1007MOL0     C35864   9.558   5.636   7.156  0.5395 -0.5420 -0.4217
 1007MOL0     C35865   9.162   5.762   7.175 -0.3173  0.2031  0.2431
 1007MOL0     C35866   9.117   5.760   7.044  0.3296  1.0069  0.9835
 1007MOL0     C35867   9.010   5.830   6.993 -0.4345 -0.2054  0.0264
 1007MOL0     C35868   8.934   5.910   7.073 -1.4053  0.3931 -0.2917
 1007MOL0     O35869   8.819   5.975   7.037  0.7448  0.3112 -0.1010
 1007MOL0     C35870   8.766   6.059   7.139  0.6364  0.5822  0.5677
 1007MOL0     C35871   8.628   6.118   7.085  0.0164  0.7765 -0.4706
 1007MOL0     C35872   8.626   6.186   6.952 -0.3245  0.9645  0.2333
 1007MOL0     C35873   8.625   6.343   6.955  0.6420  0.1213  0.0528
 1007MOL0     C35874   8.748   6.389   7.010  0.0215 -0.9781  0.7914
 1007MOL0     C35875   8.850   6.422   7.071 -0.3011 -0.5076 -0.2578
 1007MOL0     C35876   8.981   5.923   7.208 -0.6672 -0.2402  0.2271
 1007MOL0     C35877   9.099   5.849   7.255  0.5855 -0.5536  0.0892
 1007MOL0     H35878   9.410   5.346   7.069  3.5023 -1.0744 -2.2298
 1007MOL0     H35879   9.632   5.287   7.049  2.6515  1.4743 -2.2567
 1007MOL0     H35880   9.972   5.577   7.162 -1.0971 -0.3810 -1.3682
 1007MOL0     H35881   9.936   5.489   7.308  2.8004  3.0079  0.7566
 1007MOL0     H35882  10.084   5.318   7.258  1.4351  2.0006  2.1789
 1007MOL0     H35883  10.100   5.363   7.086  1.9882 -0.0028 -0.5031
 1007MOL0     H35884  10.210   5.564   7.121  0.3315  0.1488  1.5907
 1007MOL0     H35885  10.175   5.561   7.300 -0.9215 -0.1628  1.4150
 1007MOL0     H35886  10.306   5.362   7.322  0.2220  1.7574  1.2614
 1007MOL0     H35887  10.349   5.364   7.155 -0.6782  0.2305 -0.1160
 1007MOL0     H35888  10.451   5.604   7.195  0.5883  1.5676  2.3665
 1007MOL0     H35889  10.440   5.573   7.357 -1.0157  2.6035 -0.5222
 1007MOL0     H35890  10.582   5.370   7.160  1.3461  1.2961 -0.5953
 1007MOL0     H35891  10.669   5.499   7.223  0.1280  0.9439  2.1722
 1007MOL0     H35892  10.619   5.410   7.468 -1.3787 -1.4662  1.8630
 1007MOL0     H35893  10.521   5.296   7.400  0.9078 -0.8167 -1.2589
 1007MOL0     H35894  10.776   5.238   7.473  0.7705  0.6893  0.3524
 1007MOL0     H35895  10.808   5.288   7.308 -0.0072  1.9274 -0.1261
 1007MOL0     H35896  10.806   4.991   7.454  1.1829  0.0887 -1.4148
 1007MOL0     H35897  10.823   4.743   7.356  1.2340  0.4629 -0.5683
 1007MOL0     H35898  10.662   4.709   7.294 -0.8590  2.1765 -0.3359
 1007MOL0     H35899  10.904   4.780   7.127 -0.9122  0.3691  0.3365
 1007MOL0     H35900  10.746   4.735   7.058  2.4515  2.0237 -2.9938
 1007MOL0     H35901  10.737   4.519   7.136 -1.0461  0.7802  2.3112
 1007MOL0     H35902  10.855   4.548   7.266 -2.0683  0.5796  0.3143
 1007MOL0     H35903  10.931   4.574   6.975 -3.2492 -1.4934 -1.6123
 1007MOL0     H35904  10.926   4.404   7.037  1.3771 -0.5090  0.7994
 1007MOL0     H35905  11.062   4.626   7.346 -0.8347  0.7569 -0.4990
 1007MOL0     H35906  11.041   4.805   7.500 -0.3710 -0.7657 -1.9072
 1007MOL0     H35907  11.194   4.882   7.529  0.4133  0.0044 -0.2365
 1007MOL0     H35908  11.079   4.950   7.403  0.6721 -0.4106 -3.6129
 1007MOL0     H35909  11.403   5.275   7.159 -0.9648  2.1802  2.5945
 1007MOL0     H35910  11.564   5.465   7.244  0.2055 -0.0091 -0.1747
 1007MOL0     H35911  11.971   5.415   7.418 -1.0416 -0.2027 -0.0168
 1007MOL0     H35912  11.954   5.318   7.265 -0.8269  1.0186 -2.7806
 1007MOL0     H35913  11.940   5.542   7.160 -0.9693 -0.3464 -0.1589
 1007MOL0     H35914  11.982   5.620   7.316 -1.6757 -0.9352  0.5713
 1007MOL0     H35915  12.148   5.420   7.152 -1.1692 -0.5595 -0.2161
 1007MOL0     H35916  12.209   5.477   7.307  0.8354  0.9723  0.6936
 1007MOL0     H35917  12.142   5.667   7.066  0.6181 -0.0495  0.4754
 1007MOL0     H35918  12.218   5.716   7.211  0.5368 -1.0355  2.2600
 1007MOL0     H35919  12.322   5.521   7.001 -0.0144  2.2309 -1.6233
 1007MOL0     H35920  12.408   5.550   7.161  1.0316  1.5804 -0.8679
 1007MOL0     H35921  12.345   5.752   6.943  1.9178 -0.5180 -1.5342
 1007MOL0     H35922  12.417   5.784   7.103  1.4506 -0.6392  1.2086
 1007MOL0     H35923  12.605   5.606   6.998  2.0240 -1.8848 -1.9333
 1007MOL0     H35924  12.583   5.770   6.908  2.4755 -1.5469 -0.3855
 1007MOL0     H35925  12.396   5.657   6.782 -0.5546 -0.5275  0.3663
 1007MOL0     H35926  12.455   5.502   6.831  1.1161 -2.1594 -4.4856
 1007MOL0     H35927  11.842   5.180   7.380  0.7312 -0.3303 -2.0262
 1007MOL0     H35928  11.673   4.981   7.289 -0.7270  0.3530 -1.8339
 1007MOL0     H35929  11.371   4.840   7.038  2.2843  1.2161  2.3081
 1007MOL0     H35930  11.253   4.639   6.979  0.9486  0.6260  0.2047
 1007MOL0     H35931   9.760   5.667   7.199 -0.2785 -0.2802  0.4906
 1007MOL0     H35932   9.531   5.739   7.180  0.5484 -0.6097 -0.1200
 1007MOL0     H35933   9.164   5.702   6.965 -1.8081  0.5834 -0.0493
 1007MOL0     H35934   8.979   5.817   6.890 -0.4744 -0.7044  0.0969
 1007MOL0     H35935   8.739   6.016   7.236  1.5143  0.3520  0.7164
 1007MOL0     H35936   8.835   6.143   7.153 -1.3590  2.4487 -0.1200
 1007MOL0     H35937   8.572   6.174   7.160 -0.4875  1.1891 -1.1466
 1007MOL0     H35938   8.560   6.033   7.078  0.0017  0.5559  1.6560
 1007MOL0     H35939   8.542   6.153   6.890  0.1039  2.2371 -1.0884
 1007MOL0     H35940   8.719   6.158   6.902 -1.3749 -1.4607 -0.5064
 1007MOL0     H35941   8.545   6.394   7.009  2.4823  3.4339 -0.0530
 1007MOL0     H35942   8.610   6.374   6.851 -0.2566  1.1098  0.4607
 1007MOL0     H35943   8.949   6.448   7.104 -1.0528 -0.8123  2.4540
 1007MOL0     H35944   8.919   5.960   7.288  0.8319 -1.4617  2.0335
 1007MOL0     H35945   9.118   5.838   7.361  2.3347  2.7675  0.2368
 1008MOL0     O35946   4.082   3.899   4.098 -0.9150 -0.0320  0.7135
 1008MOL0     C35947   4.092   3.904   3.975 -0.1922 -0.2902  0.7010
 1008MOL0     O35948   4.028   3.827   3.882  0.6300 -0.3570 -0.0000
 1008MOL0     C35949   3.933   3.731   3.916 -0.8570 -0.0664 -0.5787
 1008MOL0     C35950   3.910   3.638   3.819 -0.7931  0.9387  0.4591
 1008MOL0     C35951   3.828   3.522   3.829 -1.4450  0.2739 -0.9926
 1008MOL0     C35952   3.755   3.509   3.940 -0.8986 -0.6614  0.4471
 1008MOL0     O35953   3.665   3.402   3.948 -0.0778  0.3663  0.5079
 1008MOL0     C35954   3.576   3.406   4.062 -0.7482  0.3992 -0.1227
 1008MOL0     C35955   3.461   3.314   4.035 -0.4181  0.2666  0.5081
 1008MOL0     C35956   3.344   3.350   4.130 -0.0846  0.0474  0.6331
 1008MOL0     C35957   3.340   3.263   4.247  0.2572  0.3948 -0.4498
 1008MOL0     C35958   3.239   3.324   4.352  0.0811 -0.0472 -0.1152
 1008MOL0     C35959   3.101   3.336   4.287 -0.0477 -0.4347  0.1436
 1008MOL0     C35960   2.996   3.371   4.392 -0.4549 -0.8681  0.3116
 1008MOL0     C35961   2.853   3.387   4.322 -0.1779 -0.2577 -0.4713
 1008MOL0     N35962   2.749   3.442   4.413 -0.1489 -0.8870 -1.0547
 1008MOL0     C35963   2.675   3.374   4.509  0.1199 -0.2520 -0.6605
 1008MOL0     C35964   2.572   3.456   4.537 -0.2997  0.3901  0.0869
 1008MOL0     C35965   2.452   3.430   4.627  0.9554 -1.0021 -1.1484
 1008MOL0     C35966   2.328   3.438   4.541 -0.7716  0.3831  0.0533
 1008MOL0     C35967   2.206   3.392   4.614 -0.0819 -0.6420 -0.1471
 1008MOL0     C35968   2.077   3.401   4.527 -1.0077 -0.1963  0.3761
 1008MOL0     O35969   2.086   3.334   4.405  0.7920  0.1427  0.6596
 1008MOL0     C35970   2.006   3.380   4.297 -1.2353  0.1914 -0.0594
 1008MOL0     C35971   2.027   3.312   4.180 -0.4927 -0.5328 -0.2393
 1008MOL0     C35972   1.974   3.352   4.057 -0.1590  0.9249  0.4343
 1008MOL0     C35973   2.038   3.293   3.934 -0.1597 -0.2424 -0.1383
 1008MOL0     C35974   1.900   3.467   4.052  0.5848 -0.2782 -1.1178
 1008MOL0     C35975   1.803   3.494   3.942 -0.3550  0.5027 -0.0892
 1008MOL0     O35976   1.814   3.615   3.887  0.0154 -0.3982 -0.5846
 1008MOL0     C35977   1.708   3.655   3.812 -0.6810 -0.2943 -0.0020
 1008MOL0     C35978   1.692   3.607   3.680  0.0471 -0.7615  0.5013
 1008MOL0     C35979   1.594   3.671   3.599 -0.6300 -0.1035  0.2280
 1008MOL0     C35980   1.504   3.758   3.653 -0.7192 -0.7901  0.3662
 1008MOL0     O35981   1.419   3.826   3.563 -0.7708  0.6632 -0.5119
 1008MOL0     C35982   1.401   3.971   3.555  0.1514 -0.6472 -0.2524
 1008MOL0     C35983   1.271   4.004   3.628  0.3090  0.9402  0.1739
 1008MOL0     C35984   1.249   4.147   3.644 -0.0315 -0.4014 -0.0515
 1008MOL0     C35985   1.251   4.232   3.512 -0.3005  0.8028  0.6001
 1008MOL0     C35986   1.358   4.343   3.529 -0.1986 -0.4162 -0.2053
 1008MOL0     C35987   1.317   4.449   3.628 -0.3382 -0.8233 -0.8581
 1008MOL0     C35988   1.417   4.564   3.614  1.7435  0.6880  1.0314
 1008MOL0     C35989   1.383   4.691   3.697  0.3066 -0.5751 -0.7573
 1008MOL0    Cl35990   1.399   4.653   3.873 -0.3496 -0.3068 -0.3138
 1008MOL0     C35991   1.510   3.791   3.789  0.1120 -0.2772  0.4334
 1008MOL0     C35992   1.615   3.734   3.866  0.0612 -0.1990  0.0811
 1008MOL0     O35993   1.706   3.423   3.934 -0.0778 -0.9252  0.1144
 1008MOL0     C35994   1.862   3.522   4.175  0.3654  0.5324 -0.1749
 1008MOL0     C35995   1.913   3.483   4.298  0.3922  0.0373  0.2639
 1008MOL0     N35996   2.587   3.570   4.464  1.0712  0.1465  0.7554
 1008MOL0     N35997   2.688   3.559   4.383 -0.5201 -0.2476  0.8715
 1008MOL0     C35998   3.785   3.596   4.047  0.1502  0.0500 -0.0147
 1008MOL0     C35999   3.877   3.700   4.041 -0.2796 -0.7489  0.8730
 1008MOL0     C36000   4.186   4.008   3.918 -0.5511  0.4471  0.2933
 1008MOL0     C36001   4.217   4.125   3.976  0.1071 -0.4908 -0.5194
 1008MOL0     C36002   4.302   4.215   3.914 -0.1841  0.2384  0.2711
 1008MOL0     C36003   4.352   4.193   3.791  0.6013 -0.1152 -1.0895
 1008MOL0     O36004   4.440   4.286   3.727 -0.3837  0.1567 -0.0208
 1008MOL0     C36005   4.526   4.373   3.801  0.7868 -0.7215  0.1496
 1008MOL0     C36006   4.508   4.512   3.751 -0.2678 -0.0698 -0.2223
 1008MOL0     C36007   4.368   4.558   3.766  0.2961  0.3286  0.0858
 1008MOL0     C36008   4.379   4.704   3.731 -0.1319 -0.1164  0.3043
 1008MOL0     C36009   4.243   4.765   3.731  0.2604  0.3367  0.0162
 1008MOL0     C36010   4.138   4.825   3.706  0.1639  0.9999  0.4732
 1008MOL0     C36011   4.335   4.074   3.730 -0.1339  0.0056 -0.1641
 1008MOL0     C36012   4.242   3.985   3.785  0.4163  0.5751 -0.5344
 1008MOL0     H36013   3.972   3.659   3.732  0.4365  0.9284  1.3088
 1008MOL0     H36014   3.820   3.447   3.750 -1.7382 -2.0809  1.1290
 1008MOL0     H36015   3.627   3.372   4.153  2.8576  3.5989 -0.6990
 1008MOL0     H36016   3.536   3.504   4.088  2.3656  2.0420 -1.0997
 1008MOL0     H36017   3.435   3.326   3.929  1.0668 -6.3020 -1.0304
 1008MOL0     H36018   3.491   3.210   4.043 -2.0866 -0.2289  0.8053
 1008MOL0     H36019   3.344   3.455   4.161  1.1659  0.8036 -1.7088
 1008MOL0     H36020   3.257   3.346   4.064  0.6282  2.1995 -0.5397
 1008MOL0     H36021   3.304   3.169   4.205 -0.0473  1.5010 -2.7909
 1008MOL0     H36022   3.440   3.246   4.289  0.0607  0.3262  0.0023
 1008MOL0     H36023   3.240   3.276   4.451  0.6267  0.4394  0.1180
 1008MOL0     H36024   3.284   3.420   4.378 -1.0481  0.6277 -0.5905
 1008MOL0     H36025   3.100   3.420   4.216  2.9219  1.7961  2.4667
 1008MOL0     H36026   3.083   3.243   4.232  0.4461 -0.8785  0.7273
 1008MOL0     H36027   2.991   3.293   4.469  0.7168  2.3761  4.0247
 1008MOL0     H36028   3.027   3.465   4.438 -1.4262  0.1727 -1.0939
 1008MOL0     H36029   2.821   3.284   4.306  4.0818 -2.5964  3.4144
 1008MOL0     H36030   2.889   3.445   4.236  1.6021 -0.1216  0.3067
 1008MOL0     H36031   2.699   3.281   4.561  0.2178  0.9371  1.5066
 1008MOL0     H36032   2.465   3.327   4.664  2.7991 -0.8103 -1.1723
 1008MOL0     H36033   2.448   3.498   4.713 -1.3530 -2.6218  0.1342
 1008MOL0     H36034   2.347   3.373   4.455 -0.5257  0.5805 -0.0397
 1008MOL0     H36035   2.321   3.534   4.489 -1.8029  1.2147  1.6709
 1008MOL0     H36036   2.190   3.454   4.702  1.0320  2.9651 -2.2617
 1008MOL0     H36037   2.219   3.287   4.644  1.5910 -0.9178 -1.6444
 1008MOL0     H36038   2.052   3.507   4.518  0.8754  0.5179  2.6158
 1008MOL0     H36039   1.999   3.357   4.590  0.4198 -1.1976  1.5231
 1008MOL0     H36040   2.087   3.221   4.174  0.1729 -0.3259  2.2817
 1008MOL0     H36041   2.061   3.186   3.942  1.4469  0.1822  1.7538
 1008MOL0     H36042   1.986   3.324   3.842 -0.0386 -1.6162 -0.6980
 1008MOL0     H36043   2.137   3.340   3.936 -0.4830  0.4460 -0.3174
 1008MOL0     H36044   1.752   3.539   3.619  2.5042  1.6108  0.0913
 1008MOL0     H36045   1.598   3.654   3.491 -1.0240  1.5492 -0.0713
 1008MOL0     H36046   1.467   4.028   3.621 -0.9320 -0.2477  0.5093
 1008MOL0     H36047   1.401   4.008   3.452  0.3908 -0.7954 -0.3068
 1008MOL0     H36048   1.181   3.963   3.581 -0.1167  0.8260  1.0695
 1008MOL0     H36049   1.273   3.968   3.731  1.5444 -0.3490 -0.2602
 1008MOL0     H36050   1.307   4.180   3.730 -2.1156  0.9533  0.9157
 1008MOL0     H36051   1.149   4.170   3.682 -1.6390 -2.2663 -2.7834
 1008MOL0     H36052   1.277   4.183   3.418 -2.3320  2.3994 -0.8918
 1008MOL0     H36053   1.151   4.272   3.492 -1.3624 -2.3477 -0.9454
 1008MOL0     H36054   1.376   4.384   3.429  3.5880 -1.3295 -0.0604
 1008MOL0     H36055   1.448   4.291   3.565  0.2711 -0.0840 -0.8678
 1008MOL0     H36056   1.219   4.491   3.602  0.6048  0.1336 -3.1429
 1008MOL0     H36057   1.314   4.400   3.725  0.0020  3.3005  1.4707
 1008MOL0     H36058   1.418   4.600   3.510 -0.2409  0.5341  0.9207
 1008MOL0     H36059   1.521   4.532   3.624  1.2634 -1.1564  0.3839
 1008MOL0     H36060   1.285   4.729   3.667  0.1511  0.3395  0.7873
 1008MOL0     H36061   1.452   4.771   3.672 -0.9741 -0.4902 -4.5990
 1008MOL0     H36062   1.444   3.864   3.834 -1.0618  0.6968 -2.6022
 1008MOL0     H36063   1.632   3.762   3.969 -0.2921  2.3981 -0.4887
 1008MOL0     H36064   1.781   3.595   4.173  1.1344  1.4189  0.1208
 1008MOL0     H36065   1.890   3.541   4.386  1.5634  1.8245 -0.5471
 1008MOL0     H36066   3.736   3.585   4.144  1.1005 -3.7136  0.2086
 1008MOL0     H36067   3.907   3.762   4.125  1.8191 -2.3011  1.3519
 1008MOL0     H36068   4.183   4.153   4.075 -3.1897 -4.0456 -0.4476
 1008MOL0     H36069   4.331   4.310   3.957 -0.4895  0.8426 -0.8042
 1008MOL0     H36070   4.501   4.370   3.908 -0.7673  1.1607 -0.1012
 1008MOL0     H36071   4.632   4.356   3.780  0.3912  1.9881 -6.3265
 1008MOL0     H36072   4.531   4.512   3.644 -1.2905 -0.1311 -0.4492
 1008MOL0     H36073   4.579   4.577   3.802 -0.6016  1.1496 -1.2739
 1008MOL0     H36074   4.316   4.542   3.861 -1.5014  1.7637 -0.5825
 1008MOL0     H36075   4.313   4.496   3.694 -1.6253 -2.2497  3.4255
 1008MOL0     H36076   4.429   4.732   3.638 -2.7912  1.7821 -0.6970
 1008MOL0     H36077   4.438   4.757   3.806 -0.9115  1.1566  0.0511
 1008MOL0     H36078   4.051   4.887   3.698  1.2127  2.3918 -0.5362
 1008MOL0     H36079   4.397   4.043   3.646  2.4758  0.3390  1.5316
 1008MOL0     H36080   4.217   3.891   3.738  1.0188 -0.6857  1.5154
 1009MOL0     O36081  10.033   6.506   7.184 -0.2068 -0.4086  0.6076
 1009MOL0     C36082   9.937   6.503   7.264 -0.0040  0.5290 -0.9122
 1009MOL0     O36083   9.955   6.502   7.402  0.2100 -0.0380  0.0449
 1009MOL0     C36084  10.076   6.484   7.464  0.5778 -1.1775 -0.0759
 1009MOL0     C36085  10.180   6.412   7.397  1.0138  0.1002  0.2341
 1009MOL0     C36086  10.298   6.398   7.473  0.0532  0.6790 -0.6963
 1009MOL0     C36087  10.324   6.453   7.601  0.2730 -0.2223  0.2897
 1009MOL0     O36088  10.444   6.435   7.672  0.8412  0.3016  0.6641
 1009MOL0     C36089  10.560   6.493   7.612  0.0017  0.0344 -0.2379
 1009MOL0     C36090  10.655   6.542   7.719 -0.5102  0.3621 -0.0052
 1009MOL0     C36091  10.753   6.428   7.768 -0.7206 -0.2066 -0.1757
 1009MOL0     C36092  10.864   6.478   7.864 -0.6890  0.1373  1.1328
 1009MOL0     C36093  10.796   6.545   7.988 -0.8053  0.0391  0.8529
 1009MOL0     C36094  10.895   6.537   8.112  0.2619 -0.1958 -0.8979
 1009MOL0     C36095  10.838   6.634   8.223 -0.1881 -0.7999  0.5228
 1009MOL0     C36096  10.727   6.569   8.300 -0.3780 -0.1742 -0.3287
 1009MOL0     N36097  10.591   6.549   8.241 -0.0167 -0.3720 -0.0374
 1009MOL0     C36098  10.524   6.433   8.225 -0.3815  0.0082  0.5570
 1009MOL0     C36099  10.419   6.467   8.158  0.4737 -0.4263  0.9647
 1009MOL0     C36100  10.295   6.390   8.113  0.1656  0.2041 -0.7012
 1009MOL0     C36101  10.319   6.315   7.986  0.0172 -0.0026 -0.5989
 1009MOL0     C36102  10.209   6.210   7.962  1.2436 -0.3663 -0.2349
 1009MOL0     C36103  10.178   6.205   7.808 -0.8231 -1.1490  0.5641
 1009MOL0     O36104  10.091   6.096   7.787  0.1509 -0.2602  0.1695
 1009MOL0     C36105  10.031   6.096   7.662 -0.2877  0.5218 -0.0587
 1009MOL0     C36106  10.091   6.004   7.578  0.2758  0.9329  0.5378
 1009MOL0     C36107  10.033   5.980   7.440 -0.7105 -0.9864 -0.5083
 1009MOL0     C36108  10.095   5.868   7.353 -0.0398 -0.2639  0.0996
 1009MOL0     C36109   9.926   6.055   7.395  0.3960  0.1393 -0.4206
 1009MOL0     C36110   9.857   6.040   7.259 -0.3415 -0.2152  0.1360
 1009MOL0     O36111   9.763   6.125   7.229 -0.2519  0.5870  0.2849
 1009MOL0     C36112   9.674   6.079   7.138  0.8199 -0.7289  0.3719
 1009MOL0     C36113   9.555   6.015   7.176 -0.5889 -0.1320  0.8012
 1009MOL0     C36114   9.448   5.977   7.092 -0.0746 -0.8851  1.0249
 1009MOL0     C36115   9.465   6.001   6.946 -0.1944 -0.0184 -0.1120
 1009MOL0     O36116   9.359   5.980   6.862  0.0126 -0.4512 -0.0172
 1009MOL0     C36117   9.387   5.960   6.719 -0.7095  0.4431 -1.0913
 1009MOL0     C36118   9.260   5.922   6.636 -0.2112 -0.4979 -0.5368
 1009MOL0     C36119   9.127   6.002   6.664  0.4177 -0.6550 -0.1685
 1009MOL0     C36120   9.124   6.147   6.605  0.2430 -0.3088  0.0761
 1009MOL0     C36121   9.046   6.156   6.476 -0.2313 -0.1391 -0.7046
 1009MOL0     C36122   9.093   6.284   6.408  0.0124 -1.2780 -0.4587
 1009MOL0     C36123   9.000   6.328   6.294 -0.3245 -0.3458 -0.0198
 1009MOL0     C36124   9.084   6.426   6.203 -0.1910  0.5347 -0.9916
 1009MOL0    Cl36125   9.048   6.597   6.276  0.1162 -0.4236  0.0571
 1009MOL0     C36126   9.589   6.064   6.908  0.2620 -0.0096  0.5012
 1009MOL0     C36127   9.684   6.104   7.002  0.4508  0.4989  0.2539
 1009MOL0     O36128   9.895   5.947   7.181 -0.0532 -1.1028 -0.2884
 1009MOL0     C36129   9.875   6.149   7.486  0.5189 -0.1275 -0.6034
 1009MOL0     C36130   9.923   6.173   7.618  0.0920  0.8055  0.2836
 1009MOL0     N36131  10.434   6.591   8.105  0.1642  0.3116  0.3581
 1009MOL0     N36132  10.534   6.647   8.167  0.6477 -0.8578 -0.5633
 1009MOL0     C36133  10.217   6.524   7.656  0.0833 -0.2528  0.0861
 1009MOL0     C36134  10.098   6.540   7.588 -0.1262 -0.2975  0.9531
 1009MOL0     C36135   9.802   6.518   7.211  0.1323 -0.9432  1.1126
 1009MOL0     C36136   9.694   6.476   7.290 -0.0838  0.0288 -0.1271
 1009MOL0     C36137   9.567   6.489   7.241  0.0120 -0.2014  0.0415
 1009MOL0     C36138   9.542   6.531   7.106  0.6374 -0.1234  0.4169
 1009MOL0     O36139   9.416   6.503   7.058 -1.1279 -0.2401  0.5082
 1009MOL0     C36140   9.381   6.371   7.035  0.0681 -0.3526 -0.6294
 1009MOL0     C36141   9.307   6.359   6.905  0.9487 -0.8842 -0.6761
 1009MOL0     C36142   9.362   6.449   6.784  0.0661  0.2342  0.2316
 1009MOL0     C36143   9.485   6.393   6.713 -0.7099  0.5066 -0.2660
 1009MOL0     C36144   9.590   6.482   6.671 -0.9179  0.1600 -0.2289
 1009MOL0     C36145   9.693   6.543   6.642  0.8388 -0.6740  0.0926
 1009MOL0     C36146   9.649   6.584   7.031 -0.4444 -0.5086  0.9496
 1009MOL0     C36147   9.777   6.569   7.087 -0.2510  0.6285 -0.2352
 1009MOL0     H36148  10.169   6.366   7.300  0.8851  3.3239 -1.4191
 1009MOL0     H36149  10.367   6.328   7.427 -1.0119 -2.3230  1.9358
 1009MOL0     H36150  10.615   6.419   7.553  2.5918  0.8172  1.0507
 1009MOL0     H36151  10.533   6.573   7.542 -1.4112 -1.3759 -1.3926
 1009MOL0     H36152  10.719   6.629   7.706  0.5781  0.2878  3.6179
 1009MOL0     H36153  10.596   6.568   7.808  0.1717  2.4602 -0.1252
 1009MOL0     H36154  10.688   6.349   7.807 -0.1362 -0.8732 -0.5101
 1009MOL0     H36155  10.818   6.391   7.688 -0.8227  0.6545 -0.6621
 1009MOL0     H36156  10.932   6.396   7.891 -0.8741 -0.2058  0.5835
 1009MOL0     H36157  10.926   6.552   7.812  1.9503 -1.4584  1.7989
 1009MOL0     H36158  10.757   6.645   7.967  0.1786 -0.2647 -3.0914
 1009MOL0     H36159  10.708   6.482   8.001 -0.8087 -0.5141 -1.4179
 1009MOL0     H36160  10.910   6.435   8.148 -1.2249  0.2492  1.1723
 1009MOL0     H36161  10.989   6.585   8.085 -2.0291  3.0291 -4.2425
 1009MOL0     H36162  10.920   6.648   8.295  0.1381 -4.4702  1.0766
 1009MOL0     H36163  10.800   6.728   8.182 -3.4928 -3.1402 -2.2698
 1009MOL0     H36164  10.707   6.633   8.387 -3.8142  0.5075 -1.4453
 1009MOL0     H36165  10.764   6.472   8.334  2.7854  1.3289  0.8728
 1009MOL0     H36166  10.553   6.340   8.274  2.4729  0.4362 -0.1569
 1009MOL0     H36167  10.275   6.326   8.199 -0.7857  0.3168 -0.8266
 1009MOL0     H36168  10.216   6.466   8.112 -0.1553 -0.0683  1.1046
 1009MOL0     H36169  10.417   6.267   7.981 -0.1853 -0.4973  0.0207
 1009MOL0     H36170  10.312   6.390   7.907  0.1138  1.9159  1.1084
 1009MOL0     H36171  10.111   6.238   8.002  0.4544 -3.5361  0.3583
 1009MOL0     H36172  10.236   6.108   7.993 -0.9793 -1.4948 -1.6899
 1009MOL0     H36173  10.270   6.207   7.750  2.0938  4.0560  4.4963
 1009MOL0     H36174  10.125   6.299   7.789  1.2628  0.4660  2.2204
 1009MOL0     H36175  10.167   5.934   7.609  0.2908  0.7802  0.1590
 1009MOL0     H36176  10.012   5.799   7.335  1.9760 -2.4977 -1.2038
 1009MOL0     H36177  10.147   5.890   7.260  1.6026 -0.7717  0.8558
 1009MOL0     H36178  10.180   5.813   7.394  1.5407 -0.1454 -2.7853
 1009MOL0     H36179   9.533   5.996   7.280  3.0814  1.3534  1.9894
 1009MOL0     H36180   9.360   5.942   7.143 -1.3989 -1.0872 -1.2534
 1009MOL0     H36181   9.423   6.057   6.683 -1.8747  1.7429  1.0135
 1009MOL0     H36182   9.461   5.880   6.710 -0.2580  0.9025 -1.5479
 1009MOL0     H36183   9.282   5.915   6.529 -1.0906 -0.8842 -0.7016
 1009MOL0     H36184   9.234   5.818   6.660  0.5532 -0.0725  2.6525
 1009MOL0     H36185   9.115   6.011   6.773  0.8848 -0.5333 -0.1263
 1009MOL0     H36186   9.041   5.947   6.625 -0.1049 -2.9985  3.6793
 1009MOL0     H36187   9.094   6.214   6.687  1.8784  1.6263 -0.8061
 1009MOL0     H36188   9.223   6.192   6.593  0.7662 -0.8509  1.9847
 1009MOL0     H36189   8.940   6.170   6.501  0.9582  2.3469  4.3250
 1009MOL0     H36190   9.059   6.073   6.406 -2.8662  0.1286 -1.6340
 1009MOL0     H36191   9.088   6.363   6.484 -3.3204 -2.7858  1.0834
 1009MOL0     H36192   9.196   6.264   6.378  0.9247  1.2687  0.7057
 1009MOL0     H36193   8.910   6.379   6.327  0.5826  0.0981  1.9338
 1009MOL0     H36194   8.960   6.241   6.242  1.3555 -1.4063  0.3797
 1009MOL0     H36195   9.050   6.427   6.098 -1.9870  0.7275 -0.4482
 1009MOL0     H36196   9.190   6.405   6.218 -1.0331 -1.5719  3.9792
 1009MOL0     H36197   9.605   6.075   6.801 -3.2133 -2.5734 -0.4732
 1009MOL0     H36198   9.770   6.161   6.970  0.8603 -0.5218 -0.5076
 1009MOL0     H36199   9.792   6.210   7.453 -1.6776 -2.8015 -0.3384
 1009MOL0     H36200   9.880   6.252   7.678  2.8558  4.0032 -1.5949
 1009MOL0     H36201  10.228   6.564   7.756  0.6267 -2.9970  1.2172
 1009MOL0     H36202  10.003   6.579   7.626  0.7076 -0.8362  3.8945
 1009MOL0     H36203   9.714   6.431   7.386  1.0292 -3.0910 -1.6740
 1009MOL0     H36204   9.499   6.467   7.323 -1.0483 -1.0607 -1.0295
 1009MOL0     H36205   9.470   6.308   7.041 -1.5423 -2.8755 -1.4868
 1009MOL0     H36206   9.322   6.337   7.121  1.9345  4.0414  2.7553
 1009MOL0     H36207   9.205   6.387   6.933  1.3623 -0.8495  0.8742
 1009MOL0     H36208   9.311   6.254   6.875 -1.2224 -1.5225  0.9747
 1009MOL0     H36209   9.382   6.552   6.816  0.8262  1.1349 -2.7916
 1009MOL0     H36210   9.282   6.459   6.710 -1.4754 -2.7829  1.3079
 1009MOL0     H36211   9.457   6.328   6.629 -1.3085 -0.6776  0.8324
 1009MOL0     H36212   9.535   6.326   6.783  2.6524  2.8849 -0.1462
 1009MOL0     H36213   9.777   6.596   6.604  0.8689 -1.1513 -0.5333
 1009MOL0     H36214   9.641   6.610   6.926 -0.7309  4.7246  2.0142
 1009MOL0     H36215   9.862   6.609   7.033  0.8602  0.2413  1.1700
 1010MOL0     O36216   6.082   2.452   4.813  0.8944  0.9026  1.3372
 1010MOL0     C36217   6.024   2.554   4.778 -0.2851 -0.0568 -0.2870
 1010MOL0     O36218   6.081   2.679   4.790  0.4333  0.2724  0.2861
 1010MOL0     C36219   6.206   2.693   4.831 -0.2765  0.5814  0.8421
 1010MOL0     C36220   6.227   2.736   4.956 -0.3010 -0.7396 -0.1557
 1010MOL0     C36221   6.358   2.751   5.007  1.2022  0.5072 -0.6977
 1010MOL0     C36222   6.462   2.705   4.933 -0.0398 -0.4257  0.6433
 1010MOL0     O36223   6.582   2.708   4.999 -0.0515  0.1001  0.2833
 1010MOL0     C36224   6.716   2.698   4.933 -0.4923 -0.0939  0.1624
 1010MOL0     C36225   6.758   2.824   4.863  0.0851  0.3322 -0.3834
 1010MOL0     C36226   6.886   2.807   4.787  0.4060  1.1656 -0.5932
 1010MOL0     C36227   7.012   2.820   4.890  0.1694  0.9296  0.2862
 1010MOL0     C36228   7.149   2.783   4.828 -0.2452 -0.8698 -0.6550
 1010MOL0     C36229   7.242   2.902   4.809  0.9927 -0.1407  0.2709
 1010MOL0     C36230   7.179   3.002   4.708 -0.1203 -0.8298 -0.6566
 1010MOL0     C36231   7.293   3.112   4.681  0.4635  1.0270  0.6447
 1010MOL0     N36232   7.231   3.217   4.592  0.5268 -0.7036  0.6163
 1010MOL0     C36233   7.294   3.331   4.542  0.4622  0.1153 -0.2209
 1010MOL0     C36234   7.188   3.397   4.481 -1.3645 -0.9026  0.0067
 1010MOL0     C36235   7.197   3.523   4.395  0.2062  0.3170  0.2860
 1010MOL0     C36236   7.147   3.498   4.257  0.5952  0.3521 -0.3350
 1010MOL0     C36237   7.161   3.613   4.164  1.6168 -1.6663 -0.2469
 1010MOL0     C36238   7.073   3.611   4.038  0.4610  0.3597  0.4059
 1010MOL0     O36239   7.133   3.520   3.943  0.5546  0.1258  0.1214
 1010MOL0     C36240   7.126   3.550   3.814  0.2887 -0.3233 -0.4759
 1010MOL0     C36241   7.026   3.624   3.757  0.0849  0.2932  0.1685
 1010MOL0     C36242   7.010   3.647   3.623  0.0195 -0.8130 -1.3294
 1010MOL0     C36243   6.882   3.723   3.584  0.2610 -0.5184  0.0401
 1010MOL0     C36244   7.114   3.604   3.533 -0.3071  0.7285 -0.2521
 1010MOL0     C36245   7.112   3.606   3.380 -0.1758 -0.6788 -0.5750
 1010MOL0     O36246   7.225   3.554   3.318 -0.3600  0.8707  0.0889
 1010MOL0     C36247   7.261   3.581   3.181  0.2369 -0.3147 -0.8119
 1010MOL0     C36248   7.395   3.579   3.153  0.1623 -0.1282  0.6930
 1010MOL0     C36249   7.442   3.626   3.022  0.0443  0.0874  0.0712
 1010MOL0     C36250   7.357   3.671   2.929  0.0999 -0.8576 -0.0700
 1010MOL0     O36251   7.420   3.732   2.821 -0.3191 -0.2532 -0.4238
 1010MOL0     C36252   7.326   3.770   2.724  0.5854 -0.6456  0.3225
 1010MOL0     C36253   7.376   3.879   2.623 -0.2527 -0.6274  0.5924
 1010MOL0     C36254   7.357   4.020   2.673  1.0247 -0.4305 -0.0766
 1010MOL0     C36255   7.433   4.124   2.581 -0.7679 -0.1114 -0.2585
 1010MOL0     C36256   7.417   4.274   2.632  0.1517 -0.0506  0.1017
 1010MOL0     C36257   7.270   4.318   2.627 -0.0670 -0.3899  0.2778
 1010MOL0     C36258   7.239   4.467   2.645 -0.7472 -0.3753 -0.6962
 1010MOL0     C36259   7.098   4.489   2.693  0.6093 -0.4897 -1.1250
 1010MOL0    Cl36260   6.978   4.432   2.568  0.8952  1.2787 -0.2672
 1010MOL0     C36261   7.220   3.652   2.954  1.0798 -0.6342  0.7695
 1010MOL0     C36262   7.169   3.614   3.077 -0.0125  0.4494 -0.9633
 1010MOL0     O36263   7.026   3.668   3.324 -0.3693  0.2904 -0.2268
 1010MOL0     C36264   7.223   3.530   3.598  0.3569  0.1699 -0.1125
 1010MOL0     C36265   7.229   3.499   3.741  0.4127 -0.1496  0.4308
 1010MOL0     N36266   7.073   3.326   4.487  0.3805 -0.1473  1.1389
 1010MOL0     N36267   7.090   3.226   4.568 -0.8521  0.1824  0.0037
 1010MOL0     C36268   6.445   2.660   4.799  0.9322 -0.0845  0.1545
 1010MOL0     C36269   6.315   2.656   4.751 -0.4007  0.8920  0.0378
 1010MOL0     C36270   5.886   2.555   4.755  0.2217 -0.2211  0.1654
 1010MOL0     C36271   5.800   2.662   4.794 -0.3703  0.5991 -0.4344
 1010MOL0     C36272   5.661   2.659   4.770 -0.1085  0.0905 -0.1319
 1010MOL0     C36273   5.599   2.547   4.719  0.3981  0.2108 -0.4291
 1010MOL0     O36274   5.462   2.547   4.704  0.4536 -0.6535 -0.6356
 1010MOL0     C36275   5.402   2.450   4.619  0.1824  0.3819 -0.8637
 1010MOL0     C36276   5.380   2.306   4.690  0.0644 -0.2467 -0.3970
 1010MOL0     C36277   5.287   2.326   4.808 -0.2698  0.2623 -0.7011
 1010MOL0     C36278   5.260   2.192   4.884 -0.0321 -0.6516  1.1246
 1010MOL0     C36279   5.162   2.109   4.805  0.4689  0.5906  0.3826
 1010MOL0     C36280   5.077   2.040   4.745 -0.1861 -0.1293  0.1858
 1010MOL0     C36281   5.690   2.443   4.670  1.0647  0.7141  0.9847
 1010MOL0     C36282   5.828   2.454   4.676  0.4772 -0.6091  0.7028
 1010MOL0     H36283   6.144   2.771   5.017  0.0794  3.3223 -1.7137
 1010MOL0     H36284   6.393   2.787   5.103 -1.3570 -0.4230  0.6898
 1010MOL0     H36285   6.800   2.674   4.998  0.2724  1.9797  0.0361
 1010MOL0     H36286   6.712   2.613   4.864 -0.3480  0.1796 -0.1925
 1010MOL0     H36287   6.679   2.879   4.810 -0.7617 -0.4707  0.0082
 1010MOL0     H36288   6.777   2.886   4.950  1.4803 -4.0273  2.7824
 1010MOL0     H36289   6.892   2.712   4.734 -3.5181 -1.1199  2.4329
 1010MOL0     H36290   6.903   2.896   4.726 -1.1657  3.2343  1.7846
 1010MOL0     H36291   7.021   2.924   4.923 -1.0265  0.6087  1.7795
 1010MOL0     H36292   6.991   2.766   4.983  1.4615 -1.1354 -0.5493
 1010MOL0     H36293   7.201   2.706   4.887 -1.6565  0.4251  2.5448
 1010MOL0     H36294   7.138   2.736   4.730  2.8443  2.6907 -2.9740
 1010MOL0     H36295   7.265   2.937   4.910  0.3312 -0.5780  0.5758
 1010MOL0     H36296   7.334   2.868   4.760 -0.1037  0.9395 -2.8311
 1010MOL0     H36297   7.172   2.950   4.612  1.9427  1.3683 -2.1057
 1010MOL0     H36298   7.081   3.043   4.735 -0.0395 -0.1549 -1.3539
 1010MOL0     H36299   7.386   3.087   4.629 -0.9465  1.7483 -2.4664
 1010MOL0     H36300   7.322   3.164   4.772  0.3208  2.8369 -0.3072
 1010MOL0     H36301   7.397   3.365   4.543 -0.6099  3.7689  0.3147
 1010MOL0     H36302   7.119   3.590   4.432 -3.7580 -1.8150 -3.2948
 1010MOL0     H36303   7.299   3.563   4.399 -0.5508  2.4222 -0.1942
 1010MOL0     H36304   7.042   3.470   4.255  0.8616 -1.3132  2.9108
 1010MOL0     H36305   7.203   3.417   4.209  0.4848  0.5588 -0.8167
 1010MOL0     H36306   7.266   3.604   4.135  1.8341 -3.7610  0.9920
 1010MOL0     H36307   7.144   3.702   4.225 -1.4841 -1.7257 -0.8450
 1010MOL0     H36308   7.054   3.710   3.996  1.1810  2.2764  4.1625
 1010MOL0     H36309   6.981   3.564   4.072  1.3377 -1.7771  0.0470
 1010MOL0     H36310   6.940   3.650   3.818 -1.1133 -0.5612 -1.1055
 1010MOL0     H36311   6.829   3.695   3.493  1.9728 -1.5072 -0.7077
 1010MOL0     H36312   6.818   3.727   3.672 -0.3397 -0.2658 -0.3958
 1010MOL0     H36313   6.901   3.830   3.566 -0.6720  0.2836  3.2218
 1010MOL0     H36314   7.472   3.560   3.228  0.0606 -0.0797  0.8103
 1010MOL0     H36315   7.549   3.628   3.007 -0.0814  0.3018 -0.9322
 1010MOL0     H36316   7.283   3.678   2.684 -1.6875 -0.0332  1.2190
 1010MOL0     H36317   7.240   3.827   2.759 -0.7396 -2.2810 -0.1177
 1010MOL0     H36318   7.477   3.868   2.581 -0.0912  1.4152  0.3356
 1010MOL0     H36319   7.302   3.871   2.543  0.4017  0.1468 -0.1032
 1010MOL0     H36320   7.396   4.032   2.774  2.4647 -0.1890 -0.6305
 1010MOL0     H36321   7.253   4.052   2.682  0.7066 -1.8456  1.6860
 1010MOL0     H36322   7.538   4.094   2.579 -1.4441 -2.8787  1.2714
 1010MOL0     H36323   7.388   4.120   2.481 -0.2709  0.7794 -0.5266
 1010MOL0     H36324   7.495   4.335   2.585  0.5587  1.1174  2.1828
 1010MOL0     H36325   7.432   4.270   2.741 -2.2747 -3.0663  0.4546
 1010MOL0     H36326   7.219   4.308   2.531 -1.0100  1.6065  0.5173
 1010MOL0     H36327   7.213   4.268   2.706 -1.8910 -0.9285 -1.2866
 1010MOL0     H36328   7.255   4.515   2.548 -1.4520  1.9064  0.2651
 1010MOL0     H36329   7.312   4.515   2.710  0.3625  0.3919 -2.4458
 1010MOL0     H36330   7.085   4.594   2.718  1.8694 -0.6785  0.4282
 1010MOL0     H36331   7.089   4.423   2.780  0.1326 -3.0170 -2.9427
 1010MOL0     H36332   7.142   3.682   2.885  2.0751  1.3275  0.4373
 1010MOL0     H36333   7.063   3.602   3.095  0.5840 -1.5088  1.9730
 1010MOL0     H36334   7.304   3.487   3.540  1.5237  1.1372  0.7498
 1010MOL0     H36335   7.309   3.437   3.780  2.1107  0.5353 -1.7408
 1010MOL0     H36336   6.532   2.653   4.734  0.9685  2.4583 -0.1803
 1010MOL0     H36337   6.310   2.630   4.645  1.0696  2.8027 -0.5598
 1010MOL0     H36338   5.849   2.747   4.842  0.6274 -0.5849  0.7460
 1010MOL0     H36339   5.615   2.748   4.812  3.2833  0.5446  3.1704
 1010MOL0     H36340   5.305   2.482   4.580 -0.9235 -1.8377 -0.1247
 1010MOL0     H36341   5.471   2.435   4.536  0.5103  0.7739 -0.6674
 1010MOL0     H36342   5.474   2.265   4.729 -1.1965  0.2402  3.5905
 1010MOL0     H36343   5.333   2.245   4.612 -1.1292  3.0683 -2.4452
 1010MOL0     H36344   5.190   2.367   4.778 -0.1938  0.1471 -1.1147
 1010MOL0     H36345   5.332   2.397   4.877 -1.9268  1.9248 -1.2328
 1010MOL0     H36346   5.214   2.212   4.982 -2.7018 -1.1126  0.0566
 1010MOL0     H36347   5.348   2.128   4.899 -1.7113 -2.4108  4.8148
 1010MOL0     H36348   5.013   1.967   4.699  0.1291  0.7719 -1.7765
 1010MOL0     H36349   5.650   2.351   4.630  1.9015 -1.1289  4.0728
 1010MOL0     H36350   5.902   2.383   4.639 -0.1576 -1.6516  1.3860
 1011MOL0     O36351   0.854   4.991  10.605 -0.2396 -0.2521  0.3236
 1011MOL0     C36352   0.887   4.878  10.588  0.1963  0.4238 -0.9298
 1011MOL0     O36353   0.898   4.781  10.691  0.4994  0.2807 -0.0322
 1011MOL0     C36354   0.871   4.812  10.819 -0.4090  1.1750 -1.0499
 1011MOL0     C36355   0.842   4.935  10.886  0.5007 -1.2277 -0.9804
 1011MOL0     C36356   0.809   4.936  11.024  0.8354 -0.5083  0.6964
 1011MOL0     C36357   0.795   4.817  11.091  1.0873  1.2158  0.3101
 1011MOL0     O36358   0.773   4.820  11.223  0.1789 -0.0317 -0.1436
 1011MOL0     C36359   0.893   4.767  11.283  0.3464 -0.2584  0.1873
 1011MOL0     C36360   0.891   4.808  11.436  0.7242  1.0516  0.2439
 1011MOL0     C36361   1.029   4.820  11.507  0.4723  0.1333 -0.1824
 1011MOL0     C36362   1.100   4.951  11.465 -0.1643 -0.0822 -0.0617
 1011MOL0     C36363   1.048   5.076  11.557  0.5613  0.7683  0.2655
 1011MOL0     C36364   1.135   5.198  11.554 -0.9789  0.8736 -0.6748
 1011MOL0     C36365   1.140   5.273  11.424  0.3871  0.2050  0.6501
 1011MOL0     C36366   1.240   5.234  11.321  0.2051  0.7292  1.1145
 1011MOL0     N36367   1.375   5.247  11.376  0.8307  0.7704 -0.0992
 1011MOL0     C36368   1.440   5.367  11.388  0.5022  1.0129 -0.1337
 1011MOL0     C36369   1.569   5.333  11.424  0.1961 -0.0474 -0.0904
 1011MOL0     C36370   1.687   5.422  11.446 -0.1837 -0.9014 -0.4476
 1011MOL0     C36371   1.827   5.368  11.462 -1.2982  0.8723 -0.5950
 1011MOL0     C36372   1.893   5.315  11.338  0.5830  1.1435  0.6631
 1011MOL0     C36373   1.904   5.419  11.228  0.5289  0.1553 -0.6288
 1011MOL0     O36374   1.979   5.533  11.279  0.1882  0.4251  1.2516
 1011MOL0     C36375   2.036   5.623  11.199 -0.8681 -0.0700 -0.3081
 1011MOL0     C36376   1.978   5.664  11.076  1.0061 -0.0169 -0.7251
 1011MOL0     C36377   2.054   5.761  10.991  0.8815  0.4714 -0.9625
 1011MOL0     C36378   1.978   5.785  10.864 -0.1411  0.1869  0.2168
 1011MOL0     C36379   2.166   5.825  11.031 -0.0691  0.2007 -0.0552
 1011MOL0     C36380   2.233   5.931  10.962  0.0448  0.6156 -0.1600
 1011MOL0     O36381   2.145   6.009  10.881 -0.5756  0.0282  0.2227
 1011MOL0     C36382   2.203   6.117  10.818 -0.1680 -0.5769  0.1787
 1011MOL0     C36383   2.197   6.251  10.868  0.6841 -0.6169  0.2363
 1011MOL0     C36384   2.279   6.347  10.821 -0.2138  0.1602 -0.7916
 1011MOL0     C36385   2.383   6.322  10.732  0.6246  0.0189  1.0448
 1011MOL0     O36386   2.469   6.417  10.689  0.8736  0.1265  0.8472
 1011MOL0     C36387   2.583   6.431  10.773 -0.5295 -0.2792  0.4150
 1011MOL0     C36388   2.664   6.304  10.769 -0.3532  0.2336  0.4086
 1011MOL0     C36389   2.786   6.310  10.859 -0.1341  0.1149  0.4998
 1011MOL0     C36390   2.868   6.185  10.818 -0.3218 -0.3042  0.0690
 1011MOL0     C36391   2.973   6.144  10.931  0.2538 -0.0143 -0.3717
 1011MOL0     C36392   3.079   6.051  10.887 -0.3409 -0.0129  0.2381
 1011MOL0     C36393   3.200   6.036  10.976 -0.1035 -0.7021 -1.2991
 1011MOL0     C36394   3.293   6.151  10.974  0.6576 -0.9859 -0.7112
 1011MOL0    Cl36395   3.406   6.136  10.839 -0.2510  0.2038  0.2795
 1011MOL0     C36396   2.375   6.195  10.663 -0.0342  0.7369 -0.1121
 1011MOL0     C36397   2.292   6.088  10.709 -0.2882 -0.9809 -0.4482
 1011MOL0     O36398   2.357   5.945  10.979 -0.5645 -1.1363 -0.0526
 1011MOL0     C36399   2.210   5.780  11.158 -0.0102 -0.1921  1.2122
 1011MOL0     C36400   2.160   5.679  11.240  0.3792  0.9972  0.6719
 1011MOL0     N36401   1.573   5.200  11.449  0.4471  0.8044  0.7310
 1011MOL0     N36402   1.456   5.146  11.413 -0.4177  0.2393  0.6083
 1011MOL0     C36403   0.811   4.694  11.027  0.8251 -0.1233 -0.1685
 1011MOL0     C36404   0.842   4.696  10.893  0.6871 -0.0578  0.5045
 1011MOL0     C36405   0.892   4.835  10.448 -0.7384  1.3782  0.0058
 1011MOL0     C36406   0.862   4.925  10.345  1.1244  0.1096 -0.0226
 1011MOL0     C36407   0.886   4.882  10.212  0.4346  0.9223 -0.6454
 1011MOL0     C36408   0.931   4.757  10.168  0.5497 -0.0373 -0.7974
 1011MOL0     O36409   0.932   4.734  10.035 -0.6054  0.2345  0.5890
 1011MOL0     C36410   0.966   4.604   9.980 -0.6975 -0.3271  0.0621
 1011MOL0     C36411   0.853   4.497  10.000  0.2425 -0.5781  0.3733
 1011MOL0     C36412   0.728   4.520   9.910  0.1054  0.2630  0.9446
 1011MOL0     C36413   0.638   4.396   9.896 -0.2252  0.7382  0.3863
 1011MOL0     C36414   0.712   4.291   9.837  0.3847  0.4312  0.7878
 1011MOL0     C36415   0.772   4.205   9.779 -0.2531 -0.5127 -0.6658
 1011MOL0     C36416   0.954   4.668  10.272  0.1559 -0.5480  0.4321
 1011MOL0     C36417   0.939   4.708  10.411 -0.2492  0.6243 -0.0820
 1011MOL0     H36418   0.842   5.031  10.835 -1.3042  0.1637  1.4437
 1011MOL0     H36419   0.782   5.032  11.067  1.4648  1.1709 -2.3607
 1011MOL0     H36420   0.878   4.659  11.280 -0.1229 -0.1800 -1.1714
 1011MOL0     H36421   0.983   4.797  11.227 -1.6874 -0.7723 -3.6945
 1011MOL0     H36422   0.826   4.894  11.453 -2.8782 -0.3640 -4.2554
 1011MOL0     H36423   0.829   4.732  11.485  0.0996  2.2348  1.3422
 1011MOL0     H36424   0.999   4.824  11.612 -3.6519  1.8591 -1.2692
 1011MOL0     H36425   1.087   4.727  11.503 -1.5471 -1.1872 -0.3520
 1011MOL0     H36426   1.208   4.936  11.471 -0.3133 -1.9715 -1.4284
 1011MOL0     H36427   1.077   4.973  11.360 -0.9907 -1.6787 -0.2356
 1011MOL0     H36428   0.949   5.107  11.523 -0.0436 -0.9103  0.4027
 1011MOL0     H36429   1.028   5.036  11.657  0.7895 -0.8822 -0.3022
 1011MOL0     H36430   1.109   5.271  11.631 -1.1493  0.7814 -0.6454
 1011MOL0     H36431   1.237   5.169  11.582 -0.1893  1.7844 -2.3712
 1011MOL0     H36432   1.045   5.263  11.369 -0.0370  0.7694  1.2675
 1011MOL0     H36433   1.152   5.376  11.460 -0.2757 -0.2271  2.1864
 1011MOL0     H36434   1.229   5.290  11.228  1.1614  1.5962  1.4989
 1011MOL0     H36435   1.229   5.128  11.300  3.5569  0.4017  0.4353
 1011MOL0     H36436   1.404   5.465  11.359  0.7042  0.8817 -0.8383
 1011MOL0     H36437   1.689   5.510  11.381 -1.5730  1.0266  1.9432
 1011MOL0     H36438   1.667   5.469  11.543 -0.3318  1.3968 -1.5368
 1011MOL0     H36439   1.833   5.288  11.537 -0.1841  1.9232  0.4865
 1011MOL0     H36440   1.897   5.445  11.497  1.9391 -2.9172  2.2162
 1011MOL0     H36441   1.851   5.219  11.303  0.7762  0.9027  1.0823
 1011MOL0     H36442   1.995   5.289  11.368  0.5599 -1.9318 -1.4269
 1011MOL0     H36443   1.804   5.443  11.190  0.8201  1.1424 -0.8143
 1011MOL0     H36444   1.959   5.370  11.147 -1.7935 -1.4444 -1.3589
 1011MOL0     H36445   1.886   5.621  11.037 -0.0585  2.4942 -1.2328
 1011MOL0     H36446   2.060   5.787  10.793  0.6793  1.9534  1.1527
 1011MOL0     H36447   1.901   5.713  10.833 -0.2585  0.5452 -0.3306
 1011MOL0     H36448   1.936   5.886  10.876  0.6209  0.3279  2.1226
 1011MOL0     H36449   2.151   6.280  10.962 -1.3948  0.1802 -0.9592
 1011MOL0     H36450   2.288   6.434  10.886 -2.5716 -2.7580  4.0028
 1011MOL0     H36451   2.645   6.514  10.738  1.2826 -0.9552  1.8788
 1011MOL0     H36452   2.556   6.453  10.877  0.3315 -0.4691  0.6855
 1011MOL0     H36453   2.604   6.215  10.794 -1.0935  0.6201  0.0454
 1011MOL0     H36454   2.689   6.287  10.664  2.4820 -1.0272  1.1669
 1011MOL0     H36455   2.755   6.310  10.964 -1.4198  2.6304  0.1815
 1011MOL0     H36456   2.838   6.406  10.856 -1.4534  1.2099  5.1128
 1011MOL0     H36457   2.799   6.101  10.810 -2.9367  1.4995  1.7733
 1011MOL0     H36458   2.930   6.198  10.729  1.1423 -2.7288  0.6370
 1011MOL0     H36459   2.917   6.097  11.012  0.7171 -2.4533 -1.3520
 1011MOL0     H36460   3.021   6.233  10.971 -0.7974 -0.4802  2.0731
 1011MOL0     H36461   3.035   5.952  10.876  0.0923 -0.5659  2.8220
 1011MOL0     H36462   3.113   6.085  10.788 -3.1571  0.6393 -0.5902
 1011MOL0     H36463   3.258   5.945  10.957 -0.0756 -0.8943 -0.3579
 1011MOL0     H36464   3.159   6.030  11.077  0.8778  0.6826 -0.7927
 1011MOL0     H36465   3.335   6.158  11.075 -1.6111  1.8793  0.1747
 1011MOL0     H36466   3.235   6.243  10.962 -0.3781 -1.5669 -0.3339
 1011MOL0     H36467   2.459   6.190  10.594  0.6359  0.9994  0.6655
 1011MOL0     H36468   2.302   5.994  10.657  0.5404 -0.4798 -1.2351
 1011MOL0     H36469   2.301   5.820  11.202  1.2253 -0.3255 -1.0506
 1011MOL0     H36470   2.216   5.649  11.328 -0.3113  0.4967  0.9473
 1011MOL0     H36471   0.796   4.594  11.066 -1.7078  0.3532  0.2871
 1011MOL0     H36472   0.851   4.600  10.843  0.3116  0.6972 -1.0692
 1011MOL0     H36473   0.827   5.022  10.377 -1.2072  0.1728 -2.4010
 1011MOL0     H36474   0.840   4.945  10.136 -0.6264  0.2618 -0.5743
 1011MOL0     H36475   0.987   4.624   9.875  0.6439  1.2542  0.5902
 1011MOL0     H36476   1.064   4.572  10.017  0.3569  2.0135 -0.5268
 1011MOL0     H36477   0.817   4.513  10.102  0.2632 -2.3554  0.6987
 1011MOL0     H36478   0.886   4.395   9.976 -1.4981 -1.0553 -0.1184
 1011MOL0     H36479   0.750   4.568   9.814  1.8469  0.2743  1.3078
 1011MOL0     H36480   0.670   4.596   9.961 -0.2484  0.2027  0.6368
 1011MOL0     H36481   0.548   4.425   9.840 -2.5539 -1.9423  2.4223
 1011MOL0     H36482   0.600   4.359   9.992 -1.3116 -0.8726 -0.6065
 1011MOL0     H36483   0.830   4.123   9.739 -1.6700 -3.6712  3.1117
 1011MOL0     H36484   0.991   4.568  10.251  2.6596  0.6174 -1.2558
 1011MOL0     H36485   0.957   4.632  10.486 -1.6680  0.1973 -0.1523
 1012MOL0     O36486  10.052   1.156   8.940  1.1830 -0.0894 -0.4162
 1012MOL0     C36487  10.094   1.261   8.994  0.0031  0.7017  0.5353
 1012MOL0     O36488  10.223   1.314   8.970  0.6573 -0.1817  0.4010
 1012MOL0     C36489  10.283   1.265   8.856 -0.2907 -0.2562 -0.3886
 1012MOL0     C36490  10.395   1.176   8.852 -0.7797 -0.5910 -0.2772
 1012MOL0     C36491  10.438   1.132   8.723  0.4882  0.8379  0.5730
 1012MOL0     C36492  10.376   1.175   8.600  0.4002  0.8195  0.0627
 1012MOL0     O36493  10.425   1.114   8.483 -0.1100 -0.3464 -0.4716
 1012MOL0     C36494  10.434   1.190   8.367 -0.1081 -1.1395 -0.2319
 1012MOL0     C36495  10.511   1.105   8.261  0.3804 -0.8160  0.9775
 1012MOL0     C36496  10.417   0.996   8.204 -0.3911  0.4772 -0.1998
 1012MOL0     C36497  10.487   0.904   8.112  0.0956  0.8717  0.2368
 1012MOL0     C36498  10.394   0.806   8.045 -0.2872  1.2044 -0.1041
 1012MOL0     C36499  10.481   0.701   7.973  0.5889 -0.3185  0.6117
 1012MOL0     C36500  10.406   0.589   7.897 -0.0916 -0.3626 -0.4298
 1012MOL0     C36501  10.507   0.510   7.814  0.5443 -0.0756  0.4569
 1012MOL0     N36502  10.589   0.596   7.724  1.2335 -0.6253 -0.2165
 1012MOL0     C36503  10.724   0.571   7.699  0.0152  0.7924  0.1883
 1012MOL0     C36504  10.746   0.666   7.592  1.3216  0.7062 -0.5501
 1012MOL0     C36505  10.882   0.697   7.533  0.8859 -0.3640 -0.4129
 1012MOL0     C36506  10.892   0.856   7.521 -0.3721 -0.0809  0.3431
 1012MOL0     C36507  10.915   0.928   7.658 -0.2519  0.4809 -0.2563
 1012MOL0     C36508  10.776   0.966   7.718 -0.6185 -0.1211 -0.1751
 1012MOL0     O36509  10.790   1.082   7.794  0.2400 -0.3726  0.2431
 1012MOL0     C36510  10.817   1.078   7.925  0.9894  0.0109 -0.6137
 1012MOL0     C36511  10.858   1.198   7.971 -0.0608 -0.6574 -0.9755
 1012MOL0     C36512  10.873   1.234   8.110  0.2370  0.7005  0.5464
 1012MOL0     C36513  10.926   1.363   8.162 -0.0875 -1.0718  0.6978
 1012MOL0     C36514  10.863   1.123   8.192  0.8335 -0.6280  0.2928
 1012MOL0     C36515  10.886   1.137   8.332  0.8407  0.3510  0.2867
 1012MOL0     O36516  10.799   1.206   8.398  0.4355 -0.5623  0.9997
 1012MOL0     C36517  10.806   1.239   8.534 -0.5353 -0.1441  0.0638
 1012MOL0     C36518  10.889   1.185   8.639  0.1745  0.1780 -0.0410
 1012MOL0     C36519  10.863   1.223   8.774 -0.4295  0.4455 -0.1652
 1012MOL0     C36520  10.773   1.329   8.799  0.7820  0.3271 -0.5982
 1012MOL0     O36521  10.752   1.370   8.942  0.1935 -0.0620  0.2295
 1012MOL0     C36522  10.618   1.348   8.978  0.4194 -0.1934 -0.0222
 1012MOL0     C36523  10.584   1.429   9.100  0.4228  0.5845 -0.2807
 1012MOL0     C36524  10.602   1.574   9.080 -0.0915  0.3217  0.9396
 1012MOL0     C36525  10.560   1.663   9.195 -0.3233  0.1958 -0.1294
 1012MOL0     C36526  10.502   1.798   9.142  0.6920 -0.4373  0.2310
 1012MOL0     C36527  10.352   1.778   9.110 -0.1347 -0.4409  1.3060
 1012MOL0     C36528  10.286   1.916   9.079  0.0096 -0.9934  0.0573
 1012MOL0     C36529  10.250   1.993   9.207 -0.1503  0.2853 -0.8227
 1012MOL0    Cl36530  10.127   1.900   9.307 -0.2700  0.3224 -0.1763
 1012MOL0     C36531  10.698   1.381   8.693 -0.8576  0.4868  0.0843
 1012MOL0     C36532  10.718   1.341   8.561 -0.0040  0.0445 -0.3506
 1012MOL0     O36533  10.976   1.075   8.375 -1.2947  0.3266  0.9848
 1012MOL0     C36534  10.826   0.997   8.148 -0.1941  0.5981  0.2164
 1012MOL0     C36535  10.800   0.977   8.012  0.3563  0.7098 -0.6550
 1012MOL0     N36536  10.613   0.718   7.559 -0.4041  0.6717 -0.4106
 1012MOL0     N36537  10.530   0.677   7.637 -0.5405  0.6728  0.2289
 1012MOL0     C36538  10.281   1.274   8.611  0.3829 -0.7080  1.0220
 1012MOL0     C36539  10.232   1.317   8.736 -0.0012 -0.1390  0.5327
 1012MOL0     C36540  10.015   1.331   9.091  0.5893  0.4128 -0.5078
 1012MOL0     C36541  10.015   1.466   9.069  0.2903 -0.6937 -0.5525
 1012MOL0     C36542   9.950   1.547   9.167  0.0733  0.4397  0.3453
 1012MOL0     C36543   9.883   1.484   9.276  0.4100  0.1182 -0.2221
 1012MOL0     O36544   9.817   1.573   9.355  0.5424  0.6146 -0.2281
 1012MOL0     C36545   9.745   1.518   9.468 -0.2112 -0.0370 -1.2165
 1012MOL0     C36546   9.665   1.625   9.541  1.2994 -0.5892  0.7523
 1012MOL0     C36547   9.745   1.752   9.586 -0.8113  0.3372  0.0546
 1012MOL0     C36548   9.666   1.856   9.646  0.0468 -0.3902 -0.4428
 1012MOL0     C36549   9.745   1.967   9.706 -0.0214  1.1495  0.9810
 1012MOL0     C36550   9.801   2.041   9.770  0.4649 -1.2036  0.2120
 1012MOL0     C36551   9.882   1.347   9.287 -0.0599 -0.3259  0.5082
 1012MOL0     C36552   9.953   1.264   9.200  0.1221  0.1796  0.9767
 1012MOL0     H36553  10.434   1.144   8.948 -1.6158 -1.4583 -0.2076
 1012MOL0     H36554  10.521   1.065   8.706 -0.4060 -0.2420  0.3345
 1012MOL0     H36555  10.341   1.236   8.332  0.1569 -0.3382  0.0922
 1012MOL0     H36556  10.489   1.281   8.394  0.8328 -0.9629 -2.5520
 1012MOL0     H36557  10.554   1.168   8.182 -1.4103 -0.9143 -0.1491
 1012MOL0     H36558  10.595   1.051   8.305  0.6077 -3.2939 -2.0933
 1012MOL0     H36559  10.368   0.941   8.285  4.1833 -5.3753 -0.7283
 1012MOL0     H36560  10.341   1.050   8.147  0.2833 -0.1806 -1.7904
 1012MOL0     H36561  10.549   0.954   8.037  0.9842 -0.6863 -0.1024
 1012MOL0     H36562  10.552   0.849   8.180 -1.2115 -2.2808 -0.9060
 1012MOL0     H36563  10.328   0.762   8.121  2.8770 -0.8453  1.7147
 1012MOL0     H36564  10.341   0.855   7.963 -0.4963  0.1171 -0.6487
 1012MOL0     H36565  10.542   0.762   7.906  1.5201 -2.9404 -1.0658
 1012MOL0     H36566  10.547   0.651   8.045  1.8144 -0.3310 -0.4878
 1012MOL0     H36567  10.347   0.524   7.963 -1.2763 -0.1055 -1.1972
 1012MOL0     H36568  10.333   0.636   7.831  0.9651  0.0745 -1.3004
 1012MOL0     H36569  10.453   0.432   7.760  0.0808  1.1626 -0.9546
 1012MOL0     H36570  10.584   0.463   7.876 -0.3819 -1.1132  0.8460
 1012MOL0     H36571  10.787   0.491   7.737 -2.3720 -1.4434 -0.2556
 1012MOL0     H36572  10.958   0.663   7.604  1.6902  2.7881  0.3882
 1012MOL0     H36573  10.898   0.649   7.436 -0.7726 -1.5038 -0.1729
 1012MOL0     H36574  10.814   0.907   7.464  0.0176  0.3126  0.1574
 1012MOL0     H36575  10.977   0.876   7.455 -2.7114 -0.5992 -3.0706
 1012MOL0     H36576  10.969   1.020   7.635  0.2133  0.3591  0.3315
 1012MOL0     H36577  10.972   0.878   7.737  0.5234 -0.0268 -1.1233
 1012MOL0     H36578  10.716   0.884   7.758  1.2215 -3.3452 -3.4766
 1012MOL0     H36579  10.714   1.009   7.638  0.5742 -4.0534 -3.5624
 1012MOL0     H36580  10.889   1.274   7.899  2.0308  0.1606  0.6877
 1012MOL0     H36581  10.859   1.420   8.227 -0.6685  0.2991 -1.0386
 1012MOL0     H36582  11.027   1.348   8.201  2.0919  2.6347 -2.7200
 1012MOL0     H36583  10.945   1.421   8.072 -1.0896 -1.6335  0.1096
 1012MOL0     H36584  10.954   1.102   8.612 -3.9460 -3.3788 -0.2794
 1012MOL0     H36585  10.909   1.162   8.851  0.8366 -1.0295 -1.9944
 1012MOL0     H36586  10.547   1.376   8.900 -0.2045 -0.9824  0.2444
 1012MOL0     H36587  10.613   1.243   9.010  1.9706  0.1014  1.2887
 1012MOL0     H36588  10.478   1.407   9.113  0.2467  1.5805  0.0421
 1012MOL0     H36589  10.644   1.413   9.191 -1.0741 -0.4736  0.5546
 1012MOL0     H36590  10.536   1.595   8.996 -1.6617 -1.0427  1.7670
 1012MOL0     H36591  10.701   1.600   9.042 -1.3684  2.7816 -1.0051
 1012MOL0     H36592  10.487   1.615   9.262  0.7939 -2.2131 -0.5188
 1012MOL0     H36593  10.643   1.683   9.263  0.4486  3.4907 -1.8484
 1012MOL0     H36594  10.553   1.858   9.066  0.0306  3.8087  2.7668
 1012MOL0     H36595  10.493   1.856   9.234 -3.1409  0.9212 -0.8197
 1012MOL0     H36596  10.338   1.724   9.016 -0.2232 -0.4018  1.2960
 1012MOL0     H36597  10.307   1.718   9.190 -0.0303 -3.4635 -0.7431
 1012MOL0     H36598  10.197   1.896   9.019 -1.3198 -0.2460  1.7038
 1012MOL0     H36599  10.358   1.979   9.025 -1.7255  0.6053 -0.4889
 1012MOL0     H36600  10.222   2.093   9.171  0.1427  0.6777  0.0112
 1012MOL0     H36601  10.336   1.993   9.275 -1.0758 -0.4123  0.3935
 1012MOL0     H36602  10.616   1.449   8.712 -1.1417  0.7871 -1.9248
 1012MOL0     H36603  10.659   1.376   8.477 -4.9021  1.9872  3.4180
 1012MOL0     H36604  10.820   0.921   8.225  1.7479  0.3062  0.1490
 1012MOL0     H36605  10.760   0.879   7.987  1.2144 -1.4087  4.8435
 1012MOL0     H36606  10.245   1.299   8.512 -1.6992 -1.3265  1.5593
 1012MOL0     H36607  10.152   1.390   8.736  0.4201  0.4302  3.2524
 1012MOL0     H36608  10.077   1.517   8.996  0.6802 -1.0752 -0.4943
 1012MOL0     H36609   9.968   1.654   9.169  0.1569  0.4190  0.7267
 1012MOL0     H36610   9.677   1.437   9.440  0.0843 -0.8027  0.1748
 1012MOL0     H36611   9.830   1.484   9.528  1.4363 -1.4426 -4.1578
 1012MOL0     H36612   9.612   1.576   9.623 -0.0298 -2.5354 -1.1499
 1012MOL0     H36613   9.586   1.654   9.471  3.9487 -1.1134 -2.7573
 1012MOL0     H36614   9.787   1.784   9.490 -3.0349 -0.7446 -1.3797
 1012MOL0     H36615   9.824   1.715   9.652 -1.3074 -3.1665 -1.0686
 1012MOL0     H36616   9.617   1.805   9.729 -4.8694  2.3391 -1.2699
 1012MOL0     H36617   9.597   1.898   9.572  0.1496 -0.8864 -0.8306
 1012MOL0     H36618   9.841   2.112   9.840  0.2244 -1.0155  0.1633
 1012MOL0     H36619   9.853   1.301   9.381 -2.5731  3.5893  1.9356
 1012MOL0     H36620   9.958   1.156   9.197 -0.7857  0.1180 -3.2290
 1013MOL0     O36621   6.956   2.332   9.013  0.3669 -0.4558 -0.2757
 1013MOL0     C36622   7.011   2.312   9.126  0.0908 -0.9313 -0.3551
 1013MOL0     O36623   7.122   2.231   9.144  0.3540 -1.3560 -0.4613
 1013MOL0     C36624   7.180   2.187   9.028 -0.8661 -0.8290 -1.1428
 1013MOL0     C36625   7.125   2.076   8.952  0.0194 -0.1736 -0.0429
 1013MOL0     C36626   7.198   2.019   8.843 -0.5169 -0.3521  0.3849
 1013MOL0     C36627   7.315   2.088   8.800 -0.2708  0.2836  1.1352
 1013MOL0     O36628   7.386   2.063   8.687  0.6120 -0.4870  0.5573
 1013MOL0     C36629   7.324   2.124   8.573  0.6893 -0.8643  0.2208
 1013MOL0     C36630   7.411   2.102   8.460 -0.1145 -0.7111  0.8866
 1013MOL0     C36631   7.368   2.180   8.335 -0.6165  1.5144 -0.0318
 1013MOL0     C36632   7.214   2.224   8.316 -0.8994 -0.0837  0.7411
 1013MOL0     C36633   7.193   2.321   8.195  0.3422  0.0567  0.3445
 1013MOL0     C36634   7.199   2.255   8.060 -0.0835 -0.0590  0.7824
 1013MOL0     C36635   7.216   2.365   7.953  0.0034 -0.4395 -0.2305
 1013MOL0     C36636   7.173   2.326   7.809  0.1599 -0.5236  1.0499
 1013MOL0     N36637   7.039   2.261   7.812 -0.1889 -0.0091 -0.9079
 1013MOL0     C36638   7.011   2.126   7.812 -0.8581 -0.1629 -0.4531
 1013MOL0     C36639   6.877   2.125   7.812  0.0049  0.5576 -1.1886
 1013MOL0     C36640   6.784   2.009   7.826  0.4838  0.1834 -0.8456
 1013MOL0     C36641   6.818   1.925   7.951  0.0351  0.3206 -1.2799
 1013MOL0     C36642   6.808   2.008   8.074 -0.0846  0.5531  0.2438
 1013MOL0     C36643   6.812   1.919   8.195 -0.2279 -1.0807 -0.9357
 1013MOL0     O36644   6.949   1.879   8.206 -0.1721  0.3044  0.3184
 1013MOL0     C36645   6.980   1.811   8.317  0.5292  1.2485  0.8144
 1013MOL0     C36646   7.117   1.800   8.332 -1.3702  1.0297 -0.5493
 1013MOL0     C36647   7.185   1.725   8.426  0.0087  0.0724  0.0532
 1013MOL0     C36648   7.330   1.708   8.412  0.0796 -0.6177  0.5056
 1013MOL0     C36649   7.106   1.655   8.523 -0.6865 -0.4323  0.6603
 1013MOL0     C36650   7.160   1.577   8.636 -0.2301 -0.2477 -0.5940
 1013MOL0     O36651   7.216   1.662   8.738  0.3839 -0.7539 -0.3647
 1013MOL0     C36652   7.266   1.623   8.860 -0.0961  0.3153  0.7435
 1013MOL0     C36653   7.225   1.511   8.928 -0.4090 -0.1908  0.3415
 1013MOL0     C36654   7.291   1.461   9.046  0.8462  0.5667 -0.9211
 1013MOL0     C36655   7.405   1.536   9.093  0.6535 -0.2709 -0.6890
 1013MOL0     O36656   7.470   1.484   9.207 -0.4944 -0.1617  0.1413
 1013MOL0     C36657   7.615   1.495   9.228  0.8308  0.4742  0.4884
 1013MOL0     C36658   7.646   1.567   9.360 -0.4588 -0.4147 -0.2592
 1013MOL0     C36659   7.577   1.499   9.476 -0.5074  0.2553 -0.3838
 1013MOL0     C36660   7.588   1.572   9.602  0.8368 -0.2989 -0.5412
 1013MOL0     C36661   7.701   1.513   9.681 -0.3066  0.2975 -0.2823
 1013MOL0     C36662   7.720   1.566   9.817 -0.4542 -0.6988 -0.6585
 1013MOL0     C36663   7.620   1.538   9.923 -0.1976 -0.5600 -0.9653
 1013MOL0     C36664   7.511   1.635   9.942 -0.2218 -0.9398 -0.7342
 1013MOL0    Cl36665   7.409   1.610  10.082  0.8781  0.2568 -0.0241
 1013MOL0     C36666   7.436   1.661   9.030 -0.3821 -0.0556 -0.2792
 1013MOL0     C36667   7.374   1.690   8.908 -0.1695  0.4944 -0.2337
 1013MOL0     O36668   7.133   1.458   8.645  0.2027  0.4864  0.1621
 1013MOL0     C36669   6.962   1.664   8.504  0.2323  0.6674 -1.2132
 1013MOL0     C36670   6.900   1.741   8.408  0.0284  0.0107 -0.2439
 1013MOL0     N36671   6.828   2.244   7.788  0.6106 -0.9313  0.5630
 1013MOL0     N36672   6.930   2.334   7.786 -0.2669 -0.8654 -0.0117
 1013MOL0     C36673   7.370   2.186   8.878  0.2655  0.0775 -0.0209
 1013MOL0     C36674   7.306   2.241   8.984  0.7433 -0.6342 -0.6221
 1013MOL0     C36675   6.939   2.374   9.246 -1.4164  0.2521  1.8004
 1013MOL0     C36676   6.999   2.377   9.367 -0.1868  0.4349 -0.1581
 1013MOL0     C36677   6.931   2.418   9.484 -0.2160 -0.4532  0.4509
 1013MOL0     C36678   6.802   2.463   9.483 -0.0999  1.0082  0.1612
 1013MOL0     O36679   6.723   2.511   9.583 -0.3294 -0.1228 -0.2069
 1013MOL0     C36680   6.800   2.600   9.678  0.1519 -0.1433 -0.2312
 1013MOL0     C36681   6.713   2.613   9.796 -0.2030 -0.3249 -0.0492
 1013MOL0     C36682   6.795   2.694   9.902  1.4009  0.6816  0.4504
 1013MOL0     C36683   6.710   2.744  10.018 -0.8096  0.2137 -0.2314
 1013MOL0     C36684   6.685   2.630  10.109  0.0396 -0.0978  1.2509
 1013MOL0     C36685   6.664   2.546  10.190  1.2793  0.4315  0.5199
 1013MOL0     C36686   6.748   2.471   9.358 -0.5122  0.0534 -0.0041
 1013MOL0     C36687   6.813   2.426   9.240  0.2430  0.1215 -0.5436
 1013MOL0     H36688   7.033   2.024   8.980 -0.9915 -0.6570 -3.7833
 1013MOL0     H36689   7.164   1.929   8.793 -2.2360 -0.4957  1.7348
 1013MOL0     H36690   7.221   2.093   8.551  0.3312  0.5153 -0.1847
 1013MOL0     H36691   7.322   2.231   8.596  0.6482 -0.8671  0.2305
 1013MOL0     H36692   7.513   2.135   8.479  0.3881  1.4622 -4.0387
 1013MOL0     H36693   7.416   1.994   8.443  0.1094 -0.5230 -0.3357
 1013MOL0     H36694   7.438   2.261   8.313 -0.3477  0.6976 -2.4673
 1013MOL0     H36695   7.385   2.098   8.265 -1.2400  1.4508 -0.1194
 1013MOL0     H36696   7.164   2.128   8.300 -2.4350  0.6604  0.8499
 1013MOL0     H36697   7.173   2.273   8.405  0.7958 -1.0603  2.1074
 1013MOL0     H36698   7.097   2.371   8.209 -1.5500 -3.3160  0.5213
 1013MOL0     H36699   7.267   2.400   8.207 -1.3402  1.5734  1.3023
 1013MOL0     H36700   7.284   2.187   8.050  1.4752  1.9742 -1.0189
 1013MOL0     H36701   7.105   2.201   8.052 -1.0949  1.2045  3.0004
 1013MOL0     H36702   7.147   2.445   7.983  0.5575 -0.3075  0.7385
 1013MOL0     H36703   7.318   2.401   7.970 -0.3502  0.4289  0.1348
 1013MOL0     H36704   7.245   2.253   7.772 -2.9456 -3.3645  0.1104
 1013MOL0     H36705   7.166   2.419   7.753 -0.6355 -0.3168  1.4684
 1013MOL0     H36706   7.090   2.057   7.839 -0.7755  0.1660  0.1758
 1013MOL0     H36707   6.679   2.038   7.828  0.1069 -1.1235  1.7105
 1013MOL0     H36708   6.794   1.951   7.733 -0.2610  1.7040 -1.9221
 1013MOL0     H36709   6.921   1.890   7.942  0.4741  1.4891 -0.9662
 1013MOL0     H36710   6.743   1.846   7.958  0.8662 -0.4867 -1.2955
 1013MOL0     H36711   6.710   2.056   8.072 -0.2721  0.5159  3.2518
 1013MOL0     H36712   6.892   2.078   8.073  0.0591  0.3737 -1.2745
 1013MOL0     H36713   6.753   1.826   8.193 -0.1688 -1.2592  2.0106
 1013MOL0     H36714   6.780   1.987   8.274  2.0563  0.4460 -1.2318
 1013MOL0     H36715   7.185   1.864   8.276  1.7209  0.0783  1.8063
 1013MOL0     H36716   7.372   1.718   8.513 -0.9857  1.1707  0.8226
 1013MOL0     H36717   7.335   1.607   8.371  0.2507  0.3443 -2.0145
 1013MOL0     H36718   7.376   1.780   8.343 -2.1028  1.3666  0.9971
 1013MOL0     H36719   7.156   1.444   8.877 -1.0287  1.4695 -1.1376
 1013MOL0     H36720   7.263   1.372   9.101  2.5463  0.8135  0.4395
 1013MOL0     H36721   7.641   1.389   9.238  1.0392  0.6097  1.4276
 1013MOL0     H36722   7.661   1.545   9.142  3.1228  1.7642  2.3468
 1013MOL0     H36723   7.754   1.571   9.378 -0.8130 -2.0421  2.7419
 1013MOL0     H36724   7.613   1.671   9.348 -0.9502 -0.3967  1.1296
 1013MOL0     H36725   7.616   1.397   9.480  2.4458  1.1197 -2.8286
 1013MOL0     H36726   7.469   1.493   9.461 -0.7953  1.1443  1.1763
 1013MOL0     H36727   7.600   1.680   9.589 -0.6842 -0.0139  0.2934
 1013MOL0     H36728   7.498   1.554   9.661  0.8767 -0.5074 -0.5423
 1013MOL0     H36729   7.794   1.539   9.629  0.1607  1.2803  1.0117
 1013MOL0     H36730   7.690   1.405   9.696  1.1053  0.1892  0.0941
 1013MOL0     H36731   7.814   1.525   9.855 -2.1634 -2.2857  2.2383
 1013MOL0     H36732   7.734   1.675   9.810 -0.8701 -0.6716 -1.1473
 1013MOL0     H36733   7.667   1.533  10.022 -2.4281 -1.7533  0.1081
 1013MOL0     H36734   7.593   1.435   9.899  1.2110 -1.0627 -0.5101
 1013MOL0     H36735   7.460   1.635   9.846  2.0688  2.3057 -2.1432
 1013MOL0     H36736   7.554   1.735   9.955 -0.4917 -1.0709  1.7686
 1013MOL0     H36737   7.524   1.704   9.077 -1.9203  0.3860  2.4571
 1013MOL0     H36738   7.402   1.776   8.847 -1.5621  2.3809  1.6538
 1013MOL0     H36739   6.916   1.613   8.589 -0.0052 -0.1498 -1.8093
 1013MOL0     H36740   6.795   1.768   8.409 -0.0403  0.2006 -3.2011
 1013MOL0     H36741   7.456   2.246   8.850 -1.1770  1.6507 -1.3160
 1013MOL0     H36742   7.354   2.308   9.055  1.3471 -1.7955  0.0896
 1013MOL0     H36743   7.100   2.340   9.358 -0.8591 -1.2703 -1.5171
 1013MOL0     H36744   6.987   2.417   9.577  1.3212 -1.4034 -0.4343
 1013MOL0     H36745   6.891   2.549   9.713  0.9706  1.2661 -0.2310
 1013MOL0     H36746   6.842   2.688   9.629  1.8360  1.0012  2.9516
 1013MOL0     H36747   6.702   2.513   9.838  0.1118 -0.6372 -0.7176
 1013MOL0     H36748   6.619   2.662   9.768  1.6890  1.0710 -4.7933
 1013MOL0     H36749   6.828   2.785   9.852  0.3370  3.0342  3.6754
 1013MOL0     H36750   6.881   2.637   9.938  0.1235 -2.7569 -1.3865
 1013MOL0     H36751   6.620   2.783   9.967  1.5684 -0.2191 -5.4263
 1013MOL0     H36752   6.765   2.810  10.085 -1.4402 -1.0823  1.6236
 1013MOL0     H36753   6.646   2.478  10.272 -1.7203 -0.5745 -0.8342
 1013MOL0     H36754   6.644   2.502   9.359 -0.5596 -0.0969 -0.1306
 1013MOL0     H36755   6.753   2.451   9.153 -0.3229 -0.8878 -0.4607
 1014MOL0     O36756   5.904   7.419   0.256 -0.1927 -0.6562  0.2429
 1014MOL0     C36757   5.818   7.355   0.312 -0.6680 -0.4554  0.8765
 1014MOL0     O36758   5.812   7.333   0.443 -0.5622 -0.9997  0.1658
 1014MOL0     C36759   5.907   7.391   0.531 -0.2072 -0.0308 -0.1287
 1014MOL0     C36760   5.866   7.437   0.644  0.3791 -0.1147  0.0985
 1014MOL0     C36761   5.951   7.513   0.729  0.0785  0.2369 -0.5533
 1014MOL0     C36762   6.093   7.527   0.696  0.6398 -0.2294 -0.1284
 1014MOL0     O36763   6.183   7.601   0.776  0.1609  0.4898  0.9764
 1014MOL0     C36764   6.139   7.727   0.830 -0.4172  0.6926 -0.5747
 1014MOL0     C36765   6.246   7.803   0.889 -0.0411  0.0931 -0.2627
 1014MOL0     C36766   6.347   7.865   0.779 -0.4849  0.0105 -0.3694
 1014MOL0     C36767   6.471   7.931   0.834 -0.0157 -0.1423  0.0429
 1014MOL0     C36768   6.586   7.967   0.741 -0.0345  0.1515 -0.8646
 1014MOL0     C36769   6.678   8.070   0.813 -0.5395  0.1714 -0.0365
 1014MOL0     C36770   6.788   8.111   0.711  0.5699  0.2492 -0.1998
 1014MOL0     C36771   6.912   8.170   0.783 -0.8057 -0.0303 -0.4896
 1014MOL0     N36772   6.900   8.289   0.872 -0.0016 -0.1264  0.5794
 1014MOL0     C36773   6.846   8.407   0.820  0.8832 -0.1983 -0.0880
 1014MOL0     C36774   6.854   8.485   0.934 -0.5614  0.7319  0.1479
 1014MOL0     C36775   6.836   8.636   0.923  0.3286 -0.0569 -0.4574
 1014MOL0     C36776   6.725   8.709   1.005  0.7377 -0.3043 -0.0128
 1014MOL0     C36777   6.578   8.684   0.956 -0.4579  0.6983  0.2928
 1014MOL0     C36778   6.526   8.545   1.001 -0.3838 -0.2039  0.0853
 1014MOL0     O36779   6.399   8.507   0.951  0.1428 -0.7527 -0.1126
 1014MOL0     C36780   6.395   8.427   0.850  1.0495  0.6649  0.7527
 1014MOL0     C36781   6.474   8.441   0.732  0.4131 -0.2201  0.1526
 1014MOL0     C36782   6.456   8.350   0.624  0.5784 -1.4207  0.0192
 1014MOL0     C36783   6.560   8.363   0.515 -0.2645 -1.4020  0.3149
 1014MOL0     C36784   6.346   8.263   0.624 -0.5128  0.6887 -0.3111
 1014MOL0     C36785   6.315   8.170   0.511 -0.3186  0.2161 -0.2854
 1014MOL0     O36786   6.192   8.121   0.493  0.4287  0.2579  0.2663
 1014MOL0     C36787   6.174   8.039   0.382  0.5266  0.1242 -0.0350
 1014MOL0     C36788   6.166   8.100   0.259  0.3078  0.1064 -0.3104
 1014MOL0     C36789   6.147   8.021   0.149 -0.4150 -0.4414  0.5795
 1014MOL0     C36790   6.131   7.880   0.156  0.3550 -0.6017  0.5610
 1014MOL0     O36791   6.088   7.813   0.043  0.3053  0.0721  0.3294
 1014MOL0     C36792   5.985   7.711   0.054 -0.2759  0.3634  0.2944
 1014MOL0     C36793   5.954   7.655  -0.078 -0.0354  0.1907  0.6004
 1014MOL0     C36794   5.883   7.752  -0.171  0.2519 -0.2353  0.1378
 1014MOL0     C36795   5.846   7.694  -0.310  0.1273 -0.5704  0.2873
 1014MOL0     C36796   5.818   7.804  -0.419 -0.3494 -0.3594 -1.2281
 1014MOL0     C36797   5.780   7.740  -0.552 -0.3559 -0.0272  0.9983
 1014MOL0     C36798   5.721   7.832  -0.663 -0.4473  0.7034  0.7011
 1014MOL0     C36799   5.779   7.977  -0.658  0.1854 -0.6156 -0.7410
 1014MOL0    Cl36800   5.754   8.067  -0.798  0.2847  0.5086  0.0169
 1014MOL0     C36801   6.126   7.822   0.280 -1.0186  0.4321 -0.2758
 1014MOL0     C36802   6.147   7.896   0.392  0.2191  0.4034 -0.6561
 1014MOL0     O36803   6.410   8.140   0.441  0.4828  0.7424  0.1190
 1014MOL0     C36804   6.273   8.251   0.740  0.8306  0.4997  0.3460
 1014MOL0     C36805   6.295   8.330   0.852  0.0764  0.2463  0.1619
 1014MOL0     N36806   6.884   8.402   1.048 -0.5547 -0.2249  0.0213
 1014MOL0     N36807   6.918   8.285   1.003  0.5782  0.6350  0.6158
 1014MOL0     C36808   6.131   7.473   0.577  0.7417  1.0606  0.2997
 1014MOL0     C36809   6.039   7.400   0.485 -0.0022 -0.0280  0.6317
 1014MOL0     C36810   5.711   7.288   0.227  0.0446 -0.6384 -0.3452
 1014MOL0     C36811   5.595   7.216   0.277  0.4154 -0.1858 -0.6017
 1014MOL0     C36812   5.494   7.158   0.192 -0.6325 -0.5659  1.2758
 1014MOL0     C36813   5.505   7.187   0.057 -0.8068  0.8899  0.4459
 1014MOL0     O36814   5.416   7.124  -0.023  0.0205  0.4364  0.0708
 1014MOL0     C36815   5.402   7.137  -0.161 -1.5813 -0.0045  0.6653
 1014MOL0     C36816   5.520   7.079  -0.254 -0.9520 -0.1702 -1.2927
 1014MOL0     C36817   5.499   7.092  -0.405  0.1941  0.5480  0.0572
 1014MOL0     C36818   5.500   7.243  -0.446  0.5856  0.7525 -0.8944
 1014MOL0     C36819   5.634   7.306  -0.418  0.7465  0.3796 -1.1016
 1014MOL0     C36820   5.757   7.344  -0.410 -0.3383  0.0523  1.2319
 1014MOL0     C36821   5.612   7.255   0.008 -0.5027  0.0868  0.6974
 1014MOL0     C36822   5.714   7.309   0.094 -0.0974  0.7950  0.3641
 1014MOL0     H36823   5.760   7.431   0.667 -0.0223  1.5072 -1.1252
 1014MOL0     H36824   5.910   7.534   0.828 -1.5516  1.7531 -1.4900
 1014MOL0     H36825   6.091   7.789   0.753 -0.6573 -2.0479 -2.8179
 1014MOL0     H36826   6.071   7.702   0.912 -0.3260  1.9371 -0.1086
 1014MOL0     H36827   6.188   7.882   0.936  1.9470  0.2369  2.1530
 1014MOL0     H36828   6.300   7.757   0.972  0.9606 -0.2806 -1.0944
 1014MOL0     H36829   6.382   7.783   0.714  1.9433 -1.1716  2.2022
 1014MOL0     H36830   6.294   7.933   0.713  0.1955  1.8598  0.9150
 1014MOL0     H36831   6.440   8.016   0.897  3.7099  2.1374 -0.8952
 1014MOL0     H36832   6.520   7.869   0.910 -0.7412  0.9433  1.4615
 1014MOL0     H36833   6.630   7.868   0.724 -1.9569 -0.9631  0.3397
 1014MOL0     H36834   6.544   8.009   0.649 -0.2797  2.8174  0.3892
 1014MOL0     H36835   6.627   8.162   0.844 -1.7180 -1.5817  3.7539
 1014MOL0     H36836   6.719   8.035   0.908 -1.5502 -1.3680 -0.1364
 1014MOL0     H36837   6.803   8.023   0.649 -3.9070 -0.5108 -0.5498
 1014MOL0     H36838   6.757   8.190   0.642  0.0527 -0.8878 -1.2961
 1014MOL0     H36839   6.979   8.204   0.703  1.4869 -0.7424  1.0181
 1014MOL0     H36840   6.972   8.090   0.828 -0.8451  0.0451 -0.3046
 1014MOL0     H36841   6.819   8.428   0.717 -0.3514 -0.1455  0.2385
 1014MOL0     H36842   6.926   8.678   0.969  0.6289  0.5413 -1.5812
 1014MOL0     H36843   6.846   8.667   0.819  1.3828  0.3685 -0.2431
 1014MOL0     H36844   6.739   8.817   0.993 -0.4233 -0.1391  0.0224
 1014MOL0     H36845   6.728   8.677   1.109 -0.1839  1.7410  0.6923
 1014MOL0     H36846   6.581   8.671   0.848  1.5344 -2.6247  0.5960
 1014MOL0     H36847   6.515   8.770   0.979  0.6247  2.0410 -1.5603
 1014MOL0     H36848   6.533   8.536   1.110  1.8430 -0.6120 -0.0573
 1014MOL0     H36849   6.597   8.468   0.970  0.7392  0.7035  0.3385
 1014MOL0     H36850   6.559   8.509   0.730  1.8042 -1.2604  6.1330
 1014MOL0     H36851   6.519   8.432   0.441  0.4211 -1.4452 -0.1077
 1014MOL0     H36852   6.655   8.408   0.547  0.8881 -1.6551 -2.4558
 1014MOL0     H36853   6.595   8.271   0.467 -0.8552 -2.9749  2.7026
 1014MOL0     H36854   6.172   8.208   0.250 -2.1212  0.4579  1.5972
 1014MOL0     H36855   6.160   8.061   0.049 -0.1672  2.5292  1.6913
 1014MOL0     H36856   6.012   7.635   0.128 -0.1201 -0.0624 -0.1932
 1014MOL0     H36857   5.886   7.748   0.083 -1.2576 -2.4726  0.8585
 1014MOL0     H36858   6.044   7.612  -0.124 -0.2585  1.7493 -1.4362
 1014MOL0     H36859   5.878   7.578  -0.062 -0.9861  0.7956 -0.8289
 1014MOL0     H36860   5.956   7.832  -0.186 -0.7873  0.5606 -0.7479
 1014MOL0     H36861   5.799   7.790  -0.112  1.5981  0.2744  1.8316
 1014MOL0     H36862   5.937   7.644  -0.344  0.0290 -0.8442  0.4216
 1014MOL0     H36863   5.769   7.618  -0.297 -0.5449  0.4557  3.1054
 1014MOL0     H36864   5.910   7.861  -0.430 -1.4037  1.3709 -1.5039
 1014MOL0     H36865   5.733   7.865  -0.389 -1.4555 -1.8193 -1.2598
 1014MOL0     H36866   5.865   7.686  -0.594  0.6054  3.4758 -2.1950
 1014MOL0     H36867   5.707   7.664  -0.524 -1.7147 -0.6123 -3.4329
 1014MOL0     H36868   5.611   7.835  -0.659 -0.4923  1.1675 -0.3409
 1014MOL0     H36869   5.745   7.785  -0.759  2.9067  2.8332  0.3270
 1014MOL0     H36870   5.883   7.977  -0.624  1.3177 -1.8960 -3.8954
 1014MOL0     H36871   5.707   8.030  -0.594 -1.1997 -1.2339 -1.7368
 1014MOL0     H36872   6.092   7.721   0.299 -3.4581  1.5599  2.0775
 1014MOL0     H36873   6.174   7.849   0.486  1.1411  1.2392 -0.4910
 1014MOL0     H36874   6.184   8.191   0.751  0.9991  0.3053  0.6919
 1014MOL0     H36875   6.236   8.339   0.943 -0.5822 -0.2246 -0.2109
 1014MOL0     H36876   6.238   7.483   0.558  0.9678 -3.3210 -2.1159
 1014MOL0     H36877   6.081   7.363   0.392  2.2796  1.6462  0.9161
 1014MOL0     H36878   5.574   7.218   0.383 -3.1918 -0.2689 -1.1897
 1014MOL0     H36879   5.407   7.101   0.224 -0.0023 -0.1256  4.0139
 1014MOL0     H36880   5.316   7.077  -0.191 -1.3020  0.6609 -1.6331
 1014MOL0     H36881   5.384   7.245  -0.173  2.4749  0.8155  0.4416
 1014MOL0     H36882   5.539   6.973  -0.234 -0.9504 -0.5449 -3.1011
 1014MOL0     H36883   5.612   7.136  -0.239 -1.9888  1.1162  0.7485
 1014MOL0     H36884   5.416   7.035  -0.448  0.1843  1.7164 -1.5779
 1014MOL0     H36885   5.587   7.050  -0.454  1.1787  3.0185 -0.4352
 1014MOL0     H36886   5.425   7.292  -0.383  0.1786 -0.6763 -0.2173
 1014MOL0     H36887   5.483   7.243  -0.554  3.9998 -1.6224 -1.5922
 1014MOL0     H36888   5.852   7.386  -0.386 -1.7544  5.8364 -1.6282
 1014MOL0     H36889   5.618   7.284  -0.096 -4.4199  2.8187  1.0354
 1014MOL0     H36890   5.787   7.375   0.048 -2.4724  2.1230 -1.7522
 1015MOL0     O36891   2.839   1.329   8.973 -0.3362  0.7388  0.7180
 1015MOL0     C36892   2.965   1.353   8.981 -0.1006  1.6871  0.2108
 1015MOL0     O36893   3.064   1.260   8.964 -0.1164 -0.4519 -0.1528
 1015MOL0     C36894   3.039   1.124   8.946  0.7993  0.3199  0.7254
 1015MOL0     C36895   3.141   1.044   8.992  0.7468  0.8023 -0.1858
 1015MOL0     C36896   3.131   0.905   8.978  0.7806  0.8487 -0.5391
 1015MOL0     C36897   3.020   0.841   8.919  0.0795  0.6198 -0.4958
 1015MOL0     O36898   3.020   0.708   8.894 -0.3464 -0.0404 -0.3381
 1015MOL0     C36899   3.044   0.618   9.010  0.0651  0.2259 -0.0856
 1015MOL0     C36900   2.940   0.508   8.995  0.1615 -0.5847 -0.1701
 1015MOL0     C36901   2.997   0.364   9.023 -0.8559  0.3705  0.4428
 1015MOL0     C36902   2.878   0.268   9.007  0.5961 -0.8734  0.6605
 1015MOL0     C36903   2.911   0.132   9.063 -0.3992  1.1670  0.3862
 1015MOL0     C36904   3.027   0.064   8.992 -0.0048  0.0852  0.4369
 1015MOL0     C36905   3.076  -0.081   9.027 -0.1028 -0.6661  0.2655
 1015MOL0     C36906   3.191  -0.085   9.129  0.8000  0.2001  0.1148
 1015MOL0     N36907   3.313  -0.007   9.095  0.8595 -0.0786 -0.8412
 1015MOL0     C36908   3.337   0.129   9.122  0.3236  0.0818 -0.0634
 1015MOL0     C36909   3.446   0.165   9.052 -0.2249 -0.0306  0.2040
 1015MOL0     C36910   3.497   0.310   9.044  0.4751 -0.5804 -0.3921
 1015MOL0     C36911   3.628   0.346   9.122 -0.0400  0.6982  0.7507
 1015MOL0     C36912   3.713   0.229   9.143 -0.0474 -0.1783 -0.3148
 1015MOL0     C36913   3.846   0.270   9.201  1.4045  0.1009  1.0618
 1015MOL0     O36914   3.830   0.352   9.314  0.2313  0.1073 -0.1282
 1015MOL0     C36915   3.941   0.339   9.391 -0.9129  0.2244 -0.1005
 1015MOL0     C36916   3.951   0.239   9.480 -0.3261  0.4332 -0.1998
 1015MOL0     C36917   4.066   0.216   9.562  0.6292 -0.9920 -0.3580
 1015MOL0     C36918   4.052   0.098   9.667  0.2507  0.3116 -0.3921
 1015MOL0     C36919   4.187   0.298   9.542  0.5605  0.7085  0.1044
 1015MOL0     C36920   4.312   0.278   9.615  0.7750  0.0169 -0.6584
 1015MOL0     O36921   4.403   0.380   9.588 -0.9691  0.2733 -0.6123
 1015MOL0     C36922   4.519   0.378   9.653  0.6702 -1.6669  0.3214
 1015MOL0     C36923   4.631   0.343   9.573  0.1665  0.6576  1.2525
 1015MOL0     C36924   4.757   0.347   9.636  0.6481  0.5357  0.7655
 1015MOL0     C36925   4.773   0.389   9.763  0.5343  0.3077 -0.5856
 1015MOL0     O36926   4.895   0.426   9.823 -0.1751  0.5065  0.5934
 1015MOL0     C36927   4.926   0.444   9.966  0.4290 -0.1027 -0.5557
 1015MOL0     C36928   4.968   0.604   9.998  0.6306  0.1505 -0.8487
 1015MOL0     C36929   5.050   0.619  10.126 -1.0421  0.0881  0.2421
 1015MOL0     C36930   4.980   0.602  10.256 -0.3163 -0.4725  0.6040
 1015MOL0     C36931   5.078   0.584  10.368  0.0015 -0.5320 -0.2277
 1015MOL0     C36932   5.002   0.567  10.495 -0.4992  0.5595 -0.0052
 1015MOL0     C36933   5.083   0.511  10.617 -0.7317  0.3476  0.9049
 1015MOL0     C36934   5.004   0.428  10.703  0.1611 -0.8663 -0.0636
 1015MOL0    Cl36935   4.891   0.549  10.782 -0.1113 -0.4414 -0.1770
 1015MOL0     C36936   4.660   0.425   9.842 -0.2080  1.2290  1.1076
 1015MOL0     C36937   4.532   0.413   9.783  0.1174 -1.2432 -0.4692
 1015MOL0     O36938   4.313   0.195   9.706 -0.0364 -0.6733 -0.5734
 1015MOL0     C36939   4.171   0.398   9.449 -0.1321 -0.0330 -0.7961
 1015MOL0     C36940   4.054   0.423   9.368  1.0512  0.8891  0.3015
 1015MOL0     N36941   3.495   0.057   8.984 -0.8457 -1.2570  0.7627
 1015MOL0     N36942   3.412  -0.042   9.015  0.8410  0.5478  0.2457
 1015MOL0     C36943   2.918   0.916   8.876 -0.1147  0.9880  0.0798
 1015MOL0     C36944   2.934   1.060   8.878 -0.6327  0.7642 -0.3992
 1015MOL0     C36945   3.010   1.484   9.015  0.1801  0.0236  0.2811
 1015MOL0     C36946   2.919   1.593   9.016 -0.1151 -0.0499 -0.1791
 1015MOL0     C36947   2.965   1.712   9.068  0.6515  0.0502  0.0772
 1015MOL0     C36948   3.095   1.742   9.117  0.1101  1.4254  1.0134
 1015MOL0     O36949   3.126   1.869   9.158  0.3641  0.4522 -0.5890
 1015MOL0     C36950   3.266   1.901   9.142  0.3844 -0.0535  0.3059
 1015MOL0     C36951   3.280   2.046   9.180  0.1853 -0.1873 -0.0021
 1015MOL0     C36952   3.418   2.109   9.155 -0.0165 -1.1253 -0.4294
 1015MOL0     C36953   3.524   2.060   9.253 -0.2211 -0.7508  0.3629
 1015MOL0     C36954   3.637   2.152   9.275  0.3131  1.1502 -0.3102
 1015MOL0     C36955   3.728   2.224   9.292 -0.2064  0.1205 -0.2798
 1015MOL0     C36956   3.175   1.631   9.104  0.9701  0.5770 -0.4503
 1015MOL0     C36957   3.143   1.506   9.060 -0.4653 -0.6762 -0.2128
 1015MOL0     H36958   3.224   1.085   9.048 -0.5524  5.1124 -1.0382
 1015MOL0     H36959   3.225   0.855   8.999  0.7085 -0.0169 -2.0853
 1015MOL0     H36960   3.143   0.573   9.008 -0.2189 -0.4008 -1.7523
 1015MOL0     H36961   3.028   0.677   9.100 -2.3769 -0.0386 -0.2751
 1015MOL0     H36962   2.850   0.528   9.055 -0.6708 -0.4126 -1.4436
 1015MOL0     H36963   2.897   0.503   8.895  0.6653 -0.5810 -0.3877
 1015MOL0     H36964   3.079   0.340   8.955  1.2057  0.5186  2.7393
 1015MOL0     H36965   3.046   0.369   9.121 -1.5932 -1.4750  0.9387
 1015MOL0     H36966   2.800   0.315   9.068  0.1636 -0.1356 -0.4183
 1015MOL0     H36967   2.843   0.253   8.904 -3.2117  0.6867  1.5496
 1015MOL0     H36968   2.940   0.153   9.166  0.4851  1.3017  0.1130
 1015MOL0     H36969   2.828   0.061   9.069  4.4156 -5.4043  1.1832
 1015MOL0     H36970   2.998   0.064   8.887 -1.1412 -1.4002  0.7057
 1015MOL0     H36971   3.118   0.125   8.996 -0.2052  0.6079 -1.9360
 1015MOL0     H36972   2.997  -0.150   9.058 -0.3659  0.1021  1.3600
 1015MOL0     H36973   3.123  -0.116   8.935  2.7507 -1.3670  1.8524
 1015MOL0     H36974   3.205  -0.191   9.153 -0.3480  0.1831  0.7822
 1015MOL0     H36975   3.150  -0.047   9.223  1.2703  0.2304  0.3111
 1015MOL0     H36976   3.272   0.199   9.173 -0.9110 -0.6942 -0.5229
 1015MOL0     H36977   3.516   0.332   8.938  1.3576 -0.3093 -0.1857
 1015MOL0     H36978   3.423   0.384   9.075  0.5160 -1.6678  2.5409
 1015MOL0     H36979   3.602   0.384   9.222 -2.5836 -0.6354  0.6690
 1015MOL0     H36980   3.673   0.429   9.067 -0.5110  0.4515 -0.0059
 1015MOL0     H36981   3.727   0.160   9.059 -4.4070 -1.7834 -0.0334
 1015MOL0     H36982   3.676   0.163   9.221  1.8608 -2.2554 -1.0575
 1015MOL0     H36983   3.906   0.323   9.126  1.3949 -2.4731 -0.9089
 1015MOL0     H36984   3.904   0.177   9.207  2.1768  0.4151 -0.9013
 1015MOL0     H36985   3.861   0.181   9.495 -1.8200  3.1160  2.0370
 1015MOL0     H36986   4.127   0.019   9.668 -0.7303 -0.6609 -0.7878
 1015MOL0     H36987   4.062   0.147   9.764 -2.2663  0.7762 -0.2886
 1015MOL0     H36988   3.954   0.049   9.661  0.5145 -0.0586 -3.7642
 1015MOL0     H36989   4.621   0.318   9.468  4.7138 -2.6791  1.2972
 1015MOL0     H36990   4.852   0.324   9.587  1.0549  0.9628  1.3372
 1015MOL0     H36991   4.842   0.420  10.032  0.6806 -1.1831 -0.6215
 1015MOL0     H36992   5.010   0.380   9.995 -0.1140  0.5050  2.6559
 1015MOL0     H36993   5.013   0.639   9.905 -1.3098  0.9208 -1.5685
 1015MOL0     H36994   4.875   0.661  10.002 -0.1679 -1.1631 -0.0825
 1015MOL0     H36995   5.094   0.719  10.122 -2.1178  0.7065  2.5512
 1015MOL0     H36996   5.127   0.542  10.115 -1.2013 -0.2530  1.4302
 1015MOL0     H36997   4.911   0.684  10.277  0.5086  0.1035  1.1127
 1015MOL0     H36998   4.917   0.512  10.251 -0.4067 -0.4266 -4.3807
 1015MOL0     H36999   5.161   0.654  10.378  0.4954 -0.9264 -1.4167
 1015MOL0     H37000   5.133   0.491  10.352  1.4025  0.5836 -2.3422
 1015MOL0     H37001   4.953   0.664  10.510 -3.1669 -0.2227 -2.6104
 1015MOL0     H37002   4.911   0.507  10.483  0.5569 -1.0269 -0.4865
 1015MOL0     H37003   5.119   0.593  10.680 -4.3030  0.3601  3.2002
 1015MOL0     H37004   5.165   0.449  10.579 -2.6339 -2.8808  1.7097
 1015MOL0     H37005   5.077   0.395  10.778  0.2205  0.8345  0.6915
 1015MOL0     H37006   4.958   0.346  10.648  2.4705 -1.8343 -0.6416
 1015MOL0     H37007   4.656   0.462   9.944 -0.4583  4.2518  0.1034
 1015MOL0     H37008   4.454   0.450   9.849  1.0669  2.6617 -1.2605
 1015MOL0     H37009   4.257   0.461   9.427  1.1057 -1.4956 -0.3187
 1015MOL0     H37010   4.055   0.497   9.288  1.8107 -0.5445 -1.0880
 1015MOL0     H37011   2.841   0.882   8.808  0.8601  0.3716 -0.7268
 1015MOL0     H37012   2.857   1.120   8.830  0.2127 -0.2862 -3.3143
 1015MOL0     H37013   2.815   1.579   8.988  0.3181  0.3375 -2.1353
 1015MOL0     H37014   2.905   1.801   9.083  0.8801 -0.0318  1.7034
 1015MOL0     H37015   3.340   1.846   9.201  2.3522 -0.0631 -2.0172
 1015MOL0     H37016   3.290   1.902   9.036 -0.1604 -0.2150  0.1782
 1015MOL0     H37017   3.260   2.052   9.288 -3.0252  4.0825 -0.5926
 1015MOL0     H37018   3.198   2.096   9.129 -1.1899 -0.5862  1.7036
 1015MOL0     H37019   3.407   2.218   9.150 -1.5347 -1.2754 -0.9935
 1015MOL0     H37020   3.449   2.088   9.052 -1.1118  0.6848 -1.1651
 1015MOL0     H37021   3.567   1.973   9.203  2.8337  1.1590 -0.6157
 1015MOL0     H37022   3.492   2.039   9.356 -3.9003  1.7126 -0.0963
 1015MOL0     H37023   3.819   2.281   9.297 -0.9434  1.4592 -1.3232
 1015MOL0     H37024   3.275   1.635   9.145  0.6296  2.2824  0.3101
 1015MOL0     H37025   3.213   1.424   9.073 -0.7507 -1.3482 -2.4523
 1016MOL0     O37026   8.779   6.212   8.301  0.1728  0.2504  0.5789
 1016MOL0     C37027   8.873   6.142   8.247  0.8078 -1.0770 -0.0643
 1016MOL0     O37028   8.933   6.179   8.132  0.0011 -0.0681 -0.4858
 1016MOL0     C37029   8.901   6.298   8.078 -0.5054  0.9923  0.1494
 1016MOL0     C37030   8.911   6.428   8.141 -0.1069 -0.5133 -0.2034
 1016MOL0     C37031   8.854   6.534   8.070  0.0545 -0.3217 -0.6379
 1016MOL0     C37032   8.790   6.519   7.942  0.1884  0.2756 -0.3520
 1016MOL0     O37033   8.732   6.622   7.877 -0.4505  0.0723 -0.0336
 1016MOL0     C37034   8.681   6.733   7.956 -0.1234 -0.6273 -0.6296
 1016MOL0     C37035   8.590   6.818   7.862 -1.2721 -0.8836  0.1181
 1016MOL0     C37036   8.654   6.888   7.741  0.2001  0.1941 -0.9047
 1016MOL0     C37037   8.552   6.977   7.665 -0.1924 -0.0485  0.3884
 1016MOL0     C37038   8.618   7.067   7.547  0.3410  0.1140  0.2970
 1016MOL0     C37039   8.516   7.153   7.481  0.6468  0.7557 -1.0460
 1016MOL0     C37040   8.586   7.275   7.429  0.3286 -0.2657 -0.2451
 1016MOL0     C37041   8.483   7.351   7.332 -0.3787 -0.0708  0.6838
 1016MOL0     N37042   8.514   7.317   7.195 -0.2886  0.5753  0.7571
 1016MOL0     C37043   8.635   7.362   7.144  0.2907 -0.5434  0.4117
 1016MOL0     C37044   8.634   7.309   7.018 -1.1123 -0.5235  0.1881
 1016MOL0     C37045   8.748   7.330   6.913 -0.0486  0.0714 -0.4839
 1016MOL0     C37046   8.763   7.471   6.863  0.2499  0.0298 -0.4093
 1016MOL0     C37047   8.627   7.503   6.788  0.5586 -0.5222  0.1139
 1016MOL0     C37048   8.593   7.443   6.654  0.5973 -1.1009  0.0614
 1016MOL0     O37049   8.682   7.496   6.549 -0.9516 -0.4896 -0.2140
 1016MOL0     C37050   8.675   7.448   6.426  0.5407 -0.5636 -0.1189
 1016MOL0     C37051   8.569   7.372   6.377  0.7316 -0.6908  0.4715
 1016MOL0     C37052   8.567   7.318   6.251  0.1356  1.0028 -0.7558
 1016MOL0     C37053   8.440   7.229   6.227  0.6168 -0.4080  0.2047
 1016MOL0     C37054   8.671   7.350   6.151  0.1236  0.6340  0.0231
 1016MOL0     C37055   8.659   7.301   6.011  0.4378  0.2258  0.3705
 1016MOL0     O37056   8.665   7.162   6.005 -0.5806 -0.1513 -0.8252
 1016MOL0     C37057   8.656   7.102   5.888  0.3579 -0.3676 -0.1435
 1016MOL0     C37058   8.542   7.025   5.869 -0.0502  0.5728 -0.0284
 1016MOL0     C37059   8.526   6.959   5.755 -1.1499  0.0403  0.4909
 1016MOL0     C37060   8.624   6.967   5.658  0.1361  0.1862  0.2824
 1016MOL0     O37061   8.612   6.901   5.537 -0.4980  0.1116 -0.2725
 1016MOL0     C37062   8.480   6.865   5.495 -0.0676  0.0329 -0.0436
 1016MOL0     C37063   8.492   6.804   5.360  0.3640  0.9996  0.7553
 1016MOL0     C37064   8.556   6.884   5.250  0.1607  0.1320  0.0329
 1016MOL0     C37065   8.673   6.800   5.203  0.6748 -0.2677 -0.1914
 1016MOL0     C37066   8.763   6.868   5.098  0.0766 -0.9053  0.0274
 1016MOL0     C37067   8.668   6.919   4.981  0.4093  0.1264 -0.3397
 1016MOL0     C37068   8.743   6.937   4.850  1.0184 -0.9075  0.8491
 1016MOL0     C37069   8.798   7.082   4.830 -0.4197 -0.3796 -0.1732
 1016MOL0    Cl37070   8.939   7.094   4.935  0.4890  0.5644 -0.5408
 1016MOL0     C37071   8.740   7.046   5.668 -0.2258  0.8547  0.8979
 1016MOL0     C37072   8.755   7.122   5.786 -0.3232  0.4796  1.0132
 1016MOL0     O37073   8.683   7.371   5.913  0.6812 -0.1160  0.6362
 1016MOL0     C37074   8.779   7.422   6.202 -0.3854 -0.6331 -0.3038
 1016MOL0     C37075   8.778   7.472   6.332  0.6793 -0.1258 -0.4296
 1016MOL0     N37076   8.516   7.232   7.001  0.4744 -1.0714  0.3889
 1016MOL0     N37077   8.444   7.244   7.107  0.2955 -0.3059 -0.1633
 1016MOL0     C37078   8.800   6.398   7.886  0.2452  0.4808  1.0438
 1016MOL0     C37079   8.848   6.283   7.947 -0.3498 -1.0493  0.7258
 1016MOL0     C37080   8.894   6.004   8.290 -0.0905  0.5824 -0.8116
 1016MOL0     C37081   8.992   5.927   8.225 -0.1550  0.2349 -0.3291
 1016MOL0     C37082   9.010   5.791   8.258 -0.4944  0.0285  0.0542
 1016MOL0     C37083   8.931   5.728   8.352  0.1310 -0.4654  0.0035
 1016MOL0     O37084   8.960   5.598   8.387  0.3630 -0.2956 -0.4301
 1016MOL0     C37085   8.939   5.545   8.518  0.8572 -0.8730  0.1438
 1016MOL0     C37086   8.999   5.407   8.549 -0.5238 -1.4225  0.4174
 1016MOL0     C37087   8.986   5.375   8.695  0.7240  0.0233 -0.2893
 1016MOL0     C37088   8.996   5.226   8.717  0.3973  0.1603  1.0246
 1016MOL0     C37089   8.968   5.196   8.858 -0.0177 -0.1735 -0.4456
 1016MOL0     C37090   8.949   5.170   8.975  0.0939 -0.2041 -0.6021
 1016MOL0     C37091   8.830   5.789   8.416  0.1792 -1.1117  0.5723
 1016MOL0     C37092   8.816   5.933   8.384  0.7099  0.2495  0.0968
 1016MOL0     H37093   8.952   6.432   8.242 -0.2163 -0.9496 -0.1377
 1016MOL0     H37094   8.846   6.631   8.117  0.5074 -1.0165  0.9670
 1016MOL0     H37095   8.618   6.686   8.033  0.9279 -3.9641 -1.6328
 1016MOL0     H37096   8.756   6.793   8.009 -0.8588 -1.1013  1.0042
 1016MOL0     H37097   8.518   6.750   7.815  0.3544 -0.3340 -3.4887
 1016MOL0     H37098   8.544   6.894   7.925  2.0684 -0.0274  1.7384
 1016MOL0     H37099   8.722   6.962   7.785 -1.5771 -0.3964  3.3483
 1016MOL0     H37100   8.716   6.823   7.678  2.3804 -0.9125  2.1275
 1016MOL0     H37101   8.475   6.910   7.625 -0.9773  0.0686  1.6559
 1016MOL0     H37102   8.498   7.044   7.733  0.0207  0.1900  0.3244
 1016MOL0     H37103   8.703   7.116   7.594  0.1986 -2.2503  3.3299
 1016MOL0     H37104   8.655   7.000   7.469  2.4254 -1.3328  2.3957
 1016MOL0     H37105   8.449   7.095   7.417 -0.2791 -3.8922  3.4950
 1016MOL0     H37106   8.436   7.184   7.548  3.0749 -0.6476  2.8499
 1016MOL0     H37107   8.606   7.348   7.508  0.0575  1.2171 -1.4976
 1016MOL0     H37108   8.681   7.249   7.381 -0.8768 -2.7789 -1.4463
 1016MOL0     H37109   8.494   7.458   7.354  1.0170  0.0446 -0.4531
 1016MOL0     H37110   8.380   7.326   7.358 -1.1926  0.8145 -1.4452
 1016MOL0     H37111   8.700   7.423   7.205 -1.9651 -0.8540  3.4119
 1016MOL0     H37112   8.845   7.299   6.952 -0.8364 -1.7240  0.1651
 1016MOL0     H37113   8.735   7.255   6.835 -2.1466 -1.1354  0.9248
 1016MOL0     H37114   8.841   7.488   6.788 -1.1083  1.0467 -1.6451
 1016MOL0     H37115   8.776   7.539   6.948  3.0948  1.8514 -2.1574
 1016MOL0     H37116   8.643   7.609   6.767  2.7870 -1.3089 -2.7938
 1016MOL0     H37117   8.539   7.497   6.852 -1.1107 -0.7411 -2.0661
 1016MOL0     H37118   8.492   7.477   6.628  0.9237 -0.4091 -0.3350
 1016MOL0     H37119   8.608   7.335   6.654  1.4497 -1.0326 -2.1687
 1016MOL0     H37120   8.486   7.337   6.439  1.0125  1.4131  2.1663
 1016MOL0     H37121   8.381   7.274   6.147  3.2137  1.0331 -1.0610
 1016MOL0     H37122   8.471   7.126   6.212  0.3274 -0.7220  1.6046
 1016MOL0     H37123   8.366   7.220   6.307 -1.6403  1.5720 -1.5161
 1016MOL0     H37124   8.475   7.022   5.955  0.8111 -5.0880  0.7781
 1016MOL0     H37125   8.443   6.890   5.744 -0.2122 -1.2529  1.2119
 1016MOL0     H37126   8.435   6.794   5.565  0.1237  1.3779  1.5046
 1016MOL0     H37127   8.415   6.952   5.484 -2.6472 -1.5415  1.6851
 1016MOL0     H37128   8.536   6.705   5.377 -0.8828  0.1629 -0.6506
 1016MOL0     H37129   8.388   6.798   5.326 -1.8926  0.9383  6.4729
 1016MOL0     H37130   8.602   6.974   5.292  0.1896  0.3882 -0.5408
 1016MOL0     H37131   8.492   6.921   5.170  0.0675 -1.7257 -0.8127
 1016MOL0     H37132   8.735   6.771   5.288 -1.9883 -3.5471  0.8689
 1016MOL0     H37133   8.638   6.717   5.141 -0.4569  2.0753 -2.8676
 1016MOL0     H37134   8.832   6.798   5.051 -0.8283 -0.4404 -2.1060
 1016MOL0     H37135   8.816   6.951   5.145 -1.5664 -0.0729  0.4981
 1016MOL0     H37136   8.588   6.846   4.969  0.1474  0.4789 -0.7987
 1016MOL0     H37137   8.612   7.006   5.016  1.4867  1.2201 -1.2215
 1016MOL0     H37138   8.683   6.902   4.766  0.1406  1.6067  0.3521
 1016MOL0     H37139   8.820   6.859   4.849  1.5161 -0.4361 -0.6103
 1016MOL0     H37140   8.730   7.167   4.845  1.2677  1.2062 -1.0269
 1016MOL0     H37141   8.833   7.094   4.727 -3.6068  0.8981 -1.2138
 1016MOL0     H37142   8.802   7.052   5.579  1.5965 -1.6363  1.8947
 1016MOL0     H37143   8.837   7.185   5.818 -1.8938  2.6367  0.9458
 1016MOL0     H37144   8.856   7.461   6.136 -0.0060  0.7126  0.8880
 1016MOL0     H37145   8.859   7.543   6.342 -0.9774  2.0344 -1.6230
 1016MOL0     H37146   8.762   6.388   7.784  4.0685  1.4872 -0.6669
 1016MOL0     H37147   8.854   6.199   7.879  1.2402  1.0695 -1.9266
 1016MOL0     H37148   9.066   5.973   8.161  2.9104 -0.8865  2.1007
 1016MOL0     H37149   9.093   5.738   8.211 -0.0726  0.0012  0.8094
 1016MOL0     H37150   8.980   5.614   8.592 -1.4187  0.7485 -0.0166
 1016MOL0     H37151   8.831   5.541   8.536  1.0120 -2.1071  0.9749
 1016MOL0     H37152   9.106   5.406   8.529  0.2444  1.7527  3.4920
 1016MOL0     H37153   8.942   5.338   8.486 -1.9050  0.4886 -0.5374
 1016MOL0     H37154   8.893   5.420   8.731  1.9885  2.8761 -0.3324
 1016MOL0     H37155   9.064   5.424   8.753  1.6248 -0.8606 -0.7232
 1016MOL0     H37156   9.093   5.184   8.690  0.0260 -0.5443  0.7698
 1016MOL0     H37157   8.928   5.170   8.653 -1.0541  0.3912  2.3195
 1016MOL0     H37158   8.927   5.137   9.074  0.6737  3.7074  1.0103
 1016MOL0     H37159   8.755   5.752   8.486  0.3300  1.4382  2.1973
 1016MOL0     H37160   8.733   5.986   8.429 -0.3432  0.0524 -1.5125
 1017MOL0     O37161   0.680   8.902   5.673 -0.0248 -0.1265  0.2393
 1017MOL0     C37162   0.668   9.022   5.662 -0.4128  0.7383 -0.0916
 1017MOL0     O37163   0.683   9.108   5.761  0.9815  0.0351 -0.4877
 1017MOL0     C37164   0.712   9.080   5.890  0.0846  0.0883 -0.6632
 1017MOL0     C37165   0.782   9.179   5.971  0.2484  0.1798  1.2193
 1017MOL0     C37166   0.798   9.167   6.105  0.2492  0.6200  0.7554
 1017MOL0     C37167   0.768   9.049   6.167  0.2059  0.1997  0.6809
 1017MOL0     O37168   0.793   9.056   6.299 -0.8017 -0.8731  0.1820
 1017MOL0     C37169   0.743   8.946   6.380  0.1191  0.3426  0.7111
 1017MOL0     C37170   0.757   8.990   6.526  0.1958  0.4191  0.6418
 1017MOL0     C37171   0.894   8.959   6.587  0.2355 -0.1001 -0.2419
 1017MOL0     C37172   0.926   8.818   6.617  0.1781 -0.8184  0.3562
 1017MOL0     C37173   1.042   8.806   6.698 -0.3076  1.1413  0.2967
 1017MOL0     C37174   1.072   8.664   6.747  0.1102  0.2554  0.1595
 1017MOL0     C37175   1.191   8.672   6.844 -0.1510 -0.4026 -1.3943
 1017MOL0     C37176   1.260   8.530   6.855 -0.1904  0.0628 -0.0140
 1017MOL0     N37177   1.378   8.536   6.942 -0.7427  0.2912  0.0741
 1017MOL0     C37178   1.373   8.522   7.079  0.3593  1.3009 -0.0108
 1017MOL0     C37179   1.508   8.510   7.112  0.3101  1.9852  0.1280
 1017MOL0     C37180   1.565   8.491   7.257  0.8480  0.0886  0.6568
 1017MOL0     C37181   1.535   8.634   7.321  0.6842  1.0965 -0.4709
 1017MOL0     C37182   1.554   8.641   7.477 -0.0137 -0.0076 -0.5941
 1017MOL0     C37183   1.706   8.651   7.517  0.3319 -0.0899  0.2817
 1017MOL0     O37184   1.749   8.784   7.506 -0.3036 -0.5888  0.2250
 1017MOL0     C37185   1.889   8.796   7.505 -0.4034  0.3396  0.8354
 1017MOL0     C37186   1.963   8.805   7.626 -0.2541  0.3981  0.3427
 1017MOL0     C37187   2.104   8.825   7.618  0.0840  0.3402 -0.9292
 1017MOL0     C37188   2.179   8.839   7.749  1.0763  1.4349  0.1252
 1017MOL0     C37189   2.163   8.845   7.495 -0.3398  0.2053  0.0542
 1017MOL0     C37190   2.297   8.873   7.476  0.3254  0.0854 -0.1481
 1017MOL0     O37191   2.341   8.996   7.491 -0.4594  0.5802  0.7144
 1017MOL0     C37192   2.459   9.026   7.423 -0.0469 -0.9105  0.1007
 1017MOL0     C37193   2.562   9.081   7.499  0.0050  0.4255  0.0815
 1017MOL0     C37194   2.684   9.121   7.438  0.7470 -0.1849 -0.7152
 1017MOL0     C37195   2.700   9.105   7.293 -0.9515  0.3007  0.4083
 1017MOL0     O37196   2.819   9.135   7.233 -0.1011 -0.6772 -0.2587
 1017MOL0     C37197   2.859   9.271   7.242 -0.4967  0.3123  0.6474
 1017MOL0     C37198   2.945   9.284   7.112  0.0893  0.5935 -1.4184
 1017MOL0     C37199   2.940   9.414   7.042  0.0997 -0.4620 -0.3843
 1017MOL0     C37200   3.031   9.414   6.916  0.6898  0.0245  0.4726
 1017MOL0     C37201   3.057   9.294   6.827  0.2958  0.3735 -0.0246
 1017MOL0     C37202   3.164   9.310   6.718 -0.0247  0.4146 -0.1431
 1017MOL0     C37203   3.151   9.206   6.609  0.0778 -0.2481  0.6932
 1017MOL0     C37204   3.157   9.063   6.653 -0.2562 -0.4594 -0.5586
 1017MOL0    Cl37205   3.183   8.951   6.519  0.4053 -0.6734  0.1276
 1017MOL0     C37206   2.595   9.053   7.227  0.0880 -0.9609  0.1424
 1017MOL0     C37207   2.479   9.019   7.287 -0.5831 -0.4218  0.6382
 1017MOL0     O37208   2.364   8.773   7.459  0.1660  0.1071 -0.3800
 1017MOL0     C37209   2.093   8.830   7.381  0.1173  0.8047  0.7201
 1017MOL0     C37210   1.957   8.806   7.383  0.2845 -1.1488  0.3923
 1017MOL0     N37211   1.587   8.543   7.003  0.7418 -1.0601  0.1755
 1017MOL0     N37212   1.509   8.561   6.902  0.0745  0.1010 -0.1650
 1017MOL0     C37213   0.701   8.950   6.096  0.2759  0.0516 -0.7918
 1017MOL0     C37214   0.678   8.963   5.958 -0.5577  0.2789 -1.4652
 1017MOL0     C37215   0.636   9.079   5.533 -0.0006 -0.8809  0.6767
 1017MOL0     C37216   0.618   9.003   5.421 -0.2134  0.3071  0.1709
 1017MOL0     C37217   0.593   9.050   5.294 -0.2659 -0.4489 -0.8537
 1017MOL0     C37218   0.564   9.195   5.282  0.1536  0.3810 -0.4672
 1017MOL0     O37219   0.531   9.256   5.162 -0.6555  0.4458  0.2189
 1017MOL0     C37220   0.445   9.369   5.153  0.0395 -0.0056  0.0754
 1017MOL0     C37221   0.409   9.406   5.011  0.9568 -0.5036  0.5491
 1017MOL0     C37222   0.508   9.489   4.941  0.5885 -0.0257 -0.4894
 1017MOL0     C37223   0.497   9.511   4.795  0.2197  1.0297  1.1412
 1017MOL0     C37224   0.562   9.415   4.707 -0.2442  0.2508  0.1635
 1017MOL0     C37225   0.621   9.316   4.661  0.0248 -0.1629  0.2299
 1017MOL0     C37226   0.563   9.277   5.399 -0.3890  0.0521  0.4862
 1017MOL0     C37227   0.615   9.223   5.521 -0.0079  0.3060 -0.3580
 1017MOL0     H37228   0.810   9.274   5.927 -1.1952 -1.5896 -4.3292
 1017MOL0     H37229   0.843   9.255   6.149  2.0732  0.9428 -1.5490
 1017MOL0     H37230   0.638   8.937   6.350  0.7083  0.5747 -1.5694
 1017MOL0     H37231   0.774   8.843   6.358 -1.6751  0.1696 -1.3161
 1017MOL0     H37232   0.744   9.098   6.522 -4.1911  0.0152 -1.3120
 1017MOL0     H37233   0.676   8.937   6.577  0.1451 -1.3114 -1.1166
 1017MOL0     H37234   0.974   8.997   6.522  0.4817 -2.5273 -1.4804
 1017MOL0     H37235   0.889   9.017   6.679 -1.0520  1.7650 -1.4225
 1017MOL0     H37236   0.846   8.773   6.677 -0.3403  2.0936  2.0001
 1017MOL0     H37237   0.933   8.761   6.523 -1.5669 -0.4536 -0.0397
 1017MOL0     H37238   1.136   8.837   6.652 -0.9455  2.0759 -0.4166
 1017MOL0     H37239   1.019   8.862   6.789 -0.4679 -0.9300  1.5833
 1017MOL0     H37240   0.989   8.605   6.787  3.0666 -2.4164  2.8578
 1017MOL0     H37241   1.113   8.603   6.666 -0.4773  0.7034 -0.4910
 1017MOL0     H37242   1.264   8.749   6.817 -0.2205  1.1269  2.2142
 1017MOL0     H37243   1.155   8.706   6.942  1.7460  1.3972 -1.2544
 1017MOL0     H37244   1.296   8.500   6.756 -2.6182  2.7378 -1.8738
 1017MOL0     H37245   1.182   8.464   6.895 -1.9809  3.7915  3.4319
 1017MOL0     H37246   1.283   8.493   7.133  1.7191  0.7510  2.0488
 1017MOL0     H37247   1.515   8.419   7.321  1.3591  1.0109  2.1503
 1017MOL0     H37248   1.672   8.469   7.264  0.7128 -0.4685  0.9600
 1017MOL0     H37249   1.432   8.661   7.300  0.8552  2.4140  0.2817
 1017MOL0     H37250   1.598   8.718   7.289  0.2496  2.6768  2.4769
 1017MOL0     H37251   1.508   8.553   7.521  0.5310  1.1699  2.7057
 1017MOL0     H37252   1.509   8.733   7.517 -1.5211 -1.2869  0.7572
 1017MOL0     H37253   1.769   8.584   7.457 -1.4977 -1.4040 -0.2713
 1017MOL0     H37254   1.721   8.618   7.620  1.2961  0.6548  0.3904
 1017MOL0     H37255   1.917   8.791   7.723  0.8068 -1.5815  0.6101
 1017MOL0     H37256   2.283   8.869   7.735  1.9079 -1.3432 -0.1923
 1017MOL0     H37257   2.123   8.907   7.815 -0.4856 -1.2644  1.7956
 1017MOL0     H37258   2.169   8.743   7.800 -0.3088  1.9200  0.8339
 1017MOL0     H37259   2.549   9.097   7.605 -0.0226 -1.4852  0.3953
 1017MOL0     H37260   2.770   9.169   7.485  0.7453  1.4666 -2.2865
 1017MOL0     H37261   2.770   9.331   7.261 -0.1903  0.8802  0.3431
 1017MOL0     H37262   2.937   9.291   7.316  1.0184  2.2543 -1.3350
 1017MOL0     H37263   3.048   9.260   7.141 -0.4012  1.1072  0.9703
 1017MOL0     H37264   2.908   9.223   7.029 -3.1881  3.1472 -2.0285
 1017MOL0     H37265   2.953   9.496   7.113  1.5310  1.5613 -2.8124
 1017MOL0     H37266   2.839   9.441   7.009 -0.7075  2.2629  3.6125
 1017MOL0     H37267   2.982   9.486   6.850 -0.9087  1.0278  2.6012
 1017MOL0     H37268   3.122   9.458   6.958  1.2486  0.8097 -1.4495
 1017MOL0     H37269   2.961   9.266   6.783 -0.7660  1.2313  1.6241
 1017MOL0     H37270   3.099   9.221   6.897  0.8259 -0.0366 -0.7517
 1017MOL0     H37271   3.150   9.409   6.674  5.0352  1.1813 -0.6510
 1017MOL0     H37272   3.258   9.303   6.774 -1.0746  4.0095  2.4509
 1017MOL0     H37273   3.233   9.225   6.540 -2.2396  3.2301 -1.4764
 1017MOL0     H37274   3.065   9.222   6.543 -1.3032 -1.5425  2.0885
 1017MOL0     H37275   3.061   9.042   6.701  0.1198  0.5690  0.6824
 1017MOL0     H37276   3.234   9.048   6.729  1.6672 -3.0914 -2.8227
 1017MOL0     H37277   2.597   9.023   7.123  0.1072 -0.1618 -0.0942
 1017MOL0     H37278   2.393   8.971   7.240 -1.4323  1.6363  0.0052
 1017MOL0     H37279   2.143   8.840   7.285 -1.0015 -3.0259 -0.4186
 1017MOL0     H37280   1.900   8.802   7.291  1.5635 -1.0557 -0.4287
 1017MOL0     H37281   0.670   8.854   6.136  0.7668  1.6791  4.1740
 1017MOL0     H37282   0.617   8.886   5.911 -1.9038  1.2824 -1.4324
 1017MOL0     H37283   0.644   8.898   5.435 -0.7995  0.2676  0.9941
 1017MOL0     H37284   0.579   8.972   5.219 -1.1494 -1.3194  0.1805
 1017MOL0     H37285   0.351   9.340   5.202  0.8112 -0.5114  1.3215
 1017MOL0     H37286   0.478   9.456   5.211 -0.0573  1.1704 -1.5779
 1017MOL0     H37287   0.317   9.465   5.010  1.3994  0.6843 -5.2521
 1017MOL0     H37288   0.381   9.320   4.950  2.9744 -0.7019 -0.1799
 1017MOL0     H37289   0.603   9.438   4.961  3.2694  4.2920 -0.9227
 1017MOL0     H37290   0.522   9.586   4.990 -1.5403  1.0377 -1.8748
 1017MOL0     H37291   0.549   9.606   4.783  2.0319 -0.1283 -0.8230
 1017MOL0     H37292   0.402   9.527   4.744  1.3156 -1.3085 -1.9818
 1017MOL0     H37293   0.699   9.255   4.621  2.5688  0.6162  3.5762
 1017MOL0     H37294   0.533   9.381   5.406  0.7177  0.6505 -2.2840
 1017MOL0     H37295   0.619   9.288   5.608 -1.9727 -0.1878  0.1460
 1018MOL0     O37296   7.548   5.566   5.526 -0.3299 -0.3301 -0.2767
 1018MOL0     C37297   7.559   5.638   5.430  0.1236 -0.4294 -0.3207
 1018MOL0     O37298   7.669   5.657   5.346  0.5515 -0.8129 -0.6598
 1018MOL0     C37299   7.786   5.582   5.367  0.8956 -0.7998 -0.0197
 1018MOL0     C37300   7.862   5.569   5.258  0.4534 -0.5584 -0.5768
 1018MOL0     C37301   7.997   5.502   5.262  0.1482 -0.5443  0.3651
 1018MOL0     C37302   8.047   5.463   5.384  0.3306  0.3615 -0.1206
 1018MOL0     O37303   8.174   5.401   5.390 -0.0145  0.4742  0.2960
 1018MOL0     C37304   8.238   5.359   5.512  0.0572 -0.4626  0.5726
 1018MOL0     C37305   8.373   5.298   5.470  0.0891 -0.0036 -1.0008
 1018MOL0     C37306   8.446   5.249   5.590 -0.3159 -0.9582 -0.5052
 1018MOL0     C37307   8.585   5.210   5.561 -0.5866  0.8907 -0.7186
 1018MOL0     C37308   8.680   5.225   5.681 -1.2074  0.2597 -0.5082
 1018MOL0     C37309   8.809   5.160   5.644 -0.9830  0.7150  0.9617
 1018MOL0     C37310   8.806   5.008   5.607  0.6960  0.1859  0.1544
 1018MOL0     C37311   8.942   4.935   5.604  1.0488  0.2654 -0.2614
 1018MOL0     N37312   8.925   4.794   5.561 -0.6526  0.5954 -0.4368
 1018MOL0     C37313   8.812   4.709   5.576  0.6094 -0.4375  1.1393
 1018MOL0     C37314   8.853   4.585   5.536 -0.4834 -0.1008  0.9119
 1018MOL0     C37315   8.777   4.457   5.536  0.1075  0.5623 -0.2925
 1018MOL0     C37316   8.718   4.423   5.399  0.3072 -0.5117  0.6555
 1018MOL0     C37317   8.644   4.282   5.381  0.2531  0.4693  1.0506
 1018MOL0     C37318   8.492   4.299   5.396  0.6876  0.2159  0.6084
 1018MOL0     O37319   8.430   4.389   5.306 -0.1621  0.6287  0.7095
 1018MOL0     C37320   8.320   4.439   5.351  0.5901 -0.1459  0.0792
 1018MOL0     C37321   8.198   4.362   5.345  0.5179 -0.8334  0.3117
 1018MOL0     C37322   8.079   4.417   5.394 -0.2364  0.6524  0.6298
 1018MOL0     C37323   7.957   4.326   5.378  0.9462  0.5084 -1.1397
 1018MOL0     C37324   8.073   4.543   5.462  0.5753  0.2363  0.0284
 1018MOL0     C37325   7.958   4.604   5.521  0.2156 -0.1203 -0.9368
 1018MOL0     O37326   7.875   4.536   5.615  0.2824  0.8102  0.8967
 1018MOL0     C37327   7.759   4.595   5.660 -1.0385 -0.0551 -0.6236
 1018MOL0     C37328   7.674   4.679   5.593 -0.1425  0.5861  1.1286
 1018MOL0     C37329   7.561   4.733   5.650  1.7366 -0.1780 -0.0723
 1018MOL0     C37330   7.510   4.695   5.778  0.2649 -0.3638  0.0479
 1018MOL0     O37331   7.384   4.733   5.821  0.0998  0.1619 -0.0021
 1018MOL0     C37332   7.305   4.823   5.743 -0.0777  0.1295 -0.3378
 1018MOL0     C37333   7.184   4.842   5.823  0.3337  0.0488  0.3715
 1018MOL0     C37334   7.089   4.941   5.747 -0.2126  0.6716  0.0985
 1018MOL0     C37335   7.085   5.091   5.787 -0.7539  0.2928 -0.2482
 1018MOL0     C37336   6.983   5.158   5.703  0.2454  0.9094  0.2076
 1018MOL0     C37337   6.972   5.303   5.731  0.6591 -0.2108 -0.4516
 1018MOL0     C37338   6.980   5.340   5.881 -0.2729  0.1798  0.3617
 1018MOL0     C37339   6.970   5.496   5.897 -0.3341  0.5336 -0.0219
 1018MOL0    Cl37340   7.109   5.569   5.812  0.4437 -0.5598  0.0744
 1018MOL0     C37341   7.587   4.603   5.843 -0.2524 -1.1598 -0.4652
 1018MOL0     C37342   7.714   4.558   5.793  0.2730  0.5681  0.5031
 1018MOL0     O37343   7.959   4.727   5.508  0.0151 -0.4285 -0.5404
 1018MOL0     C37344   8.198   4.609   5.477 -0.6980 -0.0551  0.1688
 1018MOL0     C37345   8.320   4.564   5.417 -0.2781 -1.1343  0.5057
 1018MOL0     N37346   8.985   4.594   5.501  0.4838  0.6701  0.1020
 1018MOL0     N37347   9.024   4.714   5.512  0.9231  0.3058  0.2710
 1018MOL0     C37348   7.956   5.464   5.493 -0.3347  0.1770 -0.3780
 1018MOL0     C37349   7.833   5.534   5.489  0.0459  0.0166  0.2137
 1018MOL0     C37350   7.436   5.726   5.403  0.4151  0.3044  0.4672
 1018MOL0     C37351   7.452   5.844   5.328  0.6745  0.1253  0.1748
 1018MOL0     C37352   7.331   5.915   5.300 -0.2306 -0.3774 -0.7032
 1018MOL0     C37353   7.203   5.871   5.341 -0.3686 -1.1252  0.3598
 1018MOL0     O37354   7.082   5.937   5.327  0.5090 -0.1313 -1.2061
 1018MOL0     C37355   7.094   6.066   5.272  0.5863  0.7736  1.0760
 1018MOL0     C37356   7.157   6.172   5.372  0.5286  0.2682  0.0274
 1018MOL0     C37357   7.063   6.200   5.488  0.1445 -0.1647 -0.1134
 1018MOL0     C37358   7.105   6.327   5.553  0.3759  0.0967 -0.5314
 1018MOL0     C37359   7.004   6.366   5.652 -0.3099 -0.6723 -0.9903
 1018MOL0     C37360   6.918   6.400   5.737 -0.2671 -0.6570  0.0743
 1018MOL0     C37361   7.190   5.759   5.420 -0.6340  0.8934 -0.1406
 1018MOL0     C37362   7.313   5.687   5.456 -0.7213  0.6483  0.1563
 1018MOL0     H37363   7.824   5.609   5.165  0.8245 -1.2207 -1.0207
 1018MOL0     H37364   8.058   5.488   5.173 -1.2555  4.2534 -1.6774
 1018MOL0     H37365   8.263   5.441   5.580 -0.1373  1.8433 -1.9586
 1018MOL0     H37366   8.176   5.290   5.570 -4.5305  1.7420 -1.1489
 1018MOL0     H37367   8.338   5.215   5.407 -4.8539  1.2954 -0.3995
 1018MOL0     H37368   8.426   5.376   5.416  0.4076  0.0918 -0.5510
 1018MOL0     H37369   8.447   5.324   5.670  2.8202  0.7748 -1.9647
 1018MOL0     H37370   8.398   5.164   5.637  2.2200 -1.1001  2.0874
 1018MOL0     H37371   8.572   5.105   5.534 -1.9099  0.7209  0.4333
 1018MOL0     H37372   8.619   5.277   5.481  1.2087 -0.2426 -0.9518
 1018MOL0     H37373   8.694   5.328   5.715 -0.6287 -0.5201  1.8292
 1018MOL0     H37374   8.654   5.183   5.779  2.8151  0.9237  1.0327
 1018MOL0     H37375   8.856   5.211   5.560 -0.8638 -3.2044 -1.6188
 1018MOL0     H37376   8.879   5.166   5.728  0.0892  2.5658 -0.0307
 1018MOL0     H37377   8.745   4.963   5.686 -0.6864  0.2150 -0.8617
 1018MOL0     H37378   8.758   4.992   5.510  2.4891  3.3248 -1.4216
 1018MOL0     H37379   8.982   4.936   5.706 -0.7353  4.5788  0.6352
 1018MOL0     H37380   9.012   4.992   5.542 -0.7080  2.7645 -0.0984
 1018MOL0     H37381   8.713   4.744   5.603  0.5264 -0.3450  0.7131
 1018MOL0     H37382   8.852   4.387   5.572  0.2347  0.8686  0.0438
 1018MOL0     H37383   8.694   4.456   5.607  1.1216  0.2427  0.9089
 1018MOL0     H37384   8.810   4.425   5.339  1.2555  0.4415  2.0934
 1018MOL0     H37385   8.640   4.490   5.360 -0.7814 -2.4828 -0.7186
 1018MOL0     H37386   8.673   4.206   5.453  3.2511 -0.2818 -0.7500
 1018MOL0     H37387   8.663   4.234   5.284 -1.8920  0.9699  0.3177
 1018MOL0     H37388   8.478   4.335   5.498 -0.6385  0.1485  0.4621
 1018MOL0     H37389   8.442   4.202   5.396  1.8973 -0.4541  2.3761
 1018MOL0     H37390   8.179   4.271   5.290 -2.2956 -1.3046  1.8774
 1018MOL0     H37391   7.875   4.377   5.326  0.3983  1.3980  0.5286
 1018MOL0     H37392   7.971   4.231   5.326 -0.9814 -1.0403  0.9410
 1018MOL0     H37393   7.925   4.293   5.477 -2.8720 -2.0166 -2.9549
 1018MOL0     H37394   7.683   4.696   5.487 -0.7523 -0.8607  0.8239
 1018MOL0     H37395   7.498   4.775   5.571  0.5187 -0.1745  0.8632
 1018MOL0     H37396   7.371   4.910   5.736 -1.0293  0.8510 -0.5403
 1018MOL0     H37397   7.286   4.774   5.647 -0.0462  0.6446 -0.6101
 1018MOL0     H37398   7.128   4.748   5.816 -3.0490  2.0842 -2.2918
 1018MOL0     H37399   7.194   4.868   5.929  1.9088  0.4142  0.1705
 1018MOL0     H37400   6.991   4.914   5.787 -0.1176  0.2519  0.0523
 1018MOL0     H37401   7.097   4.931   5.638 -2.9895  0.5531 -0.1637
 1018MOL0     H37402   7.060   5.083   5.893  1.2013 -1.5663  0.1568
 1018MOL0     H37403   7.179   5.147   5.776 -0.7000  0.8261  2.2778
 1018MOL0     H37404   6.892   5.100   5.717  2.4447 -3.4256 -1.6422
 1018MOL0     H37405   7.002   5.148   5.595  2.1874  0.3826  0.5632
 1018MOL0     H37406   7.053   5.350   5.673  1.0473  1.3117  1.2458
 1018MOL0     H37407   6.877   5.345   5.696  0.8639  1.7147  1.1243
 1018MOL0     H37408   7.075   5.306   5.923 -1.9717 -0.7768  3.7789
 1018MOL0     H37409   6.897   5.287   5.927 -1.0507 -1.5977 -2.7868
 1018MOL0     H37410   6.984   5.521   6.003 -0.7649 -0.1587  0.2036
 1018MOL0     H37411   6.875   5.531   5.856  0.9822  0.1810 -3.7973
 1018MOL0     H37412   7.547   4.576   5.940 -1.0503 -2.9656 -1.2634
 1018MOL0     H37413   7.768   4.480   5.847  0.8388  1.1263  0.7582
 1018MOL0     H37414   8.197   4.683   5.556 -3.3266 -1.0251  1.1506
 1018MOL0     H37415   8.409   4.625   5.415 -1.9385  1.4320  0.1860
 1018MOL0     H37416   7.999   5.432   5.587 -3.5715 -1.7482  0.6146
 1018MOL0     H37417   7.770   5.555   5.575  2.0997 -0.1538  1.8387
 1018MOL0     H37418   7.545   5.872   5.280  0.1485  1.2550 -0.2253
 1018MOL0     H37419   7.345   5.996   5.229 -0.8566 -2.4067 -3.2793
 1018MOL0     H37420   7.159   6.067   5.184  0.0954  0.1828  0.6982
 1018MOL0     H37421   6.997   6.110   5.249 -0.0429 -0.6830  0.8375
 1018MOL0     H37422   7.176   6.265   5.318  0.5916 -0.3347 -1.0341
 1018MOL0     H37423   7.248   6.127   5.414 -0.0464 -0.6824  0.2779
 1018MOL0     H37424   7.057   6.116   5.558 -3.7596 -0.3522 -0.4451
 1018MOL0     H37425   6.959   6.205   5.456  0.4906  0.9082 -1.1413
 1018MOL0     H37426   7.115   6.407   5.479  2.2433 -0.4379 -0.9198
 1018MOL0     H37427   7.200   6.295   5.596 -1.1361 -2.9798  0.8069
 1018MOL0     H37428   6.836   6.413   5.805 -0.5179  0.1219 -0.3629
 1018MOL0     H37429   7.089   5.730   5.449 -0.0645 -0.0905  0.9419
 1018MOL0     H37430   7.307   5.594   5.512 -2.9691  2.5210  3.3115
 1019MOL0     O37431   5.284   2.172   8.161  0.2652 -0.5588 -0.4190
 1019MOL0     C37432   5.281   2.182   8.046 -0.0054 -0.1522 -0.1811
 1019MOL0     O37433   5.216   2.097   7.961  0.8995  0.1440  0.6793
 1019MOL0     C37434   5.163   1.981   8.023 -0.3039 -0.5672  0.7570
 1019MOL0     C37435   5.239   1.867   8.074 -0.5137  0.3369 -0.4387
 1019MOL0     C37436   5.170   1.760   8.124  0.1060  0.6578 -0.9410
 1019MOL0     C37437   5.031   1.758   8.148  0.4830  0.2127  1.4025
 1019MOL0     O37438   4.982   1.645   8.212  0.7337 -0.1424  0.2102
 1019MOL0     C37439   4.888   1.554   8.138 -0.5055 -1.0830  0.0826
 1019MOL0     C37440   4.813   1.472   8.250  0.4188 -0.6358  0.9192
 1019MOL0     C37441   4.686   1.526   8.294  0.4488  0.3035  0.8534
 1019MOL0     C37442   4.636   1.445   8.419  0.5691  0.9152  0.8891
 1019MOL0     C37443   4.500   1.510   8.468 -0.5205  0.0690 -0.0050
 1019MOL0     C37444   4.389   1.507   8.358 -0.7117 -0.2475 -0.1949
 1019MOL0     C37445   4.248   1.555   8.401  0.1947  0.0467  0.7631
 1019MOL0     C37446   4.237   1.706   8.419 -0.0051 -0.3956 -0.3968
 1019MOL0     N37447   4.264   1.784   8.296 -0.1058 -0.2811  0.7591
 1019MOL0     C37448   4.394   1.831   8.263 -0.2509  0.4749  0.6118
 1019MOL0     C37449   4.382   1.871   8.133 -0.5940  0.6549  0.5476
 1019MOL0     C37450   4.495   1.918   8.040  0.5382  0.2984  0.7794
 1019MOL0     C37451   4.530   1.797   7.952  0.3195  0.0097 -0.2038
 1019MOL0     C37452   4.639   1.818   7.851  0.1229 -0.4958  0.1312
 1019MOL0     C37453   4.673   1.697   7.762  0.1130 -0.6570 -0.4711
 1019MOL0     O37454   4.810   1.721   7.712 -0.0638 -0.1790  0.0756
 1019MOL0     C37455   4.869   1.623   7.636  0.3788 -0.1580  0.5804
 1019MOL0     C37456   4.833   1.486   7.622  0.3776 -0.6061 -0.4254
 1019MOL0     C37457   4.898   1.407   7.536  0.1576 -0.0862  0.2783
 1019MOL0     C37458   4.867   1.263   7.545  0.9495  0.4178  0.6814
 1019MOL0     C37459   5.007   1.462   7.452  0.3862 -0.4001 -0.6272
 1019MOL0     C37460   5.098   1.374   7.381  1.7077  0.0116  0.5941
 1019MOL0     O37461   5.099   1.243   7.419  0.4085  0.0625  0.3863
 1019MOL0     C37462   5.151   1.130   7.367  0.5472  0.0056  0.5509
 1019MOL0     C37463   5.121   1.017   7.437  0.1340 -0.3547 -1.1151
 1019MOL0     C37464   5.148   0.895   7.394  0.7484  0.2551  0.8333
 1019MOL0     C37465   5.201   0.876   7.270 -0.1514  0.8445 -0.3752
 1019MOL0     O37466   5.229   0.747   7.231 -0.2428 -0.4682  0.0354
 1019MOL0     C37467   5.210   0.716   7.093 -0.0637 -0.1634  0.5023
 1019MOL0     C37468   5.336   0.648   7.044  0.0263 -0.2441 -0.0670
 1019MOL0     C37469   5.469   0.729   7.019  0.7021  0.7029  0.9729
 1019MOL0     C37470   5.579   0.629   6.988 -1.1033  0.0147  0.6671
 1019MOL0     C37471   5.705   0.689   6.936 -0.4018  1.2943  1.3715
 1019MOL0     C37472   5.794   0.782   7.037 -1.0297  0.2399  0.5022
 1019MOL0     C37473   5.941   0.817   6.975 -0.2971  1.2907 -0.0134
 1019MOL0     C37474   6.022   0.901   7.069  0.5966  0.0558  0.1530
 1019MOL0    Cl37475   5.969   1.074   7.070  0.0250  0.2973 -0.2942
 1019MOL0     C37476   5.243   0.991   7.203 -0.6467 -0.4532  0.0889
 1019MOL0     C37477   5.209   1.120   7.245 -0.3043  0.4836  0.2305
 1019MOL0     O37478   5.160   1.422   7.290 -0.2286 -0.0124 -0.5057
 1019MOL0     C37479   5.028   1.603   7.455 -1.3526 -0.2371  0.1297
 1019MOL0     C37480   4.963   1.676   7.548  0.9776 -0.2075 -0.0858
 1019MOL0     N37481   4.259   1.833   8.093  0.4039 -0.6760 -0.7318
 1019MOL0     N37482   4.185   1.784   8.191 -0.5986  0.8102  0.4391
 1019MOL0     C37483   4.951   1.863   8.094 -0.5612 -1.0358 -0.4528
 1019MOL0     C37484   5.021   1.974   8.034  0.2361 -0.4833  0.2375
 1019MOL0     C37485   5.319   2.317   7.996 -0.2727 -0.4341  0.4719
 1019MOL0     C37486   5.372   2.420   8.075  0.7810  0.9400 -0.6681
 1019MOL0     C37487   5.398   2.547   8.028 -0.1883  0.8417 -0.1724
 1019MOL0     C37488   5.375   2.572   7.895 -0.5951  0.3196 -0.2583
 1019MOL0     O37489   5.409   2.699   7.868  0.7042  0.8737 -0.0952
 1019MOL0     C37490   5.421   2.747   7.739 -0.7265  0.4368  0.4804
 1019MOL0     C37491   5.459   2.902   7.759  0.7538  0.9106 -0.2754
 1019MOL0     C37492   5.573   2.935   7.853  0.1358 -0.2663  0.4339
 1019MOL0     C37493   5.568   3.066   7.925  0.5929  0.3920  0.1682
 1019MOL0     C37494   5.535   3.170   7.832 -0.0291  0.2363 -0.4029
 1019MOL0     C37495   5.506   3.255   7.754 -0.3703  0.6353  0.2606
 1019MOL0     C37496   5.329   2.471   7.808  0.2029 -0.6823  0.5927
 1019MOL0     C37497   5.303   2.351   7.863 -0.0532 -0.1744  0.5702
 1019MOL0     H37498   5.347   1.854   8.083 -0.4063  1.0858 -0.5257
 1019MOL0     H37499   5.226   1.673   8.158  0.1076  1.2705  0.7123
 1019MOL0     H37500   4.823   1.620   8.080  0.8836 -1.1092 -1.5849
 1019MOL0     H37501   4.955   1.495   8.074  1.7332  3.7974 -2.6446
 1019MOL0     H37502   4.799   1.369   8.216 -1.5226 -0.7145  1.8258
 1019MOL0     H37503   4.880   1.470   8.337  1.2954  0.6103  0.2935
 1019MOL0     H37504   4.699   1.632   8.319 -0.2986 -0.2498  4.0206
 1019MOL0     H37505   4.617   1.519   8.210  0.1851  0.3809  1.0619
 1019MOL0     H37506   4.618   1.342   8.387 -1.0715  1.2088  0.7970
 1019MOL0     H37507   4.700   1.436   8.507 -1.7537  1.5853  2.7611
 1019MOL0     H37508   4.462   1.449   8.549  2.1708 -1.7265  0.0366
 1019MOL0     H37509   4.515   1.614   8.499 -1.9243  1.0443 -2.3532
 1019MOL0     H37510   4.422   1.571   8.276 -1.7505  1.2437  0.5141
 1019MOL0     H37511   4.383   1.403   8.325 -0.3901 -1.2499  2.6136
 1019MOL0     H37512   4.170   1.529   8.330  0.4479  0.4112  0.3472
 1019MOL0     H37513   4.215   1.500   8.490  1.3449 -1.5643  0.2494
 1019MOL0     H37514   4.315   1.730   8.492 -0.3307 -1.6820  0.3981
 1019MOL0     H37515   4.137   1.733   8.453 -0.9674 -4.0454  0.1286
 1019MOL0     H37516   4.480   1.851   8.327  0.9482  2.0851 -1.3532
 1019MOL0     H37517   4.467   2.009   7.987  1.9078  0.8931  1.0307
 1019MOL0     H37518   4.583   1.942   8.101  0.7983 -1.7869  1.2934
 1019MOL0     H37519   4.439   1.763   7.902 -0.0842 -1.4716  1.4548
 1019MOL0     H37520   4.559   1.722   8.026  0.0768  0.2327  0.1221
 1019MOL0     H37521   4.726   1.858   7.904 -0.4362  0.2544  0.4888
 1019MOL0     H37522   4.604   1.888   7.776 -2.3586 -3.3685 -1.6196
 1019MOL0     H37523   4.599   1.687   7.682 -1.5745 -0.1831  0.9674
 1019MOL0     H37524   4.657   1.616   7.833  0.3966  0.0791  0.4564
 1019MOL0     H37525   4.746   1.447   7.674  0.5261 -1.8706 -1.0945
 1019MOL0     H37526   4.954   1.215   7.592  2.0717  0.8179 -0.8986
 1019MOL0     H37527   4.789   1.245   7.619  2.4928  1.0149  2.5334
 1019MOL0     H37528   4.840   1.221   7.448  3.1864  0.3334  0.0273
 1019MOL0     H37529   5.075   1.031   7.534  2.2541  0.5046 -0.1704
 1019MOL0     H37530   5.116   0.804   7.443 -0.3474 -1.3201 -2.4982
 1019MOL0     H37531   5.124   0.649   7.086  0.4741 -0.9255  1.0727
 1019MOL0     H37532   5.186   0.806   7.035 -2.9106 -0.8874  0.3950
 1019MOL0     H37533   5.356   0.563   7.110 -1.5224 -0.6012 -0.0331
 1019MOL0     H37534   5.310   0.602   6.949  1.6277  2.2119 -1.8264
 1019MOL0     H37535   5.491   0.788   7.109  1.8992 -1.0728  1.8903
 1019MOL0     H37536   5.455   0.793   6.931  0.2494 -0.4450  0.1809
 1019MOL0     H37537   5.611   0.573   7.077  0.1830 -1.2153 -0.5147
 1019MOL0     H37538   5.538   0.548   6.927  2.1900 -1.5035  0.2493
 1019MOL0     H37539   5.699   0.733   6.836 -1.1970 -2.7269 -0.5509
 1019MOL0     H37540   5.761   0.596   6.917  0.3696  1.9019  0.5934
 1019MOL0     H37541   5.740   0.876   7.053 -2.3793 -0.7050  1.8590
 1019MOL0     H37542   5.811   0.727   7.130  2.2844 -0.9355 -0.6784
 1019MOL0     H37543   5.949   0.852   6.871  0.9906 -1.1316 -0.8083
 1019MOL0     H37544   5.986   0.718   6.971 -0.7998  0.9716  1.5810
 1019MOL0     H37545   6.131   0.900   7.067  0.7254 -0.0692  3.0152
 1019MOL0     H37546   6.004   0.859   7.168 -2.4621  0.4570 -0.1153
 1019MOL0     H37547   5.311   0.989   7.118  1.3812 -2.3368  1.6107
 1019MOL0     H37548   5.230   1.202   7.176  2.4163 -1.2892 -1.2360
 1019MOL0     H37549   5.096   1.653   7.388 -1.4428 -0.4864 -0.1491
 1019MOL0     H37550   4.976   1.783   7.559 -0.1146  0.1419 -1.8662
 1019MOL0     H37551   4.843   1.856   8.094 -0.5854 -1.3188  1.6403
 1019MOL0     H37552   4.962   2.060   8.004  0.1161  0.4347  2.9083
 1019MOL0     H37553   5.371   2.404   8.182  0.8117  0.8949 -0.6744
 1019MOL0     H37554   5.444   2.624   8.089 -0.1557  1.1251 -0.5497
 1019MOL0     H37555   5.497   2.676   7.705 -1.8915 -0.6347  0.0276
 1019MOL0     H37556   5.328   2.738   7.682  0.0449 -0.5273 -0.6675
 1019MOL0     H37557   5.369   2.945   7.803  0.5332 -0.8227  1.0897
 1019MOL0     H37558   5.454   2.948   7.660 -2.4196 -1.9349 -1.6480
 1019MOL0     H37559   5.666   2.937   7.795  0.7912 -0.0907  1.4639
 1019MOL0     H37560   5.579   2.864   7.936  0.2560  2.6937  3.1320
 1019MOL0     H37561   5.660   3.091   7.978 -0.1337  2.1215  0.6854
 1019MOL0     H37562   5.495   3.053   8.005 -0.6137  0.8492 -0.8328
 1019MOL0     H37563   5.484   3.324   7.675 -1.2187 -0.0509 -0.1158
 1019MOL0     H37564   5.307   2.477   7.701  1.4529 -3.9671  0.0232
 1019MOL0     H37565   5.254   2.274   7.804  3.1238 -3.0392  1.3167
 1020MOL0     O37566   0.991   8.870   7.435  0.7892  0.6184 -0.5925
 1020MOL0     C37567   1.000   8.972   7.507 -0.7245 -0.6439 -0.0410
 1020MOL0     O37568   1.100   9.055   7.516 -0.5278 -0.5642 -0.4407
 1020MOL0     C37569   1.209   9.032   7.434 -0.0622  0.4989  0.1992
 1020MOL0     C37570   1.200   9.088   7.304 -0.7990  1.2529 -0.2730
 1020MOL0     C37571   1.306   9.096   7.213 -0.3133  0.5877 -0.3847
 1020MOL0     C37572   1.432   9.039   7.255  0.7034  0.4376  0.1447
 1020MOL0     O37573   1.517   9.029   7.146  0.2165 -0.8431 -0.3513
 1020MOL0     C37574   1.659   9.030   7.186 -0.2704 -0.2955  0.7088
 1020MOL0     C37575   1.765   9.016   7.071  0.6083  0.4119  0.5439
 1020MOL0     C37576   1.728   8.896   6.988  0.4515 -0.2696  0.4089
 1020MOL0     C37577   1.795   8.887   6.852 -0.0130  0.3060 -0.3903
 1020MOL0     C37578   1.760   8.998   6.763 -0.6375  0.4132 -0.2842
 1020MOL0     C37579   1.807   8.960   6.620  0.3481 -0.2366  1.1410
 1020MOL0     C37580   1.755   9.070   6.524 -0.0258 -0.7861 -0.1049
 1020MOL0     C37581   1.858   9.104   6.419 -0.4254 -0.3215 -0.4737
 1020MOL0     N37582   1.987   9.156   6.475  0.1419 -0.2174 -0.2156
 1020MOL0     C37583   1.985   9.276   6.546 -0.6824 -0.2787 -0.5828
 1020MOL0     C37584   2.108   9.290   6.604  0.5626 -0.5264 -0.4185
 1020MOL0     C37585   2.146   9.403   6.691  1.0879  0.2118 -0.5703
 1020MOL0     C37586   2.291   9.449   6.688  0.0487 -0.6811  0.2723
 1020MOL0     C37587   2.301   9.597   6.743  0.7119  0.1631 -0.4920
 1020MOL0     C37588   2.264   9.609   6.898 -0.4962  0.3689  0.0191
 1020MOL0     O37589   2.379   9.542   6.967  1.0867  0.3377 -0.0090
 1020MOL0     C37590   2.384   9.566   7.101  0.1869 -0.3239 -0.1221
 1020MOL0     C37591   2.516   9.582   7.155 -0.0185 -0.1369 -0.6034
 1020MOL0     C37592   2.544   9.605   7.287 -0.1120  0.4703 -0.3191
 1020MOL0     C37593   2.680   9.649   7.336 -0.1749 -0.4702  0.5023
 1020MOL0     C37594   2.432   9.586   7.380 -0.0531 -0.9649 -0.1097
 1020MOL0     C37595   2.436   9.588   7.530 -1.0362  0.1879 -0.1921
 1020MOL0     O37596   2.319   9.589   7.600 -0.3376 -0.8069 -0.2795
 1020MOL0     C37597   2.332   9.600   7.736 -1.2987  0.9446  0.3220
 1020MOL0     C37598   2.405   9.699   7.795  1.0157  0.2064 -0.4630
 1020MOL0     C37599   2.403   9.714   7.937 -0.5007 -0.4411 -0.7590
 1020MOL0     C37600   2.331   9.631   8.027  0.3181  0.3484  1.2584
 1020MOL0     O37601   2.328   9.633   8.158 -0.8838  0.6071 -0.1259
 1020MOL0     C37602   2.304   9.760   8.216  0.4837 -0.1426 -0.1203
 1020MOL0     C37603   2.280   9.766   8.374 -0.5607  0.4208 -0.0197
 1020MOL0     C37604   2.272   9.905   8.433 -0.1323  0.1798  0.3315
 1020MOL0     C37605   2.143   9.969   8.455 -0.0547 -1.0013 -0.5440
 1020MOL0     C37606   2.161  10.103   8.526 -0.6632 -0.0943 -0.2317
 1020MOL0     C37607   2.201  10.224   8.441 -0.4392 -0.1474  0.3356
 1020MOL0     C37608   2.182  10.355   8.514  0.3784  0.8254  0.3010
 1020MOL0     C37609   2.119  10.460   8.432  0.5411 -1.4042  0.4313
 1020MOL0    Cl37610   2.262  10.569   8.383 -0.1006  0.4169 -0.3723
 1020MOL0     C37611   2.262   9.523   7.959  0.2916 -0.3930  0.2536
 1020MOL0     C37612   2.267   9.509   7.823  0.5785 -0.5890  1.2729
 1020MOL0     O37613   2.552   9.581   7.582 -0.0427  0.2487  0.1189
 1020MOL0     C37614   2.303   9.563   7.333 -0.3899  0.7581  0.5997
 1020MOL0     C37615   2.273   9.556   7.195 -0.0838  0.0036  0.3929
 1020MOL0     N37616   2.181   9.176   6.572 -0.3440  0.7981  0.4932
 1020MOL0     N37617   2.110   9.093   6.497 -0.3125 -1.0800 -0.0469
 1020MOL0     C37618   1.450   8.985   7.381 -0.7052  0.2230 -0.5674
 1020MOL0     C37619   1.341   8.981   7.473  0.3022  0.1052  0.3240
 1020MOL0     C37620   0.896   9.008   7.600  0.5832 -0.4066 -0.0173
 1020MOL0     C37621   0.764   8.971   7.572  1.1176 -0.1688 -0.9312
 1020MOL0     C37622   0.658   9.004   7.656  1.4054  0.1396  0.4477
 1020MOL0     C37623   0.676   9.076   7.776 -0.5130 -0.0373 -0.1050
 1020MOL0     O37624   0.581   9.101   7.874  0.0798  0.1477  0.6003
 1020MOL0     C37625   0.451   9.121   7.826 -0.1251  0.7637  0.8670
 1020MOL0     C37626   0.368   9.189   7.939 -0.7131 -0.4971  0.0217
 1020MOL0     C37627   0.448   9.296   8.013  0.7751 -0.2905  0.6247
 1020MOL0     C37628   0.415   9.299   8.163  0.0245  0.1770  0.9473
 1020MOL0     C37629   0.290   9.360   8.181  0.1536 -0.2070 -0.7799
 1020MOL0     C37630   0.176   9.403   8.178 -0.7413 -1.3145 -0.9889
 1020MOL0     C37631   0.807   9.120   7.808 -0.5483  0.2095  0.5063
 1020MOL0     C37632   0.918   9.085   7.723  0.7642 -0.7569 -0.1612
 1020MOL0     H37633   1.103   9.136   7.290 -0.6436  2.0777  1.1966
 1020MOL0     H37634   1.291   9.129   7.111 -0.2890 -0.3785 -0.7029
 1020MOL0     H37635   1.674   9.119   7.249 -2.2602 -1.7414  3.4646
 1020MOL0     H37636   1.657   8.936   7.241  0.6820 -4.3576 -5.2664
 1020MOL0     H37637   1.758   9.107   7.011 -2.5667 -1.5337 -2.4373
 1020MOL0     H37638   1.867   8.998   7.105  0.0724 -4.2849  0.3651
 1020MOL0     H37639   1.756   8.811   7.051 -0.7205  0.1498  1.5396
 1020MOL0     H37640   1.620   8.887   6.973  0.7604 -1.9981 -1.1092
 1020MOL0     H37641   1.903   8.884   6.872 -0.5210 -3.9034  3.5571
 1020MOL0     H37642   1.758   8.796   6.804 -0.5394  0.7896 -0.9045
 1020MOL0     H37643   1.651   9.010   6.764 -0.9721 -1.7895 -2.1297
 1020MOL0     H37644   1.812   9.087   6.800 -0.1110 -0.6593  1.6708
 1020MOL0     H37645   1.914   8.941   6.601 -0.0275 -1.5799  0.2210
 1020MOL0     H37646   1.757   8.868   6.590  1.3345 -1.1313  2.1320
 1020MOL0     H37647   1.667   9.024   6.478  0.0747 -1.7269  0.5999
 1020MOL0     H37648   1.730   9.162   6.577  0.8653 -0.6440  0.0928
 1020MOL0     H37649   1.818   9.189   6.363 -1.8375  0.8055  2.0737
 1020MOL0     H37650   1.879   9.008   6.371 -4.0814 -1.4105 -0.2106
 1020MOL0     H37651   1.899   9.342   6.548  0.6084  1.5758 -2.4954
 1020MOL0     H37652   2.076   9.484   6.671 -1.5034 -2.0868 -1.5825
 1020MOL0     H37653   2.129   9.371   6.794 -0.6142 -1.9028 -1.4379
 1020MOL0     H37654   2.322   9.442   6.584  1.9059 -1.2688  0.8262
 1020MOL0     H37655   2.359   9.382   6.742  0.8453  0.5693  0.8506
 1020MOL0     H37656   2.238   9.657   6.677 -0.6720  1.8979  2.2056
 1020MOL0     H37657   2.398   9.639   6.717 -0.0919  1.1699 -2.0348
 1020MOL0     H37658   2.173   9.553   6.922 -0.3275 -0.6235 -1.4946
 1020MOL0     H37659   2.254   9.714   6.928 -1.0244  1.0329 -2.2357
 1020MOL0     H37660   2.593   9.580   7.079  1.5543 -2.1565  0.9572
 1020MOL0     H37661   2.669   9.734   7.404  1.7385 -2.4826  3.6112
 1020MOL0     H37662   2.744   9.573   7.383 -1.2801 -0.6154  1.8570
 1020MOL0     H37663   2.725   9.684   7.243  0.9755 -1.2780  0.7353
 1020MOL0     H37664   2.442   9.789   7.747  3.1540  1.4477  3.0938
 1020MOL0     H37665   2.440   9.810   7.971 -0.3481 -0.9175  0.4568
 1020MOL0     H37666   2.387   9.830   8.203  0.0135  1.1448  2.8662
 1020MOL0     H37667   2.213   9.793   8.166 -0.1473 -1.1015  0.3688
 1020MOL0     H37668   2.189   9.709   8.397 -2.1374  0.3571 -5.0686
 1020MOL0     H37669   2.361   9.713   8.424  0.5485  2.1364  0.0748
 1020MOL0     H37670   2.325   9.973   8.366 -0.7720  0.7458  0.3871
 1020MOL0     H37671   2.326   9.907   8.528 -2.9976  0.0426  2.0695
 1020MOL0     H37672   2.089   9.974   8.360  1.0925  0.5413 -1.1600
 1020MOL0     H37673   2.084   9.905   8.522 -0.9791 -1.0555 -1.3808
 1020MOL0     H37674   2.216  10.093   8.620 -1.1927 -1.5433 -0.0446
 1020MOL0     H37675   2.056  10.121   8.550 -1.2874 -2.3265 -1.0369
 1020MOL0     H37676   2.304  10.220   8.405 -0.4435 -2.3117  0.4335
 1020MOL0     H37677   2.132  10.228   8.356  0.0822 -0.8998 -0.1385
 1020MOL0     H37678   2.272  10.387   8.569  0.2235  0.8780  0.5275
 1020MOL0     H37679   2.101  10.343   8.587 -1.5741  0.3870 -1.8490
 1020MOL0     H37680   2.052  10.517   8.497 -2.5761 -1.1898 -2.6961
 1020MOL0     H37681   2.052  10.421   8.356 -3.0994 -0.3624  2.8328
 1020MOL0     H37682   2.195   9.454   8.009  2.2824 -1.2562  1.8641
 1020MOL0     H37683   2.216   9.427   7.771 -0.5947  1.1265 -0.4366
 1020MOL0     H37684   2.221   9.524   7.394 -0.3187 -0.8948 -0.3004
 1020MOL0     H37685   2.173   9.524   7.164  0.1959 -1.8978  1.3283
 1020MOL0     H37686   1.550   8.957   7.409  0.0723  3.0829 -0.1263
 1020MOL0     H37687   1.356   8.943   7.574 -2.5380 -0.0098  0.7770
 1020MOL0     H37688   0.756   8.922   7.475 -1.0380  0.9899 -1.4036
 1020MOL0     H37689   0.556   8.982   7.624  0.8428  0.3130  2.0465
 1020MOL0     H37690   0.454   9.182   7.735  2.6629  0.4219  0.6614
 1020MOL0     H37691   0.400   9.027   7.801  0.1430  0.3456  1.8215
 1020MOL0     H37692   0.318   9.119   8.006  1.9975 -0.1877  2.5831
 1020MOL0     H37693   0.294   9.232   7.871  1.3662  3.0696 -0.2856
 1020MOL0     H37694   0.424   9.390   7.962 -0.8307 -1.4419 -0.8328
 1020MOL0     H37695   0.556   9.293   7.995  0.6571 -1.0701  0.0423
 1020MOL0     H37696   0.486   9.363   8.214  1.1945 -0.2285 -0.1304
 1020MOL0     H37697   0.426   9.196   8.199 -0.4774  0.5042  2.0794
 1020MOL0     H37698   0.081   9.451   8.166 -0.2394 -0.0036  0.0129
 1020MOL0     H37699   0.818   9.169   7.905  2.8418  1.1149 -0.2104
 1020MOL0     H37700   1.021   9.108   7.747  1.1221 -2.0489 -0.4014
 1021MOL0     O37701  11.236   8.764   0.694  0.5042 -0.9229  0.0455
 1021MOL0     C37702  11.193   8.689   0.785  0.1142 -0.4554  0.9450
 1021MOL0     O37703  11.226   8.555   0.807 -0.5528 -0.1690  0.5665
 1021MOL0     C37704  11.307   8.481   0.720 -0.1631  0.1882  0.0811
 1021MOL0     C37705  11.267   8.357   0.674 -0.7261  0.7258 -0.1154
 1021MOL0     C37706  11.357   8.287   0.585  0.1427 -0.6148  0.0128
 1021MOL0     C37707  11.480   8.341   0.551  0.8892 -0.1423  1.2967
 1021MOL0     O37708  11.544   8.269   0.450  0.0808 -0.3445  0.3444
 1021MOL0     C37709  11.654   8.330   0.389 -0.3616 -0.3265 -0.0282
 1021MOL0     C37710  11.747   8.234   0.309 -0.4532  0.2200  0.6608
 1021MOL0     C37711  11.682   8.118   0.231  0.0021  0.6159 -0.2144
 1021MOL0     C37712  11.783   8.056   0.118  0.6338  0.5839  0.0386
 1021MOL0     C37713  11.748   7.927   0.061  0.6775 -0.4146 -0.0620
 1021MOL0     C37714  11.729   7.812   0.161  0.2090  0.9728 -0.6227
 1021MOL0     C37715  11.710   7.685   0.085 -0.9587  0.2729  0.5339
 1021MOL0     C37716  11.654   7.577   0.169 -0.1013  1.0917  0.0063
 1021MOL0     N37717  11.656   7.443   0.110 -0.7794  1.0658  0.3762
 1021MOL0     C37718  11.650   7.327   0.188 -0.5442  1.0900 -0.0033
 1021MOL0     C37719  11.662   7.227   0.098 -0.3606  0.3555 -0.2731
 1021MOL0     C37720  11.655   7.080   0.131  0.1475 -0.8621  0.1322
 1021MOL0     C37721  11.643   6.993   0.004 -0.4297 -0.2738 -0.6287
 1021MOL0     C37722  11.711   6.860   0.032 -0.5451 -0.3849  0.0135
 1021MOL0     C37723  11.681   6.774  -0.088 -0.7784  0.5070  0.7620
 1021MOL0     O37724  11.537   6.740  -0.093  0.6868 -1.3389 -0.1695
 1021MOL0     C37725  11.498   6.638  -0.007  0.5049 -1.3125 -0.8005
 1021MOL0     C37726  11.399   6.663   0.088  1.0276 -1.0993 -1.1524
 1021MOL0     C37727  11.356   6.564   0.186 -0.6437 -0.1650 -0.9328
 1021MOL0     C37728  11.239   6.590   0.276 -0.5029  0.0371  0.2195
 1021MOL0     C37729  11.430   6.446   0.190  0.0622 -0.1305 -0.7534
 1021MOL0     C37730  11.402   6.335   0.289 -0.9244  0.6616 -0.6397
 1021MOL0     O37731  11.438   6.208   0.239 -0.3951 -0.3822  0.4590
 1021MOL0     C37732  11.409   6.084   0.297  0.0443 -0.0851  0.1729
 1021MOL0     C37733  11.475   5.978   0.239  0.0001  1.1233 -0.2882
 1021MOL0     C37734  11.454   5.844   0.284  0.2165  0.8346  0.2001
 1021MOL0     C37735  11.366   5.815   0.391  0.1884 -0.2347 -0.0935
 1021MOL0     O37736  11.324   5.685   0.424 -0.0746 -0.1701  0.0925
 1021MOL0     C37737  11.348   5.655   0.560  0.1609 -0.0267 -0.0061
 1021MOL0     C37738  11.393   5.509   0.581  0.3109 -0.0051 -0.6135
 1021MOL0     C37739  11.449   5.472   0.713 -0.6812  0.1185  0.2625
 1021MOL0     C37740  11.598   5.490   0.733 -0.0550  0.4915 -0.5659
 1021MOL0     C37741  11.644   5.420   0.860 -0.1357  0.6253 -0.3182
 1021MOL0     C37742  11.791   5.448   0.887  1.0302 -0.0307  0.4097
 1021MOL0     C37743  11.842   5.428   1.028  0.8857 -0.3222  0.0117
 1021MOL0     C37744  11.984   5.455   1.049  0.6032 -0.2453 -0.2403
 1021MOL0    Cl37745  11.974   5.499   1.218 -0.6354 -0.2925 -0.2363
 1021MOL0     C37746  11.300   5.925   0.446  0.5756  0.7472  0.0465
 1021MOL0     C37747  11.318   6.048   0.397  0.1562 -0.6861  0.1149
 1021MOL0     O37748  11.349   6.353   0.397 -0.5188 -0.3843  0.1346
 1021MOL0     C37749  11.530   6.416   0.090  1.1727  0.6380 -0.2938
 1021MOL0     C37750  11.562   6.512  -0.002  0.4199 -1.4964  0.3044
 1021MOL0     N37751  11.682   7.282  -0.030  0.3098  0.2539 -0.1803
 1021MOL0     N37752  11.679   7.404  -0.019  0.0074  0.4175 -0.0190
 1021MOL0     C37753  11.528   8.461   0.608 -0.3894 -0.2384 -0.3180
 1021MOL0     C37754  11.436   8.530   0.680  0.1958  0.9964 -0.1820
 1021MOL0     C37755  11.085   8.732   0.868 -0.5168  0.7225 -0.0501
 1021MOL0     C37756  11.056   8.867   0.881 -0.0888  0.2978 -0.2469
 1021MOL0     C37757  10.956   8.918   0.966 -0.6528 -0.4955 -0.3620
 1021MOL0     C37758  10.868   8.831   1.032 -0.3223  0.1420  0.2783
 1021MOL0     O37759  10.758   8.892   1.088 -0.3976 -0.3115 -0.3843
 1021MOL0     C37760  10.689   8.848   1.205 -0.0988 -0.5911  1.2751
 1021MOL0     C37761  10.565   8.759   1.173 -0.2938 -0.0080  0.5373
 1021MOL0     C37762  10.531   8.699   1.309 -0.6798  0.6087 -0.4698
 1021MOL0     C37763  10.524   8.547   1.300  0.8079  0.5558 -0.1636
 1021MOL0     C37764  10.491   8.495   1.436 -0.3157  0.0886  0.1294
 1021MOL0     C37765  10.461   8.480   1.551 -0.4164 -0.3346  0.0800
 1021MOL0     C37766  10.892   8.693   1.020  0.9596 -0.5046  0.4436
 1021MOL0     C37767  10.997   8.641   0.942  0.3602 -0.0573  0.9424
 1021MOL0     H37768  11.172   8.316   0.706 -1.5311  2.6729  0.1185
 1021MOL0     H37769  11.335   8.193   0.535  3.9201  0.5605 -4.4998
 1021MOL0     H37770  11.619   8.407   0.319 -3.1577 -0.9405  0.5521
 1021MOL0     H37771  11.727   8.377   0.456 -0.0609 -1.3296  0.3674
 1021MOL0     H37772  11.806   8.303   0.248 -0.9649  0.9134  0.9369
 1021MOL0     H37773  11.813   8.180   0.378  0.9926  0.3335 -0.5915
 1021MOL0     H37774  11.648   8.051   0.310  1.6305  3.7190  3.4704
 1021MOL0     H37775  11.590   8.145   0.178 -0.8458 -1.1274  0.3012
 1021MOL0     H37776  11.781   8.126   0.034 -4.5191  2.4866  1.3123
 1021MOL0     H37777  11.881   8.043   0.163  2.0438 -0.6253 -3.1369
 1021MOL0     H37778  11.655   7.933   0.004  1.8599 -1.1672 -2.1760
 1021MOL0     H37779  11.834   7.908  -0.004  1.1840  2.5294 -0.4167
 1021MOL0     H37780  11.808   7.816   0.237  0.0729 -1.2415 -0.3018
 1021MOL0     H37781  11.635   7.825   0.216 -0.0403  0.4286 -0.9061
 1021MOL0     H37782  11.641   7.706   0.003  0.6074  1.4569 -0.5646
 1021MOL0     H37783  11.811   7.662   0.049  0.0600 -0.1726  3.4452
 1021MOL0     H37784  11.547   7.597   0.183  0.0832  1.1555  1.5534
 1021MOL0     H37785  11.718   7.570   0.257  0.0295  5.3367  0.4190
 1021MOL0     H37786  11.625   7.316   0.293  0.3228  0.2968  0.1314
 1021MOL0     H37787  11.749   7.052   0.180  0.2803 -0.4727  0.1024
 1021MOL0     H37788  11.572   7.062   0.200 -0.3052 -0.5226 -0.3126
 1021MOL0     H37789  11.690   7.039  -0.082 -0.3861 -1.2317 -1.1292
 1021MOL0     H37790  11.537   6.970  -0.015 -0.2346 -4.8585  2.2224
 1021MOL0     H37791  11.684   6.813   0.127 -1.1399  0.1944  0.1351
 1021MOL0     H37792  11.821   6.867   0.037 -0.6207  0.3049  0.9042
 1021MOL0     H37793  11.742   6.684  -0.094 -1.4747  0.0702  0.0205
 1021MOL0     H37794  11.715   6.823  -0.180  1.4299 -1.8179  0.2261
 1021MOL0     H37795  11.343   6.755   0.083 -1.0390 -2.3368 -2.1870
 1021MOL0     H37796  11.170   6.505   0.284 -0.4468  0.1455  5.5146
 1021MOL0     H37797  11.270   6.610   0.379  1.6125 -1.4356 -0.0595
 1021MOL0     H37798  11.184   6.669   0.226  0.3921  0.7298  0.3016
 1021MOL0     H37799  11.559   5.999   0.173 -0.4139  0.1021 -1.1684
 1021MOL0     H37800  11.504   5.757   0.241  1.7317  1.6041  0.3440
 1021MOL0     H37801  11.419   5.718   0.614  2.3682 -1.5552 -1.0232
 1021MOL0     H37802  11.252   5.655   0.614  0.9514  2.1578  1.5138
 1021MOL0     H37803  11.306   5.444   0.569 -2.2199  3.2249 -1.0927
 1021MOL0     H37804  11.473   5.493   0.508  0.2194  0.6164 -0.8575
 1021MOL0     H37805  11.442   5.363   0.704  0.3772  0.1786 -1.8087
 1021MOL0     H37806  11.389   5.505   0.799 -0.4468  1.6249 -0.1376
 1021MOL0     H37807  11.641   5.448   0.641 -1.0170  0.3932 -0.9817
 1021MOL0     H37808  11.639   5.590   0.749  0.7274 -0.0653  1.0431
 1021MOL0     H37809  11.635   5.311   0.865  1.6686  0.4357  5.0542
 1021MOL0     H37810  11.588   5.454   0.947  3.4870  0.0939  2.4566
 1021MOL0     H37811  11.867   5.396   0.829  0.6246 -1.2459  0.9359
 1021MOL0     H37812  11.809   5.554   0.869 -2.1854  0.3457 -1.0797
 1021MOL0     H37813  11.825   5.332   1.076 -1.8585 -0.8037 -1.6927
 1021MOL0     H37814  11.772   5.488   1.088  0.2605 -1.3342  0.3288
 1021MOL0     H37815  12.027   5.537   0.990 -2.4161  0.2079 -1.9970
 1021MOL0     H37816  12.039   5.363   1.024  1.3449 -0.7200  2.7797
 1021MOL0     H37817  11.227   5.895   0.520  1.1195  0.0844  0.3206
 1021MOL0     H37818  11.264   6.127   0.449  1.8373  0.5013  0.1575
 1021MOL0     H37819  11.576   6.317   0.089 -4.5380 -2.4883  1.9287
 1021MOL0     H37820  11.628   6.482  -0.082 -1.1017 -0.0551 -1.5816
 1021MOL0     H37821  11.623   8.504   0.578 -0.1652  0.6960  1.5642
 1021MOL0     H37822  11.473   8.621   0.727 -2.7474  1.8510  0.7623
 1021MOL0     H37823  11.115   8.937   0.824  0.2117  1.0571  0.9603
 1021MOL0     H37824  10.935   9.024   0.952 -0.0362 -0.6971 -3.7188
 1021MOL0     H37825  10.768   8.800   1.264  3.0762  1.4705 -0.9712
 1021MOL0     H37826  10.662   8.936   1.263  0.1831 -1.1066  2.2164
 1021MOL0     H37827  10.580   8.675   1.104 -3.1330 -1.1556  1.2077
 1021MOL0     H37828  10.478   8.805   1.126  1.0629  0.6738 -1.5009
 1021MOL0     H37829  10.433   8.731   1.343 -1.3109 -2.1692  0.6171
 1021MOL0     H37830  10.601   8.716   1.392 -1.8171 -2.2998  1.2430
 1021MOL0     H37831  10.623   8.509   1.274  1.0476 -1.8771  3.6159
 1021MOL0     H37832  10.444   8.512   1.233  1.1356 -0.0724 -0.2390
 1021MOL0     H37833  10.424   8.461   1.649 -1.3925 -1.9529 -0.5523
 1021MOL0     H37834  10.824   8.620   1.063 -0.5786 -2.6057 -4.8430
 1021MOL0     H37835  10.995   8.534   0.924  2.7793 -0.1202  0.6033
 1022MOL0     O37836   1.334   0.198   2.004  0.9038 -0.6005 -0.0105
 1022MOL0     C37837   1.421   0.173   1.934  0.9838 -0.4031 -0.8735
 1022MOL0     O37838   1.441   0.055   1.876 -0.6832  0.6729 -0.2886
 1022MOL0     C37839   1.388  -0.056   1.946  0.4879 -0.7608 -0.0516
 1022MOL0     C37840   1.410  -0.068   2.083  0.7041 -0.2882 -0.6302
 1022MOL0     C37841   1.369  -0.184   2.154  0.3710  0.8956 -1.1860
 1022MOL0     C37842   1.312  -0.293   2.089  0.2060 -0.6206  0.6637
 1022MOL0     O37843   1.273  -0.400   2.170  1.0143 -0.7576  0.1521
 1022MOL0     C37844   1.250  -0.536   2.108  0.7433  0.3018  0.0821
 1022MOL0     C37845   1.092  -0.556   2.136 -0.0068  0.0016 -0.2305
 1022MOL0     C37846   1.050  -0.697   2.094 -0.2259  0.6119 -0.1877
 1022MOL0     C37847   0.896  -0.711   2.084  0.2113 -0.0793 -0.1093
 1022MOL0     C37848   0.862  -0.859   2.119  0.3651  0.4362  0.5284
 1022MOL0     C37849   0.927  -0.966   2.025 -0.1558 -0.2628  0.5614
 1022MOL0     C37850   0.823  -1.018   1.922  0.1437 -0.3981 -0.3254
 1022MOL0     C37851   0.855  -1.167   1.887  1.0701 -0.5378 -0.5706
 1022MOL0     N37852   0.989  -1.185   1.826  1.1763 -0.7960 -0.7193
 1022MOL0     C37853   1.032  -1.122   1.713 -0.9111 -0.3384 -0.1022
 1022MOL0     C37854   1.142  -1.189   1.676 -1.4280 -0.8901  0.8945
 1022MOL0     C37855   1.207  -1.152   1.539  0.2041  0.2634  0.5670
 1022MOL0     C37856   1.326  -1.245   1.506  0.4369 -0.6236 -0.3954
 1022MOL0     C37857   1.457  -1.219   1.578 -0.3121 -0.2061 -0.2814
 1022MOL0     C37858   1.526  -1.349   1.597 -0.5673  1.4101  0.2557
 1022MOL0     O37859   1.523  -1.437   1.485  0.4169  0.0707  0.6086
 1022MOL0     C37860   1.624  -1.424   1.386  0.0423 -0.4249  0.5113
 1022MOL0     C37861   1.742  -1.348   1.385 -0.7424  0.3716  0.0169
 1022MOL0     C37862   1.839  -1.338   1.287  0.0629  0.3770  0.3687
 1022MOL0     C37863   1.946  -1.237   1.308  0.8343  0.5281 -0.0008
 1022MOL0     C37864   1.817  -1.418   1.176 -0.7639  0.1542  1.0762
 1022MOL0     C37865   1.901  -1.423   1.054 -1.1944  0.3258  0.3436
 1022MOL0     O37866   2.042  -1.431   1.066  0.3920 -0.2270  0.6529
 1022MOL0     C37867   2.110  -1.503   0.971  0.2652  0.6051  0.0321
 1022MOL0     C37868   2.137  -1.644   0.987  0.3024 -0.6414 -0.3408
 1022MOL0     C37869   2.223  -1.708   0.904 -0.3256  0.4165 -1.2991
 1022MOL0     C37870   2.281  -1.641   0.797  0.2869  0.5259  0.5196
 1022MOL0     O37871   2.357  -1.700   0.699 -0.0875 -0.0308 -0.0633
 1022MOL0     C37872   2.486  -1.653   0.663  0.3154 -0.0717  0.0064
 1022MOL0     C37873   2.565  -1.742   0.579 -0.2213 -0.1078  0.0755
 1022MOL0     C37874   2.601  -1.871   0.652  1.3624  0.2706 -0.5964
 1022MOL0     C37875   2.690  -1.971   0.567  0.3865 -0.9535 -0.0084
 1022MOL0     C37876   2.747  -2.090   0.649 -0.2975  0.3860 -0.6142
 1022MOL0     C37877   2.633  -2.171   0.709  0.1343  0.2853  0.2484
 1022MOL0     C37878   2.677  -2.302   0.784 -0.0335  0.2674 -0.9074
 1022MOL0     C37879   2.556  -2.356   0.868  0.3283 -1.0027 -1.0812
 1022MOL0    Cl37880   2.387  -2.345   0.810  0.0917  0.1531  0.3858
 1022MOL0     C37881   2.254  -1.502   0.779 -0.4295  0.2237 -0.6276
 1022MOL0     C37882   2.164  -1.436   0.862  0.6152 -0.2875 -0.5379
 1022MOL0     O37883   1.838  -1.442   0.953  0.0194  0.2181 -0.2143
 1022MOL0     C37884   1.707  -1.508   1.180  0.4966 -0.7532 -0.4415
 1022MOL0     C37885   1.619  -1.509   1.288  0.6536 -0.5153  0.3211
 1022MOL0     N37886   1.167  -1.292   1.765 -0.5753  0.2685  0.5568
 1022MOL0     N37887   1.083  -1.283   1.859  0.9787  0.4241  0.2208
 1022MOL0     C37888   1.287  -0.275   1.946 -0.5915 -0.0059 -0.2953
 1022MOL0     C37889   1.313  -0.151   1.884  0.0365  0.4809  0.4323
 1022MOL0     C37890   1.521   0.285   1.902 -0.3953 -0.7225 -0.3490
 1022MOL0     C37891   1.534   0.399   1.990  0.0067  0.8068 -0.3384
 1022MOL0     C37892   1.638   0.492   1.959  0.4371 -0.5883 -0.0362
 1022MOL0     C37893   1.724   0.478   1.852 -0.0076 -0.3467  0.4095
 1022MOL0     O37894   1.824   0.573   1.844  0.0149  0.0991  0.3977
 1022MOL0     C37895   1.956   0.529   1.875 -0.2020  1.2018  0.1889
 1022MOL0     C37896   1.982   0.455   2.017  0.0145 -0.2234  0.2508
 1022MOL0     C37897   2.107   0.368   2.037  0.1941  0.7893  0.3062
 1022MOL0     C37898   2.242   0.439   2.036  0.3180  0.6530 -0.2837
 1022MOL0     C37899   2.241   0.548   2.131 -0.3887  0.1311 -0.3585
 1022MOL0     C37900   2.244   0.645   2.200  0.4153 -0.5157  0.8109
 1022MOL0     C37901   1.707   0.373   1.769  0.3261  0.6526 -0.0476
 1022MOL0     C37902   1.608   0.267   1.794  0.6302 -0.2292 -0.4819
 1022MOL0     H37903   1.461   0.013   2.133  1.1263 -2.0485  1.9921
 1022MOL0     H37904   1.387  -0.193   2.261 -2.8689  2.5681 -0.3933
 1022MOL0     H37905   1.271  -0.543   2.001 -3.5583  2.0491 -1.0678
 1022MOL0     H37906   1.301  -0.616   2.162  0.9099  0.8421  0.7371
 1022MOL0     H37907   1.078  -0.523   2.239  2.5603  0.4443  0.0600
 1022MOL0     H37908   1.034  -0.483   2.079  0.3037 -0.9262 -1.7948
 1022MOL0     H37909   1.093  -0.728   1.998  1.8211 -1.6394  1.3573
 1022MOL0     H37910   1.102  -0.760   2.166 -0.4677  1.1471  0.4600
 1022MOL0     H37911   0.850  -0.647   2.160 -3.5699 -3.0713  0.4379
 1022MOL0     H37912   0.858  -0.673   1.988 -1.0920 -2.0247 -0.4205
 1022MOL0     H37913   0.906  -0.873   2.218  1.6856 -2.5974 -0.3831
 1022MOL0     H37914   0.754  -0.874   2.124  0.0837  2.4322  3.4806
 1022MOL0     H37915   1.007  -0.915   1.971 -2.0410  0.5470 -1.6159
 1022MOL0     H37916   0.966  -1.045   2.091  0.0959  3.9633  6.2244
 1022MOL0     H37917   0.730  -1.036   1.977  2.0883  0.1488  3.4088
 1022MOL0     H37918   0.803  -0.957   1.833 -0.1491 -0.4459 -0.2964
 1022MOL0     H37919   0.770  -1.196   1.826  0.5934  0.9729 -0.6573
 1022MOL0     H37920   0.860  -1.219   1.983 -1.3367  0.2742  0.0375
 1022MOL0     H37921   1.002  -1.033   1.659 -1.7778 -0.7669 -0.3469
 1022MOL0     H37922   1.134  -1.180   1.462 -1.0878 -0.7283  2.0924
 1022MOL0     H37923   1.221  -1.045   1.518  0.2425  0.0122 -0.8045
 1022MOL0     H37924   1.345  -1.237   1.399 -3.8188 -0.1455 -1.2871
 1022MOL0     H37925   1.290  -1.347   1.524 -0.6494  0.1910  2.8085
 1022MOL0     H37926   1.446  -1.171   1.676  2.2684 -1.1768  0.5581
 1022MOL0     H37927   1.529  -1.151   1.530 -0.1104  2.6488  3.5754
 1022MOL0     H37928   1.467  -1.400   1.674  0.6688  1.7339  1.4441
 1022MOL0     H37929   1.628  -1.337   1.636 -0.6139  3.1191 -0.0742
 1022MOL0     H37930   1.771  -1.281   1.465 -2.5557  1.3097 -0.0556
 1022MOL0     H37931   1.901  -1.152   1.360  0.6511  1.1698 -1.1781
 1022MOL0     H37932   2.040  -1.273   1.352  1.0718  2.4425  1.1939
 1022MOL0     H37933   1.976  -1.202   1.209 -0.4627  0.4563 -0.4267
 1022MOL0     H37934   2.088  -1.689   1.072 -0.4957 -0.1113 -0.5151
 1022MOL0     H37935   2.241  -1.815   0.901 -1.3265  0.1549  0.5012
 1022MOL0     H37936   2.491  -1.555   0.615 -1.4183 -1.4242 -3.2655
 1022MOL0     H37937   2.544  -1.663   0.756  0.6104 -1.0626 -0.2689
 1022MOL0     H37938   2.504  -1.766   0.492  0.5504  0.7108 -0.7167
 1022MOL0     H37939   2.660  -1.702   0.543  1.1735 -2.4020  0.9960
 1022MOL0     H37940   2.503  -1.912   0.678  1.5073  0.3205  0.0650
 1022MOL0     H37941   2.657  -1.844   0.743 -1.4032  0.7218  1.0981
 1022MOL0     H37942   2.636  -2.026   0.489 -0.7683  0.6291 -0.3646
 1022MOL0     H37943   2.769  -1.908   0.525 -0.9553  0.7325 -0.0953
 1022MOL0     H37944   2.822  -2.058   0.722  0.1218 -2.0509  0.0982
 1022MOL0     H37945   2.788  -2.169   0.586  1.7292  0.7022  0.2277
 1022MOL0     H37946   2.585  -2.117   0.791  0.8835  0.2707  0.7106
 1022MOL0     H37947   2.564  -2.197   0.629  1.0066 -1.6858  0.0821
 1022MOL0     H37948   2.769  -2.276   0.839  0.8137 -1.2648 -1.5220
 1022MOL0     H37949   2.689  -2.383   0.712 -3.1516 -3.7177  2.5537
 1022MOL0     H37950   2.557  -2.296   0.960 -1.1164 -0.7729 -1.2039
 1022MOL0     H37951   2.588  -2.457   0.894  1.1710 -0.6077 -0.5484
 1022MOL0     H37952   2.311  -1.442   0.709  0.0535  0.5625  0.0461
 1022MOL0     H37953   2.161  -1.329   0.846 -2.0675 -0.4695 -1.7415
 1022MOL0     H37954   1.674  -1.570   1.097 -0.8773 -2.8513  1.5702
 1022MOL0     H37955   1.524  -1.561   1.290 -0.2824  1.0970 -0.5317
 1022MOL0     H37956   1.256  -0.367   1.897 -0.1885  0.0501 -0.6671
 1022MOL0     H37957   1.277  -0.134   1.784  1.5946  6.3664  0.4956
 1022MOL0     H37958   1.468   0.409   2.076 -1.7993 -1.1446 -1.3906
 1022MOL0     H37959   1.665   0.576   2.023 -4.1322 -0.1193  1.6589
 1022MOL0     H37960   1.998   0.461   1.800 -0.4797  0.2307  0.8992
 1022MOL0     H37961   2.017   0.620   1.876  0.4854  0.7471  0.3791
 1022MOL0     H37962   1.893   0.392   2.025 -0.9997  0.7901 -2.0610
 1022MOL0     H37963   1.983   0.540   2.087  0.8835  3.4502 -3.7811
 1022MOL0     H37964   2.103   0.280   1.973  3.6506  2.0702 -1.9668
 1022MOL0     H37965   2.089   0.325   2.137 -0.8062 -2.1613 -1.0232
 1022MOL0     H37966   2.255   0.472   1.932 -1.1875 -1.3698 -1.1801
 1022MOL0     H37967   2.318   0.366   2.062  0.7434 -0.4387 -3.9352
 1022MOL0     H37968   2.255   0.721   2.275  1.3789 -1.6878  1.9128
 1022MOL0     H37969   1.788   0.352   1.699  0.1677  0.8666 -0.2959
 1022MOL0     H37970   1.599   0.177   1.734  0.5189 -0.9978  0.6579
 1023MOL0     O37971  10.129  11.233   6.179  0.0149  1.0649 -0.2065
 1023MOL0     C37972  10.190  11.148   6.251  0.8103  0.0116  0.3684
 1023MOL0     O37973  10.182  11.008   6.242  0.2673 -0.9944  0.7108
 1023MOL0     C37974  10.104  10.953   6.149  0.3305 -0.0304 -1.3781
 1023MOL0     C37975  10.137  10.932   6.016  0.3540  0.2284 -0.8629
 1023MOL0     C37976  10.049  10.870   5.922 -0.5239  0.4957 -0.7573
 1023MOL0     C37977   9.923  10.826   5.963 -0.4250  0.1495 -0.4275
 1023MOL0     O37978   9.819  10.789   5.881 -0.0763 -0.3232  0.2717
 1023MOL0     C37979   9.842  10.711   5.768 -0.1176 -0.5924 -0.5554
 1023MOL0     C37980   9.882  10.563   5.821 -0.2395  0.3940 -0.0419
 1023MOL0     C37981   9.764  10.493   5.896  0.2044  0.5783 -0.1566
 1023MOL0     C37982   9.657  10.448   5.802 -0.1785  0.1687 -0.5153
 1023MOL0     C37983   9.707  10.340   5.707  0.0600  0.1308  0.3028
 1023MOL0     C37984   9.586  10.277   5.622 -0.5666  0.1205 -0.9271
 1023MOL0     C37985   9.628  10.141   5.552  0.3956 -0.1825  0.1905
 1023MOL0     C37986   9.757  10.159   5.467  0.1394 -0.4081  0.1693
 1023MOL0     N37987   9.778  10.042   5.381 -0.2992 -0.8335 -0.2445
 1023MOL0     C37988   9.711   9.998   5.269 -0.3881  0.3637  0.4669
 1023MOL0     C37989   9.786   9.895   5.230  0.8984  0.5657 -0.4518
 1023MOL0     C37990   9.771   9.819   5.100 -0.6158  0.3461 -0.9883
 1023MOL0     C37991   9.817   9.917   4.980  0.2742 -0.3879 -0.2140
 1023MOL0     C37992   9.795   9.852   4.847  1.0242  0.0196  0.0580
 1023MOL0     C37993   9.645   9.824   4.820 -0.8566 -1.4207  0.3483
 1023MOL0     O37994   9.590   9.906   4.715 -0.6397 -0.1947  0.0883
 1023MOL0     C37995   9.465   9.890   4.672  0.0662 -1.0528  0.7531
 1023MOL0     C37996   9.362   9.825   4.732  0.1679 -0.1318  0.1853
 1023MOL0     C37997   9.234   9.813   4.669 -0.2016  0.3169  0.3711
 1023MOL0     C37998   9.134   9.742   4.745  0.4368 -0.2095 -0.1963
 1023MOL0     C37999   9.205   9.868   4.543  0.5984 -0.0273  0.4026
 1023MOL0     C38000   9.073   9.859   4.460  0.4516 -0.6177 -0.1787
 1023MOL0     O38001   9.070   9.920   4.334  0.2484  0.3432 -0.3516
 1023MOL0     C38002   8.946   9.922   4.267  1.0416  0.2047  0.6458
 1023MOL0     C38003   8.864  10.036   4.248 -0.7888 -0.6671  0.7824
 1023MOL0     C38004   8.743  10.027   4.181 -0.0846 -0.3843 -0.5937
 1023MOL0     C38005   8.720   9.916   4.094 -0.4007 -0.8765 -0.2995
 1023MOL0     O38006   8.613   9.938   4.012  0.2673 -0.6097  0.0678
 1023MOL0     C38007   8.588   9.846   3.908 -0.1905 -0.6748 -0.4898
 1023MOL0     C38008   8.505   9.921   3.797 -1.0297  0.0215  0.5929
 1023MOL0     C38009   8.415  10.034   3.839  0.5838 -0.1656 -0.6782
 1023MOL0     C38010   8.310   9.996   3.942 -0.7474 -0.3630 -0.8788
 1023MOL0     C38011   8.194   9.925   3.874  0.9913  0.2712 -0.3312
 1023MOL0     C38012   8.105   9.866   3.977  0.0747  0.5227 -0.8188
 1023MOL0     C38013   7.964   9.845   3.922  0.6525  0.0582  0.0365
 1023MOL0     C38014   7.881   9.721   3.964 -1.0704 -0.8389 -0.8005
 1023MOL0    Cl38015   7.889   9.696   4.147  0.6730  0.0994 -0.0522
 1023MOL0     C38016   8.800   9.810   4.099  0.2383  0.4848  0.5045
 1023MOL0     C38017   8.907   9.807   4.191 -0.3382 -0.1864  0.0761
 1023MOL0     O38018   8.970   9.798   4.501 -0.4983 -0.4417 -0.3211
 1023MOL0     C38019   9.313   9.932   4.474 -1.2136 -0.2692  0.3067
 1023MOL0     C38020   9.441   9.936   4.540 -0.5861  0.7670 -0.3598
 1023MOL0     N38021   9.895   9.868   5.316  1.0886 -0.3713  0.2386
 1023MOL0     N38022   9.884   9.961   5.409 -0.6719  0.4513  0.3643
 1023MOL0     C38023   9.887  10.839   6.094 -0.7485  0.1395  0.0593
 1023MOL0     C38024   9.976  10.898   6.185 -0.0433  0.2654 -0.4719
 1023MOL0     C38025  10.274  11.201   6.364 -0.1943 -0.6368  0.8006
 1023MOL0     C38026  10.343  11.107   6.443  0.0411 -0.7651  0.9764
 1023MOL0     C38027  10.414  11.154   6.559 -0.5569 -1.3005 -0.2009
 1023MOL0     C38028  10.379  11.282   6.617 -0.4772  0.8541  1.2855
 1023MOL0     O38029  10.431  11.312   6.744 -0.8541  0.0068  0.8364
 1023MOL0     C38030  10.555  11.386   6.746 -0.8209  0.6715 -0.4261
 1023MOL0     C38031  10.558  11.474   6.872 -0.9196  0.2003  0.4070
 1023MOL0     C38032  10.482  11.409   6.993 -1.0113  0.7341 -0.8569
 1023MOL0     C38033  10.478  11.494   7.129 -1.0323 -0.4770 -0.1405
 1023MOL0     C38034  10.435  11.638   7.099 -0.6395  0.2561 -1.5036
 1023MOL0     C38035  10.410  11.758   7.086 -0.6605  0.2008 -0.1734
 1023MOL0     C38036  10.308  11.373   6.525 -0.3736 -0.9661 -0.3252
 1023MOL0     C38037  10.254  11.337   6.402 -0.4938  0.5724 -0.4800
 1023MOL0     H38038  10.228  10.978   5.979 -0.2566  1.6934 -0.6052
 1023MOL0     H38039  10.064  10.860   5.815 -2.2958 -1.1002 -0.8912
 1023MOL0     H38040   9.743  10.717   5.722  0.4810 -0.1620 -1.8271
 1023MOL0     H38041   9.909  10.749   5.691  1.1335  1.0787  1.2588
 1023MOL0     H38042   9.913  10.497   5.740 -3.7617  0.8831 -2.0014
 1023MOL0     H38043   9.975  10.580   5.877 -0.4921  1.9066 -0.0190
 1023MOL0     H38044   9.802  10.398   5.937  0.2471 -0.9467 -3.3710
 1023MOL0     H38045   9.723  10.554   5.976 -3.2587 -3.6819  1.7676
 1023MOL0     H38046   9.570  10.408   5.855 -0.0815  1.8526  1.0264
 1023MOL0     H38047   9.636  10.533   5.737 -1.3027  0.6587  0.4361
 1023MOL0     H38048   9.783  10.373   5.636 -1.2230  0.4576 -0.9704
 1023MOL0     H38049   9.748  10.270   5.780  1.4836  0.1760 -0.4309
 1023MOL0     H38050   9.497  10.270   5.685 -0.4736  4.2430 -0.0499
 1023MOL0     H38051   9.550  10.353   5.552 -2.4259  3.3882  3.1107
 1023MOL0     H38052   9.659  10.067   5.626  1.7330  0.1819  0.0312
 1023MOL0     H38053   9.555  10.090   5.489 -3.2090  0.4295  3.5269
 1023MOL0     H38054   9.842  10.157   5.536  0.0406  1.1950  0.3788
 1023MOL0     H38055   9.753  10.253   5.412  1.3680 -0.3378  0.1739
 1023MOL0     H38056   9.638  10.051   5.209  1.1638  0.5609 -1.3593
 1023MOL0     H38057   9.828   9.726   5.096 -4.7643 -2.5946  0.8418
 1023MOL0     H38058   9.667   9.786   5.088 -1.7285  2.1381  2.3751
 1023MOL0     H38059   9.919   9.946   5.006  0.5941 -3.3755  2.6470
 1023MOL0     H38060   9.752  10.005   4.980 -0.3053 -0.7856  1.2270
 1023MOL0     H38061   9.853   9.759   4.852  1.2252  0.1175 -0.4035
 1023MOL0     H38062   9.833   9.914   4.766  0.0543  2.8415  1.6294
 1023MOL0     H38063   9.589   9.842   4.912 -3.8015 -2.6929 -1.0571
 1023MOL0     H38064   9.628   9.722   4.784 -0.3924 -1.1859 -0.5842
 1023MOL0     H38065   9.375   9.762   4.819 -0.4393  0.1241  0.4687
 1023MOL0     H38066   9.183   9.711   4.837  4.6793 -0.5295 -2.3081
 1023MOL0     H38067   9.046   9.806   4.749  0.5029  0.0523 -1.9174
 1023MOL0     H38068   9.093   9.651   4.701 -1.4466  0.1674  0.6859
 1023MOL0     H38069   8.903  10.126   4.296  0.0898 -0.2490 -0.6470
 1023MOL0     H38070   8.680  10.115   4.184  0.3094  0.0326 -2.7124
 1023MOL0     H38071   8.683   9.807   3.871 -0.2815  1.0186 -2.7206
 1023MOL0     H38072   8.524   9.768   3.951 -2.5072  1.9005  1.0586
 1023MOL0     H38073   8.584   9.961   3.733  0.3209 -1.4614  1.2783
 1023MOL0     H38074   8.459   9.839   3.740  1.4403 -2.5262  2.0270
 1023MOL0     H38075   8.368  10.086   3.754  1.6306  0.6422 -0.7839
 1023MOL0     H38076   8.479  10.113   3.880  0.8546  1.1587 -3.3885
 1023MOL0     H38077   8.348   9.938   4.026 -0.3115  1.6577  0.3832
 1023MOL0     H38078   8.291  10.087   4.000  2.0229 -2.4367  3.8141
 1023MOL0     H38079   8.231   9.848   3.805  4.9144 -0.2460  2.0384
 1023MOL0     H38080   8.137  10.001   3.820 -0.3270 -0.2632  0.2491
 1023MOL0     H38081   8.157   9.773   4.003 -1.9651 -0.9895 -1.8507
 1023MOL0     H38082   8.109   9.944   4.053  2.3269  0.5406 -0.8862
 1023MOL0     H38083   7.984   9.824   3.816  0.1269 -2.2379  0.3505
 1023MOL0     H38084   7.905   9.936   3.942  0.5053 -0.2328  0.9783
 1023MOL0     H38085   7.933   9.640   3.913  0.8533  2.7243 -5.1423
 1023MOL0     H38086   7.781   9.720   3.921 -1.4556 -4.0146 -0.0909
 1023MOL0     H38087   8.792   9.723   4.034  1.6412  1.0909 -0.5241
 1023MOL0     H38088   8.959   9.712   4.183  2.7506  1.5087 -1.7571
 1023MOL0     H38089   9.304   9.972   4.374  1.4664  1.8290  0.7738
 1023MOL0     H38090   9.512   9.994   4.482  2.1337 -1.3553  0.6048
 1023MOL0     H38091   9.782  10.816   6.112 -1.6979  2.9423 -1.3337
 1023MOL0     H38092   9.953  10.902   6.292  2.7907 -0.6676  0.2582
 1023MOL0     H38093  10.373  11.011   6.404  2.3273  0.6355 -0.9559
 1023MOL0     H38094  10.458  11.071   6.614 -2.2247  0.3838  4.1563
 1023MOL0     H38095  10.642  11.321   6.741 -1.5297 -0.8283  3.4615
 1023MOL0     H38096  10.554  11.460   6.665 -2.5896 -0.2380 -1.3070
 1023MOL0     H38097  10.501  11.562   6.841 -0.4003  0.4772  0.2260
 1023MOL0     H38098  10.659  11.496   6.908 -0.9190  0.9486 -0.0285
 1023MOL0     H38099  10.544  11.320   7.008 -2.1134 -0.0688 -0.9816
 1023MOL0     H38100  10.381  11.377   6.965 -0.6938 -2.4263  1.1336
 1023MOL0     H38101  10.583  11.503   7.157  0.0287 -0.4071 -3.6929
 1023MOL0     H38102  10.419  11.455   7.212  2.0631 -0.1781  2.3555
 1023MOL0     H38103  10.406  11.865   7.082  0.7193  0.3201  0.8832
 1023MOL0     H38104  10.276  11.472   6.555 -2.6510 -1.3209 -1.3736
 1023MOL0     H38105  10.192  11.411   6.352  0.7232  0.4034 -2.3658
 1024MOL0     O38106   8.205   4.055   1.944  0.4399 -0.1500 -0.0187
 1024MOL0     C38107   8.261   4.052   2.050 -0.6723  0.5510 -0.5318
 1024MOL0     O38108   8.341   3.950   2.094  0.0629  0.5210 -0.5925
 1024MOL0     C38109   8.338   3.839   2.009  0.0254  0.6050 -0.5738
 1024MOL0     C38110   8.226   3.750   1.990  0.6328  0.1379  0.3324
 1024MOL0     C38111   8.223   3.651   1.889  0.1701 -0.1897  0.6908
 1024MOL0     C38112   8.334   3.617   1.825 -0.3680  0.7878  0.4146
 1024MOL0     O38113   8.329   3.523   1.722  0.3814  0.6252 -0.0648
 1024MOL0     C38114   8.240   3.411   1.735 -0.6127  0.3398 -0.5666
 1024MOL0     C38115   8.253   3.314   1.616  0.5326  0.1075  0.1880
 1024MOL0     C38116   8.208   3.389   1.490 -0.7580 -0.3601 -0.8306
 1024MOL0     C38117   8.260   3.310   1.370 -0.7364 -0.1260  0.9321
 1024MOL0     C38118   8.172   3.196   1.307 -0.3902  0.3892  0.0674
 1024MOL0     C38119   8.252   3.138   1.199  0.6770 -0.1306  1.0415
 1024MOL0     C38120   8.182   3.025   1.126  0.8756 -0.9413 -1.5026
 1024MOL0     C38121   8.254   2.988   1.000 -0.2975 -0.1172 -0.5871
 1024MOL0     N38122   8.184   2.882   0.919 -0.0980 -1.1125 -0.6415
 1024MOL0     C38123   8.145   2.762   0.968  0.0196  0.6630 -0.1767
 1024MOL0     C38124   8.109   2.688   0.859  0.0419  0.0462  0.1809
 1024MOL0     C38125   8.092   2.535   0.849 -1.0804 -0.8664  0.4742
 1024MOL0     C38126   7.951   2.503   0.894 -0.3110  0.1246 -0.5764
 1024MOL0     C38127   7.929   2.339   0.880 -0.2051 -0.2554 -0.3815
 1024MOL0     C38128   7.774   2.302   0.857  0.4265 -0.5969  1.1782
 1024MOL0     O38129   7.738   2.163   0.852  0.0189 -0.0147  0.3820
 1024MOL0     C38130   7.808   2.079   0.772 -0.0341 -0.3654 -1.1555
 1024MOL0     C38131   7.874   1.978   0.838 -0.7888 -1.0427 -0.0771
 1024MOL0     C38132   7.945   1.879   0.775 -0.5564  0.2888  0.2748
 1024MOL0     C38133   7.999   1.770   0.863 -0.6295  1.0569 -0.1988
 1024MOL0     C38134   7.949   1.874   0.634  0.1934  0.0786  0.3340
 1024MOL0     C38135   8.018   1.772   0.555  0.2266  0.4977  0.0015
 1024MOL0     O38136   8.085   1.675   0.616  0.8647  0.1803 -0.4348
 1024MOL0     C38137   8.130   1.576   0.527  1.1099 -0.1712  0.5631
 1024MOL0     C38138   8.052   1.480   0.479  0.4255 -0.5294 -0.0738
 1024MOL0     C38139   8.100   1.382   0.385 -0.0874  0.0861 -0.2417
 1024MOL0     C38140   8.236   1.370   0.357  0.6906 -0.8847  0.2180
 1024MOL0     O38141   8.270   1.269   0.279  0.3084  0.3388  0.3963
 1024MOL0     C38142   8.248   1.143   0.350  0.0542  0.0325 -0.0362
 1024MOL0     C38143   8.161   1.053   0.264  0.0428  0.5973  0.0360
 1024MOL0     C38144   8.108   0.928   0.333 -0.7982  0.3027 -0.2586
 1024MOL0     C38145   8.011   0.962   0.441 -0.4448 -0.1852  0.1659
 1024MOL0     C38146   7.864   0.949   0.408 -0.0677  0.2521  0.8270
 1024MOL0     C38147   7.828   1.011   0.273  0.4103 -0.3355 -0.1273
 1024MOL0     C38148   7.675   1.000   0.257 -1.0362 -0.4783  0.5795
 1024MOL0     C38149   7.639   1.071   0.127  0.6603  0.2195  0.1603
 1024MOL0    Cl38150   7.468   1.026   0.098  0.1021  0.2780 -0.1729
 1024MOL0     C38151   8.319   1.474   0.399 -0.0003  0.3090 -0.1632
 1024MOL0     C38152   8.263   1.565   0.500  0.0411  0.3417  0.3227
 1024MOL0     O38153   8.020   1.797   0.438 -0.4170  0.8568  0.1143
 1024MOL0     C38154   7.869   1.968   0.568  0.1953 -0.1563  0.4217
 1024MOL0     C38155   7.815   2.081   0.631 -0.6879  0.2565  0.3535
 1024MOL0     N38156   8.112   2.768   0.751 -0.5034 -0.0558 -0.0238
 1024MOL0     N38157   8.172   2.874   0.786  0.4806  0.6192  0.9107
 1024MOL0     C38158   8.448   3.687   1.843 -0.5577 -0.7811 -0.2136
 1024MOL0     C38159   8.450   3.803   1.934 -0.7823 -0.5194  1.2409
 1024MOL0     C38160   8.263   4.177   2.134  0.0944  0.4875 -0.9134
 1024MOL0     C38161   8.356   4.188   2.248  0.7166  0.2631  0.1949
 1024MOL0     C38162   8.358   4.303   2.328 -0.9358  0.3198  0.9555
 1024MOL0     C38163   8.256   4.400   2.305 -0.9243 -0.4990  0.2664
 1024MOL0     O38164   8.248   4.510   2.384  0.1992  0.0076 -0.0924
 1024MOL0     C38165   8.352   4.541   2.476 -0.5235 -0.1832 -0.0731
 1024MOL0     C38166   8.318   4.644   2.581 -0.2069 -0.3288  0.1322
 1024MOL0     C38167   8.205   4.609   2.674 -0.4708  0.0899  0.0530
 1024MOL0     C38168   8.204   4.714   2.791  0.3511  0.9907 -0.0158
 1024MOL0     C38169   8.120   4.828   2.749  0.1671  0.1818  0.6611
 1024MOL0     C38170   8.078   4.943   2.733  0.7882 -0.2931  0.7057
 1024MOL0     C38171   8.166   4.399   2.206  0.0304  0.2263 -0.1416
 1024MOL0     C38172   8.166   4.271   2.123 -0.7055  0.0519 -0.2377
 1024MOL0     H38173   8.137   3.774   2.047 -1.2309 -2.0849 -1.4773
 1024MOL0     H38174   8.133   3.592   1.872 -0.1825  1.2946 -3.7700
 1024MOL0     H38175   8.275   3.363   1.827  0.6002  1.3398 -0.4845
 1024MOL0     H38176   8.136   3.443   1.739 -1.4266 -2.1301 -0.0182
 1024MOL0     H38177   8.350   3.264   1.620 -0.9656 -2.9509  1.4317
 1024MOL0     H38178   8.181   3.232   1.626  1.8229 -0.9503  1.0985
 1024MOL0     H38179   8.099   3.400   1.492 -0.5262  2.8007 -0.5601
 1024MOL0     H38180   8.238   3.494   1.495 -0.0269 -0.6106  0.1731
 1024MOL0     H38181   8.274   3.383   1.290  0.9875  2.1397  3.1234
 1024MOL0     H38182   8.361   3.268   1.380 -0.8853 -1.7296 -2.8227
 1024MOL0     H38183   8.139   3.119   1.377  0.8227 -1.7779 -1.6177
 1024MOL0     H38184   8.081   3.247   1.272  0.1132  0.2648 -1.5397
 1024MOL0     H38185   8.278   3.218   1.129  0.7092  0.1774  1.4043
 1024MOL0     H38186   8.346   3.092   1.231  0.9695  0.2531  0.7543
 1024MOL0     H38187   8.189   2.927   1.173  3.1934 -1.9576 -3.7205
 1024MOL0     H38188   8.079   3.058   1.110  0.0114 -2.0275  1.2068
 1024MOL0     H38189   8.355   2.949   1.019 -0.6902  0.4391  3.4559
 1024MOL0     H38190   8.264   3.078   0.939  1.0717 -0.4350 -0.8720
 1024MOL0     H38191   8.145   2.725   1.070  3.1142  0.8455 -0.0017
 1024MOL0     H38192   8.105   2.495   0.748 -1.6355 -1.3127  0.5674
 1024MOL0     H38193   8.162   2.495   0.922 -1.0380 -2.5492 -0.4418
 1024MOL0     H38194   7.874   2.557   0.839  0.0058 -0.2688 -1.4286
 1024MOL0     H38195   7.935   2.526   1.000 -1.9067 -1.3807 -0.4512
 1024MOL0     H38196   7.964   2.293   0.973  1.5322 -0.6052 -1.1792
 1024MOL0     H38197   7.994   2.302   0.801  0.9613  2.1664 -0.6516
 1024MOL0     H38198   7.739   2.350   0.765  2.2820  0.0525  0.7742
 1024MOL0     H38199   7.712   2.341   0.938 -1.1092 -2.7033  1.1004
 1024MOL0     H38200   7.867   1.988   0.946 -2.2741 -1.7075 -0.0805
 1024MOL0     H38201   7.953   1.671   0.854  1.2201 -0.2007  2.5907
 1024MOL0     H38202   8.105   1.754   0.843 -0.6340  0.3354  0.3218
 1024MOL0     H38203   8.000   1.792   0.970  4.1827 -2.3339  0.8179
 1024MOL0     H38204   7.944   1.484   0.495  0.1444 -1.8134 -1.4338
 1024MOL0     H38205   8.023   1.316   0.345 -1.7822  1.9131 -0.1634
 1024MOL0     H38206   8.338   1.092   0.385  0.1110  0.4421  0.4325
 1024MOL0     H38207   8.203   1.149   0.449  0.9799 -1.5219  0.5134
 1024MOL0     H38208   8.077   1.113   0.228 -0.4488 -1.8615 -3.3745
 1024MOL0     H38209   8.219   1.024   0.176 -1.4745 -1.9021 -0.2221
 1024MOL0     H38210   8.198   0.888   0.380  0.2353  3.9186  1.1265
 1024MOL0     H38211   8.073   0.849   0.266 -2.1181 -0.4253  1.2389
 1024MOL0     H38212   8.029   0.880   0.511 -0.0564 -1.0382 -0.9161
 1024MOL0     H38213   8.025   1.059   0.491 -1.4067 -0.0617  0.2259
 1024MOL0     H38214   7.797   0.977   0.490 -1.6145 -1.3764  0.2073
 1024MOL0     H38215   7.838   0.843   0.399  1.8826 -0.2760  0.9047
 1024MOL0     H38216   7.871   1.111   0.263  0.8617 -0.7803 -3.7615
 1024MOL0     H38217   7.890   0.959   0.200  1.1351  2.1123 -1.3580
 1024MOL0     H38218   7.623   1.058   0.335  0.1577  0.4867  0.6822
 1024MOL0     H38219   7.638   0.897   0.255 -0.4230 -0.6947 -0.1148
 1024MOL0     H38220   7.695   1.027   0.044 -1.0676 -0.0508 -0.9144
 1024MOL0     H38221   7.643   1.180   0.130 -3.1901  0.5852 -1.5551
 1024MOL0     H38222   8.424   1.458   0.375  0.1678 -3.2218  2.2250
 1024MOL0     H38223   8.329   1.633   0.553 -0.5259  0.7768  0.4818
 1024MOL0     H38224   7.863   1.965   0.459  1.5281 -4.5635  0.2730
 1024MOL0     H38225   7.775   2.154   0.562  1.8677 -0.6692 -2.3179
 1024MOL0     H38226   8.526   3.659   1.773 -1.2474  0.0249 -1.3353
 1024MOL0     H38227   8.541   3.862   1.948 -1.2076  0.9172 -1.4238
 1024MOL0     H38228   8.438   4.118   2.261  2.0438  1.2343 -2.1773
 1024MOL0     H38229   8.434   4.305   2.405  0.9274  0.9175 -0.8244
 1024MOL0     H38230   8.366   4.452   2.537 -3.0874 -0.3048  0.4703
 1024MOL0     H38231   8.443   4.561   2.420 -0.9085 -0.4478 -0.8105
 1024MOL0     H38232   8.275   4.723   2.519  1.5091  1.5893  1.2486
 1024MOL0     H38233   8.396   4.690   2.641 -0.9145  1.9888 -0.6128
 1024MOL0     H38234   8.218   4.509   2.717 -0.3425  1.3351  3.2401
 1024MOL0     H38235   8.110   4.601   2.621  0.4711 -2.5209 -1.4268
 1024MOL0     H38236   8.301   4.741   2.834 -0.1405 -1.5850  3.0853
 1024MOL0     H38237   8.163   4.667   2.881  0.1304  0.3758 -0.4295
 1024MOL0     H38238   8.037   5.041   2.722 -0.7946 -1.2228 -3.4857
 1024MOL0     H38239   8.097   4.483   2.204  1.5321  1.4860 -0.9650
 1024MOL0     H38240   8.092   4.267   2.043  1.0117 -2.2109 -1.8651
  11.54670  11.54670  11.54670
